PSF EXT CMAP CHEQ XPLOR

         3 !NTITLE
* GENERATED BY CHARMM-GUI (HTTP://WWW.CHARMM-GUI.ORG) V3.1 ON OCT, 03. 2020. JOB
* ASSEMBLE PREVIOUSLY GENERATED COMPONENTS (LIPID BILAYER, PROTEIN, PORE WATER, 
*  DATE:    10/ 3/20     19:23:52      CREATED BY USER: apache                  

     59672 !NATOM
         1 MEMB     1        QMPE     N        NH3L    -0.300000       14.0070           0   0.00000     -0.301140E-02
         2 MEMB     1        QMPE     HN1      HCL      0.330000       1.00800           0   0.00000     -0.301140E-02
         3 MEMB     1        QMPE     HN2      HCL      0.330000       1.00800           0   0.00000     -0.301140E-02
         4 MEMB     1        QMPE     HN3      HCL      0.330000       1.00800           0   0.00000     -0.301140E-02
         5 MEMB     1        QMPE     C12      CTL2     0.130000       12.0110           0   0.00000     -0.301140E-02
         6 MEMB     1        QMPE     H12A     HAL2     0.900000E-01   1.00800           0   0.00000     -0.301140E-02
         7 MEMB     1        QMPE     H12B     HAL2     0.900000E-01   1.00800           0   0.00000     -0.301140E-02
         8 MEMB     1        QMPE     C11      CTL2    -0.800000E-01   12.0110           0   0.00000     -0.301140E-02
         9 MEMB     1        QMPE     H11A     HAL2     0.900000E-01   1.00800           0   0.00000     -0.301140E-02
        10 MEMB     1        QMPE     H11B     HAL2     0.900000E-01   1.00800           0   0.00000     -0.301140E-02
        11 MEMB     1        QMPE     P        PL        1.50000       30.9740           0   0.00000     -0.301140E-02
        12 MEMB     1        QMPE     O13      O2L     -0.780000       15.9994           0   0.00000     -0.301140E-02
        13 MEMB     1        QMPE     O14      O2L     -0.780000       15.9994           0   0.00000     -0.301140E-02
        14 MEMB     1        QMPE     O11      OSLP    -0.570000       15.9994           0   0.00000     -0.301140E-02
        15 MEMB     1        QMPE     O12      OSLP    -0.570000       15.9994           0   0.00000     -0.301140E-02
        16 MEMB     1        QMPE     C1       CTL2    -0.800000E-01   12.0110           0   0.00000     -0.301140E-02
        17 MEMB     1        QMPE     HA       HAL2     0.900000E-01   1.00800           0   0.00000     -0.301140E-02
        18 MEMB     1        QMPE     HB       HAL2     0.900000E-01   1.00800           0   0.00000     -0.301140E-02
        19 MEMB     1        QMPE     C2       CTL1     0.170000       12.0110           0   0.00000     -0.301140E-02
        20 MEMB     1        QMPE     HS       HAL1     0.900000E-01   1.00800           0   0.00000     -0.301140E-02
        21 MEMB     1        QMPE     O21      OSL     -0.490000       15.9994           0   0.00000     -0.301140E-02
        22 MEMB     1        QMPE     C21      CL       0.900000       12.0110           0   0.00000     -0.301140E-02
        23 MEMB     1        QMPE     O22      OBL     -0.630000       15.9994           0   0.00000     -0.301140E-02
        24 MEMB     1        QMPE     C22      CTL2    -0.220000       12.0110           0   0.00000     -0.301140E-02
        25 MEMB     1        QMPE     H2R      HAL2     0.900000E-01   1.00800           0   0.00000     -0.301140E-02
        26 MEMB     1        QMPE     H2S      HAL2     0.900000E-01   1.00800           0   0.00000     -0.301140E-02
        27 MEMB     1        QMPE     C3       CTL2     0.800000E-01   12.0110           0   0.00000     -0.301140E-02
        28 MEMB     1        QMPE     HX       HAL2     0.900000E-01   1.00800           0   0.00000     -0.301140E-02
        29 MEMB     1        QMPE     HY       HAL2     0.900000E-01   1.00800           0   0.00000     -0.301140E-02
        30 MEMB     1        QMPE     O31      OSL     -0.490000       15.9994           0   0.00000     -0.301140E-02
        31 MEMB     1        QMPE     C31      CL       0.900000       12.0110           0   0.00000     -0.301140E-02
        32 MEMB     1        QMPE     O32      OBL     -0.630000       15.9994           0   0.00000     -0.301140E-02
        33 MEMB     1        QMPE     C32      CTL2    -0.220000       12.0110           0   0.00000     -0.301140E-02
        34 MEMB     1        QMPE     H2X      HAL2     0.900000E-01   1.00800           0   0.00000     -0.301140E-02
        35 MEMB     1        QMPE     H2Y      HAL2     0.900000E-01   1.00800           0   0.00000     -0.301140E-02
        36 MEMB     1        QMPE     C23      CTL2    -0.180000       12.0110           0   0.00000     -0.301140E-02
        37 MEMB     1        QMPE     H3R      HAL2     0.900000E-01   1.00800           0   0.00000     -0.301140E-02
        38 MEMB     1        QMPE     H3S      HAL2     0.900000E-01   1.00800           0   0.00000     -0.301140E-02
        39 MEMB     1        QMPE     C24      CTL2    -0.180000       12.0110           0   0.00000     -0.301140E-02
        40 MEMB     1        QMPE     H4R      HAL2     0.900000E-01   1.00800           0   0.00000     -0.301140E-02
        41 MEMB     1        QMPE     H4S      HAL2     0.900000E-01   1.00800           0   0.00000     -0.301140E-02
        42 MEMB     1        QMPE     C25      CTL2    -0.180000       12.0110           0   0.00000     -0.301140E-02
        43 MEMB     1        QMPE     H5R      HAL2     0.900000E-01   1.00800           0   0.00000     -0.301140E-02
        44 MEMB     1        QMPE     H5S      HAL2     0.900000E-01   1.00800           0   0.00000     -0.301140E-02
        45 MEMB     1        QMPE     C26      CTL2    -0.180000       12.0110           0   0.00000     -0.301140E-02
        46 MEMB     1        QMPE     H6R      HAL2     0.900000E-01   1.00800           0   0.00000     -0.301140E-02
        47 MEMB     1        QMPE     H6S      HAL2     0.900000E-01   1.00800           0   0.00000     -0.301140E-02
        48 MEMB     1        QMPE     C27      CTL2    -0.180000       12.0110           0   0.00000     -0.301140E-02
        49 MEMB     1        QMPE     H7R      HAL2     0.900000E-01   1.00800           0   0.00000     -0.301140E-02
        50 MEMB     1        QMPE     H7S      HAL2     0.900000E-01   1.00800           0   0.00000     -0.301140E-02
        51 MEMB     1        QMPE     C28      CTL2    -0.180000       12.0110           0   0.00000     -0.301140E-02
        52 MEMB     1        QMPE     H8R      HAL2     0.900000E-01   1.00800           0   0.00000     -0.301140E-02
        53 MEMB     1        QMPE     H8S      HAL2     0.900000E-01   1.00800           0   0.00000     -0.301140E-02
        54 MEMB     1        QMPE     C29      CG3RC1  -0.900000E-01   12.0110           0   0.00000     -0.301140E-02
        55 MEMB     1        QMPE     H9R      HGA1     0.900000E-01   1.00800           0   0.00000     -0.301140E-02
        56 MEMB     1        QMPE     C217     CG3C31  -0.180000       12.0110           0   0.00000     -0.301140E-02
        57 MEMB     1        QMPE     H17R     HGA2     0.900000E-01   1.00800           0   0.00000     -0.301140E-02
        58 MEMB     1        QMPE     H17S     HGA2     0.900000E-01   1.00800           0   0.00000     -0.301140E-02
        59 MEMB     1        QMPE     C210     CG3RC1  -0.900000E-01   12.0110           0   0.00000     -0.301140E-02
        60 MEMB     1        QMPE     H10R     HGA1     0.900000E-01   1.00800           0   0.00000     -0.301140E-02
        61 MEMB     1        QMPE     C211     CTL2    -0.180000       12.0110           0   0.00000     -0.301140E-02
        62 MEMB     1        QMPE     H11R     HAL2     0.900000E-01   1.00800           0   0.00000     -0.301140E-02
        63 MEMB     1        QMPE     H11S     HAL2     0.900000E-01   1.00800           0   0.00000     -0.301140E-02
        64 MEMB     1        QMPE     C212     CTL2    -0.180000       12.0110           0   0.00000     -0.301140E-02
        65 MEMB     1        QMPE     H12R     HAL2     0.900000E-01   1.00800           0   0.00000     -0.301140E-02
        66 MEMB     1        QMPE     H12S     HAL2     0.900000E-01   1.00800           0   0.00000     -0.301140E-02
        67 MEMB     1        QMPE     C213     CTL2    -0.180000       12.0110           0   0.00000     -0.301140E-02
        68 MEMB     1        QMPE     H13R     HAL2     0.900000E-01   1.00800           0   0.00000     -0.301140E-02
        69 MEMB     1        QMPE     H13S     HAL2     0.900000E-01   1.00800           0   0.00000     -0.301140E-02
        70 MEMB     1        QMPE     C214     CTL2    -0.180000       12.0110           0   0.00000     -0.301140E-02
        71 MEMB     1        QMPE     H14R     HAL2     0.900000E-01   1.00800           0   0.00000     -0.301140E-02
        72 MEMB     1        QMPE     H14S     HAL2     0.900000E-01   1.00800           0   0.00000     -0.301140E-02
        73 MEMB     1        QMPE     C215     CTL2    -0.180000       12.0110           0   0.00000     -0.301140E-02
        74 MEMB     1        QMPE     H15R     HAL2     0.900000E-01   1.00800           0   0.00000     -0.301140E-02
        75 MEMB     1        QMPE     H15S     HAL2     0.900000E-01   1.00800           0   0.00000     -0.301140E-02
        76 MEMB     1        QMPE     C216     CTL3    -0.270000       12.0110           0   0.00000     -0.301140E-02
        77 MEMB     1        QMPE     H16R     HAL3     0.900000E-01   1.00800           0   0.00000     -0.301140E-02
        78 MEMB     1        QMPE     H16S     HAL3     0.900000E-01   1.00800           0   0.00000     -0.301140E-02
        79 MEMB     1        QMPE     H16T     HAL3     0.900000E-01   1.00800           0   0.00000     -0.301140E-02
        80 MEMB     1        QMPE     C33      CTL2    -0.180000       12.0110           0   0.00000     -0.301140E-02
        81 MEMB     1        QMPE     H3X      HAL2     0.900000E-01   1.00800           0   0.00000     -0.301140E-02
        82 MEMB     1        QMPE     H3Y      HAL2     0.900000E-01   1.00800           0   0.00000     -0.301140E-02
        83 MEMB     1        QMPE     C34      CTL2    -0.180000       12.0110           0   0.00000     -0.301140E-02
        84 MEMB     1        QMPE     H4X      HAL2     0.900000E-01   1.00800           0   0.00000     -0.301140E-02
        85 MEMB     1        QMPE     H4Y      HAL2     0.900000E-01   1.00800           0   0.00000     -0.301140E-02
        86 MEMB     1        QMPE     C35      CTL2    -0.180000       12.0110           0   0.00000     -0.301140E-02
        87 MEMB     1        QMPE     H5X      HAL2     0.900000E-01   1.00800           0   0.00000     -0.301140E-02
        88 MEMB     1        QMPE     H5Y      HAL2     0.900000E-01   1.00800           0   0.00000     -0.301140E-02
        89 MEMB     1        QMPE     C36      CTL2    -0.180000       12.0110           0   0.00000     -0.301140E-02
        90 MEMB     1        QMPE     H6X      HAL2     0.900000E-01   1.00800           0   0.00000     -0.301140E-02
        91 MEMB     1        QMPE     H6Y      HAL2     0.900000E-01   1.00800           0   0.00000     -0.301140E-02
        92 MEMB     1        QMPE     C37      CTL2    -0.180000       12.0110           0   0.00000     -0.301140E-02
        93 MEMB     1        QMPE     H7X      HAL2     0.900000E-01   1.00800           0   0.00000     -0.301140E-02
        94 MEMB     1        QMPE     H7Y      HAL2     0.900000E-01   1.00800           0   0.00000     -0.301140E-02
        95 MEMB     1        QMPE     C38      CTL2    -0.180000       12.0110           0   0.00000     -0.301140E-02
        96 MEMB     1        QMPE     H8X      HAL2     0.900000E-01   1.00800           0   0.00000     -0.301140E-02
        97 MEMB     1        QMPE     H8Y      HAL2     0.900000E-01   1.00800           0   0.00000     -0.301140E-02
        98 MEMB     1        QMPE     C39      CTL2    -0.180000       12.0110           0   0.00000     -0.301140E-02
        99 MEMB     1        QMPE     H9X      HAL2     0.900000E-01   1.00800           0   0.00000     -0.301140E-02
       100 MEMB     1        QMPE     H9Y      HAL2     0.900000E-01   1.00800           0   0.00000     -0.301140E-02
       101 MEMB     1        QMPE     C310     CTL2    -0.180000       12.0110           0   0.00000     -0.301140E-02
       102 MEMB     1        QMPE     H10X     HAL2     0.900000E-01   1.00800           0   0.00000     -0.301140E-02
       103 MEMB     1        QMPE     H10Y     HAL2     0.900000E-01   1.00800           0   0.00000     -0.301140E-02
       104 MEMB     1        QMPE     C311     CTL2    -0.180000       12.0110           0   0.00000     -0.301140E-02
       105 MEMB     1        QMPE     H11X     HAL2     0.900000E-01   1.00800           0   0.00000     -0.301140E-02
       106 MEMB     1        QMPE     H11Y     HAL2     0.900000E-01   1.00800           0   0.00000     -0.301140E-02
       107 MEMB     1        QMPE     C312     CTL2    -0.180000       12.0110           0   0.00000     -0.301140E-02
       108 MEMB     1        QMPE     H12X     HAL2     0.900000E-01   1.00800           0   0.00000     -0.301140E-02
       109 MEMB     1        QMPE     H12Y     HAL2     0.900000E-01   1.00800           0   0.00000     -0.301140E-02
       110 MEMB     1        QMPE     C313     CTL2    -0.180000       12.0110           0   0.00000     -0.301140E-02
       111 MEMB     1        QMPE     H13X     HAL2     0.900000E-01   1.00800           0   0.00000     -0.301140E-02
       112 MEMB     1        QMPE     H13Y     HAL2     0.900000E-01   1.00800           0   0.00000     -0.301140E-02
       113 MEMB     1        QMPE     C314     CTL2    -0.180000       12.0110           0   0.00000     -0.301140E-02
       114 MEMB     1        QMPE     H14X     HAL2     0.900000E-01   1.00800           0   0.00000     -0.301140E-02
       115 MEMB     1        QMPE     H14Y     HAL2     0.900000E-01   1.00800           0   0.00000     -0.301140E-02
       116 MEMB     1        QMPE     C315     CTL3    -0.270000       12.0110           0   0.00000     -0.301140E-02
       117 MEMB     1        QMPE     H15X     HAL3     0.900000E-01   1.00800           0   0.00000     -0.301140E-02
       118 MEMB     1        QMPE     H15Y     HAL3     0.900000E-01   1.00800           0   0.00000     -0.301140E-02
       119 MEMB     1        QMPE     H15Z     HAL3     0.900000E-01   1.00800           0   0.00000     -0.301140E-02
       120 MEMB     2        PMPE     N        NH3L    -0.300000       14.0070           0   0.00000     -0.301140E-02
       121 MEMB     2        PMPE     HN1      HCL      0.330000       1.00800           0   0.00000     -0.301140E-02
       122 MEMB     2        PMPE     HN2      HCL      0.330000       1.00800           0   0.00000     -0.301140E-02
       123 MEMB     2        PMPE     HN3      HCL      0.330000       1.00800           0   0.00000     -0.301140E-02
       124 MEMB     2        PMPE     C12      CTL2     0.130000       12.0110           0   0.00000     -0.301140E-02
       125 MEMB     2        PMPE     H12A     HAL2     0.900000E-01   1.00800           0   0.00000     -0.301140E-02
       126 MEMB     2        PMPE     H12B     HAL2     0.900000E-01   1.00800           0   0.00000     -0.301140E-02
       127 MEMB     2        PMPE     C11      CTL2    -0.800000E-01   12.0110           0   0.00000     -0.301140E-02
       128 MEMB     2        PMPE     H11A     HAL2     0.900000E-01   1.00800           0   0.00000     -0.301140E-02
       129 MEMB     2        PMPE     H11B     HAL2     0.900000E-01   1.00800           0   0.00000     -0.301140E-02
       130 MEMB     2        PMPE     P        PL        1.50000       30.9740           0   0.00000     -0.301140E-02
       131 MEMB     2        PMPE     O13      O2L     -0.780000       15.9994           0   0.00000     -0.301140E-02
       132 MEMB     2        PMPE     O14      O2L     -0.780000       15.9994           0   0.00000     -0.301140E-02
       133 MEMB     2        PMPE     O11      OSLP    -0.570000       15.9994           0   0.00000     -0.301140E-02
       134 MEMB     2        PMPE     O12      OSLP    -0.570000       15.9994           0   0.00000     -0.301140E-02
       135 MEMB     2        PMPE     C1       CTL2    -0.800000E-01   12.0110           0   0.00000     -0.301140E-02
       136 MEMB     2        PMPE     HA       HAL2     0.900000E-01   1.00800           0   0.00000     -0.301140E-02
       137 MEMB     2        PMPE     HB       HAL2     0.900000E-01   1.00800           0   0.00000     -0.301140E-02
       138 MEMB     2        PMPE     C2       CTL1     0.170000       12.0110           0   0.00000     -0.301140E-02
       139 MEMB     2        PMPE     HS       HAL1     0.900000E-01   1.00800           0   0.00000     -0.301140E-02
       140 MEMB     2        PMPE     O21      OSL     -0.490000       15.9994           0   0.00000     -0.301140E-02
       141 MEMB     2        PMPE     C21      CL       0.900000       12.0110           0   0.00000     -0.301140E-02
       142 MEMB     2        PMPE     O22      OBL     -0.630000       15.9994           0   0.00000     -0.301140E-02
       143 MEMB     2        PMPE     C22      CTL2    -0.220000       12.0110           0   0.00000     -0.301140E-02
       144 MEMB     2        PMPE     H2R      HAL2     0.900000E-01   1.00800           0   0.00000     -0.301140E-02
       145 MEMB     2        PMPE     H2S      HAL2     0.900000E-01   1.00800           0   0.00000     -0.301140E-02
       146 MEMB     2        PMPE     C3       CTL2     0.800000E-01   12.0110           0   0.00000     -0.301140E-02
       147 MEMB     2        PMPE     HX       HAL2     0.900000E-01   1.00800           0   0.00000     -0.301140E-02
       148 MEMB     2        PMPE     HY       HAL2     0.900000E-01   1.00800           0   0.00000     -0.301140E-02
       149 MEMB     2        PMPE     O31      OSL     -0.490000       15.9994           0   0.00000     -0.301140E-02
       150 MEMB     2        PMPE     C31      CL       0.900000       12.0110           0   0.00000     -0.301140E-02
       151 MEMB     2        PMPE     O32      OBL     -0.630000       15.9994           0   0.00000     -0.301140E-02
       152 MEMB     2        PMPE     C32      CTL2    -0.220000       12.0110           0   0.00000     -0.301140E-02
       153 MEMB     2        PMPE     H2X      HAL2     0.900000E-01   1.00800           0   0.00000     -0.301140E-02
       154 MEMB     2        PMPE     H2Y      HAL2     0.900000E-01   1.00800           0   0.00000     -0.301140E-02
       155 MEMB     2        PMPE     C23      CTL2    -0.180000       12.0110           0   0.00000     -0.301140E-02
       156 MEMB     2        PMPE     H3R      HAL2     0.900000E-01   1.00800           0   0.00000     -0.301140E-02
       157 MEMB     2        PMPE     H3S      HAL2     0.900000E-01   1.00800           0   0.00000     -0.301140E-02
       158 MEMB     2        PMPE     C24      CTL2    -0.180000       12.0110           0   0.00000     -0.301140E-02
       159 MEMB     2        PMPE     H4R      HAL2     0.900000E-01   1.00800           0   0.00000     -0.301140E-02
       160 MEMB     2        PMPE     H4S      HAL2     0.900000E-01   1.00800           0   0.00000     -0.301140E-02
       161 MEMB     2        PMPE     C25      CTL2    -0.180000       12.0110           0   0.00000     -0.301140E-02
       162 MEMB     2        PMPE     H5R      HAL2     0.900000E-01   1.00800           0   0.00000     -0.301140E-02
       163 MEMB     2        PMPE     H5S      HAL2     0.900000E-01   1.00800           0   0.00000     -0.301140E-02
       164 MEMB     2        PMPE     C26      CTL2    -0.180000       12.0110           0   0.00000     -0.301140E-02
       165 MEMB     2        PMPE     H6R      HAL2     0.900000E-01   1.00800           0   0.00000     -0.301140E-02
       166 MEMB     2        PMPE     H6S      HAL2     0.900000E-01   1.00800           0   0.00000     -0.301140E-02
       167 MEMB     2        PMPE     C27      CTL2    -0.180000       12.0110           0   0.00000     -0.301140E-02
       168 MEMB     2        PMPE     H7R      HAL2     0.900000E-01   1.00800           0   0.00000     -0.301140E-02
       169 MEMB     2        PMPE     H7S      HAL2     0.900000E-01   1.00800           0   0.00000     -0.301140E-02
       170 MEMB     2        PMPE     C28      CTL2    -0.180000       12.0110           0   0.00000     -0.301140E-02
       171 MEMB     2        PMPE     H8R      HAL2     0.900000E-01   1.00800           0   0.00000     -0.301140E-02
       172 MEMB     2        PMPE     H8S      HAL2     0.900000E-01   1.00800           0   0.00000     -0.301140E-02
       173 MEMB     2        PMPE     C29      CG3RC1  -0.900000E-01   12.0110           0   0.00000     -0.301140E-02
       174 MEMB     2        PMPE     H9R      HGA1     0.900000E-01   1.00800           0   0.00000     -0.301140E-02
       175 MEMB     2        PMPE     C217     CG3C31  -0.180000       12.0110           0   0.00000     -0.301140E-02
       176 MEMB     2        PMPE     H17R     HGA2     0.900000E-01   1.00800           0   0.00000     -0.301140E-02
       177 MEMB     2        PMPE     H17S     HGA2     0.900000E-01   1.00800           0   0.00000     -0.301140E-02
       178 MEMB     2        PMPE     C210     CG3RC1  -0.900000E-01   12.0110           0   0.00000     -0.301140E-02
       179 MEMB     2        PMPE     H10R     HGA1     0.900000E-01   1.00800           0   0.00000     -0.301140E-02
       180 MEMB     2        PMPE     C211     CTL2    -0.180000       12.0110           0   0.00000     -0.301140E-02
       181 MEMB     2        PMPE     H11R     HAL2     0.900000E-01   1.00800           0   0.00000     -0.301140E-02
       182 MEMB     2        PMPE     H11S     HAL2     0.900000E-01   1.00800           0   0.00000     -0.301140E-02
       183 MEMB     2        PMPE     C212     CTL2    -0.180000       12.0110           0   0.00000     -0.301140E-02
       184 MEMB     2        PMPE     H12R     HAL2     0.900000E-01   1.00800           0   0.00000     -0.301140E-02
       185 MEMB     2        PMPE     H12S     HAL2     0.900000E-01   1.00800           0   0.00000     -0.301140E-02
       186 MEMB     2        PMPE     C213     CTL2    -0.180000       12.0110           0   0.00000     -0.301140E-02
       187 MEMB     2        PMPE     H13R     HAL2     0.900000E-01   1.00800           0   0.00000     -0.301140E-02
       188 MEMB     2        PMPE     H13S     HAL2     0.900000E-01   1.00800           0   0.00000     -0.301140E-02
       189 MEMB     2        PMPE     C214     CTL2    -0.180000       12.0110           0   0.00000     -0.301140E-02
       190 MEMB     2        PMPE     H14R     HAL2     0.900000E-01   1.00800           0   0.00000     -0.301140E-02
       191 MEMB     2        PMPE     H14S     HAL2     0.900000E-01   1.00800           0   0.00000     -0.301140E-02
       192 MEMB     2        PMPE     C215     CTL2    -0.180000       12.0110           0   0.00000     -0.301140E-02
       193 MEMB     2        PMPE     H15R     HAL2     0.900000E-01   1.00800           0   0.00000     -0.301140E-02
       194 MEMB     2        PMPE     H15S     HAL2     0.900000E-01   1.00800           0   0.00000     -0.301140E-02
       195 MEMB     2        PMPE     C216     CTL3    -0.270000       12.0110           0   0.00000     -0.301140E-02
       196 MEMB     2        PMPE     H16R     HAL3     0.900000E-01   1.00800           0   0.00000     -0.301140E-02
       197 MEMB     2        PMPE     H16S     HAL3     0.900000E-01   1.00800           0   0.00000     -0.301140E-02
       198 MEMB     2        PMPE     H16T     HAL3     0.900000E-01   1.00800           0   0.00000     -0.301140E-02
       199 MEMB     2        PMPE     C33      CTL2    -0.180000       12.0110           0   0.00000     -0.301140E-02
       200 MEMB     2        PMPE     H3X      HAL2     0.900000E-01   1.00800           0   0.00000     -0.301140E-02
       201 MEMB     2        PMPE     H3Y      HAL2     0.900000E-01   1.00800           0   0.00000     -0.301140E-02
       202 MEMB     2        PMPE     C34      CTL2    -0.180000       12.0110           0   0.00000     -0.301140E-02
       203 MEMB     2        PMPE     H4X      HAL2     0.900000E-01   1.00800           0   0.00000     -0.301140E-02
       204 MEMB     2        PMPE     H4Y      HAL2     0.900000E-01   1.00800           0   0.00000     -0.301140E-02
       205 MEMB     2        PMPE     C35      CTL2    -0.180000       12.0110           0   0.00000     -0.301140E-02
       206 MEMB     2        PMPE     H5X      HAL2     0.900000E-01   1.00800           0   0.00000     -0.301140E-02
       207 MEMB     2        PMPE     H5Y      HAL2     0.900000E-01   1.00800           0   0.00000     -0.301140E-02
       208 MEMB     2        PMPE     C36      CTL2    -0.180000       12.0110           0   0.00000     -0.301140E-02
       209 MEMB     2        PMPE     H6X      HAL2     0.900000E-01   1.00800           0   0.00000     -0.301140E-02
       210 MEMB     2        PMPE     H6Y      HAL2     0.900000E-01   1.00800           0   0.00000     -0.301140E-02
       211 MEMB     2        PMPE     C37      CTL2    -0.180000       12.0110           0   0.00000     -0.301140E-02
       212 MEMB     2        PMPE     H7X      HAL2     0.900000E-01   1.00800           0   0.00000     -0.301140E-02
       213 MEMB     2        PMPE     H7Y      HAL2     0.900000E-01   1.00800           0   0.00000     -0.301140E-02
       214 MEMB     2        PMPE     C38      CTL2    -0.180000       12.0110           0   0.00000     -0.301140E-02
       215 MEMB     2        PMPE     H8X      HAL2     0.900000E-01   1.00800           0   0.00000     -0.301140E-02
       216 MEMB     2        PMPE     H8Y      HAL2     0.900000E-01   1.00800           0   0.00000     -0.301140E-02
       217 MEMB     2        PMPE     C39      CTL2    -0.180000       12.0110           0   0.00000     -0.301140E-02
       218 MEMB     2        PMPE     H9X      HAL2     0.900000E-01   1.00800           0   0.00000     -0.301140E-02
       219 MEMB     2        PMPE     H9Y      HAL2     0.900000E-01   1.00800           0   0.00000     -0.301140E-02
       220 MEMB     2        PMPE     C310     CTL2    -0.180000       12.0110           0   0.00000     -0.301140E-02
       221 MEMB     2        PMPE     H10X     HAL2     0.900000E-01   1.00800           0   0.00000     -0.301140E-02
       222 MEMB     2        PMPE     H10Y     HAL2     0.900000E-01   1.00800           0   0.00000     -0.301140E-02
       223 MEMB     2        PMPE     C311     CTL2    -0.180000       12.0110           0   0.00000     -0.301140E-02
       224 MEMB     2        PMPE     H11X     HAL2     0.900000E-01   1.00800           0   0.00000     -0.301140E-02
       225 MEMB     2        PMPE     H11Y     HAL2     0.900000E-01   1.00800           0   0.00000     -0.301140E-02
       226 MEMB     2        PMPE     C312     CTL2    -0.180000       12.0110           0   0.00000     -0.301140E-02
       227 MEMB     2        PMPE     H12X     HAL2     0.900000E-01   1.00800           0   0.00000     -0.301140E-02
       228 MEMB     2        PMPE     H12Y     HAL2     0.900000E-01   1.00800           0   0.00000     -0.301140E-02
       229 MEMB     2        PMPE     C313     CTL2    -0.180000       12.0110           0   0.00000     -0.301140E-02
       230 MEMB     2        PMPE     H13X     HAL2     0.900000E-01   1.00800           0   0.00000     -0.301140E-02
       231 MEMB     2        PMPE     H13Y     HAL2     0.900000E-01   1.00800           0   0.00000     -0.301140E-02
       232 MEMB     2        PMPE     C314     CTL2    -0.180000       12.0110           0   0.00000     -0.301140E-02
       233 MEMB     2        PMPE     H14X     HAL2     0.900000E-01   1.00800           0   0.00000     -0.301140E-02
       234 MEMB     2        PMPE     H14Y     HAL2     0.900000E-01   1.00800           0   0.00000     -0.301140E-02
       235 MEMB     2        PMPE     C315     CTL2    -0.180000       12.0110           0   0.00000     -0.301140E-02
       236 MEMB     2        PMPE     H15X     HAL2     0.900000E-01   1.00800           0   0.00000     -0.301140E-02
       237 MEMB     2        PMPE     H15Y     HAL2     0.900000E-01   1.00800           0   0.00000     -0.301140E-02
       238 MEMB     2        PMPE     C316     CTL3    -0.270000       12.0110           0   0.00000     -0.301140E-02
       239 MEMB     2        PMPE     H16X     HAL3     0.900000E-01   1.00800           0   0.00000     -0.301140E-02
       240 MEMB     2        PMPE     H16Y     HAL3     0.900000E-01   1.00800           0   0.00000     -0.301140E-02
       241 MEMB     2        PMPE     H16Z     HAL3     0.900000E-01   1.00800           0   0.00000     -0.301140E-02
       242 MEMB     3        PYPG     C13      CTL2     0.500000E-01   12.0110           0   0.00000     -0.301140E-02
       243 MEMB     3        PYPG     H13A     HAL2     0.900000E-01   1.00800           0   0.00000     -0.301140E-02
       244 MEMB     3        PYPG     H13B     HAL2     0.900000E-01   1.00800           0   0.00000     -0.301140E-02
       245 MEMB     3        PYPG     OC3      OHL     -0.660000       15.9994           0   0.00000     -0.301140E-02
       246 MEMB     3        PYPG     HO3      HOL      0.430000       1.00800           0   0.00000     -0.301140E-02
       247 MEMB     3        PYPG     C12      CTL1     0.140000       12.0110           0   0.00000     -0.301140E-02
       248 MEMB     3        PYPG     H12A     HAL1     0.900000E-01   1.00800           0   0.00000     -0.301140E-02
       249 MEMB     3        PYPG     OC2      OHL     -0.660000       15.9994           0   0.00000     -0.301140E-02
       250 MEMB     3        PYPG     HO2      HOL      0.430000       1.00800           0   0.00000     -0.301140E-02
       251 MEMB     3        PYPG     C11      CTL2    -0.800000E-01   12.0110           0   0.00000     -0.301140E-02
       252 MEMB     3        PYPG     H11A     HAL2     0.900000E-01   1.00800           0   0.00000     -0.301140E-02
       253 MEMB     3        PYPG     H11B     HAL2     0.900000E-01   1.00800           0   0.00000     -0.301140E-02
       254 MEMB     3        PYPG     P        PL        1.50000       30.9740           0   0.00000     -0.301140E-02
       255 MEMB     3        PYPG     O13      O2L     -0.780000       15.9994           0   0.00000     -0.301140E-02
       256 MEMB     3        PYPG     O14      O2L     -0.780000       15.9994           0   0.00000     -0.301140E-02
       257 MEMB     3        PYPG     O11      OSLP    -0.570000       15.9994           0   0.00000     -0.301140E-02
       258 MEMB     3        PYPG     O12      OSLP    -0.570000       15.9994           0   0.00000     -0.301140E-02
       259 MEMB     3        PYPG     C1       CTL2    -0.800000E-01   12.0110           0   0.00000     -0.301140E-02
       260 MEMB     3        PYPG     HA       HAL2     0.900000E-01   1.00800           0   0.00000     -0.301140E-02
       261 MEMB     3        PYPG     HB       HAL2     0.900000E-01   1.00800           0   0.00000     -0.301140E-02
       262 MEMB     3        PYPG     C2       CTL1     0.170000       12.0110           0   0.00000     -0.301140E-02
       263 MEMB     3        PYPG     HS       HAL1     0.900000E-01   1.00800           0   0.00000     -0.301140E-02
       264 MEMB     3        PYPG     O21      OSL     -0.490000       15.9994           0   0.00000     -0.301140E-02
       265 MEMB     3        PYPG     C21      CL       0.900000       12.0110           0   0.00000     -0.301140E-02
       266 MEMB     3        PYPG     O22      OBL     -0.630000       15.9994           0   0.00000     -0.301140E-02
       267 MEMB     3        PYPG     C22      CTL2    -0.220000       12.0110           0   0.00000     -0.301140E-02
       268 MEMB     3        PYPG     H2R      HAL2     0.900000E-01   1.00800           0   0.00000     -0.301140E-02
       269 MEMB     3        PYPG     H2S      HAL2     0.900000E-01   1.00800           0   0.00000     -0.301140E-02
       270 MEMB     3        PYPG     C3       CTL2     0.800000E-01   12.0110           0   0.00000     -0.301140E-02
       271 MEMB     3        PYPG     HX       HAL2     0.900000E-01   1.00800           0   0.00000     -0.301140E-02
       272 MEMB     3        PYPG     HY       HAL2     0.900000E-01   1.00800           0   0.00000     -0.301140E-02
       273 MEMB     3        PYPG     O31      OSL     -0.490000       15.9994           0   0.00000     -0.301140E-02
       274 MEMB     3        PYPG     C31      CL       0.900000       12.0110           0   0.00000     -0.301140E-02
       275 MEMB     3        PYPG     O32      OBL     -0.630000       15.9994           0   0.00000     -0.301140E-02
       276 MEMB     3        PYPG     C32      CTL2    -0.220000       12.0110           0   0.00000     -0.301140E-02
       277 MEMB     3        PYPG     H2X      HAL2     0.900000E-01   1.00800           0   0.00000     -0.301140E-02
       278 MEMB     3        PYPG     H2Y      HAL2     0.900000E-01   1.00800           0   0.00000     -0.301140E-02
       279 MEMB     3        PYPG     C23      CTL2    -0.180000       12.0110           0   0.00000     -0.301140E-02
       280 MEMB     3        PYPG     H3R      HAL2     0.900000E-01   1.00800           0   0.00000     -0.301140E-02
       281 MEMB     3        PYPG     H3S      HAL2     0.900000E-01   1.00800           0   0.00000     -0.301140E-02
       282 MEMB     3        PYPG     C24      CTL2    -0.180000       12.0110           0   0.00000     -0.301140E-02
       283 MEMB     3        PYPG     H4R      HAL2     0.900000E-01   1.00800           0   0.00000     -0.301140E-02
       284 MEMB     3        PYPG     H4S      HAL2     0.900000E-01   1.00800           0   0.00000     -0.301140E-02
       285 MEMB     3        PYPG     C25      CTL2    -0.180000       12.0110           0   0.00000     -0.301140E-02
       286 MEMB     3        PYPG     H5R      HAL2     0.900000E-01   1.00800           0   0.00000     -0.301140E-02
       287 MEMB     3        PYPG     H5S      HAL2     0.900000E-01   1.00800           0   0.00000     -0.301140E-02
       288 MEMB     3        PYPG     C26      CTL2    -0.180000       12.0110           0   0.00000     -0.301140E-02
       289 MEMB     3        PYPG     H6R      HAL2     0.900000E-01   1.00800           0   0.00000     -0.301140E-02
       290 MEMB     3        PYPG     H6S      HAL2     0.900000E-01   1.00800           0   0.00000     -0.301140E-02
       291 MEMB     3        PYPG     C27      CTL2    -0.180000       12.0110           0   0.00000     -0.301140E-02
       292 MEMB     3        PYPG     H7R      HAL2     0.900000E-01   1.00800           0   0.00000     -0.301140E-02
       293 MEMB     3        PYPG     H7S      HAL2     0.900000E-01   1.00800           0   0.00000     -0.301140E-02
       294 MEMB     3        PYPG     C28      CTL2    -0.180000       12.0110           0   0.00000     -0.301140E-02
       295 MEMB     3        PYPG     H8R      HAL2     0.900000E-01   1.00800           0   0.00000     -0.301140E-02
       296 MEMB     3        PYPG     H8S      HAL2     0.900000E-01   1.00800           0   0.00000     -0.301140E-02
       297 MEMB     3        PYPG     C29      CEL1    -0.150000       12.0110           0   0.00000     -0.301140E-02
       298 MEMB     3        PYPG     H9R      HEL1     0.150000       1.00800           0   0.00000     -0.301140E-02
       299 MEMB     3        PYPG     C210     CEL1    -0.150000       12.0110           0   0.00000     -0.301140E-02
       300 MEMB     3        PYPG     H10R     HEL1     0.150000       1.00800           0   0.00000     -0.301140E-02
       301 MEMB     3        PYPG     C211     CTL2    -0.180000       12.0110           0   0.00000     -0.301140E-02
       302 MEMB     3        PYPG     H11R     HAL2     0.900000E-01   1.00800           0   0.00000     -0.301140E-02
       303 MEMB     3        PYPG     H11S     HAL2     0.900000E-01   1.00800           0   0.00000     -0.301140E-02
       304 MEMB     3        PYPG     C212     CTL2    -0.180000       12.0110           0   0.00000     -0.301140E-02
       305 MEMB     3        PYPG     H12R     HAL2     0.900000E-01   1.00800           0   0.00000     -0.301140E-02
       306 MEMB     3        PYPG     H12S     HAL2     0.900000E-01   1.00800           0   0.00000     -0.301140E-02
       307 MEMB     3        PYPG     C213     CTL2    -0.180000       12.0110           0   0.00000     -0.301140E-02
       308 MEMB     3        PYPG     H13R     HAL2     0.900000E-01   1.00800           0   0.00000     -0.301140E-02
       309 MEMB     3        PYPG     H13S     HAL2     0.900000E-01   1.00800           0   0.00000     -0.301140E-02
       310 MEMB     3        PYPG     C214     CTL2    -0.180000       12.0110           0   0.00000     -0.301140E-02
       311 MEMB     3        PYPG     H14R     HAL2     0.900000E-01   1.00800           0   0.00000     -0.301140E-02
       312 MEMB     3        PYPG     H14S     HAL2     0.900000E-01   1.00800           0   0.00000     -0.301140E-02
       313 MEMB     3        PYPG     C215     CTL2    -0.180000       12.0110           0   0.00000     -0.301140E-02
       314 MEMB     3        PYPG     H15R     HAL2     0.900000E-01   1.00800           0   0.00000     -0.301140E-02
       315 MEMB     3        PYPG     H15S     HAL2     0.900000E-01   1.00800           0   0.00000     -0.301140E-02
       316 MEMB     3        PYPG     C216     CTL3    -0.270000       12.0110           0   0.00000     -0.301140E-02
       317 MEMB     3        PYPG     H16R     HAL3     0.900000E-01   1.00800           0   0.00000     -0.301140E-02
       318 MEMB     3        PYPG     H16S     HAL3     0.900000E-01   1.00800           0   0.00000     -0.301140E-02
       319 MEMB     3        PYPG     H16T     HAL3     0.900000E-01   1.00800           0   0.00000     -0.301140E-02
       320 MEMB     3        PYPG     C33      CTL2    -0.180000       12.0110           0   0.00000     -0.301140E-02
       321 MEMB     3        PYPG     H3X      HAL2     0.900000E-01   1.00800           0   0.00000     -0.301140E-02
       322 MEMB     3        PYPG     H3Y      HAL2     0.900000E-01   1.00800           0   0.00000     -0.301140E-02
       323 MEMB     3        PYPG     C34      CTL2    -0.180000       12.0110           0   0.00000     -0.301140E-02
       324 MEMB     3        PYPG     H4X      HAL2     0.900000E-01   1.00800           0   0.00000     -0.301140E-02
       325 MEMB     3        PYPG     H4Y      HAL2     0.900000E-01   1.00800           0   0.00000     -0.301140E-02
       326 MEMB     3        PYPG     C35      CTL2    -0.180000       12.0110           0   0.00000     -0.301140E-02
       327 MEMB     3        PYPG     H5X      HAL2     0.900000E-01   1.00800           0   0.00000     -0.301140E-02
       328 MEMB     3        PYPG     H5Y      HAL2     0.900000E-01   1.00800           0   0.00000     -0.301140E-02
       329 MEMB     3        PYPG     C36      CTL2    -0.180000       12.0110           0   0.00000     -0.301140E-02
       330 MEMB     3        PYPG     H6X      HAL2     0.900000E-01   1.00800           0   0.00000     -0.301140E-02
       331 MEMB     3        PYPG     H6Y      HAL2     0.900000E-01   1.00800           0   0.00000     -0.301140E-02
       332 MEMB     3        PYPG     C37      CTL2    -0.180000       12.0110           0   0.00000     -0.301140E-02
       333 MEMB     3        PYPG     H7X      HAL2     0.900000E-01   1.00800           0   0.00000     -0.301140E-02
       334 MEMB     3        PYPG     H7Y      HAL2     0.900000E-01   1.00800           0   0.00000     -0.301140E-02
       335 MEMB     3        PYPG     C38      CTL2    -0.180000       12.0110           0   0.00000     -0.301140E-02
       336 MEMB     3        PYPG     H8X      HAL2     0.900000E-01   1.00800           0   0.00000     -0.301140E-02
       337 MEMB     3        PYPG     H8Y      HAL2     0.900000E-01   1.00800           0   0.00000     -0.301140E-02
       338 MEMB     3        PYPG     C39      CTL2    -0.180000       12.0110           0   0.00000     -0.301140E-02
       339 MEMB     3        PYPG     H9X      HAL2     0.900000E-01   1.00800           0   0.00000     -0.301140E-02
       340 MEMB     3        PYPG     H9Y      HAL2     0.900000E-01   1.00800           0   0.00000     -0.301140E-02
       341 MEMB     3        PYPG     C310     CTL2    -0.180000       12.0110           0   0.00000     -0.301140E-02
       342 MEMB     3        PYPG     H10X     HAL2     0.900000E-01   1.00800           0   0.00000     -0.301140E-02
       343 MEMB     3        PYPG     H10Y     HAL2     0.900000E-01   1.00800           0   0.00000     -0.301140E-02
       344 MEMB     3        PYPG     C311     CTL2    -0.180000       12.0110           0   0.00000     -0.301140E-02
       345 MEMB     3        PYPG     H11X     HAL2     0.900000E-01   1.00800           0   0.00000     -0.301140E-02
       346 MEMB     3        PYPG     H11Y     HAL2     0.900000E-01   1.00800           0   0.00000     -0.301140E-02
       347 MEMB     3        PYPG     C312     CTL2    -0.180000       12.0110           0   0.00000     -0.301140E-02
       348 MEMB     3        PYPG     H12X     HAL2     0.900000E-01   1.00800           0   0.00000     -0.301140E-02
       349 MEMB     3        PYPG     H12Y     HAL2     0.900000E-01   1.00800           0   0.00000     -0.301140E-02
       350 MEMB     3        PYPG     C313     CTL2    -0.180000       12.0110           0   0.00000     -0.301140E-02
       351 MEMB     3        PYPG     H13X     HAL2     0.900000E-01   1.00800           0   0.00000     -0.301140E-02
       352 MEMB     3        PYPG     H13Y     HAL2     0.900000E-01   1.00800           0   0.00000     -0.301140E-02
       353 MEMB     3        PYPG     C314     CTL2    -0.180000       12.0110           0   0.00000     -0.301140E-02
       354 MEMB     3        PYPG     H14X     HAL2     0.900000E-01   1.00800           0   0.00000     -0.301140E-02
       355 MEMB     3        PYPG     H14Y     HAL2     0.900000E-01   1.00800           0   0.00000     -0.301140E-02
       356 MEMB     3        PYPG     C315     CTL2    -0.180000       12.0110           0   0.00000     -0.301140E-02
       357 MEMB     3        PYPG     H15X     HAL2     0.900000E-01   1.00800           0   0.00000     -0.301140E-02
       358 MEMB     3        PYPG     H15Y     HAL2     0.900000E-01   1.00800           0   0.00000     -0.301140E-02
       359 MEMB     3        PYPG     C316     CTL3    -0.270000       12.0110           0   0.00000     -0.301140E-02
       360 MEMB     3        PYPG     H16X     HAL3     0.900000E-01   1.00800           0   0.00000     -0.301140E-02
       361 MEMB     3        PYPG     H16Y     HAL3     0.900000E-01   1.00800           0   0.00000     -0.301140E-02
       362 MEMB     3        PYPG     H16Z     HAL3     0.900000E-01   1.00800           0   0.00000     -0.301140E-02
       363 MEMB     4        PMPG     C13      CTL2     0.500000E-01   12.0110           0   0.00000     -0.301140E-02
       364 MEMB     4        PMPG     H13A     HAL2     0.900000E-01   1.00800           0   0.00000     -0.301140E-02
       365 MEMB     4        PMPG     H13B     HAL2     0.900000E-01   1.00800           0   0.00000     -0.301140E-02
       366 MEMB     4        PMPG     OC3      OHL     -0.660000       15.9994           0   0.00000     -0.301140E-02
       367 MEMB     4        PMPG     HO3      HOL      0.430000       1.00800           0   0.00000     -0.301140E-02
       368 MEMB     4        PMPG     C12      CTL1     0.140000       12.0110           0   0.00000     -0.301140E-02
       369 MEMB     4        PMPG     H12A     HAL1     0.900000E-01   1.00800           0   0.00000     -0.301140E-02
       370 MEMB     4        PMPG     OC2      OHL     -0.660000       15.9994           0   0.00000     -0.301140E-02
       371 MEMB     4        PMPG     HO2      HOL      0.430000       1.00800           0   0.00000     -0.301140E-02
       372 MEMB     4        PMPG     C11      CTL2    -0.800000E-01   12.0110           0   0.00000     -0.301140E-02
       373 MEMB     4        PMPG     H11A     HAL2     0.900000E-01   1.00800           0   0.00000     -0.301140E-02
       374 MEMB     4        PMPG     H11B     HAL2     0.900000E-01   1.00800           0   0.00000     -0.301140E-02
       375 MEMB     4        PMPG     P        PL        1.50000       30.9740           0   0.00000     -0.301140E-02
       376 MEMB     4        PMPG     O13      O2L     -0.780000       15.9994           0   0.00000     -0.301140E-02
       377 MEMB     4        PMPG     O14      O2L     -0.780000       15.9994           0   0.00000     -0.301140E-02
       378 MEMB     4        PMPG     O11      OSLP    -0.570000       15.9994           0   0.00000     -0.301140E-02
       379 MEMB     4        PMPG     O12      OSLP    -0.570000       15.9994           0   0.00000     -0.301140E-02
       380 MEMB     4        PMPG     C1       CTL2    -0.800000E-01   12.0110           0   0.00000     -0.301140E-02
       381 MEMB     4        PMPG     HA       HAL2     0.900000E-01   1.00800           0   0.00000     -0.301140E-02
       382 MEMB     4        PMPG     HB       HAL2     0.900000E-01   1.00800           0   0.00000     -0.301140E-02
       383 MEMB     4        PMPG     C2       CTL1     0.170000       12.0110           0   0.00000     -0.301140E-02
       384 MEMB     4        PMPG     HS       HAL1     0.900000E-01   1.00800           0   0.00000     -0.301140E-02
       385 MEMB     4        PMPG     O21      OSL     -0.490000       15.9994           0   0.00000     -0.301140E-02
       386 MEMB     4        PMPG     C21      CL       0.900000       12.0110           0   0.00000     -0.301140E-02
       387 MEMB     4        PMPG     O22      OBL     -0.630000       15.9994           0   0.00000     -0.301140E-02
       388 MEMB     4        PMPG     C22      CTL2    -0.220000       12.0110           0   0.00000     -0.301140E-02
       389 MEMB     4        PMPG     H2R      HAL2     0.900000E-01   1.00800           0   0.00000     -0.301140E-02
       390 MEMB     4        PMPG     H2S      HAL2     0.900000E-01   1.00800           0   0.00000     -0.301140E-02
       391 MEMB     4        PMPG     C3       CTL2     0.800000E-01   12.0110           0   0.00000     -0.301140E-02
       392 MEMB     4        PMPG     HX       HAL2     0.900000E-01   1.00800           0   0.00000     -0.301140E-02
       393 MEMB     4        PMPG     HY       HAL2     0.900000E-01   1.00800           0   0.00000     -0.301140E-02
       394 MEMB     4        PMPG     O31      OSL     -0.490000       15.9994           0   0.00000     -0.301140E-02
       395 MEMB     4        PMPG     C31      CL       0.900000       12.0110           0   0.00000     -0.301140E-02
       396 MEMB     4        PMPG     O32      OBL     -0.630000       15.9994           0   0.00000     -0.301140E-02
       397 MEMB     4        PMPG     C32      CTL2    -0.220000       12.0110           0   0.00000     -0.301140E-02
       398 MEMB     4        PMPG     H2X      HAL2     0.900000E-01   1.00800           0   0.00000     -0.301140E-02
       399 MEMB     4        PMPG     H2Y      HAL2     0.900000E-01   1.00800           0   0.00000     -0.301140E-02
       400 MEMB     4        PMPG     C23      CTL2    -0.180000       12.0110           0   0.00000     -0.301140E-02
       401 MEMB     4        PMPG     H3R      HAL2     0.900000E-01   1.00800           0   0.00000     -0.301140E-02
       402 MEMB     4        PMPG     H3S      HAL2     0.900000E-01   1.00800           0   0.00000     -0.301140E-02
       403 MEMB     4        PMPG     C24      CTL2    -0.180000       12.0110           0   0.00000     -0.301140E-02
       404 MEMB     4        PMPG     H4R      HAL2     0.900000E-01   1.00800           0   0.00000     -0.301140E-02
       405 MEMB     4        PMPG     H4S      HAL2     0.900000E-01   1.00800           0   0.00000     -0.301140E-02
       406 MEMB     4        PMPG     C25      CTL2    -0.180000       12.0110           0   0.00000     -0.301140E-02
       407 MEMB     4        PMPG     H5R      HAL2     0.900000E-01   1.00800           0   0.00000     -0.301140E-02
       408 MEMB     4        PMPG     H5S      HAL2     0.900000E-01   1.00800           0   0.00000     -0.301140E-02
       409 MEMB     4        PMPG     C26      CTL2    -0.180000       12.0110           0   0.00000     -0.301140E-02
       410 MEMB     4        PMPG     H6R      HAL2     0.900000E-01   1.00800           0   0.00000     -0.301140E-02
       411 MEMB     4        PMPG     H6S      HAL2     0.900000E-01   1.00800           0   0.00000     -0.301140E-02
       412 MEMB     4        PMPG     C27      CTL2    -0.180000       12.0110           0   0.00000     -0.301140E-02
       413 MEMB     4        PMPG     H7R      HAL2     0.900000E-01   1.00800           0   0.00000     -0.301140E-02
       414 MEMB     4        PMPG     H7S      HAL2     0.900000E-01   1.00800           0   0.00000     -0.301140E-02
       415 MEMB     4        PMPG     C28      CTL2    -0.180000       12.0110           0   0.00000     -0.301140E-02
       416 MEMB     4        PMPG     H8R      HAL2     0.900000E-01   1.00800           0   0.00000     -0.301140E-02
       417 MEMB     4        PMPG     H8S      HAL2     0.900000E-01   1.00800           0   0.00000     -0.301140E-02
       418 MEMB     4        PMPG     C29      CG3RC1  -0.900000E-01   12.0110           0   0.00000     -0.301140E-02
       419 MEMB     4        PMPG     H9R      HGA1     0.900000E-01   1.00800           0   0.00000     -0.301140E-02
       420 MEMB     4        PMPG     C217     CG3C31  -0.180000       12.0110           0   0.00000     -0.301140E-02
       421 MEMB     4        PMPG     H17R     HGA2     0.900000E-01   1.00800           0   0.00000     -0.301140E-02
       422 MEMB     4        PMPG     H17S     HGA2     0.900000E-01   1.00800           0   0.00000     -0.301140E-02
       423 MEMB     4        PMPG     C210     CG3RC1  -0.900000E-01   12.0110           0   0.00000     -0.301140E-02
       424 MEMB     4        PMPG     H10R     HGA1     0.900000E-01   1.00800           0   0.00000     -0.301140E-02
       425 MEMB     4        PMPG     C211     CTL2    -0.180000       12.0110           0   0.00000     -0.301140E-02
       426 MEMB     4        PMPG     H11R     HAL2     0.900000E-01   1.00800           0   0.00000     -0.301140E-02
       427 MEMB     4        PMPG     H11S     HAL2     0.900000E-01   1.00800           0   0.00000     -0.301140E-02
       428 MEMB     4        PMPG     C212     CTL2    -0.180000       12.0110           0   0.00000     -0.301140E-02
       429 MEMB     4        PMPG     H12R     HAL2     0.900000E-01   1.00800           0   0.00000     -0.301140E-02
       430 MEMB     4        PMPG     H12S     HAL2     0.900000E-01   1.00800           0   0.00000     -0.301140E-02
       431 MEMB     4        PMPG     C213     CTL2    -0.180000       12.0110           0   0.00000     -0.301140E-02
       432 MEMB     4        PMPG     H13R     HAL2     0.900000E-01   1.00800           0   0.00000     -0.301140E-02
       433 MEMB     4        PMPG     H13S     HAL2     0.900000E-01   1.00800           0   0.00000     -0.301140E-02
       434 MEMB     4        PMPG     C214     CTL2    -0.180000       12.0110           0   0.00000     -0.301140E-02
       435 MEMB     4        PMPG     H14R     HAL2     0.900000E-01   1.00800           0   0.00000     -0.301140E-02
       436 MEMB     4        PMPG     H14S     HAL2     0.900000E-01   1.00800           0   0.00000     -0.301140E-02
       437 MEMB     4        PMPG     C215     CTL2    -0.180000       12.0110           0   0.00000     -0.301140E-02
       438 MEMB     4        PMPG     H15R     HAL2     0.900000E-01   1.00800           0   0.00000     -0.301140E-02
       439 MEMB     4        PMPG     H15S     HAL2     0.900000E-01   1.00800           0   0.00000     -0.301140E-02
       440 MEMB     4        PMPG     C216     CTL3    -0.270000       12.0110           0   0.00000     -0.301140E-02
       441 MEMB     4        PMPG     H16R     HAL3     0.900000E-01   1.00800           0   0.00000     -0.301140E-02
       442 MEMB     4        PMPG     H16S     HAL3     0.900000E-01   1.00800           0   0.00000     -0.301140E-02
       443 MEMB     4        PMPG     H16T     HAL3     0.900000E-01   1.00800           0   0.00000     -0.301140E-02
       444 MEMB     4        PMPG     C33      CTL2    -0.180000       12.0110           0   0.00000     -0.301140E-02
       445 MEMB     4        PMPG     H3X      HAL2     0.900000E-01   1.00800           0   0.00000     -0.301140E-02
       446 MEMB     4        PMPG     H3Y      HAL2     0.900000E-01   1.00800           0   0.00000     -0.301140E-02
       447 MEMB     4        PMPG     C34      CTL2    -0.180000       12.0110           0   0.00000     -0.301140E-02
       448 MEMB     4        PMPG     H4X      HAL2     0.900000E-01   1.00800           0   0.00000     -0.301140E-02
       449 MEMB     4        PMPG     H4Y      HAL2     0.900000E-01   1.00800           0   0.00000     -0.301140E-02
       450 MEMB     4        PMPG     C35      CTL2    -0.180000       12.0110           0   0.00000     -0.301140E-02
       451 MEMB     4        PMPG     H5X      HAL2     0.900000E-01   1.00800           0   0.00000     -0.301140E-02
       452 MEMB     4        PMPG     H5Y      HAL2     0.900000E-01   1.00800           0   0.00000     -0.301140E-02
       453 MEMB     4        PMPG     C36      CTL2    -0.180000       12.0110           0   0.00000     -0.301140E-02
       454 MEMB     4        PMPG     H6X      HAL2     0.900000E-01   1.00800           0   0.00000     -0.301140E-02
       455 MEMB     4        PMPG     H6Y      HAL2     0.900000E-01   1.00800           0   0.00000     -0.301140E-02
       456 MEMB     4        PMPG     C37      CTL2    -0.180000       12.0110           0   0.00000     -0.301140E-02
       457 MEMB     4        PMPG     H7X      HAL2     0.900000E-01   1.00800           0   0.00000     -0.301140E-02
       458 MEMB     4        PMPG     H7Y      HAL2     0.900000E-01   1.00800           0   0.00000     -0.301140E-02
       459 MEMB     4        PMPG     C38      CTL2    -0.180000       12.0110           0   0.00000     -0.301140E-02
       460 MEMB     4        PMPG     H8X      HAL2     0.900000E-01   1.00800           0   0.00000     -0.301140E-02
       461 MEMB     4        PMPG     H8Y      HAL2     0.900000E-01   1.00800           0   0.00000     -0.301140E-02
       462 MEMB     4        PMPG     C39      CTL2    -0.180000       12.0110           0   0.00000     -0.301140E-02
       463 MEMB     4        PMPG     H9X      HAL2     0.900000E-01   1.00800           0   0.00000     -0.301140E-02
       464 MEMB     4        PMPG     H9Y      HAL2     0.900000E-01   1.00800           0   0.00000     -0.301140E-02
       465 MEMB     4        PMPG     C310     CTL2    -0.180000       12.0110           0   0.00000     -0.301140E-02
       466 MEMB     4        PMPG     H10X     HAL2     0.900000E-01   1.00800           0   0.00000     -0.301140E-02
       467 MEMB     4        PMPG     H10Y     HAL2     0.900000E-01   1.00800           0   0.00000     -0.301140E-02
       468 MEMB     4        PMPG     C311     CTL2    -0.180000       12.0110           0   0.00000     -0.301140E-02
       469 MEMB     4        PMPG     H11X     HAL2     0.900000E-01   1.00800           0   0.00000     -0.301140E-02
       470 MEMB     4        PMPG     H11Y     HAL2     0.900000E-01   1.00800           0   0.00000     -0.301140E-02
       471 MEMB     4        PMPG     C312     CTL2    -0.180000       12.0110           0   0.00000     -0.301140E-02
       472 MEMB     4        PMPG     H12X     HAL2     0.900000E-01   1.00800           0   0.00000     -0.301140E-02
       473 MEMB     4        PMPG     H12Y     HAL2     0.900000E-01   1.00800           0   0.00000     -0.301140E-02
       474 MEMB     4        PMPG     C313     CTL2    -0.180000       12.0110           0   0.00000     -0.301140E-02
       475 MEMB     4        PMPG     H13X     HAL2     0.900000E-01   1.00800           0   0.00000     -0.301140E-02
       476 MEMB     4        PMPG     H13Y     HAL2     0.900000E-01   1.00800           0   0.00000     -0.301140E-02
       477 MEMB     4        PMPG     C314     CTL2    -0.180000       12.0110           0   0.00000     -0.301140E-02
       478 MEMB     4        PMPG     H14X     HAL2     0.900000E-01   1.00800           0   0.00000     -0.301140E-02
       479 MEMB     4        PMPG     H14Y     HAL2     0.900000E-01   1.00800           0   0.00000     -0.301140E-02
       480 MEMB     4        PMPG     C315     CTL2    -0.180000       12.0110           0   0.00000     -0.301140E-02
       481 MEMB     4        PMPG     H15X     HAL2     0.900000E-01   1.00800           0   0.00000     -0.301140E-02
       482 MEMB     4        PMPG     H15Y     HAL2     0.900000E-01   1.00800           0   0.00000     -0.301140E-02
       483 MEMB     4        PMPG     C316     CTL3    -0.270000       12.0110           0   0.00000     -0.301140E-02
       484 MEMB     4        PMPG     H16X     HAL3     0.900000E-01   1.00800           0   0.00000     -0.301140E-02
       485 MEMB     4        PMPG     H16Y     HAL3     0.900000E-01   1.00800           0   0.00000     -0.301140E-02
       486 MEMB     4        PMPG     H16Z     HAL3     0.900000E-01   1.00800           0   0.00000     -0.301140E-02
       487 MEMB     5        QMPE     N        NH3L    -0.300000       14.0070           0   0.00000     -0.301140E-02
       488 MEMB     5        QMPE     HN1      HCL      0.330000       1.00800           0   0.00000     -0.301140E-02
       489 MEMB     5        QMPE     HN2      HCL      0.330000       1.00800           0   0.00000     -0.301140E-02
       490 MEMB     5        QMPE     HN3      HCL      0.330000       1.00800           0   0.00000     -0.301140E-02
       491 MEMB     5        QMPE     C12      CTL2     0.130000       12.0110           0   0.00000     -0.301140E-02
       492 MEMB     5        QMPE     H12A     HAL2     0.900000E-01   1.00800           0   0.00000     -0.301140E-02
       493 MEMB     5        QMPE     H12B     HAL2     0.900000E-01   1.00800           0   0.00000     -0.301140E-02
       494 MEMB     5        QMPE     C11      CTL2    -0.800000E-01   12.0110           0   0.00000     -0.301140E-02
       495 MEMB     5        QMPE     H11A     HAL2     0.900000E-01   1.00800           0   0.00000     -0.301140E-02
       496 MEMB     5        QMPE     H11B     HAL2     0.900000E-01   1.00800           0   0.00000     -0.301140E-02
       497 MEMB     5        QMPE     P        PL        1.50000       30.9740           0   0.00000     -0.301140E-02
       498 MEMB     5        QMPE     O13      O2L     -0.780000       15.9994           0   0.00000     -0.301140E-02
       499 MEMB     5        QMPE     O14      O2L     -0.780000       15.9994           0   0.00000     -0.301140E-02
       500 MEMB     5        QMPE     O11      OSLP    -0.570000       15.9994           0   0.00000     -0.301140E-02
       501 MEMB     5        QMPE     O12      OSLP    -0.570000       15.9994           0   0.00000     -0.301140E-02
       502 MEMB     5        QMPE     C1       CTL2    -0.800000E-01   12.0110           0   0.00000     -0.301140E-02
       503 MEMB     5        QMPE     HA       HAL2     0.900000E-01   1.00800           0   0.00000     -0.301140E-02
       504 MEMB     5        QMPE     HB       HAL2     0.900000E-01   1.00800           0   0.00000     -0.301140E-02
       505 MEMB     5        QMPE     C2       CTL1     0.170000       12.0110           0   0.00000     -0.301140E-02
       506 MEMB     5        QMPE     HS       HAL1     0.900000E-01   1.00800           0   0.00000     -0.301140E-02
       507 MEMB     5        QMPE     O21      OSL     -0.490000       15.9994           0   0.00000     -0.301140E-02
       508 MEMB     5        QMPE     C21      CL       0.900000       12.0110           0   0.00000     -0.301140E-02
       509 MEMB     5        QMPE     O22      OBL     -0.630000       15.9994           0   0.00000     -0.301140E-02
       510 MEMB     5        QMPE     C22      CTL2    -0.220000       12.0110           0   0.00000     -0.301140E-02
       511 MEMB     5        QMPE     H2R      HAL2     0.900000E-01   1.00800           0   0.00000     -0.301140E-02
       512 MEMB     5        QMPE     H2S      HAL2     0.900000E-01   1.00800           0   0.00000     -0.301140E-02
       513 MEMB     5        QMPE     C3       CTL2     0.800000E-01   12.0110           0   0.00000     -0.301140E-02
       514 MEMB     5        QMPE     HX       HAL2     0.900000E-01   1.00800           0   0.00000     -0.301140E-02
       515 MEMB     5        QMPE     HY       HAL2     0.900000E-01   1.00800           0   0.00000     -0.301140E-02
       516 MEMB     5        QMPE     O31      OSL     -0.490000       15.9994           0   0.00000     -0.301140E-02
       517 MEMB     5        QMPE     C31      CL       0.900000       12.0110           0   0.00000     -0.301140E-02
       518 MEMB     5        QMPE     O32      OBL     -0.630000       15.9994           0   0.00000     -0.301140E-02
       519 MEMB     5        QMPE     C32      CTL2    -0.220000       12.0110           0   0.00000     -0.301140E-02
       520 MEMB     5        QMPE     H2X      HAL2     0.900000E-01   1.00800           0   0.00000     -0.301140E-02
       521 MEMB     5        QMPE     H2Y      HAL2     0.900000E-01   1.00800           0   0.00000     -0.301140E-02
       522 MEMB     5        QMPE     C23      CTL2    -0.180000       12.0110           0   0.00000     -0.301140E-02
       523 MEMB     5        QMPE     H3R      HAL2     0.900000E-01   1.00800           0   0.00000     -0.301140E-02
       524 MEMB     5        QMPE     H3S      HAL2     0.900000E-01   1.00800           0   0.00000     -0.301140E-02
       525 MEMB     5        QMPE     C24      CTL2    -0.180000       12.0110           0   0.00000     -0.301140E-02
       526 MEMB     5        QMPE     H4R      HAL2     0.900000E-01   1.00800           0   0.00000     -0.301140E-02
       527 MEMB     5        QMPE     H4S      HAL2     0.900000E-01   1.00800           0   0.00000     -0.301140E-02
       528 MEMB     5        QMPE     C25      CTL2    -0.180000       12.0110           0   0.00000     -0.301140E-02
       529 MEMB     5        QMPE     H5R      HAL2     0.900000E-01   1.00800           0   0.00000     -0.301140E-02
       530 MEMB     5        QMPE     H5S      HAL2     0.900000E-01   1.00800           0   0.00000     -0.301140E-02
       531 MEMB     5        QMPE     C26      CTL2    -0.180000       12.0110           0   0.00000     -0.301140E-02
       532 MEMB     5        QMPE     H6R      HAL2     0.900000E-01   1.00800           0   0.00000     -0.301140E-02
       533 MEMB     5        QMPE     H6S      HAL2     0.900000E-01   1.00800           0   0.00000     -0.301140E-02
       534 MEMB     5        QMPE     C27      CTL2    -0.180000       12.0110           0   0.00000     -0.301140E-02
       535 MEMB     5        QMPE     H7R      HAL2     0.900000E-01   1.00800           0   0.00000     -0.301140E-02
       536 MEMB     5        QMPE     H7S      HAL2     0.900000E-01   1.00800           0   0.00000     -0.301140E-02
       537 MEMB     5        QMPE     C28      CTL2    -0.180000       12.0110           0   0.00000     -0.301140E-02
       538 MEMB     5        QMPE     H8R      HAL2     0.900000E-01   1.00800           0   0.00000     -0.301140E-02
       539 MEMB     5        QMPE     H8S      HAL2     0.900000E-01   1.00800           0   0.00000     -0.301140E-02
       540 MEMB     5        QMPE     C29      CG3RC1  -0.900000E-01   12.0110           0   0.00000     -0.301140E-02
       541 MEMB     5        QMPE     H9R      HGA1     0.900000E-01   1.00800           0   0.00000     -0.301140E-02
       542 MEMB     5        QMPE     C217     CG3C31  -0.180000       12.0110           0   0.00000     -0.301140E-02
       543 MEMB     5        QMPE     H17R     HGA2     0.900000E-01   1.00800           0   0.00000     -0.301140E-02
       544 MEMB     5        QMPE     H17S     HGA2     0.900000E-01   1.00800           0   0.00000     -0.301140E-02
       545 MEMB     5        QMPE     C210     CG3RC1  -0.900000E-01   12.0110           0   0.00000     -0.301140E-02
       546 MEMB     5        QMPE     H10R     HGA1     0.900000E-01   1.00800           0   0.00000     -0.301140E-02
       547 MEMB     5        QMPE     C211     CTL2    -0.180000       12.0110           0   0.00000     -0.301140E-02
       548 MEMB     5        QMPE     H11R     HAL2     0.900000E-01   1.00800           0   0.00000     -0.301140E-02
       549 MEMB     5        QMPE     H11S     HAL2     0.900000E-01   1.00800           0   0.00000     -0.301140E-02
       550 MEMB     5        QMPE     C212     CTL2    -0.180000       12.0110           0   0.00000     -0.301140E-02
       551 MEMB     5        QMPE     H12R     HAL2     0.900000E-01   1.00800           0   0.00000     -0.301140E-02
       552 MEMB     5        QMPE     H12S     HAL2     0.900000E-01   1.00800           0   0.00000     -0.301140E-02
       553 MEMB     5        QMPE     C213     CTL2    -0.180000       12.0110           0   0.00000     -0.301140E-02
       554 MEMB     5        QMPE     H13R     HAL2     0.900000E-01   1.00800           0   0.00000     -0.301140E-02
       555 MEMB     5        QMPE     H13S     HAL2     0.900000E-01   1.00800           0   0.00000     -0.301140E-02
       556 MEMB     5        QMPE     C214     CTL2    -0.180000       12.0110           0   0.00000     -0.301140E-02
       557 MEMB     5        QMPE     H14R     HAL2     0.900000E-01   1.00800           0   0.00000     -0.301140E-02
       558 MEMB     5        QMPE     H14S     HAL2     0.900000E-01   1.00800           0   0.00000     -0.301140E-02
       559 MEMB     5        QMPE     C215     CTL2    -0.180000       12.0110           0   0.00000     -0.301140E-02
       560 MEMB     5        QMPE     H15R     HAL2     0.900000E-01   1.00800           0   0.00000     -0.301140E-02
       561 MEMB     5        QMPE     H15S     HAL2     0.900000E-01   1.00800           0   0.00000     -0.301140E-02
       562 MEMB     5        QMPE     C216     CTL3    -0.270000       12.0110           0   0.00000     -0.301140E-02
       563 MEMB     5        QMPE     H16R     HAL3     0.900000E-01   1.00800           0   0.00000     -0.301140E-02
       564 MEMB     5        QMPE     H16S     HAL3     0.900000E-01   1.00800           0   0.00000     -0.301140E-02
       565 MEMB     5        QMPE     H16T     HAL3     0.900000E-01   1.00800           0   0.00000     -0.301140E-02
       566 MEMB     5        QMPE     C33      CTL2    -0.180000       12.0110           0   0.00000     -0.301140E-02
       567 MEMB     5        QMPE     H3X      HAL2     0.900000E-01   1.00800           0   0.00000     -0.301140E-02
       568 MEMB     5        QMPE     H3Y      HAL2     0.900000E-01   1.00800           0   0.00000     -0.301140E-02
       569 MEMB     5        QMPE     C34      CTL2    -0.180000       12.0110           0   0.00000     -0.301140E-02
       570 MEMB     5        QMPE     H4X      HAL2     0.900000E-01   1.00800           0   0.00000     -0.301140E-02
       571 MEMB     5        QMPE     H4Y      HAL2     0.900000E-01   1.00800           0   0.00000     -0.301140E-02
       572 MEMB     5        QMPE     C35      CTL2    -0.180000       12.0110           0   0.00000     -0.301140E-02
       573 MEMB     5        QMPE     H5X      HAL2     0.900000E-01   1.00800           0   0.00000     -0.301140E-02
       574 MEMB     5        QMPE     H5Y      HAL2     0.900000E-01   1.00800           0   0.00000     -0.301140E-02
       575 MEMB     5        QMPE     C36      CTL2    -0.180000       12.0110           0   0.00000     -0.301140E-02
       576 MEMB     5        QMPE     H6X      HAL2     0.900000E-01   1.00800           0   0.00000     -0.301140E-02
       577 MEMB     5        QMPE     H6Y      HAL2     0.900000E-01   1.00800           0   0.00000     -0.301140E-02
       578 MEMB     5        QMPE     C37      CTL2    -0.180000       12.0110           0   0.00000     -0.301140E-02
       579 MEMB     5        QMPE     H7X      HAL2     0.900000E-01   1.00800           0   0.00000     -0.301140E-02
       580 MEMB     5        QMPE     H7Y      HAL2     0.900000E-01   1.00800           0   0.00000     -0.301140E-02
       581 MEMB     5        QMPE     C38      CTL2    -0.180000       12.0110           0   0.00000     -0.301140E-02
       582 MEMB     5        QMPE     H8X      HAL2     0.900000E-01   1.00800           0   0.00000     -0.301140E-02
       583 MEMB     5        QMPE     H8Y      HAL2     0.900000E-01   1.00800           0   0.00000     -0.301140E-02
       584 MEMB     5        QMPE     C39      CTL2    -0.180000       12.0110           0   0.00000     -0.301140E-02
       585 MEMB     5        QMPE     H9X      HAL2     0.900000E-01   1.00800           0   0.00000     -0.301140E-02
       586 MEMB     5        QMPE     H9Y      HAL2     0.900000E-01   1.00800           0   0.00000     -0.301140E-02
       587 MEMB     5        QMPE     C310     CTL2    -0.180000       12.0110           0   0.00000     -0.301140E-02
       588 MEMB     5        QMPE     H10X     HAL2     0.900000E-01   1.00800           0   0.00000     -0.301140E-02
       589 MEMB     5        QMPE     H10Y     HAL2     0.900000E-01   1.00800           0   0.00000     -0.301140E-02
       590 MEMB     5        QMPE     C311     CTL2    -0.180000       12.0110           0   0.00000     -0.301140E-02
       591 MEMB     5        QMPE     H11X     HAL2     0.900000E-01   1.00800           0   0.00000     -0.301140E-02
       592 MEMB     5        QMPE     H11Y     HAL2     0.900000E-01   1.00800           0   0.00000     -0.301140E-02
       593 MEMB     5        QMPE     C312     CTL2    -0.180000       12.0110           0   0.00000     -0.301140E-02
       594 MEMB     5        QMPE     H12X     HAL2     0.900000E-01   1.00800           0   0.00000     -0.301140E-02
       595 MEMB     5        QMPE     H12Y     HAL2     0.900000E-01   1.00800           0   0.00000     -0.301140E-02
       596 MEMB     5        QMPE     C313     CTL2    -0.180000       12.0110           0   0.00000     -0.301140E-02
       597 MEMB     5        QMPE     H13X     HAL2     0.900000E-01   1.00800           0   0.00000     -0.301140E-02
       598 MEMB     5        QMPE     H13Y     HAL2     0.900000E-01   1.00800           0   0.00000     -0.301140E-02
       599 MEMB     5        QMPE     C314     CTL2    -0.180000       12.0110           0   0.00000     -0.301140E-02
       600 MEMB     5        QMPE     H14X     HAL2     0.900000E-01   1.00800           0   0.00000     -0.301140E-02
       601 MEMB     5        QMPE     H14Y     HAL2     0.900000E-01   1.00800           0   0.00000     -0.301140E-02
       602 MEMB     5        QMPE     C315     CTL3    -0.270000       12.0110           0   0.00000     -0.301140E-02
       603 MEMB     5        QMPE     H15X     HAL3     0.900000E-01   1.00800           0   0.00000     -0.301140E-02
       604 MEMB     5        QMPE     H15Y     HAL3     0.900000E-01   1.00800           0   0.00000     -0.301140E-02
       605 MEMB     5        QMPE     H15Z     HAL3     0.900000E-01   1.00800           0   0.00000     -0.301140E-02
       606 MEMB     6        PMPE     N        NH3L    -0.300000       14.0070           0   0.00000     -0.301140E-02
       607 MEMB     6        PMPE     HN1      HCL      0.330000       1.00800           0   0.00000     -0.301140E-02
       608 MEMB     6        PMPE     HN2      HCL      0.330000       1.00800           0   0.00000     -0.301140E-02
       609 MEMB     6        PMPE     HN3      HCL      0.330000       1.00800           0   0.00000     -0.301140E-02
       610 MEMB     6        PMPE     C12      CTL2     0.130000       12.0110           0   0.00000     -0.301140E-02
       611 MEMB     6        PMPE     H12A     HAL2     0.900000E-01   1.00800           0   0.00000     -0.301140E-02
       612 MEMB     6        PMPE     H12B     HAL2     0.900000E-01   1.00800           0   0.00000     -0.301140E-02
       613 MEMB     6        PMPE     C11      CTL2    -0.800000E-01   12.0110           0   0.00000     -0.301140E-02
       614 MEMB     6        PMPE     H11A     HAL2     0.900000E-01   1.00800           0   0.00000     -0.301140E-02
       615 MEMB     6        PMPE     H11B     HAL2     0.900000E-01   1.00800           0   0.00000     -0.301140E-02
       616 MEMB     6        PMPE     P        PL        1.50000       30.9740           0   0.00000     -0.301140E-02
       617 MEMB     6        PMPE     O13      O2L     -0.780000       15.9994           0   0.00000     -0.301140E-02
       618 MEMB     6        PMPE     O14      O2L     -0.780000       15.9994           0   0.00000     -0.301140E-02
       619 MEMB     6        PMPE     O11      OSLP    -0.570000       15.9994           0   0.00000     -0.301140E-02
       620 MEMB     6        PMPE     O12      OSLP    -0.570000       15.9994           0   0.00000     -0.301140E-02
       621 MEMB     6        PMPE     C1       CTL2    -0.800000E-01   12.0110           0   0.00000     -0.301140E-02
       622 MEMB     6        PMPE     HA       HAL2     0.900000E-01   1.00800           0   0.00000     -0.301140E-02
       623 MEMB     6        PMPE     HB       HAL2     0.900000E-01   1.00800           0   0.00000     -0.301140E-02
       624 MEMB     6        PMPE     C2       CTL1     0.170000       12.0110           0   0.00000     -0.301140E-02
       625 MEMB     6        PMPE     HS       HAL1     0.900000E-01   1.00800           0   0.00000     -0.301140E-02
       626 MEMB     6        PMPE     O21      OSL     -0.490000       15.9994           0   0.00000     -0.301140E-02
       627 MEMB     6        PMPE     C21      CL       0.900000       12.0110           0   0.00000     -0.301140E-02
       628 MEMB     6        PMPE     O22      OBL     -0.630000       15.9994           0   0.00000     -0.301140E-02
       629 MEMB     6        PMPE     C22      CTL2    -0.220000       12.0110           0   0.00000     -0.301140E-02
       630 MEMB     6        PMPE     H2R      HAL2     0.900000E-01   1.00800           0   0.00000     -0.301140E-02
       631 MEMB     6        PMPE     H2S      HAL2     0.900000E-01   1.00800           0   0.00000     -0.301140E-02
       632 MEMB     6        PMPE     C3       CTL2     0.800000E-01   12.0110           0   0.00000     -0.301140E-02
       633 MEMB     6        PMPE     HX       HAL2     0.900000E-01   1.00800           0   0.00000     -0.301140E-02
       634 MEMB     6        PMPE     HY       HAL2     0.900000E-01   1.00800           0   0.00000     -0.301140E-02
       635 MEMB     6        PMPE     O31      OSL     -0.490000       15.9994           0   0.00000     -0.301140E-02
       636 MEMB     6        PMPE     C31      CL       0.900000       12.0110           0   0.00000     -0.301140E-02
       637 MEMB     6        PMPE     O32      OBL     -0.630000       15.9994           0   0.00000     -0.301140E-02
       638 MEMB     6        PMPE     C32      CTL2    -0.220000       12.0110           0   0.00000     -0.301140E-02
       639 MEMB     6        PMPE     H2X      HAL2     0.900000E-01   1.00800           0   0.00000     -0.301140E-02
       640 MEMB     6        PMPE     H2Y      HAL2     0.900000E-01   1.00800           0   0.00000     -0.301140E-02
       641 MEMB     6        PMPE     C23      CTL2    -0.180000       12.0110           0   0.00000     -0.301140E-02
       642 MEMB     6        PMPE     H3R      HAL2     0.900000E-01   1.00800           0   0.00000     -0.301140E-02
       643 MEMB     6        PMPE     H3S      HAL2     0.900000E-01   1.00800           0   0.00000     -0.301140E-02
       644 MEMB     6        PMPE     C24      CTL2    -0.180000       12.0110           0   0.00000     -0.301140E-02
       645 MEMB     6        PMPE     H4R      HAL2     0.900000E-01   1.00800           0   0.00000     -0.301140E-02
       646 MEMB     6        PMPE     H4S      HAL2     0.900000E-01   1.00800           0   0.00000     -0.301140E-02
       647 MEMB     6        PMPE     C25      CTL2    -0.180000       12.0110           0   0.00000     -0.301140E-02
       648 MEMB     6        PMPE     H5R      HAL2     0.900000E-01   1.00800           0   0.00000     -0.301140E-02
       649 MEMB     6        PMPE     H5S      HAL2     0.900000E-01   1.00800           0   0.00000     -0.301140E-02
       650 MEMB     6        PMPE     C26      CTL2    -0.180000       12.0110           0   0.00000     -0.301140E-02
       651 MEMB     6        PMPE     H6R      HAL2     0.900000E-01   1.00800           0   0.00000     -0.301140E-02
       652 MEMB     6        PMPE     H6S      HAL2     0.900000E-01   1.00800           0   0.00000     -0.301140E-02
       653 MEMB     6        PMPE     C27      CTL2    -0.180000       12.0110           0   0.00000     -0.301140E-02
       654 MEMB     6        PMPE     H7R      HAL2     0.900000E-01   1.00800           0   0.00000     -0.301140E-02
       655 MEMB     6        PMPE     H7S      HAL2     0.900000E-01   1.00800           0   0.00000     -0.301140E-02
       656 MEMB     6        PMPE     C28      CTL2    -0.180000       12.0110           0   0.00000     -0.301140E-02
       657 MEMB     6        PMPE     H8R      HAL2     0.900000E-01   1.00800           0   0.00000     -0.301140E-02
       658 MEMB     6        PMPE     H8S      HAL2     0.900000E-01   1.00800           0   0.00000     -0.301140E-02
       659 MEMB     6        PMPE     C29      CG3RC1  -0.900000E-01   12.0110           0   0.00000     -0.301140E-02
       660 MEMB     6        PMPE     H9R      HGA1     0.900000E-01   1.00800           0   0.00000     -0.301140E-02
       661 MEMB     6        PMPE     C217     CG3C31  -0.180000       12.0110           0   0.00000     -0.301140E-02
       662 MEMB     6        PMPE     H17R     HGA2     0.900000E-01   1.00800           0   0.00000     -0.301140E-02
       663 MEMB     6        PMPE     H17S     HGA2     0.900000E-01   1.00800           0   0.00000     -0.301140E-02
       664 MEMB     6        PMPE     C210     CG3RC1  -0.900000E-01   12.0110           0   0.00000     -0.301140E-02
       665 MEMB     6        PMPE     H10R     HGA1     0.900000E-01   1.00800           0   0.00000     -0.301140E-02
       666 MEMB     6        PMPE     C211     CTL2    -0.180000       12.0110           0   0.00000     -0.301140E-02
       667 MEMB     6        PMPE     H11R     HAL2     0.900000E-01   1.00800           0   0.00000     -0.301140E-02
       668 MEMB     6        PMPE     H11S     HAL2     0.900000E-01   1.00800           0   0.00000     -0.301140E-02
       669 MEMB     6        PMPE     C212     CTL2    -0.180000       12.0110           0   0.00000     -0.301140E-02
       670 MEMB     6        PMPE     H12R     HAL2     0.900000E-01   1.00800           0   0.00000     -0.301140E-02
       671 MEMB     6        PMPE     H12S     HAL2     0.900000E-01   1.00800           0   0.00000     -0.301140E-02
       672 MEMB     6        PMPE     C213     CTL2    -0.180000       12.0110           0   0.00000     -0.301140E-02
       673 MEMB     6        PMPE     H13R     HAL2     0.900000E-01   1.00800           0   0.00000     -0.301140E-02
       674 MEMB     6        PMPE     H13S     HAL2     0.900000E-01   1.00800           0   0.00000     -0.301140E-02
       675 MEMB     6        PMPE     C214     CTL2    -0.180000       12.0110           0   0.00000     -0.301140E-02
       676 MEMB     6        PMPE     H14R     HAL2     0.900000E-01   1.00800           0   0.00000     -0.301140E-02
       677 MEMB     6        PMPE     H14S     HAL2     0.900000E-01   1.00800           0   0.00000     -0.301140E-02
       678 MEMB     6        PMPE     C215     CTL2    -0.180000       12.0110           0   0.00000     -0.301140E-02
       679 MEMB     6        PMPE     H15R     HAL2     0.900000E-01   1.00800           0   0.00000     -0.301140E-02
       680 MEMB     6        PMPE     H15S     HAL2     0.900000E-01   1.00800           0   0.00000     -0.301140E-02
       681 MEMB     6        PMPE     C216     CTL3    -0.270000       12.0110           0   0.00000     -0.301140E-02
       682 MEMB     6        PMPE     H16R     HAL3     0.900000E-01   1.00800           0   0.00000     -0.301140E-02
       683 MEMB     6        PMPE     H16S     HAL3     0.900000E-01   1.00800           0   0.00000     -0.301140E-02
       684 MEMB     6        PMPE     H16T     HAL3     0.900000E-01   1.00800           0   0.00000     -0.301140E-02
       685 MEMB     6        PMPE     C33      CTL2    -0.180000       12.0110           0   0.00000     -0.301140E-02
       686 MEMB     6        PMPE     H3X      HAL2     0.900000E-01   1.00800           0   0.00000     -0.301140E-02
       687 MEMB     6        PMPE     H3Y      HAL2     0.900000E-01   1.00800           0   0.00000     -0.301140E-02
       688 MEMB     6        PMPE     C34      CTL2    -0.180000       12.0110           0   0.00000     -0.301140E-02
       689 MEMB     6        PMPE     H4X      HAL2     0.900000E-01   1.00800           0   0.00000     -0.301140E-02
       690 MEMB     6        PMPE     H4Y      HAL2     0.900000E-01   1.00800           0   0.00000     -0.301140E-02
       691 MEMB     6        PMPE     C35      CTL2    -0.180000       12.0110           0   0.00000     -0.301140E-02
       692 MEMB     6        PMPE     H5X      HAL2     0.900000E-01   1.00800           0   0.00000     -0.301140E-02
       693 MEMB     6        PMPE     H5Y      HAL2     0.900000E-01   1.00800           0   0.00000     -0.301140E-02
       694 MEMB     6        PMPE     C36      CTL2    -0.180000       12.0110           0   0.00000     -0.301140E-02
       695 MEMB     6        PMPE     H6X      HAL2     0.900000E-01   1.00800           0   0.00000     -0.301140E-02
       696 MEMB     6        PMPE     H6Y      HAL2     0.900000E-01   1.00800           0   0.00000     -0.301140E-02
       697 MEMB     6        PMPE     C37      CTL2    -0.180000       12.0110           0   0.00000     -0.301140E-02
       698 MEMB     6        PMPE     H7X      HAL2     0.900000E-01   1.00800           0   0.00000     -0.301140E-02
       699 MEMB     6        PMPE     H7Y      HAL2     0.900000E-01   1.00800           0   0.00000     -0.301140E-02
       700 MEMB     6        PMPE     C38      CTL2    -0.180000       12.0110           0   0.00000     -0.301140E-02
       701 MEMB     6        PMPE     H8X      HAL2     0.900000E-01   1.00800           0   0.00000     -0.301140E-02
       702 MEMB     6        PMPE     H8Y      HAL2     0.900000E-01   1.00800           0   0.00000     -0.301140E-02
       703 MEMB     6        PMPE     C39      CTL2    -0.180000       12.0110           0   0.00000     -0.301140E-02
       704 MEMB     6        PMPE     H9X      HAL2     0.900000E-01   1.00800           0   0.00000     -0.301140E-02
       705 MEMB     6        PMPE     H9Y      HAL2     0.900000E-01   1.00800           0   0.00000     -0.301140E-02
       706 MEMB     6        PMPE     C310     CTL2    -0.180000       12.0110           0   0.00000     -0.301140E-02
       707 MEMB     6        PMPE     H10X     HAL2     0.900000E-01   1.00800           0   0.00000     -0.301140E-02
       708 MEMB     6        PMPE     H10Y     HAL2     0.900000E-01   1.00800           0   0.00000     -0.301140E-02
       709 MEMB     6        PMPE     C311     CTL2    -0.180000       12.0110           0   0.00000     -0.301140E-02
       710 MEMB     6        PMPE     H11X     HAL2     0.900000E-01   1.00800           0   0.00000     -0.301140E-02
       711 MEMB     6        PMPE     H11Y     HAL2     0.900000E-01   1.00800           0   0.00000     -0.301140E-02
       712 MEMB     6        PMPE     C312     CTL2    -0.180000       12.0110           0   0.00000     -0.301140E-02
       713 MEMB     6        PMPE     H12X     HAL2     0.900000E-01   1.00800           0   0.00000     -0.301140E-02
       714 MEMB     6        PMPE     H12Y     HAL2     0.900000E-01   1.00800           0   0.00000     -0.301140E-02
       715 MEMB     6        PMPE     C313     CTL2    -0.180000       12.0110           0   0.00000     -0.301140E-02
       716 MEMB     6        PMPE     H13X     HAL2     0.900000E-01   1.00800           0   0.00000     -0.301140E-02
       717 MEMB     6        PMPE     H13Y     HAL2     0.900000E-01   1.00800           0   0.00000     -0.301140E-02
       718 MEMB     6        PMPE     C314     CTL2    -0.180000       12.0110           0   0.00000     -0.301140E-02
       719 MEMB     6        PMPE     H14X     HAL2     0.900000E-01   1.00800           0   0.00000     -0.301140E-02
       720 MEMB     6        PMPE     H14Y     HAL2     0.900000E-01   1.00800           0   0.00000     -0.301140E-02
       721 MEMB     6        PMPE     C315     CTL2    -0.180000       12.0110           0   0.00000     -0.301140E-02
       722 MEMB     6        PMPE     H15X     HAL2     0.900000E-01   1.00800           0   0.00000     -0.301140E-02
       723 MEMB     6        PMPE     H15Y     HAL2     0.900000E-01   1.00800           0   0.00000     -0.301140E-02
       724 MEMB     6        PMPE     C316     CTL3    -0.270000       12.0110           0   0.00000     -0.301140E-02
       725 MEMB     6        PMPE     H16X     HAL3     0.900000E-01   1.00800           0   0.00000     -0.301140E-02
       726 MEMB     6        PMPE     H16Y     HAL3     0.900000E-01   1.00800           0   0.00000     -0.301140E-02
       727 MEMB     6        PMPE     H16Z     HAL3     0.900000E-01   1.00800           0   0.00000     -0.301140E-02
       728 MEMB     7        PMPG     C13      CTL2     0.500000E-01   12.0110           0   0.00000     -0.301140E-02
       729 MEMB     7        PMPG     H13A     HAL2     0.900000E-01   1.00800           0   0.00000     -0.301140E-02
       730 MEMB     7        PMPG     H13B     HAL2     0.900000E-01   1.00800           0   0.00000     -0.301140E-02
       731 MEMB     7        PMPG     OC3      OHL     -0.660000       15.9994           0   0.00000     -0.301140E-02
       732 MEMB     7        PMPG     HO3      HOL      0.430000       1.00800           0   0.00000     -0.301140E-02
       733 MEMB     7        PMPG     C12      CTL1     0.140000       12.0110           0   0.00000     -0.301140E-02
       734 MEMB     7        PMPG     H12A     HAL1     0.900000E-01   1.00800           0   0.00000     -0.301140E-02
       735 MEMB     7        PMPG     OC2      OHL     -0.660000       15.9994           0   0.00000     -0.301140E-02
       736 MEMB     7        PMPG     HO2      HOL      0.430000       1.00800           0   0.00000     -0.301140E-02
       737 MEMB     7        PMPG     C11      CTL2    -0.800000E-01   12.0110           0   0.00000     -0.301140E-02
       738 MEMB     7        PMPG     H11A     HAL2     0.900000E-01   1.00800           0   0.00000     -0.301140E-02
       739 MEMB     7        PMPG     H11B     HAL2     0.900000E-01   1.00800           0   0.00000     -0.301140E-02
       740 MEMB     7        PMPG     P        PL        1.50000       30.9740           0   0.00000     -0.301140E-02
       741 MEMB     7        PMPG     O13      O2L     -0.780000       15.9994           0   0.00000     -0.301140E-02
       742 MEMB     7        PMPG     O14      O2L     -0.780000       15.9994           0   0.00000     -0.301140E-02
       743 MEMB     7        PMPG     O11      OSLP    -0.570000       15.9994           0   0.00000     -0.301140E-02
       744 MEMB     7        PMPG     O12      OSLP    -0.570000       15.9994           0   0.00000     -0.301140E-02
       745 MEMB     7        PMPG     C1       CTL2    -0.800000E-01   12.0110           0   0.00000     -0.301140E-02
       746 MEMB     7        PMPG     HA       HAL2     0.900000E-01   1.00800           0   0.00000     -0.301140E-02
       747 MEMB     7        PMPG     HB       HAL2     0.900000E-01   1.00800           0   0.00000     -0.301140E-02
       748 MEMB     7        PMPG     C2       CTL1     0.170000       12.0110           0   0.00000     -0.301140E-02
       749 MEMB     7        PMPG     HS       HAL1     0.900000E-01   1.00800           0   0.00000     -0.301140E-02
       750 MEMB     7        PMPG     O21      OSL     -0.490000       15.9994           0   0.00000     -0.301140E-02
       751 MEMB     7        PMPG     C21      CL       0.900000       12.0110           0   0.00000     -0.301140E-02
       752 MEMB     7        PMPG     O22      OBL     -0.630000       15.9994           0   0.00000     -0.301140E-02
       753 MEMB     7        PMPG     C22      CTL2    -0.220000       12.0110           0   0.00000     -0.301140E-02
       754 MEMB     7        PMPG     H2R      HAL2     0.900000E-01   1.00800           0   0.00000     -0.301140E-02
       755 MEMB     7        PMPG     H2S      HAL2     0.900000E-01   1.00800           0   0.00000     -0.301140E-02
       756 MEMB     7        PMPG     C3       CTL2     0.800000E-01   12.0110           0   0.00000     -0.301140E-02
       757 MEMB     7        PMPG     HX       HAL2     0.900000E-01   1.00800           0   0.00000     -0.301140E-02
       758 MEMB     7        PMPG     HY       HAL2     0.900000E-01   1.00800           0   0.00000     -0.301140E-02
       759 MEMB     7        PMPG     O31      OSL     -0.490000       15.9994           0   0.00000     -0.301140E-02
       760 MEMB     7        PMPG     C31      CL       0.900000       12.0110           0   0.00000     -0.301140E-02
       761 MEMB     7        PMPG     O32      OBL     -0.630000       15.9994           0   0.00000     -0.301140E-02
       762 MEMB     7        PMPG     C32      CTL2    -0.220000       12.0110           0   0.00000     -0.301140E-02
       763 MEMB     7        PMPG     H2X      HAL2     0.900000E-01   1.00800           0   0.00000     -0.301140E-02
       764 MEMB     7        PMPG     H2Y      HAL2     0.900000E-01   1.00800           0   0.00000     -0.301140E-02
       765 MEMB     7        PMPG     C23      CTL2    -0.180000       12.0110           0   0.00000     -0.301140E-02
       766 MEMB     7        PMPG     H3R      HAL2     0.900000E-01   1.00800           0   0.00000     -0.301140E-02
       767 MEMB     7        PMPG     H3S      HAL2     0.900000E-01   1.00800           0   0.00000     -0.301140E-02
       768 MEMB     7        PMPG     C24      CTL2    -0.180000       12.0110           0   0.00000     -0.301140E-02
       769 MEMB     7        PMPG     H4R      HAL2     0.900000E-01   1.00800           0   0.00000     -0.301140E-02
       770 MEMB     7        PMPG     H4S      HAL2     0.900000E-01   1.00800           0   0.00000     -0.301140E-02
       771 MEMB     7        PMPG     C25      CTL2    -0.180000       12.0110           0   0.00000     -0.301140E-02
       772 MEMB     7        PMPG     H5R      HAL2     0.900000E-01   1.00800           0   0.00000     -0.301140E-02
       773 MEMB     7        PMPG     H5S      HAL2     0.900000E-01   1.00800           0   0.00000     -0.301140E-02
       774 MEMB     7        PMPG     C26      CTL2    -0.180000       12.0110           0   0.00000     -0.301140E-02
       775 MEMB     7        PMPG     H6R      HAL2     0.900000E-01   1.00800           0   0.00000     -0.301140E-02
       776 MEMB     7        PMPG     H6S      HAL2     0.900000E-01   1.00800           0   0.00000     -0.301140E-02
       777 MEMB     7        PMPG     C27      CTL2    -0.180000       12.0110           0   0.00000     -0.301140E-02
       778 MEMB     7        PMPG     H7R      HAL2     0.900000E-01   1.00800           0   0.00000     -0.301140E-02
       779 MEMB     7        PMPG     H7S      HAL2     0.900000E-01   1.00800           0   0.00000     -0.301140E-02
       780 MEMB     7        PMPG     C28      CTL2    -0.180000       12.0110           0   0.00000     -0.301140E-02
       781 MEMB     7        PMPG     H8R      HAL2     0.900000E-01   1.00800           0   0.00000     -0.301140E-02
       782 MEMB     7        PMPG     H8S      HAL2     0.900000E-01   1.00800           0   0.00000     -0.301140E-02
       783 MEMB     7        PMPG     C29      CG3RC1  -0.900000E-01   12.0110           0   0.00000     -0.301140E-02
       784 MEMB     7        PMPG     H9R      HGA1     0.900000E-01   1.00800           0   0.00000     -0.301140E-02
       785 MEMB     7        PMPG     C217     CG3C31  -0.180000       12.0110           0   0.00000     -0.301140E-02
       786 MEMB     7        PMPG     H17R     HGA2     0.900000E-01   1.00800           0   0.00000     -0.301140E-02
       787 MEMB     7        PMPG     H17S     HGA2     0.900000E-01   1.00800           0   0.00000     -0.301140E-02
       788 MEMB     7        PMPG     C210     CG3RC1  -0.900000E-01   12.0110           0   0.00000     -0.301140E-02
       789 MEMB     7        PMPG     H10R     HGA1     0.900000E-01   1.00800           0   0.00000     -0.301140E-02
       790 MEMB     7        PMPG     C211     CTL2    -0.180000       12.0110           0   0.00000     -0.301140E-02
       791 MEMB     7        PMPG     H11R     HAL2     0.900000E-01   1.00800           0   0.00000     -0.301140E-02
       792 MEMB     7        PMPG     H11S     HAL2     0.900000E-01   1.00800           0   0.00000     -0.301140E-02
       793 MEMB     7        PMPG     C212     CTL2    -0.180000       12.0110           0   0.00000     -0.301140E-02
       794 MEMB     7        PMPG     H12R     HAL2     0.900000E-01   1.00800           0   0.00000     -0.301140E-02
       795 MEMB     7        PMPG     H12S     HAL2     0.900000E-01   1.00800           0   0.00000     -0.301140E-02
       796 MEMB     7        PMPG     C213     CTL2    -0.180000       12.0110           0   0.00000     -0.301140E-02
       797 MEMB     7        PMPG     H13R     HAL2     0.900000E-01   1.00800           0   0.00000     -0.301140E-02
       798 MEMB     7        PMPG     H13S     HAL2     0.900000E-01   1.00800           0   0.00000     -0.301140E-02
       799 MEMB     7        PMPG     C214     CTL2    -0.180000       12.0110           0   0.00000     -0.301140E-02
       800 MEMB     7        PMPG     H14R     HAL2     0.900000E-01   1.00800           0   0.00000     -0.301140E-02
       801 MEMB     7        PMPG     H14S     HAL2     0.900000E-01   1.00800           0   0.00000     -0.301140E-02
       802 MEMB     7        PMPG     C215     CTL2    -0.180000       12.0110           0   0.00000     -0.301140E-02
       803 MEMB     7        PMPG     H15R     HAL2     0.900000E-01   1.00800           0   0.00000     -0.301140E-02
       804 MEMB     7        PMPG     H15S     HAL2     0.900000E-01   1.00800           0   0.00000     -0.301140E-02
       805 MEMB     7        PMPG     C216     CTL3    -0.270000       12.0110           0   0.00000     -0.301140E-02
       806 MEMB     7        PMPG     H16R     HAL3     0.900000E-01   1.00800           0   0.00000     -0.301140E-02
       807 MEMB     7        PMPG     H16S     HAL3     0.900000E-01   1.00800           0   0.00000     -0.301140E-02
       808 MEMB     7        PMPG     H16T     HAL3     0.900000E-01   1.00800           0   0.00000     -0.301140E-02
       809 MEMB     7        PMPG     C33      CTL2    -0.180000       12.0110           0   0.00000     -0.301140E-02
       810 MEMB     7        PMPG     H3X      HAL2     0.900000E-01   1.00800           0   0.00000     -0.301140E-02
       811 MEMB     7        PMPG     H3Y      HAL2     0.900000E-01   1.00800           0   0.00000     -0.301140E-02
       812 MEMB     7        PMPG     C34      CTL2    -0.180000       12.0110           0   0.00000     -0.301140E-02
       813 MEMB     7        PMPG     H4X      HAL2     0.900000E-01   1.00800           0   0.00000     -0.301140E-02
       814 MEMB     7        PMPG     H4Y      HAL2     0.900000E-01   1.00800           0   0.00000     -0.301140E-02
       815 MEMB     7        PMPG     C35      CTL2    -0.180000       12.0110           0   0.00000     -0.301140E-02
       816 MEMB     7        PMPG     H5X      HAL2     0.900000E-01   1.00800           0   0.00000     -0.301140E-02
       817 MEMB     7        PMPG     H5Y      HAL2     0.900000E-01   1.00800           0   0.00000     -0.301140E-02
       818 MEMB     7        PMPG     C36      CTL2    -0.180000       12.0110           0   0.00000     -0.301140E-02
       819 MEMB     7        PMPG     H6X      HAL2     0.900000E-01   1.00800           0   0.00000     -0.301140E-02
       820 MEMB     7        PMPG     H6Y      HAL2     0.900000E-01   1.00800           0   0.00000     -0.301140E-02
       821 MEMB     7        PMPG     C37      CTL2    -0.180000       12.0110           0   0.00000     -0.301140E-02
       822 MEMB     7        PMPG     H7X      HAL2     0.900000E-01   1.00800           0   0.00000     -0.301140E-02
       823 MEMB     7        PMPG     H7Y      HAL2     0.900000E-01   1.00800           0   0.00000     -0.301140E-02
       824 MEMB     7        PMPG     C38      CTL2    -0.180000       12.0110           0   0.00000     -0.301140E-02
       825 MEMB     7        PMPG     H8X      HAL2     0.900000E-01   1.00800           0   0.00000     -0.301140E-02
       826 MEMB     7        PMPG     H8Y      HAL2     0.900000E-01   1.00800           0   0.00000     -0.301140E-02
       827 MEMB     7        PMPG     C39      CTL2    -0.180000       12.0110           0   0.00000     -0.301140E-02
       828 MEMB     7        PMPG     H9X      HAL2     0.900000E-01   1.00800           0   0.00000     -0.301140E-02
       829 MEMB     7        PMPG     H9Y      HAL2     0.900000E-01   1.00800           0   0.00000     -0.301140E-02
       830 MEMB     7        PMPG     C310     CTL2    -0.180000       12.0110           0   0.00000     -0.301140E-02
       831 MEMB     7        PMPG     H10X     HAL2     0.900000E-01   1.00800           0   0.00000     -0.301140E-02
       832 MEMB     7        PMPG     H10Y     HAL2     0.900000E-01   1.00800           0   0.00000     -0.301140E-02
       833 MEMB     7        PMPG     C311     CTL2    -0.180000       12.0110           0   0.00000     -0.301140E-02
       834 MEMB     7        PMPG     H11X     HAL2     0.900000E-01   1.00800           0   0.00000     -0.301140E-02
       835 MEMB     7        PMPG     H11Y     HAL2     0.900000E-01   1.00800           0   0.00000     -0.301140E-02
       836 MEMB     7        PMPG     C312     CTL2    -0.180000       12.0110           0   0.00000     -0.301140E-02
       837 MEMB     7        PMPG     H12X     HAL2     0.900000E-01   1.00800           0   0.00000     -0.301140E-02
       838 MEMB     7        PMPG     H12Y     HAL2     0.900000E-01   1.00800           0   0.00000     -0.301140E-02
       839 MEMB     7        PMPG     C313     CTL2    -0.180000       12.0110           0   0.00000     -0.301140E-02
       840 MEMB     7        PMPG     H13X     HAL2     0.900000E-01   1.00800           0   0.00000     -0.301140E-02
       841 MEMB     7        PMPG     H13Y     HAL2     0.900000E-01   1.00800           0   0.00000     -0.301140E-02
       842 MEMB     7        PMPG     C314     CTL2    -0.180000       12.0110           0   0.00000     -0.301140E-02
       843 MEMB     7        PMPG     H14X     HAL2     0.900000E-01   1.00800           0   0.00000     -0.301140E-02
       844 MEMB     7        PMPG     H14Y     HAL2     0.900000E-01   1.00800           0   0.00000     -0.301140E-02
       845 MEMB     7        PMPG     C315     CTL2    -0.180000       12.0110           0   0.00000     -0.301140E-02
       846 MEMB     7        PMPG     H15X     HAL2     0.900000E-01   1.00800           0   0.00000     -0.301140E-02
       847 MEMB     7        PMPG     H15Y     HAL2     0.900000E-01   1.00800           0   0.00000     -0.301140E-02
       848 MEMB     7        PMPG     C316     CTL3    -0.270000       12.0110           0   0.00000     -0.301140E-02
       849 MEMB     7        PMPG     H16X     HAL3     0.900000E-01   1.00800           0   0.00000     -0.301140E-02
       850 MEMB     7        PMPG     H16Y     HAL3     0.900000E-01   1.00800           0   0.00000     -0.301140E-02
       851 MEMB     7        PMPG     H16Z     HAL3     0.900000E-01   1.00800           0   0.00000     -0.301140E-02
       852 MEMB     8        PYPG     C13      CTL2     0.500000E-01   12.0110           0   0.00000     -0.301140E-02
       853 MEMB     8        PYPG     H13A     HAL2     0.900000E-01   1.00800           0   0.00000     -0.301140E-02
       854 MEMB     8        PYPG     H13B     HAL2     0.900000E-01   1.00800           0   0.00000     -0.301140E-02
       855 MEMB     8        PYPG     OC3      OHL     -0.660000       15.9994           0   0.00000     -0.301140E-02
       856 MEMB     8        PYPG     HO3      HOL      0.430000       1.00800           0   0.00000     -0.301140E-02
       857 MEMB     8        PYPG     C12      CTL1     0.140000       12.0110           0   0.00000     -0.301140E-02
       858 MEMB     8        PYPG     H12A     HAL1     0.900000E-01   1.00800           0   0.00000     -0.301140E-02
       859 MEMB     8        PYPG     OC2      OHL     -0.660000       15.9994           0   0.00000     -0.301140E-02
       860 MEMB     8        PYPG     HO2      HOL      0.430000       1.00800           0   0.00000     -0.301140E-02
       861 MEMB     8        PYPG     C11      CTL2    -0.800000E-01   12.0110           0   0.00000     -0.301140E-02
       862 MEMB     8        PYPG     H11A     HAL2     0.900000E-01   1.00800           0   0.00000     -0.301140E-02
       863 MEMB     8        PYPG     H11B     HAL2     0.900000E-01   1.00800           0   0.00000     -0.301140E-02
       864 MEMB     8        PYPG     P        PL        1.50000       30.9740           0   0.00000     -0.301140E-02
       865 MEMB     8        PYPG     O13      O2L     -0.780000       15.9994           0   0.00000     -0.301140E-02
       866 MEMB     8        PYPG     O14      O2L     -0.780000       15.9994           0   0.00000     -0.301140E-02
       867 MEMB     8        PYPG     O11      OSLP    -0.570000       15.9994           0   0.00000     -0.301140E-02
       868 MEMB     8        PYPG     O12      OSLP    -0.570000       15.9994           0   0.00000     -0.301140E-02
       869 MEMB     8        PYPG     C1       CTL2    -0.800000E-01   12.0110           0   0.00000     -0.301140E-02
       870 MEMB     8        PYPG     HA       HAL2     0.900000E-01   1.00800           0   0.00000     -0.301140E-02
       871 MEMB     8        PYPG     HB       HAL2     0.900000E-01   1.00800           0   0.00000     -0.301140E-02
       872 MEMB     8        PYPG     C2       CTL1     0.170000       12.0110           0   0.00000     -0.301140E-02
       873 MEMB     8        PYPG     HS       HAL1     0.900000E-01   1.00800           0   0.00000     -0.301140E-02
       874 MEMB     8        PYPG     O21      OSL     -0.490000       15.9994           0   0.00000     -0.301140E-02
       875 MEMB     8        PYPG     C21      CL       0.900000       12.0110           0   0.00000     -0.301140E-02
       876 MEMB     8        PYPG     O22      OBL     -0.630000       15.9994           0   0.00000     -0.301140E-02
       877 MEMB     8        PYPG     C22      CTL2    -0.220000       12.0110           0   0.00000     -0.301140E-02
       878 MEMB     8        PYPG     H2R      HAL2     0.900000E-01   1.00800           0   0.00000     -0.301140E-02
       879 MEMB     8        PYPG     H2S      HAL2     0.900000E-01   1.00800           0   0.00000     -0.301140E-02
       880 MEMB     8        PYPG     C3       CTL2     0.800000E-01   12.0110           0   0.00000     -0.301140E-02
       881 MEMB     8        PYPG     HX       HAL2     0.900000E-01   1.00800           0   0.00000     -0.301140E-02
       882 MEMB     8        PYPG     HY       HAL2     0.900000E-01   1.00800           0   0.00000     -0.301140E-02
       883 MEMB     8        PYPG     O31      OSL     -0.490000       15.9994           0   0.00000     -0.301140E-02
       884 MEMB     8        PYPG     C31      CL       0.900000       12.0110           0   0.00000     -0.301140E-02
       885 MEMB     8        PYPG     O32      OBL     -0.630000       15.9994           0   0.00000     -0.301140E-02
       886 MEMB     8        PYPG     C32      CTL2    -0.220000       12.0110           0   0.00000     -0.301140E-02
       887 MEMB     8        PYPG     H2X      HAL2     0.900000E-01   1.00800           0   0.00000     -0.301140E-02
       888 MEMB     8        PYPG     H2Y      HAL2     0.900000E-01   1.00800           0   0.00000     -0.301140E-02
       889 MEMB     8        PYPG     C23      CTL2    -0.180000       12.0110           0   0.00000     -0.301140E-02
       890 MEMB     8        PYPG     H3R      HAL2     0.900000E-01   1.00800           0   0.00000     -0.301140E-02
       891 MEMB     8        PYPG     H3S      HAL2     0.900000E-01   1.00800           0   0.00000     -0.301140E-02
       892 MEMB     8        PYPG     C24      CTL2    -0.180000       12.0110           0   0.00000     -0.301140E-02
       893 MEMB     8        PYPG     H4R      HAL2     0.900000E-01   1.00800           0   0.00000     -0.301140E-02
       894 MEMB     8        PYPG     H4S      HAL2     0.900000E-01   1.00800           0   0.00000     -0.301140E-02
       895 MEMB     8        PYPG     C25      CTL2    -0.180000       12.0110           0   0.00000     -0.301140E-02
       896 MEMB     8        PYPG     H5R      HAL2     0.900000E-01   1.00800           0   0.00000     -0.301140E-02
       897 MEMB     8        PYPG     H5S      HAL2     0.900000E-01   1.00800           0   0.00000     -0.301140E-02
       898 MEMB     8        PYPG     C26      CTL2    -0.180000       12.0110           0   0.00000     -0.301140E-02
       899 MEMB     8        PYPG     H6R      HAL2     0.900000E-01   1.00800           0   0.00000     -0.301140E-02
       900 MEMB     8        PYPG     H6S      HAL2     0.900000E-01   1.00800           0   0.00000     -0.301140E-02
       901 MEMB     8        PYPG     C27      CTL2    -0.180000       12.0110           0   0.00000     -0.301140E-02
       902 MEMB     8        PYPG     H7R      HAL2     0.900000E-01   1.00800           0   0.00000     -0.301140E-02
       903 MEMB     8        PYPG     H7S      HAL2     0.900000E-01   1.00800           0   0.00000     -0.301140E-02
       904 MEMB     8        PYPG     C28      CTL2    -0.180000       12.0110           0   0.00000     -0.301140E-02
       905 MEMB     8        PYPG     H8R      HAL2     0.900000E-01   1.00800           0   0.00000     -0.301140E-02
       906 MEMB     8        PYPG     H8S      HAL2     0.900000E-01   1.00800           0   0.00000     -0.301140E-02
       907 MEMB     8        PYPG     C29      CEL1    -0.150000       12.0110           0   0.00000     -0.301140E-02
       908 MEMB     8        PYPG     H9R      HEL1     0.150000       1.00800           0   0.00000     -0.301140E-02
       909 MEMB     8        PYPG     C210     CEL1    -0.150000       12.0110           0   0.00000     -0.301140E-02
       910 MEMB     8        PYPG     H10R     HEL1     0.150000       1.00800           0   0.00000     -0.301140E-02
       911 MEMB     8        PYPG     C211     CTL2    -0.180000       12.0110           0   0.00000     -0.301140E-02
       912 MEMB     8        PYPG     H11R     HAL2     0.900000E-01   1.00800           0   0.00000     -0.301140E-02
       913 MEMB     8        PYPG     H11S     HAL2     0.900000E-01   1.00800           0   0.00000     -0.301140E-02
       914 MEMB     8        PYPG     C212     CTL2    -0.180000       12.0110           0   0.00000     -0.301140E-02
       915 MEMB     8        PYPG     H12R     HAL2     0.900000E-01   1.00800           0   0.00000     -0.301140E-02
       916 MEMB     8        PYPG     H12S     HAL2     0.900000E-01   1.00800           0   0.00000     -0.301140E-02
       917 MEMB     8        PYPG     C213     CTL2    -0.180000       12.0110           0   0.00000     -0.301140E-02
       918 MEMB     8        PYPG     H13R     HAL2     0.900000E-01   1.00800           0   0.00000     -0.301140E-02
       919 MEMB     8        PYPG     H13S     HAL2     0.900000E-01   1.00800           0   0.00000     -0.301140E-02
       920 MEMB     8        PYPG     C214     CTL2    -0.180000       12.0110           0   0.00000     -0.301140E-02
       921 MEMB     8        PYPG     H14R     HAL2     0.900000E-01   1.00800           0   0.00000     -0.301140E-02
       922 MEMB     8        PYPG     H14S     HAL2     0.900000E-01   1.00800           0   0.00000     -0.301140E-02
       923 MEMB     8        PYPG     C215     CTL2    -0.180000       12.0110           0   0.00000     -0.301140E-02
       924 MEMB     8        PYPG     H15R     HAL2     0.900000E-01   1.00800           0   0.00000     -0.301140E-02
       925 MEMB     8        PYPG     H15S     HAL2     0.900000E-01   1.00800           0   0.00000     -0.301140E-02
       926 MEMB     8        PYPG     C216     CTL3    -0.270000       12.0110           0   0.00000     -0.301140E-02
       927 MEMB     8        PYPG     H16R     HAL3     0.900000E-01   1.00800           0   0.00000     -0.301140E-02
       928 MEMB     8        PYPG     H16S     HAL3     0.900000E-01   1.00800           0   0.00000     -0.301140E-02
       929 MEMB     8        PYPG     H16T     HAL3     0.900000E-01   1.00800           0   0.00000     -0.301140E-02
       930 MEMB     8        PYPG     C33      CTL2    -0.180000       12.0110           0   0.00000     -0.301140E-02
       931 MEMB     8        PYPG     H3X      HAL2     0.900000E-01   1.00800           0   0.00000     -0.301140E-02
       932 MEMB     8        PYPG     H3Y      HAL2     0.900000E-01   1.00800           0   0.00000     -0.301140E-02
       933 MEMB     8        PYPG     C34      CTL2    -0.180000       12.0110           0   0.00000     -0.301140E-02
       934 MEMB     8        PYPG     H4X      HAL2     0.900000E-01   1.00800           0   0.00000     -0.301140E-02
       935 MEMB     8        PYPG     H4Y      HAL2     0.900000E-01   1.00800           0   0.00000     -0.301140E-02
       936 MEMB     8        PYPG     C35      CTL2    -0.180000       12.0110           0   0.00000     -0.301140E-02
       937 MEMB     8        PYPG     H5X      HAL2     0.900000E-01   1.00800           0   0.00000     -0.301140E-02
       938 MEMB     8        PYPG     H5Y      HAL2     0.900000E-01   1.00800           0   0.00000     -0.301140E-02
       939 MEMB     8        PYPG     C36      CTL2    -0.180000       12.0110           0   0.00000     -0.301140E-02
       940 MEMB     8        PYPG     H6X      HAL2     0.900000E-01   1.00800           0   0.00000     -0.301140E-02
       941 MEMB     8        PYPG     H6Y      HAL2     0.900000E-01   1.00800           0   0.00000     -0.301140E-02
       942 MEMB     8        PYPG     C37      CTL2    -0.180000       12.0110           0   0.00000     -0.301140E-02
       943 MEMB     8        PYPG     H7X      HAL2     0.900000E-01   1.00800           0   0.00000     -0.301140E-02
       944 MEMB     8        PYPG     H7Y      HAL2     0.900000E-01   1.00800           0   0.00000     -0.301140E-02
       945 MEMB     8        PYPG     C38      CTL2    -0.180000       12.0110           0   0.00000     -0.301140E-02
       946 MEMB     8        PYPG     H8X      HAL2     0.900000E-01   1.00800           0   0.00000     -0.301140E-02
       947 MEMB     8        PYPG     H8Y      HAL2     0.900000E-01   1.00800           0   0.00000     -0.301140E-02
       948 MEMB     8        PYPG     C39      CTL2    -0.180000       12.0110           0   0.00000     -0.301140E-02
       949 MEMB     8        PYPG     H9X      HAL2     0.900000E-01   1.00800           0   0.00000     -0.301140E-02
       950 MEMB     8        PYPG     H9Y      HAL2     0.900000E-01   1.00800           0   0.00000     -0.301140E-02
       951 MEMB     8        PYPG     C310     CTL2    -0.180000       12.0110           0   0.00000     -0.301140E-02
       952 MEMB     8        PYPG     H10X     HAL2     0.900000E-01   1.00800           0   0.00000     -0.301140E-02
       953 MEMB     8        PYPG     H10Y     HAL2     0.900000E-01   1.00800           0   0.00000     -0.301140E-02
       954 MEMB     8        PYPG     C311     CTL2    -0.180000       12.0110           0   0.00000     -0.301140E-02
       955 MEMB     8        PYPG     H11X     HAL2     0.900000E-01   1.00800           0   0.00000     -0.301140E-02
       956 MEMB     8        PYPG     H11Y     HAL2     0.900000E-01   1.00800           0   0.00000     -0.301140E-02
       957 MEMB     8        PYPG     C312     CTL2    -0.180000       12.0110           0   0.00000     -0.301140E-02
       958 MEMB     8        PYPG     H12X     HAL2     0.900000E-01   1.00800           0   0.00000     -0.301140E-02
       959 MEMB     8        PYPG     H12Y     HAL2     0.900000E-01   1.00800           0   0.00000     -0.301140E-02
       960 MEMB     8        PYPG     C313     CTL2    -0.180000       12.0110           0   0.00000     -0.301140E-02
       961 MEMB     8        PYPG     H13X     HAL2     0.900000E-01   1.00800           0   0.00000     -0.301140E-02
       962 MEMB     8        PYPG     H13Y     HAL2     0.900000E-01   1.00800           0   0.00000     -0.301140E-02
       963 MEMB     8        PYPG     C314     CTL2    -0.180000       12.0110           0   0.00000     -0.301140E-02
       964 MEMB     8        PYPG     H14X     HAL2     0.900000E-01   1.00800           0   0.00000     -0.301140E-02
       965 MEMB     8        PYPG     H14Y     HAL2     0.900000E-01   1.00800           0   0.00000     -0.301140E-02
       966 MEMB     8        PYPG     C315     CTL2    -0.180000       12.0110           0   0.00000     -0.301140E-02
       967 MEMB     8        PYPG     H15X     HAL2     0.900000E-01   1.00800           0   0.00000     -0.301140E-02
       968 MEMB     8        PYPG     H15Y     HAL2     0.900000E-01   1.00800           0   0.00000     -0.301140E-02
       969 MEMB     8        PYPG     C316     CTL3    -0.270000       12.0110           0   0.00000     -0.301140E-02
       970 MEMB     8        PYPG     H16X     HAL3     0.900000E-01   1.00800           0   0.00000     -0.301140E-02
       971 MEMB     8        PYPG     H16Y     HAL3     0.900000E-01   1.00800           0   0.00000     -0.301140E-02
       972 MEMB     8        PYPG     H16Z     HAL3     0.900000E-01   1.00800           0   0.00000     -0.301140E-02
       973 MEMB     9        PMPE     N        NH3L    -0.300000       14.0070           0   0.00000     -0.301140E-02
       974 MEMB     9        PMPE     HN1      HCL      0.330000       1.00800           0   0.00000     -0.301140E-02
       975 MEMB     9        PMPE     HN2      HCL      0.330000       1.00800           0   0.00000     -0.301140E-02
       976 MEMB     9        PMPE     HN3      HCL      0.330000       1.00800           0   0.00000     -0.301140E-02
       977 MEMB     9        PMPE     C12      CTL2     0.130000       12.0110           0   0.00000     -0.301140E-02
       978 MEMB     9        PMPE     H12A     HAL2     0.900000E-01   1.00800           0   0.00000     -0.301140E-02
       979 MEMB     9        PMPE     H12B     HAL2     0.900000E-01   1.00800           0   0.00000     -0.301140E-02
       980 MEMB     9        PMPE     C11      CTL2    -0.800000E-01   12.0110           0   0.00000     -0.301140E-02
       981 MEMB     9        PMPE     H11A     HAL2     0.900000E-01   1.00800           0   0.00000     -0.301140E-02
       982 MEMB     9        PMPE     H11B     HAL2     0.900000E-01   1.00800           0   0.00000     -0.301140E-02
       983 MEMB     9        PMPE     P        PL        1.50000       30.9740           0   0.00000     -0.301140E-02
       984 MEMB     9        PMPE     O13      O2L     -0.780000       15.9994           0   0.00000     -0.301140E-02
       985 MEMB     9        PMPE     O14      O2L     -0.780000       15.9994           0   0.00000     -0.301140E-02
       986 MEMB     9        PMPE     O11      OSLP    -0.570000       15.9994           0   0.00000     -0.301140E-02
       987 MEMB     9        PMPE     O12      OSLP    -0.570000       15.9994           0   0.00000     -0.301140E-02
       988 MEMB     9        PMPE     C1       CTL2    -0.800000E-01   12.0110           0   0.00000     -0.301140E-02
       989 MEMB     9        PMPE     HA       HAL2     0.900000E-01   1.00800           0   0.00000     -0.301140E-02
       990 MEMB     9        PMPE     HB       HAL2     0.900000E-01   1.00800           0   0.00000     -0.301140E-02
       991 MEMB     9        PMPE     C2       CTL1     0.170000       12.0110           0   0.00000     -0.301140E-02
       992 MEMB     9        PMPE     HS       HAL1     0.900000E-01   1.00800           0   0.00000     -0.301140E-02
       993 MEMB     9        PMPE     O21      OSL     -0.490000       15.9994           0   0.00000     -0.301140E-02
       994 MEMB     9        PMPE     C21      CL       0.900000       12.0110           0   0.00000     -0.301140E-02
       995 MEMB     9        PMPE     O22      OBL     -0.630000       15.9994           0   0.00000     -0.301140E-02
       996 MEMB     9        PMPE     C22      CTL2    -0.220000       12.0110           0   0.00000     -0.301140E-02
       997 MEMB     9        PMPE     H2R      HAL2     0.900000E-01   1.00800           0   0.00000     -0.301140E-02
       998 MEMB     9        PMPE     H2S      HAL2     0.900000E-01   1.00800           0   0.00000     -0.301140E-02
       999 MEMB     9        PMPE     C3       CTL2     0.800000E-01   12.0110           0   0.00000     -0.301140E-02
      1000 MEMB     9        PMPE     HX       HAL2     0.900000E-01   1.00800           0   0.00000     -0.301140E-02
      1001 MEMB     9        PMPE     HY       HAL2     0.900000E-01   1.00800           0   0.00000     -0.301140E-02
      1002 MEMB     9        PMPE     O31      OSL     -0.490000       15.9994           0   0.00000     -0.301140E-02
      1003 MEMB     9        PMPE     C31      CL       0.900000       12.0110           0   0.00000     -0.301140E-02
      1004 MEMB     9        PMPE     O32      OBL     -0.630000       15.9994           0   0.00000     -0.301140E-02
      1005 MEMB     9        PMPE     C32      CTL2    -0.220000       12.0110           0   0.00000     -0.301140E-02
      1006 MEMB     9        PMPE     H2X      HAL2     0.900000E-01   1.00800           0   0.00000     -0.301140E-02
      1007 MEMB     9        PMPE     H2Y      HAL2     0.900000E-01   1.00800           0   0.00000     -0.301140E-02
      1008 MEMB     9        PMPE     C23      CTL2    -0.180000       12.0110           0   0.00000     -0.301140E-02
      1009 MEMB     9        PMPE     H3R      HAL2     0.900000E-01   1.00800           0   0.00000     -0.301140E-02
      1010 MEMB     9        PMPE     H3S      HAL2     0.900000E-01   1.00800           0   0.00000     -0.301140E-02
      1011 MEMB     9        PMPE     C24      CTL2    -0.180000       12.0110           0   0.00000     -0.301140E-02
      1012 MEMB     9        PMPE     H4R      HAL2     0.900000E-01   1.00800           0   0.00000     -0.301140E-02
      1013 MEMB     9        PMPE     H4S      HAL2     0.900000E-01   1.00800           0   0.00000     -0.301140E-02
      1014 MEMB     9        PMPE     C25      CTL2    -0.180000       12.0110           0   0.00000     -0.301140E-02
      1015 MEMB     9        PMPE     H5R      HAL2     0.900000E-01   1.00800           0   0.00000     -0.301140E-02
      1016 MEMB     9        PMPE     H5S      HAL2     0.900000E-01   1.00800           0   0.00000     -0.301140E-02
      1017 MEMB     9        PMPE     C26      CTL2    -0.180000       12.0110           0   0.00000     -0.301140E-02
      1018 MEMB     9        PMPE     H6R      HAL2     0.900000E-01   1.00800           0   0.00000     -0.301140E-02
      1019 MEMB     9        PMPE     H6S      HAL2     0.900000E-01   1.00800           0   0.00000     -0.301140E-02
      1020 MEMB     9        PMPE     C27      CTL2    -0.180000       12.0110           0   0.00000     -0.301140E-02
      1021 MEMB     9        PMPE     H7R      HAL2     0.900000E-01   1.00800           0   0.00000     -0.301140E-02
      1022 MEMB     9        PMPE     H7S      HAL2     0.900000E-01   1.00800           0   0.00000     -0.301140E-02
      1023 MEMB     9        PMPE     C28      CTL2    -0.180000       12.0110           0   0.00000     -0.301140E-02
      1024 MEMB     9        PMPE     H8R      HAL2     0.900000E-01   1.00800           0   0.00000     -0.301140E-02
      1025 MEMB     9        PMPE     H8S      HAL2     0.900000E-01   1.00800           0   0.00000     -0.301140E-02
      1026 MEMB     9        PMPE     C29      CG3RC1  -0.900000E-01   12.0110           0   0.00000     -0.301140E-02
      1027 MEMB     9        PMPE     H9R      HGA1     0.900000E-01   1.00800           0   0.00000     -0.301140E-02
      1028 MEMB     9        PMPE     C217     CG3C31  -0.180000       12.0110           0   0.00000     -0.301140E-02
      1029 MEMB     9        PMPE     H17R     HGA2     0.900000E-01   1.00800           0   0.00000     -0.301140E-02
      1030 MEMB     9        PMPE     H17S     HGA2     0.900000E-01   1.00800           0   0.00000     -0.301140E-02
      1031 MEMB     9        PMPE     C210     CG3RC1  -0.900000E-01   12.0110           0   0.00000     -0.301140E-02
      1032 MEMB     9        PMPE     H10R     HGA1     0.900000E-01   1.00800           0   0.00000     -0.301140E-02
      1033 MEMB     9        PMPE     C211     CTL2    -0.180000       12.0110           0   0.00000     -0.301140E-02
      1034 MEMB     9        PMPE     H11R     HAL2     0.900000E-01   1.00800           0   0.00000     -0.301140E-02
      1035 MEMB     9        PMPE     H11S     HAL2     0.900000E-01   1.00800           0   0.00000     -0.301140E-02
      1036 MEMB     9        PMPE     C212     CTL2    -0.180000       12.0110           0   0.00000     -0.301140E-02
      1037 MEMB     9        PMPE     H12R     HAL2     0.900000E-01   1.00800           0   0.00000     -0.301140E-02
      1038 MEMB     9        PMPE     H12S     HAL2     0.900000E-01   1.00800           0   0.00000     -0.301140E-02
      1039 MEMB     9        PMPE     C213     CTL2    -0.180000       12.0110           0   0.00000     -0.301140E-02
      1040 MEMB     9        PMPE     H13R     HAL2     0.900000E-01   1.00800           0   0.00000     -0.301140E-02
      1041 MEMB     9        PMPE     H13S     HAL2     0.900000E-01   1.00800           0   0.00000     -0.301140E-02
      1042 MEMB     9        PMPE     C214     CTL2    -0.180000       12.0110           0   0.00000     -0.301140E-02
      1043 MEMB     9        PMPE     H14R     HAL2     0.900000E-01   1.00800           0   0.00000     -0.301140E-02
      1044 MEMB     9        PMPE     H14S     HAL2     0.900000E-01   1.00800           0   0.00000     -0.301140E-02
      1045 MEMB     9        PMPE     C215     CTL2    -0.180000       12.0110           0   0.00000     -0.301140E-02
      1046 MEMB     9        PMPE     H15R     HAL2     0.900000E-01   1.00800           0   0.00000     -0.301140E-02
      1047 MEMB     9        PMPE     H15S     HAL2     0.900000E-01   1.00800           0   0.00000     -0.301140E-02
      1048 MEMB     9        PMPE     C216     CTL3    -0.270000       12.0110           0   0.00000     -0.301140E-02
      1049 MEMB     9        PMPE     H16R     HAL3     0.900000E-01   1.00800           0   0.00000     -0.301140E-02
      1050 MEMB     9        PMPE     H16S     HAL3     0.900000E-01   1.00800           0   0.00000     -0.301140E-02
      1051 MEMB     9        PMPE     H16T     HAL3     0.900000E-01   1.00800           0   0.00000     -0.301140E-02
      1052 MEMB     9        PMPE     C33      CTL2    -0.180000       12.0110           0   0.00000     -0.301140E-02
      1053 MEMB     9        PMPE     H3X      HAL2     0.900000E-01   1.00800           0   0.00000     -0.301140E-02
      1054 MEMB     9        PMPE     H3Y      HAL2     0.900000E-01   1.00800           0   0.00000     -0.301140E-02
      1055 MEMB     9        PMPE     C34      CTL2    -0.180000       12.0110           0   0.00000     -0.301140E-02
      1056 MEMB     9        PMPE     H4X      HAL2     0.900000E-01   1.00800           0   0.00000     -0.301140E-02
      1057 MEMB     9        PMPE     H4Y      HAL2     0.900000E-01   1.00800           0   0.00000     -0.301140E-02
      1058 MEMB     9        PMPE     C35      CTL2    -0.180000       12.0110           0   0.00000     -0.301140E-02
      1059 MEMB     9        PMPE     H5X      HAL2     0.900000E-01   1.00800           0   0.00000     -0.301140E-02
      1060 MEMB     9        PMPE     H5Y      HAL2     0.900000E-01   1.00800           0   0.00000     -0.301140E-02
      1061 MEMB     9        PMPE     C36      CTL2    -0.180000       12.0110           0   0.00000     -0.301140E-02
      1062 MEMB     9        PMPE     H6X      HAL2     0.900000E-01   1.00800           0   0.00000     -0.301140E-02
      1063 MEMB     9        PMPE     H6Y      HAL2     0.900000E-01   1.00800           0   0.00000     -0.301140E-02
      1064 MEMB     9        PMPE     C37      CTL2    -0.180000       12.0110           0   0.00000     -0.301140E-02
      1065 MEMB     9        PMPE     H7X      HAL2     0.900000E-01   1.00800           0   0.00000     -0.301140E-02
      1066 MEMB     9        PMPE     H7Y      HAL2     0.900000E-01   1.00800           0   0.00000     -0.301140E-02
      1067 MEMB     9        PMPE     C38      CTL2    -0.180000       12.0110           0   0.00000     -0.301140E-02
      1068 MEMB     9        PMPE     H8X      HAL2     0.900000E-01   1.00800           0   0.00000     -0.301140E-02
      1069 MEMB     9        PMPE     H8Y      HAL2     0.900000E-01   1.00800           0   0.00000     -0.301140E-02
      1070 MEMB     9        PMPE     C39      CTL2    -0.180000       12.0110           0   0.00000     -0.301140E-02
      1071 MEMB     9        PMPE     H9X      HAL2     0.900000E-01   1.00800           0   0.00000     -0.301140E-02
      1072 MEMB     9        PMPE     H9Y      HAL2     0.900000E-01   1.00800           0   0.00000     -0.301140E-02
      1073 MEMB     9        PMPE     C310     CTL2    -0.180000       12.0110           0   0.00000     -0.301140E-02
      1074 MEMB     9        PMPE     H10X     HAL2     0.900000E-01   1.00800           0   0.00000     -0.301140E-02
      1075 MEMB     9        PMPE     H10Y     HAL2     0.900000E-01   1.00800           0   0.00000     -0.301140E-02
      1076 MEMB     9        PMPE     C311     CTL2    -0.180000       12.0110           0   0.00000     -0.301140E-02
      1077 MEMB     9        PMPE     H11X     HAL2     0.900000E-01   1.00800           0   0.00000     -0.301140E-02
      1078 MEMB     9        PMPE     H11Y     HAL2     0.900000E-01   1.00800           0   0.00000     -0.301140E-02
      1079 MEMB     9        PMPE     C312     CTL2    -0.180000       12.0110           0   0.00000     -0.301140E-02
      1080 MEMB     9        PMPE     H12X     HAL2     0.900000E-01   1.00800           0   0.00000     -0.301140E-02
      1081 MEMB     9        PMPE     H12Y     HAL2     0.900000E-01   1.00800           0   0.00000     -0.301140E-02
      1082 MEMB     9        PMPE     C313     CTL2    -0.180000       12.0110           0   0.00000     -0.301140E-02
      1083 MEMB     9        PMPE     H13X     HAL2     0.900000E-01   1.00800           0   0.00000     -0.301140E-02
      1084 MEMB     9        PMPE     H13Y     HAL2     0.900000E-01   1.00800           0   0.00000     -0.301140E-02
      1085 MEMB     9        PMPE     C314     CTL2    -0.180000       12.0110           0   0.00000     -0.301140E-02
      1086 MEMB     9        PMPE     H14X     HAL2     0.900000E-01   1.00800           0   0.00000     -0.301140E-02
      1087 MEMB     9        PMPE     H14Y     HAL2     0.900000E-01   1.00800           0   0.00000     -0.301140E-02
      1088 MEMB     9        PMPE     C315     CTL2    -0.180000       12.0110           0   0.00000     -0.301140E-02
      1089 MEMB     9        PMPE     H15X     HAL2     0.900000E-01   1.00800           0   0.00000     -0.301140E-02
      1090 MEMB     9        PMPE     H15Y     HAL2     0.900000E-01   1.00800           0   0.00000     -0.301140E-02
      1091 MEMB     9        PMPE     C316     CTL3    -0.270000       12.0110           0   0.00000     -0.301140E-02
      1092 MEMB     9        PMPE     H16X     HAL3     0.900000E-01   1.00800           0   0.00000     -0.301140E-02
      1093 MEMB     9        PMPE     H16Y     HAL3     0.900000E-01   1.00800           0   0.00000     -0.301140E-02
      1094 MEMB     9        PMPE     H16Z     HAL3     0.900000E-01   1.00800           0   0.00000     -0.301140E-02
      1095 MEMB     10       POPE     N        NH3L    -0.300000       14.0070           0   0.00000     -0.301140E-02
      1096 MEMB     10       POPE     HN1      HCL      0.330000       1.00800           0   0.00000     -0.301140E-02
      1097 MEMB     10       POPE     HN2      HCL      0.330000       1.00800           0   0.00000     -0.301140E-02
      1098 MEMB     10       POPE     HN3      HCL      0.330000       1.00800           0   0.00000     -0.301140E-02
      1099 MEMB     10       POPE     C12      CTL2     0.130000       12.0110           0   0.00000     -0.301140E-02
      1100 MEMB     10       POPE     H12A     HAL2     0.900000E-01   1.00800           0   0.00000     -0.301140E-02
      1101 MEMB     10       POPE     H12B     HAL2     0.900000E-01   1.00800           0   0.00000     -0.301140E-02
      1102 MEMB     10       POPE     C11      CTL2    -0.800000E-01   12.0110           0   0.00000     -0.301140E-02
      1103 MEMB     10       POPE     H11A     HAL2     0.900000E-01   1.00800           0   0.00000     -0.301140E-02
      1104 MEMB     10       POPE     H11B     HAL2     0.900000E-01   1.00800           0   0.00000     -0.301140E-02
      1105 MEMB     10       POPE     P        PL        1.50000       30.9740           0   0.00000     -0.301140E-02
      1106 MEMB     10       POPE     O13      O2L     -0.780000       15.9994           0   0.00000     -0.301140E-02
      1107 MEMB     10       POPE     O14      O2L     -0.780000       15.9994           0   0.00000     -0.301140E-02
      1108 MEMB     10       POPE     O11      OSLP    -0.570000       15.9994           0   0.00000     -0.301140E-02
      1109 MEMB     10       POPE     O12      OSLP    -0.570000       15.9994           0   0.00000     -0.301140E-02
      1110 MEMB     10       POPE     C1       CTL2    -0.800000E-01   12.0110           0   0.00000     -0.301140E-02
      1111 MEMB     10       POPE     HA       HAL2     0.900000E-01   1.00800           0   0.00000     -0.301140E-02
      1112 MEMB     10       POPE     HB       HAL2     0.900000E-01   1.00800           0   0.00000     -0.301140E-02
      1113 MEMB     10       POPE     C2       CTL1     0.170000       12.0110           0   0.00000     -0.301140E-02
      1114 MEMB     10       POPE     HS       HAL1     0.900000E-01   1.00800           0   0.00000     -0.301140E-02
      1115 MEMB     10       POPE     O21      OSL     -0.490000       15.9994           0   0.00000     -0.301140E-02
      1116 MEMB     10       POPE     C21      CL       0.900000       12.0110           0   0.00000     -0.301140E-02
      1117 MEMB     10       POPE     O22      OBL     -0.630000       15.9994           0   0.00000     -0.301140E-02
      1118 MEMB     10       POPE     C22      CTL2    -0.220000       12.0110           0   0.00000     -0.301140E-02
      1119 MEMB     10       POPE     H2R      HAL2     0.900000E-01   1.00800           0   0.00000     -0.301140E-02
      1120 MEMB     10       POPE     H2S      HAL2     0.900000E-01   1.00800           0   0.00000     -0.301140E-02
      1121 MEMB     10       POPE     C3       CTL2     0.800000E-01   12.0110           0   0.00000     -0.301140E-02
      1122 MEMB     10       POPE     HX       HAL2     0.900000E-01   1.00800           0   0.00000     -0.301140E-02
      1123 MEMB     10       POPE     HY       HAL2     0.900000E-01   1.00800           0   0.00000     -0.301140E-02
      1124 MEMB     10       POPE     O31      OSL     -0.490000       15.9994           0   0.00000     -0.301140E-02
      1125 MEMB     10       POPE     C31      CL       0.900000       12.0110           0   0.00000     -0.301140E-02
      1126 MEMB     10       POPE     O32      OBL     -0.630000       15.9994           0   0.00000     -0.301140E-02
      1127 MEMB     10       POPE     C32      CTL2    -0.220000       12.0110           0   0.00000     -0.301140E-02
      1128 MEMB     10       POPE     H2X      HAL2     0.900000E-01   1.00800           0   0.00000     -0.301140E-02
      1129 MEMB     10       POPE     H2Y      HAL2     0.900000E-01   1.00800           0   0.00000     -0.301140E-02
      1130 MEMB     10       POPE     C23      CTL2    -0.180000       12.0110           0   0.00000     -0.301140E-02
      1131 MEMB     10       POPE     H3R      HAL2     0.900000E-01   1.00800           0   0.00000     -0.301140E-02
      1132 MEMB     10       POPE     H3S      HAL2     0.900000E-01   1.00800           0   0.00000     -0.301140E-02
      1133 MEMB     10       POPE     C24      CTL2    -0.180000       12.0110           0   0.00000     -0.301140E-02
      1134 MEMB     10       POPE     H4R      HAL2     0.900000E-01   1.00800           0   0.00000     -0.301140E-02
      1135 MEMB     10       POPE     H4S      HAL2     0.900000E-01   1.00800           0   0.00000     -0.301140E-02
      1136 MEMB     10       POPE     C25      CTL2    -0.180000       12.0110           0   0.00000     -0.301140E-02
      1137 MEMB     10       POPE     H5R      HAL2     0.900000E-01   1.00800           0   0.00000     -0.301140E-02
      1138 MEMB     10       POPE     H5S      HAL2     0.900000E-01   1.00800           0   0.00000     -0.301140E-02
      1139 MEMB     10       POPE     C26      CTL2    -0.180000       12.0110           0   0.00000     -0.301140E-02
      1140 MEMB     10       POPE     H6R      HAL2     0.900000E-01   1.00800           0   0.00000     -0.301140E-02
      1141 MEMB     10       POPE     H6S      HAL2     0.900000E-01   1.00800           0   0.00000     -0.301140E-02
      1142 MEMB     10       POPE     C27      CTL2    -0.180000       12.0110           0   0.00000     -0.301140E-02
      1143 MEMB     10       POPE     H7R      HAL2     0.900000E-01   1.00800           0   0.00000     -0.301140E-02
      1144 MEMB     10       POPE     H7S      HAL2     0.900000E-01   1.00800           0   0.00000     -0.301140E-02
      1145 MEMB     10       POPE     C28      CTL2    -0.180000       12.0110           0   0.00000     -0.301140E-02
      1146 MEMB     10       POPE     H8R      HAL2     0.900000E-01   1.00800           0   0.00000     -0.301140E-02
      1147 MEMB     10       POPE     H8S      HAL2     0.900000E-01   1.00800           0   0.00000     -0.301140E-02
      1148 MEMB     10       POPE     C29      CEL1    -0.150000       12.0110           0   0.00000     -0.301140E-02
      1149 MEMB     10       POPE     H91      HEL1     0.150000       1.00800           0   0.00000     -0.301140E-02
      1150 MEMB     10       POPE     C210     CEL1    -0.150000       12.0110           0   0.00000     -0.301140E-02
      1151 MEMB     10       POPE     H101     HEL1     0.150000       1.00800           0   0.00000     -0.301140E-02
      1152 MEMB     10       POPE     C211     CTL2    -0.180000       12.0110           0   0.00000     -0.301140E-02
      1153 MEMB     10       POPE     H11R     HAL2     0.900000E-01   1.00800           0   0.00000     -0.301140E-02
      1154 MEMB     10       POPE     H11S     HAL2     0.900000E-01   1.00800           0   0.00000     -0.301140E-02
      1155 MEMB     10       POPE     C212     CTL2    -0.180000       12.0110           0   0.00000     -0.301140E-02
      1156 MEMB     10       POPE     H12R     HAL2     0.900000E-01   1.00800           0   0.00000     -0.301140E-02
      1157 MEMB     10       POPE     H12S     HAL2     0.900000E-01   1.00800           0   0.00000     -0.301140E-02
      1158 MEMB     10       POPE     C213     CTL2    -0.180000       12.0110           0   0.00000     -0.301140E-02
      1159 MEMB     10       POPE     H13R     HAL2     0.900000E-01   1.00800           0   0.00000     -0.301140E-02
      1160 MEMB     10       POPE     H13S     HAL2     0.900000E-01   1.00800           0   0.00000     -0.301140E-02
      1161 MEMB     10       POPE     C214     CTL2    -0.180000       12.0110           0   0.00000     -0.301140E-02
      1162 MEMB     10       POPE     H14R     HAL2     0.900000E-01   1.00800           0   0.00000     -0.301140E-02
      1163 MEMB     10       POPE     H14S     HAL2     0.900000E-01   1.00800           0   0.00000     -0.301140E-02
      1164 MEMB     10       POPE     C215     CTL2    -0.180000       12.0110           0   0.00000     -0.301140E-02
      1165 MEMB     10       POPE     H15R     HAL2     0.900000E-01   1.00800           0   0.00000     -0.301140E-02
      1166 MEMB     10       POPE     H15S     HAL2     0.900000E-01   1.00800           0   0.00000     -0.301140E-02
      1167 MEMB     10       POPE     C216     CTL2    -0.180000       12.0110           0   0.00000     -0.301140E-02
      1168 MEMB     10       POPE     H16R     HAL2     0.900000E-01   1.00800           0   0.00000     -0.301140E-02
      1169 MEMB     10       POPE     H16S     HAL2     0.900000E-01   1.00800           0   0.00000     -0.301140E-02
      1170 MEMB     10       POPE     C217     CTL2    -0.180000       12.0110           0   0.00000     -0.301140E-02
      1171 MEMB     10       POPE     H17R     HAL2     0.900000E-01   1.00800           0   0.00000     -0.301140E-02
      1172 MEMB     10       POPE     H17S     HAL2     0.900000E-01   1.00800           0   0.00000     -0.301140E-02
      1173 MEMB     10       POPE     C218     CTL3    -0.270000       12.0110           0   0.00000     -0.301140E-02
      1174 MEMB     10       POPE     H18R     HAL3     0.900000E-01   1.00800           0   0.00000     -0.301140E-02
      1175 MEMB     10       POPE     H18S     HAL3     0.900000E-01   1.00800           0   0.00000     -0.301140E-02
      1176 MEMB     10       POPE     H18T     HAL3     0.900000E-01   1.00800           0   0.00000     -0.301140E-02
      1177 MEMB     10       POPE     C33      CTL2    -0.180000       12.0110           0   0.00000     -0.301140E-02
      1178 MEMB     10       POPE     H3X      HAL2     0.900000E-01   1.00800           0   0.00000     -0.301140E-02
      1179 MEMB     10       POPE     H3Y      HAL2     0.900000E-01   1.00800           0   0.00000     -0.301140E-02
      1180 MEMB     10       POPE     C34      CTL2    -0.180000       12.0110           0   0.00000     -0.301140E-02
      1181 MEMB     10       POPE     H4X      HAL2     0.900000E-01   1.00800           0   0.00000     -0.301140E-02
      1182 MEMB     10       POPE     H4Y      HAL2     0.900000E-01   1.00800           0   0.00000     -0.301140E-02
      1183 MEMB     10       POPE     C35      CTL2    -0.180000       12.0110           0   0.00000     -0.301140E-02
      1184 MEMB     10       POPE     H5X      HAL2     0.900000E-01   1.00800           0   0.00000     -0.301140E-02
      1185 MEMB     10       POPE     H5Y      HAL2     0.900000E-01   1.00800           0   0.00000     -0.301140E-02
      1186 MEMB     10       POPE     C36      CTL2    -0.180000       12.0110           0   0.00000     -0.301140E-02
      1187 MEMB     10       POPE     H6X      HAL2     0.900000E-01   1.00800           0   0.00000     -0.301140E-02
      1188 MEMB     10       POPE     H6Y      HAL2     0.900000E-01   1.00800           0   0.00000     -0.301140E-02
      1189 MEMB     10       POPE     C37      CTL2    -0.180000       12.0110           0   0.00000     -0.301140E-02
      1190 MEMB     10       POPE     H7X      HAL2     0.900000E-01   1.00800           0   0.00000     -0.301140E-02
      1191 MEMB     10       POPE     H7Y      HAL2     0.900000E-01   1.00800           0   0.00000     -0.301140E-02
      1192 MEMB     10       POPE     C38      CTL2    -0.180000       12.0110           0   0.00000     -0.301140E-02
      1193 MEMB     10       POPE     H8X      HAL2     0.900000E-01   1.00800           0   0.00000     -0.301140E-02
      1194 MEMB     10       POPE     H8Y      HAL2     0.900000E-01   1.00800           0   0.00000     -0.301140E-02
      1195 MEMB     10       POPE     C39      CTL2    -0.180000       12.0110           0   0.00000     -0.301140E-02
      1196 MEMB     10       POPE     H9X      HAL2     0.900000E-01   1.00800           0   0.00000     -0.301140E-02
      1197 MEMB     10       POPE     H9Y      HAL2     0.900000E-01   1.00800           0   0.00000     -0.301140E-02
      1198 MEMB     10       POPE     C310     CTL2    -0.180000       12.0110           0   0.00000     -0.301140E-02
      1199 MEMB     10       POPE     H10X     HAL2     0.900000E-01   1.00800           0   0.00000     -0.301140E-02
      1200 MEMB     10       POPE     H10Y     HAL2     0.900000E-01   1.00800           0   0.00000     -0.301140E-02
      1201 MEMB     10       POPE     C311     CTL2    -0.180000       12.0110           0   0.00000     -0.301140E-02
      1202 MEMB     10       POPE     H11X     HAL2     0.900000E-01   1.00800           0   0.00000     -0.301140E-02
      1203 MEMB     10       POPE     H11Y     HAL2     0.900000E-01   1.00800           0   0.00000     -0.301140E-02
      1204 MEMB     10       POPE     C312     CTL2    -0.180000       12.0110           0   0.00000     -0.301140E-02
      1205 MEMB     10       POPE     H12X     HAL2     0.900000E-01   1.00800           0   0.00000     -0.301140E-02
      1206 MEMB     10       POPE     H12Y     HAL2     0.900000E-01   1.00800           0   0.00000     -0.301140E-02
      1207 MEMB     10       POPE     C313     CTL2    -0.180000       12.0110           0   0.00000     -0.301140E-02
      1208 MEMB     10       POPE     H13X     HAL2     0.900000E-01   1.00800           0   0.00000     -0.301140E-02
      1209 MEMB     10       POPE     H13Y     HAL2     0.900000E-01   1.00800           0   0.00000     -0.301140E-02
      1210 MEMB     10       POPE     C314     CTL2    -0.180000       12.0110           0   0.00000     -0.301140E-02
      1211 MEMB     10       POPE     H14X     HAL2     0.900000E-01   1.00800           0   0.00000     -0.301140E-02
      1212 MEMB     10       POPE     H14Y     HAL2     0.900000E-01   1.00800           0   0.00000     -0.301140E-02
      1213 MEMB     10       POPE     C315     CTL2    -0.180000       12.0110           0   0.00000     -0.301140E-02
      1214 MEMB     10       POPE     H15X     HAL2     0.900000E-01   1.00800           0   0.00000     -0.301140E-02
      1215 MEMB     10       POPE     H15Y     HAL2     0.900000E-01   1.00800           0   0.00000     -0.301140E-02
      1216 MEMB     10       POPE     C316     CTL3    -0.270000       12.0110           0   0.00000     -0.301140E-02
      1217 MEMB     10       POPE     H16X     HAL3     0.900000E-01   1.00800           0   0.00000     -0.301140E-02
      1218 MEMB     10       POPE     H16Y     HAL3     0.900000E-01   1.00800           0   0.00000     -0.301140E-02
      1219 MEMB     10       POPE     H16Z     HAL3     0.900000E-01   1.00800           0   0.00000     -0.301140E-02
      1220 MEMB     11       PMPE     N        NH3L    -0.300000       14.0070           0   0.00000     -0.301140E-02
      1221 MEMB     11       PMPE     HN1      HCL      0.330000       1.00800           0   0.00000     -0.301140E-02
      1222 MEMB     11       PMPE     HN2      HCL      0.330000       1.00800           0   0.00000     -0.301140E-02
      1223 MEMB     11       PMPE     HN3      HCL      0.330000       1.00800           0   0.00000     -0.301140E-02
      1224 MEMB     11       PMPE     C12      CTL2     0.130000       12.0110           0   0.00000     -0.301140E-02
      1225 MEMB     11       PMPE     H12A     HAL2     0.900000E-01   1.00800           0   0.00000     -0.301140E-02
      1226 MEMB     11       PMPE     H12B     HAL2     0.900000E-01   1.00800           0   0.00000     -0.301140E-02
      1227 MEMB     11       PMPE     C11      CTL2    -0.800000E-01   12.0110           0   0.00000     -0.301140E-02
      1228 MEMB     11       PMPE     H11A     HAL2     0.900000E-01   1.00800           0   0.00000     -0.301140E-02
      1229 MEMB     11       PMPE     H11B     HAL2     0.900000E-01   1.00800           0   0.00000     -0.301140E-02
      1230 MEMB     11       PMPE     P        PL        1.50000       30.9740           0   0.00000     -0.301140E-02
      1231 MEMB     11       PMPE     O13      O2L     -0.780000       15.9994           0   0.00000     -0.301140E-02
      1232 MEMB     11       PMPE     O14      O2L     -0.780000       15.9994           0   0.00000     -0.301140E-02
      1233 MEMB     11       PMPE     O11      OSLP    -0.570000       15.9994           0   0.00000     -0.301140E-02
      1234 MEMB     11       PMPE     O12      OSLP    -0.570000       15.9994           0   0.00000     -0.301140E-02
      1235 MEMB     11       PMPE     C1       CTL2    -0.800000E-01   12.0110           0   0.00000     -0.301140E-02
      1236 MEMB     11       PMPE     HA       HAL2     0.900000E-01   1.00800           0   0.00000     -0.301140E-02
      1237 MEMB     11       PMPE     HB       HAL2     0.900000E-01   1.00800           0   0.00000     -0.301140E-02
      1238 MEMB     11       PMPE     C2       CTL1     0.170000       12.0110           0   0.00000     -0.301140E-02
      1239 MEMB     11       PMPE     HS       HAL1     0.900000E-01   1.00800           0   0.00000     -0.301140E-02
      1240 MEMB     11       PMPE     O21      OSL     -0.490000       15.9994           0   0.00000     -0.301140E-02
      1241 MEMB     11       PMPE     C21      CL       0.900000       12.0110           0   0.00000     -0.301140E-02
      1242 MEMB     11       PMPE     O22      OBL     -0.630000       15.9994           0   0.00000     -0.301140E-02
      1243 MEMB     11       PMPE     C22      CTL2    -0.220000       12.0110           0   0.00000     -0.301140E-02
      1244 MEMB     11       PMPE     H2R      HAL2     0.900000E-01   1.00800           0   0.00000     -0.301140E-02
      1245 MEMB     11       PMPE     H2S      HAL2     0.900000E-01   1.00800           0   0.00000     -0.301140E-02
      1246 MEMB     11       PMPE     C3       CTL2     0.800000E-01   12.0110           0   0.00000     -0.301140E-02
      1247 MEMB     11       PMPE     HX       HAL2     0.900000E-01   1.00800           0   0.00000     -0.301140E-02
      1248 MEMB     11       PMPE     HY       HAL2     0.900000E-01   1.00800           0   0.00000     -0.301140E-02
      1249 MEMB     11       PMPE     O31      OSL     -0.490000       15.9994           0   0.00000     -0.301140E-02
      1250 MEMB     11       PMPE     C31      CL       0.900000       12.0110           0   0.00000     -0.301140E-02
      1251 MEMB     11       PMPE     O32      OBL     -0.630000       15.9994           0   0.00000     -0.301140E-02
      1252 MEMB     11       PMPE     C32      CTL2    -0.220000       12.0110           0   0.00000     -0.301140E-02
      1253 MEMB     11       PMPE     H2X      HAL2     0.900000E-01   1.00800           0   0.00000     -0.301140E-02
      1254 MEMB     11       PMPE     H2Y      HAL2     0.900000E-01   1.00800           0   0.00000     -0.301140E-02
      1255 MEMB     11       PMPE     C23      CTL2    -0.180000       12.0110           0   0.00000     -0.301140E-02
      1256 MEMB     11       PMPE     H3R      HAL2     0.900000E-01   1.00800           0   0.00000     -0.301140E-02
      1257 MEMB     11       PMPE     H3S      HAL2     0.900000E-01   1.00800           0   0.00000     -0.301140E-02
      1258 MEMB     11       PMPE     C24      CTL2    -0.180000       12.0110           0   0.00000     -0.301140E-02
      1259 MEMB     11       PMPE     H4R      HAL2     0.900000E-01   1.00800           0   0.00000     -0.301140E-02
      1260 MEMB     11       PMPE     H4S      HAL2     0.900000E-01   1.00800           0   0.00000     -0.301140E-02
      1261 MEMB     11       PMPE     C25      CTL2    -0.180000       12.0110           0   0.00000     -0.301140E-02
      1262 MEMB     11       PMPE     H5R      HAL2     0.900000E-01   1.00800           0   0.00000     -0.301140E-02
      1263 MEMB     11       PMPE     H5S      HAL2     0.900000E-01   1.00800           0   0.00000     -0.301140E-02
      1264 MEMB     11       PMPE     C26      CTL2    -0.180000       12.0110           0   0.00000     -0.301140E-02
      1265 MEMB     11       PMPE     H6R      HAL2     0.900000E-01   1.00800           0   0.00000     -0.301140E-02
      1266 MEMB     11       PMPE     H6S      HAL2     0.900000E-01   1.00800           0   0.00000     -0.301140E-02
      1267 MEMB     11       PMPE     C27      CTL2    -0.180000       12.0110           0   0.00000     -0.301140E-02
      1268 MEMB     11       PMPE     H7R      HAL2     0.900000E-01   1.00800           0   0.00000     -0.301140E-02
      1269 MEMB     11       PMPE     H7S      HAL2     0.900000E-01   1.00800           0   0.00000     -0.301140E-02
      1270 MEMB     11       PMPE     C28      CTL2    -0.180000       12.0110           0   0.00000     -0.301140E-02
      1271 MEMB     11       PMPE     H8R      HAL2     0.900000E-01   1.00800           0   0.00000     -0.301140E-02
      1272 MEMB     11       PMPE     H8S      HAL2     0.900000E-01   1.00800           0   0.00000     -0.301140E-02
      1273 MEMB     11       PMPE     C29      CG3RC1  -0.900000E-01   12.0110           0   0.00000     -0.301140E-02
      1274 MEMB     11       PMPE     H9R      HGA1     0.900000E-01   1.00800           0   0.00000     -0.301140E-02
      1275 MEMB     11       PMPE     C217     CG3C31  -0.180000       12.0110           0   0.00000     -0.301140E-02
      1276 MEMB     11       PMPE     H17R     HGA2     0.900000E-01   1.00800           0   0.00000     -0.301140E-02
      1277 MEMB     11       PMPE     H17S     HGA2     0.900000E-01   1.00800           0   0.00000     -0.301140E-02
      1278 MEMB     11       PMPE     C210     CG3RC1  -0.900000E-01   12.0110           0   0.00000     -0.301140E-02
      1279 MEMB     11       PMPE     H10R     HGA1     0.900000E-01   1.00800           0   0.00000     -0.301140E-02
      1280 MEMB     11       PMPE     C211     CTL2    -0.180000       12.0110           0   0.00000     -0.301140E-02
      1281 MEMB     11       PMPE     H11R     HAL2     0.900000E-01   1.00800           0   0.00000     -0.301140E-02
      1282 MEMB     11       PMPE     H11S     HAL2     0.900000E-01   1.00800           0   0.00000     -0.301140E-02
      1283 MEMB     11       PMPE     C212     CTL2    -0.180000       12.0110           0   0.00000     -0.301140E-02
      1284 MEMB     11       PMPE     H12R     HAL2     0.900000E-01   1.00800           0   0.00000     -0.301140E-02
      1285 MEMB     11       PMPE     H12S     HAL2     0.900000E-01   1.00800           0   0.00000     -0.301140E-02
      1286 MEMB     11       PMPE     C213     CTL2    -0.180000       12.0110           0   0.00000     -0.301140E-02
      1287 MEMB     11       PMPE     H13R     HAL2     0.900000E-01   1.00800           0   0.00000     -0.301140E-02
      1288 MEMB     11       PMPE     H13S     HAL2     0.900000E-01   1.00800           0   0.00000     -0.301140E-02
      1289 MEMB     11       PMPE     C214     CTL2    -0.180000       12.0110           0   0.00000     -0.301140E-02
      1290 MEMB     11       PMPE     H14R     HAL2     0.900000E-01   1.00800           0   0.00000     -0.301140E-02
      1291 MEMB     11       PMPE     H14S     HAL2     0.900000E-01   1.00800           0   0.00000     -0.301140E-02
      1292 MEMB     11       PMPE     C215     CTL2    -0.180000       12.0110           0   0.00000     -0.301140E-02
      1293 MEMB     11       PMPE     H15R     HAL2     0.900000E-01   1.00800           0   0.00000     -0.301140E-02
      1294 MEMB     11       PMPE     H15S     HAL2     0.900000E-01   1.00800           0   0.00000     -0.301140E-02
      1295 MEMB     11       PMPE     C216     CTL3    -0.270000       12.0110           0   0.00000     -0.301140E-02
      1296 MEMB     11       PMPE     H16R     HAL3     0.900000E-01   1.00800           0   0.00000     -0.301140E-02
      1297 MEMB     11       PMPE     H16S     HAL3     0.900000E-01   1.00800           0   0.00000     -0.301140E-02
      1298 MEMB     11       PMPE     H16T     HAL3     0.900000E-01   1.00800           0   0.00000     -0.301140E-02
      1299 MEMB     11       PMPE     C33      CTL2    -0.180000       12.0110           0   0.00000     -0.301140E-02
      1300 MEMB     11       PMPE     H3X      HAL2     0.900000E-01   1.00800           0   0.00000     -0.301140E-02
      1301 MEMB     11       PMPE     H3Y      HAL2     0.900000E-01   1.00800           0   0.00000     -0.301140E-02
      1302 MEMB     11       PMPE     C34      CTL2    -0.180000       12.0110           0   0.00000     -0.301140E-02
      1303 MEMB     11       PMPE     H4X      HAL2     0.900000E-01   1.00800           0   0.00000     -0.301140E-02
      1304 MEMB     11       PMPE     H4Y      HAL2     0.900000E-01   1.00800           0   0.00000     -0.301140E-02
      1305 MEMB     11       PMPE     C35      CTL2    -0.180000       12.0110           0   0.00000     -0.301140E-02
      1306 MEMB     11       PMPE     H5X      HAL2     0.900000E-01   1.00800           0   0.00000     -0.301140E-02
      1307 MEMB     11       PMPE     H5Y      HAL2     0.900000E-01   1.00800           0   0.00000     -0.301140E-02
      1308 MEMB     11       PMPE     C36      CTL2    -0.180000       12.0110           0   0.00000     -0.301140E-02
      1309 MEMB     11       PMPE     H6X      HAL2     0.900000E-01   1.00800           0   0.00000     -0.301140E-02
      1310 MEMB     11       PMPE     H6Y      HAL2     0.900000E-01   1.00800           0   0.00000     -0.301140E-02
      1311 MEMB     11       PMPE     C37      CTL2    -0.180000       12.0110           0   0.00000     -0.301140E-02
      1312 MEMB     11       PMPE     H7X      HAL2     0.900000E-01   1.00800           0   0.00000     -0.301140E-02
      1313 MEMB     11       PMPE     H7Y      HAL2     0.900000E-01   1.00800           0   0.00000     -0.301140E-02
      1314 MEMB     11       PMPE     C38      CTL2    -0.180000       12.0110           0   0.00000     -0.301140E-02
      1315 MEMB     11       PMPE     H8X      HAL2     0.900000E-01   1.00800           0   0.00000     -0.301140E-02
      1316 MEMB     11       PMPE     H8Y      HAL2     0.900000E-01   1.00800           0   0.00000     -0.301140E-02
      1317 MEMB     11       PMPE     C39      CTL2    -0.180000       12.0110           0   0.00000     -0.301140E-02
      1318 MEMB     11       PMPE     H9X      HAL2     0.900000E-01   1.00800           0   0.00000     -0.301140E-02
      1319 MEMB     11       PMPE     H9Y      HAL2     0.900000E-01   1.00800           0   0.00000     -0.301140E-02
      1320 MEMB     11       PMPE     C310     CTL2    -0.180000       12.0110           0   0.00000     -0.301140E-02
      1321 MEMB     11       PMPE     H10X     HAL2     0.900000E-01   1.00800           0   0.00000     -0.301140E-02
      1322 MEMB     11       PMPE     H10Y     HAL2     0.900000E-01   1.00800           0   0.00000     -0.301140E-02
      1323 MEMB     11       PMPE     C311     CTL2    -0.180000       12.0110           0   0.00000     -0.301140E-02
      1324 MEMB     11       PMPE     H11X     HAL2     0.900000E-01   1.00800           0   0.00000     -0.301140E-02
      1325 MEMB     11       PMPE     H11Y     HAL2     0.900000E-01   1.00800           0   0.00000     -0.301140E-02
      1326 MEMB     11       PMPE     C312     CTL2    -0.180000       12.0110           0   0.00000     -0.301140E-02
      1327 MEMB     11       PMPE     H12X     HAL2     0.900000E-01   1.00800           0   0.00000     -0.301140E-02
      1328 MEMB     11       PMPE     H12Y     HAL2     0.900000E-01   1.00800           0   0.00000     -0.301140E-02
      1329 MEMB     11       PMPE     C313     CTL2    -0.180000       12.0110           0   0.00000     -0.301140E-02
      1330 MEMB     11       PMPE     H13X     HAL2     0.900000E-01   1.00800           0   0.00000     -0.301140E-02
      1331 MEMB     11       PMPE     H13Y     HAL2     0.900000E-01   1.00800           0   0.00000     -0.301140E-02
      1332 MEMB     11       PMPE     C314     CTL2    -0.180000       12.0110           0   0.00000     -0.301140E-02
      1333 MEMB     11       PMPE     H14X     HAL2     0.900000E-01   1.00800           0   0.00000     -0.301140E-02
      1334 MEMB     11       PMPE     H14Y     HAL2     0.900000E-01   1.00800           0   0.00000     -0.301140E-02
      1335 MEMB     11       PMPE     C315     CTL2    -0.180000       12.0110           0   0.00000     -0.301140E-02
      1336 MEMB     11       PMPE     H15X     HAL2     0.900000E-01   1.00800           0   0.00000     -0.301140E-02
      1337 MEMB     11       PMPE     H15Y     HAL2     0.900000E-01   1.00800           0   0.00000     -0.301140E-02
      1338 MEMB     11       PMPE     C316     CTL3    -0.270000       12.0110           0   0.00000     -0.301140E-02
      1339 MEMB     11       PMPE     H16X     HAL3     0.900000E-01   1.00800           0   0.00000     -0.301140E-02
      1340 MEMB     11       PMPE     H16Y     HAL3     0.900000E-01   1.00800           0   0.00000     -0.301140E-02
      1341 MEMB     11       PMPE     H16Z     HAL3     0.900000E-01   1.00800           0   0.00000     -0.301140E-02
      1342 MEMB     12       PMPE     N        NH3L    -0.300000       14.0070           0   0.00000     -0.301140E-02
      1343 MEMB     12       PMPE     HN1      HCL      0.330000       1.00800           0   0.00000     -0.301140E-02
      1344 MEMB     12       PMPE     HN2      HCL      0.330000       1.00800           0   0.00000     -0.301140E-02
      1345 MEMB     12       PMPE     HN3      HCL      0.330000       1.00800           0   0.00000     -0.301140E-02
      1346 MEMB     12       PMPE     C12      CTL2     0.130000       12.0110           0   0.00000     -0.301140E-02
      1347 MEMB     12       PMPE     H12A     HAL2     0.900000E-01   1.00800           0   0.00000     -0.301140E-02
      1348 MEMB     12       PMPE     H12B     HAL2     0.900000E-01   1.00800           0   0.00000     -0.301140E-02
      1349 MEMB     12       PMPE     C11      CTL2    -0.800000E-01   12.0110           0   0.00000     -0.301140E-02
      1350 MEMB     12       PMPE     H11A     HAL2     0.900000E-01   1.00800           0   0.00000     -0.301140E-02
      1351 MEMB     12       PMPE     H11B     HAL2     0.900000E-01   1.00800           0   0.00000     -0.301140E-02
      1352 MEMB     12       PMPE     P        PL        1.50000       30.9740           0   0.00000     -0.301140E-02
      1353 MEMB     12       PMPE     O13      O2L     -0.780000       15.9994           0   0.00000     -0.301140E-02
      1354 MEMB     12       PMPE     O14      O2L     -0.780000       15.9994           0   0.00000     -0.301140E-02
      1355 MEMB     12       PMPE     O11      OSLP    -0.570000       15.9994           0   0.00000     -0.301140E-02
      1356 MEMB     12       PMPE     O12      OSLP    -0.570000       15.9994           0   0.00000     -0.301140E-02
      1357 MEMB     12       PMPE     C1       CTL2    -0.800000E-01   12.0110           0   0.00000     -0.301140E-02
      1358 MEMB     12       PMPE     HA       HAL2     0.900000E-01   1.00800           0   0.00000     -0.301140E-02
      1359 MEMB     12       PMPE     HB       HAL2     0.900000E-01   1.00800           0   0.00000     -0.301140E-02
      1360 MEMB     12       PMPE     C2       CTL1     0.170000       12.0110           0   0.00000     -0.301140E-02
      1361 MEMB     12       PMPE     HS       HAL1     0.900000E-01   1.00800           0   0.00000     -0.301140E-02
      1362 MEMB     12       PMPE     O21      OSL     -0.490000       15.9994           0   0.00000     -0.301140E-02
      1363 MEMB     12       PMPE     C21      CL       0.900000       12.0110           0   0.00000     -0.301140E-02
      1364 MEMB     12       PMPE     O22      OBL     -0.630000       15.9994           0   0.00000     -0.301140E-02
      1365 MEMB     12       PMPE     C22      CTL2    -0.220000       12.0110           0   0.00000     -0.301140E-02
      1366 MEMB     12       PMPE     H2R      HAL2     0.900000E-01   1.00800           0   0.00000     -0.301140E-02
      1367 MEMB     12       PMPE     H2S      HAL2     0.900000E-01   1.00800           0   0.00000     -0.301140E-02
      1368 MEMB     12       PMPE     C3       CTL2     0.800000E-01   12.0110           0   0.00000     -0.301140E-02
      1369 MEMB     12       PMPE     HX       HAL2     0.900000E-01   1.00800           0   0.00000     -0.301140E-02
      1370 MEMB     12       PMPE     HY       HAL2     0.900000E-01   1.00800           0   0.00000     -0.301140E-02
      1371 MEMB     12       PMPE     O31      OSL     -0.490000       15.9994           0   0.00000     -0.301140E-02
      1372 MEMB     12       PMPE     C31      CL       0.900000       12.0110           0   0.00000     -0.301140E-02
      1373 MEMB     12       PMPE     O32      OBL     -0.630000       15.9994           0   0.00000     -0.301140E-02
      1374 MEMB     12       PMPE     C32      CTL2    -0.220000       12.0110           0   0.00000     -0.301140E-02
      1375 MEMB     12       PMPE     H2X      HAL2     0.900000E-01   1.00800           0   0.00000     -0.301140E-02
      1376 MEMB     12       PMPE     H2Y      HAL2     0.900000E-01   1.00800           0   0.00000     -0.301140E-02
      1377 MEMB     12       PMPE     C23      CTL2    -0.180000       12.0110           0   0.00000     -0.301140E-02
      1378 MEMB     12       PMPE     H3R      HAL2     0.900000E-01   1.00800           0   0.00000     -0.301140E-02
      1379 MEMB     12       PMPE     H3S      HAL2     0.900000E-01   1.00800           0   0.00000     -0.301140E-02
      1380 MEMB     12       PMPE     C24      CTL2    -0.180000       12.0110           0   0.00000     -0.301140E-02
      1381 MEMB     12       PMPE     H4R      HAL2     0.900000E-01   1.00800           0   0.00000     -0.301140E-02
      1382 MEMB     12       PMPE     H4S      HAL2     0.900000E-01   1.00800           0   0.00000     -0.301140E-02
      1383 MEMB     12       PMPE     C25      CTL2    -0.180000       12.0110           0   0.00000     -0.301140E-02
      1384 MEMB     12       PMPE     H5R      HAL2     0.900000E-01   1.00800           0   0.00000     -0.301140E-02
      1385 MEMB     12       PMPE     H5S      HAL2     0.900000E-01   1.00800           0   0.00000     -0.301140E-02
      1386 MEMB     12       PMPE     C26      CTL2    -0.180000       12.0110           0   0.00000     -0.301140E-02
      1387 MEMB     12       PMPE     H6R      HAL2     0.900000E-01   1.00800           0   0.00000     -0.301140E-02
      1388 MEMB     12       PMPE     H6S      HAL2     0.900000E-01   1.00800           0   0.00000     -0.301140E-02
      1389 MEMB     12       PMPE     C27      CTL2    -0.180000       12.0110           0   0.00000     -0.301140E-02
      1390 MEMB     12       PMPE     H7R      HAL2     0.900000E-01   1.00800           0   0.00000     -0.301140E-02
      1391 MEMB     12       PMPE     H7S      HAL2     0.900000E-01   1.00800           0   0.00000     -0.301140E-02
      1392 MEMB     12       PMPE     C28      CTL2    -0.180000       12.0110           0   0.00000     -0.301140E-02
      1393 MEMB     12       PMPE     H8R      HAL2     0.900000E-01   1.00800           0   0.00000     -0.301140E-02
      1394 MEMB     12       PMPE     H8S      HAL2     0.900000E-01   1.00800           0   0.00000     -0.301140E-02
      1395 MEMB     12       PMPE     C29      CG3RC1  -0.900000E-01   12.0110           0   0.00000     -0.301140E-02
      1396 MEMB     12       PMPE     H9R      HGA1     0.900000E-01   1.00800           0   0.00000     -0.301140E-02
      1397 MEMB     12       PMPE     C217     CG3C31  -0.180000       12.0110           0   0.00000     -0.301140E-02
      1398 MEMB     12       PMPE     H17R     HGA2     0.900000E-01   1.00800           0   0.00000     -0.301140E-02
      1399 MEMB     12       PMPE     H17S     HGA2     0.900000E-01   1.00800           0   0.00000     -0.301140E-02
      1400 MEMB     12       PMPE     C210     CG3RC1  -0.900000E-01   12.0110           0   0.00000     -0.301140E-02
      1401 MEMB     12       PMPE     H10R     HGA1     0.900000E-01   1.00800           0   0.00000     -0.301140E-02
      1402 MEMB     12       PMPE     C211     CTL2    -0.180000       12.0110           0   0.00000     -0.301140E-02
      1403 MEMB     12       PMPE     H11R     HAL2     0.900000E-01   1.00800           0   0.00000     -0.301140E-02
      1404 MEMB     12       PMPE     H11S     HAL2     0.900000E-01   1.00800           0   0.00000     -0.301140E-02
      1405 MEMB     12       PMPE     C212     CTL2    -0.180000       12.0110           0   0.00000     -0.301140E-02
      1406 MEMB     12       PMPE     H12R     HAL2     0.900000E-01   1.00800           0   0.00000     -0.301140E-02
      1407 MEMB     12       PMPE     H12S     HAL2     0.900000E-01   1.00800           0   0.00000     -0.301140E-02
      1408 MEMB     12       PMPE     C213     CTL2    -0.180000       12.0110           0   0.00000     -0.301140E-02
      1409 MEMB     12       PMPE     H13R     HAL2     0.900000E-01   1.00800           0   0.00000     -0.301140E-02
      1410 MEMB     12       PMPE     H13S     HAL2     0.900000E-01   1.00800           0   0.00000     -0.301140E-02
      1411 MEMB     12       PMPE     C214     CTL2    -0.180000       12.0110           0   0.00000     -0.301140E-02
      1412 MEMB     12       PMPE     H14R     HAL2     0.900000E-01   1.00800           0   0.00000     -0.301140E-02
      1413 MEMB     12       PMPE     H14S     HAL2     0.900000E-01   1.00800           0   0.00000     -0.301140E-02
      1414 MEMB     12       PMPE     C215     CTL2    -0.180000       12.0110           0   0.00000     -0.301140E-02
      1415 MEMB     12       PMPE     H15R     HAL2     0.900000E-01   1.00800           0   0.00000     -0.301140E-02
      1416 MEMB     12       PMPE     H15S     HAL2     0.900000E-01   1.00800           0   0.00000     -0.301140E-02
      1417 MEMB     12       PMPE     C216     CTL3    -0.270000       12.0110           0   0.00000     -0.301140E-02
      1418 MEMB     12       PMPE     H16R     HAL3     0.900000E-01   1.00800           0   0.00000     -0.301140E-02
      1419 MEMB     12       PMPE     H16S     HAL3     0.900000E-01   1.00800           0   0.00000     -0.301140E-02
      1420 MEMB     12       PMPE     H16T     HAL3     0.900000E-01   1.00800           0   0.00000     -0.301140E-02
      1421 MEMB     12       PMPE     C33      CTL2    -0.180000       12.0110           0   0.00000     -0.301140E-02
      1422 MEMB     12       PMPE     H3X      HAL2     0.900000E-01   1.00800           0   0.00000     -0.301140E-02
      1423 MEMB     12       PMPE     H3Y      HAL2     0.900000E-01   1.00800           0   0.00000     -0.301140E-02
      1424 MEMB     12       PMPE     C34      CTL2    -0.180000       12.0110           0   0.00000     -0.301140E-02
      1425 MEMB     12       PMPE     H4X      HAL2     0.900000E-01   1.00800           0   0.00000     -0.301140E-02
      1426 MEMB     12       PMPE     H4Y      HAL2     0.900000E-01   1.00800           0   0.00000     -0.301140E-02
      1427 MEMB     12       PMPE     C35      CTL2    -0.180000       12.0110           0   0.00000     -0.301140E-02
      1428 MEMB     12       PMPE     H5X      HAL2     0.900000E-01   1.00800           0   0.00000     -0.301140E-02
      1429 MEMB     12       PMPE     H5Y      HAL2     0.900000E-01   1.00800           0   0.00000     -0.301140E-02
      1430 MEMB     12       PMPE     C36      CTL2    -0.180000       12.0110           0   0.00000     -0.301140E-02
      1431 MEMB     12       PMPE     H6X      HAL2     0.900000E-01   1.00800           0   0.00000     -0.301140E-02
      1432 MEMB     12       PMPE     H6Y      HAL2     0.900000E-01   1.00800           0   0.00000     -0.301140E-02
      1433 MEMB     12       PMPE     C37      CTL2    -0.180000       12.0110           0   0.00000     -0.301140E-02
      1434 MEMB     12       PMPE     H7X      HAL2     0.900000E-01   1.00800           0   0.00000     -0.301140E-02
      1435 MEMB     12       PMPE     H7Y      HAL2     0.900000E-01   1.00800           0   0.00000     -0.301140E-02
      1436 MEMB     12       PMPE     C38      CTL2    -0.180000       12.0110           0   0.00000     -0.301140E-02
      1437 MEMB     12       PMPE     H8X      HAL2     0.900000E-01   1.00800           0   0.00000     -0.301140E-02
      1438 MEMB     12       PMPE     H8Y      HAL2     0.900000E-01   1.00800           0   0.00000     -0.301140E-02
      1439 MEMB     12       PMPE     C39      CTL2    -0.180000       12.0110           0   0.00000     -0.301140E-02
      1440 MEMB     12       PMPE     H9X      HAL2     0.900000E-01   1.00800           0   0.00000     -0.301140E-02
      1441 MEMB     12       PMPE     H9Y      HAL2     0.900000E-01   1.00800           0   0.00000     -0.301140E-02
      1442 MEMB     12       PMPE     C310     CTL2    -0.180000       12.0110           0   0.00000     -0.301140E-02
      1443 MEMB     12       PMPE     H10X     HAL2     0.900000E-01   1.00800           0   0.00000     -0.301140E-02
      1444 MEMB     12       PMPE     H10Y     HAL2     0.900000E-01   1.00800           0   0.00000     -0.301140E-02
      1445 MEMB     12       PMPE     C311     CTL2    -0.180000       12.0110           0   0.00000     -0.301140E-02
      1446 MEMB     12       PMPE     H11X     HAL2     0.900000E-01   1.00800           0   0.00000     -0.301140E-02
      1447 MEMB     12       PMPE     H11Y     HAL2     0.900000E-01   1.00800           0   0.00000     -0.301140E-02
      1448 MEMB     12       PMPE     C312     CTL2    -0.180000       12.0110           0   0.00000     -0.301140E-02
      1449 MEMB     12       PMPE     H12X     HAL2     0.900000E-01   1.00800           0   0.00000     -0.301140E-02
      1450 MEMB     12       PMPE     H12Y     HAL2     0.900000E-01   1.00800           0   0.00000     -0.301140E-02
      1451 MEMB     12       PMPE     C313     CTL2    -0.180000       12.0110           0   0.00000     -0.301140E-02
      1452 MEMB     12       PMPE     H13X     HAL2     0.900000E-01   1.00800           0   0.00000     -0.301140E-02
      1453 MEMB     12       PMPE     H13Y     HAL2     0.900000E-01   1.00800           0   0.00000     -0.301140E-02
      1454 MEMB     12       PMPE     C314     CTL2    -0.180000       12.0110           0   0.00000     -0.301140E-02
      1455 MEMB     12       PMPE     H14X     HAL2     0.900000E-01   1.00800           0   0.00000     -0.301140E-02
      1456 MEMB     12       PMPE     H14Y     HAL2     0.900000E-01   1.00800           0   0.00000     -0.301140E-02
      1457 MEMB     12       PMPE     C315     CTL2    -0.180000       12.0110           0   0.00000     -0.301140E-02
      1458 MEMB     12       PMPE     H15X     HAL2     0.900000E-01   1.00800           0   0.00000     -0.301140E-02
      1459 MEMB     12       PMPE     H15Y     HAL2     0.900000E-01   1.00800           0   0.00000     -0.301140E-02
      1460 MEMB     12       PMPE     C316     CTL3    -0.270000       12.0110           0   0.00000     -0.301140E-02
      1461 MEMB     12       PMPE     H16X     HAL3     0.900000E-01   1.00800           0   0.00000     -0.301140E-02
      1462 MEMB     12       PMPE     H16Y     HAL3     0.900000E-01   1.00800           0   0.00000     -0.301140E-02
      1463 MEMB     12       PMPE     H16Z     HAL3     0.900000E-01   1.00800           0   0.00000     -0.301140E-02
      1464 MEMB     13       POPE     N        NH3L    -0.300000       14.0070           0   0.00000     -0.301140E-02
      1465 MEMB     13       POPE     HN1      HCL      0.330000       1.00800           0   0.00000     -0.301140E-02
      1466 MEMB     13       POPE     HN2      HCL      0.330000       1.00800           0   0.00000     -0.301140E-02
      1467 MEMB     13       POPE     HN3      HCL      0.330000       1.00800           0   0.00000     -0.301140E-02
      1468 MEMB     13       POPE     C12      CTL2     0.130000       12.0110           0   0.00000     -0.301140E-02
      1469 MEMB     13       POPE     H12A     HAL2     0.900000E-01   1.00800           0   0.00000     -0.301140E-02
      1470 MEMB     13       POPE     H12B     HAL2     0.900000E-01   1.00800           0   0.00000     -0.301140E-02
      1471 MEMB     13       POPE     C11      CTL2    -0.800000E-01   12.0110           0   0.00000     -0.301140E-02
      1472 MEMB     13       POPE     H11A     HAL2     0.900000E-01   1.00800           0   0.00000     -0.301140E-02
      1473 MEMB     13       POPE     H11B     HAL2     0.900000E-01   1.00800           0   0.00000     -0.301140E-02
      1474 MEMB     13       POPE     P        PL        1.50000       30.9740           0   0.00000     -0.301140E-02
      1475 MEMB     13       POPE     O13      O2L     -0.780000       15.9994           0   0.00000     -0.301140E-02
      1476 MEMB     13       POPE     O14      O2L     -0.780000       15.9994           0   0.00000     -0.301140E-02
      1477 MEMB     13       POPE     O11      OSLP    -0.570000       15.9994           0   0.00000     -0.301140E-02
      1478 MEMB     13       POPE     O12      OSLP    -0.570000       15.9994           0   0.00000     -0.301140E-02
      1479 MEMB     13       POPE     C1       CTL2    -0.800000E-01   12.0110           0   0.00000     -0.301140E-02
      1480 MEMB     13       POPE     HA       HAL2     0.900000E-01   1.00800           0   0.00000     -0.301140E-02
      1481 MEMB     13       POPE     HB       HAL2     0.900000E-01   1.00800           0   0.00000     -0.301140E-02
      1482 MEMB     13       POPE     C2       CTL1     0.170000       12.0110           0   0.00000     -0.301140E-02
      1483 MEMB     13       POPE     HS       HAL1     0.900000E-01   1.00800           0   0.00000     -0.301140E-02
      1484 MEMB     13       POPE     O21      OSL     -0.490000       15.9994           0   0.00000     -0.301140E-02
      1485 MEMB     13       POPE     C21      CL       0.900000       12.0110           0   0.00000     -0.301140E-02
      1486 MEMB     13       POPE     O22      OBL     -0.630000       15.9994           0   0.00000     -0.301140E-02
      1487 MEMB     13       POPE     C22      CTL2    -0.220000       12.0110           0   0.00000     -0.301140E-02
      1488 MEMB     13       POPE     H2R      HAL2     0.900000E-01   1.00800           0   0.00000     -0.301140E-02
      1489 MEMB     13       POPE     H2S      HAL2     0.900000E-01   1.00800           0   0.00000     -0.301140E-02
      1490 MEMB     13       POPE     C3       CTL2     0.800000E-01   12.0110           0   0.00000     -0.301140E-02
      1491 MEMB     13       POPE     HX       HAL2     0.900000E-01   1.00800           0   0.00000     -0.301140E-02
      1492 MEMB     13       POPE     HY       HAL2     0.900000E-01   1.00800           0   0.00000     -0.301140E-02
      1493 MEMB     13       POPE     O31      OSL     -0.490000       15.9994           0   0.00000     -0.301140E-02
      1494 MEMB     13       POPE     C31      CL       0.900000       12.0110           0   0.00000     -0.301140E-02
      1495 MEMB     13       POPE     O32      OBL     -0.630000       15.9994           0   0.00000     -0.301140E-02
      1496 MEMB     13       POPE     C32      CTL2    -0.220000       12.0110           0   0.00000     -0.301140E-02
      1497 MEMB     13       POPE     H2X      HAL2     0.900000E-01   1.00800           0   0.00000     -0.301140E-02
      1498 MEMB     13       POPE     H2Y      HAL2     0.900000E-01   1.00800           0   0.00000     -0.301140E-02
      1499 MEMB     13       POPE     C23      CTL2    -0.180000       12.0110           0   0.00000     -0.301140E-02
      1500 MEMB     13       POPE     H3R      HAL2     0.900000E-01   1.00800           0   0.00000     -0.301140E-02
      1501 MEMB     13       POPE     H3S      HAL2     0.900000E-01   1.00800           0   0.00000     -0.301140E-02
      1502 MEMB     13       POPE     C24      CTL2    -0.180000       12.0110           0   0.00000     -0.301140E-02
      1503 MEMB     13       POPE     H4R      HAL2     0.900000E-01   1.00800           0   0.00000     -0.301140E-02
      1504 MEMB     13       POPE     H4S      HAL2     0.900000E-01   1.00800           0   0.00000     -0.301140E-02
      1505 MEMB     13       POPE     C25      CTL2    -0.180000       12.0110           0   0.00000     -0.301140E-02
      1506 MEMB     13       POPE     H5R      HAL2     0.900000E-01   1.00800           0   0.00000     -0.301140E-02
      1507 MEMB     13       POPE     H5S      HAL2     0.900000E-01   1.00800           0   0.00000     -0.301140E-02
      1508 MEMB     13       POPE     C26      CTL2    -0.180000       12.0110           0   0.00000     -0.301140E-02
      1509 MEMB     13       POPE     H6R      HAL2     0.900000E-01   1.00800           0   0.00000     -0.301140E-02
      1510 MEMB     13       POPE     H6S      HAL2     0.900000E-01   1.00800           0   0.00000     -0.301140E-02
      1511 MEMB     13       POPE     C27      CTL2    -0.180000       12.0110           0   0.00000     -0.301140E-02
      1512 MEMB     13       POPE     H7R      HAL2     0.900000E-01   1.00800           0   0.00000     -0.301140E-02
      1513 MEMB     13       POPE     H7S      HAL2     0.900000E-01   1.00800           0   0.00000     -0.301140E-02
      1514 MEMB     13       POPE     C28      CTL2    -0.180000       12.0110           0   0.00000     -0.301140E-02
      1515 MEMB     13       POPE     H8R      HAL2     0.900000E-01   1.00800           0   0.00000     -0.301140E-02
      1516 MEMB     13       POPE     H8S      HAL2     0.900000E-01   1.00800           0   0.00000     -0.301140E-02
      1517 MEMB     13       POPE     C29      CEL1    -0.150000       12.0110           0   0.00000     -0.301140E-02
      1518 MEMB     13       POPE     H91      HEL1     0.150000       1.00800           0   0.00000     -0.301140E-02
      1519 MEMB     13       POPE     C210     CEL1    -0.150000       12.0110           0   0.00000     -0.301140E-02
      1520 MEMB     13       POPE     H101     HEL1     0.150000       1.00800           0   0.00000     -0.301140E-02
      1521 MEMB     13       POPE     C211     CTL2    -0.180000       12.0110           0   0.00000     -0.301140E-02
      1522 MEMB     13       POPE     H11R     HAL2     0.900000E-01   1.00800           0   0.00000     -0.301140E-02
      1523 MEMB     13       POPE     H11S     HAL2     0.900000E-01   1.00800           0   0.00000     -0.301140E-02
      1524 MEMB     13       POPE     C212     CTL2    -0.180000       12.0110           0   0.00000     -0.301140E-02
      1525 MEMB     13       POPE     H12R     HAL2     0.900000E-01   1.00800           0   0.00000     -0.301140E-02
      1526 MEMB     13       POPE     H12S     HAL2     0.900000E-01   1.00800           0   0.00000     -0.301140E-02
      1527 MEMB     13       POPE     C213     CTL2    -0.180000       12.0110           0   0.00000     -0.301140E-02
      1528 MEMB     13       POPE     H13R     HAL2     0.900000E-01   1.00800           0   0.00000     -0.301140E-02
      1529 MEMB     13       POPE     H13S     HAL2     0.900000E-01   1.00800           0   0.00000     -0.301140E-02
      1530 MEMB     13       POPE     C214     CTL2    -0.180000       12.0110           0   0.00000     -0.301140E-02
      1531 MEMB     13       POPE     H14R     HAL2     0.900000E-01   1.00800           0   0.00000     -0.301140E-02
      1532 MEMB     13       POPE     H14S     HAL2     0.900000E-01   1.00800           0   0.00000     -0.301140E-02
      1533 MEMB     13       POPE     C215     CTL2    -0.180000       12.0110           0   0.00000     -0.301140E-02
      1534 MEMB     13       POPE     H15R     HAL2     0.900000E-01   1.00800           0   0.00000     -0.301140E-02
      1535 MEMB     13       POPE     H15S     HAL2     0.900000E-01   1.00800           0   0.00000     -0.301140E-02
      1536 MEMB     13       POPE     C216     CTL2    -0.180000       12.0110           0   0.00000     -0.301140E-02
      1537 MEMB     13       POPE     H16R     HAL2     0.900000E-01   1.00800           0   0.00000     -0.301140E-02
      1538 MEMB     13       POPE     H16S     HAL2     0.900000E-01   1.00800           0   0.00000     -0.301140E-02
      1539 MEMB     13       POPE     C217     CTL2    -0.180000       12.0110           0   0.00000     -0.301140E-02
      1540 MEMB     13       POPE     H17R     HAL2     0.900000E-01   1.00800           0   0.00000     -0.301140E-02
      1541 MEMB     13       POPE     H17S     HAL2     0.900000E-01   1.00800           0   0.00000     -0.301140E-02
      1542 MEMB     13       POPE     C218     CTL3    -0.270000       12.0110           0   0.00000     -0.301140E-02
      1543 MEMB     13       POPE     H18R     HAL3     0.900000E-01   1.00800           0   0.00000     -0.301140E-02
      1544 MEMB     13       POPE     H18S     HAL3     0.900000E-01   1.00800           0   0.00000     -0.301140E-02
      1545 MEMB     13       POPE     H18T     HAL3     0.900000E-01   1.00800           0   0.00000     -0.301140E-02
      1546 MEMB     13       POPE     C33      CTL2    -0.180000       12.0110           0   0.00000     -0.301140E-02
      1547 MEMB     13       POPE     H3X      HAL2     0.900000E-01   1.00800           0   0.00000     -0.301140E-02
      1548 MEMB     13       POPE     H3Y      HAL2     0.900000E-01   1.00800           0   0.00000     -0.301140E-02
      1549 MEMB     13       POPE     C34      CTL2    -0.180000       12.0110           0   0.00000     -0.301140E-02
      1550 MEMB     13       POPE     H4X      HAL2     0.900000E-01   1.00800           0   0.00000     -0.301140E-02
      1551 MEMB     13       POPE     H4Y      HAL2     0.900000E-01   1.00800           0   0.00000     -0.301140E-02
      1552 MEMB     13       POPE     C35      CTL2    -0.180000       12.0110           0   0.00000     -0.301140E-02
      1553 MEMB     13       POPE     H5X      HAL2     0.900000E-01   1.00800           0   0.00000     -0.301140E-02
      1554 MEMB     13       POPE     H5Y      HAL2     0.900000E-01   1.00800           0   0.00000     -0.301140E-02
      1555 MEMB     13       POPE     C36      CTL2    -0.180000       12.0110           0   0.00000     -0.301140E-02
      1556 MEMB     13       POPE     H6X      HAL2     0.900000E-01   1.00800           0   0.00000     -0.301140E-02
      1557 MEMB     13       POPE     H6Y      HAL2     0.900000E-01   1.00800           0   0.00000     -0.301140E-02
      1558 MEMB     13       POPE     C37      CTL2    -0.180000       12.0110           0   0.00000     -0.301140E-02
      1559 MEMB     13       POPE     H7X      HAL2     0.900000E-01   1.00800           0   0.00000     -0.301140E-02
      1560 MEMB     13       POPE     H7Y      HAL2     0.900000E-01   1.00800           0   0.00000     -0.301140E-02
      1561 MEMB     13       POPE     C38      CTL2    -0.180000       12.0110           0   0.00000     -0.301140E-02
      1562 MEMB     13       POPE     H8X      HAL2     0.900000E-01   1.00800           0   0.00000     -0.301140E-02
      1563 MEMB     13       POPE     H8Y      HAL2     0.900000E-01   1.00800           0   0.00000     -0.301140E-02
      1564 MEMB     13       POPE     C39      CTL2    -0.180000       12.0110           0   0.00000     -0.301140E-02
      1565 MEMB     13       POPE     H9X      HAL2     0.900000E-01   1.00800           0   0.00000     -0.301140E-02
      1566 MEMB     13       POPE     H9Y      HAL2     0.900000E-01   1.00800           0   0.00000     -0.301140E-02
      1567 MEMB     13       POPE     C310     CTL2    -0.180000       12.0110           0   0.00000     -0.301140E-02
      1568 MEMB     13       POPE     H10X     HAL2     0.900000E-01   1.00800           0   0.00000     -0.301140E-02
      1569 MEMB     13       POPE     H10Y     HAL2     0.900000E-01   1.00800           0   0.00000     -0.301140E-02
      1570 MEMB     13       POPE     C311     CTL2    -0.180000       12.0110           0   0.00000     -0.301140E-02
      1571 MEMB     13       POPE     H11X     HAL2     0.900000E-01   1.00800           0   0.00000     -0.301140E-02
      1572 MEMB     13       POPE     H11Y     HAL2     0.900000E-01   1.00800           0   0.00000     -0.301140E-02
      1573 MEMB     13       POPE     C312     CTL2    -0.180000       12.0110           0   0.00000     -0.301140E-02
      1574 MEMB     13       POPE     H12X     HAL2     0.900000E-01   1.00800           0   0.00000     -0.301140E-02
      1575 MEMB     13       POPE     H12Y     HAL2     0.900000E-01   1.00800           0   0.00000     -0.301140E-02
      1576 MEMB     13       POPE     C313     CTL2    -0.180000       12.0110           0   0.00000     -0.301140E-02
      1577 MEMB     13       POPE     H13X     HAL2     0.900000E-01   1.00800           0   0.00000     -0.301140E-02
      1578 MEMB     13       POPE     H13Y     HAL2     0.900000E-01   1.00800           0   0.00000     -0.301140E-02
      1579 MEMB     13       POPE     C314     CTL2    -0.180000       12.0110           0   0.00000     -0.301140E-02
      1580 MEMB     13       POPE     H14X     HAL2     0.900000E-01   1.00800           0   0.00000     -0.301140E-02
      1581 MEMB     13       POPE     H14Y     HAL2     0.900000E-01   1.00800           0   0.00000     -0.301140E-02
      1582 MEMB     13       POPE     C315     CTL2    -0.180000       12.0110           0   0.00000     -0.301140E-02
      1583 MEMB     13       POPE     H15X     HAL2     0.900000E-01   1.00800           0   0.00000     -0.301140E-02
      1584 MEMB     13       POPE     H15Y     HAL2     0.900000E-01   1.00800           0   0.00000     -0.301140E-02
      1585 MEMB     13       POPE     C316     CTL3    -0.270000       12.0110           0   0.00000     -0.301140E-02
      1586 MEMB     13       POPE     H16X     HAL3     0.900000E-01   1.00800           0   0.00000     -0.301140E-02
      1587 MEMB     13       POPE     H16Y     HAL3     0.900000E-01   1.00800           0   0.00000     -0.301140E-02
      1588 MEMB     13       POPE     H16Z     HAL3     0.900000E-01   1.00800           0   0.00000     -0.301140E-02
      1589 MEMB     14       PMPE     N        NH3L    -0.300000       14.0070           0   0.00000     -0.301140E-02
      1590 MEMB     14       PMPE     HN1      HCL      0.330000       1.00800           0   0.00000     -0.301140E-02
      1591 MEMB     14       PMPE     HN2      HCL      0.330000       1.00800           0   0.00000     -0.301140E-02
      1592 MEMB     14       PMPE     HN3      HCL      0.330000       1.00800           0   0.00000     -0.301140E-02
      1593 MEMB     14       PMPE     C12      CTL2     0.130000       12.0110           0   0.00000     -0.301140E-02
      1594 MEMB     14       PMPE     H12A     HAL2     0.900000E-01   1.00800           0   0.00000     -0.301140E-02
      1595 MEMB     14       PMPE     H12B     HAL2     0.900000E-01   1.00800           0   0.00000     -0.301140E-02
      1596 MEMB     14       PMPE     C11      CTL2    -0.800000E-01   12.0110           0   0.00000     -0.301140E-02
      1597 MEMB     14       PMPE     H11A     HAL2     0.900000E-01   1.00800           0   0.00000     -0.301140E-02
      1598 MEMB     14       PMPE     H11B     HAL2     0.900000E-01   1.00800           0   0.00000     -0.301140E-02
      1599 MEMB     14       PMPE     P        PL        1.50000       30.9740           0   0.00000     -0.301140E-02
      1600 MEMB     14       PMPE     O13      O2L     -0.780000       15.9994           0   0.00000     -0.301140E-02
      1601 MEMB     14       PMPE     O14      O2L     -0.780000       15.9994           0   0.00000     -0.301140E-02
      1602 MEMB     14       PMPE     O11      OSLP    -0.570000       15.9994           0   0.00000     -0.301140E-02
      1603 MEMB     14       PMPE     O12      OSLP    -0.570000       15.9994           0   0.00000     -0.301140E-02
      1604 MEMB     14       PMPE     C1       CTL2    -0.800000E-01   12.0110           0   0.00000     -0.301140E-02
      1605 MEMB     14       PMPE     HA       HAL2     0.900000E-01   1.00800           0   0.00000     -0.301140E-02
      1606 MEMB     14       PMPE     HB       HAL2     0.900000E-01   1.00800           0   0.00000     -0.301140E-02
      1607 MEMB     14       PMPE     C2       CTL1     0.170000       12.0110           0   0.00000     -0.301140E-02
      1608 MEMB     14       PMPE     HS       HAL1     0.900000E-01   1.00800           0   0.00000     -0.301140E-02
      1609 MEMB     14       PMPE     O21      OSL     -0.490000       15.9994           0   0.00000     -0.301140E-02
      1610 MEMB     14       PMPE     C21      CL       0.900000       12.0110           0   0.00000     -0.301140E-02
      1611 MEMB     14       PMPE     O22      OBL     -0.630000       15.9994           0   0.00000     -0.301140E-02
      1612 MEMB     14       PMPE     C22      CTL2    -0.220000       12.0110           0   0.00000     -0.301140E-02
      1613 MEMB     14       PMPE     H2R      HAL2     0.900000E-01   1.00800           0   0.00000     -0.301140E-02
      1614 MEMB     14       PMPE     H2S      HAL2     0.900000E-01   1.00800           0   0.00000     -0.301140E-02
      1615 MEMB     14       PMPE     C3       CTL2     0.800000E-01   12.0110           0   0.00000     -0.301140E-02
      1616 MEMB     14       PMPE     HX       HAL2     0.900000E-01   1.00800           0   0.00000     -0.301140E-02
      1617 MEMB     14       PMPE     HY       HAL2     0.900000E-01   1.00800           0   0.00000     -0.301140E-02
      1618 MEMB     14       PMPE     O31      OSL     -0.490000       15.9994           0   0.00000     -0.301140E-02
      1619 MEMB     14       PMPE     C31      CL       0.900000       12.0110           0   0.00000     -0.301140E-02
      1620 MEMB     14       PMPE     O32      OBL     -0.630000       15.9994           0   0.00000     -0.301140E-02
      1621 MEMB     14       PMPE     C32      CTL2    -0.220000       12.0110           0   0.00000     -0.301140E-02
      1622 MEMB     14       PMPE     H2X      HAL2     0.900000E-01   1.00800           0   0.00000     -0.301140E-02
      1623 MEMB     14       PMPE     H2Y      HAL2     0.900000E-01   1.00800           0   0.00000     -0.301140E-02
      1624 MEMB     14       PMPE     C23      CTL2    -0.180000       12.0110           0   0.00000     -0.301140E-02
      1625 MEMB     14       PMPE     H3R      HAL2     0.900000E-01   1.00800           0   0.00000     -0.301140E-02
      1626 MEMB     14       PMPE     H3S      HAL2     0.900000E-01   1.00800           0   0.00000     -0.301140E-02
      1627 MEMB     14       PMPE     C24      CTL2    -0.180000       12.0110           0   0.00000     -0.301140E-02
      1628 MEMB     14       PMPE     H4R      HAL2     0.900000E-01   1.00800           0   0.00000     -0.301140E-02
      1629 MEMB     14       PMPE     H4S      HAL2     0.900000E-01   1.00800           0   0.00000     -0.301140E-02
      1630 MEMB     14       PMPE     C25      CTL2    -0.180000       12.0110           0   0.00000     -0.301140E-02
      1631 MEMB     14       PMPE     H5R      HAL2     0.900000E-01   1.00800           0   0.00000     -0.301140E-02
      1632 MEMB     14       PMPE     H5S      HAL2     0.900000E-01   1.00800           0   0.00000     -0.301140E-02
      1633 MEMB     14       PMPE     C26      CTL2    -0.180000       12.0110           0   0.00000     -0.301140E-02
      1634 MEMB     14       PMPE     H6R      HAL2     0.900000E-01   1.00800           0   0.00000     -0.301140E-02
      1635 MEMB     14       PMPE     H6S      HAL2     0.900000E-01   1.00800           0   0.00000     -0.301140E-02
      1636 MEMB     14       PMPE     C27      CTL2    -0.180000       12.0110           0   0.00000     -0.301140E-02
      1637 MEMB     14       PMPE     H7R      HAL2     0.900000E-01   1.00800           0   0.00000     -0.301140E-02
      1638 MEMB     14       PMPE     H7S      HAL2     0.900000E-01   1.00800           0   0.00000     -0.301140E-02
      1639 MEMB     14       PMPE     C28      CTL2    -0.180000       12.0110           0   0.00000     -0.301140E-02
      1640 MEMB     14       PMPE     H8R      HAL2     0.900000E-01   1.00800           0   0.00000     -0.301140E-02
      1641 MEMB     14       PMPE     H8S      HAL2     0.900000E-01   1.00800           0   0.00000     -0.301140E-02
      1642 MEMB     14       PMPE     C29      CG3RC1  -0.900000E-01   12.0110           0   0.00000     -0.301140E-02
      1643 MEMB     14       PMPE     H9R      HGA1     0.900000E-01   1.00800           0   0.00000     -0.301140E-02
      1644 MEMB     14       PMPE     C217     CG3C31  -0.180000       12.0110           0   0.00000     -0.301140E-02
      1645 MEMB     14       PMPE     H17R     HGA2     0.900000E-01   1.00800           0   0.00000     -0.301140E-02
      1646 MEMB     14       PMPE     H17S     HGA2     0.900000E-01   1.00800           0   0.00000     -0.301140E-02
      1647 MEMB     14       PMPE     C210     CG3RC1  -0.900000E-01   12.0110           0   0.00000     -0.301140E-02
      1648 MEMB     14       PMPE     H10R     HGA1     0.900000E-01   1.00800           0   0.00000     -0.301140E-02
      1649 MEMB     14       PMPE     C211     CTL2    -0.180000       12.0110           0   0.00000     -0.301140E-02
      1650 MEMB     14       PMPE     H11R     HAL2     0.900000E-01   1.00800           0   0.00000     -0.301140E-02
      1651 MEMB     14       PMPE     H11S     HAL2     0.900000E-01   1.00800           0   0.00000     -0.301140E-02
      1652 MEMB     14       PMPE     C212     CTL2    -0.180000       12.0110           0   0.00000     -0.301140E-02
      1653 MEMB     14       PMPE     H12R     HAL2     0.900000E-01   1.00800           0   0.00000     -0.301140E-02
      1654 MEMB     14       PMPE     H12S     HAL2     0.900000E-01   1.00800           0   0.00000     -0.301140E-02
      1655 MEMB     14       PMPE     C213     CTL2    -0.180000       12.0110           0   0.00000     -0.301140E-02
      1656 MEMB     14       PMPE     H13R     HAL2     0.900000E-01   1.00800           0   0.00000     -0.301140E-02
      1657 MEMB     14       PMPE     H13S     HAL2     0.900000E-01   1.00800           0   0.00000     -0.301140E-02
      1658 MEMB     14       PMPE     C214     CTL2    -0.180000       12.0110           0   0.00000     -0.301140E-02
      1659 MEMB     14       PMPE     H14R     HAL2     0.900000E-01   1.00800           0   0.00000     -0.301140E-02
      1660 MEMB     14       PMPE     H14S     HAL2     0.900000E-01   1.00800           0   0.00000     -0.301140E-02
      1661 MEMB     14       PMPE     C215     CTL2    -0.180000       12.0110           0   0.00000     -0.301140E-02
      1662 MEMB     14       PMPE     H15R     HAL2     0.900000E-01   1.00800           0   0.00000     -0.301140E-02
      1663 MEMB     14       PMPE     H15S     HAL2     0.900000E-01   1.00800           0   0.00000     -0.301140E-02
      1664 MEMB     14       PMPE     C216     CTL3    -0.270000       12.0110           0   0.00000     -0.301140E-02
      1665 MEMB     14       PMPE     H16R     HAL3     0.900000E-01   1.00800           0   0.00000     -0.301140E-02
      1666 MEMB     14       PMPE     H16S     HAL3     0.900000E-01   1.00800           0   0.00000     -0.301140E-02
      1667 MEMB     14       PMPE     H16T     HAL3     0.900000E-01   1.00800           0   0.00000     -0.301140E-02
      1668 MEMB     14       PMPE     C33      CTL2    -0.180000       12.0110           0   0.00000     -0.301140E-02
      1669 MEMB     14       PMPE     H3X      HAL2     0.900000E-01   1.00800           0   0.00000     -0.301140E-02
      1670 MEMB     14       PMPE     H3Y      HAL2     0.900000E-01   1.00800           0   0.00000     -0.301140E-02
      1671 MEMB     14       PMPE     C34      CTL2    -0.180000       12.0110           0   0.00000     -0.301140E-02
      1672 MEMB     14       PMPE     H4X      HAL2     0.900000E-01   1.00800           0   0.00000     -0.301140E-02
      1673 MEMB     14       PMPE     H4Y      HAL2     0.900000E-01   1.00800           0   0.00000     -0.301140E-02
      1674 MEMB     14       PMPE     C35      CTL2    -0.180000       12.0110           0   0.00000     -0.301140E-02
      1675 MEMB     14       PMPE     H5X      HAL2     0.900000E-01   1.00800           0   0.00000     -0.301140E-02
      1676 MEMB     14       PMPE     H5Y      HAL2     0.900000E-01   1.00800           0   0.00000     -0.301140E-02
      1677 MEMB     14       PMPE     C36      CTL2    -0.180000       12.0110           0   0.00000     -0.301140E-02
      1678 MEMB     14       PMPE     H6X      HAL2     0.900000E-01   1.00800           0   0.00000     -0.301140E-02
      1679 MEMB     14       PMPE     H6Y      HAL2     0.900000E-01   1.00800           0   0.00000     -0.301140E-02
      1680 MEMB     14       PMPE     C37      CTL2    -0.180000       12.0110           0   0.00000     -0.301140E-02
      1681 MEMB     14       PMPE     H7X      HAL2     0.900000E-01   1.00800           0   0.00000     -0.301140E-02
      1682 MEMB     14       PMPE     H7Y      HAL2     0.900000E-01   1.00800           0   0.00000     -0.301140E-02
      1683 MEMB     14       PMPE     C38      CTL2    -0.180000       12.0110           0   0.00000     -0.301140E-02
      1684 MEMB     14       PMPE     H8X      HAL2     0.900000E-01   1.00800           0   0.00000     -0.301140E-02
      1685 MEMB     14       PMPE     H8Y      HAL2     0.900000E-01   1.00800           0   0.00000     -0.301140E-02
      1686 MEMB     14       PMPE     C39      CTL2    -0.180000       12.0110           0   0.00000     -0.301140E-02
      1687 MEMB     14       PMPE     H9X      HAL2     0.900000E-01   1.00800           0   0.00000     -0.301140E-02
      1688 MEMB     14       PMPE     H9Y      HAL2     0.900000E-01   1.00800           0   0.00000     -0.301140E-02
      1689 MEMB     14       PMPE     C310     CTL2    -0.180000       12.0110           0   0.00000     -0.301140E-02
      1690 MEMB     14       PMPE     H10X     HAL2     0.900000E-01   1.00800           0   0.00000     -0.301140E-02
      1691 MEMB     14       PMPE     H10Y     HAL2     0.900000E-01   1.00800           0   0.00000     -0.301140E-02
      1692 MEMB     14       PMPE     C311     CTL2    -0.180000       12.0110           0   0.00000     -0.301140E-02
      1693 MEMB     14       PMPE     H11X     HAL2     0.900000E-01   1.00800           0   0.00000     -0.301140E-02
      1694 MEMB     14       PMPE     H11Y     HAL2     0.900000E-01   1.00800           0   0.00000     -0.301140E-02
      1695 MEMB     14       PMPE     C312     CTL2    -0.180000       12.0110           0   0.00000     -0.301140E-02
      1696 MEMB     14       PMPE     H12X     HAL2     0.900000E-01   1.00800           0   0.00000     -0.301140E-02
      1697 MEMB     14       PMPE     H12Y     HAL2     0.900000E-01   1.00800           0   0.00000     -0.301140E-02
      1698 MEMB     14       PMPE     C313     CTL2    -0.180000       12.0110           0   0.00000     -0.301140E-02
      1699 MEMB     14       PMPE     H13X     HAL2     0.900000E-01   1.00800           0   0.00000     -0.301140E-02
      1700 MEMB     14       PMPE     H13Y     HAL2     0.900000E-01   1.00800           0   0.00000     -0.301140E-02
      1701 MEMB     14       PMPE     C314     CTL2    -0.180000       12.0110           0   0.00000     -0.301140E-02
      1702 MEMB     14       PMPE     H14X     HAL2     0.900000E-01   1.00800           0   0.00000     -0.301140E-02
      1703 MEMB     14       PMPE     H14Y     HAL2     0.900000E-01   1.00800           0   0.00000     -0.301140E-02
      1704 MEMB     14       PMPE     C315     CTL2    -0.180000       12.0110           0   0.00000     -0.301140E-02
      1705 MEMB     14       PMPE     H15X     HAL2     0.900000E-01   1.00800           0   0.00000     -0.301140E-02
      1706 MEMB     14       PMPE     H15Y     HAL2     0.900000E-01   1.00800           0   0.00000     -0.301140E-02
      1707 MEMB     14       PMPE     C316     CTL3    -0.270000       12.0110           0   0.00000     -0.301140E-02
      1708 MEMB     14       PMPE     H16X     HAL3     0.900000E-01   1.00800           0   0.00000     -0.301140E-02
      1709 MEMB     14       PMPE     H16Y     HAL3     0.900000E-01   1.00800           0   0.00000     -0.301140E-02
      1710 MEMB     14       PMPE     H16Z     HAL3     0.900000E-01   1.00800           0   0.00000     -0.301140E-02
      1711 MEMB     15       OYPE     N        NH3L    -0.300000       14.0070           0   0.00000     -0.301140E-02
      1712 MEMB     15       OYPE     HN1      HCL      0.330000       1.00800           0   0.00000     -0.301140E-02
      1713 MEMB     15       OYPE     HN2      HCL      0.330000       1.00800           0   0.00000     -0.301140E-02
      1714 MEMB     15       OYPE     HN3      HCL      0.330000       1.00800           0   0.00000     -0.301140E-02
      1715 MEMB     15       OYPE     C12      CTL2     0.130000       12.0110           0   0.00000     -0.301140E-02
      1716 MEMB     15       OYPE     H12A     HAL2     0.900000E-01   1.00800           0   0.00000     -0.301140E-02
      1717 MEMB     15       OYPE     H12B     HAL2     0.900000E-01   1.00800           0   0.00000     -0.301140E-02
      1718 MEMB     15       OYPE     C11      CTL2    -0.800000E-01   12.0110           0   0.00000     -0.301140E-02
      1719 MEMB     15       OYPE     H11A     HAL2     0.900000E-01   1.00800           0   0.00000     -0.301140E-02
      1720 MEMB     15       OYPE     H11B     HAL2     0.900000E-01   1.00800           0   0.00000     -0.301140E-02
      1721 MEMB     15       OYPE     P        PL        1.50000       30.9740           0   0.00000     -0.301140E-02
      1722 MEMB     15       OYPE     O13      O2L     -0.780000       15.9994           0   0.00000     -0.301140E-02
      1723 MEMB     15       OYPE     O14      O2L     -0.780000       15.9994           0   0.00000     -0.301140E-02
      1724 MEMB     15       OYPE     O11      OSLP    -0.570000       15.9994           0   0.00000     -0.301140E-02
      1725 MEMB     15       OYPE     O12      OSLP    -0.570000       15.9994           0   0.00000     -0.301140E-02
      1726 MEMB     15       OYPE     C1       CTL2    -0.800000E-01   12.0110           0   0.00000     -0.301140E-02
      1727 MEMB     15       OYPE     HA       HAL2     0.900000E-01   1.00800           0   0.00000     -0.301140E-02
      1728 MEMB     15       OYPE     HB       HAL2     0.900000E-01   1.00800           0   0.00000     -0.301140E-02
      1729 MEMB     15       OYPE     C2       CTL1     0.170000       12.0110           0   0.00000     -0.301140E-02
      1730 MEMB     15       OYPE     HS       HAL1     0.900000E-01   1.00800           0   0.00000     -0.301140E-02
      1731 MEMB     15       OYPE     O21      OSL     -0.490000       15.9994           0   0.00000     -0.301140E-02
      1732 MEMB     15       OYPE     C21      CL       0.900000       12.0110           0   0.00000     -0.301140E-02
      1733 MEMB     15       OYPE     O22      OBL     -0.630000       15.9994           0   0.00000     -0.301140E-02
      1734 MEMB     15       OYPE     C22      CTL2    -0.220000       12.0110           0   0.00000     -0.301140E-02
      1735 MEMB     15       OYPE     H2R      HAL2     0.900000E-01   1.00800           0   0.00000     -0.301140E-02
      1736 MEMB     15       OYPE     H2S      HAL2     0.900000E-01   1.00800           0   0.00000     -0.301140E-02
      1737 MEMB     15       OYPE     C3       CTL2     0.800000E-01   12.0110           0   0.00000     -0.301140E-02
      1738 MEMB     15       OYPE     HX       HAL2     0.900000E-01   1.00800           0   0.00000     -0.301140E-02
      1739 MEMB     15       OYPE     HY       HAL2     0.900000E-01   1.00800           0   0.00000     -0.301140E-02
      1740 MEMB     15       OYPE     O31      OSL     -0.490000       15.9994           0   0.00000     -0.301140E-02
      1741 MEMB     15       OYPE     C31      CL       0.900000       12.0110           0   0.00000     -0.301140E-02
      1742 MEMB     15       OYPE     O32      OBL     -0.630000       15.9994           0   0.00000     -0.301140E-02
      1743 MEMB     15       OYPE     C32      CTL2    -0.220000       12.0110           0   0.00000     -0.301140E-02
      1744 MEMB     15       OYPE     H2X      HAL2     0.900000E-01   1.00800           0   0.00000     -0.301140E-02
      1745 MEMB     15       OYPE     H2Y      HAL2     0.900000E-01   1.00800           0   0.00000     -0.301140E-02
      1746 MEMB     15       OYPE     C23      CTL2    -0.180000       12.0110           0   0.00000     -0.301140E-02
      1747 MEMB     15       OYPE     H3R      HAL2     0.900000E-01   1.00800           0   0.00000     -0.301140E-02
      1748 MEMB     15       OYPE     H3S      HAL2     0.900000E-01   1.00800           0   0.00000     -0.301140E-02
      1749 MEMB     15       OYPE     C24      CTL2    -0.180000       12.0110           0   0.00000     -0.301140E-02
      1750 MEMB     15       OYPE     H4R      HAL2     0.900000E-01   1.00800           0   0.00000     -0.301140E-02
      1751 MEMB     15       OYPE     H4S      HAL2     0.900000E-01   1.00800           0   0.00000     -0.301140E-02
      1752 MEMB     15       OYPE     C25      CTL2    -0.180000       12.0110           0   0.00000     -0.301140E-02
      1753 MEMB     15       OYPE     H5R      HAL2     0.900000E-01   1.00800           0   0.00000     -0.301140E-02
      1754 MEMB     15       OYPE     H5S      HAL2     0.900000E-01   1.00800           0   0.00000     -0.301140E-02
      1755 MEMB     15       OYPE     C26      CTL2    -0.180000       12.0110           0   0.00000     -0.301140E-02
      1756 MEMB     15       OYPE     H6R      HAL2     0.900000E-01   1.00800           0   0.00000     -0.301140E-02
      1757 MEMB     15       OYPE     H6S      HAL2     0.900000E-01   1.00800           0   0.00000     -0.301140E-02
      1758 MEMB     15       OYPE     C27      CTL2    -0.180000       12.0110           0   0.00000     -0.301140E-02
      1759 MEMB     15       OYPE     H7R      HAL2     0.900000E-01   1.00800           0   0.00000     -0.301140E-02
      1760 MEMB     15       OYPE     H7S      HAL2     0.900000E-01   1.00800           0   0.00000     -0.301140E-02
      1761 MEMB     15       OYPE     C28      CTL2    -0.180000       12.0110           0   0.00000     -0.301140E-02
      1762 MEMB     15       OYPE     H8R      HAL2     0.900000E-01   1.00800           0   0.00000     -0.301140E-02
      1763 MEMB     15       OYPE     H8S      HAL2     0.900000E-01   1.00800           0   0.00000     -0.301140E-02
      1764 MEMB     15       OYPE     C29      CEL1    -0.150000       12.0110           0   0.00000     -0.301140E-02
      1765 MEMB     15       OYPE     H9R      HEL1     0.150000       1.00800           0   0.00000     -0.301140E-02
      1766 MEMB     15       OYPE     C210     CEL1    -0.150000       12.0110           0   0.00000     -0.301140E-02
      1767 MEMB     15       OYPE     H10R     HEL1     0.150000       1.00800           0   0.00000     -0.301140E-02
      1768 MEMB     15       OYPE     C211     CTL2    -0.180000       12.0110           0   0.00000     -0.301140E-02
      1769 MEMB     15       OYPE     H11R     HAL2     0.900000E-01   1.00800           0   0.00000     -0.301140E-02
      1770 MEMB     15       OYPE     H11S     HAL2     0.900000E-01   1.00800           0   0.00000     -0.301140E-02
      1771 MEMB     15       OYPE     C212     CTL2    -0.180000       12.0110           0   0.00000     -0.301140E-02
      1772 MEMB     15       OYPE     H12R     HAL2     0.900000E-01   1.00800           0   0.00000     -0.301140E-02
      1773 MEMB     15       OYPE     H12S     HAL2     0.900000E-01   1.00800           0   0.00000     -0.301140E-02
      1774 MEMB     15       OYPE     C213     CTL2    -0.180000       12.0110           0   0.00000     -0.301140E-02
      1775 MEMB     15       OYPE     H13R     HAL2     0.900000E-01   1.00800           0   0.00000     -0.301140E-02
      1776 MEMB     15       OYPE     H13S     HAL2     0.900000E-01   1.00800           0   0.00000     -0.301140E-02
      1777 MEMB     15       OYPE     C214     CTL2    -0.180000       12.0110           0   0.00000     -0.301140E-02
      1778 MEMB     15       OYPE     H14R     HAL2     0.900000E-01   1.00800           0   0.00000     -0.301140E-02
      1779 MEMB     15       OYPE     H14S     HAL2     0.900000E-01   1.00800           0   0.00000     -0.301140E-02
      1780 MEMB     15       OYPE     C215     CTL2    -0.180000       12.0110           0   0.00000     -0.301140E-02
      1781 MEMB     15       OYPE     H15R     HAL2     0.900000E-01   1.00800           0   0.00000     -0.301140E-02
      1782 MEMB     15       OYPE     H15S     HAL2     0.900000E-01   1.00800           0   0.00000     -0.301140E-02
      1783 MEMB     15       OYPE     C216     CTL3    -0.270000       12.0110           0   0.00000     -0.301140E-02
      1784 MEMB     15       OYPE     H16R     HAL3     0.900000E-01   1.00800           0   0.00000     -0.301140E-02
      1785 MEMB     15       OYPE     H16S     HAL3     0.900000E-01   1.00800           0   0.00000     -0.301140E-02
      1786 MEMB     15       OYPE     H16T     HAL3     0.900000E-01   1.00800           0   0.00000     -0.301140E-02
      1787 MEMB     15       OYPE     C33      CTL2    -0.180000       12.0110           0   0.00000     -0.301140E-02
      1788 MEMB     15       OYPE     H3X      HAL2     0.900000E-01   1.00800           0   0.00000     -0.301140E-02
      1789 MEMB     15       OYPE     H3Y      HAL2     0.900000E-01   1.00800           0   0.00000     -0.301140E-02
      1790 MEMB     15       OYPE     C34      CTL2    -0.180000       12.0110           0   0.00000     -0.301140E-02
      1791 MEMB     15       OYPE     H4X      HAL2     0.900000E-01   1.00800           0   0.00000     -0.301140E-02
      1792 MEMB     15       OYPE     H4Y      HAL2     0.900000E-01   1.00800           0   0.00000     -0.301140E-02
      1793 MEMB     15       OYPE     C35      CTL2    -0.180000       12.0110           0   0.00000     -0.301140E-02
      1794 MEMB     15       OYPE     H5X      HAL2     0.900000E-01   1.00800           0   0.00000     -0.301140E-02
      1795 MEMB     15       OYPE     H5Y      HAL2     0.900000E-01   1.00800           0   0.00000     -0.301140E-02
      1796 MEMB     15       OYPE     C36      CTL2    -0.180000       12.0110           0   0.00000     -0.301140E-02
      1797 MEMB     15       OYPE     H6X      HAL2     0.900000E-01   1.00800           0   0.00000     -0.301140E-02
      1798 MEMB     15       OYPE     H6Y      HAL2     0.900000E-01   1.00800           0   0.00000     -0.301140E-02
      1799 MEMB     15       OYPE     C37      CTL2    -0.180000       12.0110           0   0.00000     -0.301140E-02
      1800 MEMB     15       OYPE     H7X      HAL2     0.900000E-01   1.00800           0   0.00000     -0.301140E-02
      1801 MEMB     15       OYPE     H7Y      HAL2     0.900000E-01   1.00800           0   0.00000     -0.301140E-02
      1802 MEMB     15       OYPE     C38      CTL2    -0.180000       12.0110           0   0.00000     -0.301140E-02
      1803 MEMB     15       OYPE     H8X      HAL2     0.900000E-01   1.00800           0   0.00000     -0.301140E-02
      1804 MEMB     15       OYPE     H8Y      HAL2     0.900000E-01   1.00800           0   0.00000     -0.301140E-02
      1805 MEMB     15       OYPE     C39      CEL1    -0.150000       12.0110           0   0.00000     -0.301140E-02
      1806 MEMB     15       OYPE     H9X      HEL1     0.150000       1.00800           0   0.00000     -0.301140E-02
      1807 MEMB     15       OYPE     C310     CEL1    -0.150000       12.0110           0   0.00000     -0.301140E-02
      1808 MEMB     15       OYPE     H10X     HEL1     0.150000       1.00800           0   0.00000     -0.301140E-02
      1809 MEMB     15       OYPE     C311     CTL2    -0.180000       12.0110           0   0.00000     -0.301140E-02
      1810 MEMB     15       OYPE     H11X     HAL2     0.900000E-01   1.00800           0   0.00000     -0.301140E-02
      1811 MEMB     15       OYPE     H11Y     HAL2     0.900000E-01   1.00800           0   0.00000     -0.301140E-02
      1812 MEMB     15       OYPE     C312     CTL2    -0.180000       12.0110           0   0.00000     -0.301140E-02
      1813 MEMB     15       OYPE     H12X     HAL2     0.900000E-01   1.00800           0   0.00000     -0.301140E-02
      1814 MEMB     15       OYPE     H12Y     HAL2     0.900000E-01   1.00800           0   0.00000     -0.301140E-02
      1815 MEMB     15       OYPE     C313     CTL2    -0.180000       12.0110           0   0.00000     -0.301140E-02
      1816 MEMB     15       OYPE     H13X     HAL2     0.900000E-01   1.00800           0   0.00000     -0.301140E-02
      1817 MEMB     15       OYPE     H13Y     HAL2     0.900000E-01   1.00800           0   0.00000     -0.301140E-02
      1818 MEMB     15       OYPE     C314     CTL2    -0.180000       12.0110           0   0.00000     -0.301140E-02
      1819 MEMB     15       OYPE     H14X     HAL2     0.900000E-01   1.00800           0   0.00000     -0.301140E-02
      1820 MEMB     15       OYPE     H14Y     HAL2     0.900000E-01   1.00800           0   0.00000     -0.301140E-02
      1821 MEMB     15       OYPE     C315     CTL2    -0.180000       12.0110           0   0.00000     -0.301140E-02
      1822 MEMB     15       OYPE     H15X     HAL2     0.900000E-01   1.00800           0   0.00000     -0.301140E-02
      1823 MEMB     15       OYPE     H15Y     HAL2     0.900000E-01   1.00800           0   0.00000     -0.301140E-02
      1824 MEMB     15       OYPE     C316     CTL2    -0.180000       12.0110           0   0.00000     -0.301140E-02
      1825 MEMB     15       OYPE     H16X     HAL2     0.900000E-01   1.00800           0   0.00000     -0.301140E-02
      1826 MEMB     15       OYPE     H16Y     HAL2     0.900000E-01   1.00800           0   0.00000     -0.301140E-02
      1827 MEMB     15       OYPE     C317     CTL2    -0.180000       12.0110           0   0.00000     -0.301140E-02
      1828 MEMB     15       OYPE     H17X     HAL2     0.900000E-01   1.00800           0   0.00000     -0.301140E-02
      1829 MEMB     15       OYPE     H17Y     HAL2     0.900000E-01   1.00800           0   0.00000     -0.301140E-02
      1830 MEMB     15       OYPE     C318     CTL3    -0.270000       12.0110           0   0.00000     -0.301140E-02
      1831 MEMB     15       OYPE     H18X     HAL3     0.900000E-01   1.00800           0   0.00000     -0.301140E-02
      1832 MEMB     15       OYPE     H18Y     HAL3     0.900000E-01   1.00800           0   0.00000     -0.301140E-02
      1833 MEMB     15       OYPE     H18Z     HAL3     0.900000E-01   1.00800           0   0.00000     -0.301140E-02
      1834 MEMB     16       PYPG     C13      CTL2     0.500000E-01   12.0110           0   0.00000     -0.301140E-02
      1835 MEMB     16       PYPG     H13A     HAL2     0.900000E-01   1.00800           0   0.00000     -0.301140E-02
      1836 MEMB     16       PYPG     H13B     HAL2     0.900000E-01   1.00800           0   0.00000     -0.301140E-02
      1837 MEMB     16       PYPG     OC3      OHL     -0.660000       15.9994           0   0.00000     -0.301140E-02
      1838 MEMB     16       PYPG     HO3      HOL      0.430000       1.00800           0   0.00000     -0.301140E-02
      1839 MEMB     16       PYPG     C12      CTL1     0.140000       12.0110           0   0.00000     -0.301140E-02
      1840 MEMB     16       PYPG     H12A     HAL1     0.900000E-01   1.00800           0   0.00000     -0.301140E-02
      1841 MEMB     16       PYPG     OC2      OHL     -0.660000       15.9994           0   0.00000     -0.301140E-02
      1842 MEMB     16       PYPG     HO2      HOL      0.430000       1.00800           0   0.00000     -0.301140E-02
      1843 MEMB     16       PYPG     C11      CTL2    -0.800000E-01   12.0110           0   0.00000     -0.301140E-02
      1844 MEMB     16       PYPG     H11A     HAL2     0.900000E-01   1.00800           0   0.00000     -0.301140E-02
      1845 MEMB     16       PYPG     H11B     HAL2     0.900000E-01   1.00800           0   0.00000     -0.301140E-02
      1846 MEMB     16       PYPG     P        PL        1.50000       30.9740           0   0.00000     -0.301140E-02
      1847 MEMB     16       PYPG     O13      O2L     -0.780000       15.9994           0   0.00000     -0.301140E-02
      1848 MEMB     16       PYPG     O14      O2L     -0.780000       15.9994           0   0.00000     -0.301140E-02
      1849 MEMB     16       PYPG     O11      OSLP    -0.570000       15.9994           0   0.00000     -0.301140E-02
      1850 MEMB     16       PYPG     O12      OSLP    -0.570000       15.9994           0   0.00000     -0.301140E-02
      1851 MEMB     16       PYPG     C1       CTL2    -0.800000E-01   12.0110           0   0.00000     -0.301140E-02
      1852 MEMB     16       PYPG     HA       HAL2     0.900000E-01   1.00800           0   0.00000     -0.301140E-02
      1853 MEMB     16       PYPG     HB       HAL2     0.900000E-01   1.00800           0   0.00000     -0.301140E-02
      1854 MEMB     16       PYPG     C2       CTL1     0.170000       12.0110           0   0.00000     -0.301140E-02
      1855 MEMB     16       PYPG     HS       HAL1     0.900000E-01   1.00800           0   0.00000     -0.301140E-02
      1856 MEMB     16       PYPG     O21      OSL     -0.490000       15.9994           0   0.00000     -0.301140E-02
      1857 MEMB     16       PYPG     C21      CL       0.900000       12.0110           0   0.00000     -0.301140E-02
      1858 MEMB     16       PYPG     O22      OBL     -0.630000       15.9994           0   0.00000     -0.301140E-02
      1859 MEMB     16       PYPG     C22      CTL2    -0.220000       12.0110           0   0.00000     -0.301140E-02
      1860 MEMB     16       PYPG     H2R      HAL2     0.900000E-01   1.00800           0   0.00000     -0.301140E-02
      1861 MEMB     16       PYPG     H2S      HAL2     0.900000E-01   1.00800           0   0.00000     -0.301140E-02
      1862 MEMB     16       PYPG     C3       CTL2     0.800000E-01   12.0110           0   0.00000     -0.301140E-02
      1863 MEMB     16       PYPG     HX       HAL2     0.900000E-01   1.00800           0   0.00000     -0.301140E-02
      1864 MEMB     16       PYPG     HY       HAL2     0.900000E-01   1.00800           0   0.00000     -0.301140E-02
      1865 MEMB     16       PYPG     O31      OSL     -0.490000       15.9994           0   0.00000     -0.301140E-02
      1866 MEMB     16       PYPG     C31      CL       0.900000       12.0110           0   0.00000     -0.301140E-02
      1867 MEMB     16       PYPG     O32      OBL     -0.630000       15.9994           0   0.00000     -0.301140E-02
      1868 MEMB     16       PYPG     C32      CTL2    -0.220000       12.0110           0   0.00000     -0.301140E-02
      1869 MEMB     16       PYPG     H2X      HAL2     0.900000E-01   1.00800           0   0.00000     -0.301140E-02
      1870 MEMB     16       PYPG     H2Y      HAL2     0.900000E-01   1.00800           0   0.00000     -0.301140E-02
      1871 MEMB     16       PYPG     C23      CTL2    -0.180000       12.0110           0   0.00000     -0.301140E-02
      1872 MEMB     16       PYPG     H3R      HAL2     0.900000E-01   1.00800           0   0.00000     -0.301140E-02
      1873 MEMB     16       PYPG     H3S      HAL2     0.900000E-01   1.00800           0   0.00000     -0.301140E-02
      1874 MEMB     16       PYPG     C24      CTL2    -0.180000       12.0110           0   0.00000     -0.301140E-02
      1875 MEMB     16       PYPG     H4R      HAL2     0.900000E-01   1.00800           0   0.00000     -0.301140E-02
      1876 MEMB     16       PYPG     H4S      HAL2     0.900000E-01   1.00800           0   0.00000     -0.301140E-02
      1877 MEMB     16       PYPG     C25      CTL2    -0.180000       12.0110           0   0.00000     -0.301140E-02
      1878 MEMB     16       PYPG     H5R      HAL2     0.900000E-01   1.00800           0   0.00000     -0.301140E-02
      1879 MEMB     16       PYPG     H5S      HAL2     0.900000E-01   1.00800           0   0.00000     -0.301140E-02
      1880 MEMB     16       PYPG     C26      CTL2    -0.180000       12.0110           0   0.00000     -0.301140E-02
      1881 MEMB     16       PYPG     H6R      HAL2     0.900000E-01   1.00800           0   0.00000     -0.301140E-02
      1882 MEMB     16       PYPG     H6S      HAL2     0.900000E-01   1.00800           0   0.00000     -0.301140E-02
      1883 MEMB     16       PYPG     C27      CTL2    -0.180000       12.0110           0   0.00000     -0.301140E-02
      1884 MEMB     16       PYPG     H7R      HAL2     0.900000E-01   1.00800           0   0.00000     -0.301140E-02
      1885 MEMB     16       PYPG     H7S      HAL2     0.900000E-01   1.00800           0   0.00000     -0.301140E-02
      1886 MEMB     16       PYPG     C28      CTL2    -0.180000       12.0110           0   0.00000     -0.301140E-02
      1887 MEMB     16       PYPG     H8R      HAL2     0.900000E-01   1.00800           0   0.00000     -0.301140E-02
      1888 MEMB     16       PYPG     H8S      HAL2     0.900000E-01   1.00800           0   0.00000     -0.301140E-02
      1889 MEMB     16       PYPG     C29      CEL1    -0.150000       12.0110           0   0.00000     -0.301140E-02
      1890 MEMB     16       PYPG     H9R      HEL1     0.150000       1.00800           0   0.00000     -0.301140E-02
      1891 MEMB     16       PYPG     C210     CEL1    -0.150000       12.0110           0   0.00000     -0.301140E-02
      1892 MEMB     16       PYPG     H10R     HEL1     0.150000       1.00800           0   0.00000     -0.301140E-02
      1893 MEMB     16       PYPG     C211     CTL2    -0.180000       12.0110           0   0.00000     -0.301140E-02
      1894 MEMB     16       PYPG     H11R     HAL2     0.900000E-01   1.00800           0   0.00000     -0.301140E-02
      1895 MEMB     16       PYPG     H11S     HAL2     0.900000E-01   1.00800           0   0.00000     -0.301140E-02
      1896 MEMB     16       PYPG     C212     CTL2    -0.180000       12.0110           0   0.00000     -0.301140E-02
      1897 MEMB     16       PYPG     H12R     HAL2     0.900000E-01   1.00800           0   0.00000     -0.301140E-02
      1898 MEMB     16       PYPG     H12S     HAL2     0.900000E-01   1.00800           0   0.00000     -0.301140E-02
      1899 MEMB     16       PYPG     C213     CTL2    -0.180000       12.0110           0   0.00000     -0.301140E-02
      1900 MEMB     16       PYPG     H13R     HAL2     0.900000E-01   1.00800           0   0.00000     -0.301140E-02
      1901 MEMB     16       PYPG     H13S     HAL2     0.900000E-01   1.00800           0   0.00000     -0.301140E-02
      1902 MEMB     16       PYPG     C214     CTL2    -0.180000       12.0110           0   0.00000     -0.301140E-02
      1903 MEMB     16       PYPG     H14R     HAL2     0.900000E-01   1.00800           0   0.00000     -0.301140E-02
      1904 MEMB     16       PYPG     H14S     HAL2     0.900000E-01   1.00800           0   0.00000     -0.301140E-02
      1905 MEMB     16       PYPG     C215     CTL2    -0.180000       12.0110           0   0.00000     -0.301140E-02
      1906 MEMB     16       PYPG     H15R     HAL2     0.900000E-01   1.00800           0   0.00000     -0.301140E-02
      1907 MEMB     16       PYPG     H15S     HAL2     0.900000E-01   1.00800           0   0.00000     -0.301140E-02
      1908 MEMB     16       PYPG     C216     CTL3    -0.270000       12.0110           0   0.00000     -0.301140E-02
      1909 MEMB     16       PYPG     H16R     HAL3     0.900000E-01   1.00800           0   0.00000     -0.301140E-02
      1910 MEMB     16       PYPG     H16S     HAL3     0.900000E-01   1.00800           0   0.00000     -0.301140E-02
      1911 MEMB     16       PYPG     H16T     HAL3     0.900000E-01   1.00800           0   0.00000     -0.301140E-02
      1912 MEMB     16       PYPG     C33      CTL2    -0.180000       12.0110           0   0.00000     -0.301140E-02
      1913 MEMB     16       PYPG     H3X      HAL2     0.900000E-01   1.00800           0   0.00000     -0.301140E-02
      1914 MEMB     16       PYPG     H3Y      HAL2     0.900000E-01   1.00800           0   0.00000     -0.301140E-02
      1915 MEMB     16       PYPG     C34      CTL2    -0.180000       12.0110           0   0.00000     -0.301140E-02
      1916 MEMB     16       PYPG     H4X      HAL2     0.900000E-01   1.00800           0   0.00000     -0.301140E-02
      1917 MEMB     16       PYPG     H4Y      HAL2     0.900000E-01   1.00800           0   0.00000     -0.301140E-02
      1918 MEMB     16       PYPG     C35      CTL2    -0.180000       12.0110           0   0.00000     -0.301140E-02
      1919 MEMB     16       PYPG     H5X      HAL2     0.900000E-01   1.00800           0   0.00000     -0.301140E-02
      1920 MEMB     16       PYPG     H5Y      HAL2     0.900000E-01   1.00800           0   0.00000     -0.301140E-02
      1921 MEMB     16       PYPG     C36      CTL2    -0.180000       12.0110           0   0.00000     -0.301140E-02
      1922 MEMB     16       PYPG     H6X      HAL2     0.900000E-01   1.00800           0   0.00000     -0.301140E-02
      1923 MEMB     16       PYPG     H6Y      HAL2     0.900000E-01   1.00800           0   0.00000     -0.301140E-02
      1924 MEMB     16       PYPG     C37      CTL2    -0.180000       12.0110           0   0.00000     -0.301140E-02
      1925 MEMB     16       PYPG     H7X      HAL2     0.900000E-01   1.00800           0   0.00000     -0.301140E-02
      1926 MEMB     16       PYPG     H7Y      HAL2     0.900000E-01   1.00800           0   0.00000     -0.301140E-02
      1927 MEMB     16       PYPG     C38      CTL2    -0.180000       12.0110           0   0.00000     -0.301140E-02
      1928 MEMB     16       PYPG     H8X      HAL2     0.900000E-01   1.00800           0   0.00000     -0.301140E-02
      1929 MEMB     16       PYPG     H8Y      HAL2     0.900000E-01   1.00800           0   0.00000     -0.301140E-02
      1930 MEMB     16       PYPG     C39      CTL2    -0.180000       12.0110           0   0.00000     -0.301140E-02
      1931 MEMB     16       PYPG     H9X      HAL2     0.900000E-01   1.00800           0   0.00000     -0.301140E-02
      1932 MEMB     16       PYPG     H9Y      HAL2     0.900000E-01   1.00800           0   0.00000     -0.301140E-02
      1933 MEMB     16       PYPG     C310     CTL2    -0.180000       12.0110           0   0.00000     -0.301140E-02
      1934 MEMB     16       PYPG     H10X     HAL2     0.900000E-01   1.00800           0   0.00000     -0.301140E-02
      1935 MEMB     16       PYPG     H10Y     HAL2     0.900000E-01   1.00800           0   0.00000     -0.301140E-02
      1936 MEMB     16       PYPG     C311     CTL2    -0.180000       12.0110           0   0.00000     -0.301140E-02
      1937 MEMB     16       PYPG     H11X     HAL2     0.900000E-01   1.00800           0   0.00000     -0.301140E-02
      1938 MEMB     16       PYPG     H11Y     HAL2     0.900000E-01   1.00800           0   0.00000     -0.301140E-02
      1939 MEMB     16       PYPG     C312     CTL2    -0.180000       12.0110           0   0.00000     -0.301140E-02
      1940 MEMB     16       PYPG     H12X     HAL2     0.900000E-01   1.00800           0   0.00000     -0.301140E-02
      1941 MEMB     16       PYPG     H12Y     HAL2     0.900000E-01   1.00800           0   0.00000     -0.301140E-02
      1942 MEMB     16       PYPG     C313     CTL2    -0.180000       12.0110           0   0.00000     -0.301140E-02
      1943 MEMB     16       PYPG     H13X     HAL2     0.900000E-01   1.00800           0   0.00000     -0.301140E-02
      1944 MEMB     16       PYPG     H13Y     HAL2     0.900000E-01   1.00800           0   0.00000     -0.301140E-02
      1945 MEMB     16       PYPG     C314     CTL2    -0.180000       12.0110           0   0.00000     -0.301140E-02
      1946 MEMB     16       PYPG     H14X     HAL2     0.900000E-01   1.00800           0   0.00000     -0.301140E-02
      1947 MEMB     16       PYPG     H14Y     HAL2     0.900000E-01   1.00800           0   0.00000     -0.301140E-02
      1948 MEMB     16       PYPG     C315     CTL2    -0.180000       12.0110           0   0.00000     -0.301140E-02
      1949 MEMB     16       PYPG     H15X     HAL2     0.900000E-01   1.00800           0   0.00000     -0.301140E-02
      1950 MEMB     16       PYPG     H15Y     HAL2     0.900000E-01   1.00800           0   0.00000     -0.301140E-02
      1951 MEMB     16       PYPG     C316     CTL3    -0.270000       12.0110           0   0.00000     -0.301140E-02
      1952 MEMB     16       PYPG     H16X     HAL3     0.900000E-01   1.00800           0   0.00000     -0.301140E-02
      1953 MEMB     16       PYPG     H16Y     HAL3     0.900000E-01   1.00800           0   0.00000     -0.301140E-02
      1954 MEMB     16       PYPG     H16Z     HAL3     0.900000E-01   1.00800           0   0.00000     -0.301140E-02
      1955 MEMB     17       PMPE     N        NH3L    -0.300000       14.0070           0   0.00000     -0.301140E-02
      1956 MEMB     17       PMPE     HN1      HCL      0.330000       1.00800           0   0.00000     -0.301140E-02
      1957 MEMB     17       PMPE     HN2      HCL      0.330000       1.00800           0   0.00000     -0.301140E-02
      1958 MEMB     17       PMPE     HN3      HCL      0.330000       1.00800           0   0.00000     -0.301140E-02
      1959 MEMB     17       PMPE     C12      CTL2     0.130000       12.0110           0   0.00000     -0.301140E-02
      1960 MEMB     17       PMPE     H12A     HAL2     0.900000E-01   1.00800           0   0.00000     -0.301140E-02
      1961 MEMB     17       PMPE     H12B     HAL2     0.900000E-01   1.00800           0   0.00000     -0.301140E-02
      1962 MEMB     17       PMPE     C11      CTL2    -0.800000E-01   12.0110           0   0.00000     -0.301140E-02
      1963 MEMB     17       PMPE     H11A     HAL2     0.900000E-01   1.00800           0   0.00000     -0.301140E-02
      1964 MEMB     17       PMPE     H11B     HAL2     0.900000E-01   1.00800           0   0.00000     -0.301140E-02
      1965 MEMB     17       PMPE     P        PL        1.50000       30.9740           0   0.00000     -0.301140E-02
      1966 MEMB     17       PMPE     O13      O2L     -0.780000       15.9994           0   0.00000     -0.301140E-02
      1967 MEMB     17       PMPE     O14      O2L     -0.780000       15.9994           0   0.00000     -0.301140E-02
      1968 MEMB     17       PMPE     O11      OSLP    -0.570000       15.9994           0   0.00000     -0.301140E-02
      1969 MEMB     17       PMPE     O12      OSLP    -0.570000       15.9994           0   0.00000     -0.301140E-02
      1970 MEMB     17       PMPE     C1       CTL2    -0.800000E-01   12.0110           0   0.00000     -0.301140E-02
      1971 MEMB     17       PMPE     HA       HAL2     0.900000E-01   1.00800           0   0.00000     -0.301140E-02
      1972 MEMB     17       PMPE     HB       HAL2     0.900000E-01   1.00800           0   0.00000     -0.301140E-02
      1973 MEMB     17       PMPE     C2       CTL1     0.170000       12.0110           0   0.00000     -0.301140E-02
      1974 MEMB     17       PMPE     HS       HAL1     0.900000E-01   1.00800           0   0.00000     -0.301140E-02
      1975 MEMB     17       PMPE     O21      OSL     -0.490000       15.9994           0   0.00000     -0.301140E-02
      1976 MEMB     17       PMPE     C21      CL       0.900000       12.0110           0   0.00000     -0.301140E-02
      1977 MEMB     17       PMPE     O22      OBL     -0.630000       15.9994           0   0.00000     -0.301140E-02
      1978 MEMB     17       PMPE     C22      CTL2    -0.220000       12.0110           0   0.00000     -0.301140E-02
      1979 MEMB     17       PMPE     H2R      HAL2     0.900000E-01   1.00800           0   0.00000     -0.301140E-02
      1980 MEMB     17       PMPE     H2S      HAL2     0.900000E-01   1.00800           0   0.00000     -0.301140E-02
      1981 MEMB     17       PMPE     C3       CTL2     0.800000E-01   12.0110           0   0.00000     -0.301140E-02
      1982 MEMB     17       PMPE     HX       HAL2     0.900000E-01   1.00800           0   0.00000     -0.301140E-02
      1983 MEMB     17       PMPE     HY       HAL2     0.900000E-01   1.00800           0   0.00000     -0.301140E-02
      1984 MEMB     17       PMPE     O31      OSL     -0.490000       15.9994           0   0.00000     -0.301140E-02
      1985 MEMB     17       PMPE     C31      CL       0.900000       12.0110           0   0.00000     -0.301140E-02
      1986 MEMB     17       PMPE     O32      OBL     -0.630000       15.9994           0   0.00000     -0.301140E-02
      1987 MEMB     17       PMPE     C32      CTL2    -0.220000       12.0110           0   0.00000     -0.301140E-02
      1988 MEMB     17       PMPE     H2X      HAL2     0.900000E-01   1.00800           0   0.00000     -0.301140E-02
      1989 MEMB     17       PMPE     H2Y      HAL2     0.900000E-01   1.00800           0   0.00000     -0.301140E-02
      1990 MEMB     17       PMPE     C23      CTL2    -0.180000       12.0110           0   0.00000     -0.301140E-02
      1991 MEMB     17       PMPE     H3R      HAL2     0.900000E-01   1.00800           0   0.00000     -0.301140E-02
      1992 MEMB     17       PMPE     H3S      HAL2     0.900000E-01   1.00800           0   0.00000     -0.301140E-02
      1993 MEMB     17       PMPE     C24      CTL2    -0.180000       12.0110           0   0.00000     -0.301140E-02
      1994 MEMB     17       PMPE     H4R      HAL2     0.900000E-01   1.00800           0   0.00000     -0.301140E-02
      1995 MEMB     17       PMPE     H4S      HAL2     0.900000E-01   1.00800           0   0.00000     -0.301140E-02
      1996 MEMB     17       PMPE     C25      CTL2    -0.180000       12.0110           0   0.00000     -0.301140E-02
      1997 MEMB     17       PMPE     H5R      HAL2     0.900000E-01   1.00800           0   0.00000     -0.301140E-02
      1998 MEMB     17       PMPE     H5S      HAL2     0.900000E-01   1.00800           0   0.00000     -0.301140E-02
      1999 MEMB     17       PMPE     C26      CTL2    -0.180000       12.0110           0   0.00000     -0.301140E-02
      2000 MEMB     17       PMPE     H6R      HAL2     0.900000E-01   1.00800           0   0.00000     -0.301140E-02
      2001 MEMB     17       PMPE     H6S      HAL2     0.900000E-01   1.00800           0   0.00000     -0.301140E-02
      2002 MEMB     17       PMPE     C27      CTL2    -0.180000       12.0110           0   0.00000     -0.301140E-02
      2003 MEMB     17       PMPE     H7R      HAL2     0.900000E-01   1.00800           0   0.00000     -0.301140E-02
      2004 MEMB     17       PMPE     H7S      HAL2     0.900000E-01   1.00800           0   0.00000     -0.301140E-02
      2005 MEMB     17       PMPE     C28      CTL2    -0.180000       12.0110           0   0.00000     -0.301140E-02
      2006 MEMB     17       PMPE     H8R      HAL2     0.900000E-01   1.00800           0   0.00000     -0.301140E-02
      2007 MEMB     17       PMPE     H8S      HAL2     0.900000E-01   1.00800           0   0.00000     -0.301140E-02
      2008 MEMB     17       PMPE     C29      CG3RC1  -0.900000E-01   12.0110           0   0.00000     -0.301140E-02
      2009 MEMB     17       PMPE     H9R      HGA1     0.900000E-01   1.00800           0   0.00000     -0.301140E-02
      2010 MEMB     17       PMPE     C217     CG3C31  -0.180000       12.0110           0   0.00000     -0.301140E-02
      2011 MEMB     17       PMPE     H17R     HGA2     0.900000E-01   1.00800           0   0.00000     -0.301140E-02
      2012 MEMB     17       PMPE     H17S     HGA2     0.900000E-01   1.00800           0   0.00000     -0.301140E-02
      2013 MEMB     17       PMPE     C210     CG3RC1  -0.900000E-01   12.0110           0   0.00000     -0.301140E-02
      2014 MEMB     17       PMPE     H10R     HGA1     0.900000E-01   1.00800           0   0.00000     -0.301140E-02
      2015 MEMB     17       PMPE     C211     CTL2    -0.180000       12.0110           0   0.00000     -0.301140E-02
      2016 MEMB     17       PMPE     H11R     HAL2     0.900000E-01   1.00800           0   0.00000     -0.301140E-02
      2017 MEMB     17       PMPE     H11S     HAL2     0.900000E-01   1.00800           0   0.00000     -0.301140E-02
      2018 MEMB     17       PMPE     C212     CTL2    -0.180000       12.0110           0   0.00000     -0.301140E-02
      2019 MEMB     17       PMPE     H12R     HAL2     0.900000E-01   1.00800           0   0.00000     -0.301140E-02
      2020 MEMB     17       PMPE     H12S     HAL2     0.900000E-01   1.00800           0   0.00000     -0.301140E-02
      2021 MEMB     17       PMPE     C213     CTL2    -0.180000       12.0110           0   0.00000     -0.301140E-02
      2022 MEMB     17       PMPE     H13R     HAL2     0.900000E-01   1.00800           0   0.00000     -0.301140E-02
      2023 MEMB     17       PMPE     H13S     HAL2     0.900000E-01   1.00800           0   0.00000     -0.301140E-02
      2024 MEMB     17       PMPE     C214     CTL2    -0.180000       12.0110           0   0.00000     -0.301140E-02
      2025 MEMB     17       PMPE     H14R     HAL2     0.900000E-01   1.00800           0   0.00000     -0.301140E-02
      2026 MEMB     17       PMPE     H14S     HAL2     0.900000E-01   1.00800           0   0.00000     -0.301140E-02
      2027 MEMB     17       PMPE     C215     CTL2    -0.180000       12.0110           0   0.00000     -0.301140E-02
      2028 MEMB     17       PMPE     H15R     HAL2     0.900000E-01   1.00800           0   0.00000     -0.301140E-02
      2029 MEMB     17       PMPE     H15S     HAL2     0.900000E-01   1.00800           0   0.00000     -0.301140E-02
      2030 MEMB     17       PMPE     C216     CTL3    -0.270000       12.0110           0   0.00000     -0.301140E-02
      2031 MEMB     17       PMPE     H16R     HAL3     0.900000E-01   1.00800           0   0.00000     -0.301140E-02
      2032 MEMB     17       PMPE     H16S     HAL3     0.900000E-01   1.00800           0   0.00000     -0.301140E-02
      2033 MEMB     17       PMPE     H16T     HAL3     0.900000E-01   1.00800           0   0.00000     -0.301140E-02
      2034 MEMB     17       PMPE     C33      CTL2    -0.180000       12.0110           0   0.00000     -0.301140E-02
      2035 MEMB     17       PMPE     H3X      HAL2     0.900000E-01   1.00800           0   0.00000     -0.301140E-02
      2036 MEMB     17       PMPE     H3Y      HAL2     0.900000E-01   1.00800           0   0.00000     -0.301140E-02
      2037 MEMB     17       PMPE     C34      CTL2    -0.180000       12.0110           0   0.00000     -0.301140E-02
      2038 MEMB     17       PMPE     H4X      HAL2     0.900000E-01   1.00800           0   0.00000     -0.301140E-02
      2039 MEMB     17       PMPE     H4Y      HAL2     0.900000E-01   1.00800           0   0.00000     -0.301140E-02
      2040 MEMB     17       PMPE     C35      CTL2    -0.180000       12.0110           0   0.00000     -0.301140E-02
      2041 MEMB     17       PMPE     H5X      HAL2     0.900000E-01   1.00800           0   0.00000     -0.301140E-02
      2042 MEMB     17       PMPE     H5Y      HAL2     0.900000E-01   1.00800           0   0.00000     -0.301140E-02
      2043 MEMB     17       PMPE     C36      CTL2    -0.180000       12.0110           0   0.00000     -0.301140E-02
      2044 MEMB     17       PMPE     H6X      HAL2     0.900000E-01   1.00800           0   0.00000     -0.301140E-02
      2045 MEMB     17       PMPE     H6Y      HAL2     0.900000E-01   1.00800           0   0.00000     -0.301140E-02
      2046 MEMB     17       PMPE     C37      CTL2    -0.180000       12.0110           0   0.00000     -0.301140E-02
      2047 MEMB     17       PMPE     H7X      HAL2     0.900000E-01   1.00800           0   0.00000     -0.301140E-02
      2048 MEMB     17       PMPE     H7Y      HAL2     0.900000E-01   1.00800           0   0.00000     -0.301140E-02
      2049 MEMB     17       PMPE     C38      CTL2    -0.180000       12.0110           0   0.00000     -0.301140E-02
      2050 MEMB     17       PMPE     H8X      HAL2     0.900000E-01   1.00800           0   0.00000     -0.301140E-02
      2051 MEMB     17       PMPE     H8Y      HAL2     0.900000E-01   1.00800           0   0.00000     -0.301140E-02
      2052 MEMB     17       PMPE     C39      CTL2    -0.180000       12.0110           0   0.00000     -0.301140E-02
      2053 MEMB     17       PMPE     H9X      HAL2     0.900000E-01   1.00800           0   0.00000     -0.301140E-02
      2054 MEMB     17       PMPE     H9Y      HAL2     0.900000E-01   1.00800           0   0.00000     -0.301140E-02
      2055 MEMB     17       PMPE     C310     CTL2    -0.180000       12.0110           0   0.00000     -0.301140E-02
      2056 MEMB     17       PMPE     H10X     HAL2     0.900000E-01   1.00800           0   0.00000     -0.301140E-02
      2057 MEMB     17       PMPE     H10Y     HAL2     0.900000E-01   1.00800           0   0.00000     -0.301140E-02
      2058 MEMB     17       PMPE     C311     CTL2    -0.180000       12.0110           0   0.00000     -0.301140E-02
      2059 MEMB     17       PMPE     H11X     HAL2     0.900000E-01   1.00800           0   0.00000     -0.301140E-02
      2060 MEMB     17       PMPE     H11Y     HAL2     0.900000E-01   1.00800           0   0.00000     -0.301140E-02
      2061 MEMB     17       PMPE     C312     CTL2    -0.180000       12.0110           0   0.00000     -0.301140E-02
      2062 MEMB     17       PMPE     H12X     HAL2     0.900000E-01   1.00800           0   0.00000     -0.301140E-02
      2063 MEMB     17       PMPE     H12Y     HAL2     0.900000E-01   1.00800           0   0.00000     -0.301140E-02
      2064 MEMB     17       PMPE     C313     CTL2    -0.180000       12.0110           0   0.00000     -0.301140E-02
      2065 MEMB     17       PMPE     H13X     HAL2     0.900000E-01   1.00800           0   0.00000     -0.301140E-02
      2066 MEMB     17       PMPE     H13Y     HAL2     0.900000E-01   1.00800           0   0.00000     -0.301140E-02
      2067 MEMB     17       PMPE     C314     CTL2    -0.180000       12.0110           0   0.00000     -0.301140E-02
      2068 MEMB     17       PMPE     H14X     HAL2     0.900000E-01   1.00800           0   0.00000     -0.301140E-02
      2069 MEMB     17       PMPE     H14Y     HAL2     0.900000E-01   1.00800           0   0.00000     -0.301140E-02
      2070 MEMB     17       PMPE     C315     CTL2    -0.180000       12.0110           0   0.00000     -0.301140E-02
      2071 MEMB     17       PMPE     H15X     HAL2     0.900000E-01   1.00800           0   0.00000     -0.301140E-02
      2072 MEMB     17       PMPE     H15Y     HAL2     0.900000E-01   1.00800           0   0.00000     -0.301140E-02
      2073 MEMB     17       PMPE     C316     CTL3    -0.270000       12.0110           0   0.00000     -0.301140E-02
      2074 MEMB     17       PMPE     H16X     HAL3     0.900000E-01   1.00800           0   0.00000     -0.301140E-02
      2075 MEMB     17       PMPE     H16Y     HAL3     0.900000E-01   1.00800           0   0.00000     -0.301140E-02
      2076 MEMB     17       PMPE     H16Z     HAL3     0.900000E-01   1.00800           0   0.00000     -0.301140E-02
      2077 MEMB     18       QMPE     N        NH3L    -0.300000       14.0070           0   0.00000     -0.301140E-02
      2078 MEMB     18       QMPE     HN1      HCL      0.330000       1.00800           0   0.00000     -0.301140E-02
      2079 MEMB     18       QMPE     HN2      HCL      0.330000       1.00800           0   0.00000     -0.301140E-02
      2080 MEMB     18       QMPE     HN3      HCL      0.330000       1.00800           0   0.00000     -0.301140E-02
      2081 MEMB     18       QMPE     C12      CTL2     0.130000       12.0110           0   0.00000     -0.301140E-02
      2082 MEMB     18       QMPE     H12A     HAL2     0.900000E-01   1.00800           0   0.00000     -0.301140E-02
      2083 MEMB     18       QMPE     H12B     HAL2     0.900000E-01   1.00800           0   0.00000     -0.301140E-02
      2084 MEMB     18       QMPE     C11      CTL2    -0.800000E-01   12.0110           0   0.00000     -0.301140E-02
      2085 MEMB     18       QMPE     H11A     HAL2     0.900000E-01   1.00800           0   0.00000     -0.301140E-02
      2086 MEMB     18       QMPE     H11B     HAL2     0.900000E-01   1.00800           0   0.00000     -0.301140E-02
      2087 MEMB     18       QMPE     P        PL        1.50000       30.9740           0   0.00000     -0.301140E-02
      2088 MEMB     18       QMPE     O13      O2L     -0.780000       15.9994           0   0.00000     -0.301140E-02
      2089 MEMB     18       QMPE     O14      O2L     -0.780000       15.9994           0   0.00000     -0.301140E-02
      2090 MEMB     18       QMPE     O11      OSLP    -0.570000       15.9994           0   0.00000     -0.301140E-02
      2091 MEMB     18       QMPE     O12      OSLP    -0.570000       15.9994           0   0.00000     -0.301140E-02
      2092 MEMB     18       QMPE     C1       CTL2    -0.800000E-01   12.0110           0   0.00000     -0.301140E-02
      2093 MEMB     18       QMPE     HA       HAL2     0.900000E-01   1.00800           0   0.00000     -0.301140E-02
      2094 MEMB     18       QMPE     HB       HAL2     0.900000E-01   1.00800           0   0.00000     -0.301140E-02
      2095 MEMB     18       QMPE     C2       CTL1     0.170000       12.0110           0   0.00000     -0.301140E-02
      2096 MEMB     18       QMPE     HS       HAL1     0.900000E-01   1.00800           0   0.00000     -0.301140E-02
      2097 MEMB     18       QMPE     O21      OSL     -0.490000       15.9994           0   0.00000     -0.301140E-02
      2098 MEMB     18       QMPE     C21      CL       0.900000       12.0110           0   0.00000     -0.301140E-02
      2099 MEMB     18       QMPE     O22      OBL     -0.630000       15.9994           0   0.00000     -0.301140E-02
      2100 MEMB     18       QMPE     C22      CTL2    -0.220000       12.0110           0   0.00000     -0.301140E-02
      2101 MEMB     18       QMPE     H2R      HAL2     0.900000E-01   1.00800           0   0.00000     -0.301140E-02
      2102 MEMB     18       QMPE     H2S      HAL2     0.900000E-01   1.00800           0   0.00000     -0.301140E-02
      2103 MEMB     18       QMPE     C3       CTL2     0.800000E-01   12.0110           0   0.00000     -0.301140E-02
      2104 MEMB     18       QMPE     HX       HAL2     0.900000E-01   1.00800           0   0.00000     -0.301140E-02
      2105 MEMB     18       QMPE     HY       HAL2     0.900000E-01   1.00800           0   0.00000     -0.301140E-02
      2106 MEMB     18       QMPE     O31      OSL     -0.490000       15.9994           0   0.00000     -0.301140E-02
      2107 MEMB     18       QMPE     C31      CL       0.900000       12.0110           0   0.00000     -0.301140E-02
      2108 MEMB     18       QMPE     O32      OBL     -0.630000       15.9994           0   0.00000     -0.301140E-02
      2109 MEMB     18       QMPE     C32      CTL2    -0.220000       12.0110           0   0.00000     -0.301140E-02
      2110 MEMB     18       QMPE     H2X      HAL2     0.900000E-01   1.00800           0   0.00000     -0.301140E-02
      2111 MEMB     18       QMPE     H2Y      HAL2     0.900000E-01   1.00800           0   0.00000     -0.301140E-02
      2112 MEMB     18       QMPE     C23      CTL2    -0.180000       12.0110           0   0.00000     -0.301140E-02
      2113 MEMB     18       QMPE     H3R      HAL2     0.900000E-01   1.00800           0   0.00000     -0.301140E-02
      2114 MEMB     18       QMPE     H3S      HAL2     0.900000E-01   1.00800           0   0.00000     -0.301140E-02
      2115 MEMB     18       QMPE     C24      CTL2    -0.180000       12.0110           0   0.00000     -0.301140E-02
      2116 MEMB     18       QMPE     H4R      HAL2     0.900000E-01   1.00800           0   0.00000     -0.301140E-02
      2117 MEMB     18       QMPE     H4S      HAL2     0.900000E-01   1.00800           0   0.00000     -0.301140E-02
      2118 MEMB     18       QMPE     C25      CTL2    -0.180000       12.0110           0   0.00000     -0.301140E-02
      2119 MEMB     18       QMPE     H5R      HAL2     0.900000E-01   1.00800           0   0.00000     -0.301140E-02
      2120 MEMB     18       QMPE     H5S      HAL2     0.900000E-01   1.00800           0   0.00000     -0.301140E-02
      2121 MEMB     18       QMPE     C26      CTL2    -0.180000       12.0110           0   0.00000     -0.301140E-02
      2122 MEMB     18       QMPE     H6R      HAL2     0.900000E-01   1.00800           0   0.00000     -0.301140E-02
      2123 MEMB     18       QMPE     H6S      HAL2     0.900000E-01   1.00800           0   0.00000     -0.301140E-02
      2124 MEMB     18       QMPE     C27      CTL2    -0.180000       12.0110           0   0.00000     -0.301140E-02
      2125 MEMB     18       QMPE     H7R      HAL2     0.900000E-01   1.00800           0   0.00000     -0.301140E-02
      2126 MEMB     18       QMPE     H7S      HAL2     0.900000E-01   1.00800           0   0.00000     -0.301140E-02
      2127 MEMB     18       QMPE     C28      CTL2    -0.180000       12.0110           0   0.00000     -0.301140E-02
      2128 MEMB     18       QMPE     H8R      HAL2     0.900000E-01   1.00800           0   0.00000     -0.301140E-02
      2129 MEMB     18       QMPE     H8S      HAL2     0.900000E-01   1.00800           0   0.00000     -0.301140E-02
      2130 MEMB     18       QMPE     C29      CG3RC1  -0.900000E-01   12.0110           0   0.00000     -0.301140E-02
      2131 MEMB     18       QMPE     H9R      HGA1     0.900000E-01   1.00800           0   0.00000     -0.301140E-02
      2132 MEMB     18       QMPE     C217     CG3C31  -0.180000       12.0110           0   0.00000     -0.301140E-02
      2133 MEMB     18       QMPE     H17R     HGA2     0.900000E-01   1.00800           0   0.00000     -0.301140E-02
      2134 MEMB     18       QMPE     H17S     HGA2     0.900000E-01   1.00800           0   0.00000     -0.301140E-02
      2135 MEMB     18       QMPE     C210     CG3RC1  -0.900000E-01   12.0110           0   0.00000     -0.301140E-02
      2136 MEMB     18       QMPE     H10R     HGA1     0.900000E-01   1.00800           0   0.00000     -0.301140E-02
      2137 MEMB     18       QMPE     C211     CTL2    -0.180000       12.0110           0   0.00000     -0.301140E-02
      2138 MEMB     18       QMPE     H11R     HAL2     0.900000E-01   1.00800           0   0.00000     -0.301140E-02
      2139 MEMB     18       QMPE     H11S     HAL2     0.900000E-01   1.00800           0   0.00000     -0.301140E-02
      2140 MEMB     18       QMPE     C212     CTL2    -0.180000       12.0110           0   0.00000     -0.301140E-02
      2141 MEMB     18       QMPE     H12R     HAL2     0.900000E-01   1.00800           0   0.00000     -0.301140E-02
      2142 MEMB     18       QMPE     H12S     HAL2     0.900000E-01   1.00800           0   0.00000     -0.301140E-02
      2143 MEMB     18       QMPE     C213     CTL2    -0.180000       12.0110           0   0.00000     -0.301140E-02
      2144 MEMB     18       QMPE     H13R     HAL2     0.900000E-01   1.00800           0   0.00000     -0.301140E-02
      2145 MEMB     18       QMPE     H13S     HAL2     0.900000E-01   1.00800           0   0.00000     -0.301140E-02
      2146 MEMB     18       QMPE     C214     CTL2    -0.180000       12.0110           0   0.00000     -0.301140E-02
      2147 MEMB     18       QMPE     H14R     HAL2     0.900000E-01   1.00800           0   0.00000     -0.301140E-02
      2148 MEMB     18       QMPE     H14S     HAL2     0.900000E-01   1.00800           0   0.00000     -0.301140E-02
      2149 MEMB     18       QMPE     C215     CTL2    -0.180000       12.0110           0   0.00000     -0.301140E-02
      2150 MEMB     18       QMPE     H15R     HAL2     0.900000E-01   1.00800           0   0.00000     -0.301140E-02
      2151 MEMB     18       QMPE     H15S     HAL2     0.900000E-01   1.00800           0   0.00000     -0.301140E-02
      2152 MEMB     18       QMPE     C216     CTL3    -0.270000       12.0110           0   0.00000     -0.301140E-02
      2153 MEMB     18       QMPE     H16R     HAL3     0.900000E-01   1.00800           0   0.00000     -0.301140E-02
      2154 MEMB     18       QMPE     H16S     HAL3     0.900000E-01   1.00800           0   0.00000     -0.301140E-02
      2155 MEMB     18       QMPE     H16T     HAL3     0.900000E-01   1.00800           0   0.00000     -0.301140E-02
      2156 MEMB     18       QMPE     C33      CTL2    -0.180000       12.0110           0   0.00000     -0.301140E-02
      2157 MEMB     18       QMPE     H3X      HAL2     0.900000E-01   1.00800           0   0.00000     -0.301140E-02
      2158 MEMB     18       QMPE     H3Y      HAL2     0.900000E-01   1.00800           0   0.00000     -0.301140E-02
      2159 MEMB     18       QMPE     C34      CTL2    -0.180000       12.0110           0   0.00000     -0.301140E-02
      2160 MEMB     18       QMPE     H4X      HAL2     0.900000E-01   1.00800           0   0.00000     -0.301140E-02
      2161 MEMB     18       QMPE     H4Y      HAL2     0.900000E-01   1.00800           0   0.00000     -0.301140E-02
      2162 MEMB     18       QMPE     C35      CTL2    -0.180000       12.0110           0   0.00000     -0.301140E-02
      2163 MEMB     18       QMPE     H5X      HAL2     0.900000E-01   1.00800           0   0.00000     -0.301140E-02
      2164 MEMB     18       QMPE     H5Y      HAL2     0.900000E-01   1.00800           0   0.00000     -0.301140E-02
      2165 MEMB     18       QMPE     C36      CTL2    -0.180000       12.0110           0   0.00000     -0.301140E-02
      2166 MEMB     18       QMPE     H6X      HAL2     0.900000E-01   1.00800           0   0.00000     -0.301140E-02
      2167 MEMB     18       QMPE     H6Y      HAL2     0.900000E-01   1.00800           0   0.00000     -0.301140E-02
      2168 MEMB     18       QMPE     C37      CTL2    -0.180000       12.0110           0   0.00000     -0.301140E-02
      2169 MEMB     18       QMPE     H7X      HAL2     0.900000E-01   1.00800           0   0.00000     -0.301140E-02
      2170 MEMB     18       QMPE     H7Y      HAL2     0.900000E-01   1.00800           0   0.00000     -0.301140E-02
      2171 MEMB     18       QMPE     C38      CTL2    -0.180000       12.0110           0   0.00000     -0.301140E-02
      2172 MEMB     18       QMPE     H8X      HAL2     0.900000E-01   1.00800           0   0.00000     -0.301140E-02
      2173 MEMB     18       QMPE     H8Y      HAL2     0.900000E-01   1.00800           0   0.00000     -0.301140E-02
      2174 MEMB     18       QMPE     C39      CTL2    -0.180000       12.0110           0   0.00000     -0.301140E-02
      2175 MEMB     18       QMPE     H9X      HAL2     0.900000E-01   1.00800           0   0.00000     -0.301140E-02
      2176 MEMB     18       QMPE     H9Y      HAL2     0.900000E-01   1.00800           0   0.00000     -0.301140E-02
      2177 MEMB     18       QMPE     C310     CTL2    -0.180000       12.0110           0   0.00000     -0.301140E-02
      2178 MEMB     18       QMPE     H10X     HAL2     0.900000E-01   1.00800           0   0.00000     -0.301140E-02
      2179 MEMB     18       QMPE     H10Y     HAL2     0.900000E-01   1.00800           0   0.00000     -0.301140E-02
      2180 MEMB     18       QMPE     C311     CTL2    -0.180000       12.0110           0   0.00000     -0.301140E-02
      2181 MEMB     18       QMPE     H11X     HAL2     0.900000E-01   1.00800           0   0.00000     -0.301140E-02
      2182 MEMB     18       QMPE     H11Y     HAL2     0.900000E-01   1.00800           0   0.00000     -0.301140E-02
      2183 MEMB     18       QMPE     C312     CTL2    -0.180000       12.0110           0   0.00000     -0.301140E-02
      2184 MEMB     18       QMPE     H12X     HAL2     0.900000E-01   1.00800           0   0.00000     -0.301140E-02
      2185 MEMB     18       QMPE     H12Y     HAL2     0.900000E-01   1.00800           0   0.00000     -0.301140E-02
      2186 MEMB     18       QMPE     C313     CTL2    -0.180000       12.0110           0   0.00000     -0.301140E-02
      2187 MEMB     18       QMPE     H13X     HAL2     0.900000E-01   1.00800           0   0.00000     -0.301140E-02
      2188 MEMB     18       QMPE     H13Y     HAL2     0.900000E-01   1.00800           0   0.00000     -0.301140E-02
      2189 MEMB     18       QMPE     C314     CTL2    -0.180000       12.0110           0   0.00000     -0.301140E-02
      2190 MEMB     18       QMPE     H14X     HAL2     0.900000E-01   1.00800           0   0.00000     -0.301140E-02
      2191 MEMB     18       QMPE     H14Y     HAL2     0.900000E-01   1.00800           0   0.00000     -0.301140E-02
      2192 MEMB     18       QMPE     C315     CTL3    -0.270000       12.0110           0   0.00000     -0.301140E-02
      2193 MEMB     18       QMPE     H15X     HAL3     0.900000E-01   1.00800           0   0.00000     -0.301140E-02
      2194 MEMB     18       QMPE     H15Y     HAL3     0.900000E-01   1.00800           0   0.00000     -0.301140E-02
      2195 MEMB     18       QMPE     H15Z     HAL3     0.900000E-01   1.00800           0   0.00000     -0.301140E-02
      2196 MEMB     19       OYPE     N        NH3L    -0.300000       14.0070           0   0.00000     -0.301140E-02
      2197 MEMB     19       OYPE     HN1      HCL      0.330000       1.00800           0   0.00000     -0.301140E-02
      2198 MEMB     19       OYPE     HN2      HCL      0.330000       1.00800           0   0.00000     -0.301140E-02
      2199 MEMB     19       OYPE     HN3      HCL      0.330000       1.00800           0   0.00000     -0.301140E-02
      2200 MEMB     19       OYPE     C12      CTL2     0.130000       12.0110           0   0.00000     -0.301140E-02
      2201 MEMB     19       OYPE     H12A     HAL2     0.900000E-01   1.00800           0   0.00000     -0.301140E-02
      2202 MEMB     19       OYPE     H12B     HAL2     0.900000E-01   1.00800           0   0.00000     -0.301140E-02
      2203 MEMB     19       OYPE     C11      CTL2    -0.800000E-01   12.0110           0   0.00000     -0.301140E-02
      2204 MEMB     19       OYPE     H11A     HAL2     0.900000E-01   1.00800           0   0.00000     -0.301140E-02
      2205 MEMB     19       OYPE     H11B     HAL2     0.900000E-01   1.00800           0   0.00000     -0.301140E-02
      2206 MEMB     19       OYPE     P        PL        1.50000       30.9740           0   0.00000     -0.301140E-02
      2207 MEMB     19       OYPE     O13      O2L     -0.780000       15.9994           0   0.00000     -0.301140E-02
      2208 MEMB     19       OYPE     O14      O2L     -0.780000       15.9994           0   0.00000     -0.301140E-02
      2209 MEMB     19       OYPE     O11      OSLP    -0.570000       15.9994           0   0.00000     -0.301140E-02
      2210 MEMB     19       OYPE     O12      OSLP    -0.570000       15.9994           0   0.00000     -0.301140E-02
      2211 MEMB     19       OYPE     C1       CTL2    -0.800000E-01   12.0110           0   0.00000     -0.301140E-02
      2212 MEMB     19       OYPE     HA       HAL2     0.900000E-01   1.00800           0   0.00000     -0.301140E-02
      2213 MEMB     19       OYPE     HB       HAL2     0.900000E-01   1.00800           0   0.00000     -0.301140E-02
      2214 MEMB     19       OYPE     C2       CTL1     0.170000       12.0110           0   0.00000     -0.301140E-02
      2215 MEMB     19       OYPE     HS       HAL1     0.900000E-01   1.00800           0   0.00000     -0.301140E-02
      2216 MEMB     19       OYPE     O21      OSL     -0.490000       15.9994           0   0.00000     -0.301140E-02
      2217 MEMB     19       OYPE     C21      CL       0.900000       12.0110           0   0.00000     -0.301140E-02
      2218 MEMB     19       OYPE     O22      OBL     -0.630000       15.9994           0   0.00000     -0.301140E-02
      2219 MEMB     19       OYPE     C22      CTL2    -0.220000       12.0110           0   0.00000     -0.301140E-02
      2220 MEMB     19       OYPE     H2R      HAL2     0.900000E-01   1.00800           0   0.00000     -0.301140E-02
      2221 MEMB     19       OYPE     H2S      HAL2     0.900000E-01   1.00800           0   0.00000     -0.301140E-02
      2222 MEMB     19       OYPE     C3       CTL2     0.800000E-01   12.0110           0   0.00000     -0.301140E-02
      2223 MEMB     19       OYPE     HX       HAL2     0.900000E-01   1.00800           0   0.00000     -0.301140E-02
      2224 MEMB     19       OYPE     HY       HAL2     0.900000E-01   1.00800           0   0.00000     -0.301140E-02
      2225 MEMB     19       OYPE     O31      OSL     -0.490000       15.9994           0   0.00000     -0.301140E-02
      2226 MEMB     19       OYPE     C31      CL       0.900000       12.0110           0   0.00000     -0.301140E-02
      2227 MEMB     19       OYPE     O32      OBL     -0.630000       15.9994           0   0.00000     -0.301140E-02
      2228 MEMB     19       OYPE     C32      CTL2    -0.220000       12.0110           0   0.00000     -0.301140E-02
      2229 MEMB     19       OYPE     H2X      HAL2     0.900000E-01   1.00800           0   0.00000     -0.301140E-02
      2230 MEMB     19       OYPE     H2Y      HAL2     0.900000E-01   1.00800           0   0.00000     -0.301140E-02
      2231 MEMB     19       OYPE     C23      CTL2    -0.180000       12.0110           0   0.00000     -0.301140E-02
      2232 MEMB     19       OYPE     H3R      HAL2     0.900000E-01   1.00800           0   0.00000     -0.301140E-02
      2233 MEMB     19       OYPE     H3S      HAL2     0.900000E-01   1.00800           0   0.00000     -0.301140E-02
      2234 MEMB     19       OYPE     C24      CTL2    -0.180000       12.0110           0   0.00000     -0.301140E-02
      2235 MEMB     19       OYPE     H4R      HAL2     0.900000E-01   1.00800           0   0.00000     -0.301140E-02
      2236 MEMB     19       OYPE     H4S      HAL2     0.900000E-01   1.00800           0   0.00000     -0.301140E-02
      2237 MEMB     19       OYPE     C25      CTL2    -0.180000       12.0110           0   0.00000     -0.301140E-02
      2238 MEMB     19       OYPE     H5R      HAL2     0.900000E-01   1.00800           0   0.00000     -0.301140E-02
      2239 MEMB     19       OYPE     H5S      HAL2     0.900000E-01   1.00800           0   0.00000     -0.301140E-02
      2240 MEMB     19       OYPE     C26      CTL2    -0.180000       12.0110           0   0.00000     -0.301140E-02
      2241 MEMB     19       OYPE     H6R      HAL2     0.900000E-01   1.00800           0   0.00000     -0.301140E-02
      2242 MEMB     19       OYPE     H6S      HAL2     0.900000E-01   1.00800           0   0.00000     -0.301140E-02
      2243 MEMB     19       OYPE     C27      CTL2    -0.180000       12.0110           0   0.00000     -0.301140E-02
      2244 MEMB     19       OYPE     H7R      HAL2     0.900000E-01   1.00800           0   0.00000     -0.301140E-02
      2245 MEMB     19       OYPE     H7S      HAL2     0.900000E-01   1.00800           0   0.00000     -0.301140E-02
      2246 MEMB     19       OYPE     C28      CTL2    -0.180000       12.0110           0   0.00000     -0.301140E-02
      2247 MEMB     19       OYPE     H8R      HAL2     0.900000E-01   1.00800           0   0.00000     -0.301140E-02
      2248 MEMB     19       OYPE     H8S      HAL2     0.900000E-01   1.00800           0   0.00000     -0.301140E-02
      2249 MEMB     19       OYPE     C29      CEL1    -0.150000       12.0110           0   0.00000     -0.301140E-02
      2250 MEMB     19       OYPE     H9R      HEL1     0.150000       1.00800           0   0.00000     -0.301140E-02
      2251 MEMB     19       OYPE     C210     CEL1    -0.150000       12.0110           0   0.00000     -0.301140E-02
      2252 MEMB     19       OYPE     H10R     HEL1     0.150000       1.00800           0   0.00000     -0.301140E-02
      2253 MEMB     19       OYPE     C211     CTL2    -0.180000       12.0110           0   0.00000     -0.301140E-02
      2254 MEMB     19       OYPE     H11R     HAL2     0.900000E-01   1.00800           0   0.00000     -0.301140E-02
      2255 MEMB     19       OYPE     H11S     HAL2     0.900000E-01   1.00800           0   0.00000     -0.301140E-02
      2256 MEMB     19       OYPE     C212     CTL2    -0.180000       12.0110           0   0.00000     -0.301140E-02
      2257 MEMB     19       OYPE     H12R     HAL2     0.900000E-01   1.00800           0   0.00000     -0.301140E-02
      2258 MEMB     19       OYPE     H12S     HAL2     0.900000E-01   1.00800           0   0.00000     -0.301140E-02
      2259 MEMB     19       OYPE     C213     CTL2    -0.180000       12.0110           0   0.00000     -0.301140E-02
      2260 MEMB     19       OYPE     H13R     HAL2     0.900000E-01   1.00800           0   0.00000     -0.301140E-02
      2261 MEMB     19       OYPE     H13S     HAL2     0.900000E-01   1.00800           0   0.00000     -0.301140E-02
      2262 MEMB     19       OYPE     C214     CTL2    -0.180000       12.0110           0   0.00000     -0.301140E-02
      2263 MEMB     19       OYPE     H14R     HAL2     0.900000E-01   1.00800           0   0.00000     -0.301140E-02
      2264 MEMB     19       OYPE     H14S     HAL2     0.900000E-01   1.00800           0   0.00000     -0.301140E-02
      2265 MEMB     19       OYPE     C215     CTL2    -0.180000       12.0110           0   0.00000     -0.301140E-02
      2266 MEMB     19       OYPE     H15R     HAL2     0.900000E-01   1.00800           0   0.00000     -0.301140E-02
      2267 MEMB     19       OYPE     H15S     HAL2     0.900000E-01   1.00800           0   0.00000     -0.301140E-02
      2268 MEMB     19       OYPE     C216     CTL3    -0.270000       12.0110           0   0.00000     -0.301140E-02
      2269 MEMB     19       OYPE     H16R     HAL3     0.900000E-01   1.00800           0   0.00000     -0.301140E-02
      2270 MEMB     19       OYPE     H16S     HAL3     0.900000E-01   1.00800           0   0.00000     -0.301140E-02
      2271 MEMB     19       OYPE     H16T     HAL3     0.900000E-01   1.00800           0   0.00000     -0.301140E-02
      2272 MEMB     19       OYPE     C33      CTL2    -0.180000       12.0110           0   0.00000     -0.301140E-02
      2273 MEMB     19       OYPE     H3X      HAL2     0.900000E-01   1.00800           0   0.00000     -0.301140E-02
      2274 MEMB     19       OYPE     H3Y      HAL2     0.900000E-01   1.00800           0   0.00000     -0.301140E-02
      2275 MEMB     19       OYPE     C34      CTL2    -0.180000       12.0110           0   0.00000     -0.301140E-02
      2276 MEMB     19       OYPE     H4X      HAL2     0.900000E-01   1.00800           0   0.00000     -0.301140E-02
      2277 MEMB     19       OYPE     H4Y      HAL2     0.900000E-01   1.00800           0   0.00000     -0.301140E-02
      2278 MEMB     19       OYPE     C35      CTL2    -0.180000       12.0110           0   0.00000     -0.301140E-02
      2279 MEMB     19       OYPE     H5X      HAL2     0.900000E-01   1.00800           0   0.00000     -0.301140E-02
      2280 MEMB     19       OYPE     H5Y      HAL2     0.900000E-01   1.00800           0   0.00000     -0.301140E-02
      2281 MEMB     19       OYPE     C36      CTL2    -0.180000       12.0110           0   0.00000     -0.301140E-02
      2282 MEMB     19       OYPE     H6X      HAL2     0.900000E-01   1.00800           0   0.00000     -0.301140E-02
      2283 MEMB     19       OYPE     H6Y      HAL2     0.900000E-01   1.00800           0   0.00000     -0.301140E-02
      2284 MEMB     19       OYPE     C37      CTL2    -0.180000       12.0110           0   0.00000     -0.301140E-02
      2285 MEMB     19       OYPE     H7X      HAL2     0.900000E-01   1.00800           0   0.00000     -0.301140E-02
      2286 MEMB     19       OYPE     H7Y      HAL2     0.900000E-01   1.00800           0   0.00000     -0.301140E-02
      2287 MEMB     19       OYPE     C38      CTL2    -0.180000       12.0110           0   0.00000     -0.301140E-02
      2288 MEMB     19       OYPE     H8X      HAL2     0.900000E-01   1.00800           0   0.00000     -0.301140E-02
      2289 MEMB     19       OYPE     H8Y      HAL2     0.900000E-01   1.00800           0   0.00000     -0.301140E-02
      2290 MEMB     19       OYPE     C39      CEL1    -0.150000       12.0110           0   0.00000     -0.301140E-02
      2291 MEMB     19       OYPE     H9X      HEL1     0.150000       1.00800           0   0.00000     -0.301140E-02
      2292 MEMB     19       OYPE     C310     CEL1    -0.150000       12.0110           0   0.00000     -0.301140E-02
      2293 MEMB     19       OYPE     H10X     HEL1     0.150000       1.00800           0   0.00000     -0.301140E-02
      2294 MEMB     19       OYPE     C311     CTL2    -0.180000       12.0110           0   0.00000     -0.301140E-02
      2295 MEMB     19       OYPE     H11X     HAL2     0.900000E-01   1.00800           0   0.00000     -0.301140E-02
      2296 MEMB     19       OYPE     H11Y     HAL2     0.900000E-01   1.00800           0   0.00000     -0.301140E-02
      2297 MEMB     19       OYPE     C312     CTL2    -0.180000       12.0110           0   0.00000     -0.301140E-02
      2298 MEMB     19       OYPE     H12X     HAL2     0.900000E-01   1.00800           0   0.00000     -0.301140E-02
      2299 MEMB     19       OYPE     H12Y     HAL2     0.900000E-01   1.00800           0   0.00000     -0.301140E-02
      2300 MEMB     19       OYPE     C313     CTL2    -0.180000       12.0110           0   0.00000     -0.301140E-02
      2301 MEMB     19       OYPE     H13X     HAL2     0.900000E-01   1.00800           0   0.00000     -0.301140E-02
      2302 MEMB     19       OYPE     H13Y     HAL2     0.900000E-01   1.00800           0   0.00000     -0.301140E-02
      2303 MEMB     19       OYPE     C314     CTL2    -0.180000       12.0110           0   0.00000     -0.301140E-02
      2304 MEMB     19       OYPE     H14X     HAL2     0.900000E-01   1.00800           0   0.00000     -0.301140E-02
      2305 MEMB     19       OYPE     H14Y     HAL2     0.900000E-01   1.00800           0   0.00000     -0.301140E-02
      2306 MEMB     19       OYPE     C315     CTL2    -0.180000       12.0110           0   0.00000     -0.301140E-02
      2307 MEMB     19       OYPE     H15X     HAL2     0.900000E-01   1.00800           0   0.00000     -0.301140E-02
      2308 MEMB     19       OYPE     H15Y     HAL2     0.900000E-01   1.00800           0   0.00000     -0.301140E-02
      2309 MEMB     19       OYPE     C316     CTL2    -0.180000       12.0110           0   0.00000     -0.301140E-02
      2310 MEMB     19       OYPE     H16X     HAL2     0.900000E-01   1.00800           0   0.00000     -0.301140E-02
      2311 MEMB     19       OYPE     H16Y     HAL2     0.900000E-01   1.00800           0   0.00000     -0.301140E-02
      2312 MEMB     19       OYPE     C317     CTL2    -0.180000       12.0110           0   0.00000     -0.301140E-02
      2313 MEMB     19       OYPE     H17X     HAL2     0.900000E-01   1.00800           0   0.00000     -0.301140E-02
      2314 MEMB     19       OYPE     H17Y     HAL2     0.900000E-01   1.00800           0   0.00000     -0.301140E-02
      2315 MEMB     19       OYPE     C318     CTL3    -0.270000       12.0110           0   0.00000     -0.301140E-02
      2316 MEMB     19       OYPE     H18X     HAL3     0.900000E-01   1.00800           0   0.00000     -0.301140E-02
      2317 MEMB     19       OYPE     H18Y     HAL3     0.900000E-01   1.00800           0   0.00000     -0.301140E-02
      2318 MEMB     19       OYPE     H18Z     HAL3     0.900000E-01   1.00800           0   0.00000     -0.301140E-02
      2319 MEMB     20       POPE     N        NH3L    -0.300000       14.0070           0   0.00000     -0.301140E-02
      2320 MEMB     20       POPE     HN1      HCL      0.330000       1.00800           0   0.00000     -0.301140E-02
      2321 MEMB     20       POPE     HN2      HCL      0.330000       1.00800           0   0.00000     -0.301140E-02
      2322 MEMB     20       POPE     HN3      HCL      0.330000       1.00800           0   0.00000     -0.301140E-02
      2323 MEMB     20       POPE     C12      CTL2     0.130000       12.0110           0   0.00000     -0.301140E-02
      2324 MEMB     20       POPE     H12A     HAL2     0.900000E-01   1.00800           0   0.00000     -0.301140E-02
      2325 MEMB     20       POPE     H12B     HAL2     0.900000E-01   1.00800           0   0.00000     -0.301140E-02
      2326 MEMB     20       POPE     C11      CTL2    -0.800000E-01   12.0110           0   0.00000     -0.301140E-02
      2327 MEMB     20       POPE     H11A     HAL2     0.900000E-01   1.00800           0   0.00000     -0.301140E-02
      2328 MEMB     20       POPE     H11B     HAL2     0.900000E-01   1.00800           0   0.00000     -0.301140E-02
      2329 MEMB     20       POPE     P        PL        1.50000       30.9740           0   0.00000     -0.301140E-02
      2330 MEMB     20       POPE     O13      O2L     -0.780000       15.9994           0   0.00000     -0.301140E-02
      2331 MEMB     20       POPE     O14      O2L     -0.780000       15.9994           0   0.00000     -0.301140E-02
      2332 MEMB     20       POPE     O11      OSLP    -0.570000       15.9994           0   0.00000     -0.301140E-02
      2333 MEMB     20       POPE     O12      OSLP    -0.570000       15.9994           0   0.00000     -0.301140E-02
      2334 MEMB     20       POPE     C1       CTL2    -0.800000E-01   12.0110           0   0.00000     -0.301140E-02
      2335 MEMB     20       POPE     HA       HAL2     0.900000E-01   1.00800           0   0.00000     -0.301140E-02
      2336 MEMB     20       POPE     HB       HAL2     0.900000E-01   1.00800           0   0.00000     -0.301140E-02
      2337 MEMB     20       POPE     C2       CTL1     0.170000       12.0110           0   0.00000     -0.301140E-02
      2338 MEMB     20       POPE     HS       HAL1     0.900000E-01   1.00800           0   0.00000     -0.301140E-02
      2339 MEMB     20       POPE     O21      OSL     -0.490000       15.9994           0   0.00000     -0.301140E-02
      2340 MEMB     20       POPE     C21      CL       0.900000       12.0110           0   0.00000     -0.301140E-02
      2341 MEMB     20       POPE     O22      OBL     -0.630000       15.9994           0   0.00000     -0.301140E-02
      2342 MEMB     20       POPE     C22      CTL2    -0.220000       12.0110           0   0.00000     -0.301140E-02
      2343 MEMB     20       POPE     H2R      HAL2     0.900000E-01   1.00800           0   0.00000     -0.301140E-02
      2344 MEMB     20       POPE     H2S      HAL2     0.900000E-01   1.00800           0   0.00000     -0.301140E-02
      2345 MEMB     20       POPE     C3       CTL2     0.800000E-01   12.0110           0   0.00000     -0.301140E-02
      2346 MEMB     20       POPE     HX       HAL2     0.900000E-01   1.00800           0   0.00000     -0.301140E-02
      2347 MEMB     20       POPE     HY       HAL2     0.900000E-01   1.00800           0   0.00000     -0.301140E-02
      2348 MEMB     20       POPE     O31      OSL     -0.490000       15.9994           0   0.00000     -0.301140E-02
      2349 MEMB     20       POPE     C31      CL       0.900000       12.0110           0   0.00000     -0.301140E-02
      2350 MEMB     20       POPE     O32      OBL     -0.630000       15.9994           0   0.00000     -0.301140E-02
      2351 MEMB     20       POPE     C32      CTL2    -0.220000       12.0110           0   0.00000     -0.301140E-02
      2352 MEMB     20       POPE     H2X      HAL2     0.900000E-01   1.00800           0   0.00000     -0.301140E-02
      2353 MEMB     20       POPE     H2Y      HAL2     0.900000E-01   1.00800           0   0.00000     -0.301140E-02
      2354 MEMB     20       POPE     C23      CTL2    -0.180000       12.0110           0   0.00000     -0.301140E-02
      2355 MEMB     20       POPE     H3R      HAL2     0.900000E-01   1.00800           0   0.00000     -0.301140E-02
      2356 MEMB     20       POPE     H3S      HAL2     0.900000E-01   1.00800           0   0.00000     -0.301140E-02
      2357 MEMB     20       POPE     C24      CTL2    -0.180000       12.0110           0   0.00000     -0.301140E-02
      2358 MEMB     20       POPE     H4R      HAL2     0.900000E-01   1.00800           0   0.00000     -0.301140E-02
      2359 MEMB     20       POPE     H4S      HAL2     0.900000E-01   1.00800           0   0.00000     -0.301140E-02
      2360 MEMB     20       POPE     C25      CTL2    -0.180000       12.0110           0   0.00000     -0.301140E-02
      2361 MEMB     20       POPE     H5R      HAL2     0.900000E-01   1.00800           0   0.00000     -0.301140E-02
      2362 MEMB     20       POPE     H5S      HAL2     0.900000E-01   1.00800           0   0.00000     -0.301140E-02
      2363 MEMB     20       POPE     C26      CTL2    -0.180000       12.0110           0   0.00000     -0.301140E-02
      2364 MEMB     20       POPE     H6R      HAL2     0.900000E-01   1.00800           0   0.00000     -0.301140E-02
      2365 MEMB     20       POPE     H6S      HAL2     0.900000E-01   1.00800           0   0.00000     -0.301140E-02
      2366 MEMB     20       POPE     C27      CTL2    -0.180000       12.0110           0   0.00000     -0.301140E-02
      2367 MEMB     20       POPE     H7R      HAL2     0.900000E-01   1.00800           0   0.00000     -0.301140E-02
      2368 MEMB     20       POPE     H7S      HAL2     0.900000E-01   1.00800           0   0.00000     -0.301140E-02
      2369 MEMB     20       POPE     C28      CTL2    -0.180000       12.0110           0   0.00000     -0.301140E-02
      2370 MEMB     20       POPE     H8R      HAL2     0.900000E-01   1.00800           0   0.00000     -0.301140E-02
      2371 MEMB     20       POPE     H8S      HAL2     0.900000E-01   1.00800           0   0.00000     -0.301140E-02
      2372 MEMB     20       POPE     C29      CEL1    -0.150000       12.0110           0   0.00000     -0.301140E-02
      2373 MEMB     20       POPE     H91      HEL1     0.150000       1.00800           0   0.00000     -0.301140E-02
      2374 MEMB     20       POPE     C210     CEL1    -0.150000       12.0110           0   0.00000     -0.301140E-02
      2375 MEMB     20       POPE     H101     HEL1     0.150000       1.00800           0   0.00000     -0.301140E-02
      2376 MEMB     20       POPE     C211     CTL2    -0.180000       12.0110           0   0.00000     -0.301140E-02
      2377 MEMB     20       POPE     H11R     HAL2     0.900000E-01   1.00800           0   0.00000     -0.301140E-02
      2378 MEMB     20       POPE     H11S     HAL2     0.900000E-01   1.00800           0   0.00000     -0.301140E-02
      2379 MEMB     20       POPE     C212     CTL2    -0.180000       12.0110           0   0.00000     -0.301140E-02
      2380 MEMB     20       POPE     H12R     HAL2     0.900000E-01   1.00800           0   0.00000     -0.301140E-02
      2381 MEMB     20       POPE     H12S     HAL2     0.900000E-01   1.00800           0   0.00000     -0.301140E-02
      2382 MEMB     20       POPE     C213     CTL2    -0.180000       12.0110           0   0.00000     -0.301140E-02
      2383 MEMB     20       POPE     H13R     HAL2     0.900000E-01   1.00800           0   0.00000     -0.301140E-02
      2384 MEMB     20       POPE     H13S     HAL2     0.900000E-01   1.00800           0   0.00000     -0.301140E-02
      2385 MEMB     20       POPE     C214     CTL2    -0.180000       12.0110           0   0.00000     -0.301140E-02
      2386 MEMB     20       POPE     H14R     HAL2     0.900000E-01   1.00800           0   0.00000     -0.301140E-02
      2387 MEMB     20       POPE     H14S     HAL2     0.900000E-01   1.00800           0   0.00000     -0.301140E-02
      2388 MEMB     20       POPE     C215     CTL2    -0.180000       12.0110           0   0.00000     -0.301140E-02
      2389 MEMB     20       POPE     H15R     HAL2     0.900000E-01   1.00800           0   0.00000     -0.301140E-02
      2390 MEMB     20       POPE     H15S     HAL2     0.900000E-01   1.00800           0   0.00000     -0.301140E-02
      2391 MEMB     20       POPE     C216     CTL2    -0.180000       12.0110           0   0.00000     -0.301140E-02
      2392 MEMB     20       POPE     H16R     HAL2     0.900000E-01   1.00800           0   0.00000     -0.301140E-02
      2393 MEMB     20       POPE     H16S     HAL2     0.900000E-01   1.00800           0   0.00000     -0.301140E-02
      2394 MEMB     20       POPE     C217     CTL2    -0.180000       12.0110           0   0.00000     -0.301140E-02
      2395 MEMB     20       POPE     H17R     HAL2     0.900000E-01   1.00800           0   0.00000     -0.301140E-02
      2396 MEMB     20       POPE     H17S     HAL2     0.900000E-01   1.00800           0   0.00000     -0.301140E-02
      2397 MEMB     20       POPE     C218     CTL3    -0.270000       12.0110           0   0.00000     -0.301140E-02
      2398 MEMB     20       POPE     H18R     HAL3     0.900000E-01   1.00800           0   0.00000     -0.301140E-02
      2399 MEMB     20       POPE     H18S     HAL3     0.900000E-01   1.00800           0   0.00000     -0.301140E-02
      2400 MEMB     20       POPE     H18T     HAL3     0.900000E-01   1.00800           0   0.00000     -0.301140E-02
      2401 MEMB     20       POPE     C33      CTL2    -0.180000       12.0110           0   0.00000     -0.301140E-02
      2402 MEMB     20       POPE     H3X      HAL2     0.900000E-01   1.00800           0   0.00000     -0.301140E-02
      2403 MEMB     20       POPE     H3Y      HAL2     0.900000E-01   1.00800           0   0.00000     -0.301140E-02
      2404 MEMB     20       POPE     C34      CTL2    -0.180000       12.0110           0   0.00000     -0.301140E-02
      2405 MEMB     20       POPE     H4X      HAL2     0.900000E-01   1.00800           0   0.00000     -0.301140E-02
      2406 MEMB     20       POPE     H4Y      HAL2     0.900000E-01   1.00800           0   0.00000     -0.301140E-02
      2407 MEMB     20       POPE     C35      CTL2    -0.180000       12.0110           0   0.00000     -0.301140E-02
      2408 MEMB     20       POPE     H5X      HAL2     0.900000E-01   1.00800           0   0.00000     -0.301140E-02
      2409 MEMB     20       POPE     H5Y      HAL2     0.900000E-01   1.00800           0   0.00000     -0.301140E-02
      2410 MEMB     20       POPE     C36      CTL2    -0.180000       12.0110           0   0.00000     -0.301140E-02
      2411 MEMB     20       POPE     H6X      HAL2     0.900000E-01   1.00800           0   0.00000     -0.301140E-02
      2412 MEMB     20       POPE     H6Y      HAL2     0.900000E-01   1.00800           0   0.00000     -0.301140E-02
      2413 MEMB     20       POPE     C37      CTL2    -0.180000       12.0110           0   0.00000     -0.301140E-02
      2414 MEMB     20       POPE     H7X      HAL2     0.900000E-01   1.00800           0   0.00000     -0.301140E-02
      2415 MEMB     20       POPE     H7Y      HAL2     0.900000E-01   1.00800           0   0.00000     -0.301140E-02
      2416 MEMB     20       POPE     C38      CTL2    -0.180000       12.0110           0   0.00000     -0.301140E-02
      2417 MEMB     20       POPE     H8X      HAL2     0.900000E-01   1.00800           0   0.00000     -0.301140E-02
      2418 MEMB     20       POPE     H8Y      HAL2     0.900000E-01   1.00800           0   0.00000     -0.301140E-02
      2419 MEMB     20       POPE     C39      CTL2    -0.180000       12.0110           0   0.00000     -0.301140E-02
      2420 MEMB     20       POPE     H9X      HAL2     0.900000E-01   1.00800           0   0.00000     -0.301140E-02
      2421 MEMB     20       POPE     H9Y      HAL2     0.900000E-01   1.00800           0   0.00000     -0.301140E-02
      2422 MEMB     20       POPE     C310     CTL2    -0.180000       12.0110           0   0.00000     -0.301140E-02
      2423 MEMB     20       POPE     H10X     HAL2     0.900000E-01   1.00800           0   0.00000     -0.301140E-02
      2424 MEMB     20       POPE     H10Y     HAL2     0.900000E-01   1.00800           0   0.00000     -0.301140E-02
      2425 MEMB     20       POPE     C311     CTL2    -0.180000       12.0110           0   0.00000     -0.301140E-02
      2426 MEMB     20       POPE     H11X     HAL2     0.900000E-01   1.00800           0   0.00000     -0.301140E-02
      2427 MEMB     20       POPE     H11Y     HAL2     0.900000E-01   1.00800           0   0.00000     -0.301140E-02
      2428 MEMB     20       POPE     C312     CTL2    -0.180000       12.0110           0   0.00000     -0.301140E-02
      2429 MEMB     20       POPE     H12X     HAL2     0.900000E-01   1.00800           0   0.00000     -0.301140E-02
      2430 MEMB     20       POPE     H12Y     HAL2     0.900000E-01   1.00800           0   0.00000     -0.301140E-02
      2431 MEMB     20       POPE     C313     CTL2    -0.180000       12.0110           0   0.00000     -0.301140E-02
      2432 MEMB     20       POPE     H13X     HAL2     0.900000E-01   1.00800           0   0.00000     -0.301140E-02
      2433 MEMB     20       POPE     H13Y     HAL2     0.900000E-01   1.00800           0   0.00000     -0.301140E-02
      2434 MEMB     20       POPE     C314     CTL2    -0.180000       12.0110           0   0.00000     -0.301140E-02
      2435 MEMB     20       POPE     H14X     HAL2     0.900000E-01   1.00800           0   0.00000     -0.301140E-02
      2436 MEMB     20       POPE     H14Y     HAL2     0.900000E-01   1.00800           0   0.00000     -0.301140E-02
      2437 MEMB     20       POPE     C315     CTL2    -0.180000       12.0110           0   0.00000     -0.301140E-02
      2438 MEMB     20       POPE     H15X     HAL2     0.900000E-01   1.00800           0   0.00000     -0.301140E-02
      2439 MEMB     20       POPE     H15Y     HAL2     0.900000E-01   1.00800           0   0.00000     -0.301140E-02
      2440 MEMB     20       POPE     C316     CTL3    -0.270000       12.0110           0   0.00000     -0.301140E-02
      2441 MEMB     20       POPE     H16X     HAL3     0.900000E-01   1.00800           0   0.00000     -0.301140E-02
      2442 MEMB     20       POPE     H16Y     HAL3     0.900000E-01   1.00800           0   0.00000     -0.301140E-02
      2443 MEMB     20       POPE     H16Z     HAL3     0.900000E-01   1.00800           0   0.00000     -0.301140E-02
      2444 MEMB     21       OYPE     N        NH3L    -0.300000       14.0070           0   0.00000     -0.301140E-02
      2445 MEMB     21       OYPE     HN1      HCL      0.330000       1.00800           0   0.00000     -0.301140E-02
      2446 MEMB     21       OYPE     HN2      HCL      0.330000       1.00800           0   0.00000     -0.301140E-02
      2447 MEMB     21       OYPE     HN3      HCL      0.330000       1.00800           0   0.00000     -0.301140E-02
      2448 MEMB     21       OYPE     C12      CTL2     0.130000       12.0110           0   0.00000     -0.301140E-02
      2449 MEMB     21       OYPE     H12A     HAL2     0.900000E-01   1.00800           0   0.00000     -0.301140E-02
      2450 MEMB     21       OYPE     H12B     HAL2     0.900000E-01   1.00800           0   0.00000     -0.301140E-02
      2451 MEMB     21       OYPE     C11      CTL2    -0.800000E-01   12.0110           0   0.00000     -0.301140E-02
      2452 MEMB     21       OYPE     H11A     HAL2     0.900000E-01   1.00800           0   0.00000     -0.301140E-02
      2453 MEMB     21       OYPE     H11B     HAL2     0.900000E-01   1.00800           0   0.00000     -0.301140E-02
      2454 MEMB     21       OYPE     P        PL        1.50000       30.9740           0   0.00000     -0.301140E-02
      2455 MEMB     21       OYPE     O13      O2L     -0.780000       15.9994           0   0.00000     -0.301140E-02
      2456 MEMB     21       OYPE     O14      O2L     -0.780000       15.9994           0   0.00000     -0.301140E-02
      2457 MEMB     21       OYPE     O11      OSLP    -0.570000       15.9994           0   0.00000     -0.301140E-02
      2458 MEMB     21       OYPE     O12      OSLP    -0.570000       15.9994           0   0.00000     -0.301140E-02
      2459 MEMB     21       OYPE     C1       CTL2    -0.800000E-01   12.0110           0   0.00000     -0.301140E-02
      2460 MEMB     21       OYPE     HA       HAL2     0.900000E-01   1.00800           0   0.00000     -0.301140E-02
      2461 MEMB     21       OYPE     HB       HAL2     0.900000E-01   1.00800           0   0.00000     -0.301140E-02
      2462 MEMB     21       OYPE     C2       CTL1     0.170000       12.0110           0   0.00000     -0.301140E-02
      2463 MEMB     21       OYPE     HS       HAL1     0.900000E-01   1.00800           0   0.00000     -0.301140E-02
      2464 MEMB     21       OYPE     O21      OSL     -0.490000       15.9994           0   0.00000     -0.301140E-02
      2465 MEMB     21       OYPE     C21      CL       0.900000       12.0110           0   0.00000     -0.301140E-02
      2466 MEMB     21       OYPE     O22      OBL     -0.630000       15.9994           0   0.00000     -0.301140E-02
      2467 MEMB     21       OYPE     C22      CTL2    -0.220000       12.0110           0   0.00000     -0.301140E-02
      2468 MEMB     21       OYPE     H2R      HAL2     0.900000E-01   1.00800           0   0.00000     -0.301140E-02
      2469 MEMB     21       OYPE     H2S      HAL2     0.900000E-01   1.00800           0   0.00000     -0.301140E-02
      2470 MEMB     21       OYPE     C3       CTL2     0.800000E-01   12.0110           0   0.00000     -0.301140E-02
      2471 MEMB     21       OYPE     HX       HAL2     0.900000E-01   1.00800           0   0.00000     -0.301140E-02
      2472 MEMB     21       OYPE     HY       HAL2     0.900000E-01   1.00800           0   0.00000     -0.301140E-02
      2473 MEMB     21       OYPE     O31      OSL     -0.490000       15.9994           0   0.00000     -0.301140E-02
      2474 MEMB     21       OYPE     C31      CL       0.900000       12.0110           0   0.00000     -0.301140E-02
      2475 MEMB     21       OYPE     O32      OBL     -0.630000       15.9994           0   0.00000     -0.301140E-02
      2476 MEMB     21       OYPE     C32      CTL2    -0.220000       12.0110           0   0.00000     -0.301140E-02
      2477 MEMB     21       OYPE     H2X      HAL2     0.900000E-01   1.00800           0   0.00000     -0.301140E-02
      2478 MEMB     21       OYPE     H2Y      HAL2     0.900000E-01   1.00800           0   0.00000     -0.301140E-02
      2479 MEMB     21       OYPE     C23      CTL2    -0.180000       12.0110           0   0.00000     -0.301140E-02
      2480 MEMB     21       OYPE     H3R      HAL2     0.900000E-01   1.00800           0   0.00000     -0.301140E-02
      2481 MEMB     21       OYPE     H3S      HAL2     0.900000E-01   1.00800           0   0.00000     -0.301140E-02
      2482 MEMB     21       OYPE     C24      CTL2    -0.180000       12.0110           0   0.00000     -0.301140E-02
      2483 MEMB     21       OYPE     H4R      HAL2     0.900000E-01   1.00800           0   0.00000     -0.301140E-02
      2484 MEMB     21       OYPE     H4S      HAL2     0.900000E-01   1.00800           0   0.00000     -0.301140E-02
      2485 MEMB     21       OYPE     C25      CTL2    -0.180000       12.0110           0   0.00000     -0.301140E-02
      2486 MEMB     21       OYPE     H5R      HAL2     0.900000E-01   1.00800           0   0.00000     -0.301140E-02
      2487 MEMB     21       OYPE     H5S      HAL2     0.900000E-01   1.00800           0   0.00000     -0.301140E-02
      2488 MEMB     21       OYPE     C26      CTL2    -0.180000       12.0110           0   0.00000     -0.301140E-02
      2489 MEMB     21       OYPE     H6R      HAL2     0.900000E-01   1.00800           0   0.00000     -0.301140E-02
      2490 MEMB     21       OYPE     H6S      HAL2     0.900000E-01   1.00800           0   0.00000     -0.301140E-02
      2491 MEMB     21       OYPE     C27      CTL2    -0.180000       12.0110           0   0.00000     -0.301140E-02
      2492 MEMB     21       OYPE     H7R      HAL2     0.900000E-01   1.00800           0   0.00000     -0.301140E-02
      2493 MEMB     21       OYPE     H7S      HAL2     0.900000E-01   1.00800           0   0.00000     -0.301140E-02
      2494 MEMB     21       OYPE     C28      CTL2    -0.180000       12.0110           0   0.00000     -0.301140E-02
      2495 MEMB     21       OYPE     H8R      HAL2     0.900000E-01   1.00800           0   0.00000     -0.301140E-02
      2496 MEMB     21       OYPE     H8S      HAL2     0.900000E-01   1.00800           0   0.00000     -0.301140E-02
      2497 MEMB     21       OYPE     C29      CEL1    -0.150000       12.0110           0   0.00000     -0.301140E-02
      2498 MEMB     21       OYPE     H9R      HEL1     0.150000       1.00800           0   0.00000     -0.301140E-02
      2499 MEMB     21       OYPE     C210     CEL1    -0.150000       12.0110           0   0.00000     -0.301140E-02
      2500 MEMB     21       OYPE     H10R     HEL1     0.150000       1.00800           0   0.00000     -0.301140E-02
      2501 MEMB     21       OYPE     C211     CTL2    -0.180000       12.0110           0   0.00000     -0.301140E-02
      2502 MEMB     21       OYPE     H11R     HAL2     0.900000E-01   1.00800           0   0.00000     -0.301140E-02
      2503 MEMB     21       OYPE     H11S     HAL2     0.900000E-01   1.00800           0   0.00000     -0.301140E-02
      2504 MEMB     21       OYPE     C212     CTL2    -0.180000       12.0110           0   0.00000     -0.301140E-02
      2505 MEMB     21       OYPE     H12R     HAL2     0.900000E-01   1.00800           0   0.00000     -0.301140E-02
      2506 MEMB     21       OYPE     H12S     HAL2     0.900000E-01   1.00800           0   0.00000     -0.301140E-02
      2507 MEMB     21       OYPE     C213     CTL2    -0.180000       12.0110           0   0.00000     -0.301140E-02
      2508 MEMB     21       OYPE     H13R     HAL2     0.900000E-01   1.00800           0   0.00000     -0.301140E-02
      2509 MEMB     21       OYPE     H13S     HAL2     0.900000E-01   1.00800           0   0.00000     -0.301140E-02
      2510 MEMB     21       OYPE     C214     CTL2    -0.180000       12.0110           0   0.00000     -0.301140E-02
      2511 MEMB     21       OYPE     H14R     HAL2     0.900000E-01   1.00800           0   0.00000     -0.301140E-02
      2512 MEMB     21       OYPE     H14S     HAL2     0.900000E-01   1.00800           0   0.00000     -0.301140E-02
      2513 MEMB     21       OYPE     C215     CTL2    -0.180000       12.0110           0   0.00000     -0.301140E-02
      2514 MEMB     21       OYPE     H15R     HAL2     0.900000E-01   1.00800           0   0.00000     -0.301140E-02
      2515 MEMB     21       OYPE     H15S     HAL2     0.900000E-01   1.00800           0   0.00000     -0.301140E-02
      2516 MEMB     21       OYPE     C216     CTL3    -0.270000       12.0110           0   0.00000     -0.301140E-02
      2517 MEMB     21       OYPE     H16R     HAL3     0.900000E-01   1.00800           0   0.00000     -0.301140E-02
      2518 MEMB     21       OYPE     H16S     HAL3     0.900000E-01   1.00800           0   0.00000     -0.301140E-02
      2519 MEMB     21       OYPE     H16T     HAL3     0.900000E-01   1.00800           0   0.00000     -0.301140E-02
      2520 MEMB     21       OYPE     C33      CTL2    -0.180000       12.0110           0   0.00000     -0.301140E-02
      2521 MEMB     21       OYPE     H3X      HAL2     0.900000E-01   1.00800           0   0.00000     -0.301140E-02
      2522 MEMB     21       OYPE     H3Y      HAL2     0.900000E-01   1.00800           0   0.00000     -0.301140E-02
      2523 MEMB     21       OYPE     C34      CTL2    -0.180000       12.0110           0   0.00000     -0.301140E-02
      2524 MEMB     21       OYPE     H4X      HAL2     0.900000E-01   1.00800           0   0.00000     -0.301140E-02
      2525 MEMB     21       OYPE     H4Y      HAL2     0.900000E-01   1.00800           0   0.00000     -0.301140E-02
      2526 MEMB     21       OYPE     C35      CTL2    -0.180000       12.0110           0   0.00000     -0.301140E-02
      2527 MEMB     21       OYPE     H5X      HAL2     0.900000E-01   1.00800           0   0.00000     -0.301140E-02
      2528 MEMB     21       OYPE     H5Y      HAL2     0.900000E-01   1.00800           0   0.00000     -0.301140E-02
      2529 MEMB     21       OYPE     C36      CTL2    -0.180000       12.0110           0   0.00000     -0.301140E-02
      2530 MEMB     21       OYPE     H6X      HAL2     0.900000E-01   1.00800           0   0.00000     -0.301140E-02
      2531 MEMB     21       OYPE     H6Y      HAL2     0.900000E-01   1.00800           0   0.00000     -0.301140E-02
      2532 MEMB     21       OYPE     C37      CTL2    -0.180000       12.0110           0   0.00000     -0.301140E-02
      2533 MEMB     21       OYPE     H7X      HAL2     0.900000E-01   1.00800           0   0.00000     -0.301140E-02
      2534 MEMB     21       OYPE     H7Y      HAL2     0.900000E-01   1.00800           0   0.00000     -0.301140E-02
      2535 MEMB     21       OYPE     C38      CTL2    -0.180000       12.0110           0   0.00000     -0.301140E-02
      2536 MEMB     21       OYPE     H8X      HAL2     0.900000E-01   1.00800           0   0.00000     -0.301140E-02
      2537 MEMB     21       OYPE     H8Y      HAL2     0.900000E-01   1.00800           0   0.00000     -0.301140E-02
      2538 MEMB     21       OYPE     C39      CEL1    -0.150000       12.0110           0   0.00000     -0.301140E-02
      2539 MEMB     21       OYPE     H9X      HEL1     0.150000       1.00800           0   0.00000     -0.301140E-02
      2540 MEMB     21       OYPE     C310     CEL1    -0.150000       12.0110           0   0.00000     -0.301140E-02
      2541 MEMB     21       OYPE     H10X     HEL1     0.150000       1.00800           0   0.00000     -0.301140E-02
      2542 MEMB     21       OYPE     C311     CTL2    -0.180000       12.0110           0   0.00000     -0.301140E-02
      2543 MEMB     21       OYPE     H11X     HAL2     0.900000E-01   1.00800           0   0.00000     -0.301140E-02
      2544 MEMB     21       OYPE     H11Y     HAL2     0.900000E-01   1.00800           0   0.00000     -0.301140E-02
      2545 MEMB     21       OYPE     C312     CTL2    -0.180000       12.0110           0   0.00000     -0.301140E-02
      2546 MEMB     21       OYPE     H12X     HAL2     0.900000E-01   1.00800           0   0.00000     -0.301140E-02
      2547 MEMB     21       OYPE     H12Y     HAL2     0.900000E-01   1.00800           0   0.00000     -0.301140E-02
      2548 MEMB     21       OYPE     C313     CTL2    -0.180000       12.0110           0   0.00000     -0.301140E-02
      2549 MEMB     21       OYPE     H13X     HAL2     0.900000E-01   1.00800           0   0.00000     -0.301140E-02
      2550 MEMB     21       OYPE     H13Y     HAL2     0.900000E-01   1.00800           0   0.00000     -0.301140E-02
      2551 MEMB     21       OYPE     C314     CTL2    -0.180000       12.0110           0   0.00000     -0.301140E-02
      2552 MEMB     21       OYPE     H14X     HAL2     0.900000E-01   1.00800           0   0.00000     -0.301140E-02
      2553 MEMB     21       OYPE     H14Y     HAL2     0.900000E-01   1.00800           0   0.00000     -0.301140E-02
      2554 MEMB     21       OYPE     C315     CTL2    -0.180000       12.0110           0   0.00000     -0.301140E-02
      2555 MEMB     21       OYPE     H15X     HAL2     0.900000E-01   1.00800           0   0.00000     -0.301140E-02
      2556 MEMB     21       OYPE     H15Y     HAL2     0.900000E-01   1.00800           0   0.00000     -0.301140E-02
      2557 MEMB     21       OYPE     C316     CTL2    -0.180000       12.0110           0   0.00000     -0.301140E-02
      2558 MEMB     21       OYPE     H16X     HAL2     0.900000E-01   1.00800           0   0.00000     -0.301140E-02
      2559 MEMB     21       OYPE     H16Y     HAL2     0.900000E-01   1.00800           0   0.00000     -0.301140E-02
      2560 MEMB     21       OYPE     C317     CTL2    -0.180000       12.0110           0   0.00000     -0.301140E-02
      2561 MEMB     21       OYPE     H17X     HAL2     0.900000E-01   1.00800           0   0.00000     -0.301140E-02
      2562 MEMB     21       OYPE     H17Y     HAL2     0.900000E-01   1.00800           0   0.00000     -0.301140E-02
      2563 MEMB     21       OYPE     C318     CTL3    -0.270000       12.0110           0   0.00000     -0.301140E-02
      2564 MEMB     21       OYPE     H18X     HAL3     0.900000E-01   1.00800           0   0.00000     -0.301140E-02
      2565 MEMB     21       OYPE     H18Y     HAL3     0.900000E-01   1.00800           0   0.00000     -0.301140E-02
      2566 MEMB     21       OYPE     H18Z     HAL3     0.900000E-01   1.00800           0   0.00000     -0.301140E-02
      2567 MEMB     22       PMPE     N        NH3L    -0.300000       14.0070           0   0.00000     -0.301140E-02
      2568 MEMB     22       PMPE     HN1      HCL      0.330000       1.00800           0   0.00000     -0.301140E-02
      2569 MEMB     22       PMPE     HN2      HCL      0.330000       1.00800           0   0.00000     -0.301140E-02
      2570 MEMB     22       PMPE     HN3      HCL      0.330000       1.00800           0   0.00000     -0.301140E-02
      2571 MEMB     22       PMPE     C12      CTL2     0.130000       12.0110           0   0.00000     -0.301140E-02
      2572 MEMB     22       PMPE     H12A     HAL2     0.900000E-01   1.00800           0   0.00000     -0.301140E-02
      2573 MEMB     22       PMPE     H12B     HAL2     0.900000E-01   1.00800           0   0.00000     -0.301140E-02
      2574 MEMB     22       PMPE     C11      CTL2    -0.800000E-01   12.0110           0   0.00000     -0.301140E-02
      2575 MEMB     22       PMPE     H11A     HAL2     0.900000E-01   1.00800           0   0.00000     -0.301140E-02
      2576 MEMB     22       PMPE     H11B     HAL2     0.900000E-01   1.00800           0   0.00000     -0.301140E-02
      2577 MEMB     22       PMPE     P        PL        1.50000       30.9740           0   0.00000     -0.301140E-02
      2578 MEMB     22       PMPE     O13      O2L     -0.780000       15.9994           0   0.00000     -0.301140E-02
      2579 MEMB     22       PMPE     O14      O2L     -0.780000       15.9994           0   0.00000     -0.301140E-02
      2580 MEMB     22       PMPE     O11      OSLP    -0.570000       15.9994           0   0.00000     -0.301140E-02
      2581 MEMB     22       PMPE     O12      OSLP    -0.570000       15.9994           0   0.00000     -0.301140E-02
      2582 MEMB     22       PMPE     C1       CTL2    -0.800000E-01   12.0110           0   0.00000     -0.301140E-02
      2583 MEMB     22       PMPE     HA       HAL2     0.900000E-01   1.00800           0   0.00000     -0.301140E-02
      2584 MEMB     22       PMPE     HB       HAL2     0.900000E-01   1.00800           0   0.00000     -0.301140E-02
      2585 MEMB     22       PMPE     C2       CTL1     0.170000       12.0110           0   0.00000     -0.301140E-02
      2586 MEMB     22       PMPE     HS       HAL1     0.900000E-01   1.00800           0   0.00000     -0.301140E-02
      2587 MEMB     22       PMPE     O21      OSL     -0.490000       15.9994           0   0.00000     -0.301140E-02
      2588 MEMB     22       PMPE     C21      CL       0.900000       12.0110           0   0.00000     -0.301140E-02
      2589 MEMB     22       PMPE     O22      OBL     -0.630000       15.9994           0   0.00000     -0.301140E-02
      2590 MEMB     22       PMPE     C22      CTL2    -0.220000       12.0110           0   0.00000     -0.301140E-02
      2591 MEMB     22       PMPE     H2R      HAL2     0.900000E-01   1.00800           0   0.00000     -0.301140E-02
      2592 MEMB     22       PMPE     H2S      HAL2     0.900000E-01   1.00800           0   0.00000     -0.301140E-02
      2593 MEMB     22       PMPE     C3       CTL2     0.800000E-01   12.0110           0   0.00000     -0.301140E-02
      2594 MEMB     22       PMPE     HX       HAL2     0.900000E-01   1.00800           0   0.00000     -0.301140E-02
      2595 MEMB     22       PMPE     HY       HAL2     0.900000E-01   1.00800           0   0.00000     -0.301140E-02
      2596 MEMB     22       PMPE     O31      OSL     -0.490000       15.9994           0   0.00000     -0.301140E-02
      2597 MEMB     22       PMPE     C31      CL       0.900000       12.0110           0   0.00000     -0.301140E-02
      2598 MEMB     22       PMPE     O32      OBL     -0.630000       15.9994           0   0.00000     -0.301140E-02
      2599 MEMB     22       PMPE     C32      CTL2    -0.220000       12.0110           0   0.00000     -0.301140E-02
      2600 MEMB     22       PMPE     H2X      HAL2     0.900000E-01   1.00800           0   0.00000     -0.301140E-02
      2601 MEMB     22       PMPE     H2Y      HAL2     0.900000E-01   1.00800           0   0.00000     -0.301140E-02
      2602 MEMB     22       PMPE     C23      CTL2    -0.180000       12.0110           0   0.00000     -0.301140E-02
      2603 MEMB     22       PMPE     H3R      HAL2     0.900000E-01   1.00800           0   0.00000     -0.301140E-02
      2604 MEMB     22       PMPE     H3S      HAL2     0.900000E-01   1.00800           0   0.00000     -0.301140E-02
      2605 MEMB     22       PMPE     C24      CTL2    -0.180000       12.0110           0   0.00000     -0.301140E-02
      2606 MEMB     22       PMPE     H4R      HAL2     0.900000E-01   1.00800           0   0.00000     -0.301140E-02
      2607 MEMB     22       PMPE     H4S      HAL2     0.900000E-01   1.00800           0   0.00000     -0.301140E-02
      2608 MEMB     22       PMPE     C25      CTL2    -0.180000       12.0110           0   0.00000     -0.301140E-02
      2609 MEMB     22       PMPE     H5R      HAL2     0.900000E-01   1.00800           0   0.00000     -0.301140E-02
      2610 MEMB     22       PMPE     H5S      HAL2     0.900000E-01   1.00800           0   0.00000     -0.301140E-02
      2611 MEMB     22       PMPE     C26      CTL2    -0.180000       12.0110           0   0.00000     -0.301140E-02
      2612 MEMB     22       PMPE     H6R      HAL2     0.900000E-01   1.00800           0   0.00000     -0.301140E-02
      2613 MEMB     22       PMPE     H6S      HAL2     0.900000E-01   1.00800           0   0.00000     -0.301140E-02
      2614 MEMB     22       PMPE     C27      CTL2    -0.180000       12.0110           0   0.00000     -0.301140E-02
      2615 MEMB     22       PMPE     H7R      HAL2     0.900000E-01   1.00800           0   0.00000     -0.301140E-02
      2616 MEMB     22       PMPE     H7S      HAL2     0.900000E-01   1.00800           0   0.00000     -0.301140E-02
      2617 MEMB     22       PMPE     C28      CTL2    -0.180000       12.0110           0   0.00000     -0.301140E-02
      2618 MEMB     22       PMPE     H8R      HAL2     0.900000E-01   1.00800           0   0.00000     -0.301140E-02
      2619 MEMB     22       PMPE     H8S      HAL2     0.900000E-01   1.00800           0   0.00000     -0.301140E-02
      2620 MEMB     22       PMPE     C29      CG3RC1  -0.900000E-01   12.0110           0   0.00000     -0.301140E-02
      2621 MEMB     22       PMPE     H9R      HGA1     0.900000E-01   1.00800           0   0.00000     -0.301140E-02
      2622 MEMB     22       PMPE     C217     CG3C31  -0.180000       12.0110           0   0.00000     -0.301140E-02
      2623 MEMB     22       PMPE     H17R     HGA2     0.900000E-01   1.00800           0   0.00000     -0.301140E-02
      2624 MEMB     22       PMPE     H17S     HGA2     0.900000E-01   1.00800           0   0.00000     -0.301140E-02
      2625 MEMB     22       PMPE     C210     CG3RC1  -0.900000E-01   12.0110           0   0.00000     -0.301140E-02
      2626 MEMB     22       PMPE     H10R     HGA1     0.900000E-01   1.00800           0   0.00000     -0.301140E-02
      2627 MEMB     22       PMPE     C211     CTL2    -0.180000       12.0110           0   0.00000     -0.301140E-02
      2628 MEMB     22       PMPE     H11R     HAL2     0.900000E-01   1.00800           0   0.00000     -0.301140E-02
      2629 MEMB     22       PMPE     H11S     HAL2     0.900000E-01   1.00800           0   0.00000     -0.301140E-02
      2630 MEMB     22       PMPE     C212     CTL2    -0.180000       12.0110           0   0.00000     -0.301140E-02
      2631 MEMB     22       PMPE     H12R     HAL2     0.900000E-01   1.00800           0   0.00000     -0.301140E-02
      2632 MEMB     22       PMPE     H12S     HAL2     0.900000E-01   1.00800           0   0.00000     -0.301140E-02
      2633 MEMB     22       PMPE     C213     CTL2    -0.180000       12.0110           0   0.00000     -0.301140E-02
      2634 MEMB     22       PMPE     H13R     HAL2     0.900000E-01   1.00800           0   0.00000     -0.301140E-02
      2635 MEMB     22       PMPE     H13S     HAL2     0.900000E-01   1.00800           0   0.00000     -0.301140E-02
      2636 MEMB     22       PMPE     C214     CTL2    -0.180000       12.0110           0   0.00000     -0.301140E-02
      2637 MEMB     22       PMPE     H14R     HAL2     0.900000E-01   1.00800           0   0.00000     -0.301140E-02
      2638 MEMB     22       PMPE     H14S     HAL2     0.900000E-01   1.00800           0   0.00000     -0.301140E-02
      2639 MEMB     22       PMPE     C215     CTL2    -0.180000       12.0110           0   0.00000     -0.301140E-02
      2640 MEMB     22       PMPE     H15R     HAL2     0.900000E-01   1.00800           0   0.00000     -0.301140E-02
      2641 MEMB     22       PMPE     H15S     HAL2     0.900000E-01   1.00800           0   0.00000     -0.301140E-02
      2642 MEMB     22       PMPE     C216     CTL3    -0.270000       12.0110           0   0.00000     -0.301140E-02
      2643 MEMB     22       PMPE     H16R     HAL3     0.900000E-01   1.00800           0   0.00000     -0.301140E-02
      2644 MEMB     22       PMPE     H16S     HAL3     0.900000E-01   1.00800           0   0.00000     -0.301140E-02
      2645 MEMB     22       PMPE     H16T     HAL3     0.900000E-01   1.00800           0   0.00000     -0.301140E-02
      2646 MEMB     22       PMPE     C33      CTL2    -0.180000       12.0110           0   0.00000     -0.301140E-02
      2647 MEMB     22       PMPE     H3X      HAL2     0.900000E-01   1.00800           0   0.00000     -0.301140E-02
      2648 MEMB     22       PMPE     H3Y      HAL2     0.900000E-01   1.00800           0   0.00000     -0.301140E-02
      2649 MEMB     22       PMPE     C34      CTL2    -0.180000       12.0110           0   0.00000     -0.301140E-02
      2650 MEMB     22       PMPE     H4X      HAL2     0.900000E-01   1.00800           0   0.00000     -0.301140E-02
      2651 MEMB     22       PMPE     H4Y      HAL2     0.900000E-01   1.00800           0   0.00000     -0.301140E-02
      2652 MEMB     22       PMPE     C35      CTL2    -0.180000       12.0110           0   0.00000     -0.301140E-02
      2653 MEMB     22       PMPE     H5X      HAL2     0.900000E-01   1.00800           0   0.00000     -0.301140E-02
      2654 MEMB     22       PMPE     H5Y      HAL2     0.900000E-01   1.00800           0   0.00000     -0.301140E-02
      2655 MEMB     22       PMPE     C36      CTL2    -0.180000       12.0110           0   0.00000     -0.301140E-02
      2656 MEMB     22       PMPE     H6X      HAL2     0.900000E-01   1.00800           0   0.00000     -0.301140E-02
      2657 MEMB     22       PMPE     H6Y      HAL2     0.900000E-01   1.00800           0   0.00000     -0.301140E-02
      2658 MEMB     22       PMPE     C37      CTL2    -0.180000       12.0110           0   0.00000     -0.301140E-02
      2659 MEMB     22       PMPE     H7X      HAL2     0.900000E-01   1.00800           0   0.00000     -0.301140E-02
      2660 MEMB     22       PMPE     H7Y      HAL2     0.900000E-01   1.00800           0   0.00000     -0.301140E-02
      2661 MEMB     22       PMPE     C38      CTL2    -0.180000       12.0110           0   0.00000     -0.301140E-02
      2662 MEMB     22       PMPE     H8X      HAL2     0.900000E-01   1.00800           0   0.00000     -0.301140E-02
      2663 MEMB     22       PMPE     H8Y      HAL2     0.900000E-01   1.00800           0   0.00000     -0.301140E-02
      2664 MEMB     22       PMPE     C39      CTL2    -0.180000       12.0110           0   0.00000     -0.301140E-02
      2665 MEMB     22       PMPE     H9X      HAL2     0.900000E-01   1.00800           0   0.00000     -0.301140E-02
      2666 MEMB     22       PMPE     H9Y      HAL2     0.900000E-01   1.00800           0   0.00000     -0.301140E-02
      2667 MEMB     22       PMPE     C310     CTL2    -0.180000       12.0110           0   0.00000     -0.301140E-02
      2668 MEMB     22       PMPE     H10X     HAL2     0.900000E-01   1.00800           0   0.00000     -0.301140E-02
      2669 MEMB     22       PMPE     H10Y     HAL2     0.900000E-01   1.00800           0   0.00000     -0.301140E-02
      2670 MEMB     22       PMPE     C311     CTL2    -0.180000       12.0110           0   0.00000     -0.301140E-02
      2671 MEMB     22       PMPE     H11X     HAL2     0.900000E-01   1.00800           0   0.00000     -0.301140E-02
      2672 MEMB     22       PMPE     H11Y     HAL2     0.900000E-01   1.00800           0   0.00000     -0.301140E-02
      2673 MEMB     22       PMPE     C312     CTL2    -0.180000       12.0110           0   0.00000     -0.301140E-02
      2674 MEMB     22       PMPE     H12X     HAL2     0.900000E-01   1.00800           0   0.00000     -0.301140E-02
      2675 MEMB     22       PMPE     H12Y     HAL2     0.900000E-01   1.00800           0   0.00000     -0.301140E-02
      2676 MEMB     22       PMPE     C313     CTL2    -0.180000       12.0110           0   0.00000     -0.301140E-02
      2677 MEMB     22       PMPE     H13X     HAL2     0.900000E-01   1.00800           0   0.00000     -0.301140E-02
      2678 MEMB     22       PMPE     H13Y     HAL2     0.900000E-01   1.00800           0   0.00000     -0.301140E-02
      2679 MEMB     22       PMPE     C314     CTL2    -0.180000       12.0110           0   0.00000     -0.301140E-02
      2680 MEMB     22       PMPE     H14X     HAL2     0.900000E-01   1.00800           0   0.00000     -0.301140E-02
      2681 MEMB     22       PMPE     H14Y     HAL2     0.900000E-01   1.00800           0   0.00000     -0.301140E-02
      2682 MEMB     22       PMPE     C315     CTL2    -0.180000       12.0110           0   0.00000     -0.301140E-02
      2683 MEMB     22       PMPE     H15X     HAL2     0.900000E-01   1.00800           0   0.00000     -0.301140E-02
      2684 MEMB     22       PMPE     H15Y     HAL2     0.900000E-01   1.00800           0   0.00000     -0.301140E-02
      2685 MEMB     22       PMPE     C316     CTL3    -0.270000       12.0110           0   0.00000     -0.301140E-02
      2686 MEMB     22       PMPE     H16X     HAL3     0.900000E-01   1.00800           0   0.00000     -0.301140E-02
      2687 MEMB     22       PMPE     H16Y     HAL3     0.900000E-01   1.00800           0   0.00000     -0.301140E-02
      2688 MEMB     22       PMPE     H16Z     HAL3     0.900000E-01   1.00800           0   0.00000     -0.301140E-02
      2689 MEMB     23       PYPG     C13      CTL2     0.500000E-01   12.0110           0   0.00000     -0.301140E-02
      2690 MEMB     23       PYPG     H13A     HAL2     0.900000E-01   1.00800           0   0.00000     -0.301140E-02
      2691 MEMB     23       PYPG     H13B     HAL2     0.900000E-01   1.00800           0   0.00000     -0.301140E-02
      2692 MEMB     23       PYPG     OC3      OHL     -0.660000       15.9994           0   0.00000     -0.301140E-02
      2693 MEMB     23       PYPG     HO3      HOL      0.430000       1.00800           0   0.00000     -0.301140E-02
      2694 MEMB     23       PYPG     C12      CTL1     0.140000       12.0110           0   0.00000     -0.301140E-02
      2695 MEMB     23       PYPG     H12A     HAL1     0.900000E-01   1.00800           0   0.00000     -0.301140E-02
      2696 MEMB     23       PYPG     OC2      OHL     -0.660000       15.9994           0   0.00000     -0.301140E-02
      2697 MEMB     23       PYPG     HO2      HOL      0.430000       1.00800           0   0.00000     -0.301140E-02
      2698 MEMB     23       PYPG     C11      CTL2    -0.800000E-01   12.0110           0   0.00000     -0.301140E-02
      2699 MEMB     23       PYPG     H11A     HAL2     0.900000E-01   1.00800           0   0.00000     -0.301140E-02
      2700 MEMB     23       PYPG     H11B     HAL2     0.900000E-01   1.00800           0   0.00000     -0.301140E-02
      2701 MEMB     23       PYPG     P        PL        1.50000       30.9740           0   0.00000     -0.301140E-02
      2702 MEMB     23       PYPG     O13      O2L     -0.780000       15.9994           0   0.00000     -0.301140E-02
      2703 MEMB     23       PYPG     O14      O2L     -0.780000       15.9994           0   0.00000     -0.301140E-02
      2704 MEMB     23       PYPG     O11      OSLP    -0.570000       15.9994           0   0.00000     -0.301140E-02
      2705 MEMB     23       PYPG     O12      OSLP    -0.570000       15.9994           0   0.00000     -0.301140E-02
      2706 MEMB     23       PYPG     C1       CTL2    -0.800000E-01   12.0110           0   0.00000     -0.301140E-02
      2707 MEMB     23       PYPG     HA       HAL2     0.900000E-01   1.00800           0   0.00000     -0.301140E-02
      2708 MEMB     23       PYPG     HB       HAL2     0.900000E-01   1.00800           0   0.00000     -0.301140E-02
      2709 MEMB     23       PYPG     C2       CTL1     0.170000       12.0110           0   0.00000     -0.301140E-02
      2710 MEMB     23       PYPG     HS       HAL1     0.900000E-01   1.00800           0   0.00000     -0.301140E-02
      2711 MEMB     23       PYPG     O21      OSL     -0.490000       15.9994           0   0.00000     -0.301140E-02
      2712 MEMB     23       PYPG     C21      CL       0.900000       12.0110           0   0.00000     -0.301140E-02
      2713 MEMB     23       PYPG     O22      OBL     -0.630000       15.9994           0   0.00000     -0.301140E-02
      2714 MEMB     23       PYPG     C22      CTL2    -0.220000       12.0110           0   0.00000     -0.301140E-02
      2715 MEMB     23       PYPG     H2R      HAL2     0.900000E-01   1.00800           0   0.00000     -0.301140E-02
      2716 MEMB     23       PYPG     H2S      HAL2     0.900000E-01   1.00800           0   0.00000     -0.301140E-02
      2717 MEMB     23       PYPG     C3       CTL2     0.800000E-01   12.0110           0   0.00000     -0.301140E-02
      2718 MEMB     23       PYPG     HX       HAL2     0.900000E-01   1.00800           0   0.00000     -0.301140E-02
      2719 MEMB     23       PYPG     HY       HAL2     0.900000E-01   1.00800           0   0.00000     -0.301140E-02
      2720 MEMB     23       PYPG     O31      OSL     -0.490000       15.9994           0   0.00000     -0.301140E-02
      2721 MEMB     23       PYPG     C31      CL       0.900000       12.0110           0   0.00000     -0.301140E-02
      2722 MEMB     23       PYPG     O32      OBL     -0.630000       15.9994           0   0.00000     -0.301140E-02
      2723 MEMB     23       PYPG     C32      CTL2    -0.220000       12.0110           0   0.00000     -0.301140E-02
      2724 MEMB     23       PYPG     H2X      HAL2     0.900000E-01   1.00800           0   0.00000     -0.301140E-02
      2725 MEMB     23       PYPG     H2Y      HAL2     0.900000E-01   1.00800           0   0.00000     -0.301140E-02
      2726 MEMB     23       PYPG     C23      CTL2    -0.180000       12.0110           0   0.00000     -0.301140E-02
      2727 MEMB     23       PYPG     H3R      HAL2     0.900000E-01   1.00800           0   0.00000     -0.301140E-02
      2728 MEMB     23       PYPG     H3S      HAL2     0.900000E-01   1.00800           0   0.00000     -0.301140E-02
      2729 MEMB     23       PYPG     C24      CTL2    -0.180000       12.0110           0   0.00000     -0.301140E-02
      2730 MEMB     23       PYPG     H4R      HAL2     0.900000E-01   1.00800           0   0.00000     -0.301140E-02
      2731 MEMB     23       PYPG     H4S      HAL2     0.900000E-01   1.00800           0   0.00000     -0.301140E-02
      2732 MEMB     23       PYPG     C25      CTL2    -0.180000       12.0110           0   0.00000     -0.301140E-02
      2733 MEMB     23       PYPG     H5R      HAL2     0.900000E-01   1.00800           0   0.00000     -0.301140E-02
      2734 MEMB     23       PYPG     H5S      HAL2     0.900000E-01   1.00800           0   0.00000     -0.301140E-02
      2735 MEMB     23       PYPG     C26      CTL2    -0.180000       12.0110           0   0.00000     -0.301140E-02
      2736 MEMB     23       PYPG     H6R      HAL2     0.900000E-01   1.00800           0   0.00000     -0.301140E-02
      2737 MEMB     23       PYPG     H6S      HAL2     0.900000E-01   1.00800           0   0.00000     -0.301140E-02
      2738 MEMB     23       PYPG     C27      CTL2    -0.180000       12.0110           0   0.00000     -0.301140E-02
      2739 MEMB     23       PYPG     H7R      HAL2     0.900000E-01   1.00800           0   0.00000     -0.301140E-02
      2740 MEMB     23       PYPG     H7S      HAL2     0.900000E-01   1.00800           0   0.00000     -0.301140E-02
      2741 MEMB     23       PYPG     C28      CTL2    -0.180000       12.0110           0   0.00000     -0.301140E-02
      2742 MEMB     23       PYPG     H8R      HAL2     0.900000E-01   1.00800           0   0.00000     -0.301140E-02
      2743 MEMB     23       PYPG     H8S      HAL2     0.900000E-01   1.00800           0   0.00000     -0.301140E-02
      2744 MEMB     23       PYPG     C29      CEL1    -0.150000       12.0110           0   0.00000     -0.301140E-02
      2745 MEMB     23       PYPG     H9R      HEL1     0.150000       1.00800           0   0.00000     -0.301140E-02
      2746 MEMB     23       PYPG     C210     CEL1    -0.150000       12.0110           0   0.00000     -0.301140E-02
      2747 MEMB     23       PYPG     H10R     HEL1     0.150000       1.00800           0   0.00000     -0.301140E-02
      2748 MEMB     23       PYPG     C211     CTL2    -0.180000       12.0110           0   0.00000     -0.301140E-02
      2749 MEMB     23       PYPG     H11R     HAL2     0.900000E-01   1.00800           0   0.00000     -0.301140E-02
      2750 MEMB     23       PYPG     H11S     HAL2     0.900000E-01   1.00800           0   0.00000     -0.301140E-02
      2751 MEMB     23       PYPG     C212     CTL2    -0.180000       12.0110           0   0.00000     -0.301140E-02
      2752 MEMB     23       PYPG     H12R     HAL2     0.900000E-01   1.00800           0   0.00000     -0.301140E-02
      2753 MEMB     23       PYPG     H12S     HAL2     0.900000E-01   1.00800           0   0.00000     -0.301140E-02
      2754 MEMB     23       PYPG     C213     CTL2    -0.180000       12.0110           0   0.00000     -0.301140E-02
      2755 MEMB     23       PYPG     H13R     HAL2     0.900000E-01   1.00800           0   0.00000     -0.301140E-02
      2756 MEMB     23       PYPG     H13S     HAL2     0.900000E-01   1.00800           0   0.00000     -0.301140E-02
      2757 MEMB     23       PYPG     C214     CTL2    -0.180000       12.0110           0   0.00000     -0.301140E-02
      2758 MEMB     23       PYPG     H14R     HAL2     0.900000E-01   1.00800           0   0.00000     -0.301140E-02
      2759 MEMB     23       PYPG     H14S     HAL2     0.900000E-01   1.00800           0   0.00000     -0.301140E-02
      2760 MEMB     23       PYPG     C215     CTL2    -0.180000       12.0110           0   0.00000     -0.301140E-02
      2761 MEMB     23       PYPG     H15R     HAL2     0.900000E-01   1.00800           0   0.00000     -0.301140E-02
      2762 MEMB     23       PYPG     H15S     HAL2     0.900000E-01   1.00800           0   0.00000     -0.301140E-02
      2763 MEMB     23       PYPG     C216     CTL3    -0.270000       12.0110           0   0.00000     -0.301140E-02
      2764 MEMB     23       PYPG     H16R     HAL3     0.900000E-01   1.00800           0   0.00000     -0.301140E-02
      2765 MEMB     23       PYPG     H16S     HAL3     0.900000E-01   1.00800           0   0.00000     -0.301140E-02
      2766 MEMB     23       PYPG     H16T     HAL3     0.900000E-01   1.00800           0   0.00000     -0.301140E-02
      2767 MEMB     23       PYPG     C33      CTL2    -0.180000       12.0110           0   0.00000     -0.301140E-02
      2768 MEMB     23       PYPG     H3X      HAL2     0.900000E-01   1.00800           0   0.00000     -0.301140E-02
      2769 MEMB     23       PYPG     H3Y      HAL2     0.900000E-01   1.00800           0   0.00000     -0.301140E-02
      2770 MEMB     23       PYPG     C34      CTL2    -0.180000       12.0110           0   0.00000     -0.301140E-02
      2771 MEMB     23       PYPG     H4X      HAL2     0.900000E-01   1.00800           0   0.00000     -0.301140E-02
      2772 MEMB     23       PYPG     H4Y      HAL2     0.900000E-01   1.00800           0   0.00000     -0.301140E-02
      2773 MEMB     23       PYPG     C35      CTL2    -0.180000       12.0110           0   0.00000     -0.301140E-02
      2774 MEMB     23       PYPG     H5X      HAL2     0.900000E-01   1.00800           0   0.00000     -0.301140E-02
      2775 MEMB     23       PYPG     H5Y      HAL2     0.900000E-01   1.00800           0   0.00000     -0.301140E-02
      2776 MEMB     23       PYPG     C36      CTL2    -0.180000       12.0110           0   0.00000     -0.301140E-02
      2777 MEMB     23       PYPG     H6X      HAL2     0.900000E-01   1.00800           0   0.00000     -0.301140E-02
      2778 MEMB     23       PYPG     H6Y      HAL2     0.900000E-01   1.00800           0   0.00000     -0.301140E-02
      2779 MEMB     23       PYPG     C37      CTL2    -0.180000       12.0110           0   0.00000     -0.301140E-02
      2780 MEMB     23       PYPG     H7X      HAL2     0.900000E-01   1.00800           0   0.00000     -0.301140E-02
      2781 MEMB     23       PYPG     H7Y      HAL2     0.900000E-01   1.00800           0   0.00000     -0.301140E-02
      2782 MEMB     23       PYPG     C38      CTL2    -0.180000       12.0110           0   0.00000     -0.301140E-02
      2783 MEMB     23       PYPG     H8X      HAL2     0.900000E-01   1.00800           0   0.00000     -0.301140E-02
      2784 MEMB     23       PYPG     H8Y      HAL2     0.900000E-01   1.00800           0   0.00000     -0.301140E-02
      2785 MEMB     23       PYPG     C39      CTL2    -0.180000       12.0110           0   0.00000     -0.301140E-02
      2786 MEMB     23       PYPG     H9X      HAL2     0.900000E-01   1.00800           0   0.00000     -0.301140E-02
      2787 MEMB     23       PYPG     H9Y      HAL2     0.900000E-01   1.00800           0   0.00000     -0.301140E-02
      2788 MEMB     23       PYPG     C310     CTL2    -0.180000       12.0110           0   0.00000     -0.301140E-02
      2789 MEMB     23       PYPG     H10X     HAL2     0.900000E-01   1.00800           0   0.00000     -0.301140E-02
      2790 MEMB     23       PYPG     H10Y     HAL2     0.900000E-01   1.00800           0   0.00000     -0.301140E-02
      2791 MEMB     23       PYPG     C311     CTL2    -0.180000       12.0110           0   0.00000     -0.301140E-02
      2792 MEMB     23       PYPG     H11X     HAL2     0.900000E-01   1.00800           0   0.00000     -0.301140E-02
      2793 MEMB     23       PYPG     H11Y     HAL2     0.900000E-01   1.00800           0   0.00000     -0.301140E-02
      2794 MEMB     23       PYPG     C312     CTL2    -0.180000       12.0110           0   0.00000     -0.301140E-02
      2795 MEMB     23       PYPG     H12X     HAL2     0.900000E-01   1.00800           0   0.00000     -0.301140E-02
      2796 MEMB     23       PYPG     H12Y     HAL2     0.900000E-01   1.00800           0   0.00000     -0.301140E-02
      2797 MEMB     23       PYPG     C313     CTL2    -0.180000       12.0110           0   0.00000     -0.301140E-02
      2798 MEMB     23       PYPG     H13X     HAL2     0.900000E-01   1.00800           0   0.00000     -0.301140E-02
      2799 MEMB     23       PYPG     H13Y     HAL2     0.900000E-01   1.00800           0   0.00000     -0.301140E-02
      2800 MEMB     23       PYPG     C314     CTL2    -0.180000       12.0110           0   0.00000     -0.301140E-02
      2801 MEMB     23       PYPG     H14X     HAL2     0.900000E-01   1.00800           0   0.00000     -0.301140E-02
      2802 MEMB     23       PYPG     H14Y     HAL2     0.900000E-01   1.00800           0   0.00000     -0.301140E-02
      2803 MEMB     23       PYPG     C315     CTL2    -0.180000       12.0110           0   0.00000     -0.301140E-02
      2804 MEMB     23       PYPG     H15X     HAL2     0.900000E-01   1.00800           0   0.00000     -0.301140E-02
      2805 MEMB     23       PYPG     H15Y     HAL2     0.900000E-01   1.00800           0   0.00000     -0.301140E-02
      2806 MEMB     23       PYPG     C316     CTL3    -0.270000       12.0110           0   0.00000     -0.301140E-02
      2807 MEMB     23       PYPG     H16X     HAL3     0.900000E-01   1.00800           0   0.00000     -0.301140E-02
      2808 MEMB     23       PYPG     H16Y     HAL3     0.900000E-01   1.00800           0   0.00000     -0.301140E-02
      2809 MEMB     23       PYPG     H16Z     HAL3     0.900000E-01   1.00800           0   0.00000     -0.301140E-02
      2810 MEMB     24       PMPE     N        NH3L    -0.300000       14.0070           0   0.00000     -0.301140E-02
      2811 MEMB     24       PMPE     HN1      HCL      0.330000       1.00800           0   0.00000     -0.301140E-02
      2812 MEMB     24       PMPE     HN2      HCL      0.330000       1.00800           0   0.00000     -0.301140E-02
      2813 MEMB     24       PMPE     HN3      HCL      0.330000       1.00800           0   0.00000     -0.301140E-02
      2814 MEMB     24       PMPE     C12      CTL2     0.130000       12.0110           0   0.00000     -0.301140E-02
      2815 MEMB     24       PMPE     H12A     HAL2     0.900000E-01   1.00800           0   0.00000     -0.301140E-02
      2816 MEMB     24       PMPE     H12B     HAL2     0.900000E-01   1.00800           0   0.00000     -0.301140E-02
      2817 MEMB     24       PMPE     C11      CTL2    -0.800000E-01   12.0110           0   0.00000     -0.301140E-02
      2818 MEMB     24       PMPE     H11A     HAL2     0.900000E-01   1.00800           0   0.00000     -0.301140E-02
      2819 MEMB     24       PMPE     H11B     HAL2     0.900000E-01   1.00800           0   0.00000     -0.301140E-02
      2820 MEMB     24       PMPE     P        PL        1.50000       30.9740           0   0.00000     -0.301140E-02
      2821 MEMB     24       PMPE     O13      O2L     -0.780000       15.9994           0   0.00000     -0.301140E-02
      2822 MEMB     24       PMPE     O14      O2L     -0.780000       15.9994           0   0.00000     -0.301140E-02
      2823 MEMB     24       PMPE     O11      OSLP    -0.570000       15.9994           0   0.00000     -0.301140E-02
      2824 MEMB     24       PMPE     O12      OSLP    -0.570000       15.9994           0   0.00000     -0.301140E-02
      2825 MEMB     24       PMPE     C1       CTL2    -0.800000E-01   12.0110           0   0.00000     -0.301140E-02
      2826 MEMB     24       PMPE     HA       HAL2     0.900000E-01   1.00800           0   0.00000     -0.301140E-02
      2827 MEMB     24       PMPE     HB       HAL2     0.900000E-01   1.00800           0   0.00000     -0.301140E-02
      2828 MEMB     24       PMPE     C2       CTL1     0.170000       12.0110           0   0.00000     -0.301140E-02
      2829 MEMB     24       PMPE     HS       HAL1     0.900000E-01   1.00800           0   0.00000     -0.301140E-02
      2830 MEMB     24       PMPE     O21      OSL     -0.490000       15.9994           0   0.00000     -0.301140E-02
      2831 MEMB     24       PMPE     C21      CL       0.900000       12.0110           0   0.00000     -0.301140E-02
      2832 MEMB     24       PMPE     O22      OBL     -0.630000       15.9994           0   0.00000     -0.301140E-02
      2833 MEMB     24       PMPE     C22      CTL2    -0.220000       12.0110           0   0.00000     -0.301140E-02
      2834 MEMB     24       PMPE     H2R      HAL2     0.900000E-01   1.00800           0   0.00000     -0.301140E-02
      2835 MEMB     24       PMPE     H2S      HAL2     0.900000E-01   1.00800           0   0.00000     -0.301140E-02
      2836 MEMB     24       PMPE     C3       CTL2     0.800000E-01   12.0110           0   0.00000     -0.301140E-02
      2837 MEMB     24       PMPE     HX       HAL2     0.900000E-01   1.00800           0   0.00000     -0.301140E-02
      2838 MEMB     24       PMPE     HY       HAL2     0.900000E-01   1.00800           0   0.00000     -0.301140E-02
      2839 MEMB     24       PMPE     O31      OSL     -0.490000       15.9994           0   0.00000     -0.301140E-02
      2840 MEMB     24       PMPE     C31      CL       0.900000       12.0110           0   0.00000     -0.301140E-02
      2841 MEMB     24       PMPE     O32      OBL     -0.630000       15.9994           0   0.00000     -0.301140E-02
      2842 MEMB     24       PMPE     C32      CTL2    -0.220000       12.0110           0   0.00000     -0.301140E-02
      2843 MEMB     24       PMPE     H2X      HAL2     0.900000E-01   1.00800           0   0.00000     -0.301140E-02
      2844 MEMB     24       PMPE     H2Y      HAL2     0.900000E-01   1.00800           0   0.00000     -0.301140E-02
      2845 MEMB     24       PMPE     C23      CTL2    -0.180000       12.0110           0   0.00000     -0.301140E-02
      2846 MEMB     24       PMPE     H3R      HAL2     0.900000E-01   1.00800           0   0.00000     -0.301140E-02
      2847 MEMB     24       PMPE     H3S      HAL2     0.900000E-01   1.00800           0   0.00000     -0.301140E-02
      2848 MEMB     24       PMPE     C24      CTL2    -0.180000       12.0110           0   0.00000     -0.301140E-02
      2849 MEMB     24       PMPE     H4R      HAL2     0.900000E-01   1.00800           0   0.00000     -0.301140E-02
      2850 MEMB     24       PMPE     H4S      HAL2     0.900000E-01   1.00800           0   0.00000     -0.301140E-02
      2851 MEMB     24       PMPE     C25      CTL2    -0.180000       12.0110           0   0.00000     -0.301140E-02
      2852 MEMB     24       PMPE     H5R      HAL2     0.900000E-01   1.00800           0   0.00000     -0.301140E-02
      2853 MEMB     24       PMPE     H5S      HAL2     0.900000E-01   1.00800           0   0.00000     -0.301140E-02
      2854 MEMB     24       PMPE     C26      CTL2    -0.180000       12.0110           0   0.00000     -0.301140E-02
      2855 MEMB     24       PMPE     H6R      HAL2     0.900000E-01   1.00800           0   0.00000     -0.301140E-02
      2856 MEMB     24       PMPE     H6S      HAL2     0.900000E-01   1.00800           0   0.00000     -0.301140E-02
      2857 MEMB     24       PMPE     C27      CTL2    -0.180000       12.0110           0   0.00000     -0.301140E-02
      2858 MEMB     24       PMPE     H7R      HAL2     0.900000E-01   1.00800           0   0.00000     -0.301140E-02
      2859 MEMB     24       PMPE     H7S      HAL2     0.900000E-01   1.00800           0   0.00000     -0.301140E-02
      2860 MEMB     24       PMPE     C28      CTL2    -0.180000       12.0110           0   0.00000     -0.301140E-02
      2861 MEMB     24       PMPE     H8R      HAL2     0.900000E-01   1.00800           0   0.00000     -0.301140E-02
      2862 MEMB     24       PMPE     H8S      HAL2     0.900000E-01   1.00800           0   0.00000     -0.301140E-02
      2863 MEMB     24       PMPE     C29      CG3RC1  -0.900000E-01   12.0110           0   0.00000     -0.301140E-02
      2864 MEMB     24       PMPE     H9R      HGA1     0.900000E-01   1.00800           0   0.00000     -0.301140E-02
      2865 MEMB     24       PMPE     C217     CG3C31  -0.180000       12.0110           0   0.00000     -0.301140E-02
      2866 MEMB     24       PMPE     H17R     HGA2     0.900000E-01   1.00800           0   0.00000     -0.301140E-02
      2867 MEMB     24       PMPE     H17S     HGA2     0.900000E-01   1.00800           0   0.00000     -0.301140E-02
      2868 MEMB     24       PMPE     C210     CG3RC1  -0.900000E-01   12.0110           0   0.00000     -0.301140E-02
      2869 MEMB     24       PMPE     H10R     HGA1     0.900000E-01   1.00800           0   0.00000     -0.301140E-02
      2870 MEMB     24       PMPE     C211     CTL2    -0.180000       12.0110           0   0.00000     -0.301140E-02
      2871 MEMB     24       PMPE     H11R     HAL2     0.900000E-01   1.00800           0   0.00000     -0.301140E-02
      2872 MEMB     24       PMPE     H11S     HAL2     0.900000E-01   1.00800           0   0.00000     -0.301140E-02
      2873 MEMB     24       PMPE     C212     CTL2    -0.180000       12.0110           0   0.00000     -0.301140E-02
      2874 MEMB     24       PMPE     H12R     HAL2     0.900000E-01   1.00800           0   0.00000     -0.301140E-02
      2875 MEMB     24       PMPE     H12S     HAL2     0.900000E-01   1.00800           0   0.00000     -0.301140E-02
      2876 MEMB     24       PMPE     C213     CTL2    -0.180000       12.0110           0   0.00000     -0.301140E-02
      2877 MEMB     24       PMPE     H13R     HAL2     0.900000E-01   1.00800           0   0.00000     -0.301140E-02
      2878 MEMB     24       PMPE     H13S     HAL2     0.900000E-01   1.00800           0   0.00000     -0.301140E-02
      2879 MEMB     24       PMPE     C214     CTL2    -0.180000       12.0110           0   0.00000     -0.301140E-02
      2880 MEMB     24       PMPE     H14R     HAL2     0.900000E-01   1.00800           0   0.00000     -0.301140E-02
      2881 MEMB     24       PMPE     H14S     HAL2     0.900000E-01   1.00800           0   0.00000     -0.301140E-02
      2882 MEMB     24       PMPE     C215     CTL2    -0.180000       12.0110           0   0.00000     -0.301140E-02
      2883 MEMB     24       PMPE     H15R     HAL2     0.900000E-01   1.00800           0   0.00000     -0.301140E-02
      2884 MEMB     24       PMPE     H15S     HAL2     0.900000E-01   1.00800           0   0.00000     -0.301140E-02
      2885 MEMB     24       PMPE     C216     CTL3    -0.270000       12.0110           0   0.00000     -0.301140E-02
      2886 MEMB     24       PMPE     H16R     HAL3     0.900000E-01   1.00800           0   0.00000     -0.301140E-02
      2887 MEMB     24       PMPE     H16S     HAL3     0.900000E-01   1.00800           0   0.00000     -0.301140E-02
      2888 MEMB     24       PMPE     H16T     HAL3     0.900000E-01   1.00800           0   0.00000     -0.301140E-02
      2889 MEMB     24       PMPE     C33      CTL2    -0.180000       12.0110           0   0.00000     -0.301140E-02
      2890 MEMB     24       PMPE     H3X      HAL2     0.900000E-01   1.00800           0   0.00000     -0.301140E-02
      2891 MEMB     24       PMPE     H3Y      HAL2     0.900000E-01   1.00800           0   0.00000     -0.301140E-02
      2892 MEMB     24       PMPE     C34      CTL2    -0.180000       12.0110           0   0.00000     -0.301140E-02
      2893 MEMB     24       PMPE     H4X      HAL2     0.900000E-01   1.00800           0   0.00000     -0.301140E-02
      2894 MEMB     24       PMPE     H4Y      HAL2     0.900000E-01   1.00800           0   0.00000     -0.301140E-02
      2895 MEMB     24       PMPE     C35      CTL2    -0.180000       12.0110           0   0.00000     -0.301140E-02
      2896 MEMB     24       PMPE     H5X      HAL2     0.900000E-01   1.00800           0   0.00000     -0.301140E-02
      2897 MEMB     24       PMPE     H5Y      HAL2     0.900000E-01   1.00800           0   0.00000     -0.301140E-02
      2898 MEMB     24       PMPE     C36      CTL2    -0.180000       12.0110           0   0.00000     -0.301140E-02
      2899 MEMB     24       PMPE     H6X      HAL2     0.900000E-01   1.00800           0   0.00000     -0.301140E-02
      2900 MEMB     24       PMPE     H6Y      HAL2     0.900000E-01   1.00800           0   0.00000     -0.301140E-02
      2901 MEMB     24       PMPE     C37      CTL2    -0.180000       12.0110           0   0.00000     -0.301140E-02
      2902 MEMB     24       PMPE     H7X      HAL2     0.900000E-01   1.00800           0   0.00000     -0.301140E-02
      2903 MEMB     24       PMPE     H7Y      HAL2     0.900000E-01   1.00800           0   0.00000     -0.301140E-02
      2904 MEMB     24       PMPE     C38      CTL2    -0.180000       12.0110           0   0.00000     -0.301140E-02
      2905 MEMB     24       PMPE     H8X      HAL2     0.900000E-01   1.00800           0   0.00000     -0.301140E-02
      2906 MEMB     24       PMPE     H8Y      HAL2     0.900000E-01   1.00800           0   0.00000     -0.301140E-02
      2907 MEMB     24       PMPE     C39      CTL2    -0.180000       12.0110           0   0.00000     -0.301140E-02
      2908 MEMB     24       PMPE     H9X      HAL2     0.900000E-01   1.00800           0   0.00000     -0.301140E-02
      2909 MEMB     24       PMPE     H9Y      HAL2     0.900000E-01   1.00800           0   0.00000     -0.301140E-02
      2910 MEMB     24       PMPE     C310     CTL2    -0.180000       12.0110           0   0.00000     -0.301140E-02
      2911 MEMB     24       PMPE     H10X     HAL2     0.900000E-01   1.00800           0   0.00000     -0.301140E-02
      2912 MEMB     24       PMPE     H10Y     HAL2     0.900000E-01   1.00800           0   0.00000     -0.301140E-02
      2913 MEMB     24       PMPE     C311     CTL2    -0.180000       12.0110           0   0.00000     -0.301140E-02
      2914 MEMB     24       PMPE     H11X     HAL2     0.900000E-01   1.00800           0   0.00000     -0.301140E-02
      2915 MEMB     24       PMPE     H11Y     HAL2     0.900000E-01   1.00800           0   0.00000     -0.301140E-02
      2916 MEMB     24       PMPE     C312     CTL2    -0.180000       12.0110           0   0.00000     -0.301140E-02
      2917 MEMB     24       PMPE     H12X     HAL2     0.900000E-01   1.00800           0   0.00000     -0.301140E-02
      2918 MEMB     24       PMPE     H12Y     HAL2     0.900000E-01   1.00800           0   0.00000     -0.301140E-02
      2919 MEMB     24       PMPE     C313     CTL2    -0.180000       12.0110           0   0.00000     -0.301140E-02
      2920 MEMB     24       PMPE     H13X     HAL2     0.900000E-01   1.00800           0   0.00000     -0.301140E-02
      2921 MEMB     24       PMPE     H13Y     HAL2     0.900000E-01   1.00800           0   0.00000     -0.301140E-02
      2922 MEMB     24       PMPE     C314     CTL2    -0.180000       12.0110           0   0.00000     -0.301140E-02
      2923 MEMB     24       PMPE     H14X     HAL2     0.900000E-01   1.00800           0   0.00000     -0.301140E-02
      2924 MEMB     24       PMPE     H14Y     HAL2     0.900000E-01   1.00800           0   0.00000     -0.301140E-02
      2925 MEMB     24       PMPE     C315     CTL2    -0.180000       12.0110           0   0.00000     -0.301140E-02
      2926 MEMB     24       PMPE     H15X     HAL2     0.900000E-01   1.00800           0   0.00000     -0.301140E-02
      2927 MEMB     24       PMPE     H15Y     HAL2     0.900000E-01   1.00800           0   0.00000     -0.301140E-02
      2928 MEMB     24       PMPE     C316     CTL3    -0.270000       12.0110           0   0.00000     -0.301140E-02
      2929 MEMB     24       PMPE     H16X     HAL3     0.900000E-01   1.00800           0   0.00000     -0.301140E-02
      2930 MEMB     24       PMPE     H16Y     HAL3     0.900000E-01   1.00800           0   0.00000     -0.301140E-02
      2931 MEMB     24       PMPE     H16Z     HAL3     0.900000E-01   1.00800           0   0.00000     -0.301140E-02
      2932 MEMB     25       PMPE     N        NH3L    -0.300000       14.0070           0   0.00000     -0.301140E-02
      2933 MEMB     25       PMPE     HN1      HCL      0.330000       1.00800           0   0.00000     -0.301140E-02
      2934 MEMB     25       PMPE     HN2      HCL      0.330000       1.00800           0   0.00000     -0.301140E-02
      2935 MEMB     25       PMPE     HN3      HCL      0.330000       1.00800           0   0.00000     -0.301140E-02
      2936 MEMB     25       PMPE     C12      CTL2     0.130000       12.0110           0   0.00000     -0.301140E-02
      2937 MEMB     25       PMPE     H12A     HAL2     0.900000E-01   1.00800           0   0.00000     -0.301140E-02
      2938 MEMB     25       PMPE     H12B     HAL2     0.900000E-01   1.00800           0   0.00000     -0.301140E-02
      2939 MEMB     25       PMPE     C11      CTL2    -0.800000E-01   12.0110           0   0.00000     -0.301140E-02
      2940 MEMB     25       PMPE     H11A     HAL2     0.900000E-01   1.00800           0   0.00000     -0.301140E-02
      2941 MEMB     25       PMPE     H11B     HAL2     0.900000E-01   1.00800           0   0.00000     -0.301140E-02
      2942 MEMB     25       PMPE     P        PL        1.50000       30.9740           0   0.00000     -0.301140E-02
      2943 MEMB     25       PMPE     O13      O2L     -0.780000       15.9994           0   0.00000     -0.301140E-02
      2944 MEMB     25       PMPE     O14      O2L     -0.780000       15.9994           0   0.00000     -0.301140E-02
      2945 MEMB     25       PMPE     O11      OSLP    -0.570000       15.9994           0   0.00000     -0.301140E-02
      2946 MEMB     25       PMPE     O12      OSLP    -0.570000       15.9994           0   0.00000     -0.301140E-02
      2947 MEMB     25       PMPE     C1       CTL2    -0.800000E-01   12.0110           0   0.00000     -0.301140E-02
      2948 MEMB     25       PMPE     HA       HAL2     0.900000E-01   1.00800           0   0.00000     -0.301140E-02
      2949 MEMB     25       PMPE     HB       HAL2     0.900000E-01   1.00800           0   0.00000     -0.301140E-02
      2950 MEMB     25       PMPE     C2       CTL1     0.170000       12.0110           0   0.00000     -0.301140E-02
      2951 MEMB     25       PMPE     HS       HAL1     0.900000E-01   1.00800           0   0.00000     -0.301140E-02
      2952 MEMB     25       PMPE     O21      OSL     -0.490000       15.9994           0   0.00000     -0.301140E-02
      2953 MEMB     25       PMPE     C21      CL       0.900000       12.0110           0   0.00000     -0.301140E-02
      2954 MEMB     25       PMPE     O22      OBL     -0.630000       15.9994           0   0.00000     -0.301140E-02
      2955 MEMB     25       PMPE     C22      CTL2    -0.220000       12.0110           0   0.00000     -0.301140E-02
      2956 MEMB     25       PMPE     H2R      HAL2     0.900000E-01   1.00800           0   0.00000     -0.301140E-02
      2957 MEMB     25       PMPE     H2S      HAL2     0.900000E-01   1.00800           0   0.00000     -0.301140E-02
      2958 MEMB     25       PMPE     C3       CTL2     0.800000E-01   12.0110           0   0.00000     -0.301140E-02
      2959 MEMB     25       PMPE     HX       HAL2     0.900000E-01   1.00800           0   0.00000     -0.301140E-02
      2960 MEMB     25       PMPE     HY       HAL2     0.900000E-01   1.00800           0   0.00000     -0.301140E-02
      2961 MEMB     25       PMPE     O31      OSL     -0.490000       15.9994           0   0.00000     -0.301140E-02
      2962 MEMB     25       PMPE     C31      CL       0.900000       12.0110           0   0.00000     -0.301140E-02
      2963 MEMB     25       PMPE     O32      OBL     -0.630000       15.9994           0   0.00000     -0.301140E-02
      2964 MEMB     25       PMPE     C32      CTL2    -0.220000       12.0110           0   0.00000     -0.301140E-02
      2965 MEMB     25       PMPE     H2X      HAL2     0.900000E-01   1.00800           0   0.00000     -0.301140E-02
      2966 MEMB     25       PMPE     H2Y      HAL2     0.900000E-01   1.00800           0   0.00000     -0.301140E-02
      2967 MEMB     25       PMPE     C23      CTL2    -0.180000       12.0110           0   0.00000     -0.301140E-02
      2968 MEMB     25       PMPE     H3R      HAL2     0.900000E-01   1.00800           0   0.00000     -0.301140E-02
      2969 MEMB     25       PMPE     H3S      HAL2     0.900000E-01   1.00800           0   0.00000     -0.301140E-02
      2970 MEMB     25       PMPE     C24      CTL2    -0.180000       12.0110           0   0.00000     -0.301140E-02
      2971 MEMB     25       PMPE     H4R      HAL2     0.900000E-01   1.00800           0   0.00000     -0.301140E-02
      2972 MEMB     25       PMPE     H4S      HAL2     0.900000E-01   1.00800           0   0.00000     -0.301140E-02
      2973 MEMB     25       PMPE     C25      CTL2    -0.180000       12.0110           0   0.00000     -0.301140E-02
      2974 MEMB     25       PMPE     H5R      HAL2     0.900000E-01   1.00800           0   0.00000     -0.301140E-02
      2975 MEMB     25       PMPE     H5S      HAL2     0.900000E-01   1.00800           0   0.00000     -0.301140E-02
      2976 MEMB     25       PMPE     C26      CTL2    -0.180000       12.0110           0   0.00000     -0.301140E-02
      2977 MEMB     25       PMPE     H6R      HAL2     0.900000E-01   1.00800           0   0.00000     -0.301140E-02
      2978 MEMB     25       PMPE     H6S      HAL2     0.900000E-01   1.00800           0   0.00000     -0.301140E-02
      2979 MEMB     25       PMPE     C27      CTL2    -0.180000       12.0110           0   0.00000     -0.301140E-02
      2980 MEMB     25       PMPE     H7R      HAL2     0.900000E-01   1.00800           0   0.00000     -0.301140E-02
      2981 MEMB     25       PMPE     H7S      HAL2     0.900000E-01   1.00800           0   0.00000     -0.301140E-02
      2982 MEMB     25       PMPE     C28      CTL2    -0.180000       12.0110           0   0.00000     -0.301140E-02
      2983 MEMB     25       PMPE     H8R      HAL2     0.900000E-01   1.00800           0   0.00000     -0.301140E-02
      2984 MEMB     25       PMPE     H8S      HAL2     0.900000E-01   1.00800           0   0.00000     -0.301140E-02
      2985 MEMB     25       PMPE     C29      CG3RC1  -0.900000E-01   12.0110           0   0.00000     -0.301140E-02
      2986 MEMB     25       PMPE     H9R      HGA1     0.900000E-01   1.00800           0   0.00000     -0.301140E-02
      2987 MEMB     25       PMPE     C217     CG3C31  -0.180000       12.0110           0   0.00000     -0.301140E-02
      2988 MEMB     25       PMPE     H17R     HGA2     0.900000E-01   1.00800           0   0.00000     -0.301140E-02
      2989 MEMB     25       PMPE     H17S     HGA2     0.900000E-01   1.00800           0   0.00000     -0.301140E-02
      2990 MEMB     25       PMPE     C210     CG3RC1  -0.900000E-01   12.0110           0   0.00000     -0.301140E-02
      2991 MEMB     25       PMPE     H10R     HGA1     0.900000E-01   1.00800           0   0.00000     -0.301140E-02
      2992 MEMB     25       PMPE     C211     CTL2    -0.180000       12.0110           0   0.00000     -0.301140E-02
      2993 MEMB     25       PMPE     H11R     HAL2     0.900000E-01   1.00800           0   0.00000     -0.301140E-02
      2994 MEMB     25       PMPE     H11S     HAL2     0.900000E-01   1.00800           0   0.00000     -0.301140E-02
      2995 MEMB     25       PMPE     C212     CTL2    -0.180000       12.0110           0   0.00000     -0.301140E-02
      2996 MEMB     25       PMPE     H12R     HAL2     0.900000E-01   1.00800           0   0.00000     -0.301140E-02
      2997 MEMB     25       PMPE     H12S     HAL2     0.900000E-01   1.00800           0   0.00000     -0.301140E-02
      2998 MEMB     25       PMPE     C213     CTL2    -0.180000       12.0110           0   0.00000     -0.301140E-02
      2999 MEMB     25       PMPE     H13R     HAL2     0.900000E-01   1.00800           0   0.00000     -0.301140E-02
      3000 MEMB     25       PMPE     H13S     HAL2     0.900000E-01   1.00800           0   0.00000     -0.301140E-02
      3001 MEMB     25       PMPE     C214     CTL2    -0.180000       12.0110           0   0.00000     -0.301140E-02
      3002 MEMB     25       PMPE     H14R     HAL2     0.900000E-01   1.00800           0   0.00000     -0.301140E-02
      3003 MEMB     25       PMPE     H14S     HAL2     0.900000E-01   1.00800           0   0.00000     -0.301140E-02
      3004 MEMB     25       PMPE     C215     CTL2    -0.180000       12.0110           0   0.00000     -0.301140E-02
      3005 MEMB     25       PMPE     H15R     HAL2     0.900000E-01   1.00800           0   0.00000     -0.301140E-02
      3006 MEMB     25       PMPE     H15S     HAL2     0.900000E-01   1.00800           0   0.00000     -0.301140E-02
      3007 MEMB     25       PMPE     C216     CTL3    -0.270000       12.0110           0   0.00000     -0.301140E-02
      3008 MEMB     25       PMPE     H16R     HAL3     0.900000E-01   1.00800           0   0.00000     -0.301140E-02
      3009 MEMB     25       PMPE     H16S     HAL3     0.900000E-01   1.00800           0   0.00000     -0.301140E-02
      3010 MEMB     25       PMPE     H16T     HAL3     0.900000E-01   1.00800           0   0.00000     -0.301140E-02
      3011 MEMB     25       PMPE     C33      CTL2    -0.180000       12.0110           0   0.00000     -0.301140E-02
      3012 MEMB     25       PMPE     H3X      HAL2     0.900000E-01   1.00800           0   0.00000     -0.301140E-02
      3013 MEMB     25       PMPE     H3Y      HAL2     0.900000E-01   1.00800           0   0.00000     -0.301140E-02
      3014 MEMB     25       PMPE     C34      CTL2    -0.180000       12.0110           0   0.00000     -0.301140E-02
      3015 MEMB     25       PMPE     H4X      HAL2     0.900000E-01   1.00800           0   0.00000     -0.301140E-02
      3016 MEMB     25       PMPE     H4Y      HAL2     0.900000E-01   1.00800           0   0.00000     -0.301140E-02
      3017 MEMB     25       PMPE     C35      CTL2    -0.180000       12.0110           0   0.00000     -0.301140E-02
      3018 MEMB     25       PMPE     H5X      HAL2     0.900000E-01   1.00800           0   0.00000     -0.301140E-02
      3019 MEMB     25       PMPE     H5Y      HAL2     0.900000E-01   1.00800           0   0.00000     -0.301140E-02
      3020 MEMB     25       PMPE     C36      CTL2    -0.180000       12.0110           0   0.00000     -0.301140E-02
      3021 MEMB     25       PMPE     H6X      HAL2     0.900000E-01   1.00800           0   0.00000     -0.301140E-02
      3022 MEMB     25       PMPE     H6Y      HAL2     0.900000E-01   1.00800           0   0.00000     -0.301140E-02
      3023 MEMB     25       PMPE     C37      CTL2    -0.180000       12.0110           0   0.00000     -0.301140E-02
      3024 MEMB     25       PMPE     H7X      HAL2     0.900000E-01   1.00800           0   0.00000     -0.301140E-02
      3025 MEMB     25       PMPE     H7Y      HAL2     0.900000E-01   1.00800           0   0.00000     -0.301140E-02
      3026 MEMB     25       PMPE     C38      CTL2    -0.180000       12.0110           0   0.00000     -0.301140E-02
      3027 MEMB     25       PMPE     H8X      HAL2     0.900000E-01   1.00800           0   0.00000     -0.301140E-02
      3028 MEMB     25       PMPE     H8Y      HAL2     0.900000E-01   1.00800           0   0.00000     -0.301140E-02
      3029 MEMB     25       PMPE     C39      CTL2    -0.180000       12.0110           0   0.00000     -0.301140E-02
      3030 MEMB     25       PMPE     H9X      HAL2     0.900000E-01   1.00800           0   0.00000     -0.301140E-02
      3031 MEMB     25       PMPE     H9Y      HAL2     0.900000E-01   1.00800           0   0.00000     -0.301140E-02
      3032 MEMB     25       PMPE     C310     CTL2    -0.180000       12.0110           0   0.00000     -0.301140E-02
      3033 MEMB     25       PMPE     H10X     HAL2     0.900000E-01   1.00800           0   0.00000     -0.301140E-02
      3034 MEMB     25       PMPE     H10Y     HAL2     0.900000E-01   1.00800           0   0.00000     -0.301140E-02
      3035 MEMB     25       PMPE     C311     CTL2    -0.180000       12.0110           0   0.00000     -0.301140E-02
      3036 MEMB     25       PMPE     H11X     HAL2     0.900000E-01   1.00800           0   0.00000     -0.301140E-02
      3037 MEMB     25       PMPE     H11Y     HAL2     0.900000E-01   1.00800           0   0.00000     -0.301140E-02
      3038 MEMB     25       PMPE     C312     CTL2    -0.180000       12.0110           0   0.00000     -0.301140E-02
      3039 MEMB     25       PMPE     H12X     HAL2     0.900000E-01   1.00800           0   0.00000     -0.301140E-02
      3040 MEMB     25       PMPE     H12Y     HAL2     0.900000E-01   1.00800           0   0.00000     -0.301140E-02
      3041 MEMB     25       PMPE     C313     CTL2    -0.180000       12.0110           0   0.00000     -0.301140E-02
      3042 MEMB     25       PMPE     H13X     HAL2     0.900000E-01   1.00800           0   0.00000     -0.301140E-02
      3043 MEMB     25       PMPE     H13Y     HAL2     0.900000E-01   1.00800           0   0.00000     -0.301140E-02
      3044 MEMB     25       PMPE     C314     CTL2    -0.180000       12.0110           0   0.00000     -0.301140E-02
      3045 MEMB     25       PMPE     H14X     HAL2     0.900000E-01   1.00800           0   0.00000     -0.301140E-02
      3046 MEMB     25       PMPE     H14Y     HAL2     0.900000E-01   1.00800           0   0.00000     -0.301140E-02
      3047 MEMB     25       PMPE     C315     CTL2    -0.180000       12.0110           0   0.00000     -0.301140E-02
      3048 MEMB     25       PMPE     H15X     HAL2     0.900000E-01   1.00800           0   0.00000     -0.301140E-02
      3049 MEMB     25       PMPE     H15Y     HAL2     0.900000E-01   1.00800           0   0.00000     -0.301140E-02
      3050 MEMB     25       PMPE     C316     CTL3    -0.270000       12.0110           0   0.00000     -0.301140E-02
      3051 MEMB     25       PMPE     H16X     HAL3     0.900000E-01   1.00800           0   0.00000     -0.301140E-02
      3052 MEMB     25       PMPE     H16Y     HAL3     0.900000E-01   1.00800           0   0.00000     -0.301140E-02
      3053 MEMB     25       PMPE     H16Z     HAL3     0.900000E-01   1.00800           0   0.00000     -0.301140E-02
      3054 MEMB     26       PMPE     N        NH3L    -0.300000       14.0070           0   0.00000     -0.301140E-02
      3055 MEMB     26       PMPE     HN1      HCL      0.330000       1.00800           0   0.00000     -0.301140E-02
      3056 MEMB     26       PMPE     HN2      HCL      0.330000       1.00800           0   0.00000     -0.301140E-02
      3057 MEMB     26       PMPE     HN3      HCL      0.330000       1.00800           0   0.00000     -0.301140E-02
      3058 MEMB     26       PMPE     C12      CTL2     0.130000       12.0110           0   0.00000     -0.301140E-02
      3059 MEMB     26       PMPE     H12A     HAL2     0.900000E-01   1.00800           0   0.00000     -0.301140E-02
      3060 MEMB     26       PMPE     H12B     HAL2     0.900000E-01   1.00800           0   0.00000     -0.301140E-02
      3061 MEMB     26       PMPE     C11      CTL2    -0.800000E-01   12.0110           0   0.00000     -0.301140E-02
      3062 MEMB     26       PMPE     H11A     HAL2     0.900000E-01   1.00800           0   0.00000     -0.301140E-02
      3063 MEMB     26       PMPE     H11B     HAL2     0.900000E-01   1.00800           0   0.00000     -0.301140E-02
      3064 MEMB     26       PMPE     P        PL        1.50000       30.9740           0   0.00000     -0.301140E-02
      3065 MEMB     26       PMPE     O13      O2L     -0.780000       15.9994           0   0.00000     -0.301140E-02
      3066 MEMB     26       PMPE     O14      O2L     -0.780000       15.9994           0   0.00000     -0.301140E-02
      3067 MEMB     26       PMPE     O11      OSLP    -0.570000       15.9994           0   0.00000     -0.301140E-02
      3068 MEMB     26       PMPE     O12      OSLP    -0.570000       15.9994           0   0.00000     -0.301140E-02
      3069 MEMB     26       PMPE     C1       CTL2    -0.800000E-01   12.0110           0   0.00000     -0.301140E-02
      3070 MEMB     26       PMPE     HA       HAL2     0.900000E-01   1.00800           0   0.00000     -0.301140E-02
      3071 MEMB     26       PMPE     HB       HAL2     0.900000E-01   1.00800           0   0.00000     -0.301140E-02
      3072 MEMB     26       PMPE     C2       CTL1     0.170000       12.0110           0   0.00000     -0.301140E-02
      3073 MEMB     26       PMPE     HS       HAL1     0.900000E-01   1.00800           0   0.00000     -0.301140E-02
      3074 MEMB     26       PMPE     O21      OSL     -0.490000       15.9994           0   0.00000     -0.301140E-02
      3075 MEMB     26       PMPE     C21      CL       0.900000       12.0110           0   0.00000     -0.301140E-02
      3076 MEMB     26       PMPE     O22      OBL     -0.630000       15.9994           0   0.00000     -0.301140E-02
      3077 MEMB     26       PMPE     C22      CTL2    -0.220000       12.0110           0   0.00000     -0.301140E-02
      3078 MEMB     26       PMPE     H2R      HAL2     0.900000E-01   1.00800           0   0.00000     -0.301140E-02
      3079 MEMB     26       PMPE     H2S      HAL2     0.900000E-01   1.00800           0   0.00000     -0.301140E-02
      3080 MEMB     26       PMPE     C3       CTL2     0.800000E-01   12.0110           0   0.00000     -0.301140E-02
      3081 MEMB     26       PMPE     HX       HAL2     0.900000E-01   1.00800           0   0.00000     -0.301140E-02
      3082 MEMB     26       PMPE     HY       HAL2     0.900000E-01   1.00800           0   0.00000     -0.301140E-02
      3083 MEMB     26       PMPE     O31      OSL     -0.490000       15.9994           0   0.00000     -0.301140E-02
      3084 MEMB     26       PMPE     C31      CL       0.900000       12.0110           0   0.00000     -0.301140E-02
      3085 MEMB     26       PMPE     O32      OBL     -0.630000       15.9994           0   0.00000     -0.301140E-02
      3086 MEMB     26       PMPE     C32      CTL2    -0.220000       12.0110           0   0.00000     -0.301140E-02
      3087 MEMB     26       PMPE     H2X      HAL2     0.900000E-01   1.00800           0   0.00000     -0.301140E-02
      3088 MEMB     26       PMPE     H2Y      HAL2     0.900000E-01   1.00800           0   0.00000     -0.301140E-02
      3089 MEMB     26       PMPE     C23      CTL2    -0.180000       12.0110           0   0.00000     -0.301140E-02
      3090 MEMB     26       PMPE     H3R      HAL2     0.900000E-01   1.00800           0   0.00000     -0.301140E-02
      3091 MEMB     26       PMPE     H3S      HAL2     0.900000E-01   1.00800           0   0.00000     -0.301140E-02
      3092 MEMB     26       PMPE     C24      CTL2    -0.180000       12.0110           0   0.00000     -0.301140E-02
      3093 MEMB     26       PMPE     H4R      HAL2     0.900000E-01   1.00800           0   0.00000     -0.301140E-02
      3094 MEMB     26       PMPE     H4S      HAL2     0.900000E-01   1.00800           0   0.00000     -0.301140E-02
      3095 MEMB     26       PMPE     C25      CTL2    -0.180000       12.0110           0   0.00000     -0.301140E-02
      3096 MEMB     26       PMPE     H5R      HAL2     0.900000E-01   1.00800           0   0.00000     -0.301140E-02
      3097 MEMB     26       PMPE     H5S      HAL2     0.900000E-01   1.00800           0   0.00000     -0.301140E-02
      3098 MEMB     26       PMPE     C26      CTL2    -0.180000       12.0110           0   0.00000     -0.301140E-02
      3099 MEMB     26       PMPE     H6R      HAL2     0.900000E-01   1.00800           0   0.00000     -0.301140E-02
      3100 MEMB     26       PMPE     H6S      HAL2     0.900000E-01   1.00800           0   0.00000     -0.301140E-02
      3101 MEMB     26       PMPE     C27      CTL2    -0.180000       12.0110           0   0.00000     -0.301140E-02
      3102 MEMB     26       PMPE     H7R      HAL2     0.900000E-01   1.00800           0   0.00000     -0.301140E-02
      3103 MEMB     26       PMPE     H7S      HAL2     0.900000E-01   1.00800           0   0.00000     -0.301140E-02
      3104 MEMB     26       PMPE     C28      CTL2    -0.180000       12.0110           0   0.00000     -0.301140E-02
      3105 MEMB     26       PMPE     H8R      HAL2     0.900000E-01   1.00800           0   0.00000     -0.301140E-02
      3106 MEMB     26       PMPE     H8S      HAL2     0.900000E-01   1.00800           0   0.00000     -0.301140E-02
      3107 MEMB     26       PMPE     C29      CG3RC1  -0.900000E-01   12.0110           0   0.00000     -0.301140E-02
      3108 MEMB     26       PMPE     H9R      HGA1     0.900000E-01   1.00800           0   0.00000     -0.301140E-02
      3109 MEMB     26       PMPE     C217     CG3C31  -0.180000       12.0110           0   0.00000     -0.301140E-02
      3110 MEMB     26       PMPE     H17R     HGA2     0.900000E-01   1.00800           0   0.00000     -0.301140E-02
      3111 MEMB     26       PMPE     H17S     HGA2     0.900000E-01   1.00800           0   0.00000     -0.301140E-02
      3112 MEMB     26       PMPE     C210     CG3RC1  -0.900000E-01   12.0110           0   0.00000     -0.301140E-02
      3113 MEMB     26       PMPE     H10R     HGA1     0.900000E-01   1.00800           0   0.00000     -0.301140E-02
      3114 MEMB     26       PMPE     C211     CTL2    -0.180000       12.0110           0   0.00000     -0.301140E-02
      3115 MEMB     26       PMPE     H11R     HAL2     0.900000E-01   1.00800           0   0.00000     -0.301140E-02
      3116 MEMB     26       PMPE     H11S     HAL2     0.900000E-01   1.00800           0   0.00000     -0.301140E-02
      3117 MEMB     26       PMPE     C212     CTL2    -0.180000       12.0110           0   0.00000     -0.301140E-02
      3118 MEMB     26       PMPE     H12R     HAL2     0.900000E-01   1.00800           0   0.00000     -0.301140E-02
      3119 MEMB     26       PMPE     H12S     HAL2     0.900000E-01   1.00800           0   0.00000     -0.301140E-02
      3120 MEMB     26       PMPE     C213     CTL2    -0.180000       12.0110           0   0.00000     -0.301140E-02
      3121 MEMB     26       PMPE     H13R     HAL2     0.900000E-01   1.00800           0   0.00000     -0.301140E-02
      3122 MEMB     26       PMPE     H13S     HAL2     0.900000E-01   1.00800           0   0.00000     -0.301140E-02
      3123 MEMB     26       PMPE     C214     CTL2    -0.180000       12.0110           0   0.00000     -0.301140E-02
      3124 MEMB     26       PMPE     H14R     HAL2     0.900000E-01   1.00800           0   0.00000     -0.301140E-02
      3125 MEMB     26       PMPE     H14S     HAL2     0.900000E-01   1.00800           0   0.00000     -0.301140E-02
      3126 MEMB     26       PMPE     C215     CTL2    -0.180000       12.0110           0   0.00000     -0.301140E-02
      3127 MEMB     26       PMPE     H15R     HAL2     0.900000E-01   1.00800           0   0.00000     -0.301140E-02
      3128 MEMB     26       PMPE     H15S     HAL2     0.900000E-01   1.00800           0   0.00000     -0.301140E-02
      3129 MEMB     26       PMPE     C216     CTL3    -0.270000       12.0110           0   0.00000     -0.301140E-02
      3130 MEMB     26       PMPE     H16R     HAL3     0.900000E-01   1.00800           0   0.00000     -0.301140E-02
      3131 MEMB     26       PMPE     H16S     HAL3     0.900000E-01   1.00800           0   0.00000     -0.301140E-02
      3132 MEMB     26       PMPE     H16T     HAL3     0.900000E-01   1.00800           0   0.00000     -0.301140E-02
      3133 MEMB     26       PMPE     C33      CTL2    -0.180000       12.0110           0   0.00000     -0.301140E-02
      3134 MEMB     26       PMPE     H3X      HAL2     0.900000E-01   1.00800           0   0.00000     -0.301140E-02
      3135 MEMB     26       PMPE     H3Y      HAL2     0.900000E-01   1.00800           0   0.00000     -0.301140E-02
      3136 MEMB     26       PMPE     C34      CTL2    -0.180000       12.0110           0   0.00000     -0.301140E-02
      3137 MEMB     26       PMPE     H4X      HAL2     0.900000E-01   1.00800           0   0.00000     -0.301140E-02
      3138 MEMB     26       PMPE     H4Y      HAL2     0.900000E-01   1.00800           0   0.00000     -0.301140E-02
      3139 MEMB     26       PMPE     C35      CTL2    -0.180000       12.0110           0   0.00000     -0.301140E-02
      3140 MEMB     26       PMPE     H5X      HAL2     0.900000E-01   1.00800           0   0.00000     -0.301140E-02
      3141 MEMB     26       PMPE     H5Y      HAL2     0.900000E-01   1.00800           0   0.00000     -0.301140E-02
      3142 MEMB     26       PMPE     C36      CTL2    -0.180000       12.0110           0   0.00000     -0.301140E-02
      3143 MEMB     26       PMPE     H6X      HAL2     0.900000E-01   1.00800           0   0.00000     -0.301140E-02
      3144 MEMB     26       PMPE     H6Y      HAL2     0.900000E-01   1.00800           0   0.00000     -0.301140E-02
      3145 MEMB     26       PMPE     C37      CTL2    -0.180000       12.0110           0   0.00000     -0.301140E-02
      3146 MEMB     26       PMPE     H7X      HAL2     0.900000E-01   1.00800           0   0.00000     -0.301140E-02
      3147 MEMB     26       PMPE     H7Y      HAL2     0.900000E-01   1.00800           0   0.00000     -0.301140E-02
      3148 MEMB     26       PMPE     C38      CTL2    -0.180000       12.0110           0   0.00000     -0.301140E-02
      3149 MEMB     26       PMPE     H8X      HAL2     0.900000E-01   1.00800           0   0.00000     -0.301140E-02
      3150 MEMB     26       PMPE     H8Y      HAL2     0.900000E-01   1.00800           0   0.00000     -0.301140E-02
      3151 MEMB     26       PMPE     C39      CTL2    -0.180000       12.0110           0   0.00000     -0.301140E-02
      3152 MEMB     26       PMPE     H9X      HAL2     0.900000E-01   1.00800           0   0.00000     -0.301140E-02
      3153 MEMB     26       PMPE     H9Y      HAL2     0.900000E-01   1.00800           0   0.00000     -0.301140E-02
      3154 MEMB     26       PMPE     C310     CTL2    -0.180000       12.0110           0   0.00000     -0.301140E-02
      3155 MEMB     26       PMPE     H10X     HAL2     0.900000E-01   1.00800           0   0.00000     -0.301140E-02
      3156 MEMB     26       PMPE     H10Y     HAL2     0.900000E-01   1.00800           0   0.00000     -0.301140E-02
      3157 MEMB     26       PMPE     C311     CTL2    -0.180000       12.0110           0   0.00000     -0.301140E-02
      3158 MEMB     26       PMPE     H11X     HAL2     0.900000E-01   1.00800           0   0.00000     -0.301140E-02
      3159 MEMB     26       PMPE     H11Y     HAL2     0.900000E-01   1.00800           0   0.00000     -0.301140E-02
      3160 MEMB     26       PMPE     C312     CTL2    -0.180000       12.0110           0   0.00000     -0.301140E-02
      3161 MEMB     26       PMPE     H12X     HAL2     0.900000E-01   1.00800           0   0.00000     -0.301140E-02
      3162 MEMB     26       PMPE     H12Y     HAL2     0.900000E-01   1.00800           0   0.00000     -0.301140E-02
      3163 MEMB     26       PMPE     C313     CTL2    -0.180000       12.0110           0   0.00000     -0.301140E-02
      3164 MEMB     26       PMPE     H13X     HAL2     0.900000E-01   1.00800           0   0.00000     -0.301140E-02
      3165 MEMB     26       PMPE     H13Y     HAL2     0.900000E-01   1.00800           0   0.00000     -0.301140E-02
      3166 MEMB     26       PMPE     C314     CTL2    -0.180000       12.0110           0   0.00000     -0.301140E-02
      3167 MEMB     26       PMPE     H14X     HAL2     0.900000E-01   1.00800           0   0.00000     -0.301140E-02
      3168 MEMB     26       PMPE     H14Y     HAL2     0.900000E-01   1.00800           0   0.00000     -0.301140E-02
      3169 MEMB     26       PMPE     C315     CTL2    -0.180000       12.0110           0   0.00000     -0.301140E-02
      3170 MEMB     26       PMPE     H15X     HAL2     0.900000E-01   1.00800           0   0.00000     -0.301140E-02
      3171 MEMB     26       PMPE     H15Y     HAL2     0.900000E-01   1.00800           0   0.00000     -0.301140E-02
      3172 MEMB     26       PMPE     C316     CTL3    -0.270000       12.0110           0   0.00000     -0.301140E-02
      3173 MEMB     26       PMPE     H16X     HAL3     0.900000E-01   1.00800           0   0.00000     -0.301140E-02
      3174 MEMB     26       PMPE     H16Y     HAL3     0.900000E-01   1.00800           0   0.00000     -0.301140E-02
      3175 MEMB     26       PMPE     H16Z     HAL3     0.900000E-01   1.00800           0   0.00000     -0.301140E-02
      3176 MEMB     27       PMPE     N        NH3L    -0.300000       14.0070           0   0.00000     -0.301140E-02
      3177 MEMB     27       PMPE     HN1      HCL      0.330000       1.00800           0   0.00000     -0.301140E-02
      3178 MEMB     27       PMPE     HN2      HCL      0.330000       1.00800           0   0.00000     -0.301140E-02
      3179 MEMB     27       PMPE     HN3      HCL      0.330000       1.00800           0   0.00000     -0.301140E-02
      3180 MEMB     27       PMPE     C12      CTL2     0.130000       12.0110           0   0.00000     -0.301140E-02
      3181 MEMB     27       PMPE     H12A     HAL2     0.900000E-01   1.00800           0   0.00000     -0.301140E-02
      3182 MEMB     27       PMPE     H12B     HAL2     0.900000E-01   1.00800           0   0.00000     -0.301140E-02
      3183 MEMB     27       PMPE     C11      CTL2    -0.800000E-01   12.0110           0   0.00000     -0.301140E-02
      3184 MEMB     27       PMPE     H11A     HAL2     0.900000E-01   1.00800           0   0.00000     -0.301140E-02
      3185 MEMB     27       PMPE     H11B     HAL2     0.900000E-01   1.00800           0   0.00000     -0.301140E-02
      3186 MEMB     27       PMPE     P        PL        1.50000       30.9740           0   0.00000     -0.301140E-02
      3187 MEMB     27       PMPE     O13      O2L     -0.780000       15.9994           0   0.00000     -0.301140E-02
      3188 MEMB     27       PMPE     O14      O2L     -0.780000       15.9994           0   0.00000     -0.301140E-02
      3189 MEMB     27       PMPE     O11      OSLP    -0.570000       15.9994           0   0.00000     -0.301140E-02
      3190 MEMB     27       PMPE     O12      OSLP    -0.570000       15.9994           0   0.00000     -0.301140E-02
      3191 MEMB     27       PMPE     C1       CTL2    -0.800000E-01   12.0110           0   0.00000     -0.301140E-02
      3192 MEMB     27       PMPE     HA       HAL2     0.900000E-01   1.00800           0   0.00000     -0.301140E-02
      3193 MEMB     27       PMPE     HB       HAL2     0.900000E-01   1.00800           0   0.00000     -0.301140E-02
      3194 MEMB     27       PMPE     C2       CTL1     0.170000       12.0110           0   0.00000     -0.301140E-02
      3195 MEMB     27       PMPE     HS       HAL1     0.900000E-01   1.00800           0   0.00000     -0.301140E-02
      3196 MEMB     27       PMPE     O21      OSL     -0.490000       15.9994           0   0.00000     -0.301140E-02
      3197 MEMB     27       PMPE     C21      CL       0.900000       12.0110           0   0.00000     -0.301140E-02
      3198 MEMB     27       PMPE     O22      OBL     -0.630000       15.9994           0   0.00000     -0.301140E-02
      3199 MEMB     27       PMPE     C22      CTL2    -0.220000       12.0110           0   0.00000     -0.301140E-02
      3200 MEMB     27       PMPE     H2R      HAL2     0.900000E-01   1.00800           0   0.00000     -0.301140E-02
      3201 MEMB     27       PMPE     H2S      HAL2     0.900000E-01   1.00800           0   0.00000     -0.301140E-02
      3202 MEMB     27       PMPE     C3       CTL2     0.800000E-01   12.0110           0   0.00000     -0.301140E-02
      3203 MEMB     27       PMPE     HX       HAL2     0.900000E-01   1.00800           0   0.00000     -0.301140E-02
      3204 MEMB     27       PMPE     HY       HAL2     0.900000E-01   1.00800           0   0.00000     -0.301140E-02
      3205 MEMB     27       PMPE     O31      OSL     -0.490000       15.9994           0   0.00000     -0.301140E-02
      3206 MEMB     27       PMPE     C31      CL       0.900000       12.0110           0   0.00000     -0.301140E-02
      3207 MEMB     27       PMPE     O32      OBL     -0.630000       15.9994           0   0.00000     -0.301140E-02
      3208 MEMB     27       PMPE     C32      CTL2    -0.220000       12.0110           0   0.00000     -0.301140E-02
      3209 MEMB     27       PMPE     H2X      HAL2     0.900000E-01   1.00800           0   0.00000     -0.301140E-02
      3210 MEMB     27       PMPE     H2Y      HAL2     0.900000E-01   1.00800           0   0.00000     -0.301140E-02
      3211 MEMB     27       PMPE     C23      CTL2    -0.180000       12.0110           0   0.00000     -0.301140E-02
      3212 MEMB     27       PMPE     H3R      HAL2     0.900000E-01   1.00800           0   0.00000     -0.301140E-02
      3213 MEMB     27       PMPE     H3S      HAL2     0.900000E-01   1.00800           0   0.00000     -0.301140E-02
      3214 MEMB     27       PMPE     C24      CTL2    -0.180000       12.0110           0   0.00000     -0.301140E-02
      3215 MEMB     27       PMPE     H4R      HAL2     0.900000E-01   1.00800           0   0.00000     -0.301140E-02
      3216 MEMB     27       PMPE     H4S      HAL2     0.900000E-01   1.00800           0   0.00000     -0.301140E-02
      3217 MEMB     27       PMPE     C25      CTL2    -0.180000       12.0110           0   0.00000     -0.301140E-02
      3218 MEMB     27       PMPE     H5R      HAL2     0.900000E-01   1.00800           0   0.00000     -0.301140E-02
      3219 MEMB     27       PMPE     H5S      HAL2     0.900000E-01   1.00800           0   0.00000     -0.301140E-02
      3220 MEMB     27       PMPE     C26      CTL2    -0.180000       12.0110           0   0.00000     -0.301140E-02
      3221 MEMB     27       PMPE     H6R      HAL2     0.900000E-01   1.00800           0   0.00000     -0.301140E-02
      3222 MEMB     27       PMPE     H6S      HAL2     0.900000E-01   1.00800           0   0.00000     -0.301140E-02
      3223 MEMB     27       PMPE     C27      CTL2    -0.180000       12.0110           0   0.00000     -0.301140E-02
      3224 MEMB     27       PMPE     H7R      HAL2     0.900000E-01   1.00800           0   0.00000     -0.301140E-02
      3225 MEMB     27       PMPE     H7S      HAL2     0.900000E-01   1.00800           0   0.00000     -0.301140E-02
      3226 MEMB     27       PMPE     C28      CTL2    -0.180000       12.0110           0   0.00000     -0.301140E-02
      3227 MEMB     27       PMPE     H8R      HAL2     0.900000E-01   1.00800           0   0.00000     -0.301140E-02
      3228 MEMB     27       PMPE     H8S      HAL2     0.900000E-01   1.00800           0   0.00000     -0.301140E-02
      3229 MEMB     27       PMPE     C29      CG3RC1  -0.900000E-01   12.0110           0   0.00000     -0.301140E-02
      3230 MEMB     27       PMPE     H9R      HGA1     0.900000E-01   1.00800           0   0.00000     -0.301140E-02
      3231 MEMB     27       PMPE     C217     CG3C31  -0.180000       12.0110           0   0.00000     -0.301140E-02
      3232 MEMB     27       PMPE     H17R     HGA2     0.900000E-01   1.00800           0   0.00000     -0.301140E-02
      3233 MEMB     27       PMPE     H17S     HGA2     0.900000E-01   1.00800           0   0.00000     -0.301140E-02
      3234 MEMB     27       PMPE     C210     CG3RC1  -0.900000E-01   12.0110           0   0.00000     -0.301140E-02
      3235 MEMB     27       PMPE     H10R     HGA1     0.900000E-01   1.00800           0   0.00000     -0.301140E-02
      3236 MEMB     27       PMPE     C211     CTL2    -0.180000       12.0110           0   0.00000     -0.301140E-02
      3237 MEMB     27       PMPE     H11R     HAL2     0.900000E-01   1.00800           0   0.00000     -0.301140E-02
      3238 MEMB     27       PMPE     H11S     HAL2     0.900000E-01   1.00800           0   0.00000     -0.301140E-02
      3239 MEMB     27       PMPE     C212     CTL2    -0.180000       12.0110           0   0.00000     -0.301140E-02
      3240 MEMB     27       PMPE     H12R     HAL2     0.900000E-01   1.00800           0   0.00000     -0.301140E-02
      3241 MEMB     27       PMPE     H12S     HAL2     0.900000E-01   1.00800           0   0.00000     -0.301140E-02
      3242 MEMB     27       PMPE     C213     CTL2    -0.180000       12.0110           0   0.00000     -0.301140E-02
      3243 MEMB     27       PMPE     H13R     HAL2     0.900000E-01   1.00800           0   0.00000     -0.301140E-02
      3244 MEMB     27       PMPE     H13S     HAL2     0.900000E-01   1.00800           0   0.00000     -0.301140E-02
      3245 MEMB     27       PMPE     C214     CTL2    -0.180000       12.0110           0   0.00000     -0.301140E-02
      3246 MEMB     27       PMPE     H14R     HAL2     0.900000E-01   1.00800           0   0.00000     -0.301140E-02
      3247 MEMB     27       PMPE     H14S     HAL2     0.900000E-01   1.00800           0   0.00000     -0.301140E-02
      3248 MEMB     27       PMPE     C215     CTL2    -0.180000       12.0110           0   0.00000     -0.301140E-02
      3249 MEMB     27       PMPE     H15R     HAL2     0.900000E-01   1.00800           0   0.00000     -0.301140E-02
      3250 MEMB     27       PMPE     H15S     HAL2     0.900000E-01   1.00800           0   0.00000     -0.301140E-02
      3251 MEMB     27       PMPE     C216     CTL3    -0.270000       12.0110           0   0.00000     -0.301140E-02
      3252 MEMB     27       PMPE     H16R     HAL3     0.900000E-01   1.00800           0   0.00000     -0.301140E-02
      3253 MEMB     27       PMPE     H16S     HAL3     0.900000E-01   1.00800           0   0.00000     -0.301140E-02
      3254 MEMB     27       PMPE     H16T     HAL3     0.900000E-01   1.00800           0   0.00000     -0.301140E-02
      3255 MEMB     27       PMPE     C33      CTL2    -0.180000       12.0110           0   0.00000     -0.301140E-02
      3256 MEMB     27       PMPE     H3X      HAL2     0.900000E-01   1.00800           0   0.00000     -0.301140E-02
      3257 MEMB     27       PMPE     H3Y      HAL2     0.900000E-01   1.00800           0   0.00000     -0.301140E-02
      3258 MEMB     27       PMPE     C34      CTL2    -0.180000       12.0110           0   0.00000     -0.301140E-02
      3259 MEMB     27       PMPE     H4X      HAL2     0.900000E-01   1.00800           0   0.00000     -0.301140E-02
      3260 MEMB     27       PMPE     H4Y      HAL2     0.900000E-01   1.00800           0   0.00000     -0.301140E-02
      3261 MEMB     27       PMPE     C35      CTL2    -0.180000       12.0110           0   0.00000     -0.301140E-02
      3262 MEMB     27       PMPE     H5X      HAL2     0.900000E-01   1.00800           0   0.00000     -0.301140E-02
      3263 MEMB     27       PMPE     H5Y      HAL2     0.900000E-01   1.00800           0   0.00000     -0.301140E-02
      3264 MEMB     27       PMPE     C36      CTL2    -0.180000       12.0110           0   0.00000     -0.301140E-02
      3265 MEMB     27       PMPE     H6X      HAL2     0.900000E-01   1.00800           0   0.00000     -0.301140E-02
      3266 MEMB     27       PMPE     H6Y      HAL2     0.900000E-01   1.00800           0   0.00000     -0.301140E-02
      3267 MEMB     27       PMPE     C37      CTL2    -0.180000       12.0110           0   0.00000     -0.301140E-02
      3268 MEMB     27       PMPE     H7X      HAL2     0.900000E-01   1.00800           0   0.00000     -0.301140E-02
      3269 MEMB     27       PMPE     H7Y      HAL2     0.900000E-01   1.00800           0   0.00000     -0.301140E-02
      3270 MEMB     27       PMPE     C38      CTL2    -0.180000       12.0110           0   0.00000     -0.301140E-02
      3271 MEMB     27       PMPE     H8X      HAL2     0.900000E-01   1.00800           0   0.00000     -0.301140E-02
      3272 MEMB     27       PMPE     H8Y      HAL2     0.900000E-01   1.00800           0   0.00000     -0.301140E-02
      3273 MEMB     27       PMPE     C39      CTL2    -0.180000       12.0110           0   0.00000     -0.301140E-02
      3274 MEMB     27       PMPE     H9X      HAL2     0.900000E-01   1.00800           0   0.00000     -0.301140E-02
      3275 MEMB     27       PMPE     H9Y      HAL2     0.900000E-01   1.00800           0   0.00000     -0.301140E-02
      3276 MEMB     27       PMPE     C310     CTL2    -0.180000       12.0110           0   0.00000     -0.301140E-02
      3277 MEMB     27       PMPE     H10X     HAL2     0.900000E-01   1.00800           0   0.00000     -0.301140E-02
      3278 MEMB     27       PMPE     H10Y     HAL2     0.900000E-01   1.00800           0   0.00000     -0.301140E-02
      3279 MEMB     27       PMPE     C311     CTL2    -0.180000       12.0110           0   0.00000     -0.301140E-02
      3280 MEMB     27       PMPE     H11X     HAL2     0.900000E-01   1.00800           0   0.00000     -0.301140E-02
      3281 MEMB     27       PMPE     H11Y     HAL2     0.900000E-01   1.00800           0   0.00000     -0.301140E-02
      3282 MEMB     27       PMPE     C312     CTL2    -0.180000       12.0110           0   0.00000     -0.301140E-02
      3283 MEMB     27       PMPE     H12X     HAL2     0.900000E-01   1.00800           0   0.00000     -0.301140E-02
      3284 MEMB     27       PMPE     H12Y     HAL2     0.900000E-01   1.00800           0   0.00000     -0.301140E-02
      3285 MEMB     27       PMPE     C313     CTL2    -0.180000       12.0110           0   0.00000     -0.301140E-02
      3286 MEMB     27       PMPE     H13X     HAL2     0.900000E-01   1.00800           0   0.00000     -0.301140E-02
      3287 MEMB     27       PMPE     H13Y     HAL2     0.900000E-01   1.00800           0   0.00000     -0.301140E-02
      3288 MEMB     27       PMPE     C314     CTL2    -0.180000       12.0110           0   0.00000     -0.301140E-02
      3289 MEMB     27       PMPE     H14X     HAL2     0.900000E-01   1.00800           0   0.00000     -0.301140E-02
      3290 MEMB     27       PMPE     H14Y     HAL2     0.900000E-01   1.00800           0   0.00000     -0.301140E-02
      3291 MEMB     27       PMPE     C315     CTL2    -0.180000       12.0110           0   0.00000     -0.301140E-02
      3292 MEMB     27       PMPE     H15X     HAL2     0.900000E-01   1.00800           0   0.00000     -0.301140E-02
      3293 MEMB     27       PMPE     H15Y     HAL2     0.900000E-01   1.00800           0   0.00000     -0.301140E-02
      3294 MEMB     27       PMPE     C316     CTL3    -0.270000       12.0110           0   0.00000     -0.301140E-02
      3295 MEMB     27       PMPE     H16X     HAL3     0.900000E-01   1.00800           0   0.00000     -0.301140E-02
      3296 MEMB     27       PMPE     H16Y     HAL3     0.900000E-01   1.00800           0   0.00000     -0.301140E-02
      3297 MEMB     27       PMPE     H16Z     HAL3     0.900000E-01   1.00800           0   0.00000     -0.301140E-02
      3298 MEMB     28       PMPE     N        NH3L    -0.300000       14.0070           0   0.00000     -0.301140E-02
      3299 MEMB     28       PMPE     HN1      HCL      0.330000       1.00800           0   0.00000     -0.301140E-02
      3300 MEMB     28       PMPE     HN2      HCL      0.330000       1.00800           0   0.00000     -0.301140E-02
      3301 MEMB     28       PMPE     HN3      HCL      0.330000       1.00800           0   0.00000     -0.301140E-02
      3302 MEMB     28       PMPE     C12      CTL2     0.130000       12.0110           0   0.00000     -0.301140E-02
      3303 MEMB     28       PMPE     H12A     HAL2     0.900000E-01   1.00800           0   0.00000     -0.301140E-02
      3304 MEMB     28       PMPE     H12B     HAL2     0.900000E-01   1.00800           0   0.00000     -0.301140E-02
      3305 MEMB     28       PMPE     C11      CTL2    -0.800000E-01   12.0110           0   0.00000     -0.301140E-02
      3306 MEMB     28       PMPE     H11A     HAL2     0.900000E-01   1.00800           0   0.00000     -0.301140E-02
      3307 MEMB     28       PMPE     H11B     HAL2     0.900000E-01   1.00800           0   0.00000     -0.301140E-02
      3308 MEMB     28       PMPE     P        PL        1.50000       30.9740           0   0.00000     -0.301140E-02
      3309 MEMB     28       PMPE     O13      O2L     -0.780000       15.9994           0   0.00000     -0.301140E-02
      3310 MEMB     28       PMPE     O14      O2L     -0.780000       15.9994           0   0.00000     -0.301140E-02
      3311 MEMB     28       PMPE     O11      OSLP    -0.570000       15.9994           0   0.00000     -0.301140E-02
      3312 MEMB     28       PMPE     O12      OSLP    -0.570000       15.9994           0   0.00000     -0.301140E-02
      3313 MEMB     28       PMPE     C1       CTL2    -0.800000E-01   12.0110           0   0.00000     -0.301140E-02
      3314 MEMB     28       PMPE     HA       HAL2     0.900000E-01   1.00800           0   0.00000     -0.301140E-02
      3315 MEMB     28       PMPE     HB       HAL2     0.900000E-01   1.00800           0   0.00000     -0.301140E-02
      3316 MEMB     28       PMPE     C2       CTL1     0.170000       12.0110           0   0.00000     -0.301140E-02
      3317 MEMB     28       PMPE     HS       HAL1     0.900000E-01   1.00800           0   0.00000     -0.301140E-02
      3318 MEMB     28       PMPE     O21      OSL     -0.490000       15.9994           0   0.00000     -0.301140E-02
      3319 MEMB     28       PMPE     C21      CL       0.900000       12.0110           0   0.00000     -0.301140E-02
      3320 MEMB     28       PMPE     O22      OBL     -0.630000       15.9994           0   0.00000     -0.301140E-02
      3321 MEMB     28       PMPE     C22      CTL2    -0.220000       12.0110           0   0.00000     -0.301140E-02
      3322 MEMB     28       PMPE     H2R      HAL2     0.900000E-01   1.00800           0   0.00000     -0.301140E-02
      3323 MEMB     28       PMPE     H2S      HAL2     0.900000E-01   1.00800           0   0.00000     -0.301140E-02
      3324 MEMB     28       PMPE     C3       CTL2     0.800000E-01   12.0110           0   0.00000     -0.301140E-02
      3325 MEMB     28       PMPE     HX       HAL2     0.900000E-01   1.00800           0   0.00000     -0.301140E-02
      3326 MEMB     28       PMPE     HY       HAL2     0.900000E-01   1.00800           0   0.00000     -0.301140E-02
      3327 MEMB     28       PMPE     O31      OSL     -0.490000       15.9994           0   0.00000     -0.301140E-02
      3328 MEMB     28       PMPE     C31      CL       0.900000       12.0110           0   0.00000     -0.301140E-02
      3329 MEMB     28       PMPE     O32      OBL     -0.630000       15.9994           0   0.00000     -0.301140E-02
      3330 MEMB     28       PMPE     C32      CTL2    -0.220000       12.0110           0   0.00000     -0.301140E-02
      3331 MEMB     28       PMPE     H2X      HAL2     0.900000E-01   1.00800           0   0.00000     -0.301140E-02
      3332 MEMB     28       PMPE     H2Y      HAL2     0.900000E-01   1.00800           0   0.00000     -0.301140E-02
      3333 MEMB     28       PMPE     C23      CTL2    -0.180000       12.0110           0   0.00000     -0.301140E-02
      3334 MEMB     28       PMPE     H3R      HAL2     0.900000E-01   1.00800           0   0.00000     -0.301140E-02
      3335 MEMB     28       PMPE     H3S      HAL2     0.900000E-01   1.00800           0   0.00000     -0.301140E-02
      3336 MEMB     28       PMPE     C24      CTL2    -0.180000       12.0110           0   0.00000     -0.301140E-02
      3337 MEMB     28       PMPE     H4R      HAL2     0.900000E-01   1.00800           0   0.00000     -0.301140E-02
      3338 MEMB     28       PMPE     H4S      HAL2     0.900000E-01   1.00800           0   0.00000     -0.301140E-02
      3339 MEMB     28       PMPE     C25      CTL2    -0.180000       12.0110           0   0.00000     -0.301140E-02
      3340 MEMB     28       PMPE     H5R      HAL2     0.900000E-01   1.00800           0   0.00000     -0.301140E-02
      3341 MEMB     28       PMPE     H5S      HAL2     0.900000E-01   1.00800           0   0.00000     -0.301140E-02
      3342 MEMB     28       PMPE     C26      CTL2    -0.180000       12.0110           0   0.00000     -0.301140E-02
      3343 MEMB     28       PMPE     H6R      HAL2     0.900000E-01   1.00800           0   0.00000     -0.301140E-02
      3344 MEMB     28       PMPE     H6S      HAL2     0.900000E-01   1.00800           0   0.00000     -0.301140E-02
      3345 MEMB     28       PMPE     C27      CTL2    -0.180000       12.0110           0   0.00000     -0.301140E-02
      3346 MEMB     28       PMPE     H7R      HAL2     0.900000E-01   1.00800           0   0.00000     -0.301140E-02
      3347 MEMB     28       PMPE     H7S      HAL2     0.900000E-01   1.00800           0   0.00000     -0.301140E-02
      3348 MEMB     28       PMPE     C28      CTL2    -0.180000       12.0110           0   0.00000     -0.301140E-02
      3349 MEMB     28       PMPE     H8R      HAL2     0.900000E-01   1.00800           0   0.00000     -0.301140E-02
      3350 MEMB     28       PMPE     H8S      HAL2     0.900000E-01   1.00800           0   0.00000     -0.301140E-02
      3351 MEMB     28       PMPE     C29      CG3RC1  -0.900000E-01   12.0110           0   0.00000     -0.301140E-02
      3352 MEMB     28       PMPE     H9R      HGA1     0.900000E-01   1.00800           0   0.00000     -0.301140E-02
      3353 MEMB     28       PMPE     C217     CG3C31  -0.180000       12.0110           0   0.00000     -0.301140E-02
      3354 MEMB     28       PMPE     H17R     HGA2     0.900000E-01   1.00800           0   0.00000     -0.301140E-02
      3355 MEMB     28       PMPE     H17S     HGA2     0.900000E-01   1.00800           0   0.00000     -0.301140E-02
      3356 MEMB     28       PMPE     C210     CG3RC1  -0.900000E-01   12.0110           0   0.00000     -0.301140E-02
      3357 MEMB     28       PMPE     H10R     HGA1     0.900000E-01   1.00800           0   0.00000     -0.301140E-02
      3358 MEMB     28       PMPE     C211     CTL2    -0.180000       12.0110           0   0.00000     -0.301140E-02
      3359 MEMB     28       PMPE     H11R     HAL2     0.900000E-01   1.00800           0   0.00000     -0.301140E-02
      3360 MEMB     28       PMPE     H11S     HAL2     0.900000E-01   1.00800           0   0.00000     -0.301140E-02
      3361 MEMB     28       PMPE     C212     CTL2    -0.180000       12.0110           0   0.00000     -0.301140E-02
      3362 MEMB     28       PMPE     H12R     HAL2     0.900000E-01   1.00800           0   0.00000     -0.301140E-02
      3363 MEMB     28       PMPE     H12S     HAL2     0.900000E-01   1.00800           0   0.00000     -0.301140E-02
      3364 MEMB     28       PMPE     C213     CTL2    -0.180000       12.0110           0   0.00000     -0.301140E-02
      3365 MEMB     28       PMPE     H13R     HAL2     0.900000E-01   1.00800           0   0.00000     -0.301140E-02
      3366 MEMB     28       PMPE     H13S     HAL2     0.900000E-01   1.00800           0   0.00000     -0.301140E-02
      3367 MEMB     28       PMPE     C214     CTL2    -0.180000       12.0110           0   0.00000     -0.301140E-02
      3368 MEMB     28       PMPE     H14R     HAL2     0.900000E-01   1.00800           0   0.00000     -0.301140E-02
      3369 MEMB     28       PMPE     H14S     HAL2     0.900000E-01   1.00800           0   0.00000     -0.301140E-02
      3370 MEMB     28       PMPE     C215     CTL2    -0.180000       12.0110           0   0.00000     -0.301140E-02
      3371 MEMB     28       PMPE     H15R     HAL2     0.900000E-01   1.00800           0   0.00000     -0.301140E-02
      3372 MEMB     28       PMPE     H15S     HAL2     0.900000E-01   1.00800           0   0.00000     -0.301140E-02
      3373 MEMB     28       PMPE     C216     CTL3    -0.270000       12.0110           0   0.00000     -0.301140E-02
      3374 MEMB     28       PMPE     H16R     HAL3     0.900000E-01   1.00800           0   0.00000     -0.301140E-02
      3375 MEMB     28       PMPE     H16S     HAL3     0.900000E-01   1.00800           0   0.00000     -0.301140E-02
      3376 MEMB     28       PMPE     H16T     HAL3     0.900000E-01   1.00800           0   0.00000     -0.301140E-02
      3377 MEMB     28       PMPE     C33      CTL2    -0.180000       12.0110           0   0.00000     -0.301140E-02
      3378 MEMB     28       PMPE     H3X      HAL2     0.900000E-01   1.00800           0   0.00000     -0.301140E-02
      3379 MEMB     28       PMPE     H3Y      HAL2     0.900000E-01   1.00800           0   0.00000     -0.301140E-02
      3380 MEMB     28       PMPE     C34      CTL2    -0.180000       12.0110           0   0.00000     -0.301140E-02
      3381 MEMB     28       PMPE     H4X      HAL2     0.900000E-01   1.00800           0   0.00000     -0.301140E-02
      3382 MEMB     28       PMPE     H4Y      HAL2     0.900000E-01   1.00800           0   0.00000     -0.301140E-02
      3383 MEMB     28       PMPE     C35      CTL2    -0.180000       12.0110           0   0.00000     -0.301140E-02
      3384 MEMB     28       PMPE     H5X      HAL2     0.900000E-01   1.00800           0   0.00000     -0.301140E-02
      3385 MEMB     28       PMPE     H5Y      HAL2     0.900000E-01   1.00800           0   0.00000     -0.301140E-02
      3386 MEMB     28       PMPE     C36      CTL2    -0.180000       12.0110           0   0.00000     -0.301140E-02
      3387 MEMB     28       PMPE     H6X      HAL2     0.900000E-01   1.00800           0   0.00000     -0.301140E-02
      3388 MEMB     28       PMPE     H6Y      HAL2     0.900000E-01   1.00800           0   0.00000     -0.301140E-02
      3389 MEMB     28       PMPE     C37      CTL2    -0.180000       12.0110           0   0.00000     -0.301140E-02
      3390 MEMB     28       PMPE     H7X      HAL2     0.900000E-01   1.00800           0   0.00000     -0.301140E-02
      3391 MEMB     28       PMPE     H7Y      HAL2     0.900000E-01   1.00800           0   0.00000     -0.301140E-02
      3392 MEMB     28       PMPE     C38      CTL2    -0.180000       12.0110           0   0.00000     -0.301140E-02
      3393 MEMB     28       PMPE     H8X      HAL2     0.900000E-01   1.00800           0   0.00000     -0.301140E-02
      3394 MEMB     28       PMPE     H8Y      HAL2     0.900000E-01   1.00800           0   0.00000     -0.301140E-02
      3395 MEMB     28       PMPE     C39      CTL2    -0.180000       12.0110           0   0.00000     -0.301140E-02
      3396 MEMB     28       PMPE     H9X      HAL2     0.900000E-01   1.00800           0   0.00000     -0.301140E-02
      3397 MEMB     28       PMPE     H9Y      HAL2     0.900000E-01   1.00800           0   0.00000     -0.301140E-02
      3398 MEMB     28       PMPE     C310     CTL2    -0.180000       12.0110           0   0.00000     -0.301140E-02
      3399 MEMB     28       PMPE     H10X     HAL2     0.900000E-01   1.00800           0   0.00000     -0.301140E-02
      3400 MEMB     28       PMPE     H10Y     HAL2     0.900000E-01   1.00800           0   0.00000     -0.301140E-02
      3401 MEMB     28       PMPE     C311     CTL2    -0.180000       12.0110           0   0.00000     -0.301140E-02
      3402 MEMB     28       PMPE     H11X     HAL2     0.900000E-01   1.00800           0   0.00000     -0.301140E-02
      3403 MEMB     28       PMPE     H11Y     HAL2     0.900000E-01   1.00800           0   0.00000     -0.301140E-02
      3404 MEMB     28       PMPE     C312     CTL2    -0.180000       12.0110           0   0.00000     -0.301140E-02
      3405 MEMB     28       PMPE     H12X     HAL2     0.900000E-01   1.00800           0   0.00000     -0.301140E-02
      3406 MEMB     28       PMPE     H12Y     HAL2     0.900000E-01   1.00800           0   0.00000     -0.301140E-02
      3407 MEMB     28       PMPE     C313     CTL2    -0.180000       12.0110           0   0.00000     -0.301140E-02
      3408 MEMB     28       PMPE     H13X     HAL2     0.900000E-01   1.00800           0   0.00000     -0.301140E-02
      3409 MEMB     28       PMPE     H13Y     HAL2     0.900000E-01   1.00800           0   0.00000     -0.301140E-02
      3410 MEMB     28       PMPE     C314     CTL2    -0.180000       12.0110           0   0.00000     -0.301140E-02
      3411 MEMB     28       PMPE     H14X     HAL2     0.900000E-01   1.00800           0   0.00000     -0.301140E-02
      3412 MEMB     28       PMPE     H14Y     HAL2     0.900000E-01   1.00800           0   0.00000     -0.301140E-02
      3413 MEMB     28       PMPE     C315     CTL2    -0.180000       12.0110           0   0.00000     -0.301140E-02
      3414 MEMB     28       PMPE     H15X     HAL2     0.900000E-01   1.00800           0   0.00000     -0.301140E-02
      3415 MEMB     28       PMPE     H15Y     HAL2     0.900000E-01   1.00800           0   0.00000     -0.301140E-02
      3416 MEMB     28       PMPE     C316     CTL3    -0.270000       12.0110           0   0.00000     -0.301140E-02
      3417 MEMB     28       PMPE     H16X     HAL3     0.900000E-01   1.00800           0   0.00000     -0.301140E-02
      3418 MEMB     28       PMPE     H16Y     HAL3     0.900000E-01   1.00800           0   0.00000     -0.301140E-02
      3419 MEMB     28       PMPE     H16Z     HAL3     0.900000E-01   1.00800           0   0.00000     -0.301140E-02
      3420 MEMB     29       PMPG     C13      CTL2     0.500000E-01   12.0110           0   0.00000     -0.301140E-02
      3421 MEMB     29       PMPG     H13A     HAL2     0.900000E-01   1.00800           0   0.00000     -0.301140E-02
      3422 MEMB     29       PMPG     H13B     HAL2     0.900000E-01   1.00800           0   0.00000     -0.301140E-02
      3423 MEMB     29       PMPG     OC3      OHL     -0.660000       15.9994           0   0.00000     -0.301140E-02
      3424 MEMB     29       PMPG     HO3      HOL      0.430000       1.00800           0   0.00000     -0.301140E-02
      3425 MEMB     29       PMPG     C12      CTL1     0.140000       12.0110           0   0.00000     -0.301140E-02
      3426 MEMB     29       PMPG     H12A     HAL1     0.900000E-01   1.00800           0   0.00000     -0.301140E-02
      3427 MEMB     29       PMPG     OC2      OHL     -0.660000       15.9994           0   0.00000     -0.301140E-02
      3428 MEMB     29       PMPG     HO2      HOL      0.430000       1.00800           0   0.00000     -0.301140E-02
      3429 MEMB     29       PMPG     C11      CTL2    -0.800000E-01   12.0110           0   0.00000     -0.301140E-02
      3430 MEMB     29       PMPG     H11A     HAL2     0.900000E-01   1.00800           0   0.00000     -0.301140E-02
      3431 MEMB     29       PMPG     H11B     HAL2     0.900000E-01   1.00800           0   0.00000     -0.301140E-02
      3432 MEMB     29       PMPG     P        PL        1.50000       30.9740           0   0.00000     -0.301140E-02
      3433 MEMB     29       PMPG     O13      O2L     -0.780000       15.9994           0   0.00000     -0.301140E-02
      3434 MEMB     29       PMPG     O14      O2L     -0.780000       15.9994           0   0.00000     -0.301140E-02
      3435 MEMB     29       PMPG     O11      OSLP    -0.570000       15.9994           0   0.00000     -0.301140E-02
      3436 MEMB     29       PMPG     O12      OSLP    -0.570000       15.9994           0   0.00000     -0.301140E-02
      3437 MEMB     29       PMPG     C1       CTL2    -0.800000E-01   12.0110           0   0.00000     -0.301140E-02
      3438 MEMB     29       PMPG     HA       HAL2     0.900000E-01   1.00800           0   0.00000     -0.301140E-02
      3439 MEMB     29       PMPG     HB       HAL2     0.900000E-01   1.00800           0   0.00000     -0.301140E-02
      3440 MEMB     29       PMPG     C2       CTL1     0.170000       12.0110           0   0.00000     -0.301140E-02
      3441 MEMB     29       PMPG     HS       HAL1     0.900000E-01   1.00800           0   0.00000     -0.301140E-02
      3442 MEMB     29       PMPG     O21      OSL     -0.490000       15.9994           0   0.00000     -0.301140E-02
      3443 MEMB     29       PMPG     C21      CL       0.900000       12.0110           0   0.00000     -0.301140E-02
      3444 MEMB     29       PMPG     O22      OBL     -0.630000       15.9994           0   0.00000     -0.301140E-02
      3445 MEMB     29       PMPG     C22      CTL2    -0.220000       12.0110           0   0.00000     -0.301140E-02
      3446 MEMB     29       PMPG     H2R      HAL2     0.900000E-01   1.00800           0   0.00000     -0.301140E-02
      3447 MEMB     29       PMPG     H2S      HAL2     0.900000E-01   1.00800           0   0.00000     -0.301140E-02
      3448 MEMB     29       PMPG     C3       CTL2     0.800000E-01   12.0110           0   0.00000     -0.301140E-02
      3449 MEMB     29       PMPG     HX       HAL2     0.900000E-01   1.00800           0   0.00000     -0.301140E-02
      3450 MEMB     29       PMPG     HY       HAL2     0.900000E-01   1.00800           0   0.00000     -0.301140E-02
      3451 MEMB     29       PMPG     O31      OSL     -0.490000       15.9994           0   0.00000     -0.301140E-02
      3452 MEMB     29       PMPG     C31      CL       0.900000       12.0110           0   0.00000     -0.301140E-02
      3453 MEMB     29       PMPG     O32      OBL     -0.630000       15.9994           0   0.00000     -0.301140E-02
      3454 MEMB     29       PMPG     C32      CTL2    -0.220000       12.0110           0   0.00000     -0.301140E-02
      3455 MEMB     29       PMPG     H2X      HAL2     0.900000E-01   1.00800           0   0.00000     -0.301140E-02
      3456 MEMB     29       PMPG     H2Y      HAL2     0.900000E-01   1.00800           0   0.00000     -0.301140E-02
      3457 MEMB     29       PMPG     C23      CTL2    -0.180000       12.0110           0   0.00000     -0.301140E-02
      3458 MEMB     29       PMPG     H3R      HAL2     0.900000E-01   1.00800           0   0.00000     -0.301140E-02
      3459 MEMB     29       PMPG     H3S      HAL2     0.900000E-01   1.00800           0   0.00000     -0.301140E-02
      3460 MEMB     29       PMPG     C24      CTL2    -0.180000       12.0110           0   0.00000     -0.301140E-02
      3461 MEMB     29       PMPG     H4R      HAL2     0.900000E-01   1.00800           0   0.00000     -0.301140E-02
      3462 MEMB     29       PMPG     H4S      HAL2     0.900000E-01   1.00800           0   0.00000     -0.301140E-02
      3463 MEMB     29       PMPG     C25      CTL2    -0.180000       12.0110           0   0.00000     -0.301140E-02
      3464 MEMB     29       PMPG     H5R      HAL2     0.900000E-01   1.00800           0   0.00000     -0.301140E-02
      3465 MEMB     29       PMPG     H5S      HAL2     0.900000E-01   1.00800           0   0.00000     -0.301140E-02
      3466 MEMB     29       PMPG     C26      CTL2    -0.180000       12.0110           0   0.00000     -0.301140E-02
      3467 MEMB     29       PMPG     H6R      HAL2     0.900000E-01   1.00800           0   0.00000     -0.301140E-02
      3468 MEMB     29       PMPG     H6S      HAL2     0.900000E-01   1.00800           0   0.00000     -0.301140E-02
      3469 MEMB     29       PMPG     C27      CTL2    -0.180000       12.0110           0   0.00000     -0.301140E-02
      3470 MEMB     29       PMPG     H7R      HAL2     0.900000E-01   1.00800           0   0.00000     -0.301140E-02
      3471 MEMB     29       PMPG     H7S      HAL2     0.900000E-01   1.00800           0   0.00000     -0.301140E-02
      3472 MEMB     29       PMPG     C28      CTL2    -0.180000       12.0110           0   0.00000     -0.301140E-02
      3473 MEMB     29       PMPG     H8R      HAL2     0.900000E-01   1.00800           0   0.00000     -0.301140E-02
      3474 MEMB     29       PMPG     H8S      HAL2     0.900000E-01   1.00800           0   0.00000     -0.301140E-02
      3475 MEMB     29       PMPG     C29      CG3RC1  -0.900000E-01   12.0110           0   0.00000     -0.301140E-02
      3476 MEMB     29       PMPG     H9R      HGA1     0.900000E-01   1.00800           0   0.00000     -0.301140E-02
      3477 MEMB     29       PMPG     C217     CG3C31  -0.180000       12.0110           0   0.00000     -0.301140E-02
      3478 MEMB     29       PMPG     H17R     HGA2     0.900000E-01   1.00800           0   0.00000     -0.301140E-02
      3479 MEMB     29       PMPG     H17S     HGA2     0.900000E-01   1.00800           0   0.00000     -0.301140E-02
      3480 MEMB     29       PMPG     C210     CG3RC1  -0.900000E-01   12.0110           0   0.00000     -0.301140E-02
      3481 MEMB     29       PMPG     H10R     HGA1     0.900000E-01   1.00800           0   0.00000     -0.301140E-02
      3482 MEMB     29       PMPG     C211     CTL2    -0.180000       12.0110           0   0.00000     -0.301140E-02
      3483 MEMB     29       PMPG     H11R     HAL2     0.900000E-01   1.00800           0   0.00000     -0.301140E-02
      3484 MEMB     29       PMPG     H11S     HAL2     0.900000E-01   1.00800           0   0.00000     -0.301140E-02
      3485 MEMB     29       PMPG     C212     CTL2    -0.180000       12.0110           0   0.00000     -0.301140E-02
      3486 MEMB     29       PMPG     H12R     HAL2     0.900000E-01   1.00800           0   0.00000     -0.301140E-02
      3487 MEMB     29       PMPG     H12S     HAL2     0.900000E-01   1.00800           0   0.00000     -0.301140E-02
      3488 MEMB     29       PMPG     C213     CTL2    -0.180000       12.0110           0   0.00000     -0.301140E-02
      3489 MEMB     29       PMPG     H13R     HAL2     0.900000E-01   1.00800           0   0.00000     -0.301140E-02
      3490 MEMB     29       PMPG     H13S     HAL2     0.900000E-01   1.00800           0   0.00000     -0.301140E-02
      3491 MEMB     29       PMPG     C214     CTL2    -0.180000       12.0110           0   0.00000     -0.301140E-02
      3492 MEMB     29       PMPG     H14R     HAL2     0.900000E-01   1.00800           0   0.00000     -0.301140E-02
      3493 MEMB     29       PMPG     H14S     HAL2     0.900000E-01   1.00800           0   0.00000     -0.301140E-02
      3494 MEMB     29       PMPG     C215     CTL2    -0.180000       12.0110           0   0.00000     -0.301140E-02
      3495 MEMB     29       PMPG     H15R     HAL2     0.900000E-01   1.00800           0   0.00000     -0.301140E-02
      3496 MEMB     29       PMPG     H15S     HAL2     0.900000E-01   1.00800           0   0.00000     -0.301140E-02
      3497 MEMB     29       PMPG     C216     CTL3    -0.270000       12.0110           0   0.00000     -0.301140E-02
      3498 MEMB     29       PMPG     H16R     HAL3     0.900000E-01   1.00800           0   0.00000     -0.301140E-02
      3499 MEMB     29       PMPG     H16S     HAL3     0.900000E-01   1.00800           0   0.00000     -0.301140E-02
      3500 MEMB     29       PMPG     H16T     HAL3     0.900000E-01   1.00800           0   0.00000     -0.301140E-02
      3501 MEMB     29       PMPG     C33      CTL2    -0.180000       12.0110           0   0.00000     -0.301140E-02
      3502 MEMB     29       PMPG     H3X      HAL2     0.900000E-01   1.00800           0   0.00000     -0.301140E-02
      3503 MEMB     29       PMPG     H3Y      HAL2     0.900000E-01   1.00800           0   0.00000     -0.301140E-02
      3504 MEMB     29       PMPG     C34      CTL2    -0.180000       12.0110           0   0.00000     -0.301140E-02
      3505 MEMB     29       PMPG     H4X      HAL2     0.900000E-01   1.00800           0   0.00000     -0.301140E-02
      3506 MEMB     29       PMPG     H4Y      HAL2     0.900000E-01   1.00800           0   0.00000     -0.301140E-02
      3507 MEMB     29       PMPG     C35      CTL2    -0.180000       12.0110           0   0.00000     -0.301140E-02
      3508 MEMB     29       PMPG     H5X      HAL2     0.900000E-01   1.00800           0   0.00000     -0.301140E-02
      3509 MEMB     29       PMPG     H5Y      HAL2     0.900000E-01   1.00800           0   0.00000     -0.301140E-02
      3510 MEMB     29       PMPG     C36      CTL2    -0.180000       12.0110           0   0.00000     -0.301140E-02
      3511 MEMB     29       PMPG     H6X      HAL2     0.900000E-01   1.00800           0   0.00000     -0.301140E-02
      3512 MEMB     29       PMPG     H6Y      HAL2     0.900000E-01   1.00800           0   0.00000     -0.301140E-02
      3513 MEMB     29       PMPG     C37      CTL2    -0.180000       12.0110           0   0.00000     -0.301140E-02
      3514 MEMB     29       PMPG     H7X      HAL2     0.900000E-01   1.00800           0   0.00000     -0.301140E-02
      3515 MEMB     29       PMPG     H7Y      HAL2     0.900000E-01   1.00800           0   0.00000     -0.301140E-02
      3516 MEMB     29       PMPG     C38      CTL2    -0.180000       12.0110           0   0.00000     -0.301140E-02
      3517 MEMB     29       PMPG     H8X      HAL2     0.900000E-01   1.00800           0   0.00000     -0.301140E-02
      3518 MEMB     29       PMPG     H8Y      HAL2     0.900000E-01   1.00800           0   0.00000     -0.301140E-02
      3519 MEMB     29       PMPG     C39      CTL2    -0.180000       12.0110           0   0.00000     -0.301140E-02
      3520 MEMB     29       PMPG     H9X      HAL2     0.900000E-01   1.00800           0   0.00000     -0.301140E-02
      3521 MEMB     29       PMPG     H9Y      HAL2     0.900000E-01   1.00800           0   0.00000     -0.301140E-02
      3522 MEMB     29       PMPG     C310     CTL2    -0.180000       12.0110           0   0.00000     -0.301140E-02
      3523 MEMB     29       PMPG     H10X     HAL2     0.900000E-01   1.00800           0   0.00000     -0.301140E-02
      3524 MEMB     29       PMPG     H10Y     HAL2     0.900000E-01   1.00800           0   0.00000     -0.301140E-02
      3525 MEMB     29       PMPG     C311     CTL2    -0.180000       12.0110           0   0.00000     -0.301140E-02
      3526 MEMB     29       PMPG     H11X     HAL2     0.900000E-01   1.00800           0   0.00000     -0.301140E-02
      3527 MEMB     29       PMPG     H11Y     HAL2     0.900000E-01   1.00800           0   0.00000     -0.301140E-02
      3528 MEMB     29       PMPG     C312     CTL2    -0.180000       12.0110           0   0.00000     -0.301140E-02
      3529 MEMB     29       PMPG     H12X     HAL2     0.900000E-01   1.00800           0   0.00000     -0.301140E-02
      3530 MEMB     29       PMPG     H12Y     HAL2     0.900000E-01   1.00800           0   0.00000     -0.301140E-02
      3531 MEMB     29       PMPG     C313     CTL2    -0.180000       12.0110           0   0.00000     -0.301140E-02
      3532 MEMB     29       PMPG     H13X     HAL2     0.900000E-01   1.00800           0   0.00000     -0.301140E-02
      3533 MEMB     29       PMPG     H13Y     HAL2     0.900000E-01   1.00800           0   0.00000     -0.301140E-02
      3534 MEMB     29       PMPG     C314     CTL2    -0.180000       12.0110           0   0.00000     -0.301140E-02
      3535 MEMB     29       PMPG     H14X     HAL2     0.900000E-01   1.00800           0   0.00000     -0.301140E-02
      3536 MEMB     29       PMPG     H14Y     HAL2     0.900000E-01   1.00800           0   0.00000     -0.301140E-02
      3537 MEMB     29       PMPG     C315     CTL2    -0.180000       12.0110           0   0.00000     -0.301140E-02
      3538 MEMB     29       PMPG     H15X     HAL2     0.900000E-01   1.00800           0   0.00000     -0.301140E-02
      3539 MEMB     29       PMPG     H15Y     HAL2     0.900000E-01   1.00800           0   0.00000     -0.301140E-02
      3540 MEMB     29       PMPG     C316     CTL3    -0.270000       12.0110           0   0.00000     -0.301140E-02
      3541 MEMB     29       PMPG     H16X     HAL3     0.900000E-01   1.00800           0   0.00000     -0.301140E-02
      3542 MEMB     29       PMPG     H16Y     HAL3     0.900000E-01   1.00800           0   0.00000     -0.301140E-02
      3543 MEMB     29       PMPG     H16Z     HAL3     0.900000E-01   1.00800           0   0.00000     -0.301140E-02
      3544 MEMB     30       PMPE     N        NH3L    -0.300000       14.0070           0   0.00000     -0.301140E-02
      3545 MEMB     30       PMPE     HN1      HCL      0.330000       1.00800           0   0.00000     -0.301140E-02
      3546 MEMB     30       PMPE     HN2      HCL      0.330000       1.00800           0   0.00000     -0.301140E-02
      3547 MEMB     30       PMPE     HN3      HCL      0.330000       1.00800           0   0.00000     -0.301140E-02
      3548 MEMB     30       PMPE     C12      CTL2     0.130000       12.0110           0   0.00000     -0.301140E-02
      3549 MEMB     30       PMPE     H12A     HAL2     0.900000E-01   1.00800           0   0.00000     -0.301140E-02
      3550 MEMB     30       PMPE     H12B     HAL2     0.900000E-01   1.00800           0   0.00000     -0.301140E-02
      3551 MEMB     30       PMPE     C11      CTL2    -0.800000E-01   12.0110           0   0.00000     -0.301140E-02
      3552 MEMB     30       PMPE     H11A     HAL2     0.900000E-01   1.00800           0   0.00000     -0.301140E-02
      3553 MEMB     30       PMPE     H11B     HAL2     0.900000E-01   1.00800           0   0.00000     -0.301140E-02
      3554 MEMB     30       PMPE     P        PL        1.50000       30.9740           0   0.00000     -0.301140E-02
      3555 MEMB     30       PMPE     O13      O2L     -0.780000       15.9994           0   0.00000     -0.301140E-02
      3556 MEMB     30       PMPE     O14      O2L     -0.780000       15.9994           0   0.00000     -0.301140E-02
      3557 MEMB     30       PMPE     O11      OSLP    -0.570000       15.9994           0   0.00000     -0.301140E-02
      3558 MEMB     30       PMPE     O12      OSLP    -0.570000       15.9994           0   0.00000     -0.301140E-02
      3559 MEMB     30       PMPE     C1       CTL2    -0.800000E-01   12.0110           0   0.00000     -0.301140E-02
      3560 MEMB     30       PMPE     HA       HAL2     0.900000E-01   1.00800           0   0.00000     -0.301140E-02
      3561 MEMB     30       PMPE     HB       HAL2     0.900000E-01   1.00800           0   0.00000     -0.301140E-02
      3562 MEMB     30       PMPE     C2       CTL1     0.170000       12.0110           0   0.00000     -0.301140E-02
      3563 MEMB     30       PMPE     HS       HAL1     0.900000E-01   1.00800           0   0.00000     -0.301140E-02
      3564 MEMB     30       PMPE     O21      OSL     -0.490000       15.9994           0   0.00000     -0.301140E-02
      3565 MEMB     30       PMPE     C21      CL       0.900000       12.0110           0   0.00000     -0.301140E-02
      3566 MEMB     30       PMPE     O22      OBL     -0.630000       15.9994           0   0.00000     -0.301140E-02
      3567 MEMB     30       PMPE     C22      CTL2    -0.220000       12.0110           0   0.00000     -0.301140E-02
      3568 MEMB     30       PMPE     H2R      HAL2     0.900000E-01   1.00800           0   0.00000     -0.301140E-02
      3569 MEMB     30       PMPE     H2S      HAL2     0.900000E-01   1.00800           0   0.00000     -0.301140E-02
      3570 MEMB     30       PMPE     C3       CTL2     0.800000E-01   12.0110           0   0.00000     -0.301140E-02
      3571 MEMB     30       PMPE     HX       HAL2     0.900000E-01   1.00800           0   0.00000     -0.301140E-02
      3572 MEMB     30       PMPE     HY       HAL2     0.900000E-01   1.00800           0   0.00000     -0.301140E-02
      3573 MEMB     30       PMPE     O31      OSL     -0.490000       15.9994           0   0.00000     -0.301140E-02
      3574 MEMB     30       PMPE     C31      CL       0.900000       12.0110           0   0.00000     -0.301140E-02
      3575 MEMB     30       PMPE     O32      OBL     -0.630000       15.9994           0   0.00000     -0.301140E-02
      3576 MEMB     30       PMPE     C32      CTL2    -0.220000       12.0110           0   0.00000     -0.301140E-02
      3577 MEMB     30       PMPE     H2X      HAL2     0.900000E-01   1.00800           0   0.00000     -0.301140E-02
      3578 MEMB     30       PMPE     H2Y      HAL2     0.900000E-01   1.00800           0   0.00000     -0.301140E-02
      3579 MEMB     30       PMPE     C23      CTL2    -0.180000       12.0110           0   0.00000     -0.301140E-02
      3580 MEMB     30       PMPE     H3R      HAL2     0.900000E-01   1.00800           0   0.00000     -0.301140E-02
      3581 MEMB     30       PMPE     H3S      HAL2     0.900000E-01   1.00800           0   0.00000     -0.301140E-02
      3582 MEMB     30       PMPE     C24      CTL2    -0.180000       12.0110           0   0.00000     -0.301140E-02
      3583 MEMB     30       PMPE     H4R      HAL2     0.900000E-01   1.00800           0   0.00000     -0.301140E-02
      3584 MEMB     30       PMPE     H4S      HAL2     0.900000E-01   1.00800           0   0.00000     -0.301140E-02
      3585 MEMB     30       PMPE     C25      CTL2    -0.180000       12.0110           0   0.00000     -0.301140E-02
      3586 MEMB     30       PMPE     H5R      HAL2     0.900000E-01   1.00800           0   0.00000     -0.301140E-02
      3587 MEMB     30       PMPE     H5S      HAL2     0.900000E-01   1.00800           0   0.00000     -0.301140E-02
      3588 MEMB     30       PMPE     C26      CTL2    -0.180000       12.0110           0   0.00000     -0.301140E-02
      3589 MEMB     30       PMPE     H6R      HAL2     0.900000E-01   1.00800           0   0.00000     -0.301140E-02
      3590 MEMB     30       PMPE     H6S      HAL2     0.900000E-01   1.00800           0   0.00000     -0.301140E-02
      3591 MEMB     30       PMPE     C27      CTL2    -0.180000       12.0110           0   0.00000     -0.301140E-02
      3592 MEMB     30       PMPE     H7R      HAL2     0.900000E-01   1.00800           0   0.00000     -0.301140E-02
      3593 MEMB     30       PMPE     H7S      HAL2     0.900000E-01   1.00800           0   0.00000     -0.301140E-02
      3594 MEMB     30       PMPE     C28      CTL2    -0.180000       12.0110           0   0.00000     -0.301140E-02
      3595 MEMB     30       PMPE     H8R      HAL2     0.900000E-01   1.00800           0   0.00000     -0.301140E-02
      3596 MEMB     30       PMPE     H8S      HAL2     0.900000E-01   1.00800           0   0.00000     -0.301140E-02
      3597 MEMB     30       PMPE     C29      CG3RC1  -0.900000E-01   12.0110           0   0.00000     -0.301140E-02
      3598 MEMB     30       PMPE     H9R      HGA1     0.900000E-01   1.00800           0   0.00000     -0.301140E-02
      3599 MEMB     30       PMPE     C217     CG3C31  -0.180000       12.0110           0   0.00000     -0.301140E-02
      3600 MEMB     30       PMPE     H17R     HGA2     0.900000E-01   1.00800           0   0.00000     -0.301140E-02
      3601 MEMB     30       PMPE     H17S     HGA2     0.900000E-01   1.00800           0   0.00000     -0.301140E-02
      3602 MEMB     30       PMPE     C210     CG3RC1  -0.900000E-01   12.0110           0   0.00000     -0.301140E-02
      3603 MEMB     30       PMPE     H10R     HGA1     0.900000E-01   1.00800           0   0.00000     -0.301140E-02
      3604 MEMB     30       PMPE     C211     CTL2    -0.180000       12.0110           0   0.00000     -0.301140E-02
      3605 MEMB     30       PMPE     H11R     HAL2     0.900000E-01   1.00800           0   0.00000     -0.301140E-02
      3606 MEMB     30       PMPE     H11S     HAL2     0.900000E-01   1.00800           0   0.00000     -0.301140E-02
      3607 MEMB     30       PMPE     C212     CTL2    -0.180000       12.0110           0   0.00000     -0.301140E-02
      3608 MEMB     30       PMPE     H12R     HAL2     0.900000E-01   1.00800           0   0.00000     -0.301140E-02
      3609 MEMB     30       PMPE     H12S     HAL2     0.900000E-01   1.00800           0   0.00000     -0.301140E-02
      3610 MEMB     30       PMPE     C213     CTL2    -0.180000       12.0110           0   0.00000     -0.301140E-02
      3611 MEMB     30       PMPE     H13R     HAL2     0.900000E-01   1.00800           0   0.00000     -0.301140E-02
      3612 MEMB     30       PMPE     H13S     HAL2     0.900000E-01   1.00800           0   0.00000     -0.301140E-02
      3613 MEMB     30       PMPE     C214     CTL2    -0.180000       12.0110           0   0.00000     -0.301140E-02
      3614 MEMB     30       PMPE     H14R     HAL2     0.900000E-01   1.00800           0   0.00000     -0.301140E-02
      3615 MEMB     30       PMPE     H14S     HAL2     0.900000E-01   1.00800           0   0.00000     -0.301140E-02
      3616 MEMB     30       PMPE     C215     CTL2    -0.180000       12.0110           0   0.00000     -0.301140E-02
      3617 MEMB     30       PMPE     H15R     HAL2     0.900000E-01   1.00800           0   0.00000     -0.301140E-02
      3618 MEMB     30       PMPE     H15S     HAL2     0.900000E-01   1.00800           0   0.00000     -0.301140E-02
      3619 MEMB     30       PMPE     C216     CTL3    -0.270000       12.0110           0   0.00000     -0.301140E-02
      3620 MEMB     30       PMPE     H16R     HAL3     0.900000E-01   1.00800           0   0.00000     -0.301140E-02
      3621 MEMB     30       PMPE     H16S     HAL3     0.900000E-01   1.00800           0   0.00000     -0.301140E-02
      3622 MEMB     30       PMPE     H16T     HAL3     0.900000E-01   1.00800           0   0.00000     -0.301140E-02
      3623 MEMB     30       PMPE     C33      CTL2    -0.180000       12.0110           0   0.00000     -0.301140E-02
      3624 MEMB     30       PMPE     H3X      HAL2     0.900000E-01   1.00800           0   0.00000     -0.301140E-02
      3625 MEMB     30       PMPE     H3Y      HAL2     0.900000E-01   1.00800           0   0.00000     -0.301140E-02
      3626 MEMB     30       PMPE     C34      CTL2    -0.180000       12.0110           0   0.00000     -0.301140E-02
      3627 MEMB     30       PMPE     H4X      HAL2     0.900000E-01   1.00800           0   0.00000     -0.301140E-02
      3628 MEMB     30       PMPE     H4Y      HAL2     0.900000E-01   1.00800           0   0.00000     -0.301140E-02
      3629 MEMB     30       PMPE     C35      CTL2    -0.180000       12.0110           0   0.00000     -0.301140E-02
      3630 MEMB     30       PMPE     H5X      HAL2     0.900000E-01   1.00800           0   0.00000     -0.301140E-02
      3631 MEMB     30       PMPE     H5Y      HAL2     0.900000E-01   1.00800           0   0.00000     -0.301140E-02
      3632 MEMB     30       PMPE     C36      CTL2    -0.180000       12.0110           0   0.00000     -0.301140E-02
      3633 MEMB     30       PMPE     H6X      HAL2     0.900000E-01   1.00800           0   0.00000     -0.301140E-02
      3634 MEMB     30       PMPE     H6Y      HAL2     0.900000E-01   1.00800           0   0.00000     -0.301140E-02
      3635 MEMB     30       PMPE     C37      CTL2    -0.180000       12.0110           0   0.00000     -0.301140E-02
      3636 MEMB     30       PMPE     H7X      HAL2     0.900000E-01   1.00800           0   0.00000     -0.301140E-02
      3637 MEMB     30       PMPE     H7Y      HAL2     0.900000E-01   1.00800           0   0.00000     -0.301140E-02
      3638 MEMB     30       PMPE     C38      CTL2    -0.180000       12.0110           0   0.00000     -0.301140E-02
      3639 MEMB     30       PMPE     H8X      HAL2     0.900000E-01   1.00800           0   0.00000     -0.301140E-02
      3640 MEMB     30       PMPE     H8Y      HAL2     0.900000E-01   1.00800           0   0.00000     -0.301140E-02
      3641 MEMB     30       PMPE     C39      CTL2    -0.180000       12.0110           0   0.00000     -0.301140E-02
      3642 MEMB     30       PMPE     H9X      HAL2     0.900000E-01   1.00800           0   0.00000     -0.301140E-02
      3643 MEMB     30       PMPE     H9Y      HAL2     0.900000E-01   1.00800           0   0.00000     -0.301140E-02
      3644 MEMB     30       PMPE     C310     CTL2    -0.180000       12.0110           0   0.00000     -0.301140E-02
      3645 MEMB     30       PMPE     H10X     HAL2     0.900000E-01   1.00800           0   0.00000     -0.301140E-02
      3646 MEMB     30       PMPE     H10Y     HAL2     0.900000E-01   1.00800           0   0.00000     -0.301140E-02
      3647 MEMB     30       PMPE     C311     CTL2    -0.180000       12.0110           0   0.00000     -0.301140E-02
      3648 MEMB     30       PMPE     H11X     HAL2     0.900000E-01   1.00800           0   0.00000     -0.301140E-02
      3649 MEMB     30       PMPE     H11Y     HAL2     0.900000E-01   1.00800           0   0.00000     -0.301140E-02
      3650 MEMB     30       PMPE     C312     CTL2    -0.180000       12.0110           0   0.00000     -0.301140E-02
      3651 MEMB     30       PMPE     H12X     HAL2     0.900000E-01   1.00800           0   0.00000     -0.301140E-02
      3652 MEMB     30       PMPE     H12Y     HAL2     0.900000E-01   1.00800           0   0.00000     -0.301140E-02
      3653 MEMB     30       PMPE     C313     CTL2    -0.180000       12.0110           0   0.00000     -0.301140E-02
      3654 MEMB     30       PMPE     H13X     HAL2     0.900000E-01   1.00800           0   0.00000     -0.301140E-02
      3655 MEMB     30       PMPE     H13Y     HAL2     0.900000E-01   1.00800           0   0.00000     -0.301140E-02
      3656 MEMB     30       PMPE     C314     CTL2    -0.180000       12.0110           0   0.00000     -0.301140E-02
      3657 MEMB     30       PMPE     H14X     HAL2     0.900000E-01   1.00800           0   0.00000     -0.301140E-02
      3658 MEMB     30       PMPE     H14Y     HAL2     0.900000E-01   1.00800           0   0.00000     -0.301140E-02
      3659 MEMB     30       PMPE     C315     CTL2    -0.180000       12.0110           0   0.00000     -0.301140E-02
      3660 MEMB     30       PMPE     H15X     HAL2     0.900000E-01   1.00800           0   0.00000     -0.301140E-02
      3661 MEMB     30       PMPE     H15Y     HAL2     0.900000E-01   1.00800           0   0.00000     -0.301140E-02
      3662 MEMB     30       PMPE     C316     CTL3    -0.270000       12.0110           0   0.00000     -0.301140E-02
      3663 MEMB     30       PMPE     H16X     HAL3     0.900000E-01   1.00800           0   0.00000     -0.301140E-02
      3664 MEMB     30       PMPE     H16Y     HAL3     0.900000E-01   1.00800           0   0.00000     -0.301140E-02
      3665 MEMB     30       PMPE     H16Z     HAL3     0.900000E-01   1.00800           0   0.00000     -0.301140E-02
      3666 MEMB     31       PYPG     C13      CTL2     0.500000E-01   12.0110           0   0.00000     -0.301140E-02
      3667 MEMB     31       PYPG     H13A     HAL2     0.900000E-01   1.00800           0   0.00000     -0.301140E-02
      3668 MEMB     31       PYPG     H13B     HAL2     0.900000E-01   1.00800           0   0.00000     -0.301140E-02
      3669 MEMB     31       PYPG     OC3      OHL     -0.660000       15.9994           0   0.00000     -0.301140E-02
      3670 MEMB     31       PYPG     HO3      HOL      0.430000       1.00800           0   0.00000     -0.301140E-02
      3671 MEMB     31       PYPG     C12      CTL1     0.140000       12.0110           0   0.00000     -0.301140E-02
      3672 MEMB     31       PYPG     H12A     HAL1     0.900000E-01   1.00800           0   0.00000     -0.301140E-02
      3673 MEMB     31       PYPG     OC2      OHL     -0.660000       15.9994           0   0.00000     -0.301140E-02
      3674 MEMB     31       PYPG     HO2      HOL      0.430000       1.00800           0   0.00000     -0.301140E-02
      3675 MEMB     31       PYPG     C11      CTL2    -0.800000E-01   12.0110           0   0.00000     -0.301140E-02
      3676 MEMB     31       PYPG     H11A     HAL2     0.900000E-01   1.00800           0   0.00000     -0.301140E-02
      3677 MEMB     31       PYPG     H11B     HAL2     0.900000E-01   1.00800           0   0.00000     -0.301140E-02
      3678 MEMB     31       PYPG     P        PL        1.50000       30.9740           0   0.00000     -0.301140E-02
      3679 MEMB     31       PYPG     O13      O2L     -0.780000       15.9994           0   0.00000     -0.301140E-02
      3680 MEMB     31       PYPG     O14      O2L     -0.780000       15.9994           0   0.00000     -0.301140E-02
      3681 MEMB     31       PYPG     O11      OSLP    -0.570000       15.9994           0   0.00000     -0.301140E-02
      3682 MEMB     31       PYPG     O12      OSLP    -0.570000       15.9994           0   0.00000     -0.301140E-02
      3683 MEMB     31       PYPG     C1       CTL2    -0.800000E-01   12.0110           0   0.00000     -0.301140E-02
      3684 MEMB     31       PYPG     HA       HAL2     0.900000E-01   1.00800           0   0.00000     -0.301140E-02
      3685 MEMB     31       PYPG     HB       HAL2     0.900000E-01   1.00800           0   0.00000     -0.301140E-02
      3686 MEMB     31       PYPG     C2       CTL1     0.170000       12.0110           0   0.00000     -0.301140E-02
      3687 MEMB     31       PYPG     HS       HAL1     0.900000E-01   1.00800           0   0.00000     -0.301140E-02
      3688 MEMB     31       PYPG     O21      OSL     -0.490000       15.9994           0   0.00000     -0.301140E-02
      3689 MEMB     31       PYPG     C21      CL       0.900000       12.0110           0   0.00000     -0.301140E-02
      3690 MEMB     31       PYPG     O22      OBL     -0.630000       15.9994           0   0.00000     -0.301140E-02
      3691 MEMB     31       PYPG     C22      CTL2    -0.220000       12.0110           0   0.00000     -0.301140E-02
      3692 MEMB     31       PYPG     H2R      HAL2     0.900000E-01   1.00800           0   0.00000     -0.301140E-02
      3693 MEMB     31       PYPG     H2S      HAL2     0.900000E-01   1.00800           0   0.00000     -0.301140E-02
      3694 MEMB     31       PYPG     C3       CTL2     0.800000E-01   12.0110           0   0.00000     -0.301140E-02
      3695 MEMB     31       PYPG     HX       HAL2     0.900000E-01   1.00800           0   0.00000     -0.301140E-02
      3696 MEMB     31       PYPG     HY       HAL2     0.900000E-01   1.00800           0   0.00000     -0.301140E-02
      3697 MEMB     31       PYPG     O31      OSL     -0.490000       15.9994           0   0.00000     -0.301140E-02
      3698 MEMB     31       PYPG     C31      CL       0.900000       12.0110           0   0.00000     -0.301140E-02
      3699 MEMB     31       PYPG     O32      OBL     -0.630000       15.9994           0   0.00000     -0.301140E-02
      3700 MEMB     31       PYPG     C32      CTL2    -0.220000       12.0110           0   0.00000     -0.301140E-02
      3701 MEMB     31       PYPG     H2X      HAL2     0.900000E-01   1.00800           0   0.00000     -0.301140E-02
      3702 MEMB     31       PYPG     H2Y      HAL2     0.900000E-01   1.00800           0   0.00000     -0.301140E-02
      3703 MEMB     31       PYPG     C23      CTL2    -0.180000       12.0110           0   0.00000     -0.301140E-02
      3704 MEMB     31       PYPG     H3R      HAL2     0.900000E-01   1.00800           0   0.00000     -0.301140E-02
      3705 MEMB     31       PYPG     H3S      HAL2     0.900000E-01   1.00800           0   0.00000     -0.301140E-02
      3706 MEMB     31       PYPG     C24      CTL2    -0.180000       12.0110           0   0.00000     -0.301140E-02
      3707 MEMB     31       PYPG     H4R      HAL2     0.900000E-01   1.00800           0   0.00000     -0.301140E-02
      3708 MEMB     31       PYPG     H4S      HAL2     0.900000E-01   1.00800           0   0.00000     -0.301140E-02
      3709 MEMB     31       PYPG     C25      CTL2    -0.180000       12.0110           0   0.00000     -0.301140E-02
      3710 MEMB     31       PYPG     H5R      HAL2     0.900000E-01   1.00800           0   0.00000     -0.301140E-02
      3711 MEMB     31       PYPG     H5S      HAL2     0.900000E-01   1.00800           0   0.00000     -0.301140E-02
      3712 MEMB     31       PYPG     C26      CTL2    -0.180000       12.0110           0   0.00000     -0.301140E-02
      3713 MEMB     31       PYPG     H6R      HAL2     0.900000E-01   1.00800           0   0.00000     -0.301140E-02
      3714 MEMB     31       PYPG     H6S      HAL2     0.900000E-01   1.00800           0   0.00000     -0.301140E-02
      3715 MEMB     31       PYPG     C27      CTL2    -0.180000       12.0110           0   0.00000     -0.301140E-02
      3716 MEMB     31       PYPG     H7R      HAL2     0.900000E-01   1.00800           0   0.00000     -0.301140E-02
      3717 MEMB     31       PYPG     H7S      HAL2     0.900000E-01   1.00800           0   0.00000     -0.301140E-02
      3718 MEMB     31       PYPG     C28      CTL2    -0.180000       12.0110           0   0.00000     -0.301140E-02
      3719 MEMB     31       PYPG     H8R      HAL2     0.900000E-01   1.00800           0   0.00000     -0.301140E-02
      3720 MEMB     31       PYPG     H8S      HAL2     0.900000E-01   1.00800           0   0.00000     -0.301140E-02
      3721 MEMB     31       PYPG     C29      CEL1    -0.150000       12.0110           0   0.00000     -0.301140E-02
      3722 MEMB     31       PYPG     H9R      HEL1     0.150000       1.00800           0   0.00000     -0.301140E-02
      3723 MEMB     31       PYPG     C210     CEL1    -0.150000       12.0110           0   0.00000     -0.301140E-02
      3724 MEMB     31       PYPG     H10R     HEL1     0.150000       1.00800           0   0.00000     -0.301140E-02
      3725 MEMB     31       PYPG     C211     CTL2    -0.180000       12.0110           0   0.00000     -0.301140E-02
      3726 MEMB     31       PYPG     H11R     HAL2     0.900000E-01   1.00800           0   0.00000     -0.301140E-02
      3727 MEMB     31       PYPG     H11S     HAL2     0.900000E-01   1.00800           0   0.00000     -0.301140E-02
      3728 MEMB     31       PYPG     C212     CTL2    -0.180000       12.0110           0   0.00000     -0.301140E-02
      3729 MEMB     31       PYPG     H12R     HAL2     0.900000E-01   1.00800           0   0.00000     -0.301140E-02
      3730 MEMB     31       PYPG     H12S     HAL2     0.900000E-01   1.00800           0   0.00000     -0.301140E-02
      3731 MEMB     31       PYPG     C213     CTL2    -0.180000       12.0110           0   0.00000     -0.301140E-02
      3732 MEMB     31       PYPG     H13R     HAL2     0.900000E-01   1.00800           0   0.00000     -0.301140E-02
      3733 MEMB     31       PYPG     H13S     HAL2     0.900000E-01   1.00800           0   0.00000     -0.301140E-02
      3734 MEMB     31       PYPG     C214     CTL2    -0.180000       12.0110           0   0.00000     -0.301140E-02
      3735 MEMB     31       PYPG     H14R     HAL2     0.900000E-01   1.00800           0   0.00000     -0.301140E-02
      3736 MEMB     31       PYPG     H14S     HAL2     0.900000E-01   1.00800           0   0.00000     -0.301140E-02
      3737 MEMB     31       PYPG     C215     CTL2    -0.180000       12.0110           0   0.00000     -0.301140E-02
      3738 MEMB     31       PYPG     H15R     HAL2     0.900000E-01   1.00800           0   0.00000     -0.301140E-02
      3739 MEMB     31       PYPG     H15S     HAL2     0.900000E-01   1.00800           0   0.00000     -0.301140E-02
      3740 MEMB     31       PYPG     C216     CTL3    -0.270000       12.0110           0   0.00000     -0.301140E-02
      3741 MEMB     31       PYPG     H16R     HAL3     0.900000E-01   1.00800           0   0.00000     -0.301140E-02
      3742 MEMB     31       PYPG     H16S     HAL3     0.900000E-01   1.00800           0   0.00000     -0.301140E-02
      3743 MEMB     31       PYPG     H16T     HAL3     0.900000E-01   1.00800           0   0.00000     -0.301140E-02
      3744 MEMB     31       PYPG     C33      CTL2    -0.180000       12.0110           0   0.00000     -0.301140E-02
      3745 MEMB     31       PYPG     H3X      HAL2     0.900000E-01   1.00800           0   0.00000     -0.301140E-02
      3746 MEMB     31       PYPG     H3Y      HAL2     0.900000E-01   1.00800           0   0.00000     -0.301140E-02
      3747 MEMB     31       PYPG     C34      CTL2    -0.180000       12.0110           0   0.00000     -0.301140E-02
      3748 MEMB     31       PYPG     H4X      HAL2     0.900000E-01   1.00800           0   0.00000     -0.301140E-02
      3749 MEMB     31       PYPG     H4Y      HAL2     0.900000E-01   1.00800           0   0.00000     -0.301140E-02
      3750 MEMB     31       PYPG     C35      CTL2    -0.180000       12.0110           0   0.00000     -0.301140E-02
      3751 MEMB     31       PYPG     H5X      HAL2     0.900000E-01   1.00800           0   0.00000     -0.301140E-02
      3752 MEMB     31       PYPG     H5Y      HAL2     0.900000E-01   1.00800           0   0.00000     -0.301140E-02
      3753 MEMB     31       PYPG     C36      CTL2    -0.180000       12.0110           0   0.00000     -0.301140E-02
      3754 MEMB     31       PYPG     H6X      HAL2     0.900000E-01   1.00800           0   0.00000     -0.301140E-02
      3755 MEMB     31       PYPG     H6Y      HAL2     0.900000E-01   1.00800           0   0.00000     -0.301140E-02
      3756 MEMB     31       PYPG     C37      CTL2    -0.180000       12.0110           0   0.00000     -0.301140E-02
      3757 MEMB     31       PYPG     H7X      HAL2     0.900000E-01   1.00800           0   0.00000     -0.301140E-02
      3758 MEMB     31       PYPG     H7Y      HAL2     0.900000E-01   1.00800           0   0.00000     -0.301140E-02
      3759 MEMB     31       PYPG     C38      CTL2    -0.180000       12.0110           0   0.00000     -0.301140E-02
      3760 MEMB     31       PYPG     H8X      HAL2     0.900000E-01   1.00800           0   0.00000     -0.301140E-02
      3761 MEMB     31       PYPG     H8Y      HAL2     0.900000E-01   1.00800           0   0.00000     -0.301140E-02
      3762 MEMB     31       PYPG     C39      CTL2    -0.180000       12.0110           0   0.00000     -0.301140E-02
      3763 MEMB     31       PYPG     H9X      HAL2     0.900000E-01   1.00800           0   0.00000     -0.301140E-02
      3764 MEMB     31       PYPG     H9Y      HAL2     0.900000E-01   1.00800           0   0.00000     -0.301140E-02
      3765 MEMB     31       PYPG     C310     CTL2    -0.180000       12.0110           0   0.00000     -0.301140E-02
      3766 MEMB     31       PYPG     H10X     HAL2     0.900000E-01   1.00800           0   0.00000     -0.301140E-02
      3767 MEMB     31       PYPG     H10Y     HAL2     0.900000E-01   1.00800           0   0.00000     -0.301140E-02
      3768 MEMB     31       PYPG     C311     CTL2    -0.180000       12.0110           0   0.00000     -0.301140E-02
      3769 MEMB     31       PYPG     H11X     HAL2     0.900000E-01   1.00800           0   0.00000     -0.301140E-02
      3770 MEMB     31       PYPG     H11Y     HAL2     0.900000E-01   1.00800           0   0.00000     -0.301140E-02
      3771 MEMB     31       PYPG     C312     CTL2    -0.180000       12.0110           0   0.00000     -0.301140E-02
      3772 MEMB     31       PYPG     H12X     HAL2     0.900000E-01   1.00800           0   0.00000     -0.301140E-02
      3773 MEMB     31       PYPG     H12Y     HAL2     0.900000E-01   1.00800           0   0.00000     -0.301140E-02
      3774 MEMB     31       PYPG     C313     CTL2    -0.180000       12.0110           0   0.00000     -0.301140E-02
      3775 MEMB     31       PYPG     H13X     HAL2     0.900000E-01   1.00800           0   0.00000     -0.301140E-02
      3776 MEMB     31       PYPG     H13Y     HAL2     0.900000E-01   1.00800           0   0.00000     -0.301140E-02
      3777 MEMB     31       PYPG     C314     CTL2    -0.180000       12.0110           0   0.00000     -0.301140E-02
      3778 MEMB     31       PYPG     H14X     HAL2     0.900000E-01   1.00800           0   0.00000     -0.301140E-02
      3779 MEMB     31       PYPG     H14Y     HAL2     0.900000E-01   1.00800           0   0.00000     -0.301140E-02
      3780 MEMB     31       PYPG     C315     CTL2    -0.180000       12.0110           0   0.00000     -0.301140E-02
      3781 MEMB     31       PYPG     H15X     HAL2     0.900000E-01   1.00800           0   0.00000     -0.301140E-02
      3782 MEMB     31       PYPG     H15Y     HAL2     0.900000E-01   1.00800           0   0.00000     -0.301140E-02
      3783 MEMB     31       PYPG     C316     CTL3    -0.270000       12.0110           0   0.00000     -0.301140E-02
      3784 MEMB     31       PYPG     H16X     HAL3     0.900000E-01   1.00800           0   0.00000     -0.301140E-02
      3785 MEMB     31       PYPG     H16Y     HAL3     0.900000E-01   1.00800           0   0.00000     -0.301140E-02
      3786 MEMB     31       PYPG     H16Z     HAL3     0.900000E-01   1.00800           0   0.00000     -0.301140E-02
      3787 MEMB     32       OYPE     N        NH3L    -0.300000       14.0070           0   0.00000     -0.301140E-02
      3788 MEMB     32       OYPE     HN1      HCL      0.330000       1.00800           0   0.00000     -0.301140E-02
      3789 MEMB     32       OYPE     HN2      HCL      0.330000       1.00800           0   0.00000     -0.301140E-02
      3790 MEMB     32       OYPE     HN3      HCL      0.330000       1.00800           0   0.00000     -0.301140E-02
      3791 MEMB     32       OYPE     C12      CTL2     0.130000       12.0110           0   0.00000     -0.301140E-02
      3792 MEMB     32       OYPE     H12A     HAL2     0.900000E-01   1.00800           0   0.00000     -0.301140E-02
      3793 MEMB     32       OYPE     H12B     HAL2     0.900000E-01   1.00800           0   0.00000     -0.301140E-02
      3794 MEMB     32       OYPE     C11      CTL2    -0.800000E-01   12.0110           0   0.00000     -0.301140E-02
      3795 MEMB     32       OYPE     H11A     HAL2     0.900000E-01   1.00800           0   0.00000     -0.301140E-02
      3796 MEMB     32       OYPE     H11B     HAL2     0.900000E-01   1.00800           0   0.00000     -0.301140E-02
      3797 MEMB     32       OYPE     P        PL        1.50000       30.9740           0   0.00000     -0.301140E-02
      3798 MEMB     32       OYPE     O13      O2L     -0.780000       15.9994           0   0.00000     -0.301140E-02
      3799 MEMB     32       OYPE     O14      O2L     -0.780000       15.9994           0   0.00000     -0.301140E-02
      3800 MEMB     32       OYPE     O11      OSLP    -0.570000       15.9994           0   0.00000     -0.301140E-02
      3801 MEMB     32       OYPE     O12      OSLP    -0.570000       15.9994           0   0.00000     -0.301140E-02
      3802 MEMB     32       OYPE     C1       CTL2    -0.800000E-01   12.0110           0   0.00000     -0.301140E-02
      3803 MEMB     32       OYPE     HA       HAL2     0.900000E-01   1.00800           0   0.00000     -0.301140E-02
      3804 MEMB     32       OYPE     HB       HAL2     0.900000E-01   1.00800           0   0.00000     -0.301140E-02
      3805 MEMB     32       OYPE     C2       CTL1     0.170000       12.0110           0   0.00000     -0.301140E-02
      3806 MEMB     32       OYPE     HS       HAL1     0.900000E-01   1.00800           0   0.00000     -0.301140E-02
      3807 MEMB     32       OYPE     O21      OSL     -0.490000       15.9994           0   0.00000     -0.301140E-02
      3808 MEMB     32       OYPE     C21      CL       0.900000       12.0110           0   0.00000     -0.301140E-02
      3809 MEMB     32       OYPE     O22      OBL     -0.630000       15.9994           0   0.00000     -0.301140E-02
      3810 MEMB     32       OYPE     C22      CTL2    -0.220000       12.0110           0   0.00000     -0.301140E-02
      3811 MEMB     32       OYPE     H2R      HAL2     0.900000E-01   1.00800           0   0.00000     -0.301140E-02
      3812 MEMB     32       OYPE     H2S      HAL2     0.900000E-01   1.00800           0   0.00000     -0.301140E-02
      3813 MEMB     32       OYPE     C3       CTL2     0.800000E-01   12.0110           0   0.00000     -0.301140E-02
      3814 MEMB     32       OYPE     HX       HAL2     0.900000E-01   1.00800           0   0.00000     -0.301140E-02
      3815 MEMB     32       OYPE     HY       HAL2     0.900000E-01   1.00800           0   0.00000     -0.301140E-02
      3816 MEMB     32       OYPE     O31      OSL     -0.490000       15.9994           0   0.00000     -0.301140E-02
      3817 MEMB     32       OYPE     C31      CL       0.900000       12.0110           0   0.00000     -0.301140E-02
      3818 MEMB     32       OYPE     O32      OBL     -0.630000       15.9994           0   0.00000     -0.301140E-02
      3819 MEMB     32       OYPE     C32      CTL2    -0.220000       12.0110           0   0.00000     -0.301140E-02
      3820 MEMB     32       OYPE     H2X      HAL2     0.900000E-01   1.00800           0   0.00000     -0.301140E-02
      3821 MEMB     32       OYPE     H2Y      HAL2     0.900000E-01   1.00800           0   0.00000     -0.301140E-02
      3822 MEMB     32       OYPE     C23      CTL2    -0.180000       12.0110           0   0.00000     -0.301140E-02
      3823 MEMB     32       OYPE     H3R      HAL2     0.900000E-01   1.00800           0   0.00000     -0.301140E-02
      3824 MEMB     32       OYPE     H3S      HAL2     0.900000E-01   1.00800           0   0.00000     -0.301140E-02
      3825 MEMB     32       OYPE     C24      CTL2    -0.180000       12.0110           0   0.00000     -0.301140E-02
      3826 MEMB     32       OYPE     H4R      HAL2     0.900000E-01   1.00800           0   0.00000     -0.301140E-02
      3827 MEMB     32       OYPE     H4S      HAL2     0.900000E-01   1.00800           0   0.00000     -0.301140E-02
      3828 MEMB     32       OYPE     C25      CTL2    -0.180000       12.0110           0   0.00000     -0.301140E-02
      3829 MEMB     32       OYPE     H5R      HAL2     0.900000E-01   1.00800           0   0.00000     -0.301140E-02
      3830 MEMB     32       OYPE     H5S      HAL2     0.900000E-01   1.00800           0   0.00000     -0.301140E-02
      3831 MEMB     32       OYPE     C26      CTL2    -0.180000       12.0110           0   0.00000     -0.301140E-02
      3832 MEMB     32       OYPE     H6R      HAL2     0.900000E-01   1.00800           0   0.00000     -0.301140E-02
      3833 MEMB     32       OYPE     H6S      HAL2     0.900000E-01   1.00800           0   0.00000     -0.301140E-02
      3834 MEMB     32       OYPE     C27      CTL2    -0.180000       12.0110           0   0.00000     -0.301140E-02
      3835 MEMB     32       OYPE     H7R      HAL2     0.900000E-01   1.00800           0   0.00000     -0.301140E-02
      3836 MEMB     32       OYPE     H7S      HAL2     0.900000E-01   1.00800           0   0.00000     -0.301140E-02
      3837 MEMB     32       OYPE     C28      CTL2    -0.180000       12.0110           0   0.00000     -0.301140E-02
      3838 MEMB     32       OYPE     H8R      HAL2     0.900000E-01   1.00800           0   0.00000     -0.301140E-02
      3839 MEMB     32       OYPE     H8S      HAL2     0.900000E-01   1.00800           0   0.00000     -0.301140E-02
      3840 MEMB     32       OYPE     C29      CEL1    -0.150000       12.0110           0   0.00000     -0.301140E-02
      3841 MEMB     32       OYPE     H9R      HEL1     0.150000       1.00800           0   0.00000     -0.301140E-02
      3842 MEMB     32       OYPE     C210     CEL1    -0.150000       12.0110           0   0.00000     -0.301140E-02
      3843 MEMB     32       OYPE     H10R     HEL1     0.150000       1.00800           0   0.00000     -0.301140E-02
      3844 MEMB     32       OYPE     C211     CTL2    -0.180000       12.0110           0   0.00000     -0.301140E-02
      3845 MEMB     32       OYPE     H11R     HAL2     0.900000E-01   1.00800           0   0.00000     -0.301140E-02
      3846 MEMB     32       OYPE     H11S     HAL2     0.900000E-01   1.00800           0   0.00000     -0.301140E-02
      3847 MEMB     32       OYPE     C212     CTL2    -0.180000       12.0110           0   0.00000     -0.301140E-02
      3848 MEMB     32       OYPE     H12R     HAL2     0.900000E-01   1.00800           0   0.00000     -0.301140E-02
      3849 MEMB     32       OYPE     H12S     HAL2     0.900000E-01   1.00800           0   0.00000     -0.301140E-02
      3850 MEMB     32       OYPE     C213     CTL2    -0.180000       12.0110           0   0.00000     -0.301140E-02
      3851 MEMB     32       OYPE     H13R     HAL2     0.900000E-01   1.00800           0   0.00000     -0.301140E-02
      3852 MEMB     32       OYPE     H13S     HAL2     0.900000E-01   1.00800           0   0.00000     -0.301140E-02
      3853 MEMB     32       OYPE     C214     CTL2    -0.180000       12.0110           0   0.00000     -0.301140E-02
      3854 MEMB     32       OYPE     H14R     HAL2     0.900000E-01   1.00800           0   0.00000     -0.301140E-02
      3855 MEMB     32       OYPE     H14S     HAL2     0.900000E-01   1.00800           0   0.00000     -0.301140E-02
      3856 MEMB     32       OYPE     C215     CTL2    -0.180000       12.0110           0   0.00000     -0.301140E-02
      3857 MEMB     32       OYPE     H15R     HAL2     0.900000E-01   1.00800           0   0.00000     -0.301140E-02
      3858 MEMB     32       OYPE     H15S     HAL2     0.900000E-01   1.00800           0   0.00000     -0.301140E-02
      3859 MEMB     32       OYPE     C216     CTL3    -0.270000       12.0110           0   0.00000     -0.301140E-02
      3860 MEMB     32       OYPE     H16R     HAL3     0.900000E-01   1.00800           0   0.00000     -0.301140E-02
      3861 MEMB     32       OYPE     H16S     HAL3     0.900000E-01   1.00800           0   0.00000     -0.301140E-02
      3862 MEMB     32       OYPE     H16T     HAL3     0.900000E-01   1.00800           0   0.00000     -0.301140E-02
      3863 MEMB     32       OYPE     C33      CTL2    -0.180000       12.0110           0   0.00000     -0.301140E-02
      3864 MEMB     32       OYPE     H3X      HAL2     0.900000E-01   1.00800           0   0.00000     -0.301140E-02
      3865 MEMB     32       OYPE     H3Y      HAL2     0.900000E-01   1.00800           0   0.00000     -0.301140E-02
      3866 MEMB     32       OYPE     C34      CTL2    -0.180000       12.0110           0   0.00000     -0.301140E-02
      3867 MEMB     32       OYPE     H4X      HAL2     0.900000E-01   1.00800           0   0.00000     -0.301140E-02
      3868 MEMB     32       OYPE     H4Y      HAL2     0.900000E-01   1.00800           0   0.00000     -0.301140E-02
      3869 MEMB     32       OYPE     C35      CTL2    -0.180000       12.0110           0   0.00000     -0.301140E-02
      3870 MEMB     32       OYPE     H5X      HAL2     0.900000E-01   1.00800           0   0.00000     -0.301140E-02
      3871 MEMB     32       OYPE     H5Y      HAL2     0.900000E-01   1.00800           0   0.00000     -0.301140E-02
      3872 MEMB     32       OYPE     C36      CTL2    -0.180000       12.0110           0   0.00000     -0.301140E-02
      3873 MEMB     32       OYPE     H6X      HAL2     0.900000E-01   1.00800           0   0.00000     -0.301140E-02
      3874 MEMB     32       OYPE     H6Y      HAL2     0.900000E-01   1.00800           0   0.00000     -0.301140E-02
      3875 MEMB     32       OYPE     C37      CTL2    -0.180000       12.0110           0   0.00000     -0.301140E-02
      3876 MEMB     32       OYPE     H7X      HAL2     0.900000E-01   1.00800           0   0.00000     -0.301140E-02
      3877 MEMB     32       OYPE     H7Y      HAL2     0.900000E-01   1.00800           0   0.00000     -0.301140E-02
      3878 MEMB     32       OYPE     C38      CTL2    -0.180000       12.0110           0   0.00000     -0.301140E-02
      3879 MEMB     32       OYPE     H8X      HAL2     0.900000E-01   1.00800           0   0.00000     -0.301140E-02
      3880 MEMB     32       OYPE     H8Y      HAL2     0.900000E-01   1.00800           0   0.00000     -0.301140E-02
      3881 MEMB     32       OYPE     C39      CEL1    -0.150000       12.0110           0   0.00000     -0.301140E-02
      3882 MEMB     32       OYPE     H9X      HEL1     0.150000       1.00800           0   0.00000     -0.301140E-02
      3883 MEMB     32       OYPE     C310     CEL1    -0.150000       12.0110           0   0.00000     -0.301140E-02
      3884 MEMB     32       OYPE     H10X     HEL1     0.150000       1.00800           0   0.00000     -0.301140E-02
      3885 MEMB     32       OYPE     C311     CTL2    -0.180000       12.0110           0   0.00000     -0.301140E-02
      3886 MEMB     32       OYPE     H11X     HAL2     0.900000E-01   1.00800           0   0.00000     -0.301140E-02
      3887 MEMB     32       OYPE     H11Y     HAL2     0.900000E-01   1.00800           0   0.00000     -0.301140E-02
      3888 MEMB     32       OYPE     C312     CTL2    -0.180000       12.0110           0   0.00000     -0.301140E-02
      3889 MEMB     32       OYPE     H12X     HAL2     0.900000E-01   1.00800           0   0.00000     -0.301140E-02
      3890 MEMB     32       OYPE     H12Y     HAL2     0.900000E-01   1.00800           0   0.00000     -0.301140E-02
      3891 MEMB     32       OYPE     C313     CTL2    -0.180000       12.0110           0   0.00000     -0.301140E-02
      3892 MEMB     32       OYPE     H13X     HAL2     0.900000E-01   1.00800           0   0.00000     -0.301140E-02
      3893 MEMB     32       OYPE     H13Y     HAL2     0.900000E-01   1.00800           0   0.00000     -0.301140E-02
      3894 MEMB     32       OYPE     C314     CTL2    -0.180000       12.0110           0   0.00000     -0.301140E-02
      3895 MEMB     32       OYPE     H14X     HAL2     0.900000E-01   1.00800           0   0.00000     -0.301140E-02
      3896 MEMB     32       OYPE     H14Y     HAL2     0.900000E-01   1.00800           0   0.00000     -0.301140E-02
      3897 MEMB     32       OYPE     C315     CTL2    -0.180000       12.0110           0   0.00000     -0.301140E-02
      3898 MEMB     32       OYPE     H15X     HAL2     0.900000E-01   1.00800           0   0.00000     -0.301140E-02
      3899 MEMB     32       OYPE     H15Y     HAL2     0.900000E-01   1.00800           0   0.00000     -0.301140E-02
      3900 MEMB     32       OYPE     C316     CTL2    -0.180000       12.0110           0   0.00000     -0.301140E-02
      3901 MEMB     32       OYPE     H16X     HAL2     0.900000E-01   1.00800           0   0.00000     -0.301140E-02
      3902 MEMB     32       OYPE     H16Y     HAL2     0.900000E-01   1.00800           0   0.00000     -0.301140E-02
      3903 MEMB     32       OYPE     C317     CTL2    -0.180000       12.0110           0   0.00000     -0.301140E-02
      3904 MEMB     32       OYPE     H17X     HAL2     0.900000E-01   1.00800           0   0.00000     -0.301140E-02
      3905 MEMB     32       OYPE     H17Y     HAL2     0.900000E-01   1.00800           0   0.00000     -0.301140E-02
      3906 MEMB     32       OYPE     C318     CTL3    -0.270000       12.0110           0   0.00000     -0.301140E-02
      3907 MEMB     32       OYPE     H18X     HAL3     0.900000E-01   1.00800           0   0.00000     -0.301140E-02
      3908 MEMB     32       OYPE     H18Y     HAL3     0.900000E-01   1.00800           0   0.00000     -0.301140E-02
      3909 MEMB     32       OYPE     H18Z     HAL3     0.900000E-01   1.00800           0   0.00000     -0.301140E-02
      3910 MEMB     33       OYPE     N        NH3L    -0.300000       14.0070           0   0.00000     -0.301140E-02
      3911 MEMB     33       OYPE     HN1      HCL      0.330000       1.00800           0   0.00000     -0.301140E-02
      3912 MEMB     33       OYPE     HN2      HCL      0.330000       1.00800           0   0.00000     -0.301140E-02
      3913 MEMB     33       OYPE     HN3      HCL      0.330000       1.00800           0   0.00000     -0.301140E-02
      3914 MEMB     33       OYPE     C12      CTL2     0.130000       12.0110           0   0.00000     -0.301140E-02
      3915 MEMB     33       OYPE     H12A     HAL2     0.900000E-01   1.00800           0   0.00000     -0.301140E-02
      3916 MEMB     33       OYPE     H12B     HAL2     0.900000E-01   1.00800           0   0.00000     -0.301140E-02
      3917 MEMB     33       OYPE     C11      CTL2    -0.800000E-01   12.0110           0   0.00000     -0.301140E-02
      3918 MEMB     33       OYPE     H11A     HAL2     0.900000E-01   1.00800           0   0.00000     -0.301140E-02
      3919 MEMB     33       OYPE     H11B     HAL2     0.900000E-01   1.00800           0   0.00000     -0.301140E-02
      3920 MEMB     33       OYPE     P        PL        1.50000       30.9740           0   0.00000     -0.301140E-02
      3921 MEMB     33       OYPE     O13      O2L     -0.780000       15.9994           0   0.00000     -0.301140E-02
      3922 MEMB     33       OYPE     O14      O2L     -0.780000       15.9994           0   0.00000     -0.301140E-02
      3923 MEMB     33       OYPE     O11      OSLP    -0.570000       15.9994           0   0.00000     -0.301140E-02
      3924 MEMB     33       OYPE     O12      OSLP    -0.570000       15.9994           0   0.00000     -0.301140E-02
      3925 MEMB     33       OYPE     C1       CTL2    -0.800000E-01   12.0110           0   0.00000     -0.301140E-02
      3926 MEMB     33       OYPE     HA       HAL2     0.900000E-01   1.00800           0   0.00000     -0.301140E-02
      3927 MEMB     33       OYPE     HB       HAL2     0.900000E-01   1.00800           0   0.00000     -0.301140E-02
      3928 MEMB     33       OYPE     C2       CTL1     0.170000       12.0110           0   0.00000     -0.301140E-02
      3929 MEMB     33       OYPE     HS       HAL1     0.900000E-01   1.00800           0   0.00000     -0.301140E-02
      3930 MEMB     33       OYPE     O21      OSL     -0.490000       15.9994           0   0.00000     -0.301140E-02
      3931 MEMB     33       OYPE     C21      CL       0.900000       12.0110           0   0.00000     -0.301140E-02
      3932 MEMB     33       OYPE     O22      OBL     -0.630000       15.9994           0   0.00000     -0.301140E-02
      3933 MEMB     33       OYPE     C22      CTL2    -0.220000       12.0110           0   0.00000     -0.301140E-02
      3934 MEMB     33       OYPE     H2R      HAL2     0.900000E-01   1.00800           0   0.00000     -0.301140E-02
      3935 MEMB     33       OYPE     H2S      HAL2     0.900000E-01   1.00800           0   0.00000     -0.301140E-02
      3936 MEMB     33       OYPE     C3       CTL2     0.800000E-01   12.0110           0   0.00000     -0.301140E-02
      3937 MEMB     33       OYPE     HX       HAL2     0.900000E-01   1.00800           0   0.00000     -0.301140E-02
      3938 MEMB     33       OYPE     HY       HAL2     0.900000E-01   1.00800           0   0.00000     -0.301140E-02
      3939 MEMB     33       OYPE     O31      OSL     -0.490000       15.9994           0   0.00000     -0.301140E-02
      3940 MEMB     33       OYPE     C31      CL       0.900000       12.0110           0   0.00000     -0.301140E-02
      3941 MEMB     33       OYPE     O32      OBL     -0.630000       15.9994           0   0.00000     -0.301140E-02
      3942 MEMB     33       OYPE     C32      CTL2    -0.220000       12.0110           0   0.00000     -0.301140E-02
      3943 MEMB     33       OYPE     H2X      HAL2     0.900000E-01   1.00800           0   0.00000     -0.301140E-02
      3944 MEMB     33       OYPE     H2Y      HAL2     0.900000E-01   1.00800           0   0.00000     -0.301140E-02
      3945 MEMB     33       OYPE     C23      CTL2    -0.180000       12.0110           0   0.00000     -0.301140E-02
      3946 MEMB     33       OYPE     H3R      HAL2     0.900000E-01   1.00800           0   0.00000     -0.301140E-02
      3947 MEMB     33       OYPE     H3S      HAL2     0.900000E-01   1.00800           0   0.00000     -0.301140E-02
      3948 MEMB     33       OYPE     C24      CTL2    -0.180000       12.0110           0   0.00000     -0.301140E-02
      3949 MEMB     33       OYPE     H4R      HAL2     0.900000E-01   1.00800           0   0.00000     -0.301140E-02
      3950 MEMB     33       OYPE     H4S      HAL2     0.900000E-01   1.00800           0   0.00000     -0.301140E-02
      3951 MEMB     33       OYPE     C25      CTL2    -0.180000       12.0110           0   0.00000     -0.301140E-02
      3952 MEMB     33       OYPE     H5R      HAL2     0.900000E-01   1.00800           0   0.00000     -0.301140E-02
      3953 MEMB     33       OYPE     H5S      HAL2     0.900000E-01   1.00800           0   0.00000     -0.301140E-02
      3954 MEMB     33       OYPE     C26      CTL2    -0.180000       12.0110           0   0.00000     -0.301140E-02
      3955 MEMB     33       OYPE     H6R      HAL2     0.900000E-01   1.00800           0   0.00000     -0.301140E-02
      3956 MEMB     33       OYPE     H6S      HAL2     0.900000E-01   1.00800           0   0.00000     -0.301140E-02
      3957 MEMB     33       OYPE     C27      CTL2    -0.180000       12.0110           0   0.00000     -0.301140E-02
      3958 MEMB     33       OYPE     H7R      HAL2     0.900000E-01   1.00800           0   0.00000     -0.301140E-02
      3959 MEMB     33       OYPE     H7S      HAL2     0.900000E-01   1.00800           0   0.00000     -0.301140E-02
      3960 MEMB     33       OYPE     C28      CTL2    -0.180000       12.0110           0   0.00000     -0.301140E-02
      3961 MEMB     33       OYPE     H8R      HAL2     0.900000E-01   1.00800           0   0.00000     -0.301140E-02
      3962 MEMB     33       OYPE     H8S      HAL2     0.900000E-01   1.00800           0   0.00000     -0.301140E-02
      3963 MEMB     33       OYPE     C29      CEL1    -0.150000       12.0110           0   0.00000     -0.301140E-02
      3964 MEMB     33       OYPE     H9R      HEL1     0.150000       1.00800           0   0.00000     -0.301140E-02
      3965 MEMB     33       OYPE     C210     CEL1    -0.150000       12.0110           0   0.00000     -0.301140E-02
      3966 MEMB     33       OYPE     H10R     HEL1     0.150000       1.00800           0   0.00000     -0.301140E-02
      3967 MEMB     33       OYPE     C211     CTL2    -0.180000       12.0110           0   0.00000     -0.301140E-02
      3968 MEMB     33       OYPE     H11R     HAL2     0.900000E-01   1.00800           0   0.00000     -0.301140E-02
      3969 MEMB     33       OYPE     H11S     HAL2     0.900000E-01   1.00800           0   0.00000     -0.301140E-02
      3970 MEMB     33       OYPE     C212     CTL2    -0.180000       12.0110           0   0.00000     -0.301140E-02
      3971 MEMB     33       OYPE     H12R     HAL2     0.900000E-01   1.00800           0   0.00000     -0.301140E-02
      3972 MEMB     33       OYPE     H12S     HAL2     0.900000E-01   1.00800           0   0.00000     -0.301140E-02
      3973 MEMB     33       OYPE     C213     CTL2    -0.180000       12.0110           0   0.00000     -0.301140E-02
      3974 MEMB     33       OYPE     H13R     HAL2     0.900000E-01   1.00800           0   0.00000     -0.301140E-02
      3975 MEMB     33       OYPE     H13S     HAL2     0.900000E-01   1.00800           0   0.00000     -0.301140E-02
      3976 MEMB     33       OYPE     C214     CTL2    -0.180000       12.0110           0   0.00000     -0.301140E-02
      3977 MEMB     33       OYPE     H14R     HAL2     0.900000E-01   1.00800           0   0.00000     -0.301140E-02
      3978 MEMB     33       OYPE     H14S     HAL2     0.900000E-01   1.00800           0   0.00000     -0.301140E-02
      3979 MEMB     33       OYPE     C215     CTL2    -0.180000       12.0110           0   0.00000     -0.301140E-02
      3980 MEMB     33       OYPE     H15R     HAL2     0.900000E-01   1.00800           0   0.00000     -0.301140E-02
      3981 MEMB     33       OYPE     H15S     HAL2     0.900000E-01   1.00800           0   0.00000     -0.301140E-02
      3982 MEMB     33       OYPE     C216     CTL3    -0.270000       12.0110           0   0.00000     -0.301140E-02
      3983 MEMB     33       OYPE     H16R     HAL3     0.900000E-01   1.00800           0   0.00000     -0.301140E-02
      3984 MEMB     33       OYPE     H16S     HAL3     0.900000E-01   1.00800           0   0.00000     -0.301140E-02
      3985 MEMB     33       OYPE     H16T     HAL3     0.900000E-01   1.00800           0   0.00000     -0.301140E-02
      3986 MEMB     33       OYPE     C33      CTL2    -0.180000       12.0110           0   0.00000     -0.301140E-02
      3987 MEMB     33       OYPE     H3X      HAL2     0.900000E-01   1.00800           0   0.00000     -0.301140E-02
      3988 MEMB     33       OYPE     H3Y      HAL2     0.900000E-01   1.00800           0   0.00000     -0.301140E-02
      3989 MEMB     33       OYPE     C34      CTL2    -0.180000       12.0110           0   0.00000     -0.301140E-02
      3990 MEMB     33       OYPE     H4X      HAL2     0.900000E-01   1.00800           0   0.00000     -0.301140E-02
      3991 MEMB     33       OYPE     H4Y      HAL2     0.900000E-01   1.00800           0   0.00000     -0.301140E-02
      3992 MEMB     33       OYPE     C35      CTL2    -0.180000       12.0110           0   0.00000     -0.301140E-02
      3993 MEMB     33       OYPE     H5X      HAL2     0.900000E-01   1.00800           0   0.00000     -0.301140E-02
      3994 MEMB     33       OYPE     H5Y      HAL2     0.900000E-01   1.00800           0   0.00000     -0.301140E-02
      3995 MEMB     33       OYPE     C36      CTL2    -0.180000       12.0110           0   0.00000     -0.301140E-02
      3996 MEMB     33       OYPE     H6X      HAL2     0.900000E-01   1.00800           0   0.00000     -0.301140E-02
      3997 MEMB     33       OYPE     H6Y      HAL2     0.900000E-01   1.00800           0   0.00000     -0.301140E-02
      3998 MEMB     33       OYPE     C37      CTL2    -0.180000       12.0110           0   0.00000     -0.301140E-02
      3999 MEMB     33       OYPE     H7X      HAL2     0.900000E-01   1.00800           0   0.00000     -0.301140E-02
      4000 MEMB     33       OYPE     H7Y      HAL2     0.900000E-01   1.00800           0   0.00000     -0.301140E-02
      4001 MEMB     33       OYPE     C38      CTL2    -0.180000       12.0110           0   0.00000     -0.301140E-02
      4002 MEMB     33       OYPE     H8X      HAL2     0.900000E-01   1.00800           0   0.00000     -0.301140E-02
      4003 MEMB     33       OYPE     H8Y      HAL2     0.900000E-01   1.00800           0   0.00000     -0.301140E-02
      4004 MEMB     33       OYPE     C39      CEL1    -0.150000       12.0110           0   0.00000     -0.301140E-02
      4005 MEMB     33       OYPE     H9X      HEL1     0.150000       1.00800           0   0.00000     -0.301140E-02
      4006 MEMB     33       OYPE     C310     CEL1    -0.150000       12.0110           0   0.00000     -0.301140E-02
      4007 MEMB     33       OYPE     H10X     HEL1     0.150000       1.00800           0   0.00000     -0.301140E-02
      4008 MEMB     33       OYPE     C311     CTL2    -0.180000       12.0110           0   0.00000     -0.301140E-02
      4009 MEMB     33       OYPE     H11X     HAL2     0.900000E-01   1.00800           0   0.00000     -0.301140E-02
      4010 MEMB     33       OYPE     H11Y     HAL2     0.900000E-01   1.00800           0   0.00000     -0.301140E-02
      4011 MEMB     33       OYPE     C312     CTL2    -0.180000       12.0110           0   0.00000     -0.301140E-02
      4012 MEMB     33       OYPE     H12X     HAL2     0.900000E-01   1.00800           0   0.00000     -0.301140E-02
      4013 MEMB     33       OYPE     H12Y     HAL2     0.900000E-01   1.00800           0   0.00000     -0.301140E-02
      4014 MEMB     33       OYPE     C313     CTL2    -0.180000       12.0110           0   0.00000     -0.301140E-02
      4015 MEMB     33       OYPE     H13X     HAL2     0.900000E-01   1.00800           0   0.00000     -0.301140E-02
      4016 MEMB     33       OYPE     H13Y     HAL2     0.900000E-01   1.00800           0   0.00000     -0.301140E-02
      4017 MEMB     33       OYPE     C314     CTL2    -0.180000       12.0110           0   0.00000     -0.301140E-02
      4018 MEMB     33       OYPE     H14X     HAL2     0.900000E-01   1.00800           0   0.00000     -0.301140E-02
      4019 MEMB     33       OYPE     H14Y     HAL2     0.900000E-01   1.00800           0   0.00000     -0.301140E-02
      4020 MEMB     33       OYPE     C315     CTL2    -0.180000       12.0110           0   0.00000     -0.301140E-02
      4021 MEMB     33       OYPE     H15X     HAL2     0.900000E-01   1.00800           0   0.00000     -0.301140E-02
      4022 MEMB     33       OYPE     H15Y     HAL2     0.900000E-01   1.00800           0   0.00000     -0.301140E-02
      4023 MEMB     33       OYPE     C316     CTL2    -0.180000       12.0110           0   0.00000     -0.301140E-02
      4024 MEMB     33       OYPE     H16X     HAL2     0.900000E-01   1.00800           0   0.00000     -0.301140E-02
      4025 MEMB     33       OYPE     H16Y     HAL2     0.900000E-01   1.00800           0   0.00000     -0.301140E-02
      4026 MEMB     33       OYPE     C317     CTL2    -0.180000       12.0110           0   0.00000     -0.301140E-02
      4027 MEMB     33       OYPE     H17X     HAL2     0.900000E-01   1.00800           0   0.00000     -0.301140E-02
      4028 MEMB     33       OYPE     H17Y     HAL2     0.900000E-01   1.00800           0   0.00000     -0.301140E-02
      4029 MEMB     33       OYPE     C318     CTL3    -0.270000       12.0110           0   0.00000     -0.301140E-02
      4030 MEMB     33       OYPE     H18X     HAL3     0.900000E-01   1.00800           0   0.00000     -0.301140E-02
      4031 MEMB     33       OYPE     H18Y     HAL3     0.900000E-01   1.00800           0   0.00000     -0.301140E-02
      4032 MEMB     33       OYPE     H18Z     HAL3     0.900000E-01   1.00800           0   0.00000     -0.301140E-02
      4033 MEMB     34       PMPG     C13      CTL2     0.500000E-01   12.0110           0   0.00000     -0.301140E-02
      4034 MEMB     34       PMPG     H13A     HAL2     0.900000E-01   1.00800           0   0.00000     -0.301140E-02
      4035 MEMB     34       PMPG     H13B     HAL2     0.900000E-01   1.00800           0   0.00000     -0.301140E-02
      4036 MEMB     34       PMPG     OC3      OHL     -0.660000       15.9994           0   0.00000     -0.301140E-02
      4037 MEMB     34       PMPG     HO3      HOL      0.430000       1.00800           0   0.00000     -0.301140E-02
      4038 MEMB     34       PMPG     C12      CTL1     0.140000       12.0110           0   0.00000     -0.301140E-02
      4039 MEMB     34       PMPG     H12A     HAL1     0.900000E-01   1.00800           0   0.00000     -0.301140E-02
      4040 MEMB     34       PMPG     OC2      OHL     -0.660000       15.9994           0   0.00000     -0.301140E-02
      4041 MEMB     34       PMPG     HO2      HOL      0.430000       1.00800           0   0.00000     -0.301140E-02
      4042 MEMB     34       PMPG     C11      CTL2    -0.800000E-01   12.0110           0   0.00000     -0.301140E-02
      4043 MEMB     34       PMPG     H11A     HAL2     0.900000E-01   1.00800           0   0.00000     -0.301140E-02
      4044 MEMB     34       PMPG     H11B     HAL2     0.900000E-01   1.00800           0   0.00000     -0.301140E-02
      4045 MEMB     34       PMPG     P        PL        1.50000       30.9740           0   0.00000     -0.301140E-02
      4046 MEMB     34       PMPG     O13      O2L     -0.780000       15.9994           0   0.00000     -0.301140E-02
      4047 MEMB     34       PMPG     O14      O2L     -0.780000       15.9994           0   0.00000     -0.301140E-02
      4048 MEMB     34       PMPG     O11      OSLP    -0.570000       15.9994           0   0.00000     -0.301140E-02
      4049 MEMB     34       PMPG     O12      OSLP    -0.570000       15.9994           0   0.00000     -0.301140E-02
      4050 MEMB     34       PMPG     C1       CTL2    -0.800000E-01   12.0110           0   0.00000     -0.301140E-02
      4051 MEMB     34       PMPG     HA       HAL2     0.900000E-01   1.00800           0   0.00000     -0.301140E-02
      4052 MEMB     34       PMPG     HB       HAL2     0.900000E-01   1.00800           0   0.00000     -0.301140E-02
      4053 MEMB     34       PMPG     C2       CTL1     0.170000       12.0110           0   0.00000     -0.301140E-02
      4054 MEMB     34       PMPG     HS       HAL1     0.900000E-01   1.00800           0   0.00000     -0.301140E-02
      4055 MEMB     34       PMPG     O21      OSL     -0.490000       15.9994           0   0.00000     -0.301140E-02
      4056 MEMB     34       PMPG     C21      CL       0.900000       12.0110           0   0.00000     -0.301140E-02
      4057 MEMB     34       PMPG     O22      OBL     -0.630000       15.9994           0   0.00000     -0.301140E-02
      4058 MEMB     34       PMPG     C22      CTL2    -0.220000       12.0110           0   0.00000     -0.301140E-02
      4059 MEMB     34       PMPG     H2R      HAL2     0.900000E-01   1.00800           0   0.00000     -0.301140E-02
      4060 MEMB     34       PMPG     H2S      HAL2     0.900000E-01   1.00800           0   0.00000     -0.301140E-02
      4061 MEMB     34       PMPG     C3       CTL2     0.800000E-01   12.0110           0   0.00000     -0.301140E-02
      4062 MEMB     34       PMPG     HX       HAL2     0.900000E-01   1.00800           0   0.00000     -0.301140E-02
      4063 MEMB     34       PMPG     HY       HAL2     0.900000E-01   1.00800           0   0.00000     -0.301140E-02
      4064 MEMB     34       PMPG     O31      OSL     -0.490000       15.9994           0   0.00000     -0.301140E-02
      4065 MEMB     34       PMPG     C31      CL       0.900000       12.0110           0   0.00000     -0.301140E-02
      4066 MEMB     34       PMPG     O32      OBL     -0.630000       15.9994           0   0.00000     -0.301140E-02
      4067 MEMB     34       PMPG     C32      CTL2    -0.220000       12.0110           0   0.00000     -0.301140E-02
      4068 MEMB     34       PMPG     H2X      HAL2     0.900000E-01   1.00800           0   0.00000     -0.301140E-02
      4069 MEMB     34       PMPG     H2Y      HAL2     0.900000E-01   1.00800           0   0.00000     -0.301140E-02
      4070 MEMB     34       PMPG     C23      CTL2    -0.180000       12.0110           0   0.00000     -0.301140E-02
      4071 MEMB     34       PMPG     H3R      HAL2     0.900000E-01   1.00800           0   0.00000     -0.301140E-02
      4072 MEMB     34       PMPG     H3S      HAL2     0.900000E-01   1.00800           0   0.00000     -0.301140E-02
      4073 MEMB     34       PMPG     C24      CTL2    -0.180000       12.0110           0   0.00000     -0.301140E-02
      4074 MEMB     34       PMPG     H4R      HAL2     0.900000E-01   1.00800           0   0.00000     -0.301140E-02
      4075 MEMB     34       PMPG     H4S      HAL2     0.900000E-01   1.00800           0   0.00000     -0.301140E-02
      4076 MEMB     34       PMPG     C25      CTL2    -0.180000       12.0110           0   0.00000     -0.301140E-02
      4077 MEMB     34       PMPG     H5R      HAL2     0.900000E-01   1.00800           0   0.00000     -0.301140E-02
      4078 MEMB     34       PMPG     H5S      HAL2     0.900000E-01   1.00800           0   0.00000     -0.301140E-02
      4079 MEMB     34       PMPG     C26      CTL2    -0.180000       12.0110           0   0.00000     -0.301140E-02
      4080 MEMB     34       PMPG     H6R      HAL2     0.900000E-01   1.00800           0   0.00000     -0.301140E-02
      4081 MEMB     34       PMPG     H6S      HAL2     0.900000E-01   1.00800           0   0.00000     -0.301140E-02
      4082 MEMB     34       PMPG     C27      CTL2    -0.180000       12.0110           0   0.00000     -0.301140E-02
      4083 MEMB     34       PMPG     H7R      HAL2     0.900000E-01   1.00800           0   0.00000     -0.301140E-02
      4084 MEMB     34       PMPG     H7S      HAL2     0.900000E-01   1.00800           0   0.00000     -0.301140E-02
      4085 MEMB     34       PMPG     C28      CTL2    -0.180000       12.0110           0   0.00000     -0.301140E-02
      4086 MEMB     34       PMPG     H8R      HAL2     0.900000E-01   1.00800           0   0.00000     -0.301140E-02
      4087 MEMB     34       PMPG     H8S      HAL2     0.900000E-01   1.00800           0   0.00000     -0.301140E-02
      4088 MEMB     34       PMPG     C29      CG3RC1  -0.900000E-01   12.0110           0   0.00000     -0.301140E-02
      4089 MEMB     34       PMPG     H9R      HGA1     0.900000E-01   1.00800           0   0.00000     -0.301140E-02
      4090 MEMB     34       PMPG     C217     CG3C31  -0.180000       12.0110           0   0.00000     -0.301140E-02
      4091 MEMB     34       PMPG     H17R     HGA2     0.900000E-01   1.00800           0   0.00000     -0.301140E-02
      4092 MEMB     34       PMPG     H17S     HGA2     0.900000E-01   1.00800           0   0.00000     -0.301140E-02
      4093 MEMB     34       PMPG     C210     CG3RC1  -0.900000E-01   12.0110           0   0.00000     -0.301140E-02
      4094 MEMB     34       PMPG     H10R     HGA1     0.900000E-01   1.00800           0   0.00000     -0.301140E-02
      4095 MEMB     34       PMPG     C211     CTL2    -0.180000       12.0110           0   0.00000     -0.301140E-02
      4096 MEMB     34       PMPG     H11R     HAL2     0.900000E-01   1.00800           0   0.00000     -0.301140E-02
      4097 MEMB     34       PMPG     H11S     HAL2     0.900000E-01   1.00800           0   0.00000     -0.301140E-02
      4098 MEMB     34       PMPG     C212     CTL2    -0.180000       12.0110           0   0.00000     -0.301140E-02
      4099 MEMB     34       PMPG     H12R     HAL2     0.900000E-01   1.00800           0   0.00000     -0.301140E-02
      4100 MEMB     34       PMPG     H12S     HAL2     0.900000E-01   1.00800           0   0.00000     -0.301140E-02
      4101 MEMB     34       PMPG     C213     CTL2    -0.180000       12.0110           0   0.00000     -0.301140E-02
      4102 MEMB     34       PMPG     H13R     HAL2     0.900000E-01   1.00800           0   0.00000     -0.301140E-02
      4103 MEMB     34       PMPG     H13S     HAL2     0.900000E-01   1.00800           0   0.00000     -0.301140E-02
      4104 MEMB     34       PMPG     C214     CTL2    -0.180000       12.0110           0   0.00000     -0.301140E-02
      4105 MEMB     34       PMPG     H14R     HAL2     0.900000E-01   1.00800           0   0.00000     -0.301140E-02
      4106 MEMB     34       PMPG     H14S     HAL2     0.900000E-01   1.00800           0   0.00000     -0.301140E-02
      4107 MEMB     34       PMPG     C215     CTL2    -0.180000       12.0110           0   0.00000     -0.301140E-02
      4108 MEMB     34       PMPG     H15R     HAL2     0.900000E-01   1.00800           0   0.00000     -0.301140E-02
      4109 MEMB     34       PMPG     H15S     HAL2     0.900000E-01   1.00800           0   0.00000     -0.301140E-02
      4110 MEMB     34       PMPG     C216     CTL3    -0.270000       12.0110           0   0.00000     -0.301140E-02
      4111 MEMB     34       PMPG     H16R     HAL3     0.900000E-01   1.00800           0   0.00000     -0.301140E-02
      4112 MEMB     34       PMPG     H16S     HAL3     0.900000E-01   1.00800           0   0.00000     -0.301140E-02
      4113 MEMB     34       PMPG     H16T     HAL3     0.900000E-01   1.00800           0   0.00000     -0.301140E-02
      4114 MEMB     34       PMPG     C33      CTL2    -0.180000       12.0110           0   0.00000     -0.301140E-02
      4115 MEMB     34       PMPG     H3X      HAL2     0.900000E-01   1.00800           0   0.00000     -0.301140E-02
      4116 MEMB     34       PMPG     H3Y      HAL2     0.900000E-01   1.00800           0   0.00000     -0.301140E-02
      4117 MEMB     34       PMPG     C34      CTL2    -0.180000       12.0110           0   0.00000     -0.301140E-02
      4118 MEMB     34       PMPG     H4X      HAL2     0.900000E-01   1.00800           0   0.00000     -0.301140E-02
      4119 MEMB     34       PMPG     H4Y      HAL2     0.900000E-01   1.00800           0   0.00000     -0.301140E-02
      4120 MEMB     34       PMPG     C35      CTL2    -0.180000       12.0110           0   0.00000     -0.301140E-02
      4121 MEMB     34       PMPG     H5X      HAL2     0.900000E-01   1.00800           0   0.00000     -0.301140E-02
      4122 MEMB     34       PMPG     H5Y      HAL2     0.900000E-01   1.00800           0   0.00000     -0.301140E-02
      4123 MEMB     34       PMPG     C36      CTL2    -0.180000       12.0110           0   0.00000     -0.301140E-02
      4124 MEMB     34       PMPG     H6X      HAL2     0.900000E-01   1.00800           0   0.00000     -0.301140E-02
      4125 MEMB     34       PMPG     H6Y      HAL2     0.900000E-01   1.00800           0   0.00000     -0.301140E-02
      4126 MEMB     34       PMPG     C37      CTL2    -0.180000       12.0110           0   0.00000     -0.301140E-02
      4127 MEMB     34       PMPG     H7X      HAL2     0.900000E-01   1.00800           0   0.00000     -0.301140E-02
      4128 MEMB     34       PMPG     H7Y      HAL2     0.900000E-01   1.00800           0   0.00000     -0.301140E-02
      4129 MEMB     34       PMPG     C38      CTL2    -0.180000       12.0110           0   0.00000     -0.301140E-02
      4130 MEMB     34       PMPG     H8X      HAL2     0.900000E-01   1.00800           0   0.00000     -0.301140E-02
      4131 MEMB     34       PMPG     H8Y      HAL2     0.900000E-01   1.00800           0   0.00000     -0.301140E-02
      4132 MEMB     34       PMPG     C39      CTL2    -0.180000       12.0110           0   0.00000     -0.301140E-02
      4133 MEMB     34       PMPG     H9X      HAL2     0.900000E-01   1.00800           0   0.00000     -0.301140E-02
      4134 MEMB     34       PMPG     H9Y      HAL2     0.900000E-01   1.00800           0   0.00000     -0.301140E-02
      4135 MEMB     34       PMPG     C310     CTL2    -0.180000       12.0110           0   0.00000     -0.301140E-02
      4136 MEMB     34       PMPG     H10X     HAL2     0.900000E-01   1.00800           0   0.00000     -0.301140E-02
      4137 MEMB     34       PMPG     H10Y     HAL2     0.900000E-01   1.00800           0   0.00000     -0.301140E-02
      4138 MEMB     34       PMPG     C311     CTL2    -0.180000       12.0110           0   0.00000     -0.301140E-02
      4139 MEMB     34       PMPG     H11X     HAL2     0.900000E-01   1.00800           0   0.00000     -0.301140E-02
      4140 MEMB     34       PMPG     H11Y     HAL2     0.900000E-01   1.00800           0   0.00000     -0.301140E-02
      4141 MEMB     34       PMPG     C312     CTL2    -0.180000       12.0110           0   0.00000     -0.301140E-02
      4142 MEMB     34       PMPG     H12X     HAL2     0.900000E-01   1.00800           0   0.00000     -0.301140E-02
      4143 MEMB     34       PMPG     H12Y     HAL2     0.900000E-01   1.00800           0   0.00000     -0.301140E-02
      4144 MEMB     34       PMPG     C313     CTL2    -0.180000       12.0110           0   0.00000     -0.301140E-02
      4145 MEMB     34       PMPG     H13X     HAL2     0.900000E-01   1.00800           0   0.00000     -0.301140E-02
      4146 MEMB     34       PMPG     H13Y     HAL2     0.900000E-01   1.00800           0   0.00000     -0.301140E-02
      4147 MEMB     34       PMPG     C314     CTL2    -0.180000       12.0110           0   0.00000     -0.301140E-02
      4148 MEMB     34       PMPG     H14X     HAL2     0.900000E-01   1.00800           0   0.00000     -0.301140E-02
      4149 MEMB     34       PMPG     H14Y     HAL2     0.900000E-01   1.00800           0   0.00000     -0.301140E-02
      4150 MEMB     34       PMPG     C315     CTL2    -0.180000       12.0110           0   0.00000     -0.301140E-02
      4151 MEMB     34       PMPG     H15X     HAL2     0.900000E-01   1.00800           0   0.00000     -0.301140E-02
      4152 MEMB     34       PMPG     H15Y     HAL2     0.900000E-01   1.00800           0   0.00000     -0.301140E-02
      4153 MEMB     34       PMPG     C316     CTL3    -0.270000       12.0110           0   0.00000     -0.301140E-02
      4154 MEMB     34       PMPG     H16X     HAL3     0.900000E-01   1.00800           0   0.00000     -0.301140E-02
      4155 MEMB     34       PMPG     H16Y     HAL3     0.900000E-01   1.00800           0   0.00000     -0.301140E-02
      4156 MEMB     34       PMPG     H16Z     HAL3     0.900000E-01   1.00800           0   0.00000     -0.301140E-02
      4157 MEMB     35       PMPE     N        NH3L    -0.300000       14.0070           0   0.00000     -0.301140E-02
      4158 MEMB     35       PMPE     HN1      HCL      0.330000       1.00800           0   0.00000     -0.301140E-02
      4159 MEMB     35       PMPE     HN2      HCL      0.330000       1.00800           0   0.00000     -0.301140E-02
      4160 MEMB     35       PMPE     HN3      HCL      0.330000       1.00800           0   0.00000     -0.301140E-02
      4161 MEMB     35       PMPE     C12      CTL2     0.130000       12.0110           0   0.00000     -0.301140E-02
      4162 MEMB     35       PMPE     H12A     HAL2     0.900000E-01   1.00800           0   0.00000     -0.301140E-02
      4163 MEMB     35       PMPE     H12B     HAL2     0.900000E-01   1.00800           0   0.00000     -0.301140E-02
      4164 MEMB     35       PMPE     C11      CTL2    -0.800000E-01   12.0110           0   0.00000     -0.301140E-02
      4165 MEMB     35       PMPE     H11A     HAL2     0.900000E-01   1.00800           0   0.00000     -0.301140E-02
      4166 MEMB     35       PMPE     H11B     HAL2     0.900000E-01   1.00800           0   0.00000     -0.301140E-02
      4167 MEMB     35       PMPE     P        PL        1.50000       30.9740           0   0.00000     -0.301140E-02
      4168 MEMB     35       PMPE     O13      O2L     -0.780000       15.9994           0   0.00000     -0.301140E-02
      4169 MEMB     35       PMPE     O14      O2L     -0.780000       15.9994           0   0.00000     -0.301140E-02
      4170 MEMB     35       PMPE     O11      OSLP    -0.570000       15.9994           0   0.00000     -0.301140E-02
      4171 MEMB     35       PMPE     O12      OSLP    -0.570000       15.9994           0   0.00000     -0.301140E-02
      4172 MEMB     35       PMPE     C1       CTL2    -0.800000E-01   12.0110           0   0.00000     -0.301140E-02
      4173 MEMB     35       PMPE     HA       HAL2     0.900000E-01   1.00800           0   0.00000     -0.301140E-02
      4174 MEMB     35       PMPE     HB       HAL2     0.900000E-01   1.00800           0   0.00000     -0.301140E-02
      4175 MEMB     35       PMPE     C2       CTL1     0.170000       12.0110           0   0.00000     -0.301140E-02
      4176 MEMB     35       PMPE     HS       HAL1     0.900000E-01   1.00800           0   0.00000     -0.301140E-02
      4177 MEMB     35       PMPE     O21      OSL     -0.490000       15.9994           0   0.00000     -0.301140E-02
      4178 MEMB     35       PMPE     C21      CL       0.900000       12.0110           0   0.00000     -0.301140E-02
      4179 MEMB     35       PMPE     O22      OBL     -0.630000       15.9994           0   0.00000     -0.301140E-02
      4180 MEMB     35       PMPE     C22      CTL2    -0.220000       12.0110           0   0.00000     -0.301140E-02
      4181 MEMB     35       PMPE     H2R      HAL2     0.900000E-01   1.00800           0   0.00000     -0.301140E-02
      4182 MEMB     35       PMPE     H2S      HAL2     0.900000E-01   1.00800           0   0.00000     -0.301140E-02
      4183 MEMB     35       PMPE     C3       CTL2     0.800000E-01   12.0110           0   0.00000     -0.301140E-02
      4184 MEMB     35       PMPE     HX       HAL2     0.900000E-01   1.00800           0   0.00000     -0.301140E-02
      4185 MEMB     35       PMPE     HY       HAL2     0.900000E-01   1.00800           0   0.00000     -0.301140E-02
      4186 MEMB     35       PMPE     O31      OSL     -0.490000       15.9994           0   0.00000     -0.301140E-02
      4187 MEMB     35       PMPE     C31      CL       0.900000       12.0110           0   0.00000     -0.301140E-02
      4188 MEMB     35       PMPE     O32      OBL     -0.630000       15.9994           0   0.00000     -0.301140E-02
      4189 MEMB     35       PMPE     C32      CTL2    -0.220000       12.0110           0   0.00000     -0.301140E-02
      4190 MEMB     35       PMPE     H2X      HAL2     0.900000E-01   1.00800           0   0.00000     -0.301140E-02
      4191 MEMB     35       PMPE     H2Y      HAL2     0.900000E-01   1.00800           0   0.00000     -0.301140E-02
      4192 MEMB     35       PMPE     C23      CTL2    -0.180000       12.0110           0   0.00000     -0.301140E-02
      4193 MEMB     35       PMPE     H3R      HAL2     0.900000E-01   1.00800           0   0.00000     -0.301140E-02
      4194 MEMB     35       PMPE     H3S      HAL2     0.900000E-01   1.00800           0   0.00000     -0.301140E-02
      4195 MEMB     35       PMPE     C24      CTL2    -0.180000       12.0110           0   0.00000     -0.301140E-02
      4196 MEMB     35       PMPE     H4R      HAL2     0.900000E-01   1.00800           0   0.00000     -0.301140E-02
      4197 MEMB     35       PMPE     H4S      HAL2     0.900000E-01   1.00800           0   0.00000     -0.301140E-02
      4198 MEMB     35       PMPE     C25      CTL2    -0.180000       12.0110           0   0.00000     -0.301140E-02
      4199 MEMB     35       PMPE     H5R      HAL2     0.900000E-01   1.00800           0   0.00000     -0.301140E-02
      4200 MEMB     35       PMPE     H5S      HAL2     0.900000E-01   1.00800           0   0.00000     -0.301140E-02
      4201 MEMB     35       PMPE     C26      CTL2    -0.180000       12.0110           0   0.00000     -0.301140E-02
      4202 MEMB     35       PMPE     H6R      HAL2     0.900000E-01   1.00800           0   0.00000     -0.301140E-02
      4203 MEMB     35       PMPE     H6S      HAL2     0.900000E-01   1.00800           0   0.00000     -0.301140E-02
      4204 MEMB     35       PMPE     C27      CTL2    -0.180000       12.0110           0   0.00000     -0.301140E-02
      4205 MEMB     35       PMPE     H7R      HAL2     0.900000E-01   1.00800           0   0.00000     -0.301140E-02
      4206 MEMB     35       PMPE     H7S      HAL2     0.900000E-01   1.00800           0   0.00000     -0.301140E-02
      4207 MEMB     35       PMPE     C28      CTL2    -0.180000       12.0110           0   0.00000     -0.301140E-02
      4208 MEMB     35       PMPE     H8R      HAL2     0.900000E-01   1.00800           0   0.00000     -0.301140E-02
      4209 MEMB     35       PMPE     H8S      HAL2     0.900000E-01   1.00800           0   0.00000     -0.301140E-02
      4210 MEMB     35       PMPE     C29      CG3RC1  -0.900000E-01   12.0110           0   0.00000     -0.301140E-02
      4211 MEMB     35       PMPE     H9R      HGA1     0.900000E-01   1.00800           0   0.00000     -0.301140E-02
      4212 MEMB     35       PMPE     C217     CG3C31  -0.180000       12.0110           0   0.00000     -0.301140E-02
      4213 MEMB     35       PMPE     H17R     HGA2     0.900000E-01   1.00800           0   0.00000     -0.301140E-02
      4214 MEMB     35       PMPE     H17S     HGA2     0.900000E-01   1.00800           0   0.00000     -0.301140E-02
      4215 MEMB     35       PMPE     C210     CG3RC1  -0.900000E-01   12.0110           0   0.00000     -0.301140E-02
      4216 MEMB     35       PMPE     H10R     HGA1     0.900000E-01   1.00800           0   0.00000     -0.301140E-02
      4217 MEMB     35       PMPE     C211     CTL2    -0.180000       12.0110           0   0.00000     -0.301140E-02
      4218 MEMB     35       PMPE     H11R     HAL2     0.900000E-01   1.00800           0   0.00000     -0.301140E-02
      4219 MEMB     35       PMPE     H11S     HAL2     0.900000E-01   1.00800           0   0.00000     -0.301140E-02
      4220 MEMB     35       PMPE     C212     CTL2    -0.180000       12.0110           0   0.00000     -0.301140E-02
      4221 MEMB     35       PMPE     H12R     HAL2     0.900000E-01   1.00800           0   0.00000     -0.301140E-02
      4222 MEMB     35       PMPE     H12S     HAL2     0.900000E-01   1.00800           0   0.00000     -0.301140E-02
      4223 MEMB     35       PMPE     C213     CTL2    -0.180000       12.0110           0   0.00000     -0.301140E-02
      4224 MEMB     35       PMPE     H13R     HAL2     0.900000E-01   1.00800           0   0.00000     -0.301140E-02
      4225 MEMB     35       PMPE     H13S     HAL2     0.900000E-01   1.00800           0   0.00000     -0.301140E-02
      4226 MEMB     35       PMPE     C214     CTL2    -0.180000       12.0110           0   0.00000     -0.301140E-02
      4227 MEMB     35       PMPE     H14R     HAL2     0.900000E-01   1.00800           0   0.00000     -0.301140E-02
      4228 MEMB     35       PMPE     H14S     HAL2     0.900000E-01   1.00800           0   0.00000     -0.301140E-02
      4229 MEMB     35       PMPE     C215     CTL2    -0.180000       12.0110           0   0.00000     -0.301140E-02
      4230 MEMB     35       PMPE     H15R     HAL2     0.900000E-01   1.00800           0   0.00000     -0.301140E-02
      4231 MEMB     35       PMPE     H15S     HAL2     0.900000E-01   1.00800           0   0.00000     -0.301140E-02
      4232 MEMB     35       PMPE     C216     CTL3    -0.270000       12.0110           0   0.00000     -0.301140E-02
      4233 MEMB     35       PMPE     H16R     HAL3     0.900000E-01   1.00800           0   0.00000     -0.301140E-02
      4234 MEMB     35       PMPE     H16S     HAL3     0.900000E-01   1.00800           0   0.00000     -0.301140E-02
      4235 MEMB     35       PMPE     H16T     HAL3     0.900000E-01   1.00800           0   0.00000     -0.301140E-02
      4236 MEMB     35       PMPE     C33      CTL2    -0.180000       12.0110           0   0.00000     -0.301140E-02
      4237 MEMB     35       PMPE     H3X      HAL2     0.900000E-01   1.00800           0   0.00000     -0.301140E-02
      4238 MEMB     35       PMPE     H3Y      HAL2     0.900000E-01   1.00800           0   0.00000     -0.301140E-02
      4239 MEMB     35       PMPE     C34      CTL2    -0.180000       12.0110           0   0.00000     -0.301140E-02
      4240 MEMB     35       PMPE     H4X      HAL2     0.900000E-01   1.00800           0   0.00000     -0.301140E-02
      4241 MEMB     35       PMPE     H4Y      HAL2     0.900000E-01   1.00800           0   0.00000     -0.301140E-02
      4242 MEMB     35       PMPE     C35      CTL2    -0.180000       12.0110           0   0.00000     -0.301140E-02
      4243 MEMB     35       PMPE     H5X      HAL2     0.900000E-01   1.00800           0   0.00000     -0.301140E-02
      4244 MEMB     35       PMPE     H5Y      HAL2     0.900000E-01   1.00800           0   0.00000     -0.301140E-02
      4245 MEMB     35       PMPE     C36      CTL2    -0.180000       12.0110           0   0.00000     -0.301140E-02
      4246 MEMB     35       PMPE     H6X      HAL2     0.900000E-01   1.00800           0   0.00000     -0.301140E-02
      4247 MEMB     35       PMPE     H6Y      HAL2     0.900000E-01   1.00800           0   0.00000     -0.301140E-02
      4248 MEMB     35       PMPE     C37      CTL2    -0.180000       12.0110           0   0.00000     -0.301140E-02
      4249 MEMB     35       PMPE     H7X      HAL2     0.900000E-01   1.00800           0   0.00000     -0.301140E-02
      4250 MEMB     35       PMPE     H7Y      HAL2     0.900000E-01   1.00800           0   0.00000     -0.301140E-02
      4251 MEMB     35       PMPE     C38      CTL2    -0.180000       12.0110           0   0.00000     -0.301140E-02
      4252 MEMB     35       PMPE     H8X      HAL2     0.900000E-01   1.00800           0   0.00000     -0.301140E-02
      4253 MEMB     35       PMPE     H8Y      HAL2     0.900000E-01   1.00800           0   0.00000     -0.301140E-02
      4254 MEMB     35       PMPE     C39      CTL2    -0.180000       12.0110           0   0.00000     -0.301140E-02
      4255 MEMB     35       PMPE     H9X      HAL2     0.900000E-01   1.00800           0   0.00000     -0.301140E-02
      4256 MEMB     35       PMPE     H9Y      HAL2     0.900000E-01   1.00800           0   0.00000     -0.301140E-02
      4257 MEMB     35       PMPE     C310     CTL2    -0.180000       12.0110           0   0.00000     -0.301140E-02
      4258 MEMB     35       PMPE     H10X     HAL2     0.900000E-01   1.00800           0   0.00000     -0.301140E-02
      4259 MEMB     35       PMPE     H10Y     HAL2     0.900000E-01   1.00800           0   0.00000     -0.301140E-02
      4260 MEMB     35       PMPE     C311     CTL2    -0.180000       12.0110           0   0.00000     -0.301140E-02
      4261 MEMB     35       PMPE     H11X     HAL2     0.900000E-01   1.00800           0   0.00000     -0.301140E-02
      4262 MEMB     35       PMPE     H11Y     HAL2     0.900000E-01   1.00800           0   0.00000     -0.301140E-02
      4263 MEMB     35       PMPE     C312     CTL2    -0.180000       12.0110           0   0.00000     -0.301140E-02
      4264 MEMB     35       PMPE     H12X     HAL2     0.900000E-01   1.00800           0   0.00000     -0.301140E-02
      4265 MEMB     35       PMPE     H12Y     HAL2     0.900000E-01   1.00800           0   0.00000     -0.301140E-02
      4266 MEMB     35       PMPE     C313     CTL2    -0.180000       12.0110           0   0.00000     -0.301140E-02
      4267 MEMB     35       PMPE     H13X     HAL2     0.900000E-01   1.00800           0   0.00000     -0.301140E-02
      4268 MEMB     35       PMPE     H13Y     HAL2     0.900000E-01   1.00800           0   0.00000     -0.301140E-02
      4269 MEMB     35       PMPE     C314     CTL2    -0.180000       12.0110           0   0.00000     -0.301140E-02
      4270 MEMB     35       PMPE     H14X     HAL2     0.900000E-01   1.00800           0   0.00000     -0.301140E-02
      4271 MEMB     35       PMPE     H14Y     HAL2     0.900000E-01   1.00800           0   0.00000     -0.301140E-02
      4272 MEMB     35       PMPE     C315     CTL2    -0.180000       12.0110           0   0.00000     -0.301140E-02
      4273 MEMB     35       PMPE     H15X     HAL2     0.900000E-01   1.00800           0   0.00000     -0.301140E-02
      4274 MEMB     35       PMPE     H15Y     HAL2     0.900000E-01   1.00800           0   0.00000     -0.301140E-02
      4275 MEMB     35       PMPE     C316     CTL3    -0.270000       12.0110           0   0.00000     -0.301140E-02
      4276 MEMB     35       PMPE     H16X     HAL3     0.900000E-01   1.00800           0   0.00000     -0.301140E-02
      4277 MEMB     35       PMPE     H16Y     HAL3     0.900000E-01   1.00800           0   0.00000     -0.301140E-02
      4278 MEMB     35       PMPE     H16Z     HAL3     0.900000E-01   1.00800           0   0.00000     -0.301140E-02
      4279 MEMB     36       POPE     N        NH3L    -0.300000       14.0070           0   0.00000     -0.301140E-02
      4280 MEMB     36       POPE     HN1      HCL      0.330000       1.00800           0   0.00000     -0.301140E-02
      4281 MEMB     36       POPE     HN2      HCL      0.330000       1.00800           0   0.00000     -0.301140E-02
      4282 MEMB     36       POPE     HN3      HCL      0.330000       1.00800           0   0.00000     -0.301140E-02
      4283 MEMB     36       POPE     C12      CTL2     0.130000       12.0110           0   0.00000     -0.301140E-02
      4284 MEMB     36       POPE     H12A     HAL2     0.900000E-01   1.00800           0   0.00000     -0.301140E-02
      4285 MEMB     36       POPE     H12B     HAL2     0.900000E-01   1.00800           0   0.00000     -0.301140E-02
      4286 MEMB     36       POPE     C11      CTL2    -0.800000E-01   12.0110           0   0.00000     -0.301140E-02
      4287 MEMB     36       POPE     H11A     HAL2     0.900000E-01   1.00800           0   0.00000     -0.301140E-02
      4288 MEMB     36       POPE     H11B     HAL2     0.900000E-01   1.00800           0   0.00000     -0.301140E-02
      4289 MEMB     36       POPE     P        PL        1.50000       30.9740           0   0.00000     -0.301140E-02
      4290 MEMB     36       POPE     O13      O2L     -0.780000       15.9994           0   0.00000     -0.301140E-02
      4291 MEMB     36       POPE     O14      O2L     -0.780000       15.9994           0   0.00000     -0.301140E-02
      4292 MEMB     36       POPE     O11      OSLP    -0.570000       15.9994           0   0.00000     -0.301140E-02
      4293 MEMB     36       POPE     O12      OSLP    -0.570000       15.9994           0   0.00000     -0.301140E-02
      4294 MEMB     36       POPE     C1       CTL2    -0.800000E-01   12.0110           0   0.00000     -0.301140E-02
      4295 MEMB     36       POPE     HA       HAL2     0.900000E-01   1.00800           0   0.00000     -0.301140E-02
      4296 MEMB     36       POPE     HB       HAL2     0.900000E-01   1.00800           0   0.00000     -0.301140E-02
      4297 MEMB     36       POPE     C2       CTL1     0.170000       12.0110           0   0.00000     -0.301140E-02
      4298 MEMB     36       POPE     HS       HAL1     0.900000E-01   1.00800           0   0.00000     -0.301140E-02
      4299 MEMB     36       POPE     O21      OSL     -0.490000       15.9994           0   0.00000     -0.301140E-02
      4300 MEMB     36       POPE     C21      CL       0.900000       12.0110           0   0.00000     -0.301140E-02
      4301 MEMB     36       POPE     O22      OBL     -0.630000       15.9994           0   0.00000     -0.301140E-02
      4302 MEMB     36       POPE     C22      CTL2    -0.220000       12.0110           0   0.00000     -0.301140E-02
      4303 MEMB     36       POPE     H2R      HAL2     0.900000E-01   1.00800           0   0.00000     -0.301140E-02
      4304 MEMB     36       POPE     H2S      HAL2     0.900000E-01   1.00800           0   0.00000     -0.301140E-02
      4305 MEMB     36       POPE     C3       CTL2     0.800000E-01   12.0110           0   0.00000     -0.301140E-02
      4306 MEMB     36       POPE     HX       HAL2     0.900000E-01   1.00800           0   0.00000     -0.301140E-02
      4307 MEMB     36       POPE     HY       HAL2     0.900000E-01   1.00800           0   0.00000     -0.301140E-02
      4308 MEMB     36       POPE     O31      OSL     -0.490000       15.9994           0   0.00000     -0.301140E-02
      4309 MEMB     36       POPE     C31      CL       0.900000       12.0110           0   0.00000     -0.301140E-02
      4310 MEMB     36       POPE     O32      OBL     -0.630000       15.9994           0   0.00000     -0.301140E-02
      4311 MEMB     36       POPE     C32      CTL2    -0.220000       12.0110           0   0.00000     -0.301140E-02
      4312 MEMB     36       POPE     H2X      HAL2     0.900000E-01   1.00800           0   0.00000     -0.301140E-02
      4313 MEMB     36       POPE     H2Y      HAL2     0.900000E-01   1.00800           0   0.00000     -0.301140E-02
      4314 MEMB     36       POPE     C23      CTL2    -0.180000       12.0110           0   0.00000     -0.301140E-02
      4315 MEMB     36       POPE     H3R      HAL2     0.900000E-01   1.00800           0   0.00000     -0.301140E-02
      4316 MEMB     36       POPE     H3S      HAL2     0.900000E-01   1.00800           0   0.00000     -0.301140E-02
      4317 MEMB     36       POPE     C24      CTL2    -0.180000       12.0110           0   0.00000     -0.301140E-02
      4318 MEMB     36       POPE     H4R      HAL2     0.900000E-01   1.00800           0   0.00000     -0.301140E-02
      4319 MEMB     36       POPE     H4S      HAL2     0.900000E-01   1.00800           0   0.00000     -0.301140E-02
      4320 MEMB     36       POPE     C25      CTL2    -0.180000       12.0110           0   0.00000     -0.301140E-02
      4321 MEMB     36       POPE     H5R      HAL2     0.900000E-01   1.00800           0   0.00000     -0.301140E-02
      4322 MEMB     36       POPE     H5S      HAL2     0.900000E-01   1.00800           0   0.00000     -0.301140E-02
      4323 MEMB     36       POPE     C26      CTL2    -0.180000       12.0110           0   0.00000     -0.301140E-02
      4324 MEMB     36       POPE     H6R      HAL2     0.900000E-01   1.00800           0   0.00000     -0.301140E-02
      4325 MEMB     36       POPE     H6S      HAL2     0.900000E-01   1.00800           0   0.00000     -0.301140E-02
      4326 MEMB     36       POPE     C27      CTL2    -0.180000       12.0110           0   0.00000     -0.301140E-02
      4327 MEMB     36       POPE     H7R      HAL2     0.900000E-01   1.00800           0   0.00000     -0.301140E-02
      4328 MEMB     36       POPE     H7S      HAL2     0.900000E-01   1.00800           0   0.00000     -0.301140E-02
      4329 MEMB     36       POPE     C28      CTL2    -0.180000       12.0110           0   0.00000     -0.301140E-02
      4330 MEMB     36       POPE     H8R      HAL2     0.900000E-01   1.00800           0   0.00000     -0.301140E-02
      4331 MEMB     36       POPE     H8S      HAL2     0.900000E-01   1.00800           0   0.00000     -0.301140E-02
      4332 MEMB     36       POPE     C29      CEL1    -0.150000       12.0110           0   0.00000     -0.301140E-02
      4333 MEMB     36       POPE     H91      HEL1     0.150000       1.00800           0   0.00000     -0.301140E-02
      4334 MEMB     36       POPE     C210     CEL1    -0.150000       12.0110           0   0.00000     -0.301140E-02
      4335 MEMB     36       POPE     H101     HEL1     0.150000       1.00800           0   0.00000     -0.301140E-02
      4336 MEMB     36       POPE     C211     CTL2    -0.180000       12.0110           0   0.00000     -0.301140E-02
      4337 MEMB     36       POPE     H11R     HAL2     0.900000E-01   1.00800           0   0.00000     -0.301140E-02
      4338 MEMB     36       POPE     H11S     HAL2     0.900000E-01   1.00800           0   0.00000     -0.301140E-02
      4339 MEMB     36       POPE     C212     CTL2    -0.180000       12.0110           0   0.00000     -0.301140E-02
      4340 MEMB     36       POPE     H12R     HAL2     0.900000E-01   1.00800           0   0.00000     -0.301140E-02
      4341 MEMB     36       POPE     H12S     HAL2     0.900000E-01   1.00800           0   0.00000     -0.301140E-02
      4342 MEMB     36       POPE     C213     CTL2    -0.180000       12.0110           0   0.00000     -0.301140E-02
      4343 MEMB     36       POPE     H13R     HAL2     0.900000E-01   1.00800           0   0.00000     -0.301140E-02
      4344 MEMB     36       POPE     H13S     HAL2     0.900000E-01   1.00800           0   0.00000     -0.301140E-02
      4345 MEMB     36       POPE     C214     CTL2    -0.180000       12.0110           0   0.00000     -0.301140E-02
      4346 MEMB     36       POPE     H14R     HAL2     0.900000E-01   1.00800           0   0.00000     -0.301140E-02
      4347 MEMB     36       POPE     H14S     HAL2     0.900000E-01   1.00800           0   0.00000     -0.301140E-02
      4348 MEMB     36       POPE     C215     CTL2    -0.180000       12.0110           0   0.00000     -0.301140E-02
      4349 MEMB     36       POPE     H15R     HAL2     0.900000E-01   1.00800           0   0.00000     -0.301140E-02
      4350 MEMB     36       POPE     H15S     HAL2     0.900000E-01   1.00800           0   0.00000     -0.301140E-02
      4351 MEMB     36       POPE     C216     CTL2    -0.180000       12.0110           0   0.00000     -0.301140E-02
      4352 MEMB     36       POPE     H16R     HAL2     0.900000E-01   1.00800           0   0.00000     -0.301140E-02
      4353 MEMB     36       POPE     H16S     HAL2     0.900000E-01   1.00800           0   0.00000     -0.301140E-02
      4354 MEMB     36       POPE     C217     CTL2    -0.180000       12.0110           0   0.00000     -0.301140E-02
      4355 MEMB     36       POPE     H17R     HAL2     0.900000E-01   1.00800           0   0.00000     -0.301140E-02
      4356 MEMB     36       POPE     H17S     HAL2     0.900000E-01   1.00800           0   0.00000     -0.301140E-02
      4357 MEMB     36       POPE     C218     CTL3    -0.270000       12.0110           0   0.00000     -0.301140E-02
      4358 MEMB     36       POPE     H18R     HAL3     0.900000E-01   1.00800           0   0.00000     -0.301140E-02
      4359 MEMB     36       POPE     H18S     HAL3     0.900000E-01   1.00800           0   0.00000     -0.301140E-02
      4360 MEMB     36       POPE     H18T     HAL3     0.900000E-01   1.00800           0   0.00000     -0.301140E-02
      4361 MEMB     36       POPE     C33      CTL2    -0.180000       12.0110           0   0.00000     -0.301140E-02
      4362 MEMB     36       POPE     H3X      HAL2     0.900000E-01   1.00800           0   0.00000     -0.301140E-02
      4363 MEMB     36       POPE     H3Y      HAL2     0.900000E-01   1.00800           0   0.00000     -0.301140E-02
      4364 MEMB     36       POPE     C34      CTL2    -0.180000       12.0110           0   0.00000     -0.301140E-02
      4365 MEMB     36       POPE     H4X      HAL2     0.900000E-01   1.00800           0   0.00000     -0.301140E-02
      4366 MEMB     36       POPE     H4Y      HAL2     0.900000E-01   1.00800           0   0.00000     -0.301140E-02
      4367 MEMB     36       POPE     C35      CTL2    -0.180000       12.0110           0   0.00000     -0.301140E-02
      4368 MEMB     36       POPE     H5X      HAL2     0.900000E-01   1.00800           0   0.00000     -0.301140E-02
      4369 MEMB     36       POPE     H5Y      HAL2     0.900000E-01   1.00800           0   0.00000     -0.301140E-02
      4370 MEMB     36       POPE     C36      CTL2    -0.180000       12.0110           0   0.00000     -0.301140E-02
      4371 MEMB     36       POPE     H6X      HAL2     0.900000E-01   1.00800           0   0.00000     -0.301140E-02
      4372 MEMB     36       POPE     H6Y      HAL2     0.900000E-01   1.00800           0   0.00000     -0.301140E-02
      4373 MEMB     36       POPE     C37      CTL2    -0.180000       12.0110           0   0.00000     -0.301140E-02
      4374 MEMB     36       POPE     H7X      HAL2     0.900000E-01   1.00800           0   0.00000     -0.301140E-02
      4375 MEMB     36       POPE     H7Y      HAL2     0.900000E-01   1.00800           0   0.00000     -0.301140E-02
      4376 MEMB     36       POPE     C38      CTL2    -0.180000       12.0110           0   0.00000     -0.301140E-02
      4377 MEMB     36       POPE     H8X      HAL2     0.900000E-01   1.00800           0   0.00000     -0.301140E-02
      4378 MEMB     36       POPE     H8Y      HAL2     0.900000E-01   1.00800           0   0.00000     -0.301140E-02
      4379 MEMB     36       POPE     C39      CTL2    -0.180000       12.0110           0   0.00000     -0.301140E-02
      4380 MEMB     36       POPE     H9X      HAL2     0.900000E-01   1.00800           0   0.00000     -0.301140E-02
      4381 MEMB     36       POPE     H9Y      HAL2     0.900000E-01   1.00800           0   0.00000     -0.301140E-02
      4382 MEMB     36       POPE     C310     CTL2    -0.180000       12.0110           0   0.00000     -0.301140E-02
      4383 MEMB     36       POPE     H10X     HAL2     0.900000E-01   1.00800           0   0.00000     -0.301140E-02
      4384 MEMB     36       POPE     H10Y     HAL2     0.900000E-01   1.00800           0   0.00000     -0.301140E-02
      4385 MEMB     36       POPE     C311     CTL2    -0.180000       12.0110           0   0.00000     -0.301140E-02
      4386 MEMB     36       POPE     H11X     HAL2     0.900000E-01   1.00800           0   0.00000     -0.301140E-02
      4387 MEMB     36       POPE     H11Y     HAL2     0.900000E-01   1.00800           0   0.00000     -0.301140E-02
      4388 MEMB     36       POPE     C312     CTL2    -0.180000       12.0110           0   0.00000     -0.301140E-02
      4389 MEMB     36       POPE     H12X     HAL2     0.900000E-01   1.00800           0   0.00000     -0.301140E-02
      4390 MEMB     36       POPE     H12Y     HAL2     0.900000E-01   1.00800           0   0.00000     -0.301140E-02
      4391 MEMB     36       POPE     C313     CTL2    -0.180000       12.0110           0   0.00000     -0.301140E-02
      4392 MEMB     36       POPE     H13X     HAL2     0.900000E-01   1.00800           0   0.00000     -0.301140E-02
      4393 MEMB     36       POPE     H13Y     HAL2     0.900000E-01   1.00800           0   0.00000     -0.301140E-02
      4394 MEMB     36       POPE     C314     CTL2    -0.180000       12.0110           0   0.00000     -0.301140E-02
      4395 MEMB     36       POPE     H14X     HAL2     0.900000E-01   1.00800           0   0.00000     -0.301140E-02
      4396 MEMB     36       POPE     H14Y     HAL2     0.900000E-01   1.00800           0   0.00000     -0.301140E-02
      4397 MEMB     36       POPE     C315     CTL2    -0.180000       12.0110           0   0.00000     -0.301140E-02
      4398 MEMB     36       POPE     H15X     HAL2     0.900000E-01   1.00800           0   0.00000     -0.301140E-02
      4399 MEMB     36       POPE     H15Y     HAL2     0.900000E-01   1.00800           0   0.00000     -0.301140E-02
      4400 MEMB     36       POPE     C316     CTL3    -0.270000       12.0110           0   0.00000     -0.301140E-02
      4401 MEMB     36       POPE     H16X     HAL3     0.900000E-01   1.00800           0   0.00000     -0.301140E-02
      4402 MEMB     36       POPE     H16Y     HAL3     0.900000E-01   1.00800           0   0.00000     -0.301140E-02
      4403 MEMB     36       POPE     H16Z     HAL3     0.900000E-01   1.00800           0   0.00000     -0.301140E-02
      4404 MEMB     37       OYPE     N        NH3L    -0.300000       14.0070           0   0.00000     -0.301140E-02
      4405 MEMB     37       OYPE     HN1      HCL      0.330000       1.00800           0   0.00000     -0.301140E-02
      4406 MEMB     37       OYPE     HN2      HCL      0.330000       1.00800           0   0.00000     -0.301140E-02
      4407 MEMB     37       OYPE     HN3      HCL      0.330000       1.00800           0   0.00000     -0.301140E-02
      4408 MEMB     37       OYPE     C12      CTL2     0.130000       12.0110           0   0.00000     -0.301140E-02
      4409 MEMB     37       OYPE     H12A     HAL2     0.900000E-01   1.00800           0   0.00000     -0.301140E-02
      4410 MEMB     37       OYPE     H12B     HAL2     0.900000E-01   1.00800           0   0.00000     -0.301140E-02
      4411 MEMB     37       OYPE     C11      CTL2    -0.800000E-01   12.0110           0   0.00000     -0.301140E-02
      4412 MEMB     37       OYPE     H11A     HAL2     0.900000E-01   1.00800           0   0.00000     -0.301140E-02
      4413 MEMB     37       OYPE     H11B     HAL2     0.900000E-01   1.00800           0   0.00000     -0.301140E-02
      4414 MEMB     37       OYPE     P        PL        1.50000       30.9740           0   0.00000     -0.301140E-02
      4415 MEMB     37       OYPE     O13      O2L     -0.780000       15.9994           0   0.00000     -0.301140E-02
      4416 MEMB     37       OYPE     O14      O2L     -0.780000       15.9994           0   0.00000     -0.301140E-02
      4417 MEMB     37       OYPE     O11      OSLP    -0.570000       15.9994           0   0.00000     -0.301140E-02
      4418 MEMB     37       OYPE     O12      OSLP    -0.570000       15.9994           0   0.00000     -0.301140E-02
      4419 MEMB     37       OYPE     C1       CTL2    -0.800000E-01   12.0110           0   0.00000     -0.301140E-02
      4420 MEMB     37       OYPE     HA       HAL2     0.900000E-01   1.00800           0   0.00000     -0.301140E-02
      4421 MEMB     37       OYPE     HB       HAL2     0.900000E-01   1.00800           0   0.00000     -0.301140E-02
      4422 MEMB     37       OYPE     C2       CTL1     0.170000       12.0110           0   0.00000     -0.301140E-02
      4423 MEMB     37       OYPE     HS       HAL1     0.900000E-01   1.00800           0   0.00000     -0.301140E-02
      4424 MEMB     37       OYPE     O21      OSL     -0.490000       15.9994           0   0.00000     -0.301140E-02
      4425 MEMB     37       OYPE     C21      CL       0.900000       12.0110           0   0.00000     -0.301140E-02
      4426 MEMB     37       OYPE     O22      OBL     -0.630000       15.9994           0   0.00000     -0.301140E-02
      4427 MEMB     37       OYPE     C22      CTL2    -0.220000       12.0110           0   0.00000     -0.301140E-02
      4428 MEMB     37       OYPE     H2R      HAL2     0.900000E-01   1.00800           0   0.00000     -0.301140E-02
      4429 MEMB     37       OYPE     H2S      HAL2     0.900000E-01   1.00800           0   0.00000     -0.301140E-02
      4430 MEMB     37       OYPE     C3       CTL2     0.800000E-01   12.0110           0   0.00000     -0.301140E-02
      4431 MEMB     37       OYPE     HX       HAL2     0.900000E-01   1.00800           0   0.00000     -0.301140E-02
      4432 MEMB     37       OYPE     HY       HAL2     0.900000E-01   1.00800           0   0.00000     -0.301140E-02
      4433 MEMB     37       OYPE     O31      OSL     -0.490000       15.9994           0   0.00000     -0.301140E-02
      4434 MEMB     37       OYPE     C31      CL       0.900000       12.0110           0   0.00000     -0.301140E-02
      4435 MEMB     37       OYPE     O32      OBL     -0.630000       15.9994           0   0.00000     -0.301140E-02
      4436 MEMB     37       OYPE     C32      CTL2    -0.220000       12.0110           0   0.00000     -0.301140E-02
      4437 MEMB     37       OYPE     H2X      HAL2     0.900000E-01   1.00800           0   0.00000     -0.301140E-02
      4438 MEMB     37       OYPE     H2Y      HAL2     0.900000E-01   1.00800           0   0.00000     -0.301140E-02
      4439 MEMB     37       OYPE     C23      CTL2    -0.180000       12.0110           0   0.00000     -0.301140E-02
      4440 MEMB     37       OYPE     H3R      HAL2     0.900000E-01   1.00800           0   0.00000     -0.301140E-02
      4441 MEMB     37       OYPE     H3S      HAL2     0.900000E-01   1.00800           0   0.00000     -0.301140E-02
      4442 MEMB     37       OYPE     C24      CTL2    -0.180000       12.0110           0   0.00000     -0.301140E-02
      4443 MEMB     37       OYPE     H4R      HAL2     0.900000E-01   1.00800           0   0.00000     -0.301140E-02
      4444 MEMB     37       OYPE     H4S      HAL2     0.900000E-01   1.00800           0   0.00000     -0.301140E-02
      4445 MEMB     37       OYPE     C25      CTL2    -0.180000       12.0110           0   0.00000     -0.301140E-02
      4446 MEMB     37       OYPE     H5R      HAL2     0.900000E-01   1.00800           0   0.00000     -0.301140E-02
      4447 MEMB     37       OYPE     H5S      HAL2     0.900000E-01   1.00800           0   0.00000     -0.301140E-02
      4448 MEMB     37       OYPE     C26      CTL2    -0.180000       12.0110           0   0.00000     -0.301140E-02
      4449 MEMB     37       OYPE     H6R      HAL2     0.900000E-01   1.00800           0   0.00000     -0.301140E-02
      4450 MEMB     37       OYPE     H6S      HAL2     0.900000E-01   1.00800           0   0.00000     -0.301140E-02
      4451 MEMB     37       OYPE     C27      CTL2    -0.180000       12.0110           0   0.00000     -0.301140E-02
      4452 MEMB     37       OYPE     H7R      HAL2     0.900000E-01   1.00800           0   0.00000     -0.301140E-02
      4453 MEMB     37       OYPE     H7S      HAL2     0.900000E-01   1.00800           0   0.00000     -0.301140E-02
      4454 MEMB     37       OYPE     C28      CTL2    -0.180000       12.0110           0   0.00000     -0.301140E-02
      4455 MEMB     37       OYPE     H8R      HAL2     0.900000E-01   1.00800           0   0.00000     -0.301140E-02
      4456 MEMB     37       OYPE     H8S      HAL2     0.900000E-01   1.00800           0   0.00000     -0.301140E-02
      4457 MEMB     37       OYPE     C29      CEL1    -0.150000       12.0110           0   0.00000     -0.301140E-02
      4458 MEMB     37       OYPE     H9R      HEL1     0.150000       1.00800           0   0.00000     -0.301140E-02
      4459 MEMB     37       OYPE     C210     CEL1    -0.150000       12.0110           0   0.00000     -0.301140E-02
      4460 MEMB     37       OYPE     H10R     HEL1     0.150000       1.00800           0   0.00000     -0.301140E-02
      4461 MEMB     37       OYPE     C211     CTL2    -0.180000       12.0110           0   0.00000     -0.301140E-02
      4462 MEMB     37       OYPE     H11R     HAL2     0.900000E-01   1.00800           0   0.00000     -0.301140E-02
      4463 MEMB     37       OYPE     H11S     HAL2     0.900000E-01   1.00800           0   0.00000     -0.301140E-02
      4464 MEMB     37       OYPE     C212     CTL2    -0.180000       12.0110           0   0.00000     -0.301140E-02
      4465 MEMB     37       OYPE     H12R     HAL2     0.900000E-01   1.00800           0   0.00000     -0.301140E-02
      4466 MEMB     37       OYPE     H12S     HAL2     0.900000E-01   1.00800           0   0.00000     -0.301140E-02
      4467 MEMB     37       OYPE     C213     CTL2    -0.180000       12.0110           0   0.00000     -0.301140E-02
      4468 MEMB     37       OYPE     H13R     HAL2     0.900000E-01   1.00800           0   0.00000     -0.301140E-02
      4469 MEMB     37       OYPE     H13S     HAL2     0.900000E-01   1.00800           0   0.00000     -0.301140E-02
      4470 MEMB     37       OYPE     C214     CTL2    -0.180000       12.0110           0   0.00000     -0.301140E-02
      4471 MEMB     37       OYPE     H14R     HAL2     0.900000E-01   1.00800           0   0.00000     -0.301140E-02
      4472 MEMB     37       OYPE     H14S     HAL2     0.900000E-01   1.00800           0   0.00000     -0.301140E-02
      4473 MEMB     37       OYPE     C215     CTL2    -0.180000       12.0110           0   0.00000     -0.301140E-02
      4474 MEMB     37       OYPE     H15R     HAL2     0.900000E-01   1.00800           0   0.00000     -0.301140E-02
      4475 MEMB     37       OYPE     H15S     HAL2     0.900000E-01   1.00800           0   0.00000     -0.301140E-02
      4476 MEMB     37       OYPE     C216     CTL3    -0.270000       12.0110           0   0.00000     -0.301140E-02
      4477 MEMB     37       OYPE     H16R     HAL3     0.900000E-01   1.00800           0   0.00000     -0.301140E-02
      4478 MEMB     37       OYPE     H16S     HAL3     0.900000E-01   1.00800           0   0.00000     -0.301140E-02
      4479 MEMB     37       OYPE     H16T     HAL3     0.900000E-01   1.00800           0   0.00000     -0.301140E-02
      4480 MEMB     37       OYPE     C33      CTL2    -0.180000       12.0110           0   0.00000     -0.301140E-02
      4481 MEMB     37       OYPE     H3X      HAL2     0.900000E-01   1.00800           0   0.00000     -0.301140E-02
      4482 MEMB     37       OYPE     H3Y      HAL2     0.900000E-01   1.00800           0   0.00000     -0.301140E-02
      4483 MEMB     37       OYPE     C34      CTL2    -0.180000       12.0110           0   0.00000     -0.301140E-02
      4484 MEMB     37       OYPE     H4X      HAL2     0.900000E-01   1.00800           0   0.00000     -0.301140E-02
      4485 MEMB     37       OYPE     H4Y      HAL2     0.900000E-01   1.00800           0   0.00000     -0.301140E-02
      4486 MEMB     37       OYPE     C35      CTL2    -0.180000       12.0110           0   0.00000     -0.301140E-02
      4487 MEMB     37       OYPE     H5X      HAL2     0.900000E-01   1.00800           0   0.00000     -0.301140E-02
      4488 MEMB     37       OYPE     H5Y      HAL2     0.900000E-01   1.00800           0   0.00000     -0.301140E-02
      4489 MEMB     37       OYPE     C36      CTL2    -0.180000       12.0110           0   0.00000     -0.301140E-02
      4490 MEMB     37       OYPE     H6X      HAL2     0.900000E-01   1.00800           0   0.00000     -0.301140E-02
      4491 MEMB     37       OYPE     H6Y      HAL2     0.900000E-01   1.00800           0   0.00000     -0.301140E-02
      4492 MEMB     37       OYPE     C37      CTL2    -0.180000       12.0110           0   0.00000     -0.301140E-02
      4493 MEMB     37       OYPE     H7X      HAL2     0.900000E-01   1.00800           0   0.00000     -0.301140E-02
      4494 MEMB     37       OYPE     H7Y      HAL2     0.900000E-01   1.00800           0   0.00000     -0.301140E-02
      4495 MEMB     37       OYPE     C38      CTL2    -0.180000       12.0110           0   0.00000     -0.301140E-02
      4496 MEMB     37       OYPE     H8X      HAL2     0.900000E-01   1.00800           0   0.00000     -0.301140E-02
      4497 MEMB     37       OYPE     H8Y      HAL2     0.900000E-01   1.00800           0   0.00000     -0.301140E-02
      4498 MEMB     37       OYPE     C39      CEL1    -0.150000       12.0110           0   0.00000     -0.301140E-02
      4499 MEMB     37       OYPE     H9X      HEL1     0.150000       1.00800           0   0.00000     -0.301140E-02
      4500 MEMB     37       OYPE     C310     CEL1    -0.150000       12.0110           0   0.00000     -0.301140E-02
      4501 MEMB     37       OYPE     H10X     HEL1     0.150000       1.00800           0   0.00000     -0.301140E-02
      4502 MEMB     37       OYPE     C311     CTL2    -0.180000       12.0110           0   0.00000     -0.301140E-02
      4503 MEMB     37       OYPE     H11X     HAL2     0.900000E-01   1.00800           0   0.00000     -0.301140E-02
      4504 MEMB     37       OYPE     H11Y     HAL2     0.900000E-01   1.00800           0   0.00000     -0.301140E-02
      4505 MEMB     37       OYPE     C312     CTL2    -0.180000       12.0110           0   0.00000     -0.301140E-02
      4506 MEMB     37       OYPE     H12X     HAL2     0.900000E-01   1.00800           0   0.00000     -0.301140E-02
      4507 MEMB     37       OYPE     H12Y     HAL2     0.900000E-01   1.00800           0   0.00000     -0.301140E-02
      4508 MEMB     37       OYPE     C313     CTL2    -0.180000       12.0110           0   0.00000     -0.301140E-02
      4509 MEMB     37       OYPE     H13X     HAL2     0.900000E-01   1.00800           0   0.00000     -0.301140E-02
      4510 MEMB     37       OYPE     H13Y     HAL2     0.900000E-01   1.00800           0   0.00000     -0.301140E-02
      4511 MEMB     37       OYPE     C314     CTL2    -0.180000       12.0110           0   0.00000     -0.301140E-02
      4512 MEMB     37       OYPE     H14X     HAL2     0.900000E-01   1.00800           0   0.00000     -0.301140E-02
      4513 MEMB     37       OYPE     H14Y     HAL2     0.900000E-01   1.00800           0   0.00000     -0.301140E-02
      4514 MEMB     37       OYPE     C315     CTL2    -0.180000       12.0110           0   0.00000     -0.301140E-02
      4515 MEMB     37       OYPE     H15X     HAL2     0.900000E-01   1.00800           0   0.00000     -0.301140E-02
      4516 MEMB     37       OYPE     H15Y     HAL2     0.900000E-01   1.00800           0   0.00000     -0.301140E-02
      4517 MEMB     37       OYPE     C316     CTL2    -0.180000       12.0110           0   0.00000     -0.301140E-02
      4518 MEMB     37       OYPE     H16X     HAL2     0.900000E-01   1.00800           0   0.00000     -0.301140E-02
      4519 MEMB     37       OYPE     H16Y     HAL2     0.900000E-01   1.00800           0   0.00000     -0.301140E-02
      4520 MEMB     37       OYPE     C317     CTL2    -0.180000       12.0110           0   0.00000     -0.301140E-02
      4521 MEMB     37       OYPE     H17X     HAL2     0.900000E-01   1.00800           0   0.00000     -0.301140E-02
      4522 MEMB     37       OYPE     H17Y     HAL2     0.900000E-01   1.00800           0   0.00000     -0.301140E-02
      4523 MEMB     37       OYPE     C318     CTL3    -0.270000       12.0110           0   0.00000     -0.301140E-02
      4524 MEMB     37       OYPE     H18X     HAL3     0.900000E-01   1.00800           0   0.00000     -0.301140E-02
      4525 MEMB     37       OYPE     H18Y     HAL3     0.900000E-01   1.00800           0   0.00000     -0.301140E-02
      4526 MEMB     37       OYPE     H18Z     HAL3     0.900000E-01   1.00800           0   0.00000     -0.301140E-02
      4527 MEMB     38       PMPE     N        NH3L    -0.300000       14.0070           0   0.00000     -0.301140E-02
      4528 MEMB     38       PMPE     HN1      HCL      0.330000       1.00800           0   0.00000     -0.301140E-02
      4529 MEMB     38       PMPE     HN2      HCL      0.330000       1.00800           0   0.00000     -0.301140E-02
      4530 MEMB     38       PMPE     HN3      HCL      0.330000       1.00800           0   0.00000     -0.301140E-02
      4531 MEMB     38       PMPE     C12      CTL2     0.130000       12.0110           0   0.00000     -0.301140E-02
      4532 MEMB     38       PMPE     H12A     HAL2     0.900000E-01   1.00800           0   0.00000     -0.301140E-02
      4533 MEMB     38       PMPE     H12B     HAL2     0.900000E-01   1.00800           0   0.00000     -0.301140E-02
      4534 MEMB     38       PMPE     C11      CTL2    -0.800000E-01   12.0110           0   0.00000     -0.301140E-02
      4535 MEMB     38       PMPE     H11A     HAL2     0.900000E-01   1.00800           0   0.00000     -0.301140E-02
      4536 MEMB     38       PMPE     H11B     HAL2     0.900000E-01   1.00800           0   0.00000     -0.301140E-02
      4537 MEMB     38       PMPE     P        PL        1.50000       30.9740           0   0.00000     -0.301140E-02
      4538 MEMB     38       PMPE     O13      O2L     -0.780000       15.9994           0   0.00000     -0.301140E-02
      4539 MEMB     38       PMPE     O14      O2L     -0.780000       15.9994           0   0.00000     -0.301140E-02
      4540 MEMB     38       PMPE     O11      OSLP    -0.570000       15.9994           0   0.00000     -0.301140E-02
      4541 MEMB     38       PMPE     O12      OSLP    -0.570000       15.9994           0   0.00000     -0.301140E-02
      4542 MEMB     38       PMPE     C1       CTL2    -0.800000E-01   12.0110           0   0.00000     -0.301140E-02
      4543 MEMB     38       PMPE     HA       HAL2     0.900000E-01   1.00800           0   0.00000     -0.301140E-02
      4544 MEMB     38       PMPE     HB       HAL2     0.900000E-01   1.00800           0   0.00000     -0.301140E-02
      4545 MEMB     38       PMPE     C2       CTL1     0.170000       12.0110           0   0.00000     -0.301140E-02
      4546 MEMB     38       PMPE     HS       HAL1     0.900000E-01   1.00800           0   0.00000     -0.301140E-02
      4547 MEMB     38       PMPE     O21      OSL     -0.490000       15.9994           0   0.00000     -0.301140E-02
      4548 MEMB     38       PMPE     C21      CL       0.900000       12.0110           0   0.00000     -0.301140E-02
      4549 MEMB     38       PMPE     O22      OBL     -0.630000       15.9994           0   0.00000     -0.301140E-02
      4550 MEMB     38       PMPE     C22      CTL2    -0.220000       12.0110           0   0.00000     -0.301140E-02
      4551 MEMB     38       PMPE     H2R      HAL2     0.900000E-01   1.00800           0   0.00000     -0.301140E-02
      4552 MEMB     38       PMPE     H2S      HAL2     0.900000E-01   1.00800           0   0.00000     -0.301140E-02
      4553 MEMB     38       PMPE     C3       CTL2     0.800000E-01   12.0110           0   0.00000     -0.301140E-02
      4554 MEMB     38       PMPE     HX       HAL2     0.900000E-01   1.00800           0   0.00000     -0.301140E-02
      4555 MEMB     38       PMPE     HY       HAL2     0.900000E-01   1.00800           0   0.00000     -0.301140E-02
      4556 MEMB     38       PMPE     O31      OSL     -0.490000       15.9994           0   0.00000     -0.301140E-02
      4557 MEMB     38       PMPE     C31      CL       0.900000       12.0110           0   0.00000     -0.301140E-02
      4558 MEMB     38       PMPE     O32      OBL     -0.630000       15.9994           0   0.00000     -0.301140E-02
      4559 MEMB     38       PMPE     C32      CTL2    -0.220000       12.0110           0   0.00000     -0.301140E-02
      4560 MEMB     38       PMPE     H2X      HAL2     0.900000E-01   1.00800           0   0.00000     -0.301140E-02
      4561 MEMB     38       PMPE     H2Y      HAL2     0.900000E-01   1.00800           0   0.00000     -0.301140E-02
      4562 MEMB     38       PMPE     C23      CTL2    -0.180000       12.0110           0   0.00000     -0.301140E-02
      4563 MEMB     38       PMPE     H3R      HAL2     0.900000E-01   1.00800           0   0.00000     -0.301140E-02
      4564 MEMB     38       PMPE     H3S      HAL2     0.900000E-01   1.00800           0   0.00000     -0.301140E-02
      4565 MEMB     38       PMPE     C24      CTL2    -0.180000       12.0110           0   0.00000     -0.301140E-02
      4566 MEMB     38       PMPE     H4R      HAL2     0.900000E-01   1.00800           0   0.00000     -0.301140E-02
      4567 MEMB     38       PMPE     H4S      HAL2     0.900000E-01   1.00800           0   0.00000     -0.301140E-02
      4568 MEMB     38       PMPE     C25      CTL2    -0.180000       12.0110           0   0.00000     -0.301140E-02
      4569 MEMB     38       PMPE     H5R      HAL2     0.900000E-01   1.00800           0   0.00000     -0.301140E-02
      4570 MEMB     38       PMPE     H5S      HAL2     0.900000E-01   1.00800           0   0.00000     -0.301140E-02
      4571 MEMB     38       PMPE     C26      CTL2    -0.180000       12.0110           0   0.00000     -0.301140E-02
      4572 MEMB     38       PMPE     H6R      HAL2     0.900000E-01   1.00800           0   0.00000     -0.301140E-02
      4573 MEMB     38       PMPE     H6S      HAL2     0.900000E-01   1.00800           0   0.00000     -0.301140E-02
      4574 MEMB     38       PMPE     C27      CTL2    -0.180000       12.0110           0   0.00000     -0.301140E-02
      4575 MEMB     38       PMPE     H7R      HAL2     0.900000E-01   1.00800           0   0.00000     -0.301140E-02
      4576 MEMB     38       PMPE     H7S      HAL2     0.900000E-01   1.00800           0   0.00000     -0.301140E-02
      4577 MEMB     38       PMPE     C28      CTL2    -0.180000       12.0110           0   0.00000     -0.301140E-02
      4578 MEMB     38       PMPE     H8R      HAL2     0.900000E-01   1.00800           0   0.00000     -0.301140E-02
      4579 MEMB     38       PMPE     H8S      HAL2     0.900000E-01   1.00800           0   0.00000     -0.301140E-02
      4580 MEMB     38       PMPE     C29      CG3RC1  -0.900000E-01   12.0110           0   0.00000     -0.301140E-02
      4581 MEMB     38       PMPE     H9R      HGA1     0.900000E-01   1.00800           0   0.00000     -0.301140E-02
      4582 MEMB     38       PMPE     C217     CG3C31  -0.180000       12.0110           0   0.00000     -0.301140E-02
      4583 MEMB     38       PMPE     H17R     HGA2     0.900000E-01   1.00800           0   0.00000     -0.301140E-02
      4584 MEMB     38       PMPE     H17S     HGA2     0.900000E-01   1.00800           0   0.00000     -0.301140E-02
      4585 MEMB     38       PMPE     C210     CG3RC1  -0.900000E-01   12.0110           0   0.00000     -0.301140E-02
      4586 MEMB     38       PMPE     H10R     HGA1     0.900000E-01   1.00800           0   0.00000     -0.301140E-02
      4587 MEMB     38       PMPE     C211     CTL2    -0.180000       12.0110           0   0.00000     -0.301140E-02
      4588 MEMB     38       PMPE     H11R     HAL2     0.900000E-01   1.00800           0   0.00000     -0.301140E-02
      4589 MEMB     38       PMPE     H11S     HAL2     0.900000E-01   1.00800           0   0.00000     -0.301140E-02
      4590 MEMB     38       PMPE     C212     CTL2    -0.180000       12.0110           0   0.00000     -0.301140E-02
      4591 MEMB     38       PMPE     H12R     HAL2     0.900000E-01   1.00800           0   0.00000     -0.301140E-02
      4592 MEMB     38       PMPE     H12S     HAL2     0.900000E-01   1.00800           0   0.00000     -0.301140E-02
      4593 MEMB     38       PMPE     C213     CTL2    -0.180000       12.0110           0   0.00000     -0.301140E-02
      4594 MEMB     38       PMPE     H13R     HAL2     0.900000E-01   1.00800           0   0.00000     -0.301140E-02
      4595 MEMB     38       PMPE     H13S     HAL2     0.900000E-01   1.00800           0   0.00000     -0.301140E-02
      4596 MEMB     38       PMPE     C214     CTL2    -0.180000       12.0110           0   0.00000     -0.301140E-02
      4597 MEMB     38       PMPE     H14R     HAL2     0.900000E-01   1.00800           0   0.00000     -0.301140E-02
      4598 MEMB     38       PMPE     H14S     HAL2     0.900000E-01   1.00800           0   0.00000     -0.301140E-02
      4599 MEMB     38       PMPE     C215     CTL2    -0.180000       12.0110           0   0.00000     -0.301140E-02
      4600 MEMB     38       PMPE     H15R     HAL2     0.900000E-01   1.00800           0   0.00000     -0.301140E-02
      4601 MEMB     38       PMPE     H15S     HAL2     0.900000E-01   1.00800           0   0.00000     -0.301140E-02
      4602 MEMB     38       PMPE     C216     CTL3    -0.270000       12.0110           0   0.00000     -0.301140E-02
      4603 MEMB     38       PMPE     H16R     HAL3     0.900000E-01   1.00800           0   0.00000     -0.301140E-02
      4604 MEMB     38       PMPE     H16S     HAL3     0.900000E-01   1.00800           0   0.00000     -0.301140E-02
      4605 MEMB     38       PMPE     H16T     HAL3     0.900000E-01   1.00800           0   0.00000     -0.301140E-02
      4606 MEMB     38       PMPE     C33      CTL2    -0.180000       12.0110           0   0.00000     -0.301140E-02
      4607 MEMB     38       PMPE     H3X      HAL2     0.900000E-01   1.00800           0   0.00000     -0.301140E-02
      4608 MEMB     38       PMPE     H3Y      HAL2     0.900000E-01   1.00800           0   0.00000     -0.301140E-02
      4609 MEMB     38       PMPE     C34      CTL2    -0.180000       12.0110           0   0.00000     -0.301140E-02
      4610 MEMB     38       PMPE     H4X      HAL2     0.900000E-01   1.00800           0   0.00000     -0.301140E-02
      4611 MEMB     38       PMPE     H4Y      HAL2     0.900000E-01   1.00800           0   0.00000     -0.301140E-02
      4612 MEMB     38       PMPE     C35      CTL2    -0.180000       12.0110           0   0.00000     -0.301140E-02
      4613 MEMB     38       PMPE     H5X      HAL2     0.900000E-01   1.00800           0   0.00000     -0.301140E-02
      4614 MEMB     38       PMPE     H5Y      HAL2     0.900000E-01   1.00800           0   0.00000     -0.301140E-02
      4615 MEMB     38       PMPE     C36      CTL2    -0.180000       12.0110           0   0.00000     -0.301140E-02
      4616 MEMB     38       PMPE     H6X      HAL2     0.900000E-01   1.00800           0   0.00000     -0.301140E-02
      4617 MEMB     38       PMPE     H6Y      HAL2     0.900000E-01   1.00800           0   0.00000     -0.301140E-02
      4618 MEMB     38       PMPE     C37      CTL2    -0.180000       12.0110           0   0.00000     -0.301140E-02
      4619 MEMB     38       PMPE     H7X      HAL2     0.900000E-01   1.00800           0   0.00000     -0.301140E-02
      4620 MEMB     38       PMPE     H7Y      HAL2     0.900000E-01   1.00800           0   0.00000     -0.301140E-02
      4621 MEMB     38       PMPE     C38      CTL2    -0.180000       12.0110           0   0.00000     -0.301140E-02
      4622 MEMB     38       PMPE     H8X      HAL2     0.900000E-01   1.00800           0   0.00000     -0.301140E-02
      4623 MEMB     38       PMPE     H8Y      HAL2     0.900000E-01   1.00800           0   0.00000     -0.301140E-02
      4624 MEMB     38       PMPE     C39      CTL2    -0.180000       12.0110           0   0.00000     -0.301140E-02
      4625 MEMB     38       PMPE     H9X      HAL2     0.900000E-01   1.00800           0   0.00000     -0.301140E-02
      4626 MEMB     38       PMPE     H9Y      HAL2     0.900000E-01   1.00800           0   0.00000     -0.301140E-02
      4627 MEMB     38       PMPE     C310     CTL2    -0.180000       12.0110           0   0.00000     -0.301140E-02
      4628 MEMB     38       PMPE     H10X     HAL2     0.900000E-01   1.00800           0   0.00000     -0.301140E-02
      4629 MEMB     38       PMPE     H10Y     HAL2     0.900000E-01   1.00800           0   0.00000     -0.301140E-02
      4630 MEMB     38       PMPE     C311     CTL2    -0.180000       12.0110           0   0.00000     -0.301140E-02
      4631 MEMB     38       PMPE     H11X     HAL2     0.900000E-01   1.00800           0   0.00000     -0.301140E-02
      4632 MEMB     38       PMPE     H11Y     HAL2     0.900000E-01   1.00800           0   0.00000     -0.301140E-02
      4633 MEMB     38       PMPE     C312     CTL2    -0.180000       12.0110           0   0.00000     -0.301140E-02
      4634 MEMB     38       PMPE     H12X     HAL2     0.900000E-01   1.00800           0   0.00000     -0.301140E-02
      4635 MEMB     38       PMPE     H12Y     HAL2     0.900000E-01   1.00800           0   0.00000     -0.301140E-02
      4636 MEMB     38       PMPE     C313     CTL2    -0.180000       12.0110           0   0.00000     -0.301140E-02
      4637 MEMB     38       PMPE     H13X     HAL2     0.900000E-01   1.00800           0   0.00000     -0.301140E-02
      4638 MEMB     38       PMPE     H13Y     HAL2     0.900000E-01   1.00800           0   0.00000     -0.301140E-02
      4639 MEMB     38       PMPE     C314     CTL2    -0.180000       12.0110           0   0.00000     -0.301140E-02
      4640 MEMB     38       PMPE     H14X     HAL2     0.900000E-01   1.00800           0   0.00000     -0.301140E-02
      4641 MEMB     38       PMPE     H14Y     HAL2     0.900000E-01   1.00800           0   0.00000     -0.301140E-02
      4642 MEMB     38       PMPE     C315     CTL2    -0.180000       12.0110           0   0.00000     -0.301140E-02
      4643 MEMB     38       PMPE     H15X     HAL2     0.900000E-01   1.00800           0   0.00000     -0.301140E-02
      4644 MEMB     38       PMPE     H15Y     HAL2     0.900000E-01   1.00800           0   0.00000     -0.301140E-02
      4645 MEMB     38       PMPE     C316     CTL3    -0.270000       12.0110           0   0.00000     -0.301140E-02
      4646 MEMB     38       PMPE     H16X     HAL3     0.900000E-01   1.00800           0   0.00000     -0.301140E-02
      4647 MEMB     38       PMPE     H16Y     HAL3     0.900000E-01   1.00800           0   0.00000     -0.301140E-02
      4648 MEMB     38       PMPE     H16Z     HAL3     0.900000E-01   1.00800           0   0.00000     -0.301140E-02
      4649 MEMB     39       PMPE     N        NH3L    -0.300000       14.0070           0   0.00000     -0.301140E-02
      4650 MEMB     39       PMPE     HN1      HCL      0.330000       1.00800           0   0.00000     -0.301140E-02
      4651 MEMB     39       PMPE     HN2      HCL      0.330000       1.00800           0   0.00000     -0.301140E-02
      4652 MEMB     39       PMPE     HN3      HCL      0.330000       1.00800           0   0.00000     -0.301140E-02
      4653 MEMB     39       PMPE     C12      CTL2     0.130000       12.0110           0   0.00000     -0.301140E-02
      4654 MEMB     39       PMPE     H12A     HAL2     0.900000E-01   1.00800           0   0.00000     -0.301140E-02
      4655 MEMB     39       PMPE     H12B     HAL2     0.900000E-01   1.00800           0   0.00000     -0.301140E-02
      4656 MEMB     39       PMPE     C11      CTL2    -0.800000E-01   12.0110           0   0.00000     -0.301140E-02
      4657 MEMB     39       PMPE     H11A     HAL2     0.900000E-01   1.00800           0   0.00000     -0.301140E-02
      4658 MEMB     39       PMPE     H11B     HAL2     0.900000E-01   1.00800           0   0.00000     -0.301140E-02
      4659 MEMB     39       PMPE     P        PL        1.50000       30.9740           0   0.00000     -0.301140E-02
      4660 MEMB     39       PMPE     O13      O2L     -0.780000       15.9994           0   0.00000     -0.301140E-02
      4661 MEMB     39       PMPE     O14      O2L     -0.780000       15.9994           0   0.00000     -0.301140E-02
      4662 MEMB     39       PMPE     O11      OSLP    -0.570000       15.9994           0   0.00000     -0.301140E-02
      4663 MEMB     39       PMPE     O12      OSLP    -0.570000       15.9994           0   0.00000     -0.301140E-02
      4664 MEMB     39       PMPE     C1       CTL2    -0.800000E-01   12.0110           0   0.00000     -0.301140E-02
      4665 MEMB     39       PMPE     HA       HAL2     0.900000E-01   1.00800           0   0.00000     -0.301140E-02
      4666 MEMB     39       PMPE     HB       HAL2     0.900000E-01   1.00800           0   0.00000     -0.301140E-02
      4667 MEMB     39       PMPE     C2       CTL1     0.170000       12.0110           0   0.00000     -0.301140E-02
      4668 MEMB     39       PMPE     HS       HAL1     0.900000E-01   1.00800           0   0.00000     -0.301140E-02
      4669 MEMB     39       PMPE     O21      OSL     -0.490000       15.9994           0   0.00000     -0.301140E-02
      4670 MEMB     39       PMPE     C21      CL       0.900000       12.0110           0   0.00000     -0.301140E-02
      4671 MEMB     39       PMPE     O22      OBL     -0.630000       15.9994           0   0.00000     -0.301140E-02
      4672 MEMB     39       PMPE     C22      CTL2    -0.220000       12.0110           0   0.00000     -0.301140E-02
      4673 MEMB     39       PMPE     H2R      HAL2     0.900000E-01   1.00800           0   0.00000     -0.301140E-02
      4674 MEMB     39       PMPE     H2S      HAL2     0.900000E-01   1.00800           0   0.00000     -0.301140E-02
      4675 MEMB     39       PMPE     C3       CTL2     0.800000E-01   12.0110           0   0.00000     -0.301140E-02
      4676 MEMB     39       PMPE     HX       HAL2     0.900000E-01   1.00800           0   0.00000     -0.301140E-02
      4677 MEMB     39       PMPE     HY       HAL2     0.900000E-01   1.00800           0   0.00000     -0.301140E-02
      4678 MEMB     39       PMPE     O31      OSL     -0.490000       15.9994           0   0.00000     -0.301140E-02
      4679 MEMB     39       PMPE     C31      CL       0.900000       12.0110           0   0.00000     -0.301140E-02
      4680 MEMB     39       PMPE     O32      OBL     -0.630000       15.9994           0   0.00000     -0.301140E-02
      4681 MEMB     39       PMPE     C32      CTL2    -0.220000       12.0110           0   0.00000     -0.301140E-02
      4682 MEMB     39       PMPE     H2X      HAL2     0.900000E-01   1.00800           0   0.00000     -0.301140E-02
      4683 MEMB     39       PMPE     H2Y      HAL2     0.900000E-01   1.00800           0   0.00000     -0.301140E-02
      4684 MEMB     39       PMPE     C23      CTL2    -0.180000       12.0110           0   0.00000     -0.301140E-02
      4685 MEMB     39       PMPE     H3R      HAL2     0.900000E-01   1.00800           0   0.00000     -0.301140E-02
      4686 MEMB     39       PMPE     H3S      HAL2     0.900000E-01   1.00800           0   0.00000     -0.301140E-02
      4687 MEMB     39       PMPE     C24      CTL2    -0.180000       12.0110           0   0.00000     -0.301140E-02
      4688 MEMB     39       PMPE     H4R      HAL2     0.900000E-01   1.00800           0   0.00000     -0.301140E-02
      4689 MEMB     39       PMPE     H4S      HAL2     0.900000E-01   1.00800           0   0.00000     -0.301140E-02
      4690 MEMB     39       PMPE     C25      CTL2    -0.180000       12.0110           0   0.00000     -0.301140E-02
      4691 MEMB     39       PMPE     H5R      HAL2     0.900000E-01   1.00800           0   0.00000     -0.301140E-02
      4692 MEMB     39       PMPE     H5S      HAL2     0.900000E-01   1.00800           0   0.00000     -0.301140E-02
      4693 MEMB     39       PMPE     C26      CTL2    -0.180000       12.0110           0   0.00000     -0.301140E-02
      4694 MEMB     39       PMPE     H6R      HAL2     0.900000E-01   1.00800           0   0.00000     -0.301140E-02
      4695 MEMB     39       PMPE     H6S      HAL2     0.900000E-01   1.00800           0   0.00000     -0.301140E-02
      4696 MEMB     39       PMPE     C27      CTL2    -0.180000       12.0110           0   0.00000     -0.301140E-02
      4697 MEMB     39       PMPE     H7R      HAL2     0.900000E-01   1.00800           0   0.00000     -0.301140E-02
      4698 MEMB     39       PMPE     H7S      HAL2     0.900000E-01   1.00800           0   0.00000     -0.301140E-02
      4699 MEMB     39       PMPE     C28      CTL2    -0.180000       12.0110           0   0.00000     -0.301140E-02
      4700 MEMB     39       PMPE     H8R      HAL2     0.900000E-01   1.00800           0   0.00000     -0.301140E-02
      4701 MEMB     39       PMPE     H8S      HAL2     0.900000E-01   1.00800           0   0.00000     -0.301140E-02
      4702 MEMB     39       PMPE     C29      CG3RC1  -0.900000E-01   12.0110           0   0.00000     -0.301140E-02
      4703 MEMB     39       PMPE     H9R      HGA1     0.900000E-01   1.00800           0   0.00000     -0.301140E-02
      4704 MEMB     39       PMPE     C217     CG3C31  -0.180000       12.0110           0   0.00000     -0.301140E-02
      4705 MEMB     39       PMPE     H17R     HGA2     0.900000E-01   1.00800           0   0.00000     -0.301140E-02
      4706 MEMB     39       PMPE     H17S     HGA2     0.900000E-01   1.00800           0   0.00000     -0.301140E-02
      4707 MEMB     39       PMPE     C210     CG3RC1  -0.900000E-01   12.0110           0   0.00000     -0.301140E-02
      4708 MEMB     39       PMPE     H10R     HGA1     0.900000E-01   1.00800           0   0.00000     -0.301140E-02
      4709 MEMB     39       PMPE     C211     CTL2    -0.180000       12.0110           0   0.00000     -0.301140E-02
      4710 MEMB     39       PMPE     H11R     HAL2     0.900000E-01   1.00800           0   0.00000     -0.301140E-02
      4711 MEMB     39       PMPE     H11S     HAL2     0.900000E-01   1.00800           0   0.00000     -0.301140E-02
      4712 MEMB     39       PMPE     C212     CTL2    -0.180000       12.0110           0   0.00000     -0.301140E-02
      4713 MEMB     39       PMPE     H12R     HAL2     0.900000E-01   1.00800           0   0.00000     -0.301140E-02
      4714 MEMB     39       PMPE     H12S     HAL2     0.900000E-01   1.00800           0   0.00000     -0.301140E-02
      4715 MEMB     39       PMPE     C213     CTL2    -0.180000       12.0110           0   0.00000     -0.301140E-02
      4716 MEMB     39       PMPE     H13R     HAL2     0.900000E-01   1.00800           0   0.00000     -0.301140E-02
      4717 MEMB     39       PMPE     H13S     HAL2     0.900000E-01   1.00800           0   0.00000     -0.301140E-02
      4718 MEMB     39       PMPE     C214     CTL2    -0.180000       12.0110           0   0.00000     -0.301140E-02
      4719 MEMB     39       PMPE     H14R     HAL2     0.900000E-01   1.00800           0   0.00000     -0.301140E-02
      4720 MEMB     39       PMPE     H14S     HAL2     0.900000E-01   1.00800           0   0.00000     -0.301140E-02
      4721 MEMB     39       PMPE     C215     CTL2    -0.180000       12.0110           0   0.00000     -0.301140E-02
      4722 MEMB     39       PMPE     H15R     HAL2     0.900000E-01   1.00800           0   0.00000     -0.301140E-02
      4723 MEMB     39       PMPE     H15S     HAL2     0.900000E-01   1.00800           0   0.00000     -0.301140E-02
      4724 MEMB     39       PMPE     C216     CTL3    -0.270000       12.0110           0   0.00000     -0.301140E-02
      4725 MEMB     39       PMPE     H16R     HAL3     0.900000E-01   1.00800           0   0.00000     -0.301140E-02
      4726 MEMB     39       PMPE     H16S     HAL3     0.900000E-01   1.00800           0   0.00000     -0.301140E-02
      4727 MEMB     39       PMPE     H16T     HAL3     0.900000E-01   1.00800           0   0.00000     -0.301140E-02
      4728 MEMB     39       PMPE     C33      CTL2    -0.180000       12.0110           0   0.00000     -0.301140E-02
      4729 MEMB     39       PMPE     H3X      HAL2     0.900000E-01   1.00800           0   0.00000     -0.301140E-02
      4730 MEMB     39       PMPE     H3Y      HAL2     0.900000E-01   1.00800           0   0.00000     -0.301140E-02
      4731 MEMB     39       PMPE     C34      CTL2    -0.180000       12.0110           0   0.00000     -0.301140E-02
      4732 MEMB     39       PMPE     H4X      HAL2     0.900000E-01   1.00800           0   0.00000     -0.301140E-02
      4733 MEMB     39       PMPE     H4Y      HAL2     0.900000E-01   1.00800           0   0.00000     -0.301140E-02
      4734 MEMB     39       PMPE     C35      CTL2    -0.180000       12.0110           0   0.00000     -0.301140E-02
      4735 MEMB     39       PMPE     H5X      HAL2     0.900000E-01   1.00800           0   0.00000     -0.301140E-02
      4736 MEMB     39       PMPE     H5Y      HAL2     0.900000E-01   1.00800           0   0.00000     -0.301140E-02
      4737 MEMB     39       PMPE     C36      CTL2    -0.180000       12.0110           0   0.00000     -0.301140E-02
      4738 MEMB     39       PMPE     H6X      HAL2     0.900000E-01   1.00800           0   0.00000     -0.301140E-02
      4739 MEMB     39       PMPE     H6Y      HAL2     0.900000E-01   1.00800           0   0.00000     -0.301140E-02
      4740 MEMB     39       PMPE     C37      CTL2    -0.180000       12.0110           0   0.00000     -0.301140E-02
      4741 MEMB     39       PMPE     H7X      HAL2     0.900000E-01   1.00800           0   0.00000     -0.301140E-02
      4742 MEMB     39       PMPE     H7Y      HAL2     0.900000E-01   1.00800           0   0.00000     -0.301140E-02
      4743 MEMB     39       PMPE     C38      CTL2    -0.180000       12.0110           0   0.00000     -0.301140E-02
      4744 MEMB     39       PMPE     H8X      HAL2     0.900000E-01   1.00800           0   0.00000     -0.301140E-02
      4745 MEMB     39       PMPE     H8Y      HAL2     0.900000E-01   1.00800           0   0.00000     -0.301140E-02
      4746 MEMB     39       PMPE     C39      CTL2    -0.180000       12.0110           0   0.00000     -0.301140E-02
      4747 MEMB     39       PMPE     H9X      HAL2     0.900000E-01   1.00800           0   0.00000     -0.301140E-02
      4748 MEMB     39       PMPE     H9Y      HAL2     0.900000E-01   1.00800           0   0.00000     -0.301140E-02
      4749 MEMB     39       PMPE     C310     CTL2    -0.180000       12.0110           0   0.00000     -0.301140E-02
      4750 MEMB     39       PMPE     H10X     HAL2     0.900000E-01   1.00800           0   0.00000     -0.301140E-02
      4751 MEMB     39       PMPE     H10Y     HAL2     0.900000E-01   1.00800           0   0.00000     -0.301140E-02
      4752 MEMB     39       PMPE     C311     CTL2    -0.180000       12.0110           0   0.00000     -0.301140E-02
      4753 MEMB     39       PMPE     H11X     HAL2     0.900000E-01   1.00800           0   0.00000     -0.301140E-02
      4754 MEMB     39       PMPE     H11Y     HAL2     0.900000E-01   1.00800           0   0.00000     -0.301140E-02
      4755 MEMB     39       PMPE     C312     CTL2    -0.180000       12.0110           0   0.00000     -0.301140E-02
      4756 MEMB     39       PMPE     H12X     HAL2     0.900000E-01   1.00800           0   0.00000     -0.301140E-02
      4757 MEMB     39       PMPE     H12Y     HAL2     0.900000E-01   1.00800           0   0.00000     -0.301140E-02
      4758 MEMB     39       PMPE     C313     CTL2    -0.180000       12.0110           0   0.00000     -0.301140E-02
      4759 MEMB     39       PMPE     H13X     HAL2     0.900000E-01   1.00800           0   0.00000     -0.301140E-02
      4760 MEMB     39       PMPE     H13Y     HAL2     0.900000E-01   1.00800           0   0.00000     -0.301140E-02
      4761 MEMB     39       PMPE     C314     CTL2    -0.180000       12.0110           0   0.00000     -0.301140E-02
      4762 MEMB     39       PMPE     H14X     HAL2     0.900000E-01   1.00800           0   0.00000     -0.301140E-02
      4763 MEMB     39       PMPE     H14Y     HAL2     0.900000E-01   1.00800           0   0.00000     -0.301140E-02
      4764 MEMB     39       PMPE     C315     CTL2    -0.180000       12.0110           0   0.00000     -0.301140E-02
      4765 MEMB     39       PMPE     H15X     HAL2     0.900000E-01   1.00800           0   0.00000     -0.301140E-02
      4766 MEMB     39       PMPE     H15Y     HAL2     0.900000E-01   1.00800           0   0.00000     -0.301140E-02
      4767 MEMB     39       PMPE     C316     CTL3    -0.270000       12.0110           0   0.00000     -0.301140E-02
      4768 MEMB     39       PMPE     H16X     HAL3     0.900000E-01   1.00800           0   0.00000     -0.301140E-02
      4769 MEMB     39       PMPE     H16Y     HAL3     0.900000E-01   1.00800           0   0.00000     -0.301140E-02
      4770 MEMB     39       PMPE     H16Z     HAL3     0.900000E-01   1.00800           0   0.00000     -0.301140E-02
      4771 MEMB     40       PMPG     C13      CTL2     0.500000E-01   12.0110           0   0.00000     -0.301140E-02
      4772 MEMB     40       PMPG     H13A     HAL2     0.900000E-01   1.00800           0   0.00000     -0.301140E-02
      4773 MEMB     40       PMPG     H13B     HAL2     0.900000E-01   1.00800           0   0.00000     -0.301140E-02
      4774 MEMB     40       PMPG     OC3      OHL     -0.660000       15.9994           0   0.00000     -0.301140E-02
      4775 MEMB     40       PMPG     HO3      HOL      0.430000       1.00800           0   0.00000     -0.301140E-02
      4776 MEMB     40       PMPG     C12      CTL1     0.140000       12.0110           0   0.00000     -0.301140E-02
      4777 MEMB     40       PMPG     H12A     HAL1     0.900000E-01   1.00800           0   0.00000     -0.301140E-02
      4778 MEMB     40       PMPG     OC2      OHL     -0.660000       15.9994           0   0.00000     -0.301140E-02
      4779 MEMB     40       PMPG     HO2      HOL      0.430000       1.00800           0   0.00000     -0.301140E-02
      4780 MEMB     40       PMPG     C11      CTL2    -0.800000E-01   12.0110           0   0.00000     -0.301140E-02
      4781 MEMB     40       PMPG     H11A     HAL2     0.900000E-01   1.00800           0   0.00000     -0.301140E-02
      4782 MEMB     40       PMPG     H11B     HAL2     0.900000E-01   1.00800           0   0.00000     -0.301140E-02
      4783 MEMB     40       PMPG     P        PL        1.50000       30.9740           0   0.00000     -0.301140E-02
      4784 MEMB     40       PMPG     O13      O2L     -0.780000       15.9994           0   0.00000     -0.301140E-02
      4785 MEMB     40       PMPG     O14      O2L     -0.780000       15.9994           0   0.00000     -0.301140E-02
      4786 MEMB     40       PMPG     O11      OSLP    -0.570000       15.9994           0   0.00000     -0.301140E-02
      4787 MEMB     40       PMPG     O12      OSLP    -0.570000       15.9994           0   0.00000     -0.301140E-02
      4788 MEMB     40       PMPG     C1       CTL2    -0.800000E-01   12.0110           0   0.00000     -0.301140E-02
      4789 MEMB     40       PMPG     HA       HAL2     0.900000E-01   1.00800           0   0.00000     -0.301140E-02
      4790 MEMB     40       PMPG     HB       HAL2     0.900000E-01   1.00800           0   0.00000     -0.301140E-02
      4791 MEMB     40       PMPG     C2       CTL1     0.170000       12.0110           0   0.00000     -0.301140E-02
      4792 MEMB     40       PMPG     HS       HAL1     0.900000E-01   1.00800           0   0.00000     -0.301140E-02
      4793 MEMB     40       PMPG     O21      OSL     -0.490000       15.9994           0   0.00000     -0.301140E-02
      4794 MEMB     40       PMPG     C21      CL       0.900000       12.0110           0   0.00000     -0.301140E-02
      4795 MEMB     40       PMPG     O22      OBL     -0.630000       15.9994           0   0.00000     -0.301140E-02
      4796 MEMB     40       PMPG     C22      CTL2    -0.220000       12.0110           0   0.00000     -0.301140E-02
      4797 MEMB     40       PMPG     H2R      HAL2     0.900000E-01   1.00800           0   0.00000     -0.301140E-02
      4798 MEMB     40       PMPG     H2S      HAL2     0.900000E-01   1.00800           0   0.00000     -0.301140E-02
      4799 MEMB     40       PMPG     C3       CTL2     0.800000E-01   12.0110           0   0.00000     -0.301140E-02
      4800 MEMB     40       PMPG     HX       HAL2     0.900000E-01   1.00800           0   0.00000     -0.301140E-02
      4801 MEMB     40       PMPG     HY       HAL2     0.900000E-01   1.00800           0   0.00000     -0.301140E-02
      4802 MEMB     40       PMPG     O31      OSL     -0.490000       15.9994           0   0.00000     -0.301140E-02
      4803 MEMB     40       PMPG     C31      CL       0.900000       12.0110           0   0.00000     -0.301140E-02
      4804 MEMB     40       PMPG     O32      OBL     -0.630000       15.9994           0   0.00000     -0.301140E-02
      4805 MEMB     40       PMPG     C32      CTL2    -0.220000       12.0110           0   0.00000     -0.301140E-02
      4806 MEMB     40       PMPG     H2X      HAL2     0.900000E-01   1.00800           0   0.00000     -0.301140E-02
      4807 MEMB     40       PMPG     H2Y      HAL2     0.900000E-01   1.00800           0   0.00000     -0.301140E-02
      4808 MEMB     40       PMPG     C23      CTL2    -0.180000       12.0110           0   0.00000     -0.301140E-02
      4809 MEMB     40       PMPG     H3R      HAL2     0.900000E-01   1.00800           0   0.00000     -0.301140E-02
      4810 MEMB     40       PMPG     H3S      HAL2     0.900000E-01   1.00800           0   0.00000     -0.301140E-02
      4811 MEMB     40       PMPG     C24      CTL2    -0.180000       12.0110           0   0.00000     -0.301140E-02
      4812 MEMB     40       PMPG     H4R      HAL2     0.900000E-01   1.00800           0   0.00000     -0.301140E-02
      4813 MEMB     40       PMPG     H4S      HAL2     0.900000E-01   1.00800           0   0.00000     -0.301140E-02
      4814 MEMB     40       PMPG     C25      CTL2    -0.180000       12.0110           0   0.00000     -0.301140E-02
      4815 MEMB     40       PMPG     H5R      HAL2     0.900000E-01   1.00800           0   0.00000     -0.301140E-02
      4816 MEMB     40       PMPG     H5S      HAL2     0.900000E-01   1.00800           0   0.00000     -0.301140E-02
      4817 MEMB     40       PMPG     C26      CTL2    -0.180000       12.0110           0   0.00000     -0.301140E-02
      4818 MEMB     40       PMPG     H6R      HAL2     0.900000E-01   1.00800           0   0.00000     -0.301140E-02
      4819 MEMB     40       PMPG     H6S      HAL2     0.900000E-01   1.00800           0   0.00000     -0.301140E-02
      4820 MEMB     40       PMPG     C27      CTL2    -0.180000       12.0110           0   0.00000     -0.301140E-02
      4821 MEMB     40       PMPG     H7R      HAL2     0.900000E-01   1.00800           0   0.00000     -0.301140E-02
      4822 MEMB     40       PMPG     H7S      HAL2     0.900000E-01   1.00800           0   0.00000     -0.301140E-02
      4823 MEMB     40       PMPG     C28      CTL2    -0.180000       12.0110           0   0.00000     -0.301140E-02
      4824 MEMB     40       PMPG     H8R      HAL2     0.900000E-01   1.00800           0   0.00000     -0.301140E-02
      4825 MEMB     40       PMPG     H8S      HAL2     0.900000E-01   1.00800           0   0.00000     -0.301140E-02
      4826 MEMB     40       PMPG     C29      CG3RC1  -0.900000E-01   12.0110           0   0.00000     -0.301140E-02
      4827 MEMB     40       PMPG     H9R      HGA1     0.900000E-01   1.00800           0   0.00000     -0.301140E-02
      4828 MEMB     40       PMPG     C217     CG3C31  -0.180000       12.0110           0   0.00000     -0.301140E-02
      4829 MEMB     40       PMPG     H17R     HGA2     0.900000E-01   1.00800           0   0.00000     -0.301140E-02
      4830 MEMB     40       PMPG     H17S     HGA2     0.900000E-01   1.00800           0   0.00000     -0.301140E-02
      4831 MEMB     40       PMPG     C210     CG3RC1  -0.900000E-01   12.0110           0   0.00000     -0.301140E-02
      4832 MEMB     40       PMPG     H10R     HGA1     0.900000E-01   1.00800           0   0.00000     -0.301140E-02
      4833 MEMB     40       PMPG     C211     CTL2    -0.180000       12.0110           0   0.00000     -0.301140E-02
      4834 MEMB     40       PMPG     H11R     HAL2     0.900000E-01   1.00800           0   0.00000     -0.301140E-02
      4835 MEMB     40       PMPG     H11S     HAL2     0.900000E-01   1.00800           0   0.00000     -0.301140E-02
      4836 MEMB     40       PMPG     C212     CTL2    -0.180000       12.0110           0   0.00000     -0.301140E-02
      4837 MEMB     40       PMPG     H12R     HAL2     0.900000E-01   1.00800           0   0.00000     -0.301140E-02
      4838 MEMB     40       PMPG     H12S     HAL2     0.900000E-01   1.00800           0   0.00000     -0.301140E-02
      4839 MEMB     40       PMPG     C213     CTL2    -0.180000       12.0110           0   0.00000     -0.301140E-02
      4840 MEMB     40       PMPG     H13R     HAL2     0.900000E-01   1.00800           0   0.00000     -0.301140E-02
      4841 MEMB     40       PMPG     H13S     HAL2     0.900000E-01   1.00800           0   0.00000     -0.301140E-02
      4842 MEMB     40       PMPG     C214     CTL2    -0.180000       12.0110           0   0.00000     -0.301140E-02
      4843 MEMB     40       PMPG     H14R     HAL2     0.900000E-01   1.00800           0   0.00000     -0.301140E-02
      4844 MEMB     40       PMPG     H14S     HAL2     0.900000E-01   1.00800           0   0.00000     -0.301140E-02
      4845 MEMB     40       PMPG     C215     CTL2    -0.180000       12.0110           0   0.00000     -0.301140E-02
      4846 MEMB     40       PMPG     H15R     HAL2     0.900000E-01   1.00800           0   0.00000     -0.301140E-02
      4847 MEMB     40       PMPG     H15S     HAL2     0.900000E-01   1.00800           0   0.00000     -0.301140E-02
      4848 MEMB     40       PMPG     C216     CTL3    -0.270000       12.0110           0   0.00000     -0.301140E-02
      4849 MEMB     40       PMPG     H16R     HAL3     0.900000E-01   1.00800           0   0.00000     -0.301140E-02
      4850 MEMB     40       PMPG     H16S     HAL3     0.900000E-01   1.00800           0   0.00000     -0.301140E-02
      4851 MEMB     40       PMPG     H16T     HAL3     0.900000E-01   1.00800           0   0.00000     -0.301140E-02
      4852 MEMB     40       PMPG     C33      CTL2    -0.180000       12.0110           0   0.00000     -0.301140E-02
      4853 MEMB     40       PMPG     H3X      HAL2     0.900000E-01   1.00800           0   0.00000     -0.301140E-02
      4854 MEMB     40       PMPG     H3Y      HAL2     0.900000E-01   1.00800           0   0.00000     -0.301140E-02
      4855 MEMB     40       PMPG     C34      CTL2    -0.180000       12.0110           0   0.00000     -0.301140E-02
      4856 MEMB     40       PMPG     H4X      HAL2     0.900000E-01   1.00800           0   0.00000     -0.301140E-02
      4857 MEMB     40       PMPG     H4Y      HAL2     0.900000E-01   1.00800           0   0.00000     -0.301140E-02
      4858 MEMB     40       PMPG     C35      CTL2    -0.180000       12.0110           0   0.00000     -0.301140E-02
      4859 MEMB     40       PMPG     H5X      HAL2     0.900000E-01   1.00800           0   0.00000     -0.301140E-02
      4860 MEMB     40       PMPG     H5Y      HAL2     0.900000E-01   1.00800           0   0.00000     -0.301140E-02
      4861 MEMB     40       PMPG     C36      CTL2    -0.180000       12.0110           0   0.00000     -0.301140E-02
      4862 MEMB     40       PMPG     H6X      HAL2     0.900000E-01   1.00800           0   0.00000     -0.301140E-02
      4863 MEMB     40       PMPG     H6Y      HAL2     0.900000E-01   1.00800           0   0.00000     -0.301140E-02
      4864 MEMB     40       PMPG     C37      CTL2    -0.180000       12.0110           0   0.00000     -0.301140E-02
      4865 MEMB     40       PMPG     H7X      HAL2     0.900000E-01   1.00800           0   0.00000     -0.301140E-02
      4866 MEMB     40       PMPG     H7Y      HAL2     0.900000E-01   1.00800           0   0.00000     -0.301140E-02
      4867 MEMB     40       PMPG     C38      CTL2    -0.180000       12.0110           0   0.00000     -0.301140E-02
      4868 MEMB     40       PMPG     H8X      HAL2     0.900000E-01   1.00800           0   0.00000     -0.301140E-02
      4869 MEMB     40       PMPG     H8Y      HAL2     0.900000E-01   1.00800           0   0.00000     -0.301140E-02
      4870 MEMB     40       PMPG     C39      CTL2    -0.180000       12.0110           0   0.00000     -0.301140E-02
      4871 MEMB     40       PMPG     H9X      HAL2     0.900000E-01   1.00800           0   0.00000     -0.301140E-02
      4872 MEMB     40       PMPG     H9Y      HAL2     0.900000E-01   1.00800           0   0.00000     -0.301140E-02
      4873 MEMB     40       PMPG     C310     CTL2    -0.180000       12.0110           0   0.00000     -0.301140E-02
      4874 MEMB     40       PMPG     H10X     HAL2     0.900000E-01   1.00800           0   0.00000     -0.301140E-02
      4875 MEMB     40       PMPG     H10Y     HAL2     0.900000E-01   1.00800           0   0.00000     -0.301140E-02
      4876 MEMB     40       PMPG     C311     CTL2    -0.180000       12.0110           0   0.00000     -0.301140E-02
      4877 MEMB     40       PMPG     H11X     HAL2     0.900000E-01   1.00800           0   0.00000     -0.301140E-02
      4878 MEMB     40       PMPG     H11Y     HAL2     0.900000E-01   1.00800           0   0.00000     -0.301140E-02
      4879 MEMB     40       PMPG     C312     CTL2    -0.180000       12.0110           0   0.00000     -0.301140E-02
      4880 MEMB     40       PMPG     H12X     HAL2     0.900000E-01   1.00800           0   0.00000     -0.301140E-02
      4881 MEMB     40       PMPG     H12Y     HAL2     0.900000E-01   1.00800           0   0.00000     -0.301140E-02
      4882 MEMB     40       PMPG     C313     CTL2    -0.180000       12.0110           0   0.00000     -0.301140E-02
      4883 MEMB     40       PMPG     H13X     HAL2     0.900000E-01   1.00800           0   0.00000     -0.301140E-02
      4884 MEMB     40       PMPG     H13Y     HAL2     0.900000E-01   1.00800           0   0.00000     -0.301140E-02
      4885 MEMB     40       PMPG     C314     CTL2    -0.180000       12.0110           0   0.00000     -0.301140E-02
      4886 MEMB     40       PMPG     H14X     HAL2     0.900000E-01   1.00800           0   0.00000     -0.301140E-02
      4887 MEMB     40       PMPG     H14Y     HAL2     0.900000E-01   1.00800           0   0.00000     -0.301140E-02
      4888 MEMB     40       PMPG     C315     CTL2    -0.180000       12.0110           0   0.00000     -0.301140E-02
      4889 MEMB     40       PMPG     H15X     HAL2     0.900000E-01   1.00800           0   0.00000     -0.301140E-02
      4890 MEMB     40       PMPG     H15Y     HAL2     0.900000E-01   1.00800           0   0.00000     -0.301140E-02
      4891 MEMB     40       PMPG     C316     CTL3    -0.270000       12.0110           0   0.00000     -0.301140E-02
      4892 MEMB     40       PMPG     H16X     HAL3     0.900000E-01   1.00800           0   0.00000     -0.301140E-02
      4893 MEMB     40       PMPG     H16Y     HAL3     0.900000E-01   1.00800           0   0.00000     -0.301140E-02
      4894 MEMB     40       PMPG     H16Z     HAL3     0.900000E-01   1.00800           0   0.00000     -0.301140E-02
      4895 MEMB     41       QMPE     N        NH3L    -0.300000       14.0070           0   0.00000     -0.301140E-02
      4896 MEMB     41       QMPE     HN1      HCL      0.330000       1.00800           0   0.00000     -0.301140E-02
      4897 MEMB     41       QMPE     HN2      HCL      0.330000       1.00800           0   0.00000     -0.301140E-02
      4898 MEMB     41       QMPE     HN3      HCL      0.330000       1.00800           0   0.00000     -0.301140E-02
      4899 MEMB     41       QMPE     C12      CTL2     0.130000       12.0110           0   0.00000     -0.301140E-02
      4900 MEMB     41       QMPE     H12A     HAL2     0.900000E-01   1.00800           0   0.00000     -0.301140E-02
      4901 MEMB     41       QMPE     H12B     HAL2     0.900000E-01   1.00800           0   0.00000     -0.301140E-02
      4902 MEMB     41       QMPE     C11      CTL2    -0.800000E-01   12.0110           0   0.00000     -0.301140E-02
      4903 MEMB     41       QMPE     H11A     HAL2     0.900000E-01   1.00800           0   0.00000     -0.301140E-02
      4904 MEMB     41       QMPE     H11B     HAL2     0.900000E-01   1.00800           0   0.00000     -0.301140E-02
      4905 MEMB     41       QMPE     P        PL        1.50000       30.9740           0   0.00000     -0.301140E-02
      4906 MEMB     41       QMPE     O13      O2L     -0.780000       15.9994           0   0.00000     -0.301140E-02
      4907 MEMB     41       QMPE     O14      O2L     -0.780000       15.9994           0   0.00000     -0.301140E-02
      4908 MEMB     41       QMPE     O11      OSLP    -0.570000       15.9994           0   0.00000     -0.301140E-02
      4909 MEMB     41       QMPE     O12      OSLP    -0.570000       15.9994           0   0.00000     -0.301140E-02
      4910 MEMB     41       QMPE     C1       CTL2    -0.800000E-01   12.0110           0   0.00000     -0.301140E-02
      4911 MEMB     41       QMPE     HA       HAL2     0.900000E-01   1.00800           0   0.00000     -0.301140E-02
      4912 MEMB     41       QMPE     HB       HAL2     0.900000E-01   1.00800           0   0.00000     -0.301140E-02
      4913 MEMB     41       QMPE     C2       CTL1     0.170000       12.0110           0   0.00000     -0.301140E-02
      4914 MEMB     41       QMPE     HS       HAL1     0.900000E-01   1.00800           0   0.00000     -0.301140E-02
      4915 MEMB     41       QMPE     O21      OSL     -0.490000       15.9994           0   0.00000     -0.301140E-02
      4916 MEMB     41       QMPE     C21      CL       0.900000       12.0110           0   0.00000     -0.301140E-02
      4917 MEMB     41       QMPE     O22      OBL     -0.630000       15.9994           0   0.00000     -0.301140E-02
      4918 MEMB     41       QMPE     C22      CTL2    -0.220000       12.0110           0   0.00000     -0.301140E-02
      4919 MEMB     41       QMPE     H2R      HAL2     0.900000E-01   1.00800           0   0.00000     -0.301140E-02
      4920 MEMB     41       QMPE     H2S      HAL2     0.900000E-01   1.00800           0   0.00000     -0.301140E-02
      4921 MEMB     41       QMPE     C3       CTL2     0.800000E-01   12.0110           0   0.00000     -0.301140E-02
      4922 MEMB     41       QMPE     HX       HAL2     0.900000E-01   1.00800           0   0.00000     -0.301140E-02
      4923 MEMB     41       QMPE     HY       HAL2     0.900000E-01   1.00800           0   0.00000     -0.301140E-02
      4924 MEMB     41       QMPE     O31      OSL     -0.490000       15.9994           0   0.00000     -0.301140E-02
      4925 MEMB     41       QMPE     C31      CL       0.900000       12.0110           0   0.00000     -0.301140E-02
      4926 MEMB     41       QMPE     O32      OBL     -0.630000       15.9994           0   0.00000     -0.301140E-02
      4927 MEMB     41       QMPE     C32      CTL2    -0.220000       12.0110           0   0.00000     -0.301140E-02
      4928 MEMB     41       QMPE     H2X      HAL2     0.900000E-01   1.00800           0   0.00000     -0.301140E-02
      4929 MEMB     41       QMPE     H2Y      HAL2     0.900000E-01   1.00800           0   0.00000     -0.301140E-02
      4930 MEMB     41       QMPE     C23      CTL2    -0.180000       12.0110           0   0.00000     -0.301140E-02
      4931 MEMB     41       QMPE     H3R      HAL2     0.900000E-01   1.00800           0   0.00000     -0.301140E-02
      4932 MEMB     41       QMPE     H3S      HAL2     0.900000E-01   1.00800           0   0.00000     -0.301140E-02
      4933 MEMB     41       QMPE     C24      CTL2    -0.180000       12.0110           0   0.00000     -0.301140E-02
      4934 MEMB     41       QMPE     H4R      HAL2     0.900000E-01   1.00800           0   0.00000     -0.301140E-02
      4935 MEMB     41       QMPE     H4S      HAL2     0.900000E-01   1.00800           0   0.00000     -0.301140E-02
      4936 MEMB     41       QMPE     C25      CTL2    -0.180000       12.0110           0   0.00000     -0.301140E-02
      4937 MEMB     41       QMPE     H5R      HAL2     0.900000E-01   1.00800           0   0.00000     -0.301140E-02
      4938 MEMB     41       QMPE     H5S      HAL2     0.900000E-01   1.00800           0   0.00000     -0.301140E-02
      4939 MEMB     41       QMPE     C26      CTL2    -0.180000       12.0110           0   0.00000     -0.301140E-02
      4940 MEMB     41       QMPE     H6R      HAL2     0.900000E-01   1.00800           0   0.00000     -0.301140E-02
      4941 MEMB     41       QMPE     H6S      HAL2     0.900000E-01   1.00800           0   0.00000     -0.301140E-02
      4942 MEMB     41       QMPE     C27      CTL2    -0.180000       12.0110           0   0.00000     -0.301140E-02
      4943 MEMB     41       QMPE     H7R      HAL2     0.900000E-01   1.00800           0   0.00000     -0.301140E-02
      4944 MEMB     41       QMPE     H7S      HAL2     0.900000E-01   1.00800           0   0.00000     -0.301140E-02
      4945 MEMB     41       QMPE     C28      CTL2    -0.180000       12.0110           0   0.00000     -0.301140E-02
      4946 MEMB     41       QMPE     H8R      HAL2     0.900000E-01   1.00800           0   0.00000     -0.301140E-02
      4947 MEMB     41       QMPE     H8S      HAL2     0.900000E-01   1.00800           0   0.00000     -0.301140E-02
      4948 MEMB     41       QMPE     C29      CG3RC1  -0.900000E-01   12.0110           0   0.00000     -0.301140E-02
      4949 MEMB     41       QMPE     H9R      HGA1     0.900000E-01   1.00800           0   0.00000     -0.301140E-02
      4950 MEMB     41       QMPE     C217     CG3C31  -0.180000       12.0110           0   0.00000     -0.301140E-02
      4951 MEMB     41       QMPE     H17R     HGA2     0.900000E-01   1.00800           0   0.00000     -0.301140E-02
      4952 MEMB     41       QMPE     H17S     HGA2     0.900000E-01   1.00800           0   0.00000     -0.301140E-02
      4953 MEMB     41       QMPE     C210     CG3RC1  -0.900000E-01   12.0110           0   0.00000     -0.301140E-02
      4954 MEMB     41       QMPE     H10R     HGA1     0.900000E-01   1.00800           0   0.00000     -0.301140E-02
      4955 MEMB     41       QMPE     C211     CTL2    -0.180000       12.0110           0   0.00000     -0.301140E-02
      4956 MEMB     41       QMPE     H11R     HAL2     0.900000E-01   1.00800           0   0.00000     -0.301140E-02
      4957 MEMB     41       QMPE     H11S     HAL2     0.900000E-01   1.00800           0   0.00000     -0.301140E-02
      4958 MEMB     41       QMPE     C212     CTL2    -0.180000       12.0110           0   0.00000     -0.301140E-02
      4959 MEMB     41       QMPE     H12R     HAL2     0.900000E-01   1.00800           0   0.00000     -0.301140E-02
      4960 MEMB     41       QMPE     H12S     HAL2     0.900000E-01   1.00800           0   0.00000     -0.301140E-02
      4961 MEMB     41       QMPE     C213     CTL2    -0.180000       12.0110           0   0.00000     -0.301140E-02
      4962 MEMB     41       QMPE     H13R     HAL2     0.900000E-01   1.00800           0   0.00000     -0.301140E-02
      4963 MEMB     41       QMPE     H13S     HAL2     0.900000E-01   1.00800           0   0.00000     -0.301140E-02
      4964 MEMB     41       QMPE     C214     CTL2    -0.180000       12.0110           0   0.00000     -0.301140E-02
      4965 MEMB     41       QMPE     H14R     HAL2     0.900000E-01   1.00800           0   0.00000     -0.301140E-02
      4966 MEMB     41       QMPE     H14S     HAL2     0.900000E-01   1.00800           0   0.00000     -0.301140E-02
      4967 MEMB     41       QMPE     C215     CTL2    -0.180000       12.0110           0   0.00000     -0.301140E-02
      4968 MEMB     41       QMPE     H15R     HAL2     0.900000E-01   1.00800           0   0.00000     -0.301140E-02
      4969 MEMB     41       QMPE     H15S     HAL2     0.900000E-01   1.00800           0   0.00000     -0.301140E-02
      4970 MEMB     41       QMPE     C216     CTL3    -0.270000       12.0110           0   0.00000     -0.301140E-02
      4971 MEMB     41       QMPE     H16R     HAL3     0.900000E-01   1.00800           0   0.00000     -0.301140E-02
      4972 MEMB     41       QMPE     H16S     HAL3     0.900000E-01   1.00800           0   0.00000     -0.301140E-02
      4973 MEMB     41       QMPE     H16T     HAL3     0.900000E-01   1.00800           0   0.00000     -0.301140E-02
      4974 MEMB     41       QMPE     C33      CTL2    -0.180000       12.0110           0   0.00000     -0.301140E-02
      4975 MEMB     41       QMPE     H3X      HAL2     0.900000E-01   1.00800           0   0.00000     -0.301140E-02
      4976 MEMB     41       QMPE     H3Y      HAL2     0.900000E-01   1.00800           0   0.00000     -0.301140E-02
      4977 MEMB     41       QMPE     C34      CTL2    -0.180000       12.0110           0   0.00000     -0.301140E-02
      4978 MEMB     41       QMPE     H4X      HAL2     0.900000E-01   1.00800           0   0.00000     -0.301140E-02
      4979 MEMB     41       QMPE     H4Y      HAL2     0.900000E-01   1.00800           0   0.00000     -0.301140E-02
      4980 MEMB     41       QMPE     C35      CTL2    -0.180000       12.0110           0   0.00000     -0.301140E-02
      4981 MEMB     41       QMPE     H5X      HAL2     0.900000E-01   1.00800           0   0.00000     -0.301140E-02
      4982 MEMB     41       QMPE     H5Y      HAL2     0.900000E-01   1.00800           0   0.00000     -0.301140E-02
      4983 MEMB     41       QMPE     C36      CTL2    -0.180000       12.0110           0   0.00000     -0.301140E-02
      4984 MEMB     41       QMPE     H6X      HAL2     0.900000E-01   1.00800           0   0.00000     -0.301140E-02
      4985 MEMB     41       QMPE     H6Y      HAL2     0.900000E-01   1.00800           0   0.00000     -0.301140E-02
      4986 MEMB     41       QMPE     C37      CTL2    -0.180000       12.0110           0   0.00000     -0.301140E-02
      4987 MEMB     41       QMPE     H7X      HAL2     0.900000E-01   1.00800           0   0.00000     -0.301140E-02
      4988 MEMB     41       QMPE     H7Y      HAL2     0.900000E-01   1.00800           0   0.00000     -0.301140E-02
      4989 MEMB     41       QMPE     C38      CTL2    -0.180000       12.0110           0   0.00000     -0.301140E-02
      4990 MEMB     41       QMPE     H8X      HAL2     0.900000E-01   1.00800           0   0.00000     -0.301140E-02
      4991 MEMB     41       QMPE     H8Y      HAL2     0.900000E-01   1.00800           0   0.00000     -0.301140E-02
      4992 MEMB     41       QMPE     C39      CTL2    -0.180000       12.0110           0   0.00000     -0.301140E-02
      4993 MEMB     41       QMPE     H9X      HAL2     0.900000E-01   1.00800           0   0.00000     -0.301140E-02
      4994 MEMB     41       QMPE     H9Y      HAL2     0.900000E-01   1.00800           0   0.00000     -0.301140E-02
      4995 MEMB     41       QMPE     C310     CTL2    -0.180000       12.0110           0   0.00000     -0.301140E-02
      4996 MEMB     41       QMPE     H10X     HAL2     0.900000E-01   1.00800           0   0.00000     -0.301140E-02
      4997 MEMB     41       QMPE     H10Y     HAL2     0.900000E-01   1.00800           0   0.00000     -0.301140E-02
      4998 MEMB     41       QMPE     C311     CTL2    -0.180000       12.0110           0   0.00000     -0.301140E-02
      4999 MEMB     41       QMPE     H11X     HAL2     0.900000E-01   1.00800           0   0.00000     -0.301140E-02
      5000 MEMB     41       QMPE     H11Y     HAL2     0.900000E-01   1.00800           0   0.00000     -0.301140E-02
      5001 MEMB     41       QMPE     C312     CTL2    -0.180000       12.0110           0   0.00000     -0.301140E-02
      5002 MEMB     41       QMPE     H12X     HAL2     0.900000E-01   1.00800           0   0.00000     -0.301140E-02
      5003 MEMB     41       QMPE     H12Y     HAL2     0.900000E-01   1.00800           0   0.00000     -0.301140E-02
      5004 MEMB     41       QMPE     C313     CTL2    -0.180000       12.0110           0   0.00000     -0.301140E-02
      5005 MEMB     41       QMPE     H13X     HAL2     0.900000E-01   1.00800           0   0.00000     -0.301140E-02
      5006 MEMB     41       QMPE     H13Y     HAL2     0.900000E-01   1.00800           0   0.00000     -0.301140E-02
      5007 MEMB     41       QMPE     C314     CTL2    -0.180000       12.0110           0   0.00000     -0.301140E-02
      5008 MEMB     41       QMPE     H14X     HAL2     0.900000E-01   1.00800           0   0.00000     -0.301140E-02
      5009 MEMB     41       QMPE     H14Y     HAL2     0.900000E-01   1.00800           0   0.00000     -0.301140E-02
      5010 MEMB     41       QMPE     C315     CTL3    -0.270000       12.0110           0   0.00000     -0.301140E-02
      5011 MEMB     41       QMPE     H15X     HAL3     0.900000E-01   1.00800           0   0.00000     -0.301140E-02
      5012 MEMB     41       QMPE     H15Y     HAL3     0.900000E-01   1.00800           0   0.00000     -0.301140E-02
      5013 MEMB     41       QMPE     H15Z     HAL3     0.900000E-01   1.00800           0   0.00000     -0.301140E-02
      5014 MEMB     42       PMPE     N        NH3L    -0.300000       14.0070           0   0.00000     -0.301140E-02
      5015 MEMB     42       PMPE     HN1      HCL      0.330000       1.00800           0   0.00000     -0.301140E-02
      5016 MEMB     42       PMPE     HN2      HCL      0.330000       1.00800           0   0.00000     -0.301140E-02
      5017 MEMB     42       PMPE     HN3      HCL      0.330000       1.00800           0   0.00000     -0.301140E-02
      5018 MEMB     42       PMPE     C12      CTL2     0.130000       12.0110           0   0.00000     -0.301140E-02
      5019 MEMB     42       PMPE     H12A     HAL2     0.900000E-01   1.00800           0   0.00000     -0.301140E-02
      5020 MEMB     42       PMPE     H12B     HAL2     0.900000E-01   1.00800           0   0.00000     -0.301140E-02
      5021 MEMB     42       PMPE     C11      CTL2    -0.800000E-01   12.0110           0   0.00000     -0.301140E-02
      5022 MEMB     42       PMPE     H11A     HAL2     0.900000E-01   1.00800           0   0.00000     -0.301140E-02
      5023 MEMB     42       PMPE     H11B     HAL2     0.900000E-01   1.00800           0   0.00000     -0.301140E-02
      5024 MEMB     42       PMPE     P        PL        1.50000       30.9740           0   0.00000     -0.301140E-02
      5025 MEMB     42       PMPE     O13      O2L     -0.780000       15.9994           0   0.00000     -0.301140E-02
      5026 MEMB     42       PMPE     O14      O2L     -0.780000       15.9994           0   0.00000     -0.301140E-02
      5027 MEMB     42       PMPE     O11      OSLP    -0.570000       15.9994           0   0.00000     -0.301140E-02
      5028 MEMB     42       PMPE     O12      OSLP    -0.570000       15.9994           0   0.00000     -0.301140E-02
      5029 MEMB     42       PMPE     C1       CTL2    -0.800000E-01   12.0110           0   0.00000     -0.301140E-02
      5030 MEMB     42       PMPE     HA       HAL2     0.900000E-01   1.00800           0   0.00000     -0.301140E-02
      5031 MEMB     42       PMPE     HB       HAL2     0.900000E-01   1.00800           0   0.00000     -0.301140E-02
      5032 MEMB     42       PMPE     C2       CTL1     0.170000       12.0110           0   0.00000     -0.301140E-02
      5033 MEMB     42       PMPE     HS       HAL1     0.900000E-01   1.00800           0   0.00000     -0.301140E-02
      5034 MEMB     42       PMPE     O21      OSL     -0.490000       15.9994           0   0.00000     -0.301140E-02
      5035 MEMB     42       PMPE     C21      CL       0.900000       12.0110           0   0.00000     -0.301140E-02
      5036 MEMB     42       PMPE     O22      OBL     -0.630000       15.9994           0   0.00000     -0.301140E-02
      5037 MEMB     42       PMPE     C22      CTL2    -0.220000       12.0110           0   0.00000     -0.301140E-02
      5038 MEMB     42       PMPE     H2R      HAL2     0.900000E-01   1.00800           0   0.00000     -0.301140E-02
      5039 MEMB     42       PMPE     H2S      HAL2     0.900000E-01   1.00800           0   0.00000     -0.301140E-02
      5040 MEMB     42       PMPE     C3       CTL2     0.800000E-01   12.0110           0   0.00000     -0.301140E-02
      5041 MEMB     42       PMPE     HX       HAL2     0.900000E-01   1.00800           0   0.00000     -0.301140E-02
      5042 MEMB     42       PMPE     HY       HAL2     0.900000E-01   1.00800           0   0.00000     -0.301140E-02
      5043 MEMB     42       PMPE     O31      OSL     -0.490000       15.9994           0   0.00000     -0.301140E-02
      5044 MEMB     42       PMPE     C31      CL       0.900000       12.0110           0   0.00000     -0.301140E-02
      5045 MEMB     42       PMPE     O32      OBL     -0.630000       15.9994           0   0.00000     -0.301140E-02
      5046 MEMB     42       PMPE     C32      CTL2    -0.220000       12.0110           0   0.00000     -0.301140E-02
      5047 MEMB     42       PMPE     H2X      HAL2     0.900000E-01   1.00800           0   0.00000     -0.301140E-02
      5048 MEMB     42       PMPE     H2Y      HAL2     0.900000E-01   1.00800           0   0.00000     -0.301140E-02
      5049 MEMB     42       PMPE     C23      CTL2    -0.180000       12.0110           0   0.00000     -0.301140E-02
      5050 MEMB     42       PMPE     H3R      HAL2     0.900000E-01   1.00800           0   0.00000     -0.301140E-02
      5051 MEMB     42       PMPE     H3S      HAL2     0.900000E-01   1.00800           0   0.00000     -0.301140E-02
      5052 MEMB     42       PMPE     C24      CTL2    -0.180000       12.0110           0   0.00000     -0.301140E-02
      5053 MEMB     42       PMPE     H4R      HAL2     0.900000E-01   1.00800           0   0.00000     -0.301140E-02
      5054 MEMB     42       PMPE     H4S      HAL2     0.900000E-01   1.00800           0   0.00000     -0.301140E-02
      5055 MEMB     42       PMPE     C25      CTL2    -0.180000       12.0110           0   0.00000     -0.301140E-02
      5056 MEMB     42       PMPE     H5R      HAL2     0.900000E-01   1.00800           0   0.00000     -0.301140E-02
      5057 MEMB     42       PMPE     H5S      HAL2     0.900000E-01   1.00800           0   0.00000     -0.301140E-02
      5058 MEMB     42       PMPE     C26      CTL2    -0.180000       12.0110           0   0.00000     -0.301140E-02
      5059 MEMB     42       PMPE     H6R      HAL2     0.900000E-01   1.00800           0   0.00000     -0.301140E-02
      5060 MEMB     42       PMPE     H6S      HAL2     0.900000E-01   1.00800           0   0.00000     -0.301140E-02
      5061 MEMB     42       PMPE     C27      CTL2    -0.180000       12.0110           0   0.00000     -0.301140E-02
      5062 MEMB     42       PMPE     H7R      HAL2     0.900000E-01   1.00800           0   0.00000     -0.301140E-02
      5063 MEMB     42       PMPE     H7S      HAL2     0.900000E-01   1.00800           0   0.00000     -0.301140E-02
      5064 MEMB     42       PMPE     C28      CTL2    -0.180000       12.0110           0   0.00000     -0.301140E-02
      5065 MEMB     42       PMPE     H8R      HAL2     0.900000E-01   1.00800           0   0.00000     -0.301140E-02
      5066 MEMB     42       PMPE     H8S      HAL2     0.900000E-01   1.00800           0   0.00000     -0.301140E-02
      5067 MEMB     42       PMPE     C29      CG3RC1  -0.900000E-01   12.0110           0   0.00000     -0.301140E-02
      5068 MEMB     42       PMPE     H9R      HGA1     0.900000E-01   1.00800           0   0.00000     -0.301140E-02
      5069 MEMB     42       PMPE     C217     CG3C31  -0.180000       12.0110           0   0.00000     -0.301140E-02
      5070 MEMB     42       PMPE     H17R     HGA2     0.900000E-01   1.00800           0   0.00000     -0.301140E-02
      5071 MEMB     42       PMPE     H17S     HGA2     0.900000E-01   1.00800           0   0.00000     -0.301140E-02
      5072 MEMB     42       PMPE     C210     CG3RC1  -0.900000E-01   12.0110           0   0.00000     -0.301140E-02
      5073 MEMB     42       PMPE     H10R     HGA1     0.900000E-01   1.00800           0   0.00000     -0.301140E-02
      5074 MEMB     42       PMPE     C211     CTL2    -0.180000       12.0110           0   0.00000     -0.301140E-02
      5075 MEMB     42       PMPE     H11R     HAL2     0.900000E-01   1.00800           0   0.00000     -0.301140E-02
      5076 MEMB     42       PMPE     H11S     HAL2     0.900000E-01   1.00800           0   0.00000     -0.301140E-02
      5077 MEMB     42       PMPE     C212     CTL2    -0.180000       12.0110           0   0.00000     -0.301140E-02
      5078 MEMB     42       PMPE     H12R     HAL2     0.900000E-01   1.00800           0   0.00000     -0.301140E-02
      5079 MEMB     42       PMPE     H12S     HAL2     0.900000E-01   1.00800           0   0.00000     -0.301140E-02
      5080 MEMB     42       PMPE     C213     CTL2    -0.180000       12.0110           0   0.00000     -0.301140E-02
      5081 MEMB     42       PMPE     H13R     HAL2     0.900000E-01   1.00800           0   0.00000     -0.301140E-02
      5082 MEMB     42       PMPE     H13S     HAL2     0.900000E-01   1.00800           0   0.00000     -0.301140E-02
      5083 MEMB     42       PMPE     C214     CTL2    -0.180000       12.0110           0   0.00000     -0.301140E-02
      5084 MEMB     42       PMPE     H14R     HAL2     0.900000E-01   1.00800           0   0.00000     -0.301140E-02
      5085 MEMB     42       PMPE     H14S     HAL2     0.900000E-01   1.00800           0   0.00000     -0.301140E-02
      5086 MEMB     42       PMPE     C215     CTL2    -0.180000       12.0110           0   0.00000     -0.301140E-02
      5087 MEMB     42       PMPE     H15R     HAL2     0.900000E-01   1.00800           0   0.00000     -0.301140E-02
      5088 MEMB     42       PMPE     H15S     HAL2     0.900000E-01   1.00800           0   0.00000     -0.301140E-02
      5089 MEMB     42       PMPE     C216     CTL3    -0.270000       12.0110           0   0.00000     -0.301140E-02
      5090 MEMB     42       PMPE     H16R     HAL3     0.900000E-01   1.00800           0   0.00000     -0.301140E-02
      5091 MEMB     42       PMPE     H16S     HAL3     0.900000E-01   1.00800           0   0.00000     -0.301140E-02
      5092 MEMB     42       PMPE     H16T     HAL3     0.900000E-01   1.00800           0   0.00000     -0.301140E-02
      5093 MEMB     42       PMPE     C33      CTL2    -0.180000       12.0110           0   0.00000     -0.301140E-02
      5094 MEMB     42       PMPE     H3X      HAL2     0.900000E-01   1.00800           0   0.00000     -0.301140E-02
      5095 MEMB     42       PMPE     H3Y      HAL2     0.900000E-01   1.00800           0   0.00000     -0.301140E-02
      5096 MEMB     42       PMPE     C34      CTL2    -0.180000       12.0110           0   0.00000     -0.301140E-02
      5097 MEMB     42       PMPE     H4X      HAL2     0.900000E-01   1.00800           0   0.00000     -0.301140E-02
      5098 MEMB     42       PMPE     H4Y      HAL2     0.900000E-01   1.00800           0   0.00000     -0.301140E-02
      5099 MEMB     42       PMPE     C35      CTL2    -0.180000       12.0110           0   0.00000     -0.301140E-02
      5100 MEMB     42       PMPE     H5X      HAL2     0.900000E-01   1.00800           0   0.00000     -0.301140E-02
      5101 MEMB     42       PMPE     H5Y      HAL2     0.900000E-01   1.00800           0   0.00000     -0.301140E-02
      5102 MEMB     42       PMPE     C36      CTL2    -0.180000       12.0110           0   0.00000     -0.301140E-02
      5103 MEMB     42       PMPE     H6X      HAL2     0.900000E-01   1.00800           0   0.00000     -0.301140E-02
      5104 MEMB     42       PMPE     H6Y      HAL2     0.900000E-01   1.00800           0   0.00000     -0.301140E-02
      5105 MEMB     42       PMPE     C37      CTL2    -0.180000       12.0110           0   0.00000     -0.301140E-02
      5106 MEMB     42       PMPE     H7X      HAL2     0.900000E-01   1.00800           0   0.00000     -0.301140E-02
      5107 MEMB     42       PMPE     H7Y      HAL2     0.900000E-01   1.00800           0   0.00000     -0.301140E-02
      5108 MEMB     42       PMPE     C38      CTL2    -0.180000       12.0110           0   0.00000     -0.301140E-02
      5109 MEMB     42       PMPE     H8X      HAL2     0.900000E-01   1.00800           0   0.00000     -0.301140E-02
      5110 MEMB     42       PMPE     H8Y      HAL2     0.900000E-01   1.00800           0   0.00000     -0.301140E-02
      5111 MEMB     42       PMPE     C39      CTL2    -0.180000       12.0110           0   0.00000     -0.301140E-02
      5112 MEMB     42       PMPE     H9X      HAL2     0.900000E-01   1.00800           0   0.00000     -0.301140E-02
      5113 MEMB     42       PMPE     H9Y      HAL2     0.900000E-01   1.00800           0   0.00000     -0.301140E-02
      5114 MEMB     42       PMPE     C310     CTL2    -0.180000       12.0110           0   0.00000     -0.301140E-02
      5115 MEMB     42       PMPE     H10X     HAL2     0.900000E-01   1.00800           0   0.00000     -0.301140E-02
      5116 MEMB     42       PMPE     H10Y     HAL2     0.900000E-01   1.00800           0   0.00000     -0.301140E-02
      5117 MEMB     42       PMPE     C311     CTL2    -0.180000       12.0110           0   0.00000     -0.301140E-02
      5118 MEMB     42       PMPE     H11X     HAL2     0.900000E-01   1.00800           0   0.00000     -0.301140E-02
      5119 MEMB     42       PMPE     H11Y     HAL2     0.900000E-01   1.00800           0   0.00000     -0.301140E-02
      5120 MEMB     42       PMPE     C312     CTL2    -0.180000       12.0110           0   0.00000     -0.301140E-02
      5121 MEMB     42       PMPE     H12X     HAL2     0.900000E-01   1.00800           0   0.00000     -0.301140E-02
      5122 MEMB     42       PMPE     H12Y     HAL2     0.900000E-01   1.00800           0   0.00000     -0.301140E-02
      5123 MEMB     42       PMPE     C313     CTL2    -0.180000       12.0110           0   0.00000     -0.301140E-02
      5124 MEMB     42       PMPE     H13X     HAL2     0.900000E-01   1.00800           0   0.00000     -0.301140E-02
      5125 MEMB     42       PMPE     H13Y     HAL2     0.900000E-01   1.00800           0   0.00000     -0.301140E-02
      5126 MEMB     42       PMPE     C314     CTL2    -0.180000       12.0110           0   0.00000     -0.301140E-02
      5127 MEMB     42       PMPE     H14X     HAL2     0.900000E-01   1.00800           0   0.00000     -0.301140E-02
      5128 MEMB     42       PMPE     H14Y     HAL2     0.900000E-01   1.00800           0   0.00000     -0.301140E-02
      5129 MEMB     42       PMPE     C315     CTL2    -0.180000       12.0110           0   0.00000     -0.301140E-02
      5130 MEMB     42       PMPE     H15X     HAL2     0.900000E-01   1.00800           0   0.00000     -0.301140E-02
      5131 MEMB     42       PMPE     H15Y     HAL2     0.900000E-01   1.00800           0   0.00000     -0.301140E-02
      5132 MEMB     42       PMPE     C316     CTL3    -0.270000       12.0110           0   0.00000     -0.301140E-02
      5133 MEMB     42       PMPE     H16X     HAL3     0.900000E-01   1.00800           0   0.00000     -0.301140E-02
      5134 MEMB     42       PMPE     H16Y     HAL3     0.900000E-01   1.00800           0   0.00000     -0.301140E-02
      5135 MEMB     42       PMPE     H16Z     HAL3     0.900000E-01   1.00800           0   0.00000     -0.301140E-02
      5136 MEMB     43       QMPE     N        NH3L    -0.300000       14.0070           0   0.00000     -0.301140E-02
      5137 MEMB     43       QMPE     HN1      HCL      0.330000       1.00800           0   0.00000     -0.301140E-02
      5138 MEMB     43       QMPE     HN2      HCL      0.330000       1.00800           0   0.00000     -0.301140E-02
      5139 MEMB     43       QMPE     HN3      HCL      0.330000       1.00800           0   0.00000     -0.301140E-02
      5140 MEMB     43       QMPE     C12      CTL2     0.130000       12.0110           0   0.00000     -0.301140E-02
      5141 MEMB     43       QMPE     H12A     HAL2     0.900000E-01   1.00800           0   0.00000     -0.301140E-02
      5142 MEMB     43       QMPE     H12B     HAL2     0.900000E-01   1.00800           0   0.00000     -0.301140E-02
      5143 MEMB     43       QMPE     C11      CTL2    -0.800000E-01   12.0110           0   0.00000     -0.301140E-02
      5144 MEMB     43       QMPE     H11A     HAL2     0.900000E-01   1.00800           0   0.00000     -0.301140E-02
      5145 MEMB     43       QMPE     H11B     HAL2     0.900000E-01   1.00800           0   0.00000     -0.301140E-02
      5146 MEMB     43       QMPE     P        PL        1.50000       30.9740           0   0.00000     -0.301140E-02
      5147 MEMB     43       QMPE     O13      O2L     -0.780000       15.9994           0   0.00000     -0.301140E-02
      5148 MEMB     43       QMPE     O14      O2L     -0.780000       15.9994           0   0.00000     -0.301140E-02
      5149 MEMB     43       QMPE     O11      OSLP    -0.570000       15.9994           0   0.00000     -0.301140E-02
      5150 MEMB     43       QMPE     O12      OSLP    -0.570000       15.9994           0   0.00000     -0.301140E-02
      5151 MEMB     43       QMPE     C1       CTL2    -0.800000E-01   12.0110           0   0.00000     -0.301140E-02
      5152 MEMB     43       QMPE     HA       HAL2     0.900000E-01   1.00800           0   0.00000     -0.301140E-02
      5153 MEMB     43       QMPE     HB       HAL2     0.900000E-01   1.00800           0   0.00000     -0.301140E-02
      5154 MEMB     43       QMPE     C2       CTL1     0.170000       12.0110           0   0.00000     -0.301140E-02
      5155 MEMB     43       QMPE     HS       HAL1     0.900000E-01   1.00800           0   0.00000     -0.301140E-02
      5156 MEMB     43       QMPE     O21      OSL     -0.490000       15.9994           0   0.00000     -0.301140E-02
      5157 MEMB     43       QMPE     C21      CL       0.900000       12.0110           0   0.00000     -0.301140E-02
      5158 MEMB     43       QMPE     O22      OBL     -0.630000       15.9994           0   0.00000     -0.301140E-02
      5159 MEMB     43       QMPE     C22      CTL2    -0.220000       12.0110           0   0.00000     -0.301140E-02
      5160 MEMB     43       QMPE     H2R      HAL2     0.900000E-01   1.00800           0   0.00000     -0.301140E-02
      5161 MEMB     43       QMPE     H2S      HAL2     0.900000E-01   1.00800           0   0.00000     -0.301140E-02
      5162 MEMB     43       QMPE     C3       CTL2     0.800000E-01   12.0110           0   0.00000     -0.301140E-02
      5163 MEMB     43       QMPE     HX       HAL2     0.900000E-01   1.00800           0   0.00000     -0.301140E-02
      5164 MEMB     43       QMPE     HY       HAL2     0.900000E-01   1.00800           0   0.00000     -0.301140E-02
      5165 MEMB     43       QMPE     O31      OSL     -0.490000       15.9994           0   0.00000     -0.301140E-02
      5166 MEMB     43       QMPE     C31      CL       0.900000       12.0110           0   0.00000     -0.301140E-02
      5167 MEMB     43       QMPE     O32      OBL     -0.630000       15.9994           0   0.00000     -0.301140E-02
      5168 MEMB     43       QMPE     C32      CTL2    -0.220000       12.0110           0   0.00000     -0.301140E-02
      5169 MEMB     43       QMPE     H2X      HAL2     0.900000E-01   1.00800           0   0.00000     -0.301140E-02
      5170 MEMB     43       QMPE     H2Y      HAL2     0.900000E-01   1.00800           0   0.00000     -0.301140E-02
      5171 MEMB     43       QMPE     C23      CTL2    -0.180000       12.0110           0   0.00000     -0.301140E-02
      5172 MEMB     43       QMPE     H3R      HAL2     0.900000E-01   1.00800           0   0.00000     -0.301140E-02
      5173 MEMB     43       QMPE     H3S      HAL2     0.900000E-01   1.00800           0   0.00000     -0.301140E-02
      5174 MEMB     43       QMPE     C24      CTL2    -0.180000       12.0110           0   0.00000     -0.301140E-02
      5175 MEMB     43       QMPE     H4R      HAL2     0.900000E-01   1.00800           0   0.00000     -0.301140E-02
      5176 MEMB     43       QMPE     H4S      HAL2     0.900000E-01   1.00800           0   0.00000     -0.301140E-02
      5177 MEMB     43       QMPE     C25      CTL2    -0.180000       12.0110           0   0.00000     -0.301140E-02
      5178 MEMB     43       QMPE     H5R      HAL2     0.900000E-01   1.00800           0   0.00000     -0.301140E-02
      5179 MEMB     43       QMPE     H5S      HAL2     0.900000E-01   1.00800           0   0.00000     -0.301140E-02
      5180 MEMB     43       QMPE     C26      CTL2    -0.180000       12.0110           0   0.00000     -0.301140E-02
      5181 MEMB     43       QMPE     H6R      HAL2     0.900000E-01   1.00800           0   0.00000     -0.301140E-02
      5182 MEMB     43       QMPE     H6S      HAL2     0.900000E-01   1.00800           0   0.00000     -0.301140E-02
      5183 MEMB     43       QMPE     C27      CTL2    -0.180000       12.0110           0   0.00000     -0.301140E-02
      5184 MEMB     43       QMPE     H7R      HAL2     0.900000E-01   1.00800           0   0.00000     -0.301140E-02
      5185 MEMB     43       QMPE     H7S      HAL2     0.900000E-01   1.00800           0   0.00000     -0.301140E-02
      5186 MEMB     43       QMPE     C28      CTL2    -0.180000       12.0110           0   0.00000     -0.301140E-02
      5187 MEMB     43       QMPE     H8R      HAL2     0.900000E-01   1.00800           0   0.00000     -0.301140E-02
      5188 MEMB     43       QMPE     H8S      HAL2     0.900000E-01   1.00800           0   0.00000     -0.301140E-02
      5189 MEMB     43       QMPE     C29      CG3RC1  -0.900000E-01   12.0110           0   0.00000     -0.301140E-02
      5190 MEMB     43       QMPE     H9R      HGA1     0.900000E-01   1.00800           0   0.00000     -0.301140E-02
      5191 MEMB     43       QMPE     C217     CG3C31  -0.180000       12.0110           0   0.00000     -0.301140E-02
      5192 MEMB     43       QMPE     H17R     HGA2     0.900000E-01   1.00800           0   0.00000     -0.301140E-02
      5193 MEMB     43       QMPE     H17S     HGA2     0.900000E-01   1.00800           0   0.00000     -0.301140E-02
      5194 MEMB     43       QMPE     C210     CG3RC1  -0.900000E-01   12.0110           0   0.00000     -0.301140E-02
      5195 MEMB     43       QMPE     H10R     HGA1     0.900000E-01   1.00800           0   0.00000     -0.301140E-02
      5196 MEMB     43       QMPE     C211     CTL2    -0.180000       12.0110           0   0.00000     -0.301140E-02
      5197 MEMB     43       QMPE     H11R     HAL2     0.900000E-01   1.00800           0   0.00000     -0.301140E-02
      5198 MEMB     43       QMPE     H11S     HAL2     0.900000E-01   1.00800           0   0.00000     -0.301140E-02
      5199 MEMB     43       QMPE     C212     CTL2    -0.180000       12.0110           0   0.00000     -0.301140E-02
      5200 MEMB     43       QMPE     H12R     HAL2     0.900000E-01   1.00800           0   0.00000     -0.301140E-02
      5201 MEMB     43       QMPE     H12S     HAL2     0.900000E-01   1.00800           0   0.00000     -0.301140E-02
      5202 MEMB     43       QMPE     C213     CTL2    -0.180000       12.0110           0   0.00000     -0.301140E-02
      5203 MEMB     43       QMPE     H13R     HAL2     0.900000E-01   1.00800           0   0.00000     -0.301140E-02
      5204 MEMB     43       QMPE     H13S     HAL2     0.900000E-01   1.00800           0   0.00000     -0.301140E-02
      5205 MEMB     43       QMPE     C214     CTL2    -0.180000       12.0110           0   0.00000     -0.301140E-02
      5206 MEMB     43       QMPE     H14R     HAL2     0.900000E-01   1.00800           0   0.00000     -0.301140E-02
      5207 MEMB     43       QMPE     H14S     HAL2     0.900000E-01   1.00800           0   0.00000     -0.301140E-02
      5208 MEMB     43       QMPE     C215     CTL2    -0.180000       12.0110           0   0.00000     -0.301140E-02
      5209 MEMB     43       QMPE     H15R     HAL2     0.900000E-01   1.00800           0   0.00000     -0.301140E-02
      5210 MEMB     43       QMPE     H15S     HAL2     0.900000E-01   1.00800           0   0.00000     -0.301140E-02
      5211 MEMB     43       QMPE     C216     CTL3    -0.270000       12.0110           0   0.00000     -0.301140E-02
      5212 MEMB     43       QMPE     H16R     HAL3     0.900000E-01   1.00800           0   0.00000     -0.301140E-02
      5213 MEMB     43       QMPE     H16S     HAL3     0.900000E-01   1.00800           0   0.00000     -0.301140E-02
      5214 MEMB     43       QMPE     H16T     HAL3     0.900000E-01   1.00800           0   0.00000     -0.301140E-02
      5215 MEMB     43       QMPE     C33      CTL2    -0.180000       12.0110           0   0.00000     -0.301140E-02
      5216 MEMB     43       QMPE     H3X      HAL2     0.900000E-01   1.00800           0   0.00000     -0.301140E-02
      5217 MEMB     43       QMPE     H3Y      HAL2     0.900000E-01   1.00800           0   0.00000     -0.301140E-02
      5218 MEMB     43       QMPE     C34      CTL2    -0.180000       12.0110           0   0.00000     -0.301140E-02
      5219 MEMB     43       QMPE     H4X      HAL2     0.900000E-01   1.00800           0   0.00000     -0.301140E-02
      5220 MEMB     43       QMPE     H4Y      HAL2     0.900000E-01   1.00800           0   0.00000     -0.301140E-02
      5221 MEMB     43       QMPE     C35      CTL2    -0.180000       12.0110           0   0.00000     -0.301140E-02
      5222 MEMB     43       QMPE     H5X      HAL2     0.900000E-01   1.00800           0   0.00000     -0.301140E-02
      5223 MEMB     43       QMPE     H5Y      HAL2     0.900000E-01   1.00800           0   0.00000     -0.301140E-02
      5224 MEMB     43       QMPE     C36      CTL2    -0.180000       12.0110           0   0.00000     -0.301140E-02
      5225 MEMB     43       QMPE     H6X      HAL2     0.900000E-01   1.00800           0   0.00000     -0.301140E-02
      5226 MEMB     43       QMPE     H6Y      HAL2     0.900000E-01   1.00800           0   0.00000     -0.301140E-02
      5227 MEMB     43       QMPE     C37      CTL2    -0.180000       12.0110           0   0.00000     -0.301140E-02
      5228 MEMB     43       QMPE     H7X      HAL2     0.900000E-01   1.00800           0   0.00000     -0.301140E-02
      5229 MEMB     43       QMPE     H7Y      HAL2     0.900000E-01   1.00800           0   0.00000     -0.301140E-02
      5230 MEMB     43       QMPE     C38      CTL2    -0.180000       12.0110           0   0.00000     -0.301140E-02
      5231 MEMB     43       QMPE     H8X      HAL2     0.900000E-01   1.00800           0   0.00000     -0.301140E-02
      5232 MEMB     43       QMPE     H8Y      HAL2     0.900000E-01   1.00800           0   0.00000     -0.301140E-02
      5233 MEMB     43       QMPE     C39      CTL2    -0.180000       12.0110           0   0.00000     -0.301140E-02
      5234 MEMB     43       QMPE     H9X      HAL2     0.900000E-01   1.00800           0   0.00000     -0.301140E-02
      5235 MEMB     43       QMPE     H9Y      HAL2     0.900000E-01   1.00800           0   0.00000     -0.301140E-02
      5236 MEMB     43       QMPE     C310     CTL2    -0.180000       12.0110           0   0.00000     -0.301140E-02
      5237 MEMB     43       QMPE     H10X     HAL2     0.900000E-01   1.00800           0   0.00000     -0.301140E-02
      5238 MEMB     43       QMPE     H10Y     HAL2     0.900000E-01   1.00800           0   0.00000     -0.301140E-02
      5239 MEMB     43       QMPE     C311     CTL2    -0.180000       12.0110           0   0.00000     -0.301140E-02
      5240 MEMB     43       QMPE     H11X     HAL2     0.900000E-01   1.00800           0   0.00000     -0.301140E-02
      5241 MEMB     43       QMPE     H11Y     HAL2     0.900000E-01   1.00800           0   0.00000     -0.301140E-02
      5242 MEMB     43       QMPE     C312     CTL2    -0.180000       12.0110           0   0.00000     -0.301140E-02
      5243 MEMB     43       QMPE     H12X     HAL2     0.900000E-01   1.00800           0   0.00000     -0.301140E-02
      5244 MEMB     43       QMPE     H12Y     HAL2     0.900000E-01   1.00800           0   0.00000     -0.301140E-02
      5245 MEMB     43       QMPE     C313     CTL2    -0.180000       12.0110           0   0.00000     -0.301140E-02
      5246 MEMB     43       QMPE     H13X     HAL2     0.900000E-01   1.00800           0   0.00000     -0.301140E-02
      5247 MEMB     43       QMPE     H13Y     HAL2     0.900000E-01   1.00800           0   0.00000     -0.301140E-02
      5248 MEMB     43       QMPE     C314     CTL2    -0.180000       12.0110           0   0.00000     -0.301140E-02
      5249 MEMB     43       QMPE     H14X     HAL2     0.900000E-01   1.00800           0   0.00000     -0.301140E-02
      5250 MEMB     43       QMPE     H14Y     HAL2     0.900000E-01   1.00800           0   0.00000     -0.301140E-02
      5251 MEMB     43       QMPE     C315     CTL3    -0.270000       12.0110           0   0.00000     -0.301140E-02
      5252 MEMB     43       QMPE     H15X     HAL3     0.900000E-01   1.00800           0   0.00000     -0.301140E-02
      5253 MEMB     43       QMPE     H15Y     HAL3     0.900000E-01   1.00800           0   0.00000     -0.301140E-02
      5254 MEMB     43       QMPE     H15Z     HAL3     0.900000E-01   1.00800           0   0.00000     -0.301140E-02
      5255 MEMB     44       PMPE     N        NH3L    -0.300000       14.0070           0   0.00000     -0.301140E-02
      5256 MEMB     44       PMPE     HN1      HCL      0.330000       1.00800           0   0.00000     -0.301140E-02
      5257 MEMB     44       PMPE     HN2      HCL      0.330000       1.00800           0   0.00000     -0.301140E-02
      5258 MEMB     44       PMPE     HN3      HCL      0.330000       1.00800           0   0.00000     -0.301140E-02
      5259 MEMB     44       PMPE     C12      CTL2     0.130000       12.0110           0   0.00000     -0.301140E-02
      5260 MEMB     44       PMPE     H12A     HAL2     0.900000E-01   1.00800           0   0.00000     -0.301140E-02
      5261 MEMB     44       PMPE     H12B     HAL2     0.900000E-01   1.00800           0   0.00000     -0.301140E-02
      5262 MEMB     44       PMPE     C11      CTL2    -0.800000E-01   12.0110           0   0.00000     -0.301140E-02
      5263 MEMB     44       PMPE     H11A     HAL2     0.900000E-01   1.00800           0   0.00000     -0.301140E-02
      5264 MEMB     44       PMPE     H11B     HAL2     0.900000E-01   1.00800           0   0.00000     -0.301140E-02
      5265 MEMB     44       PMPE     P        PL        1.50000       30.9740           0   0.00000     -0.301140E-02
      5266 MEMB     44       PMPE     O13      O2L     -0.780000       15.9994           0   0.00000     -0.301140E-02
      5267 MEMB     44       PMPE     O14      O2L     -0.780000       15.9994           0   0.00000     -0.301140E-02
      5268 MEMB     44       PMPE     O11      OSLP    -0.570000       15.9994           0   0.00000     -0.301140E-02
      5269 MEMB     44       PMPE     O12      OSLP    -0.570000       15.9994           0   0.00000     -0.301140E-02
      5270 MEMB     44       PMPE     C1       CTL2    -0.800000E-01   12.0110           0   0.00000     -0.301140E-02
      5271 MEMB     44       PMPE     HA       HAL2     0.900000E-01   1.00800           0   0.00000     -0.301140E-02
      5272 MEMB     44       PMPE     HB       HAL2     0.900000E-01   1.00800           0   0.00000     -0.301140E-02
      5273 MEMB     44       PMPE     C2       CTL1     0.170000       12.0110           0   0.00000     -0.301140E-02
      5274 MEMB     44       PMPE     HS       HAL1     0.900000E-01   1.00800           0   0.00000     -0.301140E-02
      5275 MEMB     44       PMPE     O21      OSL     -0.490000       15.9994           0   0.00000     -0.301140E-02
      5276 MEMB     44       PMPE     C21      CL       0.900000       12.0110           0   0.00000     -0.301140E-02
      5277 MEMB     44       PMPE     O22      OBL     -0.630000       15.9994           0   0.00000     -0.301140E-02
      5278 MEMB     44       PMPE     C22      CTL2    -0.220000       12.0110           0   0.00000     -0.301140E-02
      5279 MEMB     44       PMPE     H2R      HAL2     0.900000E-01   1.00800           0   0.00000     -0.301140E-02
      5280 MEMB     44       PMPE     H2S      HAL2     0.900000E-01   1.00800           0   0.00000     -0.301140E-02
      5281 MEMB     44       PMPE     C3       CTL2     0.800000E-01   12.0110           0   0.00000     -0.301140E-02
      5282 MEMB     44       PMPE     HX       HAL2     0.900000E-01   1.00800           0   0.00000     -0.301140E-02
      5283 MEMB     44       PMPE     HY       HAL2     0.900000E-01   1.00800           0   0.00000     -0.301140E-02
      5284 MEMB     44       PMPE     O31      OSL     -0.490000       15.9994           0   0.00000     -0.301140E-02
      5285 MEMB     44       PMPE     C31      CL       0.900000       12.0110           0   0.00000     -0.301140E-02
      5286 MEMB     44       PMPE     O32      OBL     -0.630000       15.9994           0   0.00000     -0.301140E-02
      5287 MEMB     44       PMPE     C32      CTL2    -0.220000       12.0110           0   0.00000     -0.301140E-02
      5288 MEMB     44       PMPE     H2X      HAL2     0.900000E-01   1.00800           0   0.00000     -0.301140E-02
      5289 MEMB     44       PMPE     H2Y      HAL2     0.900000E-01   1.00800           0   0.00000     -0.301140E-02
      5290 MEMB     44       PMPE     C23      CTL2    -0.180000       12.0110           0   0.00000     -0.301140E-02
      5291 MEMB     44       PMPE     H3R      HAL2     0.900000E-01   1.00800           0   0.00000     -0.301140E-02
      5292 MEMB     44       PMPE     H3S      HAL2     0.900000E-01   1.00800           0   0.00000     -0.301140E-02
      5293 MEMB     44       PMPE     C24      CTL2    -0.180000       12.0110           0   0.00000     -0.301140E-02
      5294 MEMB     44       PMPE     H4R      HAL2     0.900000E-01   1.00800           0   0.00000     -0.301140E-02
      5295 MEMB     44       PMPE     H4S      HAL2     0.900000E-01   1.00800           0   0.00000     -0.301140E-02
      5296 MEMB     44       PMPE     C25      CTL2    -0.180000       12.0110           0   0.00000     -0.301140E-02
      5297 MEMB     44       PMPE     H5R      HAL2     0.900000E-01   1.00800           0   0.00000     -0.301140E-02
      5298 MEMB     44       PMPE     H5S      HAL2     0.900000E-01   1.00800           0   0.00000     -0.301140E-02
      5299 MEMB     44       PMPE     C26      CTL2    -0.180000       12.0110           0   0.00000     -0.301140E-02
      5300 MEMB     44       PMPE     H6R      HAL2     0.900000E-01   1.00800           0   0.00000     -0.301140E-02
      5301 MEMB     44       PMPE     H6S      HAL2     0.900000E-01   1.00800           0   0.00000     -0.301140E-02
      5302 MEMB     44       PMPE     C27      CTL2    -0.180000       12.0110           0   0.00000     -0.301140E-02
      5303 MEMB     44       PMPE     H7R      HAL2     0.900000E-01   1.00800           0   0.00000     -0.301140E-02
      5304 MEMB     44       PMPE     H7S      HAL2     0.900000E-01   1.00800           0   0.00000     -0.301140E-02
      5305 MEMB     44       PMPE     C28      CTL2    -0.180000       12.0110           0   0.00000     -0.301140E-02
      5306 MEMB     44       PMPE     H8R      HAL2     0.900000E-01   1.00800           0   0.00000     -0.301140E-02
      5307 MEMB     44       PMPE     H8S      HAL2     0.900000E-01   1.00800           0   0.00000     -0.301140E-02
      5308 MEMB     44       PMPE     C29      CG3RC1  -0.900000E-01   12.0110           0   0.00000     -0.301140E-02
      5309 MEMB     44       PMPE     H9R      HGA1     0.900000E-01   1.00800           0   0.00000     -0.301140E-02
      5310 MEMB     44       PMPE     C217     CG3C31  -0.180000       12.0110           0   0.00000     -0.301140E-02
      5311 MEMB     44       PMPE     H17R     HGA2     0.900000E-01   1.00800           0   0.00000     -0.301140E-02
      5312 MEMB     44       PMPE     H17S     HGA2     0.900000E-01   1.00800           0   0.00000     -0.301140E-02
      5313 MEMB     44       PMPE     C210     CG3RC1  -0.900000E-01   12.0110           0   0.00000     -0.301140E-02
      5314 MEMB     44       PMPE     H10R     HGA1     0.900000E-01   1.00800           0   0.00000     -0.301140E-02
      5315 MEMB     44       PMPE     C211     CTL2    -0.180000       12.0110           0   0.00000     -0.301140E-02
      5316 MEMB     44       PMPE     H11R     HAL2     0.900000E-01   1.00800           0   0.00000     -0.301140E-02
      5317 MEMB     44       PMPE     H11S     HAL2     0.900000E-01   1.00800           0   0.00000     -0.301140E-02
      5318 MEMB     44       PMPE     C212     CTL2    -0.180000       12.0110           0   0.00000     -0.301140E-02
      5319 MEMB     44       PMPE     H12R     HAL2     0.900000E-01   1.00800           0   0.00000     -0.301140E-02
      5320 MEMB     44       PMPE     H12S     HAL2     0.900000E-01   1.00800           0   0.00000     -0.301140E-02
      5321 MEMB     44       PMPE     C213     CTL2    -0.180000       12.0110           0   0.00000     -0.301140E-02
      5322 MEMB     44       PMPE     H13R     HAL2     0.900000E-01   1.00800           0   0.00000     -0.301140E-02
      5323 MEMB     44       PMPE     H13S     HAL2     0.900000E-01   1.00800           0   0.00000     -0.301140E-02
      5324 MEMB     44       PMPE     C214     CTL2    -0.180000       12.0110           0   0.00000     -0.301140E-02
      5325 MEMB     44       PMPE     H14R     HAL2     0.900000E-01   1.00800           0   0.00000     -0.301140E-02
      5326 MEMB     44       PMPE     H14S     HAL2     0.900000E-01   1.00800           0   0.00000     -0.301140E-02
      5327 MEMB     44       PMPE     C215     CTL2    -0.180000       12.0110           0   0.00000     -0.301140E-02
      5328 MEMB     44       PMPE     H15R     HAL2     0.900000E-01   1.00800           0   0.00000     -0.301140E-02
      5329 MEMB     44       PMPE     H15S     HAL2     0.900000E-01   1.00800           0   0.00000     -0.301140E-02
      5330 MEMB     44       PMPE     C216     CTL3    -0.270000       12.0110           0   0.00000     -0.301140E-02
      5331 MEMB     44       PMPE     H16R     HAL3     0.900000E-01   1.00800           0   0.00000     -0.301140E-02
      5332 MEMB     44       PMPE     H16S     HAL3     0.900000E-01   1.00800           0   0.00000     -0.301140E-02
      5333 MEMB     44       PMPE     H16T     HAL3     0.900000E-01   1.00800           0   0.00000     -0.301140E-02
      5334 MEMB     44       PMPE     C33      CTL2    -0.180000       12.0110           0   0.00000     -0.301140E-02
      5335 MEMB     44       PMPE     H3X      HAL2     0.900000E-01   1.00800           0   0.00000     -0.301140E-02
      5336 MEMB     44       PMPE     H3Y      HAL2     0.900000E-01   1.00800           0   0.00000     -0.301140E-02
      5337 MEMB     44       PMPE     C34      CTL2    -0.180000       12.0110           0   0.00000     -0.301140E-02
      5338 MEMB     44       PMPE     H4X      HAL2     0.900000E-01   1.00800           0   0.00000     -0.301140E-02
      5339 MEMB     44       PMPE     H4Y      HAL2     0.900000E-01   1.00800           0   0.00000     -0.301140E-02
      5340 MEMB     44       PMPE     C35      CTL2    -0.180000       12.0110           0   0.00000     -0.301140E-02
      5341 MEMB     44       PMPE     H5X      HAL2     0.900000E-01   1.00800           0   0.00000     -0.301140E-02
      5342 MEMB     44       PMPE     H5Y      HAL2     0.900000E-01   1.00800           0   0.00000     -0.301140E-02
      5343 MEMB     44       PMPE     C36      CTL2    -0.180000       12.0110           0   0.00000     -0.301140E-02
      5344 MEMB     44       PMPE     H6X      HAL2     0.900000E-01   1.00800           0   0.00000     -0.301140E-02
      5345 MEMB     44       PMPE     H6Y      HAL2     0.900000E-01   1.00800           0   0.00000     -0.301140E-02
      5346 MEMB     44       PMPE     C37      CTL2    -0.180000       12.0110           0   0.00000     -0.301140E-02
      5347 MEMB     44       PMPE     H7X      HAL2     0.900000E-01   1.00800           0   0.00000     -0.301140E-02
      5348 MEMB     44       PMPE     H7Y      HAL2     0.900000E-01   1.00800           0   0.00000     -0.301140E-02
      5349 MEMB     44       PMPE     C38      CTL2    -0.180000       12.0110           0   0.00000     -0.301140E-02
      5350 MEMB     44       PMPE     H8X      HAL2     0.900000E-01   1.00800           0   0.00000     -0.301140E-02
      5351 MEMB     44       PMPE     H8Y      HAL2     0.900000E-01   1.00800           0   0.00000     -0.301140E-02
      5352 MEMB     44       PMPE     C39      CTL2    -0.180000       12.0110           0   0.00000     -0.301140E-02
      5353 MEMB     44       PMPE     H9X      HAL2     0.900000E-01   1.00800           0   0.00000     -0.301140E-02
      5354 MEMB     44       PMPE     H9Y      HAL2     0.900000E-01   1.00800           0   0.00000     -0.301140E-02
      5355 MEMB     44       PMPE     C310     CTL2    -0.180000       12.0110           0   0.00000     -0.301140E-02
      5356 MEMB     44       PMPE     H10X     HAL2     0.900000E-01   1.00800           0   0.00000     -0.301140E-02
      5357 MEMB     44       PMPE     H10Y     HAL2     0.900000E-01   1.00800           0   0.00000     -0.301140E-02
      5358 MEMB     44       PMPE     C311     CTL2    -0.180000       12.0110           0   0.00000     -0.301140E-02
      5359 MEMB     44       PMPE     H11X     HAL2     0.900000E-01   1.00800           0   0.00000     -0.301140E-02
      5360 MEMB     44       PMPE     H11Y     HAL2     0.900000E-01   1.00800           0   0.00000     -0.301140E-02
      5361 MEMB     44       PMPE     C312     CTL2    -0.180000       12.0110           0   0.00000     -0.301140E-02
      5362 MEMB     44       PMPE     H12X     HAL2     0.900000E-01   1.00800           0   0.00000     -0.301140E-02
      5363 MEMB     44       PMPE     H12Y     HAL2     0.900000E-01   1.00800           0   0.00000     -0.301140E-02
      5364 MEMB     44       PMPE     C313     CTL2    -0.180000       12.0110           0   0.00000     -0.301140E-02
      5365 MEMB     44       PMPE     H13X     HAL2     0.900000E-01   1.00800           0   0.00000     -0.301140E-02
      5366 MEMB     44       PMPE     H13Y     HAL2     0.900000E-01   1.00800           0   0.00000     -0.301140E-02
      5367 MEMB     44       PMPE     C314     CTL2    -0.180000       12.0110           0   0.00000     -0.301140E-02
      5368 MEMB     44       PMPE     H14X     HAL2     0.900000E-01   1.00800           0   0.00000     -0.301140E-02
      5369 MEMB     44       PMPE     H14Y     HAL2     0.900000E-01   1.00800           0   0.00000     -0.301140E-02
      5370 MEMB     44       PMPE     C315     CTL2    -0.180000       12.0110           0   0.00000     -0.301140E-02
      5371 MEMB     44       PMPE     H15X     HAL2     0.900000E-01   1.00800           0   0.00000     -0.301140E-02
      5372 MEMB     44       PMPE     H15Y     HAL2     0.900000E-01   1.00800           0   0.00000     -0.301140E-02
      5373 MEMB     44       PMPE     C316     CTL3    -0.270000       12.0110           0   0.00000     -0.301140E-02
      5374 MEMB     44       PMPE     H16X     HAL3     0.900000E-01   1.00800           0   0.00000     -0.301140E-02
      5375 MEMB     44       PMPE     H16Y     HAL3     0.900000E-01   1.00800           0   0.00000     -0.301140E-02
      5376 MEMB     44       PMPE     H16Z     HAL3     0.900000E-01   1.00800           0   0.00000     -0.301140E-02
      5377 MEMB     45       PMPE     N        NH3L    -0.300000       14.0070           0   0.00000     -0.301140E-02
      5378 MEMB     45       PMPE     HN1      HCL      0.330000       1.00800           0   0.00000     -0.301140E-02
      5379 MEMB     45       PMPE     HN2      HCL      0.330000       1.00800           0   0.00000     -0.301140E-02
      5380 MEMB     45       PMPE     HN3      HCL      0.330000       1.00800           0   0.00000     -0.301140E-02
      5381 MEMB     45       PMPE     C12      CTL2     0.130000       12.0110           0   0.00000     -0.301140E-02
      5382 MEMB     45       PMPE     H12A     HAL2     0.900000E-01   1.00800           0   0.00000     -0.301140E-02
      5383 MEMB     45       PMPE     H12B     HAL2     0.900000E-01   1.00800           0   0.00000     -0.301140E-02
      5384 MEMB     45       PMPE     C11      CTL2    -0.800000E-01   12.0110           0   0.00000     -0.301140E-02
      5385 MEMB     45       PMPE     H11A     HAL2     0.900000E-01   1.00800           0   0.00000     -0.301140E-02
      5386 MEMB     45       PMPE     H11B     HAL2     0.900000E-01   1.00800           0   0.00000     -0.301140E-02
      5387 MEMB     45       PMPE     P        PL        1.50000       30.9740           0   0.00000     -0.301140E-02
      5388 MEMB     45       PMPE     O13      O2L     -0.780000       15.9994           0   0.00000     -0.301140E-02
      5389 MEMB     45       PMPE     O14      O2L     -0.780000       15.9994           0   0.00000     -0.301140E-02
      5390 MEMB     45       PMPE     O11      OSLP    -0.570000       15.9994           0   0.00000     -0.301140E-02
      5391 MEMB     45       PMPE     O12      OSLP    -0.570000       15.9994           0   0.00000     -0.301140E-02
      5392 MEMB     45       PMPE     C1       CTL2    -0.800000E-01   12.0110           0   0.00000     -0.301140E-02
      5393 MEMB     45       PMPE     HA       HAL2     0.900000E-01   1.00800           0   0.00000     -0.301140E-02
      5394 MEMB     45       PMPE     HB       HAL2     0.900000E-01   1.00800           0   0.00000     -0.301140E-02
      5395 MEMB     45       PMPE     C2       CTL1     0.170000       12.0110           0   0.00000     -0.301140E-02
      5396 MEMB     45       PMPE     HS       HAL1     0.900000E-01   1.00800           0   0.00000     -0.301140E-02
      5397 MEMB     45       PMPE     O21      OSL     -0.490000       15.9994           0   0.00000     -0.301140E-02
      5398 MEMB     45       PMPE     C21      CL       0.900000       12.0110           0   0.00000     -0.301140E-02
      5399 MEMB     45       PMPE     O22      OBL     -0.630000       15.9994           0   0.00000     -0.301140E-02
      5400 MEMB     45       PMPE     C22      CTL2    -0.220000       12.0110           0   0.00000     -0.301140E-02
      5401 MEMB     45       PMPE     H2R      HAL2     0.900000E-01   1.00800           0   0.00000     -0.301140E-02
      5402 MEMB     45       PMPE     H2S      HAL2     0.900000E-01   1.00800           0   0.00000     -0.301140E-02
      5403 MEMB     45       PMPE     C3       CTL2     0.800000E-01   12.0110           0   0.00000     -0.301140E-02
      5404 MEMB     45       PMPE     HX       HAL2     0.900000E-01   1.00800           0   0.00000     -0.301140E-02
      5405 MEMB     45       PMPE     HY       HAL2     0.900000E-01   1.00800           0   0.00000     -0.301140E-02
      5406 MEMB     45       PMPE     O31      OSL     -0.490000       15.9994           0   0.00000     -0.301140E-02
      5407 MEMB     45       PMPE     C31      CL       0.900000       12.0110           0   0.00000     -0.301140E-02
      5408 MEMB     45       PMPE     O32      OBL     -0.630000       15.9994           0   0.00000     -0.301140E-02
      5409 MEMB     45       PMPE     C32      CTL2    -0.220000       12.0110           0   0.00000     -0.301140E-02
      5410 MEMB     45       PMPE     H2X      HAL2     0.900000E-01   1.00800           0   0.00000     -0.301140E-02
      5411 MEMB     45       PMPE     H2Y      HAL2     0.900000E-01   1.00800           0   0.00000     -0.301140E-02
      5412 MEMB     45       PMPE     C23      CTL2    -0.180000       12.0110           0   0.00000     -0.301140E-02
      5413 MEMB     45       PMPE     H3R      HAL2     0.900000E-01   1.00800           0   0.00000     -0.301140E-02
      5414 MEMB     45       PMPE     H3S      HAL2     0.900000E-01   1.00800           0   0.00000     -0.301140E-02
      5415 MEMB     45       PMPE     C24      CTL2    -0.180000       12.0110           0   0.00000     -0.301140E-02
      5416 MEMB     45       PMPE     H4R      HAL2     0.900000E-01   1.00800           0   0.00000     -0.301140E-02
      5417 MEMB     45       PMPE     H4S      HAL2     0.900000E-01   1.00800           0   0.00000     -0.301140E-02
      5418 MEMB     45       PMPE     C25      CTL2    -0.180000       12.0110           0   0.00000     -0.301140E-02
      5419 MEMB     45       PMPE     H5R      HAL2     0.900000E-01   1.00800           0   0.00000     -0.301140E-02
      5420 MEMB     45       PMPE     H5S      HAL2     0.900000E-01   1.00800           0   0.00000     -0.301140E-02
      5421 MEMB     45       PMPE     C26      CTL2    -0.180000       12.0110           0   0.00000     -0.301140E-02
      5422 MEMB     45       PMPE     H6R      HAL2     0.900000E-01   1.00800           0   0.00000     -0.301140E-02
      5423 MEMB     45       PMPE     H6S      HAL2     0.900000E-01   1.00800           0   0.00000     -0.301140E-02
      5424 MEMB     45       PMPE     C27      CTL2    -0.180000       12.0110           0   0.00000     -0.301140E-02
      5425 MEMB     45       PMPE     H7R      HAL2     0.900000E-01   1.00800           0   0.00000     -0.301140E-02
      5426 MEMB     45       PMPE     H7S      HAL2     0.900000E-01   1.00800           0   0.00000     -0.301140E-02
      5427 MEMB     45       PMPE     C28      CTL2    -0.180000       12.0110           0   0.00000     -0.301140E-02
      5428 MEMB     45       PMPE     H8R      HAL2     0.900000E-01   1.00800           0   0.00000     -0.301140E-02
      5429 MEMB     45       PMPE     H8S      HAL2     0.900000E-01   1.00800           0   0.00000     -0.301140E-02
      5430 MEMB     45       PMPE     C29      CG3RC1  -0.900000E-01   12.0110           0   0.00000     -0.301140E-02
      5431 MEMB     45       PMPE     H9R      HGA1     0.900000E-01   1.00800           0   0.00000     -0.301140E-02
      5432 MEMB     45       PMPE     C217     CG3C31  -0.180000       12.0110           0   0.00000     -0.301140E-02
      5433 MEMB     45       PMPE     H17R     HGA2     0.900000E-01   1.00800           0   0.00000     -0.301140E-02
      5434 MEMB     45       PMPE     H17S     HGA2     0.900000E-01   1.00800           0   0.00000     -0.301140E-02
      5435 MEMB     45       PMPE     C210     CG3RC1  -0.900000E-01   12.0110           0   0.00000     -0.301140E-02
      5436 MEMB     45       PMPE     H10R     HGA1     0.900000E-01   1.00800           0   0.00000     -0.301140E-02
      5437 MEMB     45       PMPE     C211     CTL2    -0.180000       12.0110           0   0.00000     -0.301140E-02
      5438 MEMB     45       PMPE     H11R     HAL2     0.900000E-01   1.00800           0   0.00000     -0.301140E-02
      5439 MEMB     45       PMPE     H11S     HAL2     0.900000E-01   1.00800           0   0.00000     -0.301140E-02
      5440 MEMB     45       PMPE     C212     CTL2    -0.180000       12.0110           0   0.00000     -0.301140E-02
      5441 MEMB     45       PMPE     H12R     HAL2     0.900000E-01   1.00800           0   0.00000     -0.301140E-02
      5442 MEMB     45       PMPE     H12S     HAL2     0.900000E-01   1.00800           0   0.00000     -0.301140E-02
      5443 MEMB     45       PMPE     C213     CTL2    -0.180000       12.0110           0   0.00000     -0.301140E-02
      5444 MEMB     45       PMPE     H13R     HAL2     0.900000E-01   1.00800           0   0.00000     -0.301140E-02
      5445 MEMB     45       PMPE     H13S     HAL2     0.900000E-01   1.00800           0   0.00000     -0.301140E-02
      5446 MEMB     45       PMPE     C214     CTL2    -0.180000       12.0110           0   0.00000     -0.301140E-02
      5447 MEMB     45       PMPE     H14R     HAL2     0.900000E-01   1.00800           0   0.00000     -0.301140E-02
      5448 MEMB     45       PMPE     H14S     HAL2     0.900000E-01   1.00800           0   0.00000     -0.301140E-02
      5449 MEMB     45       PMPE     C215     CTL2    -0.180000       12.0110           0   0.00000     -0.301140E-02
      5450 MEMB     45       PMPE     H15R     HAL2     0.900000E-01   1.00800           0   0.00000     -0.301140E-02
      5451 MEMB     45       PMPE     H15S     HAL2     0.900000E-01   1.00800           0   0.00000     -0.301140E-02
      5452 MEMB     45       PMPE     C216     CTL3    -0.270000       12.0110           0   0.00000     -0.301140E-02
      5453 MEMB     45       PMPE     H16R     HAL3     0.900000E-01   1.00800           0   0.00000     -0.301140E-02
      5454 MEMB     45       PMPE     H16S     HAL3     0.900000E-01   1.00800           0   0.00000     -0.301140E-02
      5455 MEMB     45       PMPE     H16T     HAL3     0.900000E-01   1.00800           0   0.00000     -0.301140E-02
      5456 MEMB     45       PMPE     C33      CTL2    -0.180000       12.0110           0   0.00000     -0.301140E-02
      5457 MEMB     45       PMPE     H3X      HAL2     0.900000E-01   1.00800           0   0.00000     -0.301140E-02
      5458 MEMB     45       PMPE     H3Y      HAL2     0.900000E-01   1.00800           0   0.00000     -0.301140E-02
      5459 MEMB     45       PMPE     C34      CTL2    -0.180000       12.0110           0   0.00000     -0.301140E-02
      5460 MEMB     45       PMPE     H4X      HAL2     0.900000E-01   1.00800           0   0.00000     -0.301140E-02
      5461 MEMB     45       PMPE     H4Y      HAL2     0.900000E-01   1.00800           0   0.00000     -0.301140E-02
      5462 MEMB     45       PMPE     C35      CTL2    -0.180000       12.0110           0   0.00000     -0.301140E-02
      5463 MEMB     45       PMPE     H5X      HAL2     0.900000E-01   1.00800           0   0.00000     -0.301140E-02
      5464 MEMB     45       PMPE     H5Y      HAL2     0.900000E-01   1.00800           0   0.00000     -0.301140E-02
      5465 MEMB     45       PMPE     C36      CTL2    -0.180000       12.0110           0   0.00000     -0.301140E-02
      5466 MEMB     45       PMPE     H6X      HAL2     0.900000E-01   1.00800           0   0.00000     -0.301140E-02
      5467 MEMB     45       PMPE     H6Y      HAL2     0.900000E-01   1.00800           0   0.00000     -0.301140E-02
      5468 MEMB     45       PMPE     C37      CTL2    -0.180000       12.0110           0   0.00000     -0.301140E-02
      5469 MEMB     45       PMPE     H7X      HAL2     0.900000E-01   1.00800           0   0.00000     -0.301140E-02
      5470 MEMB     45       PMPE     H7Y      HAL2     0.900000E-01   1.00800           0   0.00000     -0.301140E-02
      5471 MEMB     45       PMPE     C38      CTL2    -0.180000       12.0110           0   0.00000     -0.301140E-02
      5472 MEMB     45       PMPE     H8X      HAL2     0.900000E-01   1.00800           0   0.00000     -0.301140E-02
      5473 MEMB     45       PMPE     H8Y      HAL2     0.900000E-01   1.00800           0   0.00000     -0.301140E-02
      5474 MEMB     45       PMPE     C39      CTL2    -0.180000       12.0110           0   0.00000     -0.301140E-02
      5475 MEMB     45       PMPE     H9X      HAL2     0.900000E-01   1.00800           0   0.00000     -0.301140E-02
      5476 MEMB     45       PMPE     H9Y      HAL2     0.900000E-01   1.00800           0   0.00000     -0.301140E-02
      5477 MEMB     45       PMPE     C310     CTL2    -0.180000       12.0110           0   0.00000     -0.301140E-02
      5478 MEMB     45       PMPE     H10X     HAL2     0.900000E-01   1.00800           0   0.00000     -0.301140E-02
      5479 MEMB     45       PMPE     H10Y     HAL2     0.900000E-01   1.00800           0   0.00000     -0.301140E-02
      5480 MEMB     45       PMPE     C311     CTL2    -0.180000       12.0110           0   0.00000     -0.301140E-02
      5481 MEMB     45       PMPE     H11X     HAL2     0.900000E-01   1.00800           0   0.00000     -0.301140E-02
      5482 MEMB     45       PMPE     H11Y     HAL2     0.900000E-01   1.00800           0   0.00000     -0.301140E-02
      5483 MEMB     45       PMPE     C312     CTL2    -0.180000       12.0110           0   0.00000     -0.301140E-02
      5484 MEMB     45       PMPE     H12X     HAL2     0.900000E-01   1.00800           0   0.00000     -0.301140E-02
      5485 MEMB     45       PMPE     H12Y     HAL2     0.900000E-01   1.00800           0   0.00000     -0.301140E-02
      5486 MEMB     45       PMPE     C313     CTL2    -0.180000       12.0110           0   0.00000     -0.301140E-02
      5487 MEMB     45       PMPE     H13X     HAL2     0.900000E-01   1.00800           0   0.00000     -0.301140E-02
      5488 MEMB     45       PMPE     H13Y     HAL2     0.900000E-01   1.00800           0   0.00000     -0.301140E-02
      5489 MEMB     45       PMPE     C314     CTL2    -0.180000       12.0110           0   0.00000     -0.301140E-02
      5490 MEMB     45       PMPE     H14X     HAL2     0.900000E-01   1.00800           0   0.00000     -0.301140E-02
      5491 MEMB     45       PMPE     H14Y     HAL2     0.900000E-01   1.00800           0   0.00000     -0.301140E-02
      5492 MEMB     45       PMPE     C315     CTL2    -0.180000       12.0110           0   0.00000     -0.301140E-02
      5493 MEMB     45       PMPE     H15X     HAL2     0.900000E-01   1.00800           0   0.00000     -0.301140E-02
      5494 MEMB     45       PMPE     H15Y     HAL2     0.900000E-01   1.00800           0   0.00000     -0.301140E-02
      5495 MEMB     45       PMPE     C316     CTL3    -0.270000       12.0110           0   0.00000     -0.301140E-02
      5496 MEMB     45       PMPE     H16X     HAL3     0.900000E-01   1.00800           0   0.00000     -0.301140E-02
      5497 MEMB     45       PMPE     H16Y     HAL3     0.900000E-01   1.00800           0   0.00000     -0.301140E-02
      5498 MEMB     45       PMPE     H16Z     HAL3     0.900000E-01   1.00800           0   0.00000     -0.301140E-02
      5499 MEMB     46       PMPE     N        NH3L    -0.300000       14.0070           0   0.00000     -0.301140E-02
      5500 MEMB     46       PMPE     HN1      HCL      0.330000       1.00800           0   0.00000     -0.301140E-02
      5501 MEMB     46       PMPE     HN2      HCL      0.330000       1.00800           0   0.00000     -0.301140E-02
      5502 MEMB     46       PMPE     HN3      HCL      0.330000       1.00800           0   0.00000     -0.301140E-02
      5503 MEMB     46       PMPE     C12      CTL2     0.130000       12.0110           0   0.00000     -0.301140E-02
      5504 MEMB     46       PMPE     H12A     HAL2     0.900000E-01   1.00800           0   0.00000     -0.301140E-02
      5505 MEMB     46       PMPE     H12B     HAL2     0.900000E-01   1.00800           0   0.00000     -0.301140E-02
      5506 MEMB     46       PMPE     C11      CTL2    -0.800000E-01   12.0110           0   0.00000     -0.301140E-02
      5507 MEMB     46       PMPE     H11A     HAL2     0.900000E-01   1.00800           0   0.00000     -0.301140E-02
      5508 MEMB     46       PMPE     H11B     HAL2     0.900000E-01   1.00800           0   0.00000     -0.301140E-02
      5509 MEMB     46       PMPE     P        PL        1.50000       30.9740           0   0.00000     -0.301140E-02
      5510 MEMB     46       PMPE     O13      O2L     -0.780000       15.9994           0   0.00000     -0.301140E-02
      5511 MEMB     46       PMPE     O14      O2L     -0.780000       15.9994           0   0.00000     -0.301140E-02
      5512 MEMB     46       PMPE     O11      OSLP    -0.570000       15.9994           0   0.00000     -0.301140E-02
      5513 MEMB     46       PMPE     O12      OSLP    -0.570000       15.9994           0   0.00000     -0.301140E-02
      5514 MEMB     46       PMPE     C1       CTL2    -0.800000E-01   12.0110           0   0.00000     -0.301140E-02
      5515 MEMB     46       PMPE     HA       HAL2     0.900000E-01   1.00800           0   0.00000     -0.301140E-02
      5516 MEMB     46       PMPE     HB       HAL2     0.900000E-01   1.00800           0   0.00000     -0.301140E-02
      5517 MEMB     46       PMPE     C2       CTL1     0.170000       12.0110           0   0.00000     -0.301140E-02
      5518 MEMB     46       PMPE     HS       HAL1     0.900000E-01   1.00800           0   0.00000     -0.301140E-02
      5519 MEMB     46       PMPE     O21      OSL     -0.490000       15.9994           0   0.00000     -0.301140E-02
      5520 MEMB     46       PMPE     C21      CL       0.900000       12.0110           0   0.00000     -0.301140E-02
      5521 MEMB     46       PMPE     O22      OBL     -0.630000       15.9994           0   0.00000     -0.301140E-02
      5522 MEMB     46       PMPE     C22      CTL2    -0.220000       12.0110           0   0.00000     -0.301140E-02
      5523 MEMB     46       PMPE     H2R      HAL2     0.900000E-01   1.00800           0   0.00000     -0.301140E-02
      5524 MEMB     46       PMPE     H2S      HAL2     0.900000E-01   1.00800           0   0.00000     -0.301140E-02
      5525 MEMB     46       PMPE     C3       CTL2     0.800000E-01   12.0110           0   0.00000     -0.301140E-02
      5526 MEMB     46       PMPE     HX       HAL2     0.900000E-01   1.00800           0   0.00000     -0.301140E-02
      5527 MEMB     46       PMPE     HY       HAL2     0.900000E-01   1.00800           0   0.00000     -0.301140E-02
      5528 MEMB     46       PMPE     O31      OSL     -0.490000       15.9994           0   0.00000     -0.301140E-02
      5529 MEMB     46       PMPE     C31      CL       0.900000       12.0110           0   0.00000     -0.301140E-02
      5530 MEMB     46       PMPE     O32      OBL     -0.630000       15.9994           0   0.00000     -0.301140E-02
      5531 MEMB     46       PMPE     C32      CTL2    -0.220000       12.0110           0   0.00000     -0.301140E-02
      5532 MEMB     46       PMPE     H2X      HAL2     0.900000E-01   1.00800           0   0.00000     -0.301140E-02
      5533 MEMB     46       PMPE     H2Y      HAL2     0.900000E-01   1.00800           0   0.00000     -0.301140E-02
      5534 MEMB     46       PMPE     C23      CTL2    -0.180000       12.0110           0   0.00000     -0.301140E-02
      5535 MEMB     46       PMPE     H3R      HAL2     0.900000E-01   1.00800           0   0.00000     -0.301140E-02
      5536 MEMB     46       PMPE     H3S      HAL2     0.900000E-01   1.00800           0   0.00000     -0.301140E-02
      5537 MEMB     46       PMPE     C24      CTL2    -0.180000       12.0110           0   0.00000     -0.301140E-02
      5538 MEMB     46       PMPE     H4R      HAL2     0.900000E-01   1.00800           0   0.00000     -0.301140E-02
      5539 MEMB     46       PMPE     H4S      HAL2     0.900000E-01   1.00800           0   0.00000     -0.301140E-02
      5540 MEMB     46       PMPE     C25      CTL2    -0.180000       12.0110           0   0.00000     -0.301140E-02
      5541 MEMB     46       PMPE     H5R      HAL2     0.900000E-01   1.00800           0   0.00000     -0.301140E-02
      5542 MEMB     46       PMPE     H5S      HAL2     0.900000E-01   1.00800           0   0.00000     -0.301140E-02
      5543 MEMB     46       PMPE     C26      CTL2    -0.180000       12.0110           0   0.00000     -0.301140E-02
      5544 MEMB     46       PMPE     H6R      HAL2     0.900000E-01   1.00800           0   0.00000     -0.301140E-02
      5545 MEMB     46       PMPE     H6S      HAL2     0.900000E-01   1.00800           0   0.00000     -0.301140E-02
      5546 MEMB     46       PMPE     C27      CTL2    -0.180000       12.0110           0   0.00000     -0.301140E-02
      5547 MEMB     46       PMPE     H7R      HAL2     0.900000E-01   1.00800           0   0.00000     -0.301140E-02
      5548 MEMB     46       PMPE     H7S      HAL2     0.900000E-01   1.00800           0   0.00000     -0.301140E-02
      5549 MEMB     46       PMPE     C28      CTL2    -0.180000       12.0110           0   0.00000     -0.301140E-02
      5550 MEMB     46       PMPE     H8R      HAL2     0.900000E-01   1.00800           0   0.00000     -0.301140E-02
      5551 MEMB     46       PMPE     H8S      HAL2     0.900000E-01   1.00800           0   0.00000     -0.301140E-02
      5552 MEMB     46       PMPE     C29      CG3RC1  -0.900000E-01   12.0110           0   0.00000     -0.301140E-02
      5553 MEMB     46       PMPE     H9R      HGA1     0.900000E-01   1.00800           0   0.00000     -0.301140E-02
      5554 MEMB     46       PMPE     C217     CG3C31  -0.180000       12.0110           0   0.00000     -0.301140E-02
      5555 MEMB     46       PMPE     H17R     HGA2     0.900000E-01   1.00800           0   0.00000     -0.301140E-02
      5556 MEMB     46       PMPE     H17S     HGA2     0.900000E-01   1.00800           0   0.00000     -0.301140E-02
      5557 MEMB     46       PMPE     C210     CG3RC1  -0.900000E-01   12.0110           0   0.00000     -0.301140E-02
      5558 MEMB     46       PMPE     H10R     HGA1     0.900000E-01   1.00800           0   0.00000     -0.301140E-02
      5559 MEMB     46       PMPE     C211     CTL2    -0.180000       12.0110           0   0.00000     -0.301140E-02
      5560 MEMB     46       PMPE     H11R     HAL2     0.900000E-01   1.00800           0   0.00000     -0.301140E-02
      5561 MEMB     46       PMPE     H11S     HAL2     0.900000E-01   1.00800           0   0.00000     -0.301140E-02
      5562 MEMB     46       PMPE     C212     CTL2    -0.180000       12.0110           0   0.00000     -0.301140E-02
      5563 MEMB     46       PMPE     H12R     HAL2     0.900000E-01   1.00800           0   0.00000     -0.301140E-02
      5564 MEMB     46       PMPE     H12S     HAL2     0.900000E-01   1.00800           0   0.00000     -0.301140E-02
      5565 MEMB     46       PMPE     C213     CTL2    -0.180000       12.0110           0   0.00000     -0.301140E-02
      5566 MEMB     46       PMPE     H13R     HAL2     0.900000E-01   1.00800           0   0.00000     -0.301140E-02
      5567 MEMB     46       PMPE     H13S     HAL2     0.900000E-01   1.00800           0   0.00000     -0.301140E-02
      5568 MEMB     46       PMPE     C214     CTL2    -0.180000       12.0110           0   0.00000     -0.301140E-02
      5569 MEMB     46       PMPE     H14R     HAL2     0.900000E-01   1.00800           0   0.00000     -0.301140E-02
      5570 MEMB     46       PMPE     H14S     HAL2     0.900000E-01   1.00800           0   0.00000     -0.301140E-02
      5571 MEMB     46       PMPE     C215     CTL2    -0.180000       12.0110           0   0.00000     -0.301140E-02
      5572 MEMB     46       PMPE     H15R     HAL2     0.900000E-01   1.00800           0   0.00000     -0.301140E-02
      5573 MEMB     46       PMPE     H15S     HAL2     0.900000E-01   1.00800           0   0.00000     -0.301140E-02
      5574 MEMB     46       PMPE     C216     CTL3    -0.270000       12.0110           0   0.00000     -0.301140E-02
      5575 MEMB     46       PMPE     H16R     HAL3     0.900000E-01   1.00800           0   0.00000     -0.301140E-02
      5576 MEMB     46       PMPE     H16S     HAL3     0.900000E-01   1.00800           0   0.00000     -0.301140E-02
      5577 MEMB     46       PMPE     H16T     HAL3     0.900000E-01   1.00800           0   0.00000     -0.301140E-02
      5578 MEMB     46       PMPE     C33      CTL2    -0.180000       12.0110           0   0.00000     -0.301140E-02
      5579 MEMB     46       PMPE     H3X      HAL2     0.900000E-01   1.00800           0   0.00000     -0.301140E-02
      5580 MEMB     46       PMPE     H3Y      HAL2     0.900000E-01   1.00800           0   0.00000     -0.301140E-02
      5581 MEMB     46       PMPE     C34      CTL2    -0.180000       12.0110           0   0.00000     -0.301140E-02
      5582 MEMB     46       PMPE     H4X      HAL2     0.900000E-01   1.00800           0   0.00000     -0.301140E-02
      5583 MEMB     46       PMPE     H4Y      HAL2     0.900000E-01   1.00800           0   0.00000     -0.301140E-02
      5584 MEMB     46       PMPE     C35      CTL2    -0.180000       12.0110           0   0.00000     -0.301140E-02
      5585 MEMB     46       PMPE     H5X      HAL2     0.900000E-01   1.00800           0   0.00000     -0.301140E-02
      5586 MEMB     46       PMPE     H5Y      HAL2     0.900000E-01   1.00800           0   0.00000     -0.301140E-02
      5587 MEMB     46       PMPE     C36      CTL2    -0.180000       12.0110           0   0.00000     -0.301140E-02
      5588 MEMB     46       PMPE     H6X      HAL2     0.900000E-01   1.00800           0   0.00000     -0.301140E-02
      5589 MEMB     46       PMPE     H6Y      HAL2     0.900000E-01   1.00800           0   0.00000     -0.301140E-02
      5590 MEMB     46       PMPE     C37      CTL2    -0.180000       12.0110           0   0.00000     -0.301140E-02
      5591 MEMB     46       PMPE     H7X      HAL2     0.900000E-01   1.00800           0   0.00000     -0.301140E-02
      5592 MEMB     46       PMPE     H7Y      HAL2     0.900000E-01   1.00800           0   0.00000     -0.301140E-02
      5593 MEMB     46       PMPE     C38      CTL2    -0.180000       12.0110           0   0.00000     -0.301140E-02
      5594 MEMB     46       PMPE     H8X      HAL2     0.900000E-01   1.00800           0   0.00000     -0.301140E-02
      5595 MEMB     46       PMPE     H8Y      HAL2     0.900000E-01   1.00800           0   0.00000     -0.301140E-02
      5596 MEMB     46       PMPE     C39      CTL2    -0.180000       12.0110           0   0.00000     -0.301140E-02
      5597 MEMB     46       PMPE     H9X      HAL2     0.900000E-01   1.00800           0   0.00000     -0.301140E-02
      5598 MEMB     46       PMPE     H9Y      HAL2     0.900000E-01   1.00800           0   0.00000     -0.301140E-02
      5599 MEMB     46       PMPE     C310     CTL2    -0.180000       12.0110           0   0.00000     -0.301140E-02
      5600 MEMB     46       PMPE     H10X     HAL2     0.900000E-01   1.00800           0   0.00000     -0.301140E-02
      5601 MEMB     46       PMPE     H10Y     HAL2     0.900000E-01   1.00800           0   0.00000     -0.301140E-02
      5602 MEMB     46       PMPE     C311     CTL2    -0.180000       12.0110           0   0.00000     -0.301140E-02
      5603 MEMB     46       PMPE     H11X     HAL2     0.900000E-01   1.00800           0   0.00000     -0.301140E-02
      5604 MEMB     46       PMPE     H11Y     HAL2     0.900000E-01   1.00800           0   0.00000     -0.301140E-02
      5605 MEMB     46       PMPE     C312     CTL2    -0.180000       12.0110           0   0.00000     -0.301140E-02
      5606 MEMB     46       PMPE     H12X     HAL2     0.900000E-01   1.00800           0   0.00000     -0.301140E-02
      5607 MEMB     46       PMPE     H12Y     HAL2     0.900000E-01   1.00800           0   0.00000     -0.301140E-02
      5608 MEMB     46       PMPE     C313     CTL2    -0.180000       12.0110           0   0.00000     -0.301140E-02
      5609 MEMB     46       PMPE     H13X     HAL2     0.900000E-01   1.00800           0   0.00000     -0.301140E-02
      5610 MEMB     46       PMPE     H13Y     HAL2     0.900000E-01   1.00800           0   0.00000     -0.301140E-02
      5611 MEMB     46       PMPE     C314     CTL2    -0.180000       12.0110           0   0.00000     -0.301140E-02
      5612 MEMB     46       PMPE     H14X     HAL2     0.900000E-01   1.00800           0   0.00000     -0.301140E-02
      5613 MEMB     46       PMPE     H14Y     HAL2     0.900000E-01   1.00800           0   0.00000     -0.301140E-02
      5614 MEMB     46       PMPE     C315     CTL2    -0.180000       12.0110           0   0.00000     -0.301140E-02
      5615 MEMB     46       PMPE     H15X     HAL2     0.900000E-01   1.00800           0   0.00000     -0.301140E-02
      5616 MEMB     46       PMPE     H15Y     HAL2     0.900000E-01   1.00800           0   0.00000     -0.301140E-02
      5617 MEMB     46       PMPE     C316     CTL3    -0.270000       12.0110           0   0.00000     -0.301140E-02
      5618 MEMB     46       PMPE     H16X     HAL3     0.900000E-01   1.00800           0   0.00000     -0.301140E-02
      5619 MEMB     46       PMPE     H16Y     HAL3     0.900000E-01   1.00800           0   0.00000     -0.301140E-02
      5620 MEMB     46       PMPE     H16Z     HAL3     0.900000E-01   1.00800           0   0.00000     -0.301140E-02
      5621 MEMB     47       PMPG     C13      CTL2     0.500000E-01   12.0110           0   0.00000     -0.301140E-02
      5622 MEMB     47       PMPG     H13A     HAL2     0.900000E-01   1.00800           0   0.00000     -0.301140E-02
      5623 MEMB     47       PMPG     H13B     HAL2     0.900000E-01   1.00800           0   0.00000     -0.301140E-02
      5624 MEMB     47       PMPG     OC3      OHL     -0.660000       15.9994           0   0.00000     -0.301140E-02
      5625 MEMB     47       PMPG     HO3      HOL      0.430000       1.00800           0   0.00000     -0.301140E-02
      5626 MEMB     47       PMPG     C12      CTL1     0.140000       12.0110           0   0.00000     -0.301140E-02
      5627 MEMB     47       PMPG     H12A     HAL1     0.900000E-01   1.00800           0   0.00000     -0.301140E-02
      5628 MEMB     47       PMPG     OC2      OHL     -0.660000       15.9994           0   0.00000     -0.301140E-02
      5629 MEMB     47       PMPG     HO2      HOL      0.430000       1.00800           0   0.00000     -0.301140E-02
      5630 MEMB     47       PMPG     C11      CTL2    -0.800000E-01   12.0110           0   0.00000     -0.301140E-02
      5631 MEMB     47       PMPG     H11A     HAL2     0.900000E-01   1.00800           0   0.00000     -0.301140E-02
      5632 MEMB     47       PMPG     H11B     HAL2     0.900000E-01   1.00800           0   0.00000     -0.301140E-02
      5633 MEMB     47       PMPG     P        PL        1.50000       30.9740           0   0.00000     -0.301140E-02
      5634 MEMB     47       PMPG     O13      O2L     -0.780000       15.9994           0   0.00000     -0.301140E-02
      5635 MEMB     47       PMPG     O14      O2L     -0.780000       15.9994           0   0.00000     -0.301140E-02
      5636 MEMB     47       PMPG     O11      OSLP    -0.570000       15.9994           0   0.00000     -0.301140E-02
      5637 MEMB     47       PMPG     O12      OSLP    -0.570000       15.9994           0   0.00000     -0.301140E-02
      5638 MEMB     47       PMPG     C1       CTL2    -0.800000E-01   12.0110           0   0.00000     -0.301140E-02
      5639 MEMB     47       PMPG     HA       HAL2     0.900000E-01   1.00800           0   0.00000     -0.301140E-02
      5640 MEMB     47       PMPG     HB       HAL2     0.900000E-01   1.00800           0   0.00000     -0.301140E-02
      5641 MEMB     47       PMPG     C2       CTL1     0.170000       12.0110           0   0.00000     -0.301140E-02
      5642 MEMB     47       PMPG     HS       HAL1     0.900000E-01   1.00800           0   0.00000     -0.301140E-02
      5643 MEMB     47       PMPG     O21      OSL     -0.490000       15.9994           0   0.00000     -0.301140E-02
      5644 MEMB     47       PMPG     C21      CL       0.900000       12.0110           0   0.00000     -0.301140E-02
      5645 MEMB     47       PMPG     O22      OBL     -0.630000       15.9994           0   0.00000     -0.301140E-02
      5646 MEMB     47       PMPG     C22      CTL2    -0.220000       12.0110           0   0.00000     -0.301140E-02
      5647 MEMB     47       PMPG     H2R      HAL2     0.900000E-01   1.00800           0   0.00000     -0.301140E-02
      5648 MEMB     47       PMPG     H2S      HAL2     0.900000E-01   1.00800           0   0.00000     -0.301140E-02
      5649 MEMB     47       PMPG     C3       CTL2     0.800000E-01   12.0110           0   0.00000     -0.301140E-02
      5650 MEMB     47       PMPG     HX       HAL2     0.900000E-01   1.00800           0   0.00000     -0.301140E-02
      5651 MEMB     47       PMPG     HY       HAL2     0.900000E-01   1.00800           0   0.00000     -0.301140E-02
      5652 MEMB     47       PMPG     O31      OSL     -0.490000       15.9994           0   0.00000     -0.301140E-02
      5653 MEMB     47       PMPG     C31      CL       0.900000       12.0110           0   0.00000     -0.301140E-02
      5654 MEMB     47       PMPG     O32      OBL     -0.630000       15.9994           0   0.00000     -0.301140E-02
      5655 MEMB     47       PMPG     C32      CTL2    -0.220000       12.0110           0   0.00000     -0.301140E-02
      5656 MEMB     47       PMPG     H2X      HAL2     0.900000E-01   1.00800           0   0.00000     -0.301140E-02
      5657 MEMB     47       PMPG     H2Y      HAL2     0.900000E-01   1.00800           0   0.00000     -0.301140E-02
      5658 MEMB     47       PMPG     C23      CTL2    -0.180000       12.0110           0   0.00000     -0.301140E-02
      5659 MEMB     47       PMPG     H3R      HAL2     0.900000E-01   1.00800           0   0.00000     -0.301140E-02
      5660 MEMB     47       PMPG     H3S      HAL2     0.900000E-01   1.00800           0   0.00000     -0.301140E-02
      5661 MEMB     47       PMPG     C24      CTL2    -0.180000       12.0110           0   0.00000     -0.301140E-02
      5662 MEMB     47       PMPG     H4R      HAL2     0.900000E-01   1.00800           0   0.00000     -0.301140E-02
      5663 MEMB     47       PMPG     H4S      HAL2     0.900000E-01   1.00800           0   0.00000     -0.301140E-02
      5664 MEMB     47       PMPG     C25      CTL2    -0.180000       12.0110           0   0.00000     -0.301140E-02
      5665 MEMB     47       PMPG     H5R      HAL2     0.900000E-01   1.00800           0   0.00000     -0.301140E-02
      5666 MEMB     47       PMPG     H5S      HAL2     0.900000E-01   1.00800           0   0.00000     -0.301140E-02
      5667 MEMB     47       PMPG     C26      CTL2    -0.180000       12.0110           0   0.00000     -0.301140E-02
      5668 MEMB     47       PMPG     H6R      HAL2     0.900000E-01   1.00800           0   0.00000     -0.301140E-02
      5669 MEMB     47       PMPG     H6S      HAL2     0.900000E-01   1.00800           0   0.00000     -0.301140E-02
      5670 MEMB     47       PMPG     C27      CTL2    -0.180000       12.0110           0   0.00000     -0.301140E-02
      5671 MEMB     47       PMPG     H7R      HAL2     0.900000E-01   1.00800           0   0.00000     -0.301140E-02
      5672 MEMB     47       PMPG     H7S      HAL2     0.900000E-01   1.00800           0   0.00000     -0.301140E-02
      5673 MEMB     47       PMPG     C28      CTL2    -0.180000       12.0110           0   0.00000     -0.301140E-02
      5674 MEMB     47       PMPG     H8R      HAL2     0.900000E-01   1.00800           0   0.00000     -0.301140E-02
      5675 MEMB     47       PMPG     H8S      HAL2     0.900000E-01   1.00800           0   0.00000     -0.301140E-02
      5676 MEMB     47       PMPG     C29      CG3RC1  -0.900000E-01   12.0110           0   0.00000     -0.301140E-02
      5677 MEMB     47       PMPG     H9R      HGA1     0.900000E-01   1.00800           0   0.00000     -0.301140E-02
      5678 MEMB     47       PMPG     C217     CG3C31  -0.180000       12.0110           0   0.00000     -0.301140E-02
      5679 MEMB     47       PMPG     H17R     HGA2     0.900000E-01   1.00800           0   0.00000     -0.301140E-02
      5680 MEMB     47       PMPG     H17S     HGA2     0.900000E-01   1.00800           0   0.00000     -0.301140E-02
      5681 MEMB     47       PMPG     C210     CG3RC1  -0.900000E-01   12.0110           0   0.00000     -0.301140E-02
      5682 MEMB     47       PMPG     H10R     HGA1     0.900000E-01   1.00800           0   0.00000     -0.301140E-02
      5683 MEMB     47       PMPG     C211     CTL2    -0.180000       12.0110           0   0.00000     -0.301140E-02
      5684 MEMB     47       PMPG     H11R     HAL2     0.900000E-01   1.00800           0   0.00000     -0.301140E-02
      5685 MEMB     47       PMPG     H11S     HAL2     0.900000E-01   1.00800           0   0.00000     -0.301140E-02
      5686 MEMB     47       PMPG     C212     CTL2    -0.180000       12.0110           0   0.00000     -0.301140E-02
      5687 MEMB     47       PMPG     H12R     HAL2     0.900000E-01   1.00800           0   0.00000     -0.301140E-02
      5688 MEMB     47       PMPG     H12S     HAL2     0.900000E-01   1.00800           0   0.00000     -0.301140E-02
      5689 MEMB     47       PMPG     C213     CTL2    -0.180000       12.0110           0   0.00000     -0.301140E-02
      5690 MEMB     47       PMPG     H13R     HAL2     0.900000E-01   1.00800           0   0.00000     -0.301140E-02
      5691 MEMB     47       PMPG     H13S     HAL2     0.900000E-01   1.00800           0   0.00000     -0.301140E-02
      5692 MEMB     47       PMPG     C214     CTL2    -0.180000       12.0110           0   0.00000     -0.301140E-02
      5693 MEMB     47       PMPG     H14R     HAL2     0.900000E-01   1.00800           0   0.00000     -0.301140E-02
      5694 MEMB     47       PMPG     H14S     HAL2     0.900000E-01   1.00800           0   0.00000     -0.301140E-02
      5695 MEMB     47       PMPG     C215     CTL2    -0.180000       12.0110           0   0.00000     -0.301140E-02
      5696 MEMB     47       PMPG     H15R     HAL2     0.900000E-01   1.00800           0   0.00000     -0.301140E-02
      5697 MEMB     47       PMPG     H15S     HAL2     0.900000E-01   1.00800           0   0.00000     -0.301140E-02
      5698 MEMB     47       PMPG     C216     CTL3    -0.270000       12.0110           0   0.00000     -0.301140E-02
      5699 MEMB     47       PMPG     H16R     HAL3     0.900000E-01   1.00800           0   0.00000     -0.301140E-02
      5700 MEMB     47       PMPG     H16S     HAL3     0.900000E-01   1.00800           0   0.00000     -0.301140E-02
      5701 MEMB     47       PMPG     H16T     HAL3     0.900000E-01   1.00800           0   0.00000     -0.301140E-02
      5702 MEMB     47       PMPG     C33      CTL2    -0.180000       12.0110           0   0.00000     -0.301140E-02
      5703 MEMB     47       PMPG     H3X      HAL2     0.900000E-01   1.00800           0   0.00000     -0.301140E-02
      5704 MEMB     47       PMPG     H3Y      HAL2     0.900000E-01   1.00800           0   0.00000     -0.301140E-02
      5705 MEMB     47       PMPG     C34      CTL2    -0.180000       12.0110           0   0.00000     -0.301140E-02
      5706 MEMB     47       PMPG     H4X      HAL2     0.900000E-01   1.00800           0   0.00000     -0.301140E-02
      5707 MEMB     47       PMPG     H4Y      HAL2     0.900000E-01   1.00800           0   0.00000     -0.301140E-02
      5708 MEMB     47       PMPG     C35      CTL2    -0.180000       12.0110           0   0.00000     -0.301140E-02
      5709 MEMB     47       PMPG     H5X      HAL2     0.900000E-01   1.00800           0   0.00000     -0.301140E-02
      5710 MEMB     47       PMPG     H5Y      HAL2     0.900000E-01   1.00800           0   0.00000     -0.301140E-02
      5711 MEMB     47       PMPG     C36      CTL2    -0.180000       12.0110           0   0.00000     -0.301140E-02
      5712 MEMB     47       PMPG     H6X      HAL2     0.900000E-01   1.00800           0   0.00000     -0.301140E-02
      5713 MEMB     47       PMPG     H6Y      HAL2     0.900000E-01   1.00800           0   0.00000     -0.301140E-02
      5714 MEMB     47       PMPG     C37      CTL2    -0.180000       12.0110           0   0.00000     -0.301140E-02
      5715 MEMB     47       PMPG     H7X      HAL2     0.900000E-01   1.00800           0   0.00000     -0.301140E-02
      5716 MEMB     47       PMPG     H7Y      HAL2     0.900000E-01   1.00800           0   0.00000     -0.301140E-02
      5717 MEMB     47       PMPG     C38      CTL2    -0.180000       12.0110           0   0.00000     -0.301140E-02
      5718 MEMB     47       PMPG     H8X      HAL2     0.900000E-01   1.00800           0   0.00000     -0.301140E-02
      5719 MEMB     47       PMPG     H8Y      HAL2     0.900000E-01   1.00800           0   0.00000     -0.301140E-02
      5720 MEMB     47       PMPG     C39      CTL2    -0.180000       12.0110           0   0.00000     -0.301140E-02
      5721 MEMB     47       PMPG     H9X      HAL2     0.900000E-01   1.00800           0   0.00000     -0.301140E-02
      5722 MEMB     47       PMPG     H9Y      HAL2     0.900000E-01   1.00800           0   0.00000     -0.301140E-02
      5723 MEMB     47       PMPG     C310     CTL2    -0.180000       12.0110           0   0.00000     -0.301140E-02
      5724 MEMB     47       PMPG     H10X     HAL2     0.900000E-01   1.00800           0   0.00000     -0.301140E-02
      5725 MEMB     47       PMPG     H10Y     HAL2     0.900000E-01   1.00800           0   0.00000     -0.301140E-02
      5726 MEMB     47       PMPG     C311     CTL2    -0.180000       12.0110           0   0.00000     -0.301140E-02
      5727 MEMB     47       PMPG     H11X     HAL2     0.900000E-01   1.00800           0   0.00000     -0.301140E-02
      5728 MEMB     47       PMPG     H11Y     HAL2     0.900000E-01   1.00800           0   0.00000     -0.301140E-02
      5729 MEMB     47       PMPG     C312     CTL2    -0.180000       12.0110           0   0.00000     -0.301140E-02
      5730 MEMB     47       PMPG     H12X     HAL2     0.900000E-01   1.00800           0   0.00000     -0.301140E-02
      5731 MEMB     47       PMPG     H12Y     HAL2     0.900000E-01   1.00800           0   0.00000     -0.301140E-02
      5732 MEMB     47       PMPG     C313     CTL2    -0.180000       12.0110           0   0.00000     -0.301140E-02
      5733 MEMB     47       PMPG     H13X     HAL2     0.900000E-01   1.00800           0   0.00000     -0.301140E-02
      5734 MEMB     47       PMPG     H13Y     HAL2     0.900000E-01   1.00800           0   0.00000     -0.301140E-02
      5735 MEMB     47       PMPG     C314     CTL2    -0.180000       12.0110           0   0.00000     -0.301140E-02
      5736 MEMB     47       PMPG     H14X     HAL2     0.900000E-01   1.00800           0   0.00000     -0.301140E-02
      5737 MEMB     47       PMPG     H14Y     HAL2     0.900000E-01   1.00800           0   0.00000     -0.301140E-02
      5738 MEMB     47       PMPG     C315     CTL2    -0.180000       12.0110           0   0.00000     -0.301140E-02
      5739 MEMB     47       PMPG     H15X     HAL2     0.900000E-01   1.00800           0   0.00000     -0.301140E-02
      5740 MEMB     47       PMPG     H15Y     HAL2     0.900000E-01   1.00800           0   0.00000     -0.301140E-02
      5741 MEMB     47       PMPG     C316     CTL3    -0.270000       12.0110           0   0.00000     -0.301140E-02
      5742 MEMB     47       PMPG     H16X     HAL3     0.900000E-01   1.00800           0   0.00000     -0.301140E-02
      5743 MEMB     47       PMPG     H16Y     HAL3     0.900000E-01   1.00800           0   0.00000     -0.301140E-02
      5744 MEMB     47       PMPG     H16Z     HAL3     0.900000E-01   1.00800           0   0.00000     -0.301140E-02
      5745 MEMB     48       PYPG     C13      CTL2     0.500000E-01   12.0110           0   0.00000     -0.301140E-02
      5746 MEMB     48       PYPG     H13A     HAL2     0.900000E-01   1.00800           0   0.00000     -0.301140E-02
      5747 MEMB     48       PYPG     H13B     HAL2     0.900000E-01   1.00800           0   0.00000     -0.301140E-02
      5748 MEMB     48       PYPG     OC3      OHL     -0.660000       15.9994           0   0.00000     -0.301140E-02
      5749 MEMB     48       PYPG     HO3      HOL      0.430000       1.00800           0   0.00000     -0.301140E-02
      5750 MEMB     48       PYPG     C12      CTL1     0.140000       12.0110           0   0.00000     -0.301140E-02
      5751 MEMB     48       PYPG     H12A     HAL1     0.900000E-01   1.00800           0   0.00000     -0.301140E-02
      5752 MEMB     48       PYPG     OC2      OHL     -0.660000       15.9994           0   0.00000     -0.301140E-02
      5753 MEMB     48       PYPG     HO2      HOL      0.430000       1.00800           0   0.00000     -0.301140E-02
      5754 MEMB     48       PYPG     C11      CTL2    -0.800000E-01   12.0110           0   0.00000     -0.301140E-02
      5755 MEMB     48       PYPG     H11A     HAL2     0.900000E-01   1.00800           0   0.00000     -0.301140E-02
      5756 MEMB     48       PYPG     H11B     HAL2     0.900000E-01   1.00800           0   0.00000     -0.301140E-02
      5757 MEMB     48       PYPG     P        PL        1.50000       30.9740           0   0.00000     -0.301140E-02
      5758 MEMB     48       PYPG     O13      O2L     -0.780000       15.9994           0   0.00000     -0.301140E-02
      5759 MEMB     48       PYPG     O14      O2L     -0.780000       15.9994           0   0.00000     -0.301140E-02
      5760 MEMB     48       PYPG     O11      OSLP    -0.570000       15.9994           0   0.00000     -0.301140E-02
      5761 MEMB     48       PYPG     O12      OSLP    -0.570000       15.9994           0   0.00000     -0.301140E-02
      5762 MEMB     48       PYPG     C1       CTL2    -0.800000E-01   12.0110           0   0.00000     -0.301140E-02
      5763 MEMB     48       PYPG     HA       HAL2     0.900000E-01   1.00800           0   0.00000     -0.301140E-02
      5764 MEMB     48       PYPG     HB       HAL2     0.900000E-01   1.00800           0   0.00000     -0.301140E-02
      5765 MEMB     48       PYPG     C2       CTL1     0.170000       12.0110           0   0.00000     -0.301140E-02
      5766 MEMB     48       PYPG     HS       HAL1     0.900000E-01   1.00800           0   0.00000     -0.301140E-02
      5767 MEMB     48       PYPG     O21      OSL     -0.490000       15.9994           0   0.00000     -0.301140E-02
      5768 MEMB     48       PYPG     C21      CL       0.900000       12.0110           0   0.00000     -0.301140E-02
      5769 MEMB     48       PYPG     O22      OBL     -0.630000       15.9994           0   0.00000     -0.301140E-02
      5770 MEMB     48       PYPG     C22      CTL2    -0.220000       12.0110           0   0.00000     -0.301140E-02
      5771 MEMB     48       PYPG     H2R      HAL2     0.900000E-01   1.00800           0   0.00000     -0.301140E-02
      5772 MEMB     48       PYPG     H2S      HAL2     0.900000E-01   1.00800           0   0.00000     -0.301140E-02
      5773 MEMB     48       PYPG     C3       CTL2     0.800000E-01   12.0110           0   0.00000     -0.301140E-02
      5774 MEMB     48       PYPG     HX       HAL2     0.900000E-01   1.00800           0   0.00000     -0.301140E-02
      5775 MEMB     48       PYPG     HY       HAL2     0.900000E-01   1.00800           0   0.00000     -0.301140E-02
      5776 MEMB     48       PYPG     O31      OSL     -0.490000       15.9994           0   0.00000     -0.301140E-02
      5777 MEMB     48       PYPG     C31      CL       0.900000       12.0110           0   0.00000     -0.301140E-02
      5778 MEMB     48       PYPG     O32      OBL     -0.630000       15.9994           0   0.00000     -0.301140E-02
      5779 MEMB     48       PYPG     C32      CTL2    -0.220000       12.0110           0   0.00000     -0.301140E-02
      5780 MEMB     48       PYPG     H2X      HAL2     0.900000E-01   1.00800           0   0.00000     -0.301140E-02
      5781 MEMB     48       PYPG     H2Y      HAL2     0.900000E-01   1.00800           0   0.00000     -0.301140E-02
      5782 MEMB     48       PYPG     C23      CTL2    -0.180000       12.0110           0   0.00000     -0.301140E-02
      5783 MEMB     48       PYPG     H3R      HAL2     0.900000E-01   1.00800           0   0.00000     -0.301140E-02
      5784 MEMB     48       PYPG     H3S      HAL2     0.900000E-01   1.00800           0   0.00000     -0.301140E-02
      5785 MEMB     48       PYPG     C24      CTL2    -0.180000       12.0110           0   0.00000     -0.301140E-02
      5786 MEMB     48       PYPG     H4R      HAL2     0.900000E-01   1.00800           0   0.00000     -0.301140E-02
      5787 MEMB     48       PYPG     H4S      HAL2     0.900000E-01   1.00800           0   0.00000     -0.301140E-02
      5788 MEMB     48       PYPG     C25      CTL2    -0.180000       12.0110           0   0.00000     -0.301140E-02
      5789 MEMB     48       PYPG     H5R      HAL2     0.900000E-01   1.00800           0   0.00000     -0.301140E-02
      5790 MEMB     48       PYPG     H5S      HAL2     0.900000E-01   1.00800           0   0.00000     -0.301140E-02
      5791 MEMB     48       PYPG     C26      CTL2    -0.180000       12.0110           0   0.00000     -0.301140E-02
      5792 MEMB     48       PYPG     H6R      HAL2     0.900000E-01   1.00800           0   0.00000     -0.301140E-02
      5793 MEMB     48       PYPG     H6S      HAL2     0.900000E-01   1.00800           0   0.00000     -0.301140E-02
      5794 MEMB     48       PYPG     C27      CTL2    -0.180000       12.0110           0   0.00000     -0.301140E-02
      5795 MEMB     48       PYPG     H7R      HAL2     0.900000E-01   1.00800           0   0.00000     -0.301140E-02
      5796 MEMB     48       PYPG     H7S      HAL2     0.900000E-01   1.00800           0   0.00000     -0.301140E-02
      5797 MEMB     48       PYPG     C28      CTL2    -0.180000       12.0110           0   0.00000     -0.301140E-02
      5798 MEMB     48       PYPG     H8R      HAL2     0.900000E-01   1.00800           0   0.00000     -0.301140E-02
      5799 MEMB     48       PYPG     H8S      HAL2     0.900000E-01   1.00800           0   0.00000     -0.301140E-02
      5800 MEMB     48       PYPG     C29      CEL1    -0.150000       12.0110           0   0.00000     -0.301140E-02
      5801 MEMB     48       PYPG     H9R      HEL1     0.150000       1.00800           0   0.00000     -0.301140E-02
      5802 MEMB     48       PYPG     C210     CEL1    -0.150000       12.0110           0   0.00000     -0.301140E-02
      5803 MEMB     48       PYPG     H10R     HEL1     0.150000       1.00800           0   0.00000     -0.301140E-02
      5804 MEMB     48       PYPG     C211     CTL2    -0.180000       12.0110           0   0.00000     -0.301140E-02
      5805 MEMB     48       PYPG     H11R     HAL2     0.900000E-01   1.00800           0   0.00000     -0.301140E-02
      5806 MEMB     48       PYPG     H11S     HAL2     0.900000E-01   1.00800           0   0.00000     -0.301140E-02
      5807 MEMB     48       PYPG     C212     CTL2    -0.180000       12.0110           0   0.00000     -0.301140E-02
      5808 MEMB     48       PYPG     H12R     HAL2     0.900000E-01   1.00800           0   0.00000     -0.301140E-02
      5809 MEMB     48       PYPG     H12S     HAL2     0.900000E-01   1.00800           0   0.00000     -0.301140E-02
      5810 MEMB     48       PYPG     C213     CTL2    -0.180000       12.0110           0   0.00000     -0.301140E-02
      5811 MEMB     48       PYPG     H13R     HAL2     0.900000E-01   1.00800           0   0.00000     -0.301140E-02
      5812 MEMB     48       PYPG     H13S     HAL2     0.900000E-01   1.00800           0   0.00000     -0.301140E-02
      5813 MEMB     48       PYPG     C214     CTL2    -0.180000       12.0110           0   0.00000     -0.301140E-02
      5814 MEMB     48       PYPG     H14R     HAL2     0.900000E-01   1.00800           0   0.00000     -0.301140E-02
      5815 MEMB     48       PYPG     H14S     HAL2     0.900000E-01   1.00800           0   0.00000     -0.301140E-02
      5816 MEMB     48       PYPG     C215     CTL2    -0.180000       12.0110           0   0.00000     -0.301140E-02
      5817 MEMB     48       PYPG     H15R     HAL2     0.900000E-01   1.00800           0   0.00000     -0.301140E-02
      5818 MEMB     48       PYPG     H15S     HAL2     0.900000E-01   1.00800           0   0.00000     -0.301140E-02
      5819 MEMB     48       PYPG     C216     CTL3    -0.270000       12.0110           0   0.00000     -0.301140E-02
      5820 MEMB     48       PYPG     H16R     HAL3     0.900000E-01   1.00800           0   0.00000     -0.301140E-02
      5821 MEMB     48       PYPG     H16S     HAL3     0.900000E-01   1.00800           0   0.00000     -0.301140E-02
      5822 MEMB     48       PYPG     H16T     HAL3     0.900000E-01   1.00800           0   0.00000     -0.301140E-02
      5823 MEMB     48       PYPG     C33      CTL2    -0.180000       12.0110           0   0.00000     -0.301140E-02
      5824 MEMB     48       PYPG     H3X      HAL2     0.900000E-01   1.00800           0   0.00000     -0.301140E-02
      5825 MEMB     48       PYPG     H3Y      HAL2     0.900000E-01   1.00800           0   0.00000     -0.301140E-02
      5826 MEMB     48       PYPG     C34      CTL2    -0.180000       12.0110           0   0.00000     -0.301140E-02
      5827 MEMB     48       PYPG     H4X      HAL2     0.900000E-01   1.00800           0   0.00000     -0.301140E-02
      5828 MEMB     48       PYPG     H4Y      HAL2     0.900000E-01   1.00800           0   0.00000     -0.301140E-02
      5829 MEMB     48       PYPG     C35      CTL2    -0.180000       12.0110           0   0.00000     -0.301140E-02
      5830 MEMB     48       PYPG     H5X      HAL2     0.900000E-01   1.00800           0   0.00000     -0.301140E-02
      5831 MEMB     48       PYPG     H5Y      HAL2     0.900000E-01   1.00800           0   0.00000     -0.301140E-02
      5832 MEMB     48       PYPG     C36      CTL2    -0.180000       12.0110           0   0.00000     -0.301140E-02
      5833 MEMB     48       PYPG     H6X      HAL2     0.900000E-01   1.00800           0   0.00000     -0.301140E-02
      5834 MEMB     48       PYPG     H6Y      HAL2     0.900000E-01   1.00800           0   0.00000     -0.301140E-02
      5835 MEMB     48       PYPG     C37      CTL2    -0.180000       12.0110           0   0.00000     -0.301140E-02
      5836 MEMB     48       PYPG     H7X      HAL2     0.900000E-01   1.00800           0   0.00000     -0.301140E-02
      5837 MEMB     48       PYPG     H7Y      HAL2     0.900000E-01   1.00800           0   0.00000     -0.301140E-02
      5838 MEMB     48       PYPG     C38      CTL2    -0.180000       12.0110           0   0.00000     -0.301140E-02
      5839 MEMB     48       PYPG     H8X      HAL2     0.900000E-01   1.00800           0   0.00000     -0.301140E-02
      5840 MEMB     48       PYPG     H8Y      HAL2     0.900000E-01   1.00800           0   0.00000     -0.301140E-02
      5841 MEMB     48       PYPG     C39      CTL2    -0.180000       12.0110           0   0.00000     -0.301140E-02
      5842 MEMB     48       PYPG     H9X      HAL2     0.900000E-01   1.00800           0   0.00000     -0.301140E-02
      5843 MEMB     48       PYPG     H9Y      HAL2     0.900000E-01   1.00800           0   0.00000     -0.301140E-02
      5844 MEMB     48       PYPG     C310     CTL2    -0.180000       12.0110           0   0.00000     -0.301140E-02
      5845 MEMB     48       PYPG     H10X     HAL2     0.900000E-01   1.00800           0   0.00000     -0.301140E-02
      5846 MEMB     48       PYPG     H10Y     HAL2     0.900000E-01   1.00800           0   0.00000     -0.301140E-02
      5847 MEMB     48       PYPG     C311     CTL2    -0.180000       12.0110           0   0.00000     -0.301140E-02
      5848 MEMB     48       PYPG     H11X     HAL2     0.900000E-01   1.00800           0   0.00000     -0.301140E-02
      5849 MEMB     48       PYPG     H11Y     HAL2     0.900000E-01   1.00800           0   0.00000     -0.301140E-02
      5850 MEMB     48       PYPG     C312     CTL2    -0.180000       12.0110           0   0.00000     -0.301140E-02
      5851 MEMB     48       PYPG     H12X     HAL2     0.900000E-01   1.00800           0   0.00000     -0.301140E-02
      5852 MEMB     48       PYPG     H12Y     HAL2     0.900000E-01   1.00800           0   0.00000     -0.301140E-02
      5853 MEMB     48       PYPG     C313     CTL2    -0.180000       12.0110           0   0.00000     -0.301140E-02
      5854 MEMB     48       PYPG     H13X     HAL2     0.900000E-01   1.00800           0   0.00000     -0.301140E-02
      5855 MEMB     48       PYPG     H13Y     HAL2     0.900000E-01   1.00800           0   0.00000     -0.301140E-02
      5856 MEMB     48       PYPG     C314     CTL2    -0.180000       12.0110           0   0.00000     -0.301140E-02
      5857 MEMB     48       PYPG     H14X     HAL2     0.900000E-01   1.00800           0   0.00000     -0.301140E-02
      5858 MEMB     48       PYPG     H14Y     HAL2     0.900000E-01   1.00800           0   0.00000     -0.301140E-02
      5859 MEMB     48       PYPG     C315     CTL2    -0.180000       12.0110           0   0.00000     -0.301140E-02
      5860 MEMB     48       PYPG     H15X     HAL2     0.900000E-01   1.00800           0   0.00000     -0.301140E-02
      5861 MEMB     48       PYPG     H15Y     HAL2     0.900000E-01   1.00800           0   0.00000     -0.301140E-02
      5862 MEMB     48       PYPG     C316     CTL3    -0.270000       12.0110           0   0.00000     -0.301140E-02
      5863 MEMB     48       PYPG     H16X     HAL3     0.900000E-01   1.00800           0   0.00000     -0.301140E-02
      5864 MEMB     48       PYPG     H16Y     HAL3     0.900000E-01   1.00800           0   0.00000     -0.301140E-02
      5865 MEMB     48       PYPG     H16Z     HAL3     0.900000E-01   1.00800           0   0.00000     -0.301140E-02
      5866 MEMB     49       PMPG     C13      CTL2     0.500000E-01   12.0110           0   0.00000     -0.301140E-02
      5867 MEMB     49       PMPG     H13A     HAL2     0.900000E-01   1.00800           0   0.00000     -0.301140E-02
      5868 MEMB     49       PMPG     H13B     HAL2     0.900000E-01   1.00800           0   0.00000     -0.301140E-02
      5869 MEMB     49       PMPG     OC3      OHL     -0.660000       15.9994           0   0.00000     -0.301140E-02
      5870 MEMB     49       PMPG     HO3      HOL      0.430000       1.00800           0   0.00000     -0.301140E-02
      5871 MEMB     49       PMPG     C12      CTL1     0.140000       12.0110           0   0.00000     -0.301140E-02
      5872 MEMB     49       PMPG     H12A     HAL1     0.900000E-01   1.00800           0   0.00000     -0.301140E-02
      5873 MEMB     49       PMPG     OC2      OHL     -0.660000       15.9994           0   0.00000     -0.301140E-02
      5874 MEMB     49       PMPG     HO2      HOL      0.430000       1.00800           0   0.00000     -0.301140E-02
      5875 MEMB     49       PMPG     C11      CTL2    -0.800000E-01   12.0110           0   0.00000     -0.301140E-02
      5876 MEMB     49       PMPG     H11A     HAL2     0.900000E-01   1.00800           0   0.00000     -0.301140E-02
      5877 MEMB     49       PMPG     H11B     HAL2     0.900000E-01   1.00800           0   0.00000     -0.301140E-02
      5878 MEMB     49       PMPG     P        PL        1.50000       30.9740           0   0.00000     -0.301140E-02
      5879 MEMB     49       PMPG     O13      O2L     -0.780000       15.9994           0   0.00000     -0.301140E-02
      5880 MEMB     49       PMPG     O14      O2L     -0.780000       15.9994           0   0.00000     -0.301140E-02
      5881 MEMB     49       PMPG     O11      OSLP    -0.570000       15.9994           0   0.00000     -0.301140E-02
      5882 MEMB     49       PMPG     O12      OSLP    -0.570000       15.9994           0   0.00000     -0.301140E-02
      5883 MEMB     49       PMPG     C1       CTL2    -0.800000E-01   12.0110           0   0.00000     -0.301140E-02
      5884 MEMB     49       PMPG     HA       HAL2     0.900000E-01   1.00800           0   0.00000     -0.301140E-02
      5885 MEMB     49       PMPG     HB       HAL2     0.900000E-01   1.00800           0   0.00000     -0.301140E-02
      5886 MEMB     49       PMPG     C2       CTL1     0.170000       12.0110           0   0.00000     -0.301140E-02
      5887 MEMB     49       PMPG     HS       HAL1     0.900000E-01   1.00800           0   0.00000     -0.301140E-02
      5888 MEMB     49       PMPG     O21      OSL     -0.490000       15.9994           0   0.00000     -0.301140E-02
      5889 MEMB     49       PMPG     C21      CL       0.900000       12.0110           0   0.00000     -0.301140E-02
      5890 MEMB     49       PMPG     O22      OBL     -0.630000       15.9994           0   0.00000     -0.301140E-02
      5891 MEMB     49       PMPG     C22      CTL2    -0.220000       12.0110           0   0.00000     -0.301140E-02
      5892 MEMB     49       PMPG     H2R      HAL2     0.900000E-01   1.00800           0   0.00000     -0.301140E-02
      5893 MEMB     49       PMPG     H2S      HAL2     0.900000E-01   1.00800           0   0.00000     -0.301140E-02
      5894 MEMB     49       PMPG     C3       CTL2     0.800000E-01   12.0110           0   0.00000     -0.301140E-02
      5895 MEMB     49       PMPG     HX       HAL2     0.900000E-01   1.00800           0   0.00000     -0.301140E-02
      5896 MEMB     49       PMPG     HY       HAL2     0.900000E-01   1.00800           0   0.00000     -0.301140E-02
      5897 MEMB     49       PMPG     O31      OSL     -0.490000       15.9994           0   0.00000     -0.301140E-02
      5898 MEMB     49       PMPG     C31      CL       0.900000       12.0110           0   0.00000     -0.301140E-02
      5899 MEMB     49       PMPG     O32      OBL     -0.630000       15.9994           0   0.00000     -0.301140E-02
      5900 MEMB     49       PMPG     C32      CTL2    -0.220000       12.0110           0   0.00000     -0.301140E-02
      5901 MEMB     49       PMPG     H2X      HAL2     0.900000E-01   1.00800           0   0.00000     -0.301140E-02
      5902 MEMB     49       PMPG     H2Y      HAL2     0.900000E-01   1.00800           0   0.00000     -0.301140E-02
      5903 MEMB     49       PMPG     C23      CTL2    -0.180000       12.0110           0   0.00000     -0.301140E-02
      5904 MEMB     49       PMPG     H3R      HAL2     0.900000E-01   1.00800           0   0.00000     -0.301140E-02
      5905 MEMB     49       PMPG     H3S      HAL2     0.900000E-01   1.00800           0   0.00000     -0.301140E-02
      5906 MEMB     49       PMPG     C24      CTL2    -0.180000       12.0110           0   0.00000     -0.301140E-02
      5907 MEMB     49       PMPG     H4R      HAL2     0.900000E-01   1.00800           0   0.00000     -0.301140E-02
      5908 MEMB     49       PMPG     H4S      HAL2     0.900000E-01   1.00800           0   0.00000     -0.301140E-02
      5909 MEMB     49       PMPG     C25      CTL2    -0.180000       12.0110           0   0.00000     -0.301140E-02
      5910 MEMB     49       PMPG     H5R      HAL2     0.900000E-01   1.00800           0   0.00000     -0.301140E-02
      5911 MEMB     49       PMPG     H5S      HAL2     0.900000E-01   1.00800           0   0.00000     -0.301140E-02
      5912 MEMB     49       PMPG     C26      CTL2    -0.180000       12.0110           0   0.00000     -0.301140E-02
      5913 MEMB     49       PMPG     H6R      HAL2     0.900000E-01   1.00800           0   0.00000     -0.301140E-02
      5914 MEMB     49       PMPG     H6S      HAL2     0.900000E-01   1.00800           0   0.00000     -0.301140E-02
      5915 MEMB     49       PMPG     C27      CTL2    -0.180000       12.0110           0   0.00000     -0.301140E-02
      5916 MEMB     49       PMPG     H7R      HAL2     0.900000E-01   1.00800           0   0.00000     -0.301140E-02
      5917 MEMB     49       PMPG     H7S      HAL2     0.900000E-01   1.00800           0   0.00000     -0.301140E-02
      5918 MEMB     49       PMPG     C28      CTL2    -0.180000       12.0110           0   0.00000     -0.301140E-02
      5919 MEMB     49       PMPG     H8R      HAL2     0.900000E-01   1.00800           0   0.00000     -0.301140E-02
      5920 MEMB     49       PMPG     H8S      HAL2     0.900000E-01   1.00800           0   0.00000     -0.301140E-02
      5921 MEMB     49       PMPG     C29      CG3RC1  -0.900000E-01   12.0110           0   0.00000     -0.301140E-02
      5922 MEMB     49       PMPG     H9R      HGA1     0.900000E-01   1.00800           0   0.00000     -0.301140E-02
      5923 MEMB     49       PMPG     C217     CG3C31  -0.180000       12.0110           0   0.00000     -0.301140E-02
      5924 MEMB     49       PMPG     H17R     HGA2     0.900000E-01   1.00800           0   0.00000     -0.301140E-02
      5925 MEMB     49       PMPG     H17S     HGA2     0.900000E-01   1.00800           0   0.00000     -0.301140E-02
      5926 MEMB     49       PMPG     C210     CG3RC1  -0.900000E-01   12.0110           0   0.00000     -0.301140E-02
      5927 MEMB     49       PMPG     H10R     HGA1     0.900000E-01   1.00800           0   0.00000     -0.301140E-02
      5928 MEMB     49       PMPG     C211     CTL2    -0.180000       12.0110           0   0.00000     -0.301140E-02
      5929 MEMB     49       PMPG     H11R     HAL2     0.900000E-01   1.00800           0   0.00000     -0.301140E-02
      5930 MEMB     49       PMPG     H11S     HAL2     0.900000E-01   1.00800           0   0.00000     -0.301140E-02
      5931 MEMB     49       PMPG     C212     CTL2    -0.180000       12.0110           0   0.00000     -0.301140E-02
      5932 MEMB     49       PMPG     H12R     HAL2     0.900000E-01   1.00800           0   0.00000     -0.301140E-02
      5933 MEMB     49       PMPG     H12S     HAL2     0.900000E-01   1.00800           0   0.00000     -0.301140E-02
      5934 MEMB     49       PMPG     C213     CTL2    -0.180000       12.0110           0   0.00000     -0.301140E-02
      5935 MEMB     49       PMPG     H13R     HAL2     0.900000E-01   1.00800           0   0.00000     -0.301140E-02
      5936 MEMB     49       PMPG     H13S     HAL2     0.900000E-01   1.00800           0   0.00000     -0.301140E-02
      5937 MEMB     49       PMPG     C214     CTL2    -0.180000       12.0110           0   0.00000     -0.301140E-02
      5938 MEMB     49       PMPG     H14R     HAL2     0.900000E-01   1.00800           0   0.00000     -0.301140E-02
      5939 MEMB     49       PMPG     H14S     HAL2     0.900000E-01   1.00800           0   0.00000     -0.301140E-02
      5940 MEMB     49       PMPG     C215     CTL2    -0.180000       12.0110           0   0.00000     -0.301140E-02
      5941 MEMB     49       PMPG     H15R     HAL2     0.900000E-01   1.00800           0   0.00000     -0.301140E-02
      5942 MEMB     49       PMPG     H15S     HAL2     0.900000E-01   1.00800           0   0.00000     -0.301140E-02
      5943 MEMB     49       PMPG     C216     CTL3    -0.270000       12.0110           0   0.00000     -0.301140E-02
      5944 MEMB     49       PMPG     H16R     HAL3     0.900000E-01   1.00800           0   0.00000     -0.301140E-02
      5945 MEMB     49       PMPG     H16S     HAL3     0.900000E-01   1.00800           0   0.00000     -0.301140E-02
      5946 MEMB     49       PMPG     H16T     HAL3     0.900000E-01   1.00800           0   0.00000     -0.301140E-02
      5947 MEMB     49       PMPG     C33      CTL2    -0.180000       12.0110           0   0.00000     -0.301140E-02
      5948 MEMB     49       PMPG     H3X      HAL2     0.900000E-01   1.00800           0   0.00000     -0.301140E-02
      5949 MEMB     49       PMPG     H3Y      HAL2     0.900000E-01   1.00800           0   0.00000     -0.301140E-02
      5950 MEMB     49       PMPG     C34      CTL2    -0.180000       12.0110           0   0.00000     -0.301140E-02
      5951 MEMB     49       PMPG     H4X      HAL2     0.900000E-01   1.00800           0   0.00000     -0.301140E-02
      5952 MEMB     49       PMPG     H4Y      HAL2     0.900000E-01   1.00800           0   0.00000     -0.301140E-02
      5953 MEMB     49       PMPG     C35      CTL2    -0.180000       12.0110           0   0.00000     -0.301140E-02
      5954 MEMB     49       PMPG     H5X      HAL2     0.900000E-01   1.00800           0   0.00000     -0.301140E-02
      5955 MEMB     49       PMPG     H5Y      HAL2     0.900000E-01   1.00800           0   0.00000     -0.301140E-02
      5956 MEMB     49       PMPG     C36      CTL2    -0.180000       12.0110           0   0.00000     -0.301140E-02
      5957 MEMB     49       PMPG     H6X      HAL2     0.900000E-01   1.00800           0   0.00000     -0.301140E-02
      5958 MEMB     49       PMPG     H6Y      HAL2     0.900000E-01   1.00800           0   0.00000     -0.301140E-02
      5959 MEMB     49       PMPG     C37      CTL2    -0.180000       12.0110           0   0.00000     -0.301140E-02
      5960 MEMB     49       PMPG     H7X      HAL2     0.900000E-01   1.00800           0   0.00000     -0.301140E-02
      5961 MEMB     49       PMPG     H7Y      HAL2     0.900000E-01   1.00800           0   0.00000     -0.301140E-02
      5962 MEMB     49       PMPG     C38      CTL2    -0.180000       12.0110           0   0.00000     -0.301140E-02
      5963 MEMB     49       PMPG     H8X      HAL2     0.900000E-01   1.00800           0   0.00000     -0.301140E-02
      5964 MEMB     49       PMPG     H8Y      HAL2     0.900000E-01   1.00800           0   0.00000     -0.301140E-02
      5965 MEMB     49       PMPG     C39      CTL2    -0.180000       12.0110           0   0.00000     -0.301140E-02
      5966 MEMB     49       PMPG     H9X      HAL2     0.900000E-01   1.00800           0   0.00000     -0.301140E-02
      5967 MEMB     49       PMPG     H9Y      HAL2     0.900000E-01   1.00800           0   0.00000     -0.301140E-02
      5968 MEMB     49       PMPG     C310     CTL2    -0.180000       12.0110           0   0.00000     -0.301140E-02
      5969 MEMB     49       PMPG     H10X     HAL2     0.900000E-01   1.00800           0   0.00000     -0.301140E-02
      5970 MEMB     49       PMPG     H10Y     HAL2     0.900000E-01   1.00800           0   0.00000     -0.301140E-02
      5971 MEMB     49       PMPG     C311     CTL2    -0.180000       12.0110           0   0.00000     -0.301140E-02
      5972 MEMB     49       PMPG     H11X     HAL2     0.900000E-01   1.00800           0   0.00000     -0.301140E-02
      5973 MEMB     49       PMPG     H11Y     HAL2     0.900000E-01   1.00800           0   0.00000     -0.301140E-02
      5974 MEMB     49       PMPG     C312     CTL2    -0.180000       12.0110           0   0.00000     -0.301140E-02
      5975 MEMB     49       PMPG     H12X     HAL2     0.900000E-01   1.00800           0   0.00000     -0.301140E-02
      5976 MEMB     49       PMPG     H12Y     HAL2     0.900000E-01   1.00800           0   0.00000     -0.301140E-02
      5977 MEMB     49       PMPG     C313     CTL2    -0.180000       12.0110           0   0.00000     -0.301140E-02
      5978 MEMB     49       PMPG     H13X     HAL2     0.900000E-01   1.00800           0   0.00000     -0.301140E-02
      5979 MEMB     49       PMPG     H13Y     HAL2     0.900000E-01   1.00800           0   0.00000     -0.301140E-02
      5980 MEMB     49       PMPG     C314     CTL2    -0.180000       12.0110           0   0.00000     -0.301140E-02
      5981 MEMB     49       PMPG     H14X     HAL2     0.900000E-01   1.00800           0   0.00000     -0.301140E-02
      5982 MEMB     49       PMPG     H14Y     HAL2     0.900000E-01   1.00800           0   0.00000     -0.301140E-02
      5983 MEMB     49       PMPG     C315     CTL2    -0.180000       12.0110           0   0.00000     -0.301140E-02
      5984 MEMB     49       PMPG     H15X     HAL2     0.900000E-01   1.00800           0   0.00000     -0.301140E-02
      5985 MEMB     49       PMPG     H15Y     HAL2     0.900000E-01   1.00800           0   0.00000     -0.301140E-02
      5986 MEMB     49       PMPG     C316     CTL3    -0.270000       12.0110           0   0.00000     -0.301140E-02
      5987 MEMB     49       PMPG     H16X     HAL3     0.900000E-01   1.00800           0   0.00000     -0.301140E-02
      5988 MEMB     49       PMPG     H16Y     HAL3     0.900000E-01   1.00800           0   0.00000     -0.301140E-02
      5989 MEMB     49       PMPG     H16Z     HAL3     0.900000E-01   1.00800           0   0.00000     -0.301140E-02
      5990 MEMB     50       PMPE     N        NH3L    -0.300000       14.0070           0   0.00000     -0.301140E-02
      5991 MEMB     50       PMPE     HN1      HCL      0.330000       1.00800           0   0.00000     -0.301140E-02
      5992 MEMB     50       PMPE     HN2      HCL      0.330000       1.00800           0   0.00000     -0.301140E-02
      5993 MEMB     50       PMPE     HN3      HCL      0.330000       1.00800           0   0.00000     -0.301140E-02
      5994 MEMB     50       PMPE     C12      CTL2     0.130000       12.0110           0   0.00000     -0.301140E-02
      5995 MEMB     50       PMPE     H12A     HAL2     0.900000E-01   1.00800           0   0.00000     -0.301140E-02
      5996 MEMB     50       PMPE     H12B     HAL2     0.900000E-01   1.00800           0   0.00000     -0.301140E-02
      5997 MEMB     50       PMPE     C11      CTL2    -0.800000E-01   12.0110           0   0.00000     -0.301140E-02
      5998 MEMB     50       PMPE     H11A     HAL2     0.900000E-01   1.00800           0   0.00000     -0.301140E-02
      5999 MEMB     50       PMPE     H11B     HAL2     0.900000E-01   1.00800           0   0.00000     -0.301140E-02
      6000 MEMB     50       PMPE     P        PL        1.50000       30.9740           0   0.00000     -0.301140E-02
      6001 MEMB     50       PMPE     O13      O2L     -0.780000       15.9994           0   0.00000     -0.301140E-02
      6002 MEMB     50       PMPE     O14      O2L     -0.780000       15.9994           0   0.00000     -0.301140E-02
      6003 MEMB     50       PMPE     O11      OSLP    -0.570000       15.9994           0   0.00000     -0.301140E-02
      6004 MEMB     50       PMPE     O12      OSLP    -0.570000       15.9994           0   0.00000     -0.301140E-02
      6005 MEMB     50       PMPE     C1       CTL2    -0.800000E-01   12.0110           0   0.00000     -0.301140E-02
      6006 MEMB     50       PMPE     HA       HAL2     0.900000E-01   1.00800           0   0.00000     -0.301140E-02
      6007 MEMB     50       PMPE     HB       HAL2     0.900000E-01   1.00800           0   0.00000     -0.301140E-02
      6008 MEMB     50       PMPE     C2       CTL1     0.170000       12.0110           0   0.00000     -0.301140E-02
      6009 MEMB     50       PMPE     HS       HAL1     0.900000E-01   1.00800           0   0.00000     -0.301140E-02
      6010 MEMB     50       PMPE     O21      OSL     -0.490000       15.9994           0   0.00000     -0.301140E-02
      6011 MEMB     50       PMPE     C21      CL       0.900000       12.0110           0   0.00000     -0.301140E-02
      6012 MEMB     50       PMPE     O22      OBL     -0.630000       15.9994           0   0.00000     -0.301140E-02
      6013 MEMB     50       PMPE     C22      CTL2    -0.220000       12.0110           0   0.00000     -0.301140E-02
      6014 MEMB     50       PMPE     H2R      HAL2     0.900000E-01   1.00800           0   0.00000     -0.301140E-02
      6015 MEMB     50       PMPE     H2S      HAL2     0.900000E-01   1.00800           0   0.00000     -0.301140E-02
      6016 MEMB     50       PMPE     C3       CTL2     0.800000E-01   12.0110           0   0.00000     -0.301140E-02
      6017 MEMB     50       PMPE     HX       HAL2     0.900000E-01   1.00800           0   0.00000     -0.301140E-02
      6018 MEMB     50       PMPE     HY       HAL2     0.900000E-01   1.00800           0   0.00000     -0.301140E-02
      6019 MEMB     50       PMPE     O31      OSL     -0.490000       15.9994           0   0.00000     -0.301140E-02
      6020 MEMB     50       PMPE     C31      CL       0.900000       12.0110           0   0.00000     -0.301140E-02
      6021 MEMB     50       PMPE     O32      OBL     -0.630000       15.9994           0   0.00000     -0.301140E-02
      6022 MEMB     50       PMPE     C32      CTL2    -0.220000       12.0110           0   0.00000     -0.301140E-02
      6023 MEMB     50       PMPE     H2X      HAL2     0.900000E-01   1.00800           0   0.00000     -0.301140E-02
      6024 MEMB     50       PMPE     H2Y      HAL2     0.900000E-01   1.00800           0   0.00000     -0.301140E-02
      6025 MEMB     50       PMPE     C23      CTL2    -0.180000       12.0110           0   0.00000     -0.301140E-02
      6026 MEMB     50       PMPE     H3R      HAL2     0.900000E-01   1.00800           0   0.00000     -0.301140E-02
      6027 MEMB     50       PMPE     H3S      HAL2     0.900000E-01   1.00800           0   0.00000     -0.301140E-02
      6028 MEMB     50       PMPE     C24      CTL2    -0.180000       12.0110           0   0.00000     -0.301140E-02
      6029 MEMB     50       PMPE     H4R      HAL2     0.900000E-01   1.00800           0   0.00000     -0.301140E-02
      6030 MEMB     50       PMPE     H4S      HAL2     0.900000E-01   1.00800           0   0.00000     -0.301140E-02
      6031 MEMB     50       PMPE     C25      CTL2    -0.180000       12.0110           0   0.00000     -0.301140E-02
      6032 MEMB     50       PMPE     H5R      HAL2     0.900000E-01   1.00800           0   0.00000     -0.301140E-02
      6033 MEMB     50       PMPE     H5S      HAL2     0.900000E-01   1.00800           0   0.00000     -0.301140E-02
      6034 MEMB     50       PMPE     C26      CTL2    -0.180000       12.0110           0   0.00000     -0.301140E-02
      6035 MEMB     50       PMPE     H6R      HAL2     0.900000E-01   1.00800           0   0.00000     -0.301140E-02
      6036 MEMB     50       PMPE     H6S      HAL2     0.900000E-01   1.00800           0   0.00000     -0.301140E-02
      6037 MEMB     50       PMPE     C27      CTL2    -0.180000       12.0110           0   0.00000     -0.301140E-02
      6038 MEMB     50       PMPE     H7R      HAL2     0.900000E-01   1.00800           0   0.00000     -0.301140E-02
      6039 MEMB     50       PMPE     H7S      HAL2     0.900000E-01   1.00800           0   0.00000     -0.301140E-02
      6040 MEMB     50       PMPE     C28      CTL2    -0.180000       12.0110           0   0.00000     -0.301140E-02
      6041 MEMB     50       PMPE     H8R      HAL2     0.900000E-01   1.00800           0   0.00000     -0.301140E-02
      6042 MEMB     50       PMPE     H8S      HAL2     0.900000E-01   1.00800           0   0.00000     -0.301140E-02
      6043 MEMB     50       PMPE     C29      CG3RC1  -0.900000E-01   12.0110           0   0.00000     -0.301140E-02
      6044 MEMB     50       PMPE     H9R      HGA1     0.900000E-01   1.00800           0   0.00000     -0.301140E-02
      6045 MEMB     50       PMPE     C217     CG3C31  -0.180000       12.0110           0   0.00000     -0.301140E-02
      6046 MEMB     50       PMPE     H17R     HGA2     0.900000E-01   1.00800           0   0.00000     -0.301140E-02
      6047 MEMB     50       PMPE     H17S     HGA2     0.900000E-01   1.00800           0   0.00000     -0.301140E-02
      6048 MEMB     50       PMPE     C210     CG3RC1  -0.900000E-01   12.0110           0   0.00000     -0.301140E-02
      6049 MEMB     50       PMPE     H10R     HGA1     0.900000E-01   1.00800           0   0.00000     -0.301140E-02
      6050 MEMB     50       PMPE     C211     CTL2    -0.180000       12.0110           0   0.00000     -0.301140E-02
      6051 MEMB     50       PMPE     H11R     HAL2     0.900000E-01   1.00800           0   0.00000     -0.301140E-02
      6052 MEMB     50       PMPE     H11S     HAL2     0.900000E-01   1.00800           0   0.00000     -0.301140E-02
      6053 MEMB     50       PMPE     C212     CTL2    -0.180000       12.0110           0   0.00000     -0.301140E-02
      6054 MEMB     50       PMPE     H12R     HAL2     0.900000E-01   1.00800           0   0.00000     -0.301140E-02
      6055 MEMB     50       PMPE     H12S     HAL2     0.900000E-01   1.00800           0   0.00000     -0.301140E-02
      6056 MEMB     50       PMPE     C213     CTL2    -0.180000       12.0110           0   0.00000     -0.301140E-02
      6057 MEMB     50       PMPE     H13R     HAL2     0.900000E-01   1.00800           0   0.00000     -0.301140E-02
      6058 MEMB     50       PMPE     H13S     HAL2     0.900000E-01   1.00800           0   0.00000     -0.301140E-02
      6059 MEMB     50       PMPE     C214     CTL2    -0.180000       12.0110           0   0.00000     -0.301140E-02
      6060 MEMB     50       PMPE     H14R     HAL2     0.900000E-01   1.00800           0   0.00000     -0.301140E-02
      6061 MEMB     50       PMPE     H14S     HAL2     0.900000E-01   1.00800           0   0.00000     -0.301140E-02
      6062 MEMB     50       PMPE     C215     CTL2    -0.180000       12.0110           0   0.00000     -0.301140E-02
      6063 MEMB     50       PMPE     H15R     HAL2     0.900000E-01   1.00800           0   0.00000     -0.301140E-02
      6064 MEMB     50       PMPE     H15S     HAL2     0.900000E-01   1.00800           0   0.00000     -0.301140E-02
      6065 MEMB     50       PMPE     C216     CTL3    -0.270000       12.0110           0   0.00000     -0.301140E-02
      6066 MEMB     50       PMPE     H16R     HAL3     0.900000E-01   1.00800           0   0.00000     -0.301140E-02
      6067 MEMB     50       PMPE     H16S     HAL3     0.900000E-01   1.00800           0   0.00000     -0.301140E-02
      6068 MEMB     50       PMPE     H16T     HAL3     0.900000E-01   1.00800           0   0.00000     -0.301140E-02
      6069 MEMB     50       PMPE     C33      CTL2    -0.180000       12.0110           0   0.00000     -0.301140E-02
      6070 MEMB     50       PMPE     H3X      HAL2     0.900000E-01   1.00800           0   0.00000     -0.301140E-02
      6071 MEMB     50       PMPE     H3Y      HAL2     0.900000E-01   1.00800           0   0.00000     -0.301140E-02
      6072 MEMB     50       PMPE     C34      CTL2    -0.180000       12.0110           0   0.00000     -0.301140E-02
      6073 MEMB     50       PMPE     H4X      HAL2     0.900000E-01   1.00800           0   0.00000     -0.301140E-02
      6074 MEMB     50       PMPE     H4Y      HAL2     0.900000E-01   1.00800           0   0.00000     -0.301140E-02
      6075 MEMB     50       PMPE     C35      CTL2    -0.180000       12.0110           0   0.00000     -0.301140E-02
      6076 MEMB     50       PMPE     H5X      HAL2     0.900000E-01   1.00800           0   0.00000     -0.301140E-02
      6077 MEMB     50       PMPE     H5Y      HAL2     0.900000E-01   1.00800           0   0.00000     -0.301140E-02
      6078 MEMB     50       PMPE     C36      CTL2    -0.180000       12.0110           0   0.00000     -0.301140E-02
      6079 MEMB     50       PMPE     H6X      HAL2     0.900000E-01   1.00800           0   0.00000     -0.301140E-02
      6080 MEMB     50       PMPE     H6Y      HAL2     0.900000E-01   1.00800           0   0.00000     -0.301140E-02
      6081 MEMB     50       PMPE     C37      CTL2    -0.180000       12.0110           0   0.00000     -0.301140E-02
      6082 MEMB     50       PMPE     H7X      HAL2     0.900000E-01   1.00800           0   0.00000     -0.301140E-02
      6083 MEMB     50       PMPE     H7Y      HAL2     0.900000E-01   1.00800           0   0.00000     -0.301140E-02
      6084 MEMB     50       PMPE     C38      CTL2    -0.180000       12.0110           0   0.00000     -0.301140E-02
      6085 MEMB     50       PMPE     H8X      HAL2     0.900000E-01   1.00800           0   0.00000     -0.301140E-02
      6086 MEMB     50       PMPE     H8Y      HAL2     0.900000E-01   1.00800           0   0.00000     -0.301140E-02
      6087 MEMB     50       PMPE     C39      CTL2    -0.180000       12.0110           0   0.00000     -0.301140E-02
      6088 MEMB     50       PMPE     H9X      HAL2     0.900000E-01   1.00800           0   0.00000     -0.301140E-02
      6089 MEMB     50       PMPE     H9Y      HAL2     0.900000E-01   1.00800           0   0.00000     -0.301140E-02
      6090 MEMB     50       PMPE     C310     CTL2    -0.180000       12.0110           0   0.00000     -0.301140E-02
      6091 MEMB     50       PMPE     H10X     HAL2     0.900000E-01   1.00800           0   0.00000     -0.301140E-02
      6092 MEMB     50       PMPE     H10Y     HAL2     0.900000E-01   1.00800           0   0.00000     -0.301140E-02
      6093 MEMB     50       PMPE     C311     CTL2    -0.180000       12.0110           0   0.00000     -0.301140E-02
      6094 MEMB     50       PMPE     H11X     HAL2     0.900000E-01   1.00800           0   0.00000     -0.301140E-02
      6095 MEMB     50       PMPE     H11Y     HAL2     0.900000E-01   1.00800           0   0.00000     -0.301140E-02
      6096 MEMB     50       PMPE     C312     CTL2    -0.180000       12.0110           0   0.00000     -0.301140E-02
      6097 MEMB     50       PMPE     H12X     HAL2     0.900000E-01   1.00800           0   0.00000     -0.301140E-02
      6098 MEMB     50       PMPE     H12Y     HAL2     0.900000E-01   1.00800           0   0.00000     -0.301140E-02
      6099 MEMB     50       PMPE     C313     CTL2    -0.180000       12.0110           0   0.00000     -0.301140E-02
      6100 MEMB     50       PMPE     H13X     HAL2     0.900000E-01   1.00800           0   0.00000     -0.301140E-02
      6101 MEMB     50       PMPE     H13Y     HAL2     0.900000E-01   1.00800           0   0.00000     -0.301140E-02
      6102 MEMB     50       PMPE     C314     CTL2    -0.180000       12.0110           0   0.00000     -0.301140E-02
      6103 MEMB     50       PMPE     H14X     HAL2     0.900000E-01   1.00800           0   0.00000     -0.301140E-02
      6104 MEMB     50       PMPE     H14Y     HAL2     0.900000E-01   1.00800           0   0.00000     -0.301140E-02
      6105 MEMB     50       PMPE     C315     CTL2    -0.180000       12.0110           0   0.00000     -0.301140E-02
      6106 MEMB     50       PMPE     H15X     HAL2     0.900000E-01   1.00800           0   0.00000     -0.301140E-02
      6107 MEMB     50       PMPE     H15Y     HAL2     0.900000E-01   1.00800           0   0.00000     -0.301140E-02
      6108 MEMB     50       PMPE     C316     CTL3    -0.270000       12.0110           0   0.00000     -0.301140E-02
      6109 MEMB     50       PMPE     H16X     HAL3     0.900000E-01   1.00800           0   0.00000     -0.301140E-02
      6110 MEMB     50       PMPE     H16Y     HAL3     0.900000E-01   1.00800           0   0.00000     -0.301140E-02
      6111 MEMB     50       PMPE     H16Z     HAL3     0.900000E-01   1.00800           0   0.00000     -0.301140E-02
      6112 MEMB     51       PMPE     N        NH3L    -0.300000       14.0070           0   0.00000     -0.301140E-02
      6113 MEMB     51       PMPE     HN1      HCL      0.330000       1.00800           0   0.00000     -0.301140E-02
      6114 MEMB     51       PMPE     HN2      HCL      0.330000       1.00800           0   0.00000     -0.301140E-02
      6115 MEMB     51       PMPE     HN3      HCL      0.330000       1.00800           0   0.00000     -0.301140E-02
      6116 MEMB     51       PMPE     C12      CTL2     0.130000       12.0110           0   0.00000     -0.301140E-02
      6117 MEMB     51       PMPE     H12A     HAL2     0.900000E-01   1.00800           0   0.00000     -0.301140E-02
      6118 MEMB     51       PMPE     H12B     HAL2     0.900000E-01   1.00800           0   0.00000     -0.301140E-02
      6119 MEMB     51       PMPE     C11      CTL2    -0.800000E-01   12.0110           0   0.00000     -0.301140E-02
      6120 MEMB     51       PMPE     H11A     HAL2     0.900000E-01   1.00800           0   0.00000     -0.301140E-02
      6121 MEMB     51       PMPE     H11B     HAL2     0.900000E-01   1.00800           0   0.00000     -0.301140E-02
      6122 MEMB     51       PMPE     P        PL        1.50000       30.9740           0   0.00000     -0.301140E-02
      6123 MEMB     51       PMPE     O13      O2L     -0.780000       15.9994           0   0.00000     -0.301140E-02
      6124 MEMB     51       PMPE     O14      O2L     -0.780000       15.9994           0   0.00000     -0.301140E-02
      6125 MEMB     51       PMPE     O11      OSLP    -0.570000       15.9994           0   0.00000     -0.301140E-02
      6126 MEMB     51       PMPE     O12      OSLP    -0.570000       15.9994           0   0.00000     -0.301140E-02
      6127 MEMB     51       PMPE     C1       CTL2    -0.800000E-01   12.0110           0   0.00000     -0.301140E-02
      6128 MEMB     51       PMPE     HA       HAL2     0.900000E-01   1.00800           0   0.00000     -0.301140E-02
      6129 MEMB     51       PMPE     HB       HAL2     0.900000E-01   1.00800           0   0.00000     -0.301140E-02
      6130 MEMB     51       PMPE     C2       CTL1     0.170000       12.0110           0   0.00000     -0.301140E-02
      6131 MEMB     51       PMPE     HS       HAL1     0.900000E-01   1.00800           0   0.00000     -0.301140E-02
      6132 MEMB     51       PMPE     O21      OSL     -0.490000       15.9994           0   0.00000     -0.301140E-02
      6133 MEMB     51       PMPE     C21      CL       0.900000       12.0110           0   0.00000     -0.301140E-02
      6134 MEMB     51       PMPE     O22      OBL     -0.630000       15.9994           0   0.00000     -0.301140E-02
      6135 MEMB     51       PMPE     C22      CTL2    -0.220000       12.0110           0   0.00000     -0.301140E-02
      6136 MEMB     51       PMPE     H2R      HAL2     0.900000E-01   1.00800           0   0.00000     -0.301140E-02
      6137 MEMB     51       PMPE     H2S      HAL2     0.900000E-01   1.00800           0   0.00000     -0.301140E-02
      6138 MEMB     51       PMPE     C3       CTL2     0.800000E-01   12.0110           0   0.00000     -0.301140E-02
      6139 MEMB     51       PMPE     HX       HAL2     0.900000E-01   1.00800           0   0.00000     -0.301140E-02
      6140 MEMB     51       PMPE     HY       HAL2     0.900000E-01   1.00800           0   0.00000     -0.301140E-02
      6141 MEMB     51       PMPE     O31      OSL     -0.490000       15.9994           0   0.00000     -0.301140E-02
      6142 MEMB     51       PMPE     C31      CL       0.900000       12.0110           0   0.00000     -0.301140E-02
      6143 MEMB     51       PMPE     O32      OBL     -0.630000       15.9994           0   0.00000     -0.301140E-02
      6144 MEMB     51       PMPE     C32      CTL2    -0.220000       12.0110           0   0.00000     -0.301140E-02
      6145 MEMB     51       PMPE     H2X      HAL2     0.900000E-01   1.00800           0   0.00000     -0.301140E-02
      6146 MEMB     51       PMPE     H2Y      HAL2     0.900000E-01   1.00800           0   0.00000     -0.301140E-02
      6147 MEMB     51       PMPE     C23      CTL2    -0.180000       12.0110           0   0.00000     -0.301140E-02
      6148 MEMB     51       PMPE     H3R      HAL2     0.900000E-01   1.00800           0   0.00000     -0.301140E-02
      6149 MEMB     51       PMPE     H3S      HAL2     0.900000E-01   1.00800           0   0.00000     -0.301140E-02
      6150 MEMB     51       PMPE     C24      CTL2    -0.180000       12.0110           0   0.00000     -0.301140E-02
      6151 MEMB     51       PMPE     H4R      HAL2     0.900000E-01   1.00800           0   0.00000     -0.301140E-02
      6152 MEMB     51       PMPE     H4S      HAL2     0.900000E-01   1.00800           0   0.00000     -0.301140E-02
      6153 MEMB     51       PMPE     C25      CTL2    -0.180000       12.0110           0   0.00000     -0.301140E-02
      6154 MEMB     51       PMPE     H5R      HAL2     0.900000E-01   1.00800           0   0.00000     -0.301140E-02
      6155 MEMB     51       PMPE     H5S      HAL2     0.900000E-01   1.00800           0   0.00000     -0.301140E-02
      6156 MEMB     51       PMPE     C26      CTL2    -0.180000       12.0110           0   0.00000     -0.301140E-02
      6157 MEMB     51       PMPE     H6R      HAL2     0.900000E-01   1.00800           0   0.00000     -0.301140E-02
      6158 MEMB     51       PMPE     H6S      HAL2     0.900000E-01   1.00800           0   0.00000     -0.301140E-02
      6159 MEMB     51       PMPE     C27      CTL2    -0.180000       12.0110           0   0.00000     -0.301140E-02
      6160 MEMB     51       PMPE     H7R      HAL2     0.900000E-01   1.00800           0   0.00000     -0.301140E-02
      6161 MEMB     51       PMPE     H7S      HAL2     0.900000E-01   1.00800           0   0.00000     -0.301140E-02
      6162 MEMB     51       PMPE     C28      CTL2    -0.180000       12.0110           0   0.00000     -0.301140E-02
      6163 MEMB     51       PMPE     H8R      HAL2     0.900000E-01   1.00800           0   0.00000     -0.301140E-02
      6164 MEMB     51       PMPE     H8S      HAL2     0.900000E-01   1.00800           0   0.00000     -0.301140E-02
      6165 MEMB     51       PMPE     C29      CG3RC1  -0.900000E-01   12.0110           0   0.00000     -0.301140E-02
      6166 MEMB     51       PMPE     H9R      HGA1     0.900000E-01   1.00800           0   0.00000     -0.301140E-02
      6167 MEMB     51       PMPE     C217     CG3C31  -0.180000       12.0110           0   0.00000     -0.301140E-02
      6168 MEMB     51       PMPE     H17R     HGA2     0.900000E-01   1.00800           0   0.00000     -0.301140E-02
      6169 MEMB     51       PMPE     H17S     HGA2     0.900000E-01   1.00800           0   0.00000     -0.301140E-02
      6170 MEMB     51       PMPE     C210     CG3RC1  -0.900000E-01   12.0110           0   0.00000     -0.301140E-02
      6171 MEMB     51       PMPE     H10R     HGA1     0.900000E-01   1.00800           0   0.00000     -0.301140E-02
      6172 MEMB     51       PMPE     C211     CTL2    -0.180000       12.0110           0   0.00000     -0.301140E-02
      6173 MEMB     51       PMPE     H11R     HAL2     0.900000E-01   1.00800           0   0.00000     -0.301140E-02
      6174 MEMB     51       PMPE     H11S     HAL2     0.900000E-01   1.00800           0   0.00000     -0.301140E-02
      6175 MEMB     51       PMPE     C212     CTL2    -0.180000       12.0110           0   0.00000     -0.301140E-02
      6176 MEMB     51       PMPE     H12R     HAL2     0.900000E-01   1.00800           0   0.00000     -0.301140E-02
      6177 MEMB     51       PMPE     H12S     HAL2     0.900000E-01   1.00800           0   0.00000     -0.301140E-02
      6178 MEMB     51       PMPE     C213     CTL2    -0.180000       12.0110           0   0.00000     -0.301140E-02
      6179 MEMB     51       PMPE     H13R     HAL2     0.900000E-01   1.00800           0   0.00000     -0.301140E-02
      6180 MEMB     51       PMPE     H13S     HAL2     0.900000E-01   1.00800           0   0.00000     -0.301140E-02
      6181 MEMB     51       PMPE     C214     CTL2    -0.180000       12.0110           0   0.00000     -0.301140E-02
      6182 MEMB     51       PMPE     H14R     HAL2     0.900000E-01   1.00800           0   0.00000     -0.301140E-02
      6183 MEMB     51       PMPE     H14S     HAL2     0.900000E-01   1.00800           0   0.00000     -0.301140E-02
      6184 MEMB     51       PMPE     C215     CTL2    -0.180000       12.0110           0   0.00000     -0.301140E-02
      6185 MEMB     51       PMPE     H15R     HAL2     0.900000E-01   1.00800           0   0.00000     -0.301140E-02
      6186 MEMB     51       PMPE     H15S     HAL2     0.900000E-01   1.00800           0   0.00000     -0.301140E-02
      6187 MEMB     51       PMPE     C216     CTL3    -0.270000       12.0110           0   0.00000     -0.301140E-02
      6188 MEMB     51       PMPE     H16R     HAL3     0.900000E-01   1.00800           0   0.00000     -0.301140E-02
      6189 MEMB     51       PMPE     H16S     HAL3     0.900000E-01   1.00800           0   0.00000     -0.301140E-02
      6190 MEMB     51       PMPE     H16T     HAL3     0.900000E-01   1.00800           0   0.00000     -0.301140E-02
      6191 MEMB     51       PMPE     C33      CTL2    -0.180000       12.0110           0   0.00000     -0.301140E-02
      6192 MEMB     51       PMPE     H3X      HAL2     0.900000E-01   1.00800           0   0.00000     -0.301140E-02
      6193 MEMB     51       PMPE     H3Y      HAL2     0.900000E-01   1.00800           0   0.00000     -0.301140E-02
      6194 MEMB     51       PMPE     C34      CTL2    -0.180000       12.0110           0   0.00000     -0.301140E-02
      6195 MEMB     51       PMPE     H4X      HAL2     0.900000E-01   1.00800           0   0.00000     -0.301140E-02
      6196 MEMB     51       PMPE     H4Y      HAL2     0.900000E-01   1.00800           0   0.00000     -0.301140E-02
      6197 MEMB     51       PMPE     C35      CTL2    -0.180000       12.0110           0   0.00000     -0.301140E-02
      6198 MEMB     51       PMPE     H5X      HAL2     0.900000E-01   1.00800           0   0.00000     -0.301140E-02
      6199 MEMB     51       PMPE     H5Y      HAL2     0.900000E-01   1.00800           0   0.00000     -0.301140E-02
      6200 MEMB     51       PMPE     C36      CTL2    -0.180000       12.0110           0   0.00000     -0.301140E-02
      6201 MEMB     51       PMPE     H6X      HAL2     0.900000E-01   1.00800           0   0.00000     -0.301140E-02
      6202 MEMB     51       PMPE     H6Y      HAL2     0.900000E-01   1.00800           0   0.00000     -0.301140E-02
      6203 MEMB     51       PMPE     C37      CTL2    -0.180000       12.0110           0   0.00000     -0.301140E-02
      6204 MEMB     51       PMPE     H7X      HAL2     0.900000E-01   1.00800           0   0.00000     -0.301140E-02
      6205 MEMB     51       PMPE     H7Y      HAL2     0.900000E-01   1.00800           0   0.00000     -0.301140E-02
      6206 MEMB     51       PMPE     C38      CTL2    -0.180000       12.0110           0   0.00000     -0.301140E-02
      6207 MEMB     51       PMPE     H8X      HAL2     0.900000E-01   1.00800           0   0.00000     -0.301140E-02
      6208 MEMB     51       PMPE     H8Y      HAL2     0.900000E-01   1.00800           0   0.00000     -0.301140E-02
      6209 MEMB     51       PMPE     C39      CTL2    -0.180000       12.0110           0   0.00000     -0.301140E-02
      6210 MEMB     51       PMPE     H9X      HAL2     0.900000E-01   1.00800           0   0.00000     -0.301140E-02
      6211 MEMB     51       PMPE     H9Y      HAL2     0.900000E-01   1.00800           0   0.00000     -0.301140E-02
      6212 MEMB     51       PMPE     C310     CTL2    -0.180000       12.0110           0   0.00000     -0.301140E-02
      6213 MEMB     51       PMPE     H10X     HAL2     0.900000E-01   1.00800           0   0.00000     -0.301140E-02
      6214 MEMB     51       PMPE     H10Y     HAL2     0.900000E-01   1.00800           0   0.00000     -0.301140E-02
      6215 MEMB     51       PMPE     C311     CTL2    -0.180000       12.0110           0   0.00000     -0.301140E-02
      6216 MEMB     51       PMPE     H11X     HAL2     0.900000E-01   1.00800           0   0.00000     -0.301140E-02
      6217 MEMB     51       PMPE     H11Y     HAL2     0.900000E-01   1.00800           0   0.00000     -0.301140E-02
      6218 MEMB     51       PMPE     C312     CTL2    -0.180000       12.0110           0   0.00000     -0.301140E-02
      6219 MEMB     51       PMPE     H12X     HAL2     0.900000E-01   1.00800           0   0.00000     -0.301140E-02
      6220 MEMB     51       PMPE     H12Y     HAL2     0.900000E-01   1.00800           0   0.00000     -0.301140E-02
      6221 MEMB     51       PMPE     C313     CTL2    -0.180000       12.0110           0   0.00000     -0.301140E-02
      6222 MEMB     51       PMPE     H13X     HAL2     0.900000E-01   1.00800           0   0.00000     -0.301140E-02
      6223 MEMB     51       PMPE     H13Y     HAL2     0.900000E-01   1.00800           0   0.00000     -0.301140E-02
      6224 MEMB     51       PMPE     C314     CTL2    -0.180000       12.0110           0   0.00000     -0.301140E-02
      6225 MEMB     51       PMPE     H14X     HAL2     0.900000E-01   1.00800           0   0.00000     -0.301140E-02
      6226 MEMB     51       PMPE     H14Y     HAL2     0.900000E-01   1.00800           0   0.00000     -0.301140E-02
      6227 MEMB     51       PMPE     C315     CTL2    -0.180000       12.0110           0   0.00000     -0.301140E-02
      6228 MEMB     51       PMPE     H15X     HAL2     0.900000E-01   1.00800           0   0.00000     -0.301140E-02
      6229 MEMB     51       PMPE     H15Y     HAL2     0.900000E-01   1.00800           0   0.00000     -0.301140E-02
      6230 MEMB     51       PMPE     C316     CTL3    -0.270000       12.0110           0   0.00000     -0.301140E-02
      6231 MEMB     51       PMPE     H16X     HAL3     0.900000E-01   1.00800           0   0.00000     -0.301140E-02
      6232 MEMB     51       PMPE     H16Y     HAL3     0.900000E-01   1.00800           0   0.00000     -0.301140E-02
      6233 MEMB     51       PMPE     H16Z     HAL3     0.900000E-01   1.00800           0   0.00000     -0.301140E-02
      6234 MEMB     52       PMPE     N        NH3L    -0.300000       14.0070           0   0.00000     -0.301140E-02
      6235 MEMB     52       PMPE     HN1      HCL      0.330000       1.00800           0   0.00000     -0.301140E-02
      6236 MEMB     52       PMPE     HN2      HCL      0.330000       1.00800           0   0.00000     -0.301140E-02
      6237 MEMB     52       PMPE     HN3      HCL      0.330000       1.00800           0   0.00000     -0.301140E-02
      6238 MEMB     52       PMPE     C12      CTL2     0.130000       12.0110           0   0.00000     -0.301140E-02
      6239 MEMB     52       PMPE     H12A     HAL2     0.900000E-01   1.00800           0   0.00000     -0.301140E-02
      6240 MEMB     52       PMPE     H12B     HAL2     0.900000E-01   1.00800           0   0.00000     -0.301140E-02
      6241 MEMB     52       PMPE     C11      CTL2    -0.800000E-01   12.0110           0   0.00000     -0.301140E-02
      6242 MEMB     52       PMPE     H11A     HAL2     0.900000E-01   1.00800           0   0.00000     -0.301140E-02
      6243 MEMB     52       PMPE     H11B     HAL2     0.900000E-01   1.00800           0   0.00000     -0.301140E-02
      6244 MEMB     52       PMPE     P        PL        1.50000       30.9740           0   0.00000     -0.301140E-02
      6245 MEMB     52       PMPE     O13      O2L     -0.780000       15.9994           0   0.00000     -0.301140E-02
      6246 MEMB     52       PMPE     O14      O2L     -0.780000       15.9994           0   0.00000     -0.301140E-02
      6247 MEMB     52       PMPE     O11      OSLP    -0.570000       15.9994           0   0.00000     -0.301140E-02
      6248 MEMB     52       PMPE     O12      OSLP    -0.570000       15.9994           0   0.00000     -0.301140E-02
      6249 MEMB     52       PMPE     C1       CTL2    -0.800000E-01   12.0110           0   0.00000     -0.301140E-02
      6250 MEMB     52       PMPE     HA       HAL2     0.900000E-01   1.00800           0   0.00000     -0.301140E-02
      6251 MEMB     52       PMPE     HB       HAL2     0.900000E-01   1.00800           0   0.00000     -0.301140E-02
      6252 MEMB     52       PMPE     C2       CTL1     0.170000       12.0110           0   0.00000     -0.301140E-02
      6253 MEMB     52       PMPE     HS       HAL1     0.900000E-01   1.00800           0   0.00000     -0.301140E-02
      6254 MEMB     52       PMPE     O21      OSL     -0.490000       15.9994           0   0.00000     -0.301140E-02
      6255 MEMB     52       PMPE     C21      CL       0.900000       12.0110           0   0.00000     -0.301140E-02
      6256 MEMB     52       PMPE     O22      OBL     -0.630000       15.9994           0   0.00000     -0.301140E-02
      6257 MEMB     52       PMPE     C22      CTL2    -0.220000       12.0110           0   0.00000     -0.301140E-02
      6258 MEMB     52       PMPE     H2R      HAL2     0.900000E-01   1.00800           0   0.00000     -0.301140E-02
      6259 MEMB     52       PMPE     H2S      HAL2     0.900000E-01   1.00800           0   0.00000     -0.301140E-02
      6260 MEMB     52       PMPE     C3       CTL2     0.800000E-01   12.0110           0   0.00000     -0.301140E-02
      6261 MEMB     52       PMPE     HX       HAL2     0.900000E-01   1.00800           0   0.00000     -0.301140E-02
      6262 MEMB     52       PMPE     HY       HAL2     0.900000E-01   1.00800           0   0.00000     -0.301140E-02
      6263 MEMB     52       PMPE     O31      OSL     -0.490000       15.9994           0   0.00000     -0.301140E-02
      6264 MEMB     52       PMPE     C31      CL       0.900000       12.0110           0   0.00000     -0.301140E-02
      6265 MEMB     52       PMPE     O32      OBL     -0.630000       15.9994           0   0.00000     -0.301140E-02
      6266 MEMB     52       PMPE     C32      CTL2    -0.220000       12.0110           0   0.00000     -0.301140E-02
      6267 MEMB     52       PMPE     H2X      HAL2     0.900000E-01   1.00800           0   0.00000     -0.301140E-02
      6268 MEMB     52       PMPE     H2Y      HAL2     0.900000E-01   1.00800           0   0.00000     -0.301140E-02
      6269 MEMB     52       PMPE     C23      CTL2    -0.180000       12.0110           0   0.00000     -0.301140E-02
      6270 MEMB     52       PMPE     H3R      HAL2     0.900000E-01   1.00800           0   0.00000     -0.301140E-02
      6271 MEMB     52       PMPE     H3S      HAL2     0.900000E-01   1.00800           0   0.00000     -0.301140E-02
      6272 MEMB     52       PMPE     C24      CTL2    -0.180000       12.0110           0   0.00000     -0.301140E-02
      6273 MEMB     52       PMPE     H4R      HAL2     0.900000E-01   1.00800           0   0.00000     -0.301140E-02
      6274 MEMB     52       PMPE     H4S      HAL2     0.900000E-01   1.00800           0   0.00000     -0.301140E-02
      6275 MEMB     52       PMPE     C25      CTL2    -0.180000       12.0110           0   0.00000     -0.301140E-02
      6276 MEMB     52       PMPE     H5R      HAL2     0.900000E-01   1.00800           0   0.00000     -0.301140E-02
      6277 MEMB     52       PMPE     H5S      HAL2     0.900000E-01   1.00800           0   0.00000     -0.301140E-02
      6278 MEMB     52       PMPE     C26      CTL2    -0.180000       12.0110           0   0.00000     -0.301140E-02
      6279 MEMB     52       PMPE     H6R      HAL2     0.900000E-01   1.00800           0   0.00000     -0.301140E-02
      6280 MEMB     52       PMPE     H6S      HAL2     0.900000E-01   1.00800           0   0.00000     -0.301140E-02
      6281 MEMB     52       PMPE     C27      CTL2    -0.180000       12.0110           0   0.00000     -0.301140E-02
      6282 MEMB     52       PMPE     H7R      HAL2     0.900000E-01   1.00800           0   0.00000     -0.301140E-02
      6283 MEMB     52       PMPE     H7S      HAL2     0.900000E-01   1.00800           0   0.00000     -0.301140E-02
      6284 MEMB     52       PMPE     C28      CTL2    -0.180000       12.0110           0   0.00000     -0.301140E-02
      6285 MEMB     52       PMPE     H8R      HAL2     0.900000E-01   1.00800           0   0.00000     -0.301140E-02
      6286 MEMB     52       PMPE     H8S      HAL2     0.900000E-01   1.00800           0   0.00000     -0.301140E-02
      6287 MEMB     52       PMPE     C29      CG3RC1  -0.900000E-01   12.0110           0   0.00000     -0.301140E-02
      6288 MEMB     52       PMPE     H9R      HGA1     0.900000E-01   1.00800           0   0.00000     -0.301140E-02
      6289 MEMB     52       PMPE     C217     CG3C31  -0.180000       12.0110           0   0.00000     -0.301140E-02
      6290 MEMB     52       PMPE     H17R     HGA2     0.900000E-01   1.00800           0   0.00000     -0.301140E-02
      6291 MEMB     52       PMPE     H17S     HGA2     0.900000E-01   1.00800           0   0.00000     -0.301140E-02
      6292 MEMB     52       PMPE     C210     CG3RC1  -0.900000E-01   12.0110           0   0.00000     -0.301140E-02
      6293 MEMB     52       PMPE     H10R     HGA1     0.900000E-01   1.00800           0   0.00000     -0.301140E-02
      6294 MEMB     52       PMPE     C211     CTL2    -0.180000       12.0110           0   0.00000     -0.301140E-02
      6295 MEMB     52       PMPE     H11R     HAL2     0.900000E-01   1.00800           0   0.00000     -0.301140E-02
      6296 MEMB     52       PMPE     H11S     HAL2     0.900000E-01   1.00800           0   0.00000     -0.301140E-02
      6297 MEMB     52       PMPE     C212     CTL2    -0.180000       12.0110           0   0.00000     -0.301140E-02
      6298 MEMB     52       PMPE     H12R     HAL2     0.900000E-01   1.00800           0   0.00000     -0.301140E-02
      6299 MEMB     52       PMPE     H12S     HAL2     0.900000E-01   1.00800           0   0.00000     -0.301140E-02
      6300 MEMB     52       PMPE     C213     CTL2    -0.180000       12.0110           0   0.00000     -0.301140E-02
      6301 MEMB     52       PMPE     H13R     HAL2     0.900000E-01   1.00800           0   0.00000     -0.301140E-02
      6302 MEMB     52       PMPE     H13S     HAL2     0.900000E-01   1.00800           0   0.00000     -0.301140E-02
      6303 MEMB     52       PMPE     C214     CTL2    -0.180000       12.0110           0   0.00000     -0.301140E-02
      6304 MEMB     52       PMPE     H14R     HAL2     0.900000E-01   1.00800           0   0.00000     -0.301140E-02
      6305 MEMB     52       PMPE     H14S     HAL2     0.900000E-01   1.00800           0   0.00000     -0.301140E-02
      6306 MEMB     52       PMPE     C215     CTL2    -0.180000       12.0110           0   0.00000     -0.301140E-02
      6307 MEMB     52       PMPE     H15R     HAL2     0.900000E-01   1.00800           0   0.00000     -0.301140E-02
      6308 MEMB     52       PMPE     H15S     HAL2     0.900000E-01   1.00800           0   0.00000     -0.301140E-02
      6309 MEMB     52       PMPE     C216     CTL3    -0.270000       12.0110           0   0.00000     -0.301140E-02
      6310 MEMB     52       PMPE     H16R     HAL3     0.900000E-01   1.00800           0   0.00000     -0.301140E-02
      6311 MEMB     52       PMPE     H16S     HAL3     0.900000E-01   1.00800           0   0.00000     -0.301140E-02
      6312 MEMB     52       PMPE     H16T     HAL3     0.900000E-01   1.00800           0   0.00000     -0.301140E-02
      6313 MEMB     52       PMPE     C33      CTL2    -0.180000       12.0110           0   0.00000     -0.301140E-02
      6314 MEMB     52       PMPE     H3X      HAL2     0.900000E-01   1.00800           0   0.00000     -0.301140E-02
      6315 MEMB     52       PMPE     H3Y      HAL2     0.900000E-01   1.00800           0   0.00000     -0.301140E-02
      6316 MEMB     52       PMPE     C34      CTL2    -0.180000       12.0110           0   0.00000     -0.301140E-02
      6317 MEMB     52       PMPE     H4X      HAL2     0.900000E-01   1.00800           0   0.00000     -0.301140E-02
      6318 MEMB     52       PMPE     H4Y      HAL2     0.900000E-01   1.00800           0   0.00000     -0.301140E-02
      6319 MEMB     52       PMPE     C35      CTL2    -0.180000       12.0110           0   0.00000     -0.301140E-02
      6320 MEMB     52       PMPE     H5X      HAL2     0.900000E-01   1.00800           0   0.00000     -0.301140E-02
      6321 MEMB     52       PMPE     H5Y      HAL2     0.900000E-01   1.00800           0   0.00000     -0.301140E-02
      6322 MEMB     52       PMPE     C36      CTL2    -0.180000       12.0110           0   0.00000     -0.301140E-02
      6323 MEMB     52       PMPE     H6X      HAL2     0.900000E-01   1.00800           0   0.00000     -0.301140E-02
      6324 MEMB     52       PMPE     H6Y      HAL2     0.900000E-01   1.00800           0   0.00000     -0.301140E-02
      6325 MEMB     52       PMPE     C37      CTL2    -0.180000       12.0110           0   0.00000     -0.301140E-02
      6326 MEMB     52       PMPE     H7X      HAL2     0.900000E-01   1.00800           0   0.00000     -0.301140E-02
      6327 MEMB     52       PMPE     H7Y      HAL2     0.900000E-01   1.00800           0   0.00000     -0.301140E-02
      6328 MEMB     52       PMPE     C38      CTL2    -0.180000       12.0110           0   0.00000     -0.301140E-02
      6329 MEMB     52       PMPE     H8X      HAL2     0.900000E-01   1.00800           0   0.00000     -0.301140E-02
      6330 MEMB     52       PMPE     H8Y      HAL2     0.900000E-01   1.00800           0   0.00000     -0.301140E-02
      6331 MEMB     52       PMPE     C39      CTL2    -0.180000       12.0110           0   0.00000     -0.301140E-02
      6332 MEMB     52       PMPE     H9X      HAL2     0.900000E-01   1.00800           0   0.00000     -0.301140E-02
      6333 MEMB     52       PMPE     H9Y      HAL2     0.900000E-01   1.00800           0   0.00000     -0.301140E-02
      6334 MEMB     52       PMPE     C310     CTL2    -0.180000       12.0110           0   0.00000     -0.301140E-02
      6335 MEMB     52       PMPE     H10X     HAL2     0.900000E-01   1.00800           0   0.00000     -0.301140E-02
      6336 MEMB     52       PMPE     H10Y     HAL2     0.900000E-01   1.00800           0   0.00000     -0.301140E-02
      6337 MEMB     52       PMPE     C311     CTL2    -0.180000       12.0110           0   0.00000     -0.301140E-02
      6338 MEMB     52       PMPE     H11X     HAL2     0.900000E-01   1.00800           0   0.00000     -0.301140E-02
      6339 MEMB     52       PMPE     H11Y     HAL2     0.900000E-01   1.00800           0   0.00000     -0.301140E-02
      6340 MEMB     52       PMPE     C312     CTL2    -0.180000       12.0110           0   0.00000     -0.301140E-02
      6341 MEMB     52       PMPE     H12X     HAL2     0.900000E-01   1.00800           0   0.00000     -0.301140E-02
      6342 MEMB     52       PMPE     H12Y     HAL2     0.900000E-01   1.00800           0   0.00000     -0.301140E-02
      6343 MEMB     52       PMPE     C313     CTL2    -0.180000       12.0110           0   0.00000     -0.301140E-02
      6344 MEMB     52       PMPE     H13X     HAL2     0.900000E-01   1.00800           0   0.00000     -0.301140E-02
      6345 MEMB     52       PMPE     H13Y     HAL2     0.900000E-01   1.00800           0   0.00000     -0.301140E-02
      6346 MEMB     52       PMPE     C314     CTL2    -0.180000       12.0110           0   0.00000     -0.301140E-02
      6347 MEMB     52       PMPE     H14X     HAL2     0.900000E-01   1.00800           0   0.00000     -0.301140E-02
      6348 MEMB     52       PMPE     H14Y     HAL2     0.900000E-01   1.00800           0   0.00000     -0.301140E-02
      6349 MEMB     52       PMPE     C315     CTL2    -0.180000       12.0110           0   0.00000     -0.301140E-02
      6350 MEMB     52       PMPE     H15X     HAL2     0.900000E-01   1.00800           0   0.00000     -0.301140E-02
      6351 MEMB     52       PMPE     H15Y     HAL2     0.900000E-01   1.00800           0   0.00000     -0.301140E-02
      6352 MEMB     52       PMPE     C316     CTL3    -0.270000       12.0110           0   0.00000     -0.301140E-02
      6353 MEMB     52       PMPE     H16X     HAL3     0.900000E-01   1.00800           0   0.00000     -0.301140E-02
      6354 MEMB     52       PMPE     H16Y     HAL3     0.900000E-01   1.00800           0   0.00000     -0.301140E-02
      6355 MEMB     52       PMPE     H16Z     HAL3     0.900000E-01   1.00800           0   0.00000     -0.301140E-02
      6356 MEMB     53       PMPE     N        NH3L    -0.300000       14.0070           0   0.00000     -0.301140E-02
      6357 MEMB     53       PMPE     HN1      HCL      0.330000       1.00800           0   0.00000     -0.301140E-02
      6358 MEMB     53       PMPE     HN2      HCL      0.330000       1.00800           0   0.00000     -0.301140E-02
      6359 MEMB     53       PMPE     HN3      HCL      0.330000       1.00800           0   0.00000     -0.301140E-02
      6360 MEMB     53       PMPE     C12      CTL2     0.130000       12.0110           0   0.00000     -0.301140E-02
      6361 MEMB     53       PMPE     H12A     HAL2     0.900000E-01   1.00800           0   0.00000     -0.301140E-02
      6362 MEMB     53       PMPE     H12B     HAL2     0.900000E-01   1.00800           0   0.00000     -0.301140E-02
      6363 MEMB     53       PMPE     C11      CTL2    -0.800000E-01   12.0110           0   0.00000     -0.301140E-02
      6364 MEMB     53       PMPE     H11A     HAL2     0.900000E-01   1.00800           0   0.00000     -0.301140E-02
      6365 MEMB     53       PMPE     H11B     HAL2     0.900000E-01   1.00800           0   0.00000     -0.301140E-02
      6366 MEMB     53       PMPE     P        PL        1.50000       30.9740           0   0.00000     -0.301140E-02
      6367 MEMB     53       PMPE     O13      O2L     -0.780000       15.9994           0   0.00000     -0.301140E-02
      6368 MEMB     53       PMPE     O14      O2L     -0.780000       15.9994           0   0.00000     -0.301140E-02
      6369 MEMB     53       PMPE     O11      OSLP    -0.570000       15.9994           0   0.00000     -0.301140E-02
      6370 MEMB     53       PMPE     O12      OSLP    -0.570000       15.9994           0   0.00000     -0.301140E-02
      6371 MEMB     53       PMPE     C1       CTL2    -0.800000E-01   12.0110           0   0.00000     -0.301140E-02
      6372 MEMB     53       PMPE     HA       HAL2     0.900000E-01   1.00800           0   0.00000     -0.301140E-02
      6373 MEMB     53       PMPE     HB       HAL2     0.900000E-01   1.00800           0   0.00000     -0.301140E-02
      6374 MEMB     53       PMPE     C2       CTL1     0.170000       12.0110           0   0.00000     -0.301140E-02
      6375 MEMB     53       PMPE     HS       HAL1     0.900000E-01   1.00800           0   0.00000     -0.301140E-02
      6376 MEMB     53       PMPE     O21      OSL     -0.490000       15.9994           0   0.00000     -0.301140E-02
      6377 MEMB     53       PMPE     C21      CL       0.900000       12.0110           0   0.00000     -0.301140E-02
      6378 MEMB     53       PMPE     O22      OBL     -0.630000       15.9994           0   0.00000     -0.301140E-02
      6379 MEMB     53       PMPE     C22      CTL2    -0.220000       12.0110           0   0.00000     -0.301140E-02
      6380 MEMB     53       PMPE     H2R      HAL2     0.900000E-01   1.00800           0   0.00000     -0.301140E-02
      6381 MEMB     53       PMPE     H2S      HAL2     0.900000E-01   1.00800           0   0.00000     -0.301140E-02
      6382 MEMB     53       PMPE     C3       CTL2     0.800000E-01   12.0110           0   0.00000     -0.301140E-02
      6383 MEMB     53       PMPE     HX       HAL2     0.900000E-01   1.00800           0   0.00000     -0.301140E-02
      6384 MEMB     53       PMPE     HY       HAL2     0.900000E-01   1.00800           0   0.00000     -0.301140E-02
      6385 MEMB     53       PMPE     O31      OSL     -0.490000       15.9994           0   0.00000     -0.301140E-02
      6386 MEMB     53       PMPE     C31      CL       0.900000       12.0110           0   0.00000     -0.301140E-02
      6387 MEMB     53       PMPE     O32      OBL     -0.630000       15.9994           0   0.00000     -0.301140E-02
      6388 MEMB     53       PMPE     C32      CTL2    -0.220000       12.0110           0   0.00000     -0.301140E-02
      6389 MEMB     53       PMPE     H2X      HAL2     0.900000E-01   1.00800           0   0.00000     -0.301140E-02
      6390 MEMB     53       PMPE     H2Y      HAL2     0.900000E-01   1.00800           0   0.00000     -0.301140E-02
      6391 MEMB     53       PMPE     C23      CTL2    -0.180000       12.0110           0   0.00000     -0.301140E-02
      6392 MEMB     53       PMPE     H3R      HAL2     0.900000E-01   1.00800           0   0.00000     -0.301140E-02
      6393 MEMB     53       PMPE     H3S      HAL2     0.900000E-01   1.00800           0   0.00000     -0.301140E-02
      6394 MEMB     53       PMPE     C24      CTL2    -0.180000       12.0110           0   0.00000     -0.301140E-02
      6395 MEMB     53       PMPE     H4R      HAL2     0.900000E-01   1.00800           0   0.00000     -0.301140E-02
      6396 MEMB     53       PMPE     H4S      HAL2     0.900000E-01   1.00800           0   0.00000     -0.301140E-02
      6397 MEMB     53       PMPE     C25      CTL2    -0.180000       12.0110           0   0.00000     -0.301140E-02
      6398 MEMB     53       PMPE     H5R      HAL2     0.900000E-01   1.00800           0   0.00000     -0.301140E-02
      6399 MEMB     53       PMPE     H5S      HAL2     0.900000E-01   1.00800           0   0.00000     -0.301140E-02
      6400 MEMB     53       PMPE     C26      CTL2    -0.180000       12.0110           0   0.00000     -0.301140E-02
      6401 MEMB     53       PMPE     H6R      HAL2     0.900000E-01   1.00800           0   0.00000     -0.301140E-02
      6402 MEMB     53       PMPE     H6S      HAL2     0.900000E-01   1.00800           0   0.00000     -0.301140E-02
      6403 MEMB     53       PMPE     C27      CTL2    -0.180000       12.0110           0   0.00000     -0.301140E-02
      6404 MEMB     53       PMPE     H7R      HAL2     0.900000E-01   1.00800           0   0.00000     -0.301140E-02
      6405 MEMB     53       PMPE     H7S      HAL2     0.900000E-01   1.00800           0   0.00000     -0.301140E-02
      6406 MEMB     53       PMPE     C28      CTL2    -0.180000       12.0110           0   0.00000     -0.301140E-02
      6407 MEMB     53       PMPE     H8R      HAL2     0.900000E-01   1.00800           0   0.00000     -0.301140E-02
      6408 MEMB     53       PMPE     H8S      HAL2     0.900000E-01   1.00800           0   0.00000     -0.301140E-02
      6409 MEMB     53       PMPE     C29      CG3RC1  -0.900000E-01   12.0110           0   0.00000     -0.301140E-02
      6410 MEMB     53       PMPE     H9R      HGA1     0.900000E-01   1.00800           0   0.00000     -0.301140E-02
      6411 MEMB     53       PMPE     C217     CG3C31  -0.180000       12.0110           0   0.00000     -0.301140E-02
      6412 MEMB     53       PMPE     H17R     HGA2     0.900000E-01   1.00800           0   0.00000     -0.301140E-02
      6413 MEMB     53       PMPE     H17S     HGA2     0.900000E-01   1.00800           0   0.00000     -0.301140E-02
      6414 MEMB     53       PMPE     C210     CG3RC1  -0.900000E-01   12.0110           0   0.00000     -0.301140E-02
      6415 MEMB     53       PMPE     H10R     HGA1     0.900000E-01   1.00800           0   0.00000     -0.301140E-02
      6416 MEMB     53       PMPE     C211     CTL2    -0.180000       12.0110           0   0.00000     -0.301140E-02
      6417 MEMB     53       PMPE     H11R     HAL2     0.900000E-01   1.00800           0   0.00000     -0.301140E-02
      6418 MEMB     53       PMPE     H11S     HAL2     0.900000E-01   1.00800           0   0.00000     -0.301140E-02
      6419 MEMB     53       PMPE     C212     CTL2    -0.180000       12.0110           0   0.00000     -0.301140E-02
      6420 MEMB     53       PMPE     H12R     HAL2     0.900000E-01   1.00800           0   0.00000     -0.301140E-02
      6421 MEMB     53       PMPE     H12S     HAL2     0.900000E-01   1.00800           0   0.00000     -0.301140E-02
      6422 MEMB     53       PMPE     C213     CTL2    -0.180000       12.0110           0   0.00000     -0.301140E-02
      6423 MEMB     53       PMPE     H13R     HAL2     0.900000E-01   1.00800           0   0.00000     -0.301140E-02
      6424 MEMB     53       PMPE     H13S     HAL2     0.900000E-01   1.00800           0   0.00000     -0.301140E-02
      6425 MEMB     53       PMPE     C214     CTL2    -0.180000       12.0110           0   0.00000     -0.301140E-02
      6426 MEMB     53       PMPE     H14R     HAL2     0.900000E-01   1.00800           0   0.00000     -0.301140E-02
      6427 MEMB     53       PMPE     H14S     HAL2     0.900000E-01   1.00800           0   0.00000     -0.301140E-02
      6428 MEMB     53       PMPE     C215     CTL2    -0.180000       12.0110           0   0.00000     -0.301140E-02
      6429 MEMB     53       PMPE     H15R     HAL2     0.900000E-01   1.00800           0   0.00000     -0.301140E-02
      6430 MEMB     53       PMPE     H15S     HAL2     0.900000E-01   1.00800           0   0.00000     -0.301140E-02
      6431 MEMB     53       PMPE     C216     CTL3    -0.270000       12.0110           0   0.00000     -0.301140E-02
      6432 MEMB     53       PMPE     H16R     HAL3     0.900000E-01   1.00800           0   0.00000     -0.301140E-02
      6433 MEMB     53       PMPE     H16S     HAL3     0.900000E-01   1.00800           0   0.00000     -0.301140E-02
      6434 MEMB     53       PMPE     H16T     HAL3     0.900000E-01   1.00800           0   0.00000     -0.301140E-02
      6435 MEMB     53       PMPE     C33      CTL2    -0.180000       12.0110           0   0.00000     -0.301140E-02
      6436 MEMB     53       PMPE     H3X      HAL2     0.900000E-01   1.00800           0   0.00000     -0.301140E-02
      6437 MEMB     53       PMPE     H3Y      HAL2     0.900000E-01   1.00800           0   0.00000     -0.301140E-02
      6438 MEMB     53       PMPE     C34      CTL2    -0.180000       12.0110           0   0.00000     -0.301140E-02
      6439 MEMB     53       PMPE     H4X      HAL2     0.900000E-01   1.00800           0   0.00000     -0.301140E-02
      6440 MEMB     53       PMPE     H4Y      HAL2     0.900000E-01   1.00800           0   0.00000     -0.301140E-02
      6441 MEMB     53       PMPE     C35      CTL2    -0.180000       12.0110           0   0.00000     -0.301140E-02
      6442 MEMB     53       PMPE     H5X      HAL2     0.900000E-01   1.00800           0   0.00000     -0.301140E-02
      6443 MEMB     53       PMPE     H5Y      HAL2     0.900000E-01   1.00800           0   0.00000     -0.301140E-02
      6444 MEMB     53       PMPE     C36      CTL2    -0.180000       12.0110           0   0.00000     -0.301140E-02
      6445 MEMB     53       PMPE     H6X      HAL2     0.900000E-01   1.00800           0   0.00000     -0.301140E-02
      6446 MEMB     53       PMPE     H6Y      HAL2     0.900000E-01   1.00800           0   0.00000     -0.301140E-02
      6447 MEMB     53       PMPE     C37      CTL2    -0.180000       12.0110           0   0.00000     -0.301140E-02
      6448 MEMB     53       PMPE     H7X      HAL2     0.900000E-01   1.00800           0   0.00000     -0.301140E-02
      6449 MEMB     53       PMPE     H7Y      HAL2     0.900000E-01   1.00800           0   0.00000     -0.301140E-02
      6450 MEMB     53       PMPE     C38      CTL2    -0.180000       12.0110           0   0.00000     -0.301140E-02
      6451 MEMB     53       PMPE     H8X      HAL2     0.900000E-01   1.00800           0   0.00000     -0.301140E-02
      6452 MEMB     53       PMPE     H8Y      HAL2     0.900000E-01   1.00800           0   0.00000     -0.301140E-02
      6453 MEMB     53       PMPE     C39      CTL2    -0.180000       12.0110           0   0.00000     -0.301140E-02
      6454 MEMB     53       PMPE     H9X      HAL2     0.900000E-01   1.00800           0   0.00000     -0.301140E-02
      6455 MEMB     53       PMPE     H9Y      HAL2     0.900000E-01   1.00800           0   0.00000     -0.301140E-02
      6456 MEMB     53       PMPE     C310     CTL2    -0.180000       12.0110           0   0.00000     -0.301140E-02
      6457 MEMB     53       PMPE     H10X     HAL2     0.900000E-01   1.00800           0   0.00000     -0.301140E-02
      6458 MEMB     53       PMPE     H10Y     HAL2     0.900000E-01   1.00800           0   0.00000     -0.301140E-02
      6459 MEMB     53       PMPE     C311     CTL2    -0.180000       12.0110           0   0.00000     -0.301140E-02
      6460 MEMB     53       PMPE     H11X     HAL2     0.900000E-01   1.00800           0   0.00000     -0.301140E-02
      6461 MEMB     53       PMPE     H11Y     HAL2     0.900000E-01   1.00800           0   0.00000     -0.301140E-02
      6462 MEMB     53       PMPE     C312     CTL2    -0.180000       12.0110           0   0.00000     -0.301140E-02
      6463 MEMB     53       PMPE     H12X     HAL2     0.900000E-01   1.00800           0   0.00000     -0.301140E-02
      6464 MEMB     53       PMPE     H12Y     HAL2     0.900000E-01   1.00800           0   0.00000     -0.301140E-02
      6465 MEMB     53       PMPE     C313     CTL2    -0.180000       12.0110           0   0.00000     -0.301140E-02
      6466 MEMB     53       PMPE     H13X     HAL2     0.900000E-01   1.00800           0   0.00000     -0.301140E-02
      6467 MEMB     53       PMPE     H13Y     HAL2     0.900000E-01   1.00800           0   0.00000     -0.301140E-02
      6468 MEMB     53       PMPE     C314     CTL2    -0.180000       12.0110           0   0.00000     -0.301140E-02
      6469 MEMB     53       PMPE     H14X     HAL2     0.900000E-01   1.00800           0   0.00000     -0.301140E-02
      6470 MEMB     53       PMPE     H14Y     HAL2     0.900000E-01   1.00800           0   0.00000     -0.301140E-02
      6471 MEMB     53       PMPE     C315     CTL2    -0.180000       12.0110           0   0.00000     -0.301140E-02
      6472 MEMB     53       PMPE     H15X     HAL2     0.900000E-01   1.00800           0   0.00000     -0.301140E-02
      6473 MEMB     53       PMPE     H15Y     HAL2     0.900000E-01   1.00800           0   0.00000     -0.301140E-02
      6474 MEMB     53       PMPE     C316     CTL3    -0.270000       12.0110           0   0.00000     -0.301140E-02
      6475 MEMB     53       PMPE     H16X     HAL3     0.900000E-01   1.00800           0   0.00000     -0.301140E-02
      6476 MEMB     53       PMPE     H16Y     HAL3     0.900000E-01   1.00800           0   0.00000     -0.301140E-02
      6477 MEMB     53       PMPE     H16Z     HAL3     0.900000E-01   1.00800           0   0.00000     -0.301140E-02
      6478 MEMB     54       PMPG     C13      CTL2     0.500000E-01   12.0110           0   0.00000     -0.301140E-02
      6479 MEMB     54       PMPG     H13A     HAL2     0.900000E-01   1.00800           0   0.00000     -0.301140E-02
      6480 MEMB     54       PMPG     H13B     HAL2     0.900000E-01   1.00800           0   0.00000     -0.301140E-02
      6481 MEMB     54       PMPG     OC3      OHL     -0.660000       15.9994           0   0.00000     -0.301140E-02
      6482 MEMB     54       PMPG     HO3      HOL      0.430000       1.00800           0   0.00000     -0.301140E-02
      6483 MEMB     54       PMPG     C12      CTL1     0.140000       12.0110           0   0.00000     -0.301140E-02
      6484 MEMB     54       PMPG     H12A     HAL1     0.900000E-01   1.00800           0   0.00000     -0.301140E-02
      6485 MEMB     54       PMPG     OC2      OHL     -0.660000       15.9994           0   0.00000     -0.301140E-02
      6486 MEMB     54       PMPG     HO2      HOL      0.430000       1.00800           0   0.00000     -0.301140E-02
      6487 MEMB     54       PMPG     C11      CTL2    -0.800000E-01   12.0110           0   0.00000     -0.301140E-02
      6488 MEMB     54       PMPG     H11A     HAL2     0.900000E-01   1.00800           0   0.00000     -0.301140E-02
      6489 MEMB     54       PMPG     H11B     HAL2     0.900000E-01   1.00800           0   0.00000     -0.301140E-02
      6490 MEMB     54       PMPG     P        PL        1.50000       30.9740           0   0.00000     -0.301140E-02
      6491 MEMB     54       PMPG     O13      O2L     -0.780000       15.9994           0   0.00000     -0.301140E-02
      6492 MEMB     54       PMPG     O14      O2L     -0.780000       15.9994           0   0.00000     -0.301140E-02
      6493 MEMB     54       PMPG     O11      OSLP    -0.570000       15.9994           0   0.00000     -0.301140E-02
      6494 MEMB     54       PMPG     O12      OSLP    -0.570000       15.9994           0   0.00000     -0.301140E-02
      6495 MEMB     54       PMPG     C1       CTL2    -0.800000E-01   12.0110           0   0.00000     -0.301140E-02
      6496 MEMB     54       PMPG     HA       HAL2     0.900000E-01   1.00800           0   0.00000     -0.301140E-02
      6497 MEMB     54       PMPG     HB       HAL2     0.900000E-01   1.00800           0   0.00000     -0.301140E-02
      6498 MEMB     54       PMPG     C2       CTL1     0.170000       12.0110           0   0.00000     -0.301140E-02
      6499 MEMB     54       PMPG     HS       HAL1     0.900000E-01   1.00800           0   0.00000     -0.301140E-02
      6500 MEMB     54       PMPG     O21      OSL     -0.490000       15.9994           0   0.00000     -0.301140E-02
      6501 MEMB     54       PMPG     C21      CL       0.900000       12.0110           0   0.00000     -0.301140E-02
      6502 MEMB     54       PMPG     O22      OBL     -0.630000       15.9994           0   0.00000     -0.301140E-02
      6503 MEMB     54       PMPG     C22      CTL2    -0.220000       12.0110           0   0.00000     -0.301140E-02
      6504 MEMB     54       PMPG     H2R      HAL2     0.900000E-01   1.00800           0   0.00000     -0.301140E-02
      6505 MEMB     54       PMPG     H2S      HAL2     0.900000E-01   1.00800           0   0.00000     -0.301140E-02
      6506 MEMB     54       PMPG     C3       CTL2     0.800000E-01   12.0110           0   0.00000     -0.301140E-02
      6507 MEMB     54       PMPG     HX       HAL2     0.900000E-01   1.00800           0   0.00000     -0.301140E-02
      6508 MEMB     54       PMPG     HY       HAL2     0.900000E-01   1.00800           0   0.00000     -0.301140E-02
      6509 MEMB     54       PMPG     O31      OSL     -0.490000       15.9994           0   0.00000     -0.301140E-02
      6510 MEMB     54       PMPG     C31      CL       0.900000       12.0110           0   0.00000     -0.301140E-02
      6511 MEMB     54       PMPG     O32      OBL     -0.630000       15.9994           0   0.00000     -0.301140E-02
      6512 MEMB     54       PMPG     C32      CTL2    -0.220000       12.0110           0   0.00000     -0.301140E-02
      6513 MEMB     54       PMPG     H2X      HAL2     0.900000E-01   1.00800           0   0.00000     -0.301140E-02
      6514 MEMB     54       PMPG     H2Y      HAL2     0.900000E-01   1.00800           0   0.00000     -0.301140E-02
      6515 MEMB     54       PMPG     C23      CTL2    -0.180000       12.0110           0   0.00000     -0.301140E-02
      6516 MEMB     54       PMPG     H3R      HAL2     0.900000E-01   1.00800           0   0.00000     -0.301140E-02
      6517 MEMB     54       PMPG     H3S      HAL2     0.900000E-01   1.00800           0   0.00000     -0.301140E-02
      6518 MEMB     54       PMPG     C24      CTL2    -0.180000       12.0110           0   0.00000     -0.301140E-02
      6519 MEMB     54       PMPG     H4R      HAL2     0.900000E-01   1.00800           0   0.00000     -0.301140E-02
      6520 MEMB     54       PMPG     H4S      HAL2     0.900000E-01   1.00800           0   0.00000     -0.301140E-02
      6521 MEMB     54       PMPG     C25      CTL2    -0.180000       12.0110           0   0.00000     -0.301140E-02
      6522 MEMB     54       PMPG     H5R      HAL2     0.900000E-01   1.00800           0   0.00000     -0.301140E-02
      6523 MEMB     54       PMPG     H5S      HAL2     0.900000E-01   1.00800           0   0.00000     -0.301140E-02
      6524 MEMB     54       PMPG     C26      CTL2    -0.180000       12.0110           0   0.00000     -0.301140E-02
      6525 MEMB     54       PMPG     H6R      HAL2     0.900000E-01   1.00800           0   0.00000     -0.301140E-02
      6526 MEMB     54       PMPG     H6S      HAL2     0.900000E-01   1.00800           0   0.00000     -0.301140E-02
      6527 MEMB     54       PMPG     C27      CTL2    -0.180000       12.0110           0   0.00000     -0.301140E-02
      6528 MEMB     54       PMPG     H7R      HAL2     0.900000E-01   1.00800           0   0.00000     -0.301140E-02
      6529 MEMB     54       PMPG     H7S      HAL2     0.900000E-01   1.00800           0   0.00000     -0.301140E-02
      6530 MEMB     54       PMPG     C28      CTL2    -0.180000       12.0110           0   0.00000     -0.301140E-02
      6531 MEMB     54       PMPG     H8R      HAL2     0.900000E-01   1.00800           0   0.00000     -0.301140E-02
      6532 MEMB     54       PMPG     H8S      HAL2     0.900000E-01   1.00800           0   0.00000     -0.301140E-02
      6533 MEMB     54       PMPG     C29      CG3RC1  -0.900000E-01   12.0110           0   0.00000     -0.301140E-02
      6534 MEMB     54       PMPG     H9R      HGA1     0.900000E-01   1.00800           0   0.00000     -0.301140E-02
      6535 MEMB     54       PMPG     C217     CG3C31  -0.180000       12.0110           0   0.00000     -0.301140E-02
      6536 MEMB     54       PMPG     H17R     HGA2     0.900000E-01   1.00800           0   0.00000     -0.301140E-02
      6537 MEMB     54       PMPG     H17S     HGA2     0.900000E-01   1.00800           0   0.00000     -0.301140E-02
      6538 MEMB     54       PMPG     C210     CG3RC1  -0.900000E-01   12.0110           0   0.00000     -0.301140E-02
      6539 MEMB     54       PMPG     H10R     HGA1     0.900000E-01   1.00800           0   0.00000     -0.301140E-02
      6540 MEMB     54       PMPG     C211     CTL2    -0.180000       12.0110           0   0.00000     -0.301140E-02
      6541 MEMB     54       PMPG     H11R     HAL2     0.900000E-01   1.00800           0   0.00000     -0.301140E-02
      6542 MEMB     54       PMPG     H11S     HAL2     0.900000E-01   1.00800           0   0.00000     -0.301140E-02
      6543 MEMB     54       PMPG     C212     CTL2    -0.180000       12.0110           0   0.00000     -0.301140E-02
      6544 MEMB     54       PMPG     H12R     HAL2     0.900000E-01   1.00800           0   0.00000     -0.301140E-02
      6545 MEMB     54       PMPG     H12S     HAL2     0.900000E-01   1.00800           0   0.00000     -0.301140E-02
      6546 MEMB     54       PMPG     C213     CTL2    -0.180000       12.0110           0   0.00000     -0.301140E-02
      6547 MEMB     54       PMPG     H13R     HAL2     0.900000E-01   1.00800           0   0.00000     -0.301140E-02
      6548 MEMB     54       PMPG     H13S     HAL2     0.900000E-01   1.00800           0   0.00000     -0.301140E-02
      6549 MEMB     54       PMPG     C214     CTL2    -0.180000       12.0110           0   0.00000     -0.301140E-02
      6550 MEMB     54       PMPG     H14R     HAL2     0.900000E-01   1.00800           0   0.00000     -0.301140E-02
      6551 MEMB     54       PMPG     H14S     HAL2     0.900000E-01   1.00800           0   0.00000     -0.301140E-02
      6552 MEMB     54       PMPG     C215     CTL2    -0.180000       12.0110           0   0.00000     -0.301140E-02
      6553 MEMB     54       PMPG     H15R     HAL2     0.900000E-01   1.00800           0   0.00000     -0.301140E-02
      6554 MEMB     54       PMPG     H15S     HAL2     0.900000E-01   1.00800           0   0.00000     -0.301140E-02
      6555 MEMB     54       PMPG     C216     CTL3    -0.270000       12.0110           0   0.00000     -0.301140E-02
      6556 MEMB     54       PMPG     H16R     HAL3     0.900000E-01   1.00800           0   0.00000     -0.301140E-02
      6557 MEMB     54       PMPG     H16S     HAL3     0.900000E-01   1.00800           0   0.00000     -0.301140E-02
      6558 MEMB     54       PMPG     H16T     HAL3     0.900000E-01   1.00800           0   0.00000     -0.301140E-02
      6559 MEMB     54       PMPG     C33      CTL2    -0.180000       12.0110           0   0.00000     -0.301140E-02
      6560 MEMB     54       PMPG     H3X      HAL2     0.900000E-01   1.00800           0   0.00000     -0.301140E-02
      6561 MEMB     54       PMPG     H3Y      HAL2     0.900000E-01   1.00800           0   0.00000     -0.301140E-02
      6562 MEMB     54       PMPG     C34      CTL2    -0.180000       12.0110           0   0.00000     -0.301140E-02
      6563 MEMB     54       PMPG     H4X      HAL2     0.900000E-01   1.00800           0   0.00000     -0.301140E-02
      6564 MEMB     54       PMPG     H4Y      HAL2     0.900000E-01   1.00800           0   0.00000     -0.301140E-02
      6565 MEMB     54       PMPG     C35      CTL2    -0.180000       12.0110           0   0.00000     -0.301140E-02
      6566 MEMB     54       PMPG     H5X      HAL2     0.900000E-01   1.00800           0   0.00000     -0.301140E-02
      6567 MEMB     54       PMPG     H5Y      HAL2     0.900000E-01   1.00800           0   0.00000     -0.301140E-02
      6568 MEMB     54       PMPG     C36      CTL2    -0.180000       12.0110           0   0.00000     -0.301140E-02
      6569 MEMB     54       PMPG     H6X      HAL2     0.900000E-01   1.00800           0   0.00000     -0.301140E-02
      6570 MEMB     54       PMPG     H6Y      HAL2     0.900000E-01   1.00800           0   0.00000     -0.301140E-02
      6571 MEMB     54       PMPG     C37      CTL2    -0.180000       12.0110           0   0.00000     -0.301140E-02
      6572 MEMB     54       PMPG     H7X      HAL2     0.900000E-01   1.00800           0   0.00000     -0.301140E-02
      6573 MEMB     54       PMPG     H7Y      HAL2     0.900000E-01   1.00800           0   0.00000     -0.301140E-02
      6574 MEMB     54       PMPG     C38      CTL2    -0.180000       12.0110           0   0.00000     -0.301140E-02
      6575 MEMB     54       PMPG     H8X      HAL2     0.900000E-01   1.00800           0   0.00000     -0.301140E-02
      6576 MEMB     54       PMPG     H8Y      HAL2     0.900000E-01   1.00800           0   0.00000     -0.301140E-02
      6577 MEMB     54       PMPG     C39      CTL2    -0.180000       12.0110           0   0.00000     -0.301140E-02
      6578 MEMB     54       PMPG     H9X      HAL2     0.900000E-01   1.00800           0   0.00000     -0.301140E-02
      6579 MEMB     54       PMPG     H9Y      HAL2     0.900000E-01   1.00800           0   0.00000     -0.301140E-02
      6580 MEMB     54       PMPG     C310     CTL2    -0.180000       12.0110           0   0.00000     -0.301140E-02
      6581 MEMB     54       PMPG     H10X     HAL2     0.900000E-01   1.00800           0   0.00000     -0.301140E-02
      6582 MEMB     54       PMPG     H10Y     HAL2     0.900000E-01   1.00800           0   0.00000     -0.301140E-02
      6583 MEMB     54       PMPG     C311     CTL2    -0.180000       12.0110           0   0.00000     -0.301140E-02
      6584 MEMB     54       PMPG     H11X     HAL2     0.900000E-01   1.00800           0   0.00000     -0.301140E-02
      6585 MEMB     54       PMPG     H11Y     HAL2     0.900000E-01   1.00800           0   0.00000     -0.301140E-02
      6586 MEMB     54       PMPG     C312     CTL2    -0.180000       12.0110           0   0.00000     -0.301140E-02
      6587 MEMB     54       PMPG     H12X     HAL2     0.900000E-01   1.00800           0   0.00000     -0.301140E-02
      6588 MEMB     54       PMPG     H12Y     HAL2     0.900000E-01   1.00800           0   0.00000     -0.301140E-02
      6589 MEMB     54       PMPG     C313     CTL2    -0.180000       12.0110           0   0.00000     -0.301140E-02
      6590 MEMB     54       PMPG     H13X     HAL2     0.900000E-01   1.00800           0   0.00000     -0.301140E-02
      6591 MEMB     54       PMPG     H13Y     HAL2     0.900000E-01   1.00800           0   0.00000     -0.301140E-02
      6592 MEMB     54       PMPG     C314     CTL2    -0.180000       12.0110           0   0.00000     -0.301140E-02
      6593 MEMB     54       PMPG     H14X     HAL2     0.900000E-01   1.00800           0   0.00000     -0.301140E-02
      6594 MEMB     54       PMPG     H14Y     HAL2     0.900000E-01   1.00800           0   0.00000     -0.301140E-02
      6595 MEMB     54       PMPG     C315     CTL2    -0.180000       12.0110           0   0.00000     -0.301140E-02
      6596 MEMB     54       PMPG     H15X     HAL2     0.900000E-01   1.00800           0   0.00000     -0.301140E-02
      6597 MEMB     54       PMPG     H15Y     HAL2     0.900000E-01   1.00800           0   0.00000     -0.301140E-02
      6598 MEMB     54       PMPG     C316     CTL3    -0.270000       12.0110           0   0.00000     -0.301140E-02
      6599 MEMB     54       PMPG     H16X     HAL3     0.900000E-01   1.00800           0   0.00000     -0.301140E-02
      6600 MEMB     54       PMPG     H16Y     HAL3     0.900000E-01   1.00800           0   0.00000     -0.301140E-02
      6601 MEMB     54       PMPG     H16Z     HAL3     0.900000E-01   1.00800           0   0.00000     -0.301140E-02
      6602 MEMB     55       PMPG     C13      CTL2     0.500000E-01   12.0110           0   0.00000     -0.301140E-02
      6603 MEMB     55       PMPG     H13A     HAL2     0.900000E-01   1.00800           0   0.00000     -0.301140E-02
      6604 MEMB     55       PMPG     H13B     HAL2     0.900000E-01   1.00800           0   0.00000     -0.301140E-02
      6605 MEMB     55       PMPG     OC3      OHL     -0.660000       15.9994           0   0.00000     -0.301140E-02
      6606 MEMB     55       PMPG     HO3      HOL      0.430000       1.00800           0   0.00000     -0.301140E-02
      6607 MEMB     55       PMPG     C12      CTL1     0.140000       12.0110           0   0.00000     -0.301140E-02
      6608 MEMB     55       PMPG     H12A     HAL1     0.900000E-01   1.00800           0   0.00000     -0.301140E-02
      6609 MEMB     55       PMPG     OC2      OHL     -0.660000       15.9994           0   0.00000     -0.301140E-02
      6610 MEMB     55       PMPG     HO2      HOL      0.430000       1.00800           0   0.00000     -0.301140E-02
      6611 MEMB     55       PMPG     C11      CTL2    -0.800000E-01   12.0110           0   0.00000     -0.301140E-02
      6612 MEMB     55       PMPG     H11A     HAL2     0.900000E-01   1.00800           0   0.00000     -0.301140E-02
      6613 MEMB     55       PMPG     H11B     HAL2     0.900000E-01   1.00800           0   0.00000     -0.301140E-02
      6614 MEMB     55       PMPG     P        PL        1.50000       30.9740           0   0.00000     -0.301140E-02
      6615 MEMB     55       PMPG     O13      O2L     -0.780000       15.9994           0   0.00000     -0.301140E-02
      6616 MEMB     55       PMPG     O14      O2L     -0.780000       15.9994           0   0.00000     -0.301140E-02
      6617 MEMB     55       PMPG     O11      OSLP    -0.570000       15.9994           0   0.00000     -0.301140E-02
      6618 MEMB     55       PMPG     O12      OSLP    -0.570000       15.9994           0   0.00000     -0.301140E-02
      6619 MEMB     55       PMPG     C1       CTL2    -0.800000E-01   12.0110           0   0.00000     -0.301140E-02
      6620 MEMB     55       PMPG     HA       HAL2     0.900000E-01   1.00800           0   0.00000     -0.301140E-02
      6621 MEMB     55       PMPG     HB       HAL2     0.900000E-01   1.00800           0   0.00000     -0.301140E-02
      6622 MEMB     55       PMPG     C2       CTL1     0.170000       12.0110           0   0.00000     -0.301140E-02
      6623 MEMB     55       PMPG     HS       HAL1     0.900000E-01   1.00800           0   0.00000     -0.301140E-02
      6624 MEMB     55       PMPG     O21      OSL     -0.490000       15.9994           0   0.00000     -0.301140E-02
      6625 MEMB     55       PMPG     C21      CL       0.900000       12.0110           0   0.00000     -0.301140E-02
      6626 MEMB     55       PMPG     O22      OBL     -0.630000       15.9994           0   0.00000     -0.301140E-02
      6627 MEMB     55       PMPG     C22      CTL2    -0.220000       12.0110           0   0.00000     -0.301140E-02
      6628 MEMB     55       PMPG     H2R      HAL2     0.900000E-01   1.00800           0   0.00000     -0.301140E-02
      6629 MEMB     55       PMPG     H2S      HAL2     0.900000E-01   1.00800           0   0.00000     -0.301140E-02
      6630 MEMB     55       PMPG     C3       CTL2     0.800000E-01   12.0110           0   0.00000     -0.301140E-02
      6631 MEMB     55       PMPG     HX       HAL2     0.900000E-01   1.00800           0   0.00000     -0.301140E-02
      6632 MEMB     55       PMPG     HY       HAL2     0.900000E-01   1.00800           0   0.00000     -0.301140E-02
      6633 MEMB     55       PMPG     O31      OSL     -0.490000       15.9994           0   0.00000     -0.301140E-02
      6634 MEMB     55       PMPG     C31      CL       0.900000       12.0110           0   0.00000     -0.301140E-02
      6635 MEMB     55       PMPG     O32      OBL     -0.630000       15.9994           0   0.00000     -0.301140E-02
      6636 MEMB     55       PMPG     C32      CTL2    -0.220000       12.0110           0   0.00000     -0.301140E-02
      6637 MEMB     55       PMPG     H2X      HAL2     0.900000E-01   1.00800           0   0.00000     -0.301140E-02
      6638 MEMB     55       PMPG     H2Y      HAL2     0.900000E-01   1.00800           0   0.00000     -0.301140E-02
      6639 MEMB     55       PMPG     C23      CTL2    -0.180000       12.0110           0   0.00000     -0.301140E-02
      6640 MEMB     55       PMPG     H3R      HAL2     0.900000E-01   1.00800           0   0.00000     -0.301140E-02
      6641 MEMB     55       PMPG     H3S      HAL2     0.900000E-01   1.00800           0   0.00000     -0.301140E-02
      6642 MEMB     55       PMPG     C24      CTL2    -0.180000       12.0110           0   0.00000     -0.301140E-02
      6643 MEMB     55       PMPG     H4R      HAL2     0.900000E-01   1.00800           0   0.00000     -0.301140E-02
      6644 MEMB     55       PMPG     H4S      HAL2     0.900000E-01   1.00800           0   0.00000     -0.301140E-02
      6645 MEMB     55       PMPG     C25      CTL2    -0.180000       12.0110           0   0.00000     -0.301140E-02
      6646 MEMB     55       PMPG     H5R      HAL2     0.900000E-01   1.00800           0   0.00000     -0.301140E-02
      6647 MEMB     55       PMPG     H5S      HAL2     0.900000E-01   1.00800           0   0.00000     -0.301140E-02
      6648 MEMB     55       PMPG     C26      CTL2    -0.180000       12.0110           0   0.00000     -0.301140E-02
      6649 MEMB     55       PMPG     H6R      HAL2     0.900000E-01   1.00800           0   0.00000     -0.301140E-02
      6650 MEMB     55       PMPG     H6S      HAL2     0.900000E-01   1.00800           0   0.00000     -0.301140E-02
      6651 MEMB     55       PMPG     C27      CTL2    -0.180000       12.0110           0   0.00000     -0.301140E-02
      6652 MEMB     55       PMPG     H7R      HAL2     0.900000E-01   1.00800           0   0.00000     -0.301140E-02
      6653 MEMB     55       PMPG     H7S      HAL2     0.900000E-01   1.00800           0   0.00000     -0.301140E-02
      6654 MEMB     55       PMPG     C28      CTL2    -0.180000       12.0110           0   0.00000     -0.301140E-02
      6655 MEMB     55       PMPG     H8R      HAL2     0.900000E-01   1.00800           0   0.00000     -0.301140E-02
      6656 MEMB     55       PMPG     H8S      HAL2     0.900000E-01   1.00800           0   0.00000     -0.301140E-02
      6657 MEMB     55       PMPG     C29      CG3RC1  -0.900000E-01   12.0110           0   0.00000     -0.301140E-02
      6658 MEMB     55       PMPG     H9R      HGA1     0.900000E-01   1.00800           0   0.00000     -0.301140E-02
      6659 MEMB     55       PMPG     C217     CG3C31  -0.180000       12.0110           0   0.00000     -0.301140E-02
      6660 MEMB     55       PMPG     H17R     HGA2     0.900000E-01   1.00800           0   0.00000     -0.301140E-02
      6661 MEMB     55       PMPG     H17S     HGA2     0.900000E-01   1.00800           0   0.00000     -0.301140E-02
      6662 MEMB     55       PMPG     C210     CG3RC1  -0.900000E-01   12.0110           0   0.00000     -0.301140E-02
      6663 MEMB     55       PMPG     H10R     HGA1     0.900000E-01   1.00800           0   0.00000     -0.301140E-02
      6664 MEMB     55       PMPG     C211     CTL2    -0.180000       12.0110           0   0.00000     -0.301140E-02
      6665 MEMB     55       PMPG     H11R     HAL2     0.900000E-01   1.00800           0   0.00000     -0.301140E-02
      6666 MEMB     55       PMPG     H11S     HAL2     0.900000E-01   1.00800           0   0.00000     -0.301140E-02
      6667 MEMB     55       PMPG     C212     CTL2    -0.180000       12.0110           0   0.00000     -0.301140E-02
      6668 MEMB     55       PMPG     H12R     HAL2     0.900000E-01   1.00800           0   0.00000     -0.301140E-02
      6669 MEMB     55       PMPG     H12S     HAL2     0.900000E-01   1.00800           0   0.00000     -0.301140E-02
      6670 MEMB     55       PMPG     C213     CTL2    -0.180000       12.0110           0   0.00000     -0.301140E-02
      6671 MEMB     55       PMPG     H13R     HAL2     0.900000E-01   1.00800           0   0.00000     -0.301140E-02
      6672 MEMB     55       PMPG     H13S     HAL2     0.900000E-01   1.00800           0   0.00000     -0.301140E-02
      6673 MEMB     55       PMPG     C214     CTL2    -0.180000       12.0110           0   0.00000     -0.301140E-02
      6674 MEMB     55       PMPG     H14R     HAL2     0.900000E-01   1.00800           0   0.00000     -0.301140E-02
      6675 MEMB     55       PMPG     H14S     HAL2     0.900000E-01   1.00800           0   0.00000     -0.301140E-02
      6676 MEMB     55       PMPG     C215     CTL2    -0.180000       12.0110           0   0.00000     -0.301140E-02
      6677 MEMB     55       PMPG     H15R     HAL2     0.900000E-01   1.00800           0   0.00000     -0.301140E-02
      6678 MEMB     55       PMPG     H15S     HAL2     0.900000E-01   1.00800           0   0.00000     -0.301140E-02
      6679 MEMB     55       PMPG     C216     CTL3    -0.270000       12.0110           0   0.00000     -0.301140E-02
      6680 MEMB     55       PMPG     H16R     HAL3     0.900000E-01   1.00800           0   0.00000     -0.301140E-02
      6681 MEMB     55       PMPG     H16S     HAL3     0.900000E-01   1.00800           0   0.00000     -0.301140E-02
      6682 MEMB     55       PMPG     H16T     HAL3     0.900000E-01   1.00800           0   0.00000     -0.301140E-02
      6683 MEMB     55       PMPG     C33      CTL2    -0.180000       12.0110           0   0.00000     -0.301140E-02
      6684 MEMB     55       PMPG     H3X      HAL2     0.900000E-01   1.00800           0   0.00000     -0.301140E-02
      6685 MEMB     55       PMPG     H3Y      HAL2     0.900000E-01   1.00800           0   0.00000     -0.301140E-02
      6686 MEMB     55       PMPG     C34      CTL2    -0.180000       12.0110           0   0.00000     -0.301140E-02
      6687 MEMB     55       PMPG     H4X      HAL2     0.900000E-01   1.00800           0   0.00000     -0.301140E-02
      6688 MEMB     55       PMPG     H4Y      HAL2     0.900000E-01   1.00800           0   0.00000     -0.301140E-02
      6689 MEMB     55       PMPG     C35      CTL2    -0.180000       12.0110           0   0.00000     -0.301140E-02
      6690 MEMB     55       PMPG     H5X      HAL2     0.900000E-01   1.00800           0   0.00000     -0.301140E-02
      6691 MEMB     55       PMPG     H5Y      HAL2     0.900000E-01   1.00800           0   0.00000     -0.301140E-02
      6692 MEMB     55       PMPG     C36      CTL2    -0.180000       12.0110           0   0.00000     -0.301140E-02
      6693 MEMB     55       PMPG     H6X      HAL2     0.900000E-01   1.00800           0   0.00000     -0.301140E-02
      6694 MEMB     55       PMPG     H6Y      HAL2     0.900000E-01   1.00800           0   0.00000     -0.301140E-02
      6695 MEMB     55       PMPG     C37      CTL2    -0.180000       12.0110           0   0.00000     -0.301140E-02
      6696 MEMB     55       PMPG     H7X      HAL2     0.900000E-01   1.00800           0   0.00000     -0.301140E-02
      6697 MEMB     55       PMPG     H7Y      HAL2     0.900000E-01   1.00800           0   0.00000     -0.301140E-02
      6698 MEMB     55       PMPG     C38      CTL2    -0.180000       12.0110           0   0.00000     -0.301140E-02
      6699 MEMB     55       PMPG     H8X      HAL2     0.900000E-01   1.00800           0   0.00000     -0.301140E-02
      6700 MEMB     55       PMPG     H8Y      HAL2     0.900000E-01   1.00800           0   0.00000     -0.301140E-02
      6701 MEMB     55       PMPG     C39      CTL2    -0.180000       12.0110           0   0.00000     -0.301140E-02
      6702 MEMB     55       PMPG     H9X      HAL2     0.900000E-01   1.00800           0   0.00000     -0.301140E-02
      6703 MEMB     55       PMPG     H9Y      HAL2     0.900000E-01   1.00800           0   0.00000     -0.301140E-02
      6704 MEMB     55       PMPG     C310     CTL2    -0.180000       12.0110           0   0.00000     -0.301140E-02
      6705 MEMB     55       PMPG     H10X     HAL2     0.900000E-01   1.00800           0   0.00000     -0.301140E-02
      6706 MEMB     55       PMPG     H10Y     HAL2     0.900000E-01   1.00800           0   0.00000     -0.301140E-02
      6707 MEMB     55       PMPG     C311     CTL2    -0.180000       12.0110           0   0.00000     -0.301140E-02
      6708 MEMB     55       PMPG     H11X     HAL2     0.900000E-01   1.00800           0   0.00000     -0.301140E-02
      6709 MEMB     55       PMPG     H11Y     HAL2     0.900000E-01   1.00800           0   0.00000     -0.301140E-02
      6710 MEMB     55       PMPG     C312     CTL2    -0.180000       12.0110           0   0.00000     -0.301140E-02
      6711 MEMB     55       PMPG     H12X     HAL2     0.900000E-01   1.00800           0   0.00000     -0.301140E-02
      6712 MEMB     55       PMPG     H12Y     HAL2     0.900000E-01   1.00800           0   0.00000     -0.301140E-02
      6713 MEMB     55       PMPG     C313     CTL2    -0.180000       12.0110           0   0.00000     -0.301140E-02
      6714 MEMB     55       PMPG     H13X     HAL2     0.900000E-01   1.00800           0   0.00000     -0.301140E-02
      6715 MEMB     55       PMPG     H13Y     HAL2     0.900000E-01   1.00800           0   0.00000     -0.301140E-02
      6716 MEMB     55       PMPG     C314     CTL2    -0.180000       12.0110           0   0.00000     -0.301140E-02
      6717 MEMB     55       PMPG     H14X     HAL2     0.900000E-01   1.00800           0   0.00000     -0.301140E-02
      6718 MEMB     55       PMPG     H14Y     HAL2     0.900000E-01   1.00800           0   0.00000     -0.301140E-02
      6719 MEMB     55       PMPG     C315     CTL2    -0.180000       12.0110           0   0.00000     -0.301140E-02
      6720 MEMB     55       PMPG     H15X     HAL2     0.900000E-01   1.00800           0   0.00000     -0.301140E-02
      6721 MEMB     55       PMPG     H15Y     HAL2     0.900000E-01   1.00800           0   0.00000     -0.301140E-02
      6722 MEMB     55       PMPG     C316     CTL3    -0.270000       12.0110           0   0.00000     -0.301140E-02
      6723 MEMB     55       PMPG     H16X     HAL3     0.900000E-01   1.00800           0   0.00000     -0.301140E-02
      6724 MEMB     55       PMPG     H16Y     HAL3     0.900000E-01   1.00800           0   0.00000     -0.301140E-02
      6725 MEMB     55       PMPG     H16Z     HAL3     0.900000E-01   1.00800           0   0.00000     -0.301140E-02
      6726 MEMB     56       QMPE     N        NH3L    -0.300000       14.0070           0   0.00000     -0.301140E-02
      6727 MEMB     56       QMPE     HN1      HCL      0.330000       1.00800           0   0.00000     -0.301140E-02
      6728 MEMB     56       QMPE     HN2      HCL      0.330000       1.00800           0   0.00000     -0.301140E-02
      6729 MEMB     56       QMPE     HN3      HCL      0.330000       1.00800           0   0.00000     -0.301140E-02
      6730 MEMB     56       QMPE     C12      CTL2     0.130000       12.0110           0   0.00000     -0.301140E-02
      6731 MEMB     56       QMPE     H12A     HAL2     0.900000E-01   1.00800           0   0.00000     -0.301140E-02
      6732 MEMB     56       QMPE     H12B     HAL2     0.900000E-01   1.00800           0   0.00000     -0.301140E-02
      6733 MEMB     56       QMPE     C11      CTL2    -0.800000E-01   12.0110           0   0.00000     -0.301140E-02
      6734 MEMB     56       QMPE     H11A     HAL2     0.900000E-01   1.00800           0   0.00000     -0.301140E-02
      6735 MEMB     56       QMPE     H11B     HAL2     0.900000E-01   1.00800           0   0.00000     -0.301140E-02
      6736 MEMB     56       QMPE     P        PL        1.50000       30.9740           0   0.00000     -0.301140E-02
      6737 MEMB     56       QMPE     O13      O2L     -0.780000       15.9994           0   0.00000     -0.301140E-02
      6738 MEMB     56       QMPE     O14      O2L     -0.780000       15.9994           0   0.00000     -0.301140E-02
      6739 MEMB     56       QMPE     O11      OSLP    -0.570000       15.9994           0   0.00000     -0.301140E-02
      6740 MEMB     56       QMPE     O12      OSLP    -0.570000       15.9994           0   0.00000     -0.301140E-02
      6741 MEMB     56       QMPE     C1       CTL2    -0.800000E-01   12.0110           0   0.00000     -0.301140E-02
      6742 MEMB     56       QMPE     HA       HAL2     0.900000E-01   1.00800           0   0.00000     -0.301140E-02
      6743 MEMB     56       QMPE     HB       HAL2     0.900000E-01   1.00800           0   0.00000     -0.301140E-02
      6744 MEMB     56       QMPE     C2       CTL1     0.170000       12.0110           0   0.00000     -0.301140E-02
      6745 MEMB     56       QMPE     HS       HAL1     0.900000E-01   1.00800           0   0.00000     -0.301140E-02
      6746 MEMB     56       QMPE     O21      OSL     -0.490000       15.9994           0   0.00000     -0.301140E-02
      6747 MEMB     56       QMPE     C21      CL       0.900000       12.0110           0   0.00000     -0.301140E-02
      6748 MEMB     56       QMPE     O22      OBL     -0.630000       15.9994           0   0.00000     -0.301140E-02
      6749 MEMB     56       QMPE     C22      CTL2    -0.220000       12.0110           0   0.00000     -0.301140E-02
      6750 MEMB     56       QMPE     H2R      HAL2     0.900000E-01   1.00800           0   0.00000     -0.301140E-02
      6751 MEMB     56       QMPE     H2S      HAL2     0.900000E-01   1.00800           0   0.00000     -0.301140E-02
      6752 MEMB     56       QMPE     C3       CTL2     0.800000E-01   12.0110           0   0.00000     -0.301140E-02
      6753 MEMB     56       QMPE     HX       HAL2     0.900000E-01   1.00800           0   0.00000     -0.301140E-02
      6754 MEMB     56       QMPE     HY       HAL2     0.900000E-01   1.00800           0   0.00000     -0.301140E-02
      6755 MEMB     56       QMPE     O31      OSL     -0.490000       15.9994           0   0.00000     -0.301140E-02
      6756 MEMB     56       QMPE     C31      CL       0.900000       12.0110           0   0.00000     -0.301140E-02
      6757 MEMB     56       QMPE     O32      OBL     -0.630000       15.9994           0   0.00000     -0.301140E-02
      6758 MEMB     56       QMPE     C32      CTL2    -0.220000       12.0110           0   0.00000     -0.301140E-02
      6759 MEMB     56       QMPE     H2X      HAL2     0.900000E-01   1.00800           0   0.00000     -0.301140E-02
      6760 MEMB     56       QMPE     H2Y      HAL2     0.900000E-01   1.00800           0   0.00000     -0.301140E-02
      6761 MEMB     56       QMPE     C23      CTL2    -0.180000       12.0110           0   0.00000     -0.301140E-02
      6762 MEMB     56       QMPE     H3R      HAL2     0.900000E-01   1.00800           0   0.00000     -0.301140E-02
      6763 MEMB     56       QMPE     H3S      HAL2     0.900000E-01   1.00800           0   0.00000     -0.301140E-02
      6764 MEMB     56       QMPE     C24      CTL2    -0.180000       12.0110           0   0.00000     -0.301140E-02
      6765 MEMB     56       QMPE     H4R      HAL2     0.900000E-01   1.00800           0   0.00000     -0.301140E-02
      6766 MEMB     56       QMPE     H4S      HAL2     0.900000E-01   1.00800           0   0.00000     -0.301140E-02
      6767 MEMB     56       QMPE     C25      CTL2    -0.180000       12.0110           0   0.00000     -0.301140E-02
      6768 MEMB     56       QMPE     H5R      HAL2     0.900000E-01   1.00800           0   0.00000     -0.301140E-02
      6769 MEMB     56       QMPE     H5S      HAL2     0.900000E-01   1.00800           0   0.00000     -0.301140E-02
      6770 MEMB     56       QMPE     C26      CTL2    -0.180000       12.0110           0   0.00000     -0.301140E-02
      6771 MEMB     56       QMPE     H6R      HAL2     0.900000E-01   1.00800           0   0.00000     -0.301140E-02
      6772 MEMB     56       QMPE     H6S      HAL2     0.900000E-01   1.00800           0   0.00000     -0.301140E-02
      6773 MEMB     56       QMPE     C27      CTL2    -0.180000       12.0110           0   0.00000     -0.301140E-02
      6774 MEMB     56       QMPE     H7R      HAL2     0.900000E-01   1.00800           0   0.00000     -0.301140E-02
      6775 MEMB     56       QMPE     H7S      HAL2     0.900000E-01   1.00800           0   0.00000     -0.301140E-02
      6776 MEMB     56       QMPE     C28      CTL2    -0.180000       12.0110           0   0.00000     -0.301140E-02
      6777 MEMB     56       QMPE     H8R      HAL2     0.900000E-01   1.00800           0   0.00000     -0.301140E-02
      6778 MEMB     56       QMPE     H8S      HAL2     0.900000E-01   1.00800           0   0.00000     -0.301140E-02
      6779 MEMB     56       QMPE     C29      CG3RC1  -0.900000E-01   12.0110           0   0.00000     -0.301140E-02
      6780 MEMB     56       QMPE     H9R      HGA1     0.900000E-01   1.00800           0   0.00000     -0.301140E-02
      6781 MEMB     56       QMPE     C217     CG3C31  -0.180000       12.0110           0   0.00000     -0.301140E-02
      6782 MEMB     56       QMPE     H17R     HGA2     0.900000E-01   1.00800           0   0.00000     -0.301140E-02
      6783 MEMB     56       QMPE     H17S     HGA2     0.900000E-01   1.00800           0   0.00000     -0.301140E-02
      6784 MEMB     56       QMPE     C210     CG3RC1  -0.900000E-01   12.0110           0   0.00000     -0.301140E-02
      6785 MEMB     56       QMPE     H10R     HGA1     0.900000E-01   1.00800           0   0.00000     -0.301140E-02
      6786 MEMB     56       QMPE     C211     CTL2    -0.180000       12.0110           0   0.00000     -0.301140E-02
      6787 MEMB     56       QMPE     H11R     HAL2     0.900000E-01   1.00800           0   0.00000     -0.301140E-02
      6788 MEMB     56       QMPE     H11S     HAL2     0.900000E-01   1.00800           0   0.00000     -0.301140E-02
      6789 MEMB     56       QMPE     C212     CTL2    -0.180000       12.0110           0   0.00000     -0.301140E-02
      6790 MEMB     56       QMPE     H12R     HAL2     0.900000E-01   1.00800           0   0.00000     -0.301140E-02
      6791 MEMB     56       QMPE     H12S     HAL2     0.900000E-01   1.00800           0   0.00000     -0.301140E-02
      6792 MEMB     56       QMPE     C213     CTL2    -0.180000       12.0110           0   0.00000     -0.301140E-02
      6793 MEMB     56       QMPE     H13R     HAL2     0.900000E-01   1.00800           0   0.00000     -0.301140E-02
      6794 MEMB     56       QMPE     H13S     HAL2     0.900000E-01   1.00800           0   0.00000     -0.301140E-02
      6795 MEMB     56       QMPE     C214     CTL2    -0.180000       12.0110           0   0.00000     -0.301140E-02
      6796 MEMB     56       QMPE     H14R     HAL2     0.900000E-01   1.00800           0   0.00000     -0.301140E-02
      6797 MEMB     56       QMPE     H14S     HAL2     0.900000E-01   1.00800           0   0.00000     -0.301140E-02
      6798 MEMB     56       QMPE     C215     CTL2    -0.180000       12.0110           0   0.00000     -0.301140E-02
      6799 MEMB     56       QMPE     H15R     HAL2     0.900000E-01   1.00800           0   0.00000     -0.301140E-02
      6800 MEMB     56       QMPE     H15S     HAL2     0.900000E-01   1.00800           0   0.00000     -0.301140E-02
      6801 MEMB     56       QMPE     C216     CTL3    -0.270000       12.0110           0   0.00000     -0.301140E-02
      6802 MEMB     56       QMPE     H16R     HAL3     0.900000E-01   1.00800           0   0.00000     -0.301140E-02
      6803 MEMB     56       QMPE     H16S     HAL3     0.900000E-01   1.00800           0   0.00000     -0.301140E-02
      6804 MEMB     56       QMPE     H16T     HAL3     0.900000E-01   1.00800           0   0.00000     -0.301140E-02
      6805 MEMB     56       QMPE     C33      CTL2    -0.180000       12.0110           0   0.00000     -0.301140E-02
      6806 MEMB     56       QMPE     H3X      HAL2     0.900000E-01   1.00800           0   0.00000     -0.301140E-02
      6807 MEMB     56       QMPE     H3Y      HAL2     0.900000E-01   1.00800           0   0.00000     -0.301140E-02
      6808 MEMB     56       QMPE     C34      CTL2    -0.180000       12.0110           0   0.00000     -0.301140E-02
      6809 MEMB     56       QMPE     H4X      HAL2     0.900000E-01   1.00800           0   0.00000     -0.301140E-02
      6810 MEMB     56       QMPE     H4Y      HAL2     0.900000E-01   1.00800           0   0.00000     -0.301140E-02
      6811 MEMB     56       QMPE     C35      CTL2    -0.180000       12.0110           0   0.00000     -0.301140E-02
      6812 MEMB     56       QMPE     H5X      HAL2     0.900000E-01   1.00800           0   0.00000     -0.301140E-02
      6813 MEMB     56       QMPE     H5Y      HAL2     0.900000E-01   1.00800           0   0.00000     -0.301140E-02
      6814 MEMB     56       QMPE     C36      CTL2    -0.180000       12.0110           0   0.00000     -0.301140E-02
      6815 MEMB     56       QMPE     H6X      HAL2     0.900000E-01   1.00800           0   0.00000     -0.301140E-02
      6816 MEMB     56       QMPE     H6Y      HAL2     0.900000E-01   1.00800           0   0.00000     -0.301140E-02
      6817 MEMB     56       QMPE     C37      CTL2    -0.180000       12.0110           0   0.00000     -0.301140E-02
      6818 MEMB     56       QMPE     H7X      HAL2     0.900000E-01   1.00800           0   0.00000     -0.301140E-02
      6819 MEMB     56       QMPE     H7Y      HAL2     0.900000E-01   1.00800           0   0.00000     -0.301140E-02
      6820 MEMB     56       QMPE     C38      CTL2    -0.180000       12.0110           0   0.00000     -0.301140E-02
      6821 MEMB     56       QMPE     H8X      HAL2     0.900000E-01   1.00800           0   0.00000     -0.301140E-02
      6822 MEMB     56       QMPE     H8Y      HAL2     0.900000E-01   1.00800           0   0.00000     -0.301140E-02
      6823 MEMB     56       QMPE     C39      CTL2    -0.180000       12.0110           0   0.00000     -0.301140E-02
      6824 MEMB     56       QMPE     H9X      HAL2     0.900000E-01   1.00800           0   0.00000     -0.301140E-02
      6825 MEMB     56       QMPE     H9Y      HAL2     0.900000E-01   1.00800           0   0.00000     -0.301140E-02
      6826 MEMB     56       QMPE     C310     CTL2    -0.180000       12.0110           0   0.00000     -0.301140E-02
      6827 MEMB     56       QMPE     H10X     HAL2     0.900000E-01   1.00800           0   0.00000     -0.301140E-02
      6828 MEMB     56       QMPE     H10Y     HAL2     0.900000E-01   1.00800           0   0.00000     -0.301140E-02
      6829 MEMB     56       QMPE     C311     CTL2    -0.180000       12.0110           0   0.00000     -0.301140E-02
      6830 MEMB     56       QMPE     H11X     HAL2     0.900000E-01   1.00800           0   0.00000     -0.301140E-02
      6831 MEMB     56       QMPE     H11Y     HAL2     0.900000E-01   1.00800           0   0.00000     -0.301140E-02
      6832 MEMB     56       QMPE     C312     CTL2    -0.180000       12.0110           0   0.00000     -0.301140E-02
      6833 MEMB     56       QMPE     H12X     HAL2     0.900000E-01   1.00800           0   0.00000     -0.301140E-02
      6834 MEMB     56       QMPE     H12Y     HAL2     0.900000E-01   1.00800           0   0.00000     -0.301140E-02
      6835 MEMB     56       QMPE     C313     CTL2    -0.180000       12.0110           0   0.00000     -0.301140E-02
      6836 MEMB     56       QMPE     H13X     HAL2     0.900000E-01   1.00800           0   0.00000     -0.301140E-02
      6837 MEMB     56       QMPE     H13Y     HAL2     0.900000E-01   1.00800           0   0.00000     -0.301140E-02
      6838 MEMB     56       QMPE     C314     CTL2    -0.180000       12.0110           0   0.00000     -0.301140E-02
      6839 MEMB     56       QMPE     H14X     HAL2     0.900000E-01   1.00800           0   0.00000     -0.301140E-02
      6840 MEMB     56       QMPE     H14Y     HAL2     0.900000E-01   1.00800           0   0.00000     -0.301140E-02
      6841 MEMB     56       QMPE     C315     CTL3    -0.270000       12.0110           0   0.00000     -0.301140E-02
      6842 MEMB     56       QMPE     H15X     HAL3     0.900000E-01   1.00800           0   0.00000     -0.301140E-02
      6843 MEMB     56       QMPE     H15Y     HAL3     0.900000E-01   1.00800           0   0.00000     -0.301140E-02
      6844 MEMB     56       QMPE     H15Z     HAL3     0.900000E-01   1.00800           0   0.00000     -0.301140E-02
      6845 MEMB     57       PMPE     N        NH3L    -0.300000       14.0070           0   0.00000     -0.301140E-02
      6846 MEMB     57       PMPE     HN1      HCL      0.330000       1.00800           0   0.00000     -0.301140E-02
      6847 MEMB     57       PMPE     HN2      HCL      0.330000       1.00800           0   0.00000     -0.301140E-02
      6848 MEMB     57       PMPE     HN3      HCL      0.330000       1.00800           0   0.00000     -0.301140E-02
      6849 MEMB     57       PMPE     C12      CTL2     0.130000       12.0110           0   0.00000     -0.301140E-02
      6850 MEMB     57       PMPE     H12A     HAL2     0.900000E-01   1.00800           0   0.00000     -0.301140E-02
      6851 MEMB     57       PMPE     H12B     HAL2     0.900000E-01   1.00800           0   0.00000     -0.301140E-02
      6852 MEMB     57       PMPE     C11      CTL2    -0.800000E-01   12.0110           0   0.00000     -0.301140E-02
      6853 MEMB     57       PMPE     H11A     HAL2     0.900000E-01   1.00800           0   0.00000     -0.301140E-02
      6854 MEMB     57       PMPE     H11B     HAL2     0.900000E-01   1.00800           0   0.00000     -0.301140E-02
      6855 MEMB     57       PMPE     P        PL        1.50000       30.9740           0   0.00000     -0.301140E-02
      6856 MEMB     57       PMPE     O13      O2L     -0.780000       15.9994           0   0.00000     -0.301140E-02
      6857 MEMB     57       PMPE     O14      O2L     -0.780000       15.9994           0   0.00000     -0.301140E-02
      6858 MEMB     57       PMPE     O11      OSLP    -0.570000       15.9994           0   0.00000     -0.301140E-02
      6859 MEMB     57       PMPE     O12      OSLP    -0.570000       15.9994           0   0.00000     -0.301140E-02
      6860 MEMB     57       PMPE     C1       CTL2    -0.800000E-01   12.0110           0   0.00000     -0.301140E-02
      6861 MEMB     57       PMPE     HA       HAL2     0.900000E-01   1.00800           0   0.00000     -0.301140E-02
      6862 MEMB     57       PMPE     HB       HAL2     0.900000E-01   1.00800           0   0.00000     -0.301140E-02
      6863 MEMB     57       PMPE     C2       CTL1     0.170000       12.0110           0   0.00000     -0.301140E-02
      6864 MEMB     57       PMPE     HS       HAL1     0.900000E-01   1.00800           0   0.00000     -0.301140E-02
      6865 MEMB     57       PMPE     O21      OSL     -0.490000       15.9994           0   0.00000     -0.301140E-02
      6866 MEMB     57       PMPE     C21      CL       0.900000       12.0110           0   0.00000     -0.301140E-02
      6867 MEMB     57       PMPE     O22      OBL     -0.630000       15.9994           0   0.00000     -0.301140E-02
      6868 MEMB     57       PMPE     C22      CTL2    -0.220000       12.0110           0   0.00000     -0.301140E-02
      6869 MEMB     57       PMPE     H2R      HAL2     0.900000E-01   1.00800           0   0.00000     -0.301140E-02
      6870 MEMB     57       PMPE     H2S      HAL2     0.900000E-01   1.00800           0   0.00000     -0.301140E-02
      6871 MEMB     57       PMPE     C3       CTL2     0.800000E-01   12.0110           0   0.00000     -0.301140E-02
      6872 MEMB     57       PMPE     HX       HAL2     0.900000E-01   1.00800           0   0.00000     -0.301140E-02
      6873 MEMB     57       PMPE     HY       HAL2     0.900000E-01   1.00800           0   0.00000     -0.301140E-02
      6874 MEMB     57       PMPE     O31      OSL     -0.490000       15.9994           0   0.00000     -0.301140E-02
      6875 MEMB     57       PMPE     C31      CL       0.900000       12.0110           0   0.00000     -0.301140E-02
      6876 MEMB     57       PMPE     O32      OBL     -0.630000       15.9994           0   0.00000     -0.301140E-02
      6877 MEMB     57       PMPE     C32      CTL2    -0.220000       12.0110           0   0.00000     -0.301140E-02
      6878 MEMB     57       PMPE     H2X      HAL2     0.900000E-01   1.00800           0   0.00000     -0.301140E-02
      6879 MEMB     57       PMPE     H2Y      HAL2     0.900000E-01   1.00800           0   0.00000     -0.301140E-02
      6880 MEMB     57       PMPE     C23      CTL2    -0.180000       12.0110           0   0.00000     -0.301140E-02
      6881 MEMB     57       PMPE     H3R      HAL2     0.900000E-01   1.00800           0   0.00000     -0.301140E-02
      6882 MEMB     57       PMPE     H3S      HAL2     0.900000E-01   1.00800           0   0.00000     -0.301140E-02
      6883 MEMB     57       PMPE     C24      CTL2    -0.180000       12.0110           0   0.00000     -0.301140E-02
      6884 MEMB     57       PMPE     H4R      HAL2     0.900000E-01   1.00800           0   0.00000     -0.301140E-02
      6885 MEMB     57       PMPE     H4S      HAL2     0.900000E-01   1.00800           0   0.00000     -0.301140E-02
      6886 MEMB     57       PMPE     C25      CTL2    -0.180000       12.0110           0   0.00000     -0.301140E-02
      6887 MEMB     57       PMPE     H5R      HAL2     0.900000E-01   1.00800           0   0.00000     -0.301140E-02
      6888 MEMB     57       PMPE     H5S      HAL2     0.900000E-01   1.00800           0   0.00000     -0.301140E-02
      6889 MEMB     57       PMPE     C26      CTL2    -0.180000       12.0110           0   0.00000     -0.301140E-02
      6890 MEMB     57       PMPE     H6R      HAL2     0.900000E-01   1.00800           0   0.00000     -0.301140E-02
      6891 MEMB     57       PMPE     H6S      HAL2     0.900000E-01   1.00800           0   0.00000     -0.301140E-02
      6892 MEMB     57       PMPE     C27      CTL2    -0.180000       12.0110           0   0.00000     -0.301140E-02
      6893 MEMB     57       PMPE     H7R      HAL2     0.900000E-01   1.00800           0   0.00000     -0.301140E-02
      6894 MEMB     57       PMPE     H7S      HAL2     0.900000E-01   1.00800           0   0.00000     -0.301140E-02
      6895 MEMB     57       PMPE     C28      CTL2    -0.180000       12.0110           0   0.00000     -0.301140E-02
      6896 MEMB     57       PMPE     H8R      HAL2     0.900000E-01   1.00800           0   0.00000     -0.301140E-02
      6897 MEMB     57       PMPE     H8S      HAL2     0.900000E-01   1.00800           0   0.00000     -0.301140E-02
      6898 MEMB     57       PMPE     C29      CG3RC1  -0.900000E-01   12.0110           0   0.00000     -0.301140E-02
      6899 MEMB     57       PMPE     H9R      HGA1     0.900000E-01   1.00800           0   0.00000     -0.301140E-02
      6900 MEMB     57       PMPE     C217     CG3C31  -0.180000       12.0110           0   0.00000     -0.301140E-02
      6901 MEMB     57       PMPE     H17R     HGA2     0.900000E-01   1.00800           0   0.00000     -0.301140E-02
      6902 MEMB     57       PMPE     H17S     HGA2     0.900000E-01   1.00800           0   0.00000     -0.301140E-02
      6903 MEMB     57       PMPE     C210     CG3RC1  -0.900000E-01   12.0110           0   0.00000     -0.301140E-02
      6904 MEMB     57       PMPE     H10R     HGA1     0.900000E-01   1.00800           0   0.00000     -0.301140E-02
      6905 MEMB     57       PMPE     C211     CTL2    -0.180000       12.0110           0   0.00000     -0.301140E-02
      6906 MEMB     57       PMPE     H11R     HAL2     0.900000E-01   1.00800           0   0.00000     -0.301140E-02
      6907 MEMB     57       PMPE     H11S     HAL2     0.900000E-01   1.00800           0   0.00000     -0.301140E-02
      6908 MEMB     57       PMPE     C212     CTL2    -0.180000       12.0110           0   0.00000     -0.301140E-02
      6909 MEMB     57       PMPE     H12R     HAL2     0.900000E-01   1.00800           0   0.00000     -0.301140E-02
      6910 MEMB     57       PMPE     H12S     HAL2     0.900000E-01   1.00800           0   0.00000     -0.301140E-02
      6911 MEMB     57       PMPE     C213     CTL2    -0.180000       12.0110           0   0.00000     -0.301140E-02
      6912 MEMB     57       PMPE     H13R     HAL2     0.900000E-01   1.00800           0   0.00000     -0.301140E-02
      6913 MEMB     57       PMPE     H13S     HAL2     0.900000E-01   1.00800           0   0.00000     -0.301140E-02
      6914 MEMB     57       PMPE     C214     CTL2    -0.180000       12.0110           0   0.00000     -0.301140E-02
      6915 MEMB     57       PMPE     H14R     HAL2     0.900000E-01   1.00800           0   0.00000     -0.301140E-02
      6916 MEMB     57       PMPE     H14S     HAL2     0.900000E-01   1.00800           0   0.00000     -0.301140E-02
      6917 MEMB     57       PMPE     C215     CTL2    -0.180000       12.0110           0   0.00000     -0.301140E-02
      6918 MEMB     57       PMPE     H15R     HAL2     0.900000E-01   1.00800           0   0.00000     -0.301140E-02
      6919 MEMB     57       PMPE     H15S     HAL2     0.900000E-01   1.00800           0   0.00000     -0.301140E-02
      6920 MEMB     57       PMPE     C216     CTL3    -0.270000       12.0110           0   0.00000     -0.301140E-02
      6921 MEMB     57       PMPE     H16R     HAL3     0.900000E-01   1.00800           0   0.00000     -0.301140E-02
      6922 MEMB     57       PMPE     H16S     HAL3     0.900000E-01   1.00800           0   0.00000     -0.301140E-02
      6923 MEMB     57       PMPE     H16T     HAL3     0.900000E-01   1.00800           0   0.00000     -0.301140E-02
      6924 MEMB     57       PMPE     C33      CTL2    -0.180000       12.0110           0   0.00000     -0.301140E-02
      6925 MEMB     57       PMPE     H3X      HAL2     0.900000E-01   1.00800           0   0.00000     -0.301140E-02
      6926 MEMB     57       PMPE     H3Y      HAL2     0.900000E-01   1.00800           0   0.00000     -0.301140E-02
      6927 MEMB     57       PMPE     C34      CTL2    -0.180000       12.0110           0   0.00000     -0.301140E-02
      6928 MEMB     57       PMPE     H4X      HAL2     0.900000E-01   1.00800           0   0.00000     -0.301140E-02
      6929 MEMB     57       PMPE     H4Y      HAL2     0.900000E-01   1.00800           0   0.00000     -0.301140E-02
      6930 MEMB     57       PMPE     C35      CTL2    -0.180000       12.0110           0   0.00000     -0.301140E-02
      6931 MEMB     57       PMPE     H5X      HAL2     0.900000E-01   1.00800           0   0.00000     -0.301140E-02
      6932 MEMB     57       PMPE     H5Y      HAL2     0.900000E-01   1.00800           0   0.00000     -0.301140E-02
      6933 MEMB     57       PMPE     C36      CTL2    -0.180000       12.0110           0   0.00000     -0.301140E-02
      6934 MEMB     57       PMPE     H6X      HAL2     0.900000E-01   1.00800           0   0.00000     -0.301140E-02
      6935 MEMB     57       PMPE     H6Y      HAL2     0.900000E-01   1.00800           0   0.00000     -0.301140E-02
      6936 MEMB     57       PMPE     C37      CTL2    -0.180000       12.0110           0   0.00000     -0.301140E-02
      6937 MEMB     57       PMPE     H7X      HAL2     0.900000E-01   1.00800           0   0.00000     -0.301140E-02
      6938 MEMB     57       PMPE     H7Y      HAL2     0.900000E-01   1.00800           0   0.00000     -0.301140E-02
      6939 MEMB     57       PMPE     C38      CTL2    -0.180000       12.0110           0   0.00000     -0.301140E-02
      6940 MEMB     57       PMPE     H8X      HAL2     0.900000E-01   1.00800           0   0.00000     -0.301140E-02
      6941 MEMB     57       PMPE     H8Y      HAL2     0.900000E-01   1.00800           0   0.00000     -0.301140E-02
      6942 MEMB     57       PMPE     C39      CTL2    -0.180000       12.0110           0   0.00000     -0.301140E-02
      6943 MEMB     57       PMPE     H9X      HAL2     0.900000E-01   1.00800           0   0.00000     -0.301140E-02
      6944 MEMB     57       PMPE     H9Y      HAL2     0.900000E-01   1.00800           0   0.00000     -0.301140E-02
      6945 MEMB     57       PMPE     C310     CTL2    -0.180000       12.0110           0   0.00000     -0.301140E-02
      6946 MEMB     57       PMPE     H10X     HAL2     0.900000E-01   1.00800           0   0.00000     -0.301140E-02
      6947 MEMB     57       PMPE     H10Y     HAL2     0.900000E-01   1.00800           0   0.00000     -0.301140E-02
      6948 MEMB     57       PMPE     C311     CTL2    -0.180000       12.0110           0   0.00000     -0.301140E-02
      6949 MEMB     57       PMPE     H11X     HAL2     0.900000E-01   1.00800           0   0.00000     -0.301140E-02
      6950 MEMB     57       PMPE     H11Y     HAL2     0.900000E-01   1.00800           0   0.00000     -0.301140E-02
      6951 MEMB     57       PMPE     C312     CTL2    -0.180000       12.0110           0   0.00000     -0.301140E-02
      6952 MEMB     57       PMPE     H12X     HAL2     0.900000E-01   1.00800           0   0.00000     -0.301140E-02
      6953 MEMB     57       PMPE     H12Y     HAL2     0.900000E-01   1.00800           0   0.00000     -0.301140E-02
      6954 MEMB     57       PMPE     C313     CTL2    -0.180000       12.0110           0   0.00000     -0.301140E-02
      6955 MEMB     57       PMPE     H13X     HAL2     0.900000E-01   1.00800           0   0.00000     -0.301140E-02
      6956 MEMB     57       PMPE     H13Y     HAL2     0.900000E-01   1.00800           0   0.00000     -0.301140E-02
      6957 MEMB     57       PMPE     C314     CTL2    -0.180000       12.0110           0   0.00000     -0.301140E-02
      6958 MEMB     57       PMPE     H14X     HAL2     0.900000E-01   1.00800           0   0.00000     -0.301140E-02
      6959 MEMB     57       PMPE     H14Y     HAL2     0.900000E-01   1.00800           0   0.00000     -0.301140E-02
      6960 MEMB     57       PMPE     C315     CTL2    -0.180000       12.0110           0   0.00000     -0.301140E-02
      6961 MEMB     57       PMPE     H15X     HAL2     0.900000E-01   1.00800           0   0.00000     -0.301140E-02
      6962 MEMB     57       PMPE     H15Y     HAL2     0.900000E-01   1.00800           0   0.00000     -0.301140E-02
      6963 MEMB     57       PMPE     C316     CTL3    -0.270000       12.0110           0   0.00000     -0.301140E-02
      6964 MEMB     57       PMPE     H16X     HAL3     0.900000E-01   1.00800           0   0.00000     -0.301140E-02
      6965 MEMB     57       PMPE     H16Y     HAL3     0.900000E-01   1.00800           0   0.00000     -0.301140E-02
      6966 MEMB     57       PMPE     H16Z     HAL3     0.900000E-01   1.00800           0   0.00000     -0.301140E-02
      6967 MEMB     58       PMPE     N        NH3L    -0.300000       14.0070           0   0.00000     -0.301140E-02
      6968 MEMB     58       PMPE     HN1      HCL      0.330000       1.00800           0   0.00000     -0.301140E-02
      6969 MEMB     58       PMPE     HN2      HCL      0.330000       1.00800           0   0.00000     -0.301140E-02
      6970 MEMB     58       PMPE     HN3      HCL      0.330000       1.00800           0   0.00000     -0.301140E-02
      6971 MEMB     58       PMPE     C12      CTL2     0.130000       12.0110           0   0.00000     -0.301140E-02
      6972 MEMB     58       PMPE     H12A     HAL2     0.900000E-01   1.00800           0   0.00000     -0.301140E-02
      6973 MEMB     58       PMPE     H12B     HAL2     0.900000E-01   1.00800           0   0.00000     -0.301140E-02
      6974 MEMB     58       PMPE     C11      CTL2    -0.800000E-01   12.0110           0   0.00000     -0.301140E-02
      6975 MEMB     58       PMPE     H11A     HAL2     0.900000E-01   1.00800           0   0.00000     -0.301140E-02
      6976 MEMB     58       PMPE     H11B     HAL2     0.900000E-01   1.00800           0   0.00000     -0.301140E-02
      6977 MEMB     58       PMPE     P        PL        1.50000       30.9740           0   0.00000     -0.301140E-02
      6978 MEMB     58       PMPE     O13      O2L     -0.780000       15.9994           0   0.00000     -0.301140E-02
      6979 MEMB     58       PMPE     O14      O2L     -0.780000       15.9994           0   0.00000     -0.301140E-02
      6980 MEMB     58       PMPE     O11      OSLP    -0.570000       15.9994           0   0.00000     -0.301140E-02
      6981 MEMB     58       PMPE     O12      OSLP    -0.570000       15.9994           0   0.00000     -0.301140E-02
      6982 MEMB     58       PMPE     C1       CTL2    -0.800000E-01   12.0110           0   0.00000     -0.301140E-02
      6983 MEMB     58       PMPE     HA       HAL2     0.900000E-01   1.00800           0   0.00000     -0.301140E-02
      6984 MEMB     58       PMPE     HB       HAL2     0.900000E-01   1.00800           0   0.00000     -0.301140E-02
      6985 MEMB     58       PMPE     C2       CTL1     0.170000       12.0110           0   0.00000     -0.301140E-02
      6986 MEMB     58       PMPE     HS       HAL1     0.900000E-01   1.00800           0   0.00000     -0.301140E-02
      6987 MEMB     58       PMPE     O21      OSL     -0.490000       15.9994           0   0.00000     -0.301140E-02
      6988 MEMB     58       PMPE     C21      CL       0.900000       12.0110           0   0.00000     -0.301140E-02
      6989 MEMB     58       PMPE     O22      OBL     -0.630000       15.9994           0   0.00000     -0.301140E-02
      6990 MEMB     58       PMPE     C22      CTL2    -0.220000       12.0110           0   0.00000     -0.301140E-02
      6991 MEMB     58       PMPE     H2R      HAL2     0.900000E-01   1.00800           0   0.00000     -0.301140E-02
      6992 MEMB     58       PMPE     H2S      HAL2     0.900000E-01   1.00800           0   0.00000     -0.301140E-02
      6993 MEMB     58       PMPE     C3       CTL2     0.800000E-01   12.0110           0   0.00000     -0.301140E-02
      6994 MEMB     58       PMPE     HX       HAL2     0.900000E-01   1.00800           0   0.00000     -0.301140E-02
      6995 MEMB     58       PMPE     HY       HAL2     0.900000E-01   1.00800           0   0.00000     -0.301140E-02
      6996 MEMB     58       PMPE     O31      OSL     -0.490000       15.9994           0   0.00000     -0.301140E-02
      6997 MEMB     58       PMPE     C31      CL       0.900000       12.0110           0   0.00000     -0.301140E-02
      6998 MEMB     58       PMPE     O32      OBL     -0.630000       15.9994           0   0.00000     -0.301140E-02
      6999 MEMB     58       PMPE     C32      CTL2    -0.220000       12.0110           0   0.00000     -0.301140E-02
      7000 MEMB     58       PMPE     H2X      HAL2     0.900000E-01   1.00800           0   0.00000     -0.301140E-02
      7001 MEMB     58       PMPE     H2Y      HAL2     0.900000E-01   1.00800           0   0.00000     -0.301140E-02
      7002 MEMB     58       PMPE     C23      CTL2    -0.180000       12.0110           0   0.00000     -0.301140E-02
      7003 MEMB     58       PMPE     H3R      HAL2     0.900000E-01   1.00800           0   0.00000     -0.301140E-02
      7004 MEMB     58       PMPE     H3S      HAL2     0.900000E-01   1.00800           0   0.00000     -0.301140E-02
      7005 MEMB     58       PMPE     C24      CTL2    -0.180000       12.0110           0   0.00000     -0.301140E-02
      7006 MEMB     58       PMPE     H4R      HAL2     0.900000E-01   1.00800           0   0.00000     -0.301140E-02
      7007 MEMB     58       PMPE     H4S      HAL2     0.900000E-01   1.00800           0   0.00000     -0.301140E-02
      7008 MEMB     58       PMPE     C25      CTL2    -0.180000       12.0110           0   0.00000     -0.301140E-02
      7009 MEMB     58       PMPE     H5R      HAL2     0.900000E-01   1.00800           0   0.00000     -0.301140E-02
      7010 MEMB     58       PMPE     H5S      HAL2     0.900000E-01   1.00800           0   0.00000     -0.301140E-02
      7011 MEMB     58       PMPE     C26      CTL2    -0.180000       12.0110           0   0.00000     -0.301140E-02
      7012 MEMB     58       PMPE     H6R      HAL2     0.900000E-01   1.00800           0   0.00000     -0.301140E-02
      7013 MEMB     58       PMPE     H6S      HAL2     0.900000E-01   1.00800           0   0.00000     -0.301140E-02
      7014 MEMB     58       PMPE     C27      CTL2    -0.180000       12.0110           0   0.00000     -0.301140E-02
      7015 MEMB     58       PMPE     H7R      HAL2     0.900000E-01   1.00800           0   0.00000     -0.301140E-02
      7016 MEMB     58       PMPE     H7S      HAL2     0.900000E-01   1.00800           0   0.00000     -0.301140E-02
      7017 MEMB     58       PMPE     C28      CTL2    -0.180000       12.0110           0   0.00000     -0.301140E-02
      7018 MEMB     58       PMPE     H8R      HAL2     0.900000E-01   1.00800           0   0.00000     -0.301140E-02
      7019 MEMB     58       PMPE     H8S      HAL2     0.900000E-01   1.00800           0   0.00000     -0.301140E-02
      7020 MEMB     58       PMPE     C29      CG3RC1  -0.900000E-01   12.0110           0   0.00000     -0.301140E-02
      7021 MEMB     58       PMPE     H9R      HGA1     0.900000E-01   1.00800           0   0.00000     -0.301140E-02
      7022 MEMB     58       PMPE     C217     CG3C31  -0.180000       12.0110           0   0.00000     -0.301140E-02
      7023 MEMB     58       PMPE     H17R     HGA2     0.900000E-01   1.00800           0   0.00000     -0.301140E-02
      7024 MEMB     58       PMPE     H17S     HGA2     0.900000E-01   1.00800           0   0.00000     -0.301140E-02
      7025 MEMB     58       PMPE     C210     CG3RC1  -0.900000E-01   12.0110           0   0.00000     -0.301140E-02
      7026 MEMB     58       PMPE     H10R     HGA1     0.900000E-01   1.00800           0   0.00000     -0.301140E-02
      7027 MEMB     58       PMPE     C211     CTL2    -0.180000       12.0110           0   0.00000     -0.301140E-02
      7028 MEMB     58       PMPE     H11R     HAL2     0.900000E-01   1.00800           0   0.00000     -0.301140E-02
      7029 MEMB     58       PMPE     H11S     HAL2     0.900000E-01   1.00800           0   0.00000     -0.301140E-02
      7030 MEMB     58       PMPE     C212     CTL2    -0.180000       12.0110           0   0.00000     -0.301140E-02
      7031 MEMB     58       PMPE     H12R     HAL2     0.900000E-01   1.00800           0   0.00000     -0.301140E-02
      7032 MEMB     58       PMPE     H12S     HAL2     0.900000E-01   1.00800           0   0.00000     -0.301140E-02
      7033 MEMB     58       PMPE     C213     CTL2    -0.180000       12.0110           0   0.00000     -0.301140E-02
      7034 MEMB     58       PMPE     H13R     HAL2     0.900000E-01   1.00800           0   0.00000     -0.301140E-02
      7035 MEMB     58       PMPE     H13S     HAL2     0.900000E-01   1.00800           0   0.00000     -0.301140E-02
      7036 MEMB     58       PMPE     C214     CTL2    -0.180000       12.0110           0   0.00000     -0.301140E-02
      7037 MEMB     58       PMPE     H14R     HAL2     0.900000E-01   1.00800           0   0.00000     -0.301140E-02
      7038 MEMB     58       PMPE     H14S     HAL2     0.900000E-01   1.00800           0   0.00000     -0.301140E-02
      7039 MEMB     58       PMPE     C215     CTL2    -0.180000       12.0110           0   0.00000     -0.301140E-02
      7040 MEMB     58       PMPE     H15R     HAL2     0.900000E-01   1.00800           0   0.00000     -0.301140E-02
      7041 MEMB     58       PMPE     H15S     HAL2     0.900000E-01   1.00800           0   0.00000     -0.301140E-02
      7042 MEMB     58       PMPE     C216     CTL3    -0.270000       12.0110           0   0.00000     -0.301140E-02
      7043 MEMB     58       PMPE     H16R     HAL3     0.900000E-01   1.00800           0   0.00000     -0.301140E-02
      7044 MEMB     58       PMPE     H16S     HAL3     0.900000E-01   1.00800           0   0.00000     -0.301140E-02
      7045 MEMB     58       PMPE     H16T     HAL3     0.900000E-01   1.00800           0   0.00000     -0.301140E-02
      7046 MEMB     58       PMPE     C33      CTL2    -0.180000       12.0110           0   0.00000     -0.301140E-02
      7047 MEMB     58       PMPE     H3X      HAL2     0.900000E-01   1.00800           0   0.00000     -0.301140E-02
      7048 MEMB     58       PMPE     H3Y      HAL2     0.900000E-01   1.00800           0   0.00000     -0.301140E-02
      7049 MEMB     58       PMPE     C34      CTL2    -0.180000       12.0110           0   0.00000     -0.301140E-02
      7050 MEMB     58       PMPE     H4X      HAL2     0.900000E-01   1.00800           0   0.00000     -0.301140E-02
      7051 MEMB     58       PMPE     H4Y      HAL2     0.900000E-01   1.00800           0   0.00000     -0.301140E-02
      7052 MEMB     58       PMPE     C35      CTL2    -0.180000       12.0110           0   0.00000     -0.301140E-02
      7053 MEMB     58       PMPE     H5X      HAL2     0.900000E-01   1.00800           0   0.00000     -0.301140E-02
      7054 MEMB     58       PMPE     H5Y      HAL2     0.900000E-01   1.00800           0   0.00000     -0.301140E-02
      7055 MEMB     58       PMPE     C36      CTL2    -0.180000       12.0110           0   0.00000     -0.301140E-02
      7056 MEMB     58       PMPE     H6X      HAL2     0.900000E-01   1.00800           0   0.00000     -0.301140E-02
      7057 MEMB     58       PMPE     H6Y      HAL2     0.900000E-01   1.00800           0   0.00000     -0.301140E-02
      7058 MEMB     58       PMPE     C37      CTL2    -0.180000       12.0110           0   0.00000     -0.301140E-02
      7059 MEMB     58       PMPE     H7X      HAL2     0.900000E-01   1.00800           0   0.00000     -0.301140E-02
      7060 MEMB     58       PMPE     H7Y      HAL2     0.900000E-01   1.00800           0   0.00000     -0.301140E-02
      7061 MEMB     58       PMPE     C38      CTL2    -0.180000       12.0110           0   0.00000     -0.301140E-02
      7062 MEMB     58       PMPE     H8X      HAL2     0.900000E-01   1.00800           0   0.00000     -0.301140E-02
      7063 MEMB     58       PMPE     H8Y      HAL2     0.900000E-01   1.00800           0   0.00000     -0.301140E-02
      7064 MEMB     58       PMPE     C39      CTL2    -0.180000       12.0110           0   0.00000     -0.301140E-02
      7065 MEMB     58       PMPE     H9X      HAL2     0.900000E-01   1.00800           0   0.00000     -0.301140E-02
      7066 MEMB     58       PMPE     H9Y      HAL2     0.900000E-01   1.00800           0   0.00000     -0.301140E-02
      7067 MEMB     58       PMPE     C310     CTL2    -0.180000       12.0110           0   0.00000     -0.301140E-02
      7068 MEMB     58       PMPE     H10X     HAL2     0.900000E-01   1.00800           0   0.00000     -0.301140E-02
      7069 MEMB     58       PMPE     H10Y     HAL2     0.900000E-01   1.00800           0   0.00000     -0.301140E-02
      7070 MEMB     58       PMPE     C311     CTL2    -0.180000       12.0110           0   0.00000     -0.301140E-02
      7071 MEMB     58       PMPE     H11X     HAL2     0.900000E-01   1.00800           0   0.00000     -0.301140E-02
      7072 MEMB     58       PMPE     H11Y     HAL2     0.900000E-01   1.00800           0   0.00000     -0.301140E-02
      7073 MEMB     58       PMPE     C312     CTL2    -0.180000       12.0110           0   0.00000     -0.301140E-02
      7074 MEMB     58       PMPE     H12X     HAL2     0.900000E-01   1.00800           0   0.00000     -0.301140E-02
      7075 MEMB     58       PMPE     H12Y     HAL2     0.900000E-01   1.00800           0   0.00000     -0.301140E-02
      7076 MEMB     58       PMPE     C313     CTL2    -0.180000       12.0110           0   0.00000     -0.301140E-02
      7077 MEMB     58       PMPE     H13X     HAL2     0.900000E-01   1.00800           0   0.00000     -0.301140E-02
      7078 MEMB     58       PMPE     H13Y     HAL2     0.900000E-01   1.00800           0   0.00000     -0.301140E-02
      7079 MEMB     58       PMPE     C314     CTL2    -0.180000       12.0110           0   0.00000     -0.301140E-02
      7080 MEMB     58       PMPE     H14X     HAL2     0.900000E-01   1.00800           0   0.00000     -0.301140E-02
      7081 MEMB     58       PMPE     H14Y     HAL2     0.900000E-01   1.00800           0   0.00000     -0.301140E-02
      7082 MEMB     58       PMPE     C315     CTL2    -0.180000       12.0110           0   0.00000     -0.301140E-02
      7083 MEMB     58       PMPE     H15X     HAL2     0.900000E-01   1.00800           0   0.00000     -0.301140E-02
      7084 MEMB     58       PMPE     H15Y     HAL2     0.900000E-01   1.00800           0   0.00000     -0.301140E-02
      7085 MEMB     58       PMPE     C316     CTL3    -0.270000       12.0110           0   0.00000     -0.301140E-02
      7086 MEMB     58       PMPE     H16X     HAL3     0.900000E-01   1.00800           0   0.00000     -0.301140E-02
      7087 MEMB     58       PMPE     H16Y     HAL3     0.900000E-01   1.00800           0   0.00000     -0.301140E-02
      7088 MEMB     58       PMPE     H16Z     HAL3     0.900000E-01   1.00800           0   0.00000     -0.301140E-02
      7089 MEMB     59       PMPE     N        NH3L    -0.300000       14.0070           0   0.00000     -0.301140E-02
      7090 MEMB     59       PMPE     HN1      HCL      0.330000       1.00800           0   0.00000     -0.301140E-02
      7091 MEMB     59       PMPE     HN2      HCL      0.330000       1.00800           0   0.00000     -0.301140E-02
      7092 MEMB     59       PMPE     HN3      HCL      0.330000       1.00800           0   0.00000     -0.301140E-02
      7093 MEMB     59       PMPE     C12      CTL2     0.130000       12.0110           0   0.00000     -0.301140E-02
      7094 MEMB     59       PMPE     H12A     HAL2     0.900000E-01   1.00800           0   0.00000     -0.301140E-02
      7095 MEMB     59       PMPE     H12B     HAL2     0.900000E-01   1.00800           0   0.00000     -0.301140E-02
      7096 MEMB     59       PMPE     C11      CTL2    -0.800000E-01   12.0110           0   0.00000     -0.301140E-02
      7097 MEMB     59       PMPE     H11A     HAL2     0.900000E-01   1.00800           0   0.00000     -0.301140E-02
      7098 MEMB     59       PMPE     H11B     HAL2     0.900000E-01   1.00800           0   0.00000     -0.301140E-02
      7099 MEMB     59       PMPE     P        PL        1.50000       30.9740           0   0.00000     -0.301140E-02
      7100 MEMB     59       PMPE     O13      O2L     -0.780000       15.9994           0   0.00000     -0.301140E-02
      7101 MEMB     59       PMPE     O14      O2L     -0.780000       15.9994           0   0.00000     -0.301140E-02
      7102 MEMB     59       PMPE     O11      OSLP    -0.570000       15.9994           0   0.00000     -0.301140E-02
      7103 MEMB     59       PMPE     O12      OSLP    -0.570000       15.9994           0   0.00000     -0.301140E-02
      7104 MEMB     59       PMPE     C1       CTL2    -0.800000E-01   12.0110           0   0.00000     -0.301140E-02
      7105 MEMB     59       PMPE     HA       HAL2     0.900000E-01   1.00800           0   0.00000     -0.301140E-02
      7106 MEMB     59       PMPE     HB       HAL2     0.900000E-01   1.00800           0   0.00000     -0.301140E-02
      7107 MEMB     59       PMPE     C2       CTL1     0.170000       12.0110           0   0.00000     -0.301140E-02
      7108 MEMB     59       PMPE     HS       HAL1     0.900000E-01   1.00800           0   0.00000     -0.301140E-02
      7109 MEMB     59       PMPE     O21      OSL     -0.490000       15.9994           0   0.00000     -0.301140E-02
      7110 MEMB     59       PMPE     C21      CL       0.900000       12.0110           0   0.00000     -0.301140E-02
      7111 MEMB     59       PMPE     O22      OBL     -0.630000       15.9994           0   0.00000     -0.301140E-02
      7112 MEMB     59       PMPE     C22      CTL2    -0.220000       12.0110           0   0.00000     -0.301140E-02
      7113 MEMB     59       PMPE     H2R      HAL2     0.900000E-01   1.00800           0   0.00000     -0.301140E-02
      7114 MEMB     59       PMPE     H2S      HAL2     0.900000E-01   1.00800           0   0.00000     -0.301140E-02
      7115 MEMB     59       PMPE     C3       CTL2     0.800000E-01   12.0110           0   0.00000     -0.301140E-02
      7116 MEMB     59       PMPE     HX       HAL2     0.900000E-01   1.00800           0   0.00000     -0.301140E-02
      7117 MEMB     59       PMPE     HY       HAL2     0.900000E-01   1.00800           0   0.00000     -0.301140E-02
      7118 MEMB     59       PMPE     O31      OSL     -0.490000       15.9994           0   0.00000     -0.301140E-02
      7119 MEMB     59       PMPE     C31      CL       0.900000       12.0110           0   0.00000     -0.301140E-02
      7120 MEMB     59       PMPE     O32      OBL     -0.630000       15.9994           0   0.00000     -0.301140E-02
      7121 MEMB     59       PMPE     C32      CTL2    -0.220000       12.0110           0   0.00000     -0.301140E-02
      7122 MEMB     59       PMPE     H2X      HAL2     0.900000E-01   1.00800           0   0.00000     -0.301140E-02
      7123 MEMB     59       PMPE     H2Y      HAL2     0.900000E-01   1.00800           0   0.00000     -0.301140E-02
      7124 MEMB     59       PMPE     C23      CTL2    -0.180000       12.0110           0   0.00000     -0.301140E-02
      7125 MEMB     59       PMPE     H3R      HAL2     0.900000E-01   1.00800           0   0.00000     -0.301140E-02
      7126 MEMB     59       PMPE     H3S      HAL2     0.900000E-01   1.00800           0   0.00000     -0.301140E-02
      7127 MEMB     59       PMPE     C24      CTL2    -0.180000       12.0110           0   0.00000     -0.301140E-02
      7128 MEMB     59       PMPE     H4R      HAL2     0.900000E-01   1.00800           0   0.00000     -0.301140E-02
      7129 MEMB     59       PMPE     H4S      HAL2     0.900000E-01   1.00800           0   0.00000     -0.301140E-02
      7130 MEMB     59       PMPE     C25      CTL2    -0.180000       12.0110           0   0.00000     -0.301140E-02
      7131 MEMB     59       PMPE     H5R      HAL2     0.900000E-01   1.00800           0   0.00000     -0.301140E-02
      7132 MEMB     59       PMPE     H5S      HAL2     0.900000E-01   1.00800           0   0.00000     -0.301140E-02
      7133 MEMB     59       PMPE     C26      CTL2    -0.180000       12.0110           0   0.00000     -0.301140E-02
      7134 MEMB     59       PMPE     H6R      HAL2     0.900000E-01   1.00800           0   0.00000     -0.301140E-02
      7135 MEMB     59       PMPE     H6S      HAL2     0.900000E-01   1.00800           0   0.00000     -0.301140E-02
      7136 MEMB     59       PMPE     C27      CTL2    -0.180000       12.0110           0   0.00000     -0.301140E-02
      7137 MEMB     59       PMPE     H7R      HAL2     0.900000E-01   1.00800           0   0.00000     -0.301140E-02
      7138 MEMB     59       PMPE     H7S      HAL2     0.900000E-01   1.00800           0   0.00000     -0.301140E-02
      7139 MEMB     59       PMPE     C28      CTL2    -0.180000       12.0110           0   0.00000     -0.301140E-02
      7140 MEMB     59       PMPE     H8R      HAL2     0.900000E-01   1.00800           0   0.00000     -0.301140E-02
      7141 MEMB     59       PMPE     H8S      HAL2     0.900000E-01   1.00800           0   0.00000     -0.301140E-02
      7142 MEMB     59       PMPE     C29      CG3RC1  -0.900000E-01   12.0110           0   0.00000     -0.301140E-02
      7143 MEMB     59       PMPE     H9R      HGA1     0.900000E-01   1.00800           0   0.00000     -0.301140E-02
      7144 MEMB     59       PMPE     C217     CG3C31  -0.180000       12.0110           0   0.00000     -0.301140E-02
      7145 MEMB     59       PMPE     H17R     HGA2     0.900000E-01   1.00800           0   0.00000     -0.301140E-02
      7146 MEMB     59       PMPE     H17S     HGA2     0.900000E-01   1.00800           0   0.00000     -0.301140E-02
      7147 MEMB     59       PMPE     C210     CG3RC1  -0.900000E-01   12.0110           0   0.00000     -0.301140E-02
      7148 MEMB     59       PMPE     H10R     HGA1     0.900000E-01   1.00800           0   0.00000     -0.301140E-02
      7149 MEMB     59       PMPE     C211     CTL2    -0.180000       12.0110           0   0.00000     -0.301140E-02
      7150 MEMB     59       PMPE     H11R     HAL2     0.900000E-01   1.00800           0   0.00000     -0.301140E-02
      7151 MEMB     59       PMPE     H11S     HAL2     0.900000E-01   1.00800           0   0.00000     -0.301140E-02
      7152 MEMB     59       PMPE     C212     CTL2    -0.180000       12.0110           0   0.00000     -0.301140E-02
      7153 MEMB     59       PMPE     H12R     HAL2     0.900000E-01   1.00800           0   0.00000     -0.301140E-02
      7154 MEMB     59       PMPE     H12S     HAL2     0.900000E-01   1.00800           0   0.00000     -0.301140E-02
      7155 MEMB     59       PMPE     C213     CTL2    -0.180000       12.0110           0   0.00000     -0.301140E-02
      7156 MEMB     59       PMPE     H13R     HAL2     0.900000E-01   1.00800           0   0.00000     -0.301140E-02
      7157 MEMB     59       PMPE     H13S     HAL2     0.900000E-01   1.00800           0   0.00000     -0.301140E-02
      7158 MEMB     59       PMPE     C214     CTL2    -0.180000       12.0110           0   0.00000     -0.301140E-02
      7159 MEMB     59       PMPE     H14R     HAL2     0.900000E-01   1.00800           0   0.00000     -0.301140E-02
      7160 MEMB     59       PMPE     H14S     HAL2     0.900000E-01   1.00800           0   0.00000     -0.301140E-02
      7161 MEMB     59       PMPE     C215     CTL2    -0.180000       12.0110           0   0.00000     -0.301140E-02
      7162 MEMB     59       PMPE     H15R     HAL2     0.900000E-01   1.00800           0   0.00000     -0.301140E-02
      7163 MEMB     59       PMPE     H15S     HAL2     0.900000E-01   1.00800           0   0.00000     -0.301140E-02
      7164 MEMB     59       PMPE     C216     CTL3    -0.270000       12.0110           0   0.00000     -0.301140E-02
      7165 MEMB     59       PMPE     H16R     HAL3     0.900000E-01   1.00800           0   0.00000     -0.301140E-02
      7166 MEMB     59       PMPE     H16S     HAL3     0.900000E-01   1.00800           0   0.00000     -0.301140E-02
      7167 MEMB     59       PMPE     H16T     HAL3     0.900000E-01   1.00800           0   0.00000     -0.301140E-02
      7168 MEMB     59       PMPE     C33      CTL2    -0.180000       12.0110           0   0.00000     -0.301140E-02
      7169 MEMB     59       PMPE     H3X      HAL2     0.900000E-01   1.00800           0   0.00000     -0.301140E-02
      7170 MEMB     59       PMPE     H3Y      HAL2     0.900000E-01   1.00800           0   0.00000     -0.301140E-02
      7171 MEMB     59       PMPE     C34      CTL2    -0.180000       12.0110           0   0.00000     -0.301140E-02
      7172 MEMB     59       PMPE     H4X      HAL2     0.900000E-01   1.00800           0   0.00000     -0.301140E-02
      7173 MEMB     59       PMPE     H4Y      HAL2     0.900000E-01   1.00800           0   0.00000     -0.301140E-02
      7174 MEMB     59       PMPE     C35      CTL2    -0.180000       12.0110           0   0.00000     -0.301140E-02
      7175 MEMB     59       PMPE     H5X      HAL2     0.900000E-01   1.00800           0   0.00000     -0.301140E-02
      7176 MEMB     59       PMPE     H5Y      HAL2     0.900000E-01   1.00800           0   0.00000     -0.301140E-02
      7177 MEMB     59       PMPE     C36      CTL2    -0.180000       12.0110           0   0.00000     -0.301140E-02
      7178 MEMB     59       PMPE     H6X      HAL2     0.900000E-01   1.00800           0   0.00000     -0.301140E-02
      7179 MEMB     59       PMPE     H6Y      HAL2     0.900000E-01   1.00800           0   0.00000     -0.301140E-02
      7180 MEMB     59       PMPE     C37      CTL2    -0.180000       12.0110           0   0.00000     -0.301140E-02
      7181 MEMB     59       PMPE     H7X      HAL2     0.900000E-01   1.00800           0   0.00000     -0.301140E-02
      7182 MEMB     59       PMPE     H7Y      HAL2     0.900000E-01   1.00800           0   0.00000     -0.301140E-02
      7183 MEMB     59       PMPE     C38      CTL2    -0.180000       12.0110           0   0.00000     -0.301140E-02
      7184 MEMB     59       PMPE     H8X      HAL2     0.900000E-01   1.00800           0   0.00000     -0.301140E-02
      7185 MEMB     59       PMPE     H8Y      HAL2     0.900000E-01   1.00800           0   0.00000     -0.301140E-02
      7186 MEMB     59       PMPE     C39      CTL2    -0.180000       12.0110           0   0.00000     -0.301140E-02
      7187 MEMB     59       PMPE     H9X      HAL2     0.900000E-01   1.00800           0   0.00000     -0.301140E-02
      7188 MEMB     59       PMPE     H9Y      HAL2     0.900000E-01   1.00800           0   0.00000     -0.301140E-02
      7189 MEMB     59       PMPE     C310     CTL2    -0.180000       12.0110           0   0.00000     -0.301140E-02
      7190 MEMB     59       PMPE     H10X     HAL2     0.900000E-01   1.00800           0   0.00000     -0.301140E-02
      7191 MEMB     59       PMPE     H10Y     HAL2     0.900000E-01   1.00800           0   0.00000     -0.301140E-02
      7192 MEMB     59       PMPE     C311     CTL2    -0.180000       12.0110           0   0.00000     -0.301140E-02
      7193 MEMB     59       PMPE     H11X     HAL2     0.900000E-01   1.00800           0   0.00000     -0.301140E-02
      7194 MEMB     59       PMPE     H11Y     HAL2     0.900000E-01   1.00800           0   0.00000     -0.301140E-02
      7195 MEMB     59       PMPE     C312     CTL2    -0.180000       12.0110           0   0.00000     -0.301140E-02
      7196 MEMB     59       PMPE     H12X     HAL2     0.900000E-01   1.00800           0   0.00000     -0.301140E-02
      7197 MEMB     59       PMPE     H12Y     HAL2     0.900000E-01   1.00800           0   0.00000     -0.301140E-02
      7198 MEMB     59       PMPE     C313     CTL2    -0.180000       12.0110           0   0.00000     -0.301140E-02
      7199 MEMB     59       PMPE     H13X     HAL2     0.900000E-01   1.00800           0   0.00000     -0.301140E-02
      7200 MEMB     59       PMPE     H13Y     HAL2     0.900000E-01   1.00800           0   0.00000     -0.301140E-02
      7201 MEMB     59       PMPE     C314     CTL2    -0.180000       12.0110           0   0.00000     -0.301140E-02
      7202 MEMB     59       PMPE     H14X     HAL2     0.900000E-01   1.00800           0   0.00000     -0.301140E-02
      7203 MEMB     59       PMPE     H14Y     HAL2     0.900000E-01   1.00800           0   0.00000     -0.301140E-02
      7204 MEMB     59       PMPE     C315     CTL2    -0.180000       12.0110           0   0.00000     -0.301140E-02
      7205 MEMB     59       PMPE     H15X     HAL2     0.900000E-01   1.00800           0   0.00000     -0.301140E-02
      7206 MEMB     59       PMPE     H15Y     HAL2     0.900000E-01   1.00800           0   0.00000     -0.301140E-02
      7207 MEMB     59       PMPE     C316     CTL3    -0.270000       12.0110           0   0.00000     -0.301140E-02
      7208 MEMB     59       PMPE     H16X     HAL3     0.900000E-01   1.00800           0   0.00000     -0.301140E-02
      7209 MEMB     59       PMPE     H16Y     HAL3     0.900000E-01   1.00800           0   0.00000     -0.301140E-02
      7210 MEMB     59       PMPE     H16Z     HAL3     0.900000E-01   1.00800           0   0.00000     -0.301140E-02
      7211 MEMB     60       PMPE     N        NH3L    -0.300000       14.0070           0   0.00000     -0.301140E-02
      7212 MEMB     60       PMPE     HN1      HCL      0.330000       1.00800           0   0.00000     -0.301140E-02
      7213 MEMB     60       PMPE     HN2      HCL      0.330000       1.00800           0   0.00000     -0.301140E-02
      7214 MEMB     60       PMPE     HN3      HCL      0.330000       1.00800           0   0.00000     -0.301140E-02
      7215 MEMB     60       PMPE     C12      CTL2     0.130000       12.0110           0   0.00000     -0.301140E-02
      7216 MEMB     60       PMPE     H12A     HAL2     0.900000E-01   1.00800           0   0.00000     -0.301140E-02
      7217 MEMB     60       PMPE     H12B     HAL2     0.900000E-01   1.00800           0   0.00000     -0.301140E-02
      7218 MEMB     60       PMPE     C11      CTL2    -0.800000E-01   12.0110           0   0.00000     -0.301140E-02
      7219 MEMB     60       PMPE     H11A     HAL2     0.900000E-01   1.00800           0   0.00000     -0.301140E-02
      7220 MEMB     60       PMPE     H11B     HAL2     0.900000E-01   1.00800           0   0.00000     -0.301140E-02
      7221 MEMB     60       PMPE     P        PL        1.50000       30.9740           0   0.00000     -0.301140E-02
      7222 MEMB     60       PMPE     O13      O2L     -0.780000       15.9994           0   0.00000     -0.301140E-02
      7223 MEMB     60       PMPE     O14      O2L     -0.780000       15.9994           0   0.00000     -0.301140E-02
      7224 MEMB     60       PMPE     O11      OSLP    -0.570000       15.9994           0   0.00000     -0.301140E-02
      7225 MEMB     60       PMPE     O12      OSLP    -0.570000       15.9994           0   0.00000     -0.301140E-02
      7226 MEMB     60       PMPE     C1       CTL2    -0.800000E-01   12.0110           0   0.00000     -0.301140E-02
      7227 MEMB     60       PMPE     HA       HAL2     0.900000E-01   1.00800           0   0.00000     -0.301140E-02
      7228 MEMB     60       PMPE     HB       HAL2     0.900000E-01   1.00800           0   0.00000     -0.301140E-02
      7229 MEMB     60       PMPE     C2       CTL1     0.170000       12.0110           0   0.00000     -0.301140E-02
      7230 MEMB     60       PMPE     HS       HAL1     0.900000E-01   1.00800           0   0.00000     -0.301140E-02
      7231 MEMB     60       PMPE     O21      OSL     -0.490000       15.9994           0   0.00000     -0.301140E-02
      7232 MEMB     60       PMPE     C21      CL       0.900000       12.0110           0   0.00000     -0.301140E-02
      7233 MEMB     60       PMPE     O22      OBL     -0.630000       15.9994           0   0.00000     -0.301140E-02
      7234 MEMB     60       PMPE     C22      CTL2    -0.220000       12.0110           0   0.00000     -0.301140E-02
      7235 MEMB     60       PMPE     H2R      HAL2     0.900000E-01   1.00800           0   0.00000     -0.301140E-02
      7236 MEMB     60       PMPE     H2S      HAL2     0.900000E-01   1.00800           0   0.00000     -0.301140E-02
      7237 MEMB     60       PMPE     C3       CTL2     0.800000E-01   12.0110           0   0.00000     -0.301140E-02
      7238 MEMB     60       PMPE     HX       HAL2     0.900000E-01   1.00800           0   0.00000     -0.301140E-02
      7239 MEMB     60       PMPE     HY       HAL2     0.900000E-01   1.00800           0   0.00000     -0.301140E-02
      7240 MEMB     60       PMPE     O31      OSL     -0.490000       15.9994           0   0.00000     -0.301140E-02
      7241 MEMB     60       PMPE     C31      CL       0.900000       12.0110           0   0.00000     -0.301140E-02
      7242 MEMB     60       PMPE     O32      OBL     -0.630000       15.9994           0   0.00000     -0.301140E-02
      7243 MEMB     60       PMPE     C32      CTL2    -0.220000       12.0110           0   0.00000     -0.301140E-02
      7244 MEMB     60       PMPE     H2X      HAL2     0.900000E-01   1.00800           0   0.00000     -0.301140E-02
      7245 MEMB     60       PMPE     H2Y      HAL2     0.900000E-01   1.00800           0   0.00000     -0.301140E-02
      7246 MEMB     60       PMPE     C23      CTL2    -0.180000       12.0110           0   0.00000     -0.301140E-02
      7247 MEMB     60       PMPE     H3R      HAL2     0.900000E-01   1.00800           0   0.00000     -0.301140E-02
      7248 MEMB     60       PMPE     H3S      HAL2     0.900000E-01   1.00800           0   0.00000     -0.301140E-02
      7249 MEMB     60       PMPE     C24      CTL2    -0.180000       12.0110           0   0.00000     -0.301140E-02
      7250 MEMB     60       PMPE     H4R      HAL2     0.900000E-01   1.00800           0   0.00000     -0.301140E-02
      7251 MEMB     60       PMPE     H4S      HAL2     0.900000E-01   1.00800           0   0.00000     -0.301140E-02
      7252 MEMB     60       PMPE     C25      CTL2    -0.180000       12.0110           0   0.00000     -0.301140E-02
      7253 MEMB     60       PMPE     H5R      HAL2     0.900000E-01   1.00800           0   0.00000     -0.301140E-02
      7254 MEMB     60       PMPE     H5S      HAL2     0.900000E-01   1.00800           0   0.00000     -0.301140E-02
      7255 MEMB     60       PMPE     C26      CTL2    -0.180000       12.0110           0   0.00000     -0.301140E-02
      7256 MEMB     60       PMPE     H6R      HAL2     0.900000E-01   1.00800           0   0.00000     -0.301140E-02
      7257 MEMB     60       PMPE     H6S      HAL2     0.900000E-01   1.00800           0   0.00000     -0.301140E-02
      7258 MEMB     60       PMPE     C27      CTL2    -0.180000       12.0110           0   0.00000     -0.301140E-02
      7259 MEMB     60       PMPE     H7R      HAL2     0.900000E-01   1.00800           0   0.00000     -0.301140E-02
      7260 MEMB     60       PMPE     H7S      HAL2     0.900000E-01   1.00800           0   0.00000     -0.301140E-02
      7261 MEMB     60       PMPE     C28      CTL2    -0.180000       12.0110           0   0.00000     -0.301140E-02
      7262 MEMB     60       PMPE     H8R      HAL2     0.900000E-01   1.00800           0   0.00000     -0.301140E-02
      7263 MEMB     60       PMPE     H8S      HAL2     0.900000E-01   1.00800           0   0.00000     -0.301140E-02
      7264 MEMB     60       PMPE     C29      CG3RC1  -0.900000E-01   12.0110           0   0.00000     -0.301140E-02
      7265 MEMB     60       PMPE     H9R      HGA1     0.900000E-01   1.00800           0   0.00000     -0.301140E-02
      7266 MEMB     60       PMPE     C217     CG3C31  -0.180000       12.0110           0   0.00000     -0.301140E-02
      7267 MEMB     60       PMPE     H17R     HGA2     0.900000E-01   1.00800           0   0.00000     -0.301140E-02
      7268 MEMB     60       PMPE     H17S     HGA2     0.900000E-01   1.00800           0   0.00000     -0.301140E-02
      7269 MEMB     60       PMPE     C210     CG3RC1  -0.900000E-01   12.0110           0   0.00000     -0.301140E-02
      7270 MEMB     60       PMPE     H10R     HGA1     0.900000E-01   1.00800           0   0.00000     -0.301140E-02
      7271 MEMB     60       PMPE     C211     CTL2    -0.180000       12.0110           0   0.00000     -0.301140E-02
      7272 MEMB     60       PMPE     H11R     HAL2     0.900000E-01   1.00800           0   0.00000     -0.301140E-02
      7273 MEMB     60       PMPE     H11S     HAL2     0.900000E-01   1.00800           0   0.00000     -0.301140E-02
      7274 MEMB     60       PMPE     C212     CTL2    -0.180000       12.0110           0   0.00000     -0.301140E-02
      7275 MEMB     60       PMPE     H12R     HAL2     0.900000E-01   1.00800           0   0.00000     -0.301140E-02
      7276 MEMB     60       PMPE     H12S     HAL2     0.900000E-01   1.00800           0   0.00000     -0.301140E-02
      7277 MEMB     60       PMPE     C213     CTL2    -0.180000       12.0110           0   0.00000     -0.301140E-02
      7278 MEMB     60       PMPE     H13R     HAL2     0.900000E-01   1.00800           0   0.00000     -0.301140E-02
      7279 MEMB     60       PMPE     H13S     HAL2     0.900000E-01   1.00800           0   0.00000     -0.301140E-02
      7280 MEMB     60       PMPE     C214     CTL2    -0.180000       12.0110           0   0.00000     -0.301140E-02
      7281 MEMB     60       PMPE     H14R     HAL2     0.900000E-01   1.00800           0   0.00000     -0.301140E-02
      7282 MEMB     60       PMPE     H14S     HAL2     0.900000E-01   1.00800           0   0.00000     -0.301140E-02
      7283 MEMB     60       PMPE     C215     CTL2    -0.180000       12.0110           0   0.00000     -0.301140E-02
      7284 MEMB     60       PMPE     H15R     HAL2     0.900000E-01   1.00800           0   0.00000     -0.301140E-02
      7285 MEMB     60       PMPE     H15S     HAL2     0.900000E-01   1.00800           0   0.00000     -0.301140E-02
      7286 MEMB     60       PMPE     C216     CTL3    -0.270000       12.0110           0   0.00000     -0.301140E-02
      7287 MEMB     60       PMPE     H16R     HAL3     0.900000E-01   1.00800           0   0.00000     -0.301140E-02
      7288 MEMB     60       PMPE     H16S     HAL3     0.900000E-01   1.00800           0   0.00000     -0.301140E-02
      7289 MEMB     60       PMPE     H16T     HAL3     0.900000E-01   1.00800           0   0.00000     -0.301140E-02
      7290 MEMB     60       PMPE     C33      CTL2    -0.180000       12.0110           0   0.00000     -0.301140E-02
      7291 MEMB     60       PMPE     H3X      HAL2     0.900000E-01   1.00800           0   0.00000     -0.301140E-02
      7292 MEMB     60       PMPE     H3Y      HAL2     0.900000E-01   1.00800           0   0.00000     -0.301140E-02
      7293 MEMB     60       PMPE     C34      CTL2    -0.180000       12.0110           0   0.00000     -0.301140E-02
      7294 MEMB     60       PMPE     H4X      HAL2     0.900000E-01   1.00800           0   0.00000     -0.301140E-02
      7295 MEMB     60       PMPE     H4Y      HAL2     0.900000E-01   1.00800           0   0.00000     -0.301140E-02
      7296 MEMB     60       PMPE     C35      CTL2    -0.180000       12.0110           0   0.00000     -0.301140E-02
      7297 MEMB     60       PMPE     H5X      HAL2     0.900000E-01   1.00800           0   0.00000     -0.301140E-02
      7298 MEMB     60       PMPE     H5Y      HAL2     0.900000E-01   1.00800           0   0.00000     -0.301140E-02
      7299 MEMB     60       PMPE     C36      CTL2    -0.180000       12.0110           0   0.00000     -0.301140E-02
      7300 MEMB     60       PMPE     H6X      HAL2     0.900000E-01   1.00800           0   0.00000     -0.301140E-02
      7301 MEMB     60       PMPE     H6Y      HAL2     0.900000E-01   1.00800           0   0.00000     -0.301140E-02
      7302 MEMB     60       PMPE     C37      CTL2    -0.180000       12.0110           0   0.00000     -0.301140E-02
      7303 MEMB     60       PMPE     H7X      HAL2     0.900000E-01   1.00800           0   0.00000     -0.301140E-02
      7304 MEMB     60       PMPE     H7Y      HAL2     0.900000E-01   1.00800           0   0.00000     -0.301140E-02
      7305 MEMB     60       PMPE     C38      CTL2    -0.180000       12.0110           0   0.00000     -0.301140E-02
      7306 MEMB     60       PMPE     H8X      HAL2     0.900000E-01   1.00800           0   0.00000     -0.301140E-02
      7307 MEMB     60       PMPE     H8Y      HAL2     0.900000E-01   1.00800           0   0.00000     -0.301140E-02
      7308 MEMB     60       PMPE     C39      CTL2    -0.180000       12.0110           0   0.00000     -0.301140E-02
      7309 MEMB     60       PMPE     H9X      HAL2     0.900000E-01   1.00800           0   0.00000     -0.301140E-02
      7310 MEMB     60       PMPE     H9Y      HAL2     0.900000E-01   1.00800           0   0.00000     -0.301140E-02
      7311 MEMB     60       PMPE     C310     CTL2    -0.180000       12.0110           0   0.00000     -0.301140E-02
      7312 MEMB     60       PMPE     H10X     HAL2     0.900000E-01   1.00800           0   0.00000     -0.301140E-02
      7313 MEMB     60       PMPE     H10Y     HAL2     0.900000E-01   1.00800           0   0.00000     -0.301140E-02
      7314 MEMB     60       PMPE     C311     CTL2    -0.180000       12.0110           0   0.00000     -0.301140E-02
      7315 MEMB     60       PMPE     H11X     HAL2     0.900000E-01   1.00800           0   0.00000     -0.301140E-02
      7316 MEMB     60       PMPE     H11Y     HAL2     0.900000E-01   1.00800           0   0.00000     -0.301140E-02
      7317 MEMB     60       PMPE     C312     CTL2    -0.180000       12.0110           0   0.00000     -0.301140E-02
      7318 MEMB     60       PMPE     H12X     HAL2     0.900000E-01   1.00800           0   0.00000     -0.301140E-02
      7319 MEMB     60       PMPE     H12Y     HAL2     0.900000E-01   1.00800           0   0.00000     -0.301140E-02
      7320 MEMB     60       PMPE     C313     CTL2    -0.180000       12.0110           0   0.00000     -0.301140E-02
      7321 MEMB     60       PMPE     H13X     HAL2     0.900000E-01   1.00800           0   0.00000     -0.301140E-02
      7322 MEMB     60       PMPE     H13Y     HAL2     0.900000E-01   1.00800           0   0.00000     -0.301140E-02
      7323 MEMB     60       PMPE     C314     CTL2    -0.180000       12.0110           0   0.00000     -0.301140E-02
      7324 MEMB     60       PMPE     H14X     HAL2     0.900000E-01   1.00800           0   0.00000     -0.301140E-02
      7325 MEMB     60       PMPE     H14Y     HAL2     0.900000E-01   1.00800           0   0.00000     -0.301140E-02
      7326 MEMB     60       PMPE     C315     CTL2    -0.180000       12.0110           0   0.00000     -0.301140E-02
      7327 MEMB     60       PMPE     H15X     HAL2     0.900000E-01   1.00800           0   0.00000     -0.301140E-02
      7328 MEMB     60       PMPE     H15Y     HAL2     0.900000E-01   1.00800           0   0.00000     -0.301140E-02
      7329 MEMB     60       PMPE     C316     CTL3    -0.270000       12.0110           0   0.00000     -0.301140E-02
      7330 MEMB     60       PMPE     H16X     HAL3     0.900000E-01   1.00800           0   0.00000     -0.301140E-02
      7331 MEMB     60       PMPE     H16Y     HAL3     0.900000E-01   1.00800           0   0.00000     -0.301140E-02
      7332 MEMB     60       PMPE     H16Z     HAL3     0.900000E-01   1.00800           0   0.00000     -0.301140E-02
      7333 MEMB     61       PMPE     N        NH3L    -0.300000       14.0070           0   0.00000     -0.301140E-02
      7334 MEMB     61       PMPE     HN1      HCL      0.330000       1.00800           0   0.00000     -0.301140E-02
      7335 MEMB     61       PMPE     HN2      HCL      0.330000       1.00800           0   0.00000     -0.301140E-02
      7336 MEMB     61       PMPE     HN3      HCL      0.330000       1.00800           0   0.00000     -0.301140E-02
      7337 MEMB     61       PMPE     C12      CTL2     0.130000       12.0110           0   0.00000     -0.301140E-02
      7338 MEMB     61       PMPE     H12A     HAL2     0.900000E-01   1.00800           0   0.00000     -0.301140E-02
      7339 MEMB     61       PMPE     H12B     HAL2     0.900000E-01   1.00800           0   0.00000     -0.301140E-02
      7340 MEMB     61       PMPE     C11      CTL2    -0.800000E-01   12.0110           0   0.00000     -0.301140E-02
      7341 MEMB     61       PMPE     H11A     HAL2     0.900000E-01   1.00800           0   0.00000     -0.301140E-02
      7342 MEMB     61       PMPE     H11B     HAL2     0.900000E-01   1.00800           0   0.00000     -0.301140E-02
      7343 MEMB     61       PMPE     P        PL        1.50000       30.9740           0   0.00000     -0.301140E-02
      7344 MEMB     61       PMPE     O13      O2L     -0.780000       15.9994           0   0.00000     -0.301140E-02
      7345 MEMB     61       PMPE     O14      O2L     -0.780000       15.9994           0   0.00000     -0.301140E-02
      7346 MEMB     61       PMPE     O11      OSLP    -0.570000       15.9994           0   0.00000     -0.301140E-02
      7347 MEMB     61       PMPE     O12      OSLP    -0.570000       15.9994           0   0.00000     -0.301140E-02
      7348 MEMB     61       PMPE     C1       CTL2    -0.800000E-01   12.0110           0   0.00000     -0.301140E-02
      7349 MEMB     61       PMPE     HA       HAL2     0.900000E-01   1.00800           0   0.00000     -0.301140E-02
      7350 MEMB     61       PMPE     HB       HAL2     0.900000E-01   1.00800           0   0.00000     -0.301140E-02
      7351 MEMB     61       PMPE     C2       CTL1     0.170000       12.0110           0   0.00000     -0.301140E-02
      7352 MEMB     61       PMPE     HS       HAL1     0.900000E-01   1.00800           0   0.00000     -0.301140E-02
      7353 MEMB     61       PMPE     O21      OSL     -0.490000       15.9994           0   0.00000     -0.301140E-02
      7354 MEMB     61       PMPE     C21      CL       0.900000       12.0110           0   0.00000     -0.301140E-02
      7355 MEMB     61       PMPE     O22      OBL     -0.630000       15.9994           0   0.00000     -0.301140E-02
      7356 MEMB     61       PMPE     C22      CTL2    -0.220000       12.0110           0   0.00000     -0.301140E-02
      7357 MEMB     61       PMPE     H2R      HAL2     0.900000E-01   1.00800           0   0.00000     -0.301140E-02
      7358 MEMB     61       PMPE     H2S      HAL2     0.900000E-01   1.00800           0   0.00000     -0.301140E-02
      7359 MEMB     61       PMPE     C3       CTL2     0.800000E-01   12.0110           0   0.00000     -0.301140E-02
      7360 MEMB     61       PMPE     HX       HAL2     0.900000E-01   1.00800           0   0.00000     -0.301140E-02
      7361 MEMB     61       PMPE     HY       HAL2     0.900000E-01   1.00800           0   0.00000     -0.301140E-02
      7362 MEMB     61       PMPE     O31      OSL     -0.490000       15.9994           0   0.00000     -0.301140E-02
      7363 MEMB     61       PMPE     C31      CL       0.900000       12.0110           0   0.00000     -0.301140E-02
      7364 MEMB     61       PMPE     O32      OBL     -0.630000       15.9994           0   0.00000     -0.301140E-02
      7365 MEMB     61       PMPE     C32      CTL2    -0.220000       12.0110           0   0.00000     -0.301140E-02
      7366 MEMB     61       PMPE     H2X      HAL2     0.900000E-01   1.00800           0   0.00000     -0.301140E-02
      7367 MEMB     61       PMPE     H2Y      HAL2     0.900000E-01   1.00800           0   0.00000     -0.301140E-02
      7368 MEMB     61       PMPE     C23      CTL2    -0.180000       12.0110           0   0.00000     -0.301140E-02
      7369 MEMB     61       PMPE     H3R      HAL2     0.900000E-01   1.00800           0   0.00000     -0.301140E-02
      7370 MEMB     61       PMPE     H3S      HAL2     0.900000E-01   1.00800           0   0.00000     -0.301140E-02
      7371 MEMB     61       PMPE     C24      CTL2    -0.180000       12.0110           0   0.00000     -0.301140E-02
      7372 MEMB     61       PMPE     H4R      HAL2     0.900000E-01   1.00800           0   0.00000     -0.301140E-02
      7373 MEMB     61       PMPE     H4S      HAL2     0.900000E-01   1.00800           0   0.00000     -0.301140E-02
      7374 MEMB     61       PMPE     C25      CTL2    -0.180000       12.0110           0   0.00000     -0.301140E-02
      7375 MEMB     61       PMPE     H5R      HAL2     0.900000E-01   1.00800           0   0.00000     -0.301140E-02
      7376 MEMB     61       PMPE     H5S      HAL2     0.900000E-01   1.00800           0   0.00000     -0.301140E-02
      7377 MEMB     61       PMPE     C26      CTL2    -0.180000       12.0110           0   0.00000     -0.301140E-02
      7378 MEMB     61       PMPE     H6R      HAL2     0.900000E-01   1.00800           0   0.00000     -0.301140E-02
      7379 MEMB     61       PMPE     H6S      HAL2     0.900000E-01   1.00800           0   0.00000     -0.301140E-02
      7380 MEMB     61       PMPE     C27      CTL2    -0.180000       12.0110           0   0.00000     -0.301140E-02
      7381 MEMB     61       PMPE     H7R      HAL2     0.900000E-01   1.00800           0   0.00000     -0.301140E-02
      7382 MEMB     61       PMPE     H7S      HAL2     0.900000E-01   1.00800           0   0.00000     -0.301140E-02
      7383 MEMB     61       PMPE     C28      CTL2    -0.180000       12.0110           0   0.00000     -0.301140E-02
      7384 MEMB     61       PMPE     H8R      HAL2     0.900000E-01   1.00800           0   0.00000     -0.301140E-02
      7385 MEMB     61       PMPE     H8S      HAL2     0.900000E-01   1.00800           0   0.00000     -0.301140E-02
      7386 MEMB     61       PMPE     C29      CG3RC1  -0.900000E-01   12.0110           0   0.00000     -0.301140E-02
      7387 MEMB     61       PMPE     H9R      HGA1     0.900000E-01   1.00800           0   0.00000     -0.301140E-02
      7388 MEMB     61       PMPE     C217     CG3C31  -0.180000       12.0110           0   0.00000     -0.301140E-02
      7389 MEMB     61       PMPE     H17R     HGA2     0.900000E-01   1.00800           0   0.00000     -0.301140E-02
      7390 MEMB     61       PMPE     H17S     HGA2     0.900000E-01   1.00800           0   0.00000     -0.301140E-02
      7391 MEMB     61       PMPE     C210     CG3RC1  -0.900000E-01   12.0110           0   0.00000     -0.301140E-02
      7392 MEMB     61       PMPE     H10R     HGA1     0.900000E-01   1.00800           0   0.00000     -0.301140E-02
      7393 MEMB     61       PMPE     C211     CTL2    -0.180000       12.0110           0   0.00000     -0.301140E-02
      7394 MEMB     61       PMPE     H11R     HAL2     0.900000E-01   1.00800           0   0.00000     -0.301140E-02
      7395 MEMB     61       PMPE     H11S     HAL2     0.900000E-01   1.00800           0   0.00000     -0.301140E-02
      7396 MEMB     61       PMPE     C212     CTL2    -0.180000       12.0110           0   0.00000     -0.301140E-02
      7397 MEMB     61       PMPE     H12R     HAL2     0.900000E-01   1.00800           0   0.00000     -0.301140E-02
      7398 MEMB     61       PMPE     H12S     HAL2     0.900000E-01   1.00800           0   0.00000     -0.301140E-02
      7399 MEMB     61       PMPE     C213     CTL2    -0.180000       12.0110           0   0.00000     -0.301140E-02
      7400 MEMB     61       PMPE     H13R     HAL2     0.900000E-01   1.00800           0   0.00000     -0.301140E-02
      7401 MEMB     61       PMPE     H13S     HAL2     0.900000E-01   1.00800           0   0.00000     -0.301140E-02
      7402 MEMB     61       PMPE     C214     CTL2    -0.180000       12.0110           0   0.00000     -0.301140E-02
      7403 MEMB     61       PMPE     H14R     HAL2     0.900000E-01   1.00800           0   0.00000     -0.301140E-02
      7404 MEMB     61       PMPE     H14S     HAL2     0.900000E-01   1.00800           0   0.00000     -0.301140E-02
      7405 MEMB     61       PMPE     C215     CTL2    -0.180000       12.0110           0   0.00000     -0.301140E-02
      7406 MEMB     61       PMPE     H15R     HAL2     0.900000E-01   1.00800           0   0.00000     -0.301140E-02
      7407 MEMB     61       PMPE     H15S     HAL2     0.900000E-01   1.00800           0   0.00000     -0.301140E-02
      7408 MEMB     61       PMPE     C216     CTL3    -0.270000       12.0110           0   0.00000     -0.301140E-02
      7409 MEMB     61       PMPE     H16R     HAL3     0.900000E-01   1.00800           0   0.00000     -0.301140E-02
      7410 MEMB     61       PMPE     H16S     HAL3     0.900000E-01   1.00800           0   0.00000     -0.301140E-02
      7411 MEMB     61       PMPE     H16T     HAL3     0.900000E-01   1.00800           0   0.00000     -0.301140E-02
      7412 MEMB     61       PMPE     C33      CTL2    -0.180000       12.0110           0   0.00000     -0.301140E-02
      7413 MEMB     61       PMPE     H3X      HAL2     0.900000E-01   1.00800           0   0.00000     -0.301140E-02
      7414 MEMB     61       PMPE     H3Y      HAL2     0.900000E-01   1.00800           0   0.00000     -0.301140E-02
      7415 MEMB     61       PMPE     C34      CTL2    -0.180000       12.0110           0   0.00000     -0.301140E-02
      7416 MEMB     61       PMPE     H4X      HAL2     0.900000E-01   1.00800           0   0.00000     -0.301140E-02
      7417 MEMB     61       PMPE     H4Y      HAL2     0.900000E-01   1.00800           0   0.00000     -0.301140E-02
      7418 MEMB     61       PMPE     C35      CTL2    -0.180000       12.0110           0   0.00000     -0.301140E-02
      7419 MEMB     61       PMPE     H5X      HAL2     0.900000E-01   1.00800           0   0.00000     -0.301140E-02
      7420 MEMB     61       PMPE     H5Y      HAL2     0.900000E-01   1.00800           0   0.00000     -0.301140E-02
      7421 MEMB     61       PMPE     C36      CTL2    -0.180000       12.0110           0   0.00000     -0.301140E-02
      7422 MEMB     61       PMPE     H6X      HAL2     0.900000E-01   1.00800           0   0.00000     -0.301140E-02
      7423 MEMB     61       PMPE     H6Y      HAL2     0.900000E-01   1.00800           0   0.00000     -0.301140E-02
      7424 MEMB     61       PMPE     C37      CTL2    -0.180000       12.0110           0   0.00000     -0.301140E-02
      7425 MEMB     61       PMPE     H7X      HAL2     0.900000E-01   1.00800           0   0.00000     -0.301140E-02
      7426 MEMB     61       PMPE     H7Y      HAL2     0.900000E-01   1.00800           0   0.00000     -0.301140E-02
      7427 MEMB     61       PMPE     C38      CTL2    -0.180000       12.0110           0   0.00000     -0.301140E-02
      7428 MEMB     61       PMPE     H8X      HAL2     0.900000E-01   1.00800           0   0.00000     -0.301140E-02
      7429 MEMB     61       PMPE     H8Y      HAL2     0.900000E-01   1.00800           0   0.00000     -0.301140E-02
      7430 MEMB     61       PMPE     C39      CTL2    -0.180000       12.0110           0   0.00000     -0.301140E-02
      7431 MEMB     61       PMPE     H9X      HAL2     0.900000E-01   1.00800           0   0.00000     -0.301140E-02
      7432 MEMB     61       PMPE     H9Y      HAL2     0.900000E-01   1.00800           0   0.00000     -0.301140E-02
      7433 MEMB     61       PMPE     C310     CTL2    -0.180000       12.0110           0   0.00000     -0.301140E-02
      7434 MEMB     61       PMPE     H10X     HAL2     0.900000E-01   1.00800           0   0.00000     -0.301140E-02
      7435 MEMB     61       PMPE     H10Y     HAL2     0.900000E-01   1.00800           0   0.00000     -0.301140E-02
      7436 MEMB     61       PMPE     C311     CTL2    -0.180000       12.0110           0   0.00000     -0.301140E-02
      7437 MEMB     61       PMPE     H11X     HAL2     0.900000E-01   1.00800           0   0.00000     -0.301140E-02
      7438 MEMB     61       PMPE     H11Y     HAL2     0.900000E-01   1.00800           0   0.00000     -0.301140E-02
      7439 MEMB     61       PMPE     C312     CTL2    -0.180000       12.0110           0   0.00000     -0.301140E-02
      7440 MEMB     61       PMPE     H12X     HAL2     0.900000E-01   1.00800           0   0.00000     -0.301140E-02
      7441 MEMB     61       PMPE     H12Y     HAL2     0.900000E-01   1.00800           0   0.00000     -0.301140E-02
      7442 MEMB     61       PMPE     C313     CTL2    -0.180000       12.0110           0   0.00000     -0.301140E-02
      7443 MEMB     61       PMPE     H13X     HAL2     0.900000E-01   1.00800           0   0.00000     -0.301140E-02
      7444 MEMB     61       PMPE     H13Y     HAL2     0.900000E-01   1.00800           0   0.00000     -0.301140E-02
      7445 MEMB     61       PMPE     C314     CTL2    -0.180000       12.0110           0   0.00000     -0.301140E-02
      7446 MEMB     61       PMPE     H14X     HAL2     0.900000E-01   1.00800           0   0.00000     -0.301140E-02
      7447 MEMB     61       PMPE     H14Y     HAL2     0.900000E-01   1.00800           0   0.00000     -0.301140E-02
      7448 MEMB     61       PMPE     C315     CTL2    -0.180000       12.0110           0   0.00000     -0.301140E-02
      7449 MEMB     61       PMPE     H15X     HAL2     0.900000E-01   1.00800           0   0.00000     -0.301140E-02
      7450 MEMB     61       PMPE     H15Y     HAL2     0.900000E-01   1.00800           0   0.00000     -0.301140E-02
      7451 MEMB     61       PMPE     C316     CTL3    -0.270000       12.0110           0   0.00000     -0.301140E-02
      7452 MEMB     61       PMPE     H16X     HAL3     0.900000E-01   1.00800           0   0.00000     -0.301140E-02
      7453 MEMB     61       PMPE     H16Y     HAL3     0.900000E-01   1.00800           0   0.00000     -0.301140E-02
      7454 MEMB     61       PMPE     H16Z     HAL3     0.900000E-01   1.00800           0   0.00000     -0.301140E-02
      7455 MEMB     62       PMPG     C13      CTL2     0.500000E-01   12.0110           0   0.00000     -0.301140E-02
      7456 MEMB     62       PMPG     H13A     HAL2     0.900000E-01   1.00800           0   0.00000     -0.301140E-02
      7457 MEMB     62       PMPG     H13B     HAL2     0.900000E-01   1.00800           0   0.00000     -0.301140E-02
      7458 MEMB     62       PMPG     OC3      OHL     -0.660000       15.9994           0   0.00000     -0.301140E-02
      7459 MEMB     62       PMPG     HO3      HOL      0.430000       1.00800           0   0.00000     -0.301140E-02
      7460 MEMB     62       PMPG     C12      CTL1     0.140000       12.0110           0   0.00000     -0.301140E-02
      7461 MEMB     62       PMPG     H12A     HAL1     0.900000E-01   1.00800           0   0.00000     -0.301140E-02
      7462 MEMB     62       PMPG     OC2      OHL     -0.660000       15.9994           0   0.00000     -0.301140E-02
      7463 MEMB     62       PMPG     HO2      HOL      0.430000       1.00800           0   0.00000     -0.301140E-02
      7464 MEMB     62       PMPG     C11      CTL2    -0.800000E-01   12.0110           0   0.00000     -0.301140E-02
      7465 MEMB     62       PMPG     H11A     HAL2     0.900000E-01   1.00800           0   0.00000     -0.301140E-02
      7466 MEMB     62       PMPG     H11B     HAL2     0.900000E-01   1.00800           0   0.00000     -0.301140E-02
      7467 MEMB     62       PMPG     P        PL        1.50000       30.9740           0   0.00000     -0.301140E-02
      7468 MEMB     62       PMPG     O13      O2L     -0.780000       15.9994           0   0.00000     -0.301140E-02
      7469 MEMB     62       PMPG     O14      O2L     -0.780000       15.9994           0   0.00000     -0.301140E-02
      7470 MEMB     62       PMPG     O11      OSLP    -0.570000       15.9994           0   0.00000     -0.301140E-02
      7471 MEMB     62       PMPG     O12      OSLP    -0.570000       15.9994           0   0.00000     -0.301140E-02
      7472 MEMB     62       PMPG     C1       CTL2    -0.800000E-01   12.0110           0   0.00000     -0.301140E-02
      7473 MEMB     62       PMPG     HA       HAL2     0.900000E-01   1.00800           0   0.00000     -0.301140E-02
      7474 MEMB     62       PMPG     HB       HAL2     0.900000E-01   1.00800           0   0.00000     -0.301140E-02
      7475 MEMB     62       PMPG     C2       CTL1     0.170000       12.0110           0   0.00000     -0.301140E-02
      7476 MEMB     62       PMPG     HS       HAL1     0.900000E-01   1.00800           0   0.00000     -0.301140E-02
      7477 MEMB     62       PMPG     O21      OSL     -0.490000       15.9994           0   0.00000     -0.301140E-02
      7478 MEMB     62       PMPG     C21      CL       0.900000       12.0110           0   0.00000     -0.301140E-02
      7479 MEMB     62       PMPG     O22      OBL     -0.630000       15.9994           0   0.00000     -0.301140E-02
      7480 MEMB     62       PMPG     C22      CTL2    -0.220000       12.0110           0   0.00000     -0.301140E-02
      7481 MEMB     62       PMPG     H2R      HAL2     0.900000E-01   1.00800           0   0.00000     -0.301140E-02
      7482 MEMB     62       PMPG     H2S      HAL2     0.900000E-01   1.00800           0   0.00000     -0.301140E-02
      7483 MEMB     62       PMPG     C3       CTL2     0.800000E-01   12.0110           0   0.00000     -0.301140E-02
      7484 MEMB     62       PMPG     HX       HAL2     0.900000E-01   1.00800           0   0.00000     -0.301140E-02
      7485 MEMB     62       PMPG     HY       HAL2     0.900000E-01   1.00800           0   0.00000     -0.301140E-02
      7486 MEMB     62       PMPG     O31      OSL     -0.490000       15.9994           0   0.00000     -0.301140E-02
      7487 MEMB     62       PMPG     C31      CL       0.900000       12.0110           0   0.00000     -0.301140E-02
      7488 MEMB     62       PMPG     O32      OBL     -0.630000       15.9994           0   0.00000     -0.301140E-02
      7489 MEMB     62       PMPG     C32      CTL2    -0.220000       12.0110           0   0.00000     -0.301140E-02
      7490 MEMB     62       PMPG     H2X      HAL2     0.900000E-01   1.00800           0   0.00000     -0.301140E-02
      7491 MEMB     62       PMPG     H2Y      HAL2     0.900000E-01   1.00800           0   0.00000     -0.301140E-02
      7492 MEMB     62       PMPG     C23      CTL2    -0.180000       12.0110           0   0.00000     -0.301140E-02
      7493 MEMB     62       PMPG     H3R      HAL2     0.900000E-01   1.00800           0   0.00000     -0.301140E-02
      7494 MEMB     62       PMPG     H3S      HAL2     0.900000E-01   1.00800           0   0.00000     -0.301140E-02
      7495 MEMB     62       PMPG     C24      CTL2    -0.180000       12.0110           0   0.00000     -0.301140E-02
      7496 MEMB     62       PMPG     H4R      HAL2     0.900000E-01   1.00800           0   0.00000     -0.301140E-02
      7497 MEMB     62       PMPG     H4S      HAL2     0.900000E-01   1.00800           0   0.00000     -0.301140E-02
      7498 MEMB     62       PMPG     C25      CTL2    -0.180000       12.0110           0   0.00000     -0.301140E-02
      7499 MEMB     62       PMPG     H5R      HAL2     0.900000E-01   1.00800           0   0.00000     -0.301140E-02
      7500 MEMB     62       PMPG     H5S      HAL2     0.900000E-01   1.00800           0   0.00000     -0.301140E-02
      7501 MEMB     62       PMPG     C26      CTL2    -0.180000       12.0110           0   0.00000     -0.301140E-02
      7502 MEMB     62       PMPG     H6R      HAL2     0.900000E-01   1.00800           0   0.00000     -0.301140E-02
      7503 MEMB     62       PMPG     H6S      HAL2     0.900000E-01   1.00800           0   0.00000     -0.301140E-02
      7504 MEMB     62       PMPG     C27      CTL2    -0.180000       12.0110           0   0.00000     -0.301140E-02
      7505 MEMB     62       PMPG     H7R      HAL2     0.900000E-01   1.00800           0   0.00000     -0.301140E-02
      7506 MEMB     62       PMPG     H7S      HAL2     0.900000E-01   1.00800           0   0.00000     -0.301140E-02
      7507 MEMB     62       PMPG     C28      CTL2    -0.180000       12.0110           0   0.00000     -0.301140E-02
      7508 MEMB     62       PMPG     H8R      HAL2     0.900000E-01   1.00800           0   0.00000     -0.301140E-02
      7509 MEMB     62       PMPG     H8S      HAL2     0.900000E-01   1.00800           0   0.00000     -0.301140E-02
      7510 MEMB     62       PMPG     C29      CG3RC1  -0.900000E-01   12.0110           0   0.00000     -0.301140E-02
      7511 MEMB     62       PMPG     H9R      HGA1     0.900000E-01   1.00800           0   0.00000     -0.301140E-02
      7512 MEMB     62       PMPG     C217     CG3C31  -0.180000       12.0110           0   0.00000     -0.301140E-02
      7513 MEMB     62       PMPG     H17R     HGA2     0.900000E-01   1.00800           0   0.00000     -0.301140E-02
      7514 MEMB     62       PMPG     H17S     HGA2     0.900000E-01   1.00800           0   0.00000     -0.301140E-02
      7515 MEMB     62       PMPG     C210     CG3RC1  -0.900000E-01   12.0110           0   0.00000     -0.301140E-02
      7516 MEMB     62       PMPG     H10R     HGA1     0.900000E-01   1.00800           0   0.00000     -0.301140E-02
      7517 MEMB     62       PMPG     C211     CTL2    -0.180000       12.0110           0   0.00000     -0.301140E-02
      7518 MEMB     62       PMPG     H11R     HAL2     0.900000E-01   1.00800           0   0.00000     -0.301140E-02
      7519 MEMB     62       PMPG     H11S     HAL2     0.900000E-01   1.00800           0   0.00000     -0.301140E-02
      7520 MEMB     62       PMPG     C212     CTL2    -0.180000       12.0110           0   0.00000     -0.301140E-02
      7521 MEMB     62       PMPG     H12R     HAL2     0.900000E-01   1.00800           0   0.00000     -0.301140E-02
      7522 MEMB     62       PMPG     H12S     HAL2     0.900000E-01   1.00800           0   0.00000     -0.301140E-02
      7523 MEMB     62       PMPG     C213     CTL2    -0.180000       12.0110           0   0.00000     -0.301140E-02
      7524 MEMB     62       PMPG     H13R     HAL2     0.900000E-01   1.00800           0   0.00000     -0.301140E-02
      7525 MEMB     62       PMPG     H13S     HAL2     0.900000E-01   1.00800           0   0.00000     -0.301140E-02
      7526 MEMB     62       PMPG     C214     CTL2    -0.180000       12.0110           0   0.00000     -0.301140E-02
      7527 MEMB     62       PMPG     H14R     HAL2     0.900000E-01   1.00800           0   0.00000     -0.301140E-02
      7528 MEMB     62       PMPG     H14S     HAL2     0.900000E-01   1.00800           0   0.00000     -0.301140E-02
      7529 MEMB     62       PMPG     C215     CTL2    -0.180000       12.0110           0   0.00000     -0.301140E-02
      7530 MEMB     62       PMPG     H15R     HAL2     0.900000E-01   1.00800           0   0.00000     -0.301140E-02
      7531 MEMB     62       PMPG     H15S     HAL2     0.900000E-01   1.00800           0   0.00000     -0.301140E-02
      7532 MEMB     62       PMPG     C216     CTL3    -0.270000       12.0110           0   0.00000     -0.301140E-02
      7533 MEMB     62       PMPG     H16R     HAL3     0.900000E-01   1.00800           0   0.00000     -0.301140E-02
      7534 MEMB     62       PMPG     H16S     HAL3     0.900000E-01   1.00800           0   0.00000     -0.301140E-02
      7535 MEMB     62       PMPG     H16T     HAL3     0.900000E-01   1.00800           0   0.00000     -0.301140E-02
      7536 MEMB     62       PMPG     C33      CTL2    -0.180000       12.0110           0   0.00000     -0.301140E-02
      7537 MEMB     62       PMPG     H3X      HAL2     0.900000E-01   1.00800           0   0.00000     -0.301140E-02
      7538 MEMB     62       PMPG     H3Y      HAL2     0.900000E-01   1.00800           0   0.00000     -0.301140E-02
      7539 MEMB     62       PMPG     C34      CTL2    -0.180000       12.0110           0   0.00000     -0.301140E-02
      7540 MEMB     62       PMPG     H4X      HAL2     0.900000E-01   1.00800           0   0.00000     -0.301140E-02
      7541 MEMB     62       PMPG     H4Y      HAL2     0.900000E-01   1.00800           0   0.00000     -0.301140E-02
      7542 MEMB     62       PMPG     C35      CTL2    -0.180000       12.0110           0   0.00000     -0.301140E-02
      7543 MEMB     62       PMPG     H5X      HAL2     0.900000E-01   1.00800           0   0.00000     -0.301140E-02
      7544 MEMB     62       PMPG     H5Y      HAL2     0.900000E-01   1.00800           0   0.00000     -0.301140E-02
      7545 MEMB     62       PMPG     C36      CTL2    -0.180000       12.0110           0   0.00000     -0.301140E-02
      7546 MEMB     62       PMPG     H6X      HAL2     0.900000E-01   1.00800           0   0.00000     -0.301140E-02
      7547 MEMB     62       PMPG     H6Y      HAL2     0.900000E-01   1.00800           0   0.00000     -0.301140E-02
      7548 MEMB     62       PMPG     C37      CTL2    -0.180000       12.0110           0   0.00000     -0.301140E-02
      7549 MEMB     62       PMPG     H7X      HAL2     0.900000E-01   1.00800           0   0.00000     -0.301140E-02
      7550 MEMB     62       PMPG     H7Y      HAL2     0.900000E-01   1.00800           0   0.00000     -0.301140E-02
      7551 MEMB     62       PMPG     C38      CTL2    -0.180000       12.0110           0   0.00000     -0.301140E-02
      7552 MEMB     62       PMPG     H8X      HAL2     0.900000E-01   1.00800           0   0.00000     -0.301140E-02
      7553 MEMB     62       PMPG     H8Y      HAL2     0.900000E-01   1.00800           0   0.00000     -0.301140E-02
      7554 MEMB     62       PMPG     C39      CTL2    -0.180000       12.0110           0   0.00000     -0.301140E-02
      7555 MEMB     62       PMPG     H9X      HAL2     0.900000E-01   1.00800           0   0.00000     -0.301140E-02
      7556 MEMB     62       PMPG     H9Y      HAL2     0.900000E-01   1.00800           0   0.00000     -0.301140E-02
      7557 MEMB     62       PMPG     C310     CTL2    -0.180000       12.0110           0   0.00000     -0.301140E-02
      7558 MEMB     62       PMPG     H10X     HAL2     0.900000E-01   1.00800           0   0.00000     -0.301140E-02
      7559 MEMB     62       PMPG     H10Y     HAL2     0.900000E-01   1.00800           0   0.00000     -0.301140E-02
      7560 MEMB     62       PMPG     C311     CTL2    -0.180000       12.0110           0   0.00000     -0.301140E-02
      7561 MEMB     62       PMPG     H11X     HAL2     0.900000E-01   1.00800           0   0.00000     -0.301140E-02
      7562 MEMB     62       PMPG     H11Y     HAL2     0.900000E-01   1.00800           0   0.00000     -0.301140E-02
      7563 MEMB     62       PMPG     C312     CTL2    -0.180000       12.0110           0   0.00000     -0.301140E-02
      7564 MEMB     62       PMPG     H12X     HAL2     0.900000E-01   1.00800           0   0.00000     -0.301140E-02
      7565 MEMB     62       PMPG     H12Y     HAL2     0.900000E-01   1.00800           0   0.00000     -0.301140E-02
      7566 MEMB     62       PMPG     C313     CTL2    -0.180000       12.0110           0   0.00000     -0.301140E-02
      7567 MEMB     62       PMPG     H13X     HAL2     0.900000E-01   1.00800           0   0.00000     -0.301140E-02
      7568 MEMB     62       PMPG     H13Y     HAL2     0.900000E-01   1.00800           0   0.00000     -0.301140E-02
      7569 MEMB     62       PMPG     C314     CTL2    -0.180000       12.0110           0   0.00000     -0.301140E-02
      7570 MEMB     62       PMPG     H14X     HAL2     0.900000E-01   1.00800           0   0.00000     -0.301140E-02
      7571 MEMB     62       PMPG     H14Y     HAL2     0.900000E-01   1.00800           0   0.00000     -0.301140E-02
      7572 MEMB     62       PMPG     C315     CTL2    -0.180000       12.0110           0   0.00000     -0.301140E-02
      7573 MEMB     62       PMPG     H15X     HAL2     0.900000E-01   1.00800           0   0.00000     -0.301140E-02
      7574 MEMB     62       PMPG     H15Y     HAL2     0.900000E-01   1.00800           0   0.00000     -0.301140E-02
      7575 MEMB     62       PMPG     C316     CTL3    -0.270000       12.0110           0   0.00000     -0.301140E-02
      7576 MEMB     62       PMPG     H16X     HAL3     0.900000E-01   1.00800           0   0.00000     -0.301140E-02
      7577 MEMB     62       PMPG     H16Y     HAL3     0.900000E-01   1.00800           0   0.00000     -0.301140E-02
      7578 MEMB     62       PMPG     H16Z     HAL3     0.900000E-01   1.00800           0   0.00000     -0.301140E-02
      7579 MEMB     63       POPE     N        NH3L    -0.300000       14.0070           0   0.00000     -0.301140E-02
      7580 MEMB     63       POPE     HN1      HCL      0.330000       1.00800           0   0.00000     -0.301140E-02
      7581 MEMB     63       POPE     HN2      HCL      0.330000       1.00800           0   0.00000     -0.301140E-02
      7582 MEMB     63       POPE     HN3      HCL      0.330000       1.00800           0   0.00000     -0.301140E-02
      7583 MEMB     63       POPE     C12      CTL2     0.130000       12.0110           0   0.00000     -0.301140E-02
      7584 MEMB     63       POPE     H12A     HAL2     0.900000E-01   1.00800           0   0.00000     -0.301140E-02
      7585 MEMB     63       POPE     H12B     HAL2     0.900000E-01   1.00800           0   0.00000     -0.301140E-02
      7586 MEMB     63       POPE     C11      CTL2    -0.800000E-01   12.0110           0   0.00000     -0.301140E-02
      7587 MEMB     63       POPE     H11A     HAL2     0.900000E-01   1.00800           0   0.00000     -0.301140E-02
      7588 MEMB     63       POPE     H11B     HAL2     0.900000E-01   1.00800           0   0.00000     -0.301140E-02
      7589 MEMB     63       POPE     P        PL        1.50000       30.9740           0   0.00000     -0.301140E-02
      7590 MEMB     63       POPE     O13      O2L     -0.780000       15.9994           0   0.00000     -0.301140E-02
      7591 MEMB     63       POPE     O14      O2L     -0.780000       15.9994           0   0.00000     -0.301140E-02
      7592 MEMB     63       POPE     O11      OSLP    -0.570000       15.9994           0   0.00000     -0.301140E-02
      7593 MEMB     63       POPE     O12      OSLP    -0.570000       15.9994           0   0.00000     -0.301140E-02
      7594 MEMB     63       POPE     C1       CTL2    -0.800000E-01   12.0110           0   0.00000     -0.301140E-02
      7595 MEMB     63       POPE     HA       HAL2     0.900000E-01   1.00800           0   0.00000     -0.301140E-02
      7596 MEMB     63       POPE     HB       HAL2     0.900000E-01   1.00800           0   0.00000     -0.301140E-02
      7597 MEMB     63       POPE     C2       CTL1     0.170000       12.0110           0   0.00000     -0.301140E-02
      7598 MEMB     63       POPE     HS       HAL1     0.900000E-01   1.00800           0   0.00000     -0.301140E-02
      7599 MEMB     63       POPE     O21      OSL     -0.490000       15.9994           0   0.00000     -0.301140E-02
      7600 MEMB     63       POPE     C21      CL       0.900000       12.0110           0   0.00000     -0.301140E-02
      7601 MEMB     63       POPE     O22      OBL     -0.630000       15.9994           0   0.00000     -0.301140E-02
      7602 MEMB     63       POPE     C22      CTL2    -0.220000       12.0110           0   0.00000     -0.301140E-02
      7603 MEMB     63       POPE     H2R      HAL2     0.900000E-01   1.00800           0   0.00000     -0.301140E-02
      7604 MEMB     63       POPE     H2S      HAL2     0.900000E-01   1.00800           0   0.00000     -0.301140E-02
      7605 MEMB     63       POPE     C3       CTL2     0.800000E-01   12.0110           0   0.00000     -0.301140E-02
      7606 MEMB     63       POPE     HX       HAL2     0.900000E-01   1.00800           0   0.00000     -0.301140E-02
      7607 MEMB     63       POPE     HY       HAL2     0.900000E-01   1.00800           0   0.00000     -0.301140E-02
      7608 MEMB     63       POPE     O31      OSL     -0.490000       15.9994           0   0.00000     -0.301140E-02
      7609 MEMB     63       POPE     C31      CL       0.900000       12.0110           0   0.00000     -0.301140E-02
      7610 MEMB     63       POPE     O32      OBL     -0.630000       15.9994           0   0.00000     -0.301140E-02
      7611 MEMB     63       POPE     C32      CTL2    -0.220000       12.0110           0   0.00000     -0.301140E-02
      7612 MEMB     63       POPE     H2X      HAL2     0.900000E-01   1.00800           0   0.00000     -0.301140E-02
      7613 MEMB     63       POPE     H2Y      HAL2     0.900000E-01   1.00800           0   0.00000     -0.301140E-02
      7614 MEMB     63       POPE     C23      CTL2    -0.180000       12.0110           0   0.00000     -0.301140E-02
      7615 MEMB     63       POPE     H3R      HAL2     0.900000E-01   1.00800           0   0.00000     -0.301140E-02
      7616 MEMB     63       POPE     H3S      HAL2     0.900000E-01   1.00800           0   0.00000     -0.301140E-02
      7617 MEMB     63       POPE     C24      CTL2    -0.180000       12.0110           0   0.00000     -0.301140E-02
      7618 MEMB     63       POPE     H4R      HAL2     0.900000E-01   1.00800           0   0.00000     -0.301140E-02
      7619 MEMB     63       POPE     H4S      HAL2     0.900000E-01   1.00800           0   0.00000     -0.301140E-02
      7620 MEMB     63       POPE     C25      CTL2    -0.180000       12.0110           0   0.00000     -0.301140E-02
      7621 MEMB     63       POPE     H5R      HAL2     0.900000E-01   1.00800           0   0.00000     -0.301140E-02
      7622 MEMB     63       POPE     H5S      HAL2     0.900000E-01   1.00800           0   0.00000     -0.301140E-02
      7623 MEMB     63       POPE     C26      CTL2    -0.180000       12.0110           0   0.00000     -0.301140E-02
      7624 MEMB     63       POPE     H6R      HAL2     0.900000E-01   1.00800           0   0.00000     -0.301140E-02
      7625 MEMB     63       POPE     H6S      HAL2     0.900000E-01   1.00800           0   0.00000     -0.301140E-02
      7626 MEMB     63       POPE     C27      CTL2    -0.180000       12.0110           0   0.00000     -0.301140E-02
      7627 MEMB     63       POPE     H7R      HAL2     0.900000E-01   1.00800           0   0.00000     -0.301140E-02
      7628 MEMB     63       POPE     H7S      HAL2     0.900000E-01   1.00800           0   0.00000     -0.301140E-02
      7629 MEMB     63       POPE     C28      CTL2    -0.180000       12.0110           0   0.00000     -0.301140E-02
      7630 MEMB     63       POPE     H8R      HAL2     0.900000E-01   1.00800           0   0.00000     -0.301140E-02
      7631 MEMB     63       POPE     H8S      HAL2     0.900000E-01   1.00800           0   0.00000     -0.301140E-02
      7632 MEMB     63       POPE     C29      CEL1    -0.150000       12.0110           0   0.00000     -0.301140E-02
      7633 MEMB     63       POPE     H91      HEL1     0.150000       1.00800           0   0.00000     -0.301140E-02
      7634 MEMB     63       POPE     C210     CEL1    -0.150000       12.0110           0   0.00000     -0.301140E-02
      7635 MEMB     63       POPE     H101     HEL1     0.150000       1.00800           0   0.00000     -0.301140E-02
      7636 MEMB     63       POPE     C211     CTL2    -0.180000       12.0110           0   0.00000     -0.301140E-02
      7637 MEMB     63       POPE     H11R     HAL2     0.900000E-01   1.00800           0   0.00000     -0.301140E-02
      7638 MEMB     63       POPE     H11S     HAL2     0.900000E-01   1.00800           0   0.00000     -0.301140E-02
      7639 MEMB     63       POPE     C212     CTL2    -0.180000       12.0110           0   0.00000     -0.301140E-02
      7640 MEMB     63       POPE     H12R     HAL2     0.900000E-01   1.00800           0   0.00000     -0.301140E-02
      7641 MEMB     63       POPE     H12S     HAL2     0.900000E-01   1.00800           0   0.00000     -0.301140E-02
      7642 MEMB     63       POPE     C213     CTL2    -0.180000       12.0110           0   0.00000     -0.301140E-02
      7643 MEMB     63       POPE     H13R     HAL2     0.900000E-01   1.00800           0   0.00000     -0.301140E-02
      7644 MEMB     63       POPE     H13S     HAL2     0.900000E-01   1.00800           0   0.00000     -0.301140E-02
      7645 MEMB     63       POPE     C214     CTL2    -0.180000       12.0110           0   0.00000     -0.301140E-02
      7646 MEMB     63       POPE     H14R     HAL2     0.900000E-01   1.00800           0   0.00000     -0.301140E-02
      7647 MEMB     63       POPE     H14S     HAL2     0.900000E-01   1.00800           0   0.00000     -0.301140E-02
      7648 MEMB     63       POPE     C215     CTL2    -0.180000       12.0110           0   0.00000     -0.301140E-02
      7649 MEMB     63       POPE     H15R     HAL2     0.900000E-01   1.00800           0   0.00000     -0.301140E-02
      7650 MEMB     63       POPE     H15S     HAL2     0.900000E-01   1.00800           0   0.00000     -0.301140E-02
      7651 MEMB     63       POPE     C216     CTL2    -0.180000       12.0110           0   0.00000     -0.301140E-02
      7652 MEMB     63       POPE     H16R     HAL2     0.900000E-01   1.00800           0   0.00000     -0.301140E-02
      7653 MEMB     63       POPE     H16S     HAL2     0.900000E-01   1.00800           0   0.00000     -0.301140E-02
      7654 MEMB     63       POPE     C217     CTL2    -0.180000       12.0110           0   0.00000     -0.301140E-02
      7655 MEMB     63       POPE     H17R     HAL2     0.900000E-01   1.00800           0   0.00000     -0.301140E-02
      7656 MEMB     63       POPE     H17S     HAL2     0.900000E-01   1.00800           0   0.00000     -0.301140E-02
      7657 MEMB     63       POPE     C218     CTL3    -0.270000       12.0110           0   0.00000     -0.301140E-02
      7658 MEMB     63       POPE     H18R     HAL3     0.900000E-01   1.00800           0   0.00000     -0.301140E-02
      7659 MEMB     63       POPE     H18S     HAL3     0.900000E-01   1.00800           0   0.00000     -0.301140E-02
      7660 MEMB     63       POPE     H18T     HAL3     0.900000E-01   1.00800           0   0.00000     -0.301140E-02
      7661 MEMB     63       POPE     C33      CTL2    -0.180000       12.0110           0   0.00000     -0.301140E-02
      7662 MEMB     63       POPE     H3X      HAL2     0.900000E-01   1.00800           0   0.00000     -0.301140E-02
      7663 MEMB     63       POPE     H3Y      HAL2     0.900000E-01   1.00800           0   0.00000     -0.301140E-02
      7664 MEMB     63       POPE     C34      CTL2    -0.180000       12.0110           0   0.00000     -0.301140E-02
      7665 MEMB     63       POPE     H4X      HAL2     0.900000E-01   1.00800           0   0.00000     -0.301140E-02
      7666 MEMB     63       POPE     H4Y      HAL2     0.900000E-01   1.00800           0   0.00000     -0.301140E-02
      7667 MEMB     63       POPE     C35      CTL2    -0.180000       12.0110           0   0.00000     -0.301140E-02
      7668 MEMB     63       POPE     H5X      HAL2     0.900000E-01   1.00800           0   0.00000     -0.301140E-02
      7669 MEMB     63       POPE     H5Y      HAL2     0.900000E-01   1.00800           0   0.00000     -0.301140E-02
      7670 MEMB     63       POPE     C36      CTL2    -0.180000       12.0110           0   0.00000     -0.301140E-02
      7671 MEMB     63       POPE     H6X      HAL2     0.900000E-01   1.00800           0   0.00000     -0.301140E-02
      7672 MEMB     63       POPE     H6Y      HAL2     0.900000E-01   1.00800           0   0.00000     -0.301140E-02
      7673 MEMB     63       POPE     C37      CTL2    -0.180000       12.0110           0   0.00000     -0.301140E-02
      7674 MEMB     63       POPE     H7X      HAL2     0.900000E-01   1.00800           0   0.00000     -0.301140E-02
      7675 MEMB     63       POPE     H7Y      HAL2     0.900000E-01   1.00800           0   0.00000     -0.301140E-02
      7676 MEMB     63       POPE     C38      CTL2    -0.180000       12.0110           0   0.00000     -0.301140E-02
      7677 MEMB     63       POPE     H8X      HAL2     0.900000E-01   1.00800           0   0.00000     -0.301140E-02
      7678 MEMB     63       POPE     H8Y      HAL2     0.900000E-01   1.00800           0   0.00000     -0.301140E-02
      7679 MEMB     63       POPE     C39      CTL2    -0.180000       12.0110           0   0.00000     -0.301140E-02
      7680 MEMB     63       POPE     H9X      HAL2     0.900000E-01   1.00800           0   0.00000     -0.301140E-02
      7681 MEMB     63       POPE     H9Y      HAL2     0.900000E-01   1.00800           0   0.00000     -0.301140E-02
      7682 MEMB     63       POPE     C310     CTL2    -0.180000       12.0110           0   0.00000     -0.301140E-02
      7683 MEMB     63       POPE     H10X     HAL2     0.900000E-01   1.00800           0   0.00000     -0.301140E-02
      7684 MEMB     63       POPE     H10Y     HAL2     0.900000E-01   1.00800           0   0.00000     -0.301140E-02
      7685 MEMB     63       POPE     C311     CTL2    -0.180000       12.0110           0   0.00000     -0.301140E-02
      7686 MEMB     63       POPE     H11X     HAL2     0.900000E-01   1.00800           0   0.00000     -0.301140E-02
      7687 MEMB     63       POPE     H11Y     HAL2     0.900000E-01   1.00800           0   0.00000     -0.301140E-02
      7688 MEMB     63       POPE     C312     CTL2    -0.180000       12.0110           0   0.00000     -0.301140E-02
      7689 MEMB     63       POPE     H12X     HAL2     0.900000E-01   1.00800           0   0.00000     -0.301140E-02
      7690 MEMB     63       POPE     H12Y     HAL2     0.900000E-01   1.00800           0   0.00000     -0.301140E-02
      7691 MEMB     63       POPE     C313     CTL2    -0.180000       12.0110           0   0.00000     -0.301140E-02
      7692 MEMB     63       POPE     H13X     HAL2     0.900000E-01   1.00800           0   0.00000     -0.301140E-02
      7693 MEMB     63       POPE     H13Y     HAL2     0.900000E-01   1.00800           0   0.00000     -0.301140E-02
      7694 MEMB     63       POPE     C314     CTL2    -0.180000       12.0110           0   0.00000     -0.301140E-02
      7695 MEMB     63       POPE     H14X     HAL2     0.900000E-01   1.00800           0   0.00000     -0.301140E-02
      7696 MEMB     63       POPE     H14Y     HAL2     0.900000E-01   1.00800           0   0.00000     -0.301140E-02
      7697 MEMB     63       POPE     C315     CTL2    -0.180000       12.0110           0   0.00000     -0.301140E-02
      7698 MEMB     63       POPE     H15X     HAL2     0.900000E-01   1.00800           0   0.00000     -0.301140E-02
      7699 MEMB     63       POPE     H15Y     HAL2     0.900000E-01   1.00800           0   0.00000     -0.301140E-02
      7700 MEMB     63       POPE     C316     CTL3    -0.270000       12.0110           0   0.00000     -0.301140E-02
      7701 MEMB     63       POPE     H16X     HAL3     0.900000E-01   1.00800           0   0.00000     -0.301140E-02
      7702 MEMB     63       POPE     H16Y     HAL3     0.900000E-01   1.00800           0   0.00000     -0.301140E-02
      7703 MEMB     63       POPE     H16Z     HAL3     0.900000E-01   1.00800           0   0.00000     -0.301140E-02
      7704 MEMB     64       PVCL2    C3       CTL2    -0.800000E-01   12.0110           0   0.00000     -0.301140E-02
      7705 MEMB     64       PVCL2    HG31     HAL2     0.900000E-01   1.00800           0   0.00000     -0.301140E-02
      7706 MEMB     64       PVCL2    HG32     HAL2     0.900000E-01   1.00800           0   0.00000     -0.301140E-02
      7707 MEMB     64       PVCL2    P3       PL        1.50000       30.9740           0   0.00000     -0.301140E-02
      7708 MEMB     64       PVCL2    OP33     O2L     -0.780000       15.9994           0   0.00000     -0.301140E-02
      7709 MEMB     64       PVCL2    OP34     O2L     -0.780000       15.9994           0   0.00000     -0.301140E-02
      7710 MEMB     64       PVCL2    OP31     OSLP    -0.570000       15.9994           0   0.00000     -0.301140E-02
      7711 MEMB     64       PVCL2    OP32     OSLP    -0.570000       15.9994           0   0.00000     -0.301140E-02
      7712 MEMB     64       PVCL2    C31      CTL2    -0.800000E-01   12.0110           0   0.00000     -0.301140E-02
      7713 MEMB     64       PVCL2    H31J     HAL2     0.900000E-01   1.00800           0   0.00000     -0.301140E-02
      7714 MEMB     64       PVCL2    H31K     HAL2     0.900000E-01   1.00800           0   0.00000     -0.301140E-02
      7715 MEMB     64       PVCL2    C2       CTL1     0.140000       12.0110           0   0.00000     -0.301140E-02
      7716 MEMB     64       PVCL2    HG22     HAL1     0.900000E-01   1.00800           0   0.00000     -0.301140E-02
      7717 MEMB     64       PVCL2    OG12     OHL     -0.650000       15.9994           0   0.00000     -0.301140E-02
      7718 MEMB     64       PVCL2    HO12     HOL      0.420000       1.00800           0   0.00000     -0.301140E-02
      7719 MEMB     64       PVCL2    C1       CTL2    -0.800000E-01   12.0110           0   0.00000     -0.301140E-02
      7720 MEMB     64       PVCL2    HG11     HAL2     0.900000E-01   1.00800           0   0.00000     -0.301140E-02
      7721 MEMB     64       PVCL2    HG12     HAL2     0.900000E-01   1.00800           0   0.00000     -0.301140E-02
      7722 MEMB     64       PVCL2    P1       PL        1.50000       30.9740           0   0.00000     -0.301140E-02
      7723 MEMB     64       PVCL2    OP13     O2L     -0.780000       15.9994           0   0.00000     -0.301140E-02
      7724 MEMB     64       PVCL2    OP14     O2L     -0.780000       15.9994           0   0.00000     -0.301140E-02
      7725 MEMB     64       PVCL2    OP11     OSLP    -0.570000       15.9994           0   0.00000     -0.301140E-02
      7726 MEMB     64       PVCL2    OP12     OSLP    -0.570000       15.9994           0   0.00000     -0.301140E-02
      7727 MEMB     64       PVCL2    C11      CTL2    -0.800000E-01   12.0110           0   0.00000     -0.301140E-02
      7728 MEMB     64       PVCL2    H11J     HAL2     0.900000E-01   1.00800           0   0.00000     -0.301140E-02
      7729 MEMB     64       PVCL2    H11K     HAL2     0.900000E-01   1.00800           0   0.00000     -0.301140E-02
      7730 MEMB     64       PVCL2    C12      CTL1     0.170000       12.0110           0   0.00000     -0.301140E-02
      7731 MEMB     64       PVCL2    H12J     HAL1     0.900000E-01   1.00800           0   0.00000     -0.301140E-02
      7732 MEMB     64       PVCL2    O12      OSL     -0.490000       15.9994           0   0.00000     -0.301140E-02
      7733 MEMB     64       PVCL2    CA1      CL       0.900000       12.0110           0   0.00000     -0.301140E-02
      7734 MEMB     64       PVCL2    OA1      OBL     -0.630000       15.9994           0   0.00000     -0.301140E-02
      7735 MEMB     64       PVCL2    CA2      CTL2    -0.220000       12.0110           0   0.00000     -0.301140E-02
      7736 MEMB     64       PVCL2    H2A      HAL2     0.900000E-01   1.00800           0   0.00000     -0.301140E-02
      7737 MEMB     64       PVCL2    H2B      HAL2     0.900000E-01   1.00800           0   0.00000     -0.301140E-02
      7738 MEMB     64       PVCL2    C13      CTL2     0.800000E-01   12.0110           0   0.00000     -0.301140E-02
      7739 MEMB     64       PVCL2    H13J     HAL2     0.900000E-01   1.00800           0   0.00000     -0.301140E-02
      7740 MEMB     64       PVCL2    H13K     HAL2     0.900000E-01   1.00800           0   0.00000     -0.301140E-02
      7741 MEMB     64       PVCL2    O13      OSL     -0.490000       15.9994           0   0.00000     -0.301140E-02
      7742 MEMB     64       PVCL2    CB1      CL       0.900000       12.0110           0   0.00000     -0.301140E-02
      7743 MEMB     64       PVCL2    OB1      OBL     -0.630000       15.9994           0   0.00000     -0.301140E-02
      7744 MEMB     64       PVCL2    CB2      CTL2    -0.220000       12.0110           0   0.00000     -0.301140E-02
      7745 MEMB     64       PVCL2    H2D      HAL2     0.900000E-01   1.00800           0   0.00000     -0.301140E-02
      7746 MEMB     64       PVCL2    H2E      HAL2     0.900000E-01   1.00800           0   0.00000     -0.301140E-02
      7747 MEMB     64       PVCL2    C32      CTL1     0.170000       12.0110           0   0.00000     -0.301140E-02
      7748 MEMB     64       PVCL2    H32J     HAL1     0.900000E-01   1.00800           0   0.00000     -0.301140E-02
      7749 MEMB     64       PVCL2    O32      OSL     -0.490000       15.9994           0   0.00000     -0.301140E-02
      7750 MEMB     64       PVCL2    CC1      CL       0.900000       12.0110           0   0.00000     -0.301140E-02
      7751 MEMB     64       PVCL2    OC1      OBL     -0.630000       15.9994           0   0.00000     -0.301140E-02
      7752 MEMB     64       PVCL2    CC2      CTL2    -0.220000       12.0110           0   0.00000     -0.301140E-02
      7753 MEMB     64       PVCL2    H2R      HAL2     0.900000E-01   1.00800           0   0.00000     -0.301140E-02
      7754 MEMB     64       PVCL2    H2S      HAL2     0.900000E-01   1.00800           0   0.00000     -0.301140E-02
      7755 MEMB     64       PVCL2    C33      CTL2     0.800000E-01   12.0110           0   0.00000     -0.301140E-02
      7756 MEMB     64       PVCL2    H33J     HAL2     0.900000E-01   1.00800           0   0.00000     -0.301140E-02
      7757 MEMB     64       PVCL2    H33K     HAL2     0.900000E-01   1.00800           0   0.00000     -0.301140E-02
      7758 MEMB     64       PVCL2    O33      OSL     -0.490000       15.9994           0   0.00000     -0.301140E-02
      7759 MEMB     64       PVCL2    CD1      CL       0.900000       12.0110           0   0.00000     -0.301140E-02
      7760 MEMB     64       PVCL2    OD1      OBL     -0.630000       15.9994           0   0.00000     -0.301140E-02
      7761 MEMB     64       PVCL2    CD2      CTL2    -0.220000       12.0110           0   0.00000     -0.301140E-02
      7762 MEMB     64       PVCL2    H2X      HAL2     0.900000E-01   1.00800           0   0.00000     -0.301140E-02
      7763 MEMB     64       PVCL2    H2Y      HAL2     0.900000E-01   1.00800           0   0.00000     -0.301140E-02
      7764 MEMB     64       PVCL2    CA3      CTL2    -0.180000       12.0110           0   0.00000     -0.301140E-02
      7765 MEMB     64       PVCL2    H3A      HAL2     0.900000E-01   1.00800           0   0.00000     -0.301140E-02
      7766 MEMB     64       PVCL2    H3B      HAL2     0.900000E-01   1.00800           0   0.00000     -0.301140E-02
      7767 MEMB     64       PVCL2    CA4      CTL2    -0.180000       12.0110           0   0.00000     -0.301140E-02
      7768 MEMB     64       PVCL2    H4A      HAL2     0.900000E-01   1.00800           0   0.00000     -0.301140E-02
      7769 MEMB     64       PVCL2    H4B      HAL2     0.900000E-01   1.00800           0   0.00000     -0.301140E-02
      7770 MEMB     64       PVCL2    CA5      CTL2    -0.180000       12.0110           0   0.00000     -0.301140E-02
      7771 MEMB     64       PVCL2    H5A      HAL2     0.900000E-01   1.00800           0   0.00000     -0.301140E-02
      7772 MEMB     64       PVCL2    H5B      HAL2     0.900000E-01   1.00800           0   0.00000     -0.301140E-02
      7773 MEMB     64       PVCL2    CA6      CTL2    -0.180000       12.0110           0   0.00000     -0.301140E-02
      7774 MEMB     64       PVCL2    H6A      HAL2     0.900000E-01   1.00800           0   0.00000     -0.301140E-02
      7775 MEMB     64       PVCL2    H6B      HAL2     0.900000E-01   1.00800           0   0.00000     -0.301140E-02
      7776 MEMB     64       PVCL2    CA7      CTL2    -0.180000       12.0110           0   0.00000     -0.301140E-02
      7777 MEMB     64       PVCL2    H7A      HAL2     0.900000E-01   1.00800           0   0.00000     -0.301140E-02
      7778 MEMB     64       PVCL2    H7B      HAL2     0.900000E-01   1.00800           0   0.00000     -0.301140E-02
      7779 MEMB     64       PVCL2    CA8      CTL2    -0.180000       12.0110           0   0.00000     -0.301140E-02
      7780 MEMB     64       PVCL2    H8A      HAL2     0.900000E-01   1.00800           0   0.00000     -0.301140E-02
      7781 MEMB     64       PVCL2    H8B      HAL2     0.900000E-01   1.00800           0   0.00000     -0.301140E-02
      7782 MEMB     64       PVCL2    CA9      CTL2    -0.180000       12.0110           0   0.00000     -0.301140E-02
      7783 MEMB     64       PVCL2    H9A      HAL2     0.900000E-01   1.00800           0   0.00000     -0.301140E-02
      7784 MEMB     64       PVCL2    H9B      HAL2     0.900000E-01   1.00800           0   0.00000     -0.301140E-02
      7785 MEMB     64       PVCL2    CA10     CTL2    -0.180000       12.0110           0   0.00000     -0.301140E-02
      7786 MEMB     64       PVCL2    H10A     HAL2     0.900000E-01   1.00800           0   0.00000     -0.301140E-02
      7787 MEMB     64       PVCL2    H10B     HAL2     0.900000E-01   1.00800           0   0.00000     -0.301140E-02
      7788 MEMB     64       PVCL2    CA11     CEL1    -0.150000       12.0110           0   0.00000     -0.301140E-02
      7789 MEMB     64       PVCL2    H11A     HEL1     0.150000       1.00800           0   0.00000     -0.301140E-02
      7790 MEMB     64       PVCL2    CA12     CEL1    -0.150000       12.0110           0   0.00000     -0.301140E-02
      7791 MEMB     64       PVCL2    H12A     HEL1     0.150000       1.00800           0   0.00000     -0.301140E-02
      7792 MEMB     64       PVCL2    CA13     CTL2    -0.180000       12.0110           0   0.00000     -0.301140E-02
      7793 MEMB     64       PVCL2    H13A     HAL2     0.900000E-01   1.00800           0   0.00000     -0.301140E-02
      7794 MEMB     64       PVCL2    H13B     HAL2     0.900000E-01   1.00800           0   0.00000     -0.301140E-02
      7795 MEMB     64       PVCL2    CA14     CTL2    -0.180000       12.0110           0   0.00000     -0.301140E-02
      7796 MEMB     64       PVCL2    H14A     HAL2     0.900000E-01   1.00800           0   0.00000     -0.301140E-02
      7797 MEMB     64       PVCL2    H14B     HAL2     0.900000E-01   1.00800           0   0.00000     -0.301140E-02
      7798 MEMB     64       PVCL2    CA15     CTL2    -0.180000       12.0110           0   0.00000     -0.301140E-02
      7799 MEMB     64       PVCL2    H15A     HAL2     0.900000E-01   1.00800           0   0.00000     -0.301140E-02
      7800 MEMB     64       PVCL2    H15B     HAL2     0.900000E-01   1.00800           0   0.00000     -0.301140E-02
      7801 MEMB     64       PVCL2    CA16     CTL2    -0.180000       12.0110           0   0.00000     -0.301140E-02
      7802 MEMB     64       PVCL2    H16A     HAL2     0.900000E-01   1.00800           0   0.00000     -0.301140E-02
      7803 MEMB     64       PVCL2    H16B     HAL2     0.900000E-01   1.00800           0   0.00000     -0.301140E-02
      7804 MEMB     64       PVCL2    CA17     CTL2    -0.180000       12.0110           0   0.00000     -0.301140E-02
      7805 MEMB     64       PVCL2    H17A     HAL2     0.900000E-01   1.00800           0   0.00000     -0.301140E-02
      7806 MEMB     64       PVCL2    H17B     HAL2     0.900000E-01   1.00800           0   0.00000     -0.301140E-02
      7807 MEMB     64       PVCL2    CA18     CTL3    -0.270000       12.0110           0   0.00000     -0.301140E-02
      7808 MEMB     64       PVCL2    H18A     HAL3     0.900000E-01   1.00800           0   0.00000     -0.301140E-02
      7809 MEMB     64       PVCL2    H18B     HAL3     0.900000E-01   1.00800           0   0.00000     -0.301140E-02
      7810 MEMB     64       PVCL2    H18C     HAL3     0.900000E-01   1.00800           0   0.00000     -0.301140E-02
      7811 MEMB     64       PVCL2    CB3      CTL2    -0.180000       12.0110           0   0.00000     -0.301140E-02
      7812 MEMB     64       PVCL2    H3D      HAL2     0.900000E-01   1.00800           0   0.00000     -0.301140E-02
      7813 MEMB     64       PVCL2    H3E      HAL2     0.900000E-01   1.00800           0   0.00000     -0.301140E-02
      7814 MEMB     64       PVCL2    CB4      CTL2    -0.180000       12.0110           0   0.00000     -0.301140E-02
      7815 MEMB     64       PVCL2    H4D      HAL2     0.900000E-01   1.00800           0   0.00000     -0.301140E-02
      7816 MEMB     64       PVCL2    H4E      HAL2     0.900000E-01   1.00800           0   0.00000     -0.301140E-02
      7817 MEMB     64       PVCL2    CB5      CTL2    -0.180000       12.0110           0   0.00000     -0.301140E-02
      7818 MEMB     64       PVCL2    H5D      HAL2     0.900000E-01   1.00800           0   0.00000     -0.301140E-02
      7819 MEMB     64       PVCL2    H5E      HAL2     0.900000E-01   1.00800           0   0.00000     -0.301140E-02
      7820 MEMB     64       PVCL2    CB6      CTL2    -0.180000       12.0110           0   0.00000     -0.301140E-02
      7821 MEMB     64       PVCL2    H6D      HAL2     0.900000E-01   1.00800           0   0.00000     -0.301140E-02
      7822 MEMB     64       PVCL2    H6E      HAL2     0.900000E-01   1.00800           0   0.00000     -0.301140E-02
      7823 MEMB     64       PVCL2    CB7      CTL2    -0.180000       12.0110           0   0.00000     -0.301140E-02
      7824 MEMB     64       PVCL2    H7D      HAL2     0.900000E-01   1.00800           0   0.00000     -0.301140E-02
      7825 MEMB     64       PVCL2    H7E      HAL2     0.900000E-01   1.00800           0   0.00000     -0.301140E-02
      7826 MEMB     64       PVCL2    CB8      CTL2    -0.180000       12.0110           0   0.00000     -0.301140E-02
      7827 MEMB     64       PVCL2    H8D      HAL2     0.900000E-01   1.00800           0   0.00000     -0.301140E-02
      7828 MEMB     64       PVCL2    H8E      HAL2     0.900000E-01   1.00800           0   0.00000     -0.301140E-02
      7829 MEMB     64       PVCL2    CB9      CTL2    -0.180000       12.0110           0   0.00000     -0.301140E-02
      7830 MEMB     64       PVCL2    H9D      HAL2     0.900000E-01   1.00800           0   0.00000     -0.301140E-02
      7831 MEMB     64       PVCL2    H9E      HAL2     0.900000E-01   1.00800           0   0.00000     -0.301140E-02
      7832 MEMB     64       PVCL2    CB10     CTL2    -0.180000       12.0110           0   0.00000     -0.301140E-02
      7833 MEMB     64       PVCL2    H10D     HAL2     0.900000E-01   1.00800           0   0.00000     -0.301140E-02
      7834 MEMB     64       PVCL2    H10E     HAL2     0.900000E-01   1.00800           0   0.00000     -0.301140E-02
      7835 MEMB     64       PVCL2    CB11     CTL2    -0.180000       12.0110           0   0.00000     -0.301140E-02
      7836 MEMB     64       PVCL2    H11D     HAL2     0.900000E-01   1.00800           0   0.00000     -0.301140E-02
      7837 MEMB     64       PVCL2    H11E     HAL2     0.900000E-01   1.00800           0   0.00000     -0.301140E-02
      7838 MEMB     64       PVCL2    CB12     CTL2    -0.180000       12.0110           0   0.00000     -0.301140E-02
      7839 MEMB     64       PVCL2    H12D     HAL2     0.900000E-01   1.00800           0   0.00000     -0.301140E-02
      7840 MEMB     64       PVCL2    H12E     HAL2     0.900000E-01   1.00800           0   0.00000     -0.301140E-02
      7841 MEMB     64       PVCL2    CB13     CTL2    -0.180000       12.0110           0   0.00000     -0.301140E-02
      7842 MEMB     64       PVCL2    H13D     HAL2     0.900000E-01   1.00800           0   0.00000     -0.301140E-02
      7843 MEMB     64       PVCL2    H13E     HAL2     0.900000E-01   1.00800           0   0.00000     -0.301140E-02
      7844 MEMB     64       PVCL2    CB14     CTL2    -0.180000       12.0110           0   0.00000     -0.301140E-02
      7845 MEMB     64       PVCL2    H14D     HAL2     0.900000E-01   1.00800           0   0.00000     -0.301140E-02
      7846 MEMB     64       PVCL2    H14E     HAL2     0.900000E-01   1.00800           0   0.00000     -0.301140E-02
      7847 MEMB     64       PVCL2    CB15     CTL2    -0.180000       12.0110           0   0.00000     -0.301140E-02
      7848 MEMB     64       PVCL2    H15D     HAL2     0.900000E-01   1.00800           0   0.00000     -0.301140E-02
      7849 MEMB     64       PVCL2    H15E     HAL2     0.900000E-01   1.00800           0   0.00000     -0.301140E-02
      7850 MEMB     64       PVCL2    CB16     CTL3    -0.270000       12.0110           0   0.00000     -0.301140E-02
      7851 MEMB     64       PVCL2    H16D     HAL3     0.900000E-01   1.00800           0   0.00000     -0.301140E-02
      7852 MEMB     64       PVCL2    H16E     HAL3     0.900000E-01   1.00800           0   0.00000     -0.301140E-02
      7853 MEMB     64       PVCL2    H16F     HAL3     0.900000E-01   1.00800           0   0.00000     -0.301140E-02
      7854 MEMB     64       PVCL2    CC3      CTL2    -0.180000       12.0110           0   0.00000     -0.301140E-02
      7855 MEMB     64       PVCL2    H3R      HAL2     0.900000E-01   1.00800           0   0.00000     -0.301140E-02
      7856 MEMB     64       PVCL2    H3S      HAL2     0.900000E-01   1.00800           0   0.00000     -0.301140E-02
      7857 MEMB     64       PVCL2    CC4      CTL2    -0.180000       12.0110           0   0.00000     -0.301140E-02
      7858 MEMB     64       PVCL2    H4R      HAL2     0.900000E-01   1.00800           0   0.00000     -0.301140E-02
      7859 MEMB     64       PVCL2    H4S      HAL2     0.900000E-01   1.00800           0   0.00000     -0.301140E-02
      7860 MEMB     64       PVCL2    CC5      CTL2    -0.180000       12.0110           0   0.00000     -0.301140E-02
      7861 MEMB     64       PVCL2    H5R      HAL2     0.900000E-01   1.00800           0   0.00000     -0.301140E-02
      7862 MEMB     64       PVCL2    H5S      HAL2     0.900000E-01   1.00800           0   0.00000     -0.301140E-02
      7863 MEMB     64       PVCL2    CC6      CTL2    -0.180000       12.0110           0   0.00000     -0.301140E-02
      7864 MEMB     64       PVCL2    H6R      HAL2     0.900000E-01   1.00800           0   0.00000     -0.301140E-02
      7865 MEMB     64       PVCL2    H6S      HAL2     0.900000E-01   1.00800           0   0.00000     -0.301140E-02
      7866 MEMB     64       PVCL2    CC7      CTL2    -0.180000       12.0110           0   0.00000     -0.301140E-02
      7867 MEMB     64       PVCL2    H7R      HAL2     0.900000E-01   1.00800           0   0.00000     -0.301140E-02
      7868 MEMB     64       PVCL2    H7S      HAL2     0.900000E-01   1.00800           0   0.00000     -0.301140E-02
      7869 MEMB     64       PVCL2    CC8      CTL2    -0.180000       12.0110           0   0.00000     -0.301140E-02
      7870 MEMB     64       PVCL2    H8R      HAL2     0.900000E-01   1.00800           0   0.00000     -0.301140E-02
      7871 MEMB     64       PVCL2    H8S      HAL2     0.900000E-01   1.00800           0   0.00000     -0.301140E-02
      7872 MEMB     64       PVCL2    CC9      CTL2    -0.180000       12.0110           0   0.00000     -0.301140E-02
      7873 MEMB     64       PVCL2    H9R      HAL2     0.900000E-01   1.00800           0   0.00000     -0.301140E-02
      7874 MEMB     64       PVCL2    H9S      HAL2     0.900000E-01   1.00800           0   0.00000     -0.301140E-02
      7875 MEMB     64       PVCL2    CC10     CTL2    -0.180000       12.0110           0   0.00000     -0.301140E-02
      7876 MEMB     64       PVCL2    H10R     HAL2     0.900000E-01   1.00800           0   0.00000     -0.301140E-02
      7877 MEMB     64       PVCL2    H10S     HAL2     0.900000E-01   1.00800           0   0.00000     -0.301140E-02
      7878 MEMB     64       PVCL2    CC11     CEL1    -0.150000       12.0110           0   0.00000     -0.301140E-02
      7879 MEMB     64       PVCL2    H11R     HEL1     0.150000       1.00800           0   0.00000     -0.301140E-02
      7880 MEMB     64       PVCL2    CC12     CEL1    -0.150000       12.0110           0   0.00000     -0.301140E-02
      7881 MEMB     64       PVCL2    H12R     HEL1     0.150000       1.00800           0   0.00000     -0.301140E-02
      7882 MEMB     64       PVCL2    CC13     CTL2    -0.180000       12.0110           0   0.00000     -0.301140E-02
      7883 MEMB     64       PVCL2    H13R     HAL2     0.900000E-01   1.00800           0   0.00000     -0.301140E-02
      7884 MEMB     64       PVCL2    H13S     HAL2     0.900000E-01   1.00800           0   0.00000     -0.301140E-02
      7885 MEMB     64       PVCL2    CC14     CTL2    -0.180000       12.0110           0   0.00000     -0.301140E-02
      7886 MEMB     64       PVCL2    H14R     HAL2     0.900000E-01   1.00800           0   0.00000     -0.301140E-02
      7887 MEMB     64       PVCL2    H14S     HAL2     0.900000E-01   1.00800           0   0.00000     -0.301140E-02
      7888 MEMB     64       PVCL2    CC15     CTL2    -0.180000       12.0110           0   0.00000     -0.301140E-02
      7889 MEMB     64       PVCL2    H15R     HAL2     0.900000E-01   1.00800           0   0.00000     -0.301140E-02
      7890 MEMB     64       PVCL2    H15S     HAL2     0.900000E-01   1.00800           0   0.00000     -0.301140E-02
      7891 MEMB     64       PVCL2    CC16     CTL2    -0.180000       12.0110           0   0.00000     -0.301140E-02
      7892 MEMB     64       PVCL2    H16R     HAL2     0.900000E-01   1.00800           0   0.00000     -0.301140E-02
      7893 MEMB     64       PVCL2    H16S     HAL2     0.900000E-01   1.00800           0   0.00000     -0.301140E-02
      7894 MEMB     64       PVCL2    CC17     CTL2    -0.180000       12.0110           0   0.00000     -0.301140E-02
      7895 MEMB     64       PVCL2    H17R     HAL2     0.900000E-01   1.00800           0   0.00000     -0.301140E-02
      7896 MEMB     64       PVCL2    H17S     HAL2     0.900000E-01   1.00800           0   0.00000     -0.301140E-02
      7897 MEMB     64       PVCL2    CC18     CTL3    -0.270000       12.0110           0   0.00000     -0.301140E-02
      7898 MEMB     64       PVCL2    H18R     HAL3     0.900000E-01   1.00800           0   0.00000     -0.301140E-02
      7899 MEMB     64       PVCL2    H18S     HAL3     0.900000E-01   1.00800           0   0.00000     -0.301140E-02
      7900 MEMB     64       PVCL2    H18T     HAL3     0.900000E-01   1.00800           0   0.00000     -0.301140E-02
      7901 MEMB     64       PVCL2    CD3      CTL2    -0.180000       12.0110           0   0.00000     -0.301140E-02
      7902 MEMB     64       PVCL2    H3X      HAL2     0.900000E-01   1.00800           0   0.00000     -0.301140E-02
      7903 MEMB     64       PVCL2    H3Y      HAL2     0.900000E-01   1.00800           0   0.00000     -0.301140E-02
      7904 MEMB     64       PVCL2    CD4      CTL2    -0.180000       12.0110           0   0.00000     -0.301140E-02
      7905 MEMB     64       PVCL2    H4X      HAL2     0.900000E-01   1.00800           0   0.00000     -0.301140E-02
      7906 MEMB     64       PVCL2    H4Y      HAL2     0.900000E-01   1.00800           0   0.00000     -0.301140E-02
      7907 MEMB     64       PVCL2    CD5      CTL2    -0.180000       12.0110           0   0.00000     -0.301140E-02
      7908 MEMB     64       PVCL2    H5X      HAL2     0.900000E-01   1.00800           0   0.00000     -0.301140E-02
      7909 MEMB     64       PVCL2    H5Y      HAL2     0.900000E-01   1.00800           0   0.00000     -0.301140E-02
      7910 MEMB     64       PVCL2    CD6      CTL2    -0.180000       12.0110           0   0.00000     -0.301140E-02
      7911 MEMB     64       PVCL2    H6X      HAL2     0.900000E-01   1.00800           0   0.00000     -0.301140E-02
      7912 MEMB     64       PVCL2    H6Y      HAL2     0.900000E-01   1.00800           0   0.00000     -0.301140E-02
      7913 MEMB     64       PVCL2    CD7      CTL2    -0.180000       12.0110           0   0.00000     -0.301140E-02
      7914 MEMB     64       PVCL2    H7X      HAL2     0.900000E-01   1.00800           0   0.00000     -0.301140E-02
      7915 MEMB     64       PVCL2    H7Y      HAL2     0.900000E-01   1.00800           0   0.00000     -0.301140E-02
      7916 MEMB     64       PVCL2    CD8      CTL2    -0.180000       12.0110           0   0.00000     -0.301140E-02
      7917 MEMB     64       PVCL2    H8X      HAL2     0.900000E-01   1.00800           0   0.00000     -0.301140E-02
      7918 MEMB     64       PVCL2    H8Y      HAL2     0.900000E-01   1.00800           0   0.00000     -0.301140E-02
      7919 MEMB     64       PVCL2    CD9      CTL2    -0.180000       12.0110           0   0.00000     -0.301140E-02
      7920 MEMB     64       PVCL2    H9X      HAL2     0.900000E-01   1.00800           0   0.00000     -0.301140E-02
      7921 MEMB     64       PVCL2    H9Y      HAL2     0.900000E-01   1.00800           0   0.00000     -0.301140E-02
      7922 MEMB     64       PVCL2    CD10     CTL2    -0.180000       12.0110           0   0.00000     -0.301140E-02
      7923 MEMB     64       PVCL2    H10X     HAL2     0.900000E-01   1.00800           0   0.00000     -0.301140E-02
      7924 MEMB     64       PVCL2    H10Y     HAL2     0.900000E-01   1.00800           0   0.00000     -0.301140E-02
      7925 MEMB     64       PVCL2    CD11     CTL2    -0.180000       12.0110           0   0.00000     -0.301140E-02
      7926 MEMB     64       PVCL2    H11X     HAL2     0.900000E-01   1.00800           0   0.00000     -0.301140E-02
      7927 MEMB     64       PVCL2    H11Y     HAL2     0.900000E-01   1.00800           0   0.00000     -0.301140E-02
      7928 MEMB     64       PVCL2    CD12     CTL2    -0.180000       12.0110           0   0.00000     -0.301140E-02
      7929 MEMB     64       PVCL2    H12X     HAL2     0.900000E-01   1.00800           0   0.00000     -0.301140E-02
      7930 MEMB     64       PVCL2    H12Y     HAL2     0.900000E-01   1.00800           0   0.00000     -0.301140E-02
      7931 MEMB     64       PVCL2    CD13     CTL2    -0.180000       12.0110           0   0.00000     -0.301140E-02
      7932 MEMB     64       PVCL2    H13X     HAL2     0.900000E-01   1.00800           0   0.00000     -0.301140E-02
      7933 MEMB     64       PVCL2    H13Y     HAL2     0.900000E-01   1.00800           0   0.00000     -0.301140E-02
      7934 MEMB     64       PVCL2    CD14     CTL2    -0.180000       12.0110           0   0.00000     -0.301140E-02
      7935 MEMB     64       PVCL2    H14X     HAL2     0.900000E-01   1.00800           0   0.00000     -0.301140E-02
      7936 MEMB     64       PVCL2    H14Y     HAL2     0.900000E-01   1.00800           0   0.00000     -0.301140E-02
      7937 MEMB     64       PVCL2    CD15     CTL2    -0.180000       12.0110           0   0.00000     -0.301140E-02
      7938 MEMB     64       PVCL2    H15X     HAL2     0.900000E-01   1.00800           0   0.00000     -0.301140E-02
      7939 MEMB     64       PVCL2    H15Y     HAL2     0.900000E-01   1.00800           0   0.00000     -0.301140E-02
      7940 MEMB     64       PVCL2    CD16     CTL3    -0.270000       12.0110           0   0.00000     -0.301140E-02
      7941 MEMB     64       PVCL2    H16X     HAL3     0.900000E-01   1.00800           0   0.00000     -0.301140E-02
      7942 MEMB     64       PVCL2    H16Y     HAL3     0.900000E-01   1.00800           0   0.00000     -0.301140E-02
      7943 MEMB     64       PVCL2    H16Z     HAL3     0.900000E-01   1.00800           0   0.00000     -0.301140E-02
      7944 MEMB     65       POPE     N        NH3L    -0.300000       14.0070           0   0.00000     -0.301140E-02
      7945 MEMB     65       POPE     HN1      HCL      0.330000       1.00800           0   0.00000     -0.301140E-02
      7946 MEMB     65       POPE     HN2      HCL      0.330000       1.00800           0   0.00000     -0.301140E-02
      7947 MEMB     65       POPE     HN3      HCL      0.330000       1.00800           0   0.00000     -0.301140E-02
      7948 MEMB     65       POPE     C12      CTL2     0.130000       12.0110           0   0.00000     -0.301140E-02
      7949 MEMB     65       POPE     H12A     HAL2     0.900000E-01   1.00800           0   0.00000     -0.301140E-02
      7950 MEMB     65       POPE     H12B     HAL2     0.900000E-01   1.00800           0   0.00000     -0.301140E-02
      7951 MEMB     65       POPE     C11      CTL2    -0.800000E-01   12.0110           0   0.00000     -0.301140E-02
      7952 MEMB     65       POPE     H11A     HAL2     0.900000E-01   1.00800           0   0.00000     -0.301140E-02
      7953 MEMB     65       POPE     H11B     HAL2     0.900000E-01   1.00800           0   0.00000     -0.301140E-02
      7954 MEMB     65       POPE     P        PL        1.50000       30.9740           0   0.00000     -0.301140E-02
      7955 MEMB     65       POPE     O13      O2L     -0.780000       15.9994           0   0.00000     -0.301140E-02
      7956 MEMB     65       POPE     O14      O2L     -0.780000       15.9994           0   0.00000     -0.301140E-02
      7957 MEMB     65       POPE     O11      OSLP    -0.570000       15.9994           0   0.00000     -0.301140E-02
      7958 MEMB     65       POPE     O12      OSLP    -0.570000       15.9994           0   0.00000     -0.301140E-02
      7959 MEMB     65       POPE     C1       CTL2    -0.800000E-01   12.0110           0   0.00000     -0.301140E-02
      7960 MEMB     65       POPE     HA       HAL2     0.900000E-01   1.00800           0   0.00000     -0.301140E-02
      7961 MEMB     65       POPE     HB       HAL2     0.900000E-01   1.00800           0   0.00000     -0.301140E-02
      7962 MEMB     65       POPE     C2       CTL1     0.170000       12.0110           0   0.00000     -0.301140E-02
      7963 MEMB     65       POPE     HS       HAL1     0.900000E-01   1.00800           0   0.00000     -0.301140E-02
      7964 MEMB     65       POPE     O21      OSL     -0.490000       15.9994           0   0.00000     -0.301140E-02
      7965 MEMB     65       POPE     C21      CL       0.900000       12.0110           0   0.00000     -0.301140E-02
      7966 MEMB     65       POPE     O22      OBL     -0.630000       15.9994           0   0.00000     -0.301140E-02
      7967 MEMB     65       POPE     C22      CTL2    -0.220000       12.0110           0   0.00000     -0.301140E-02
      7968 MEMB     65       POPE     H2R      HAL2     0.900000E-01   1.00800           0   0.00000     -0.301140E-02
      7969 MEMB     65       POPE     H2S      HAL2     0.900000E-01   1.00800           0   0.00000     -0.301140E-02
      7970 MEMB     65       POPE     C3       CTL2     0.800000E-01   12.0110           0   0.00000     -0.301140E-02
      7971 MEMB     65       POPE     HX       HAL2     0.900000E-01   1.00800           0   0.00000     -0.301140E-02
      7972 MEMB     65       POPE     HY       HAL2     0.900000E-01   1.00800           0   0.00000     -0.301140E-02
      7973 MEMB     65       POPE     O31      OSL     -0.490000       15.9994           0   0.00000     -0.301140E-02
      7974 MEMB     65       POPE     C31      CL       0.900000       12.0110           0   0.00000     -0.301140E-02
      7975 MEMB     65       POPE     O32      OBL     -0.630000       15.9994           0   0.00000     -0.301140E-02
      7976 MEMB     65       POPE     C32      CTL2    -0.220000       12.0110           0   0.00000     -0.301140E-02
      7977 MEMB     65       POPE     H2X      HAL2     0.900000E-01   1.00800           0   0.00000     -0.301140E-02
      7978 MEMB     65       POPE     H2Y      HAL2     0.900000E-01   1.00800           0   0.00000     -0.301140E-02
      7979 MEMB     65       POPE     C23      CTL2    -0.180000       12.0110           0   0.00000     -0.301140E-02
      7980 MEMB     65       POPE     H3R      HAL2     0.900000E-01   1.00800           0   0.00000     -0.301140E-02
      7981 MEMB     65       POPE     H3S      HAL2     0.900000E-01   1.00800           0   0.00000     -0.301140E-02
      7982 MEMB     65       POPE     C24      CTL2    -0.180000       12.0110           0   0.00000     -0.301140E-02
      7983 MEMB     65       POPE     H4R      HAL2     0.900000E-01   1.00800           0   0.00000     -0.301140E-02
      7984 MEMB     65       POPE     H4S      HAL2     0.900000E-01   1.00800           0   0.00000     -0.301140E-02
      7985 MEMB     65       POPE     C25      CTL2    -0.180000       12.0110           0   0.00000     -0.301140E-02
      7986 MEMB     65       POPE     H5R      HAL2     0.900000E-01   1.00800           0   0.00000     -0.301140E-02
      7987 MEMB     65       POPE     H5S      HAL2     0.900000E-01   1.00800           0   0.00000     -0.301140E-02
      7988 MEMB     65       POPE     C26      CTL2    -0.180000       12.0110           0   0.00000     -0.301140E-02
      7989 MEMB     65       POPE     H6R      HAL2     0.900000E-01   1.00800           0   0.00000     -0.301140E-02
      7990 MEMB     65       POPE     H6S      HAL2     0.900000E-01   1.00800           0   0.00000     -0.301140E-02
      7991 MEMB     65       POPE     C27      CTL2    -0.180000       12.0110           0   0.00000     -0.301140E-02
      7992 MEMB     65       POPE     H7R      HAL2     0.900000E-01   1.00800           0   0.00000     -0.301140E-02
      7993 MEMB     65       POPE     H7S      HAL2     0.900000E-01   1.00800           0   0.00000     -0.301140E-02
      7994 MEMB     65       POPE     C28      CTL2    -0.180000       12.0110           0   0.00000     -0.301140E-02
      7995 MEMB     65       POPE     H8R      HAL2     0.900000E-01   1.00800           0   0.00000     -0.301140E-02
      7996 MEMB     65       POPE     H8S      HAL2     0.900000E-01   1.00800           0   0.00000     -0.301140E-02
      7997 MEMB     65       POPE     C29      CEL1    -0.150000       12.0110           0   0.00000     -0.301140E-02
      7998 MEMB     65       POPE     H91      HEL1     0.150000       1.00800           0   0.00000     -0.301140E-02
      7999 MEMB     65       POPE     C210     CEL1    -0.150000       12.0110           0   0.00000     -0.301140E-02
      8000 MEMB     65       POPE     H101     HEL1     0.150000       1.00800           0   0.00000     -0.301140E-02
      8001 MEMB     65       POPE     C211     CTL2    -0.180000       12.0110           0   0.00000     -0.301140E-02
      8002 MEMB     65       POPE     H11R     HAL2     0.900000E-01   1.00800           0   0.00000     -0.301140E-02
      8003 MEMB     65       POPE     H11S     HAL2     0.900000E-01   1.00800           0   0.00000     -0.301140E-02
      8004 MEMB     65       POPE     C212     CTL2    -0.180000       12.0110           0   0.00000     -0.301140E-02
      8005 MEMB     65       POPE     H12R     HAL2     0.900000E-01   1.00800           0   0.00000     -0.301140E-02
      8006 MEMB     65       POPE     H12S     HAL2     0.900000E-01   1.00800           0   0.00000     -0.301140E-02
      8007 MEMB     65       POPE     C213     CTL2    -0.180000       12.0110           0   0.00000     -0.301140E-02
      8008 MEMB     65       POPE     H13R     HAL2     0.900000E-01   1.00800           0   0.00000     -0.301140E-02
      8009 MEMB     65       POPE     H13S     HAL2     0.900000E-01   1.00800           0   0.00000     -0.301140E-02
      8010 MEMB     65       POPE     C214     CTL2    -0.180000       12.0110           0   0.00000     -0.301140E-02
      8011 MEMB     65       POPE     H14R     HAL2     0.900000E-01   1.00800           0   0.00000     -0.301140E-02
      8012 MEMB     65       POPE     H14S     HAL2     0.900000E-01   1.00800           0   0.00000     -0.301140E-02
      8013 MEMB     65       POPE     C215     CTL2    -0.180000       12.0110           0   0.00000     -0.301140E-02
      8014 MEMB     65       POPE     H15R     HAL2     0.900000E-01   1.00800           0   0.00000     -0.301140E-02
      8015 MEMB     65       POPE     H15S     HAL2     0.900000E-01   1.00800           0   0.00000     -0.301140E-02
      8016 MEMB     65       POPE     C216     CTL2    -0.180000       12.0110           0   0.00000     -0.301140E-02
      8017 MEMB     65       POPE     H16R     HAL2     0.900000E-01   1.00800           0   0.00000     -0.301140E-02
      8018 MEMB     65       POPE     H16S     HAL2     0.900000E-01   1.00800           0   0.00000     -0.301140E-02
      8019 MEMB     65       POPE     C217     CTL2    -0.180000       12.0110           0   0.00000     -0.301140E-02
      8020 MEMB     65       POPE     H17R     HAL2     0.900000E-01   1.00800           0   0.00000     -0.301140E-02
      8021 MEMB     65       POPE     H17S     HAL2     0.900000E-01   1.00800           0   0.00000     -0.301140E-02
      8022 MEMB     65       POPE     C218     CTL3    -0.270000       12.0110           0   0.00000     -0.301140E-02
      8023 MEMB     65       POPE     H18R     HAL3     0.900000E-01   1.00800           0   0.00000     -0.301140E-02
      8024 MEMB     65       POPE     H18S     HAL3     0.900000E-01   1.00800           0   0.00000     -0.301140E-02
      8025 MEMB     65       POPE     H18T     HAL3     0.900000E-01   1.00800           0   0.00000     -0.301140E-02
      8026 MEMB     65       POPE     C33      CTL2    -0.180000       12.0110           0   0.00000     -0.301140E-02
      8027 MEMB     65       POPE     H3X      HAL2     0.900000E-01   1.00800           0   0.00000     -0.301140E-02
      8028 MEMB     65       POPE     H3Y      HAL2     0.900000E-01   1.00800           0   0.00000     -0.301140E-02
      8029 MEMB     65       POPE     C34      CTL2    -0.180000       12.0110           0   0.00000     -0.301140E-02
      8030 MEMB     65       POPE     H4X      HAL2     0.900000E-01   1.00800           0   0.00000     -0.301140E-02
      8031 MEMB     65       POPE     H4Y      HAL2     0.900000E-01   1.00800           0   0.00000     -0.301140E-02
      8032 MEMB     65       POPE     C35      CTL2    -0.180000       12.0110           0   0.00000     -0.301140E-02
      8033 MEMB     65       POPE     H5X      HAL2     0.900000E-01   1.00800           0   0.00000     -0.301140E-02
      8034 MEMB     65       POPE     H5Y      HAL2     0.900000E-01   1.00800           0   0.00000     -0.301140E-02
      8035 MEMB     65       POPE     C36      CTL2    -0.180000       12.0110           0   0.00000     -0.301140E-02
      8036 MEMB     65       POPE     H6X      HAL2     0.900000E-01   1.00800           0   0.00000     -0.301140E-02
      8037 MEMB     65       POPE     H6Y      HAL2     0.900000E-01   1.00800           0   0.00000     -0.301140E-02
      8038 MEMB     65       POPE     C37      CTL2    -0.180000       12.0110           0   0.00000     -0.301140E-02
      8039 MEMB     65       POPE     H7X      HAL2     0.900000E-01   1.00800           0   0.00000     -0.301140E-02
      8040 MEMB     65       POPE     H7Y      HAL2     0.900000E-01   1.00800           0   0.00000     -0.301140E-02
      8041 MEMB     65       POPE     C38      CTL2    -0.180000       12.0110           0   0.00000     -0.301140E-02
      8042 MEMB     65       POPE     H8X      HAL2     0.900000E-01   1.00800           0   0.00000     -0.301140E-02
      8043 MEMB     65       POPE     H8Y      HAL2     0.900000E-01   1.00800           0   0.00000     -0.301140E-02
      8044 MEMB     65       POPE     C39      CTL2    -0.180000       12.0110           0   0.00000     -0.301140E-02
      8045 MEMB     65       POPE     H9X      HAL2     0.900000E-01   1.00800           0   0.00000     -0.301140E-02
      8046 MEMB     65       POPE     H9Y      HAL2     0.900000E-01   1.00800           0   0.00000     -0.301140E-02
      8047 MEMB     65       POPE     C310     CTL2    -0.180000       12.0110           0   0.00000     -0.301140E-02
      8048 MEMB     65       POPE     H10X     HAL2     0.900000E-01   1.00800           0   0.00000     -0.301140E-02
      8049 MEMB     65       POPE     H10Y     HAL2     0.900000E-01   1.00800           0   0.00000     -0.301140E-02
      8050 MEMB     65       POPE     C311     CTL2    -0.180000       12.0110           0   0.00000     -0.301140E-02
      8051 MEMB     65       POPE     H11X     HAL2     0.900000E-01   1.00800           0   0.00000     -0.301140E-02
      8052 MEMB     65       POPE     H11Y     HAL2     0.900000E-01   1.00800           0   0.00000     -0.301140E-02
      8053 MEMB     65       POPE     C312     CTL2    -0.180000       12.0110           0   0.00000     -0.301140E-02
      8054 MEMB     65       POPE     H12X     HAL2     0.900000E-01   1.00800           0   0.00000     -0.301140E-02
      8055 MEMB     65       POPE     H12Y     HAL2     0.900000E-01   1.00800           0   0.00000     -0.301140E-02
      8056 MEMB     65       POPE     C313     CTL2    -0.180000       12.0110           0   0.00000     -0.301140E-02
      8057 MEMB     65       POPE     H13X     HAL2     0.900000E-01   1.00800           0   0.00000     -0.301140E-02
      8058 MEMB     65       POPE     H13Y     HAL2     0.900000E-01   1.00800           0   0.00000     -0.301140E-02
      8059 MEMB     65       POPE     C314     CTL2    -0.180000       12.0110           0   0.00000     -0.301140E-02
      8060 MEMB     65       POPE     H14X     HAL2     0.900000E-01   1.00800           0   0.00000     -0.301140E-02
      8061 MEMB     65       POPE     H14Y     HAL2     0.900000E-01   1.00800           0   0.00000     -0.301140E-02
      8062 MEMB     65       POPE     C315     CTL2    -0.180000       12.0110           0   0.00000     -0.301140E-02
      8063 MEMB     65       POPE     H15X     HAL2     0.900000E-01   1.00800           0   0.00000     -0.301140E-02
      8064 MEMB     65       POPE     H15Y     HAL2     0.900000E-01   1.00800           0   0.00000     -0.301140E-02
      8065 MEMB     65       POPE     C316     CTL3    -0.270000       12.0110           0   0.00000     -0.301140E-02
      8066 MEMB     65       POPE     H16X     HAL3     0.900000E-01   1.00800           0   0.00000     -0.301140E-02
      8067 MEMB     65       POPE     H16Y     HAL3     0.900000E-01   1.00800           0   0.00000     -0.301140E-02
      8068 MEMB     65       POPE     H16Z     HAL3     0.900000E-01   1.00800           0   0.00000     -0.301140E-02
      8069 MEMB     66       OYPE     N        NH3L    -0.300000       14.0070           0   0.00000     -0.301140E-02
      8070 MEMB     66       OYPE     HN1      HCL      0.330000       1.00800           0   0.00000     -0.301140E-02
      8071 MEMB     66       OYPE     HN2      HCL      0.330000       1.00800           0   0.00000     -0.301140E-02
      8072 MEMB     66       OYPE     HN3      HCL      0.330000       1.00800           0   0.00000     -0.301140E-02
      8073 MEMB     66       OYPE     C12      CTL2     0.130000       12.0110           0   0.00000     -0.301140E-02
      8074 MEMB     66       OYPE     H12A     HAL2     0.900000E-01   1.00800           0   0.00000     -0.301140E-02
      8075 MEMB     66       OYPE     H12B     HAL2     0.900000E-01   1.00800           0   0.00000     -0.301140E-02
      8076 MEMB     66       OYPE     C11      CTL2    -0.800000E-01   12.0110           0   0.00000     -0.301140E-02
      8077 MEMB     66       OYPE     H11A     HAL2     0.900000E-01   1.00800           0   0.00000     -0.301140E-02
      8078 MEMB     66       OYPE     H11B     HAL2     0.900000E-01   1.00800           0   0.00000     -0.301140E-02
      8079 MEMB     66       OYPE     P        PL        1.50000       30.9740           0   0.00000     -0.301140E-02
      8080 MEMB     66       OYPE     O13      O2L     -0.780000       15.9994           0   0.00000     -0.301140E-02
      8081 MEMB     66       OYPE     O14      O2L     -0.780000       15.9994           0   0.00000     -0.301140E-02
      8082 MEMB     66       OYPE     O11      OSLP    -0.570000       15.9994           0   0.00000     -0.301140E-02
      8083 MEMB     66       OYPE     O12      OSLP    -0.570000       15.9994           0   0.00000     -0.301140E-02
      8084 MEMB     66       OYPE     C1       CTL2    -0.800000E-01   12.0110           0   0.00000     -0.301140E-02
      8085 MEMB     66       OYPE     HA       HAL2     0.900000E-01   1.00800           0   0.00000     -0.301140E-02
      8086 MEMB     66       OYPE     HB       HAL2     0.900000E-01   1.00800           0   0.00000     -0.301140E-02
      8087 MEMB     66       OYPE     C2       CTL1     0.170000       12.0110           0   0.00000     -0.301140E-02
      8088 MEMB     66       OYPE     HS       HAL1     0.900000E-01   1.00800           0   0.00000     -0.301140E-02
      8089 MEMB     66       OYPE     O21      OSL     -0.490000       15.9994           0   0.00000     -0.301140E-02
      8090 MEMB     66       OYPE     C21      CL       0.900000       12.0110           0   0.00000     -0.301140E-02
      8091 MEMB     66       OYPE     O22      OBL     -0.630000       15.9994           0   0.00000     -0.301140E-02
      8092 MEMB     66       OYPE     C22      CTL2    -0.220000       12.0110           0   0.00000     -0.301140E-02
      8093 MEMB     66       OYPE     H2R      HAL2     0.900000E-01   1.00800           0   0.00000     -0.301140E-02
      8094 MEMB     66       OYPE     H2S      HAL2     0.900000E-01   1.00800           0   0.00000     -0.301140E-02
      8095 MEMB     66       OYPE     C3       CTL2     0.800000E-01   12.0110           0   0.00000     -0.301140E-02
      8096 MEMB     66       OYPE     HX       HAL2     0.900000E-01   1.00800           0   0.00000     -0.301140E-02
      8097 MEMB     66       OYPE     HY       HAL2     0.900000E-01   1.00800           0   0.00000     -0.301140E-02
      8098 MEMB     66       OYPE     O31      OSL     -0.490000       15.9994           0   0.00000     -0.301140E-02
      8099 MEMB     66       OYPE     C31      CL       0.900000       12.0110           0   0.00000     -0.301140E-02
      8100 MEMB     66       OYPE     O32      OBL     -0.630000       15.9994           0   0.00000     -0.301140E-02
      8101 MEMB     66       OYPE     C32      CTL2    -0.220000       12.0110           0   0.00000     -0.301140E-02
      8102 MEMB     66       OYPE     H2X      HAL2     0.900000E-01   1.00800           0   0.00000     -0.301140E-02
      8103 MEMB     66       OYPE     H2Y      HAL2     0.900000E-01   1.00800           0   0.00000     -0.301140E-02
      8104 MEMB     66       OYPE     C23      CTL2    -0.180000       12.0110           0   0.00000     -0.301140E-02
      8105 MEMB     66       OYPE     H3R      HAL2     0.900000E-01   1.00800           0   0.00000     -0.301140E-02
      8106 MEMB     66       OYPE     H3S      HAL2     0.900000E-01   1.00800           0   0.00000     -0.301140E-02
      8107 MEMB     66       OYPE     C24      CTL2    -0.180000       12.0110           0   0.00000     -0.301140E-02
      8108 MEMB     66       OYPE     H4R      HAL2     0.900000E-01   1.00800           0   0.00000     -0.301140E-02
      8109 MEMB     66       OYPE     H4S      HAL2     0.900000E-01   1.00800           0   0.00000     -0.301140E-02
      8110 MEMB     66       OYPE     C25      CTL2    -0.180000       12.0110           0   0.00000     -0.301140E-02
      8111 MEMB     66       OYPE     H5R      HAL2     0.900000E-01   1.00800           0   0.00000     -0.301140E-02
      8112 MEMB     66       OYPE     H5S      HAL2     0.900000E-01   1.00800           0   0.00000     -0.301140E-02
      8113 MEMB     66       OYPE     C26      CTL2    -0.180000       12.0110           0   0.00000     -0.301140E-02
      8114 MEMB     66       OYPE     H6R      HAL2     0.900000E-01   1.00800           0   0.00000     -0.301140E-02
      8115 MEMB     66       OYPE     H6S      HAL2     0.900000E-01   1.00800           0   0.00000     -0.301140E-02
      8116 MEMB     66       OYPE     C27      CTL2    -0.180000       12.0110           0   0.00000     -0.301140E-02
      8117 MEMB     66       OYPE     H7R      HAL2     0.900000E-01   1.00800           0   0.00000     -0.301140E-02
      8118 MEMB     66       OYPE     H7S      HAL2     0.900000E-01   1.00800           0   0.00000     -0.301140E-02
      8119 MEMB     66       OYPE     C28      CTL2    -0.180000       12.0110           0   0.00000     -0.301140E-02
      8120 MEMB     66       OYPE     H8R      HAL2     0.900000E-01   1.00800           0   0.00000     -0.301140E-02
      8121 MEMB     66       OYPE     H8S      HAL2     0.900000E-01   1.00800           0   0.00000     -0.301140E-02
      8122 MEMB     66       OYPE     C29      CEL1    -0.150000       12.0110           0   0.00000     -0.301140E-02
      8123 MEMB     66       OYPE     H9R      HEL1     0.150000       1.00800           0   0.00000     -0.301140E-02
      8124 MEMB     66       OYPE     C210     CEL1    -0.150000       12.0110           0   0.00000     -0.301140E-02
      8125 MEMB     66       OYPE     H10R     HEL1     0.150000       1.00800           0   0.00000     -0.301140E-02
      8126 MEMB     66       OYPE     C211     CTL2    -0.180000       12.0110           0   0.00000     -0.301140E-02
      8127 MEMB     66       OYPE     H11R     HAL2     0.900000E-01   1.00800           0   0.00000     -0.301140E-02
      8128 MEMB     66       OYPE     H11S     HAL2     0.900000E-01   1.00800           0   0.00000     -0.301140E-02
      8129 MEMB     66       OYPE     C212     CTL2    -0.180000       12.0110           0   0.00000     -0.301140E-02
      8130 MEMB     66       OYPE     H12R     HAL2     0.900000E-01   1.00800           0   0.00000     -0.301140E-02
      8131 MEMB     66       OYPE     H12S     HAL2     0.900000E-01   1.00800           0   0.00000     -0.301140E-02
      8132 MEMB     66       OYPE     C213     CTL2    -0.180000       12.0110           0   0.00000     -0.301140E-02
      8133 MEMB     66       OYPE     H13R     HAL2     0.900000E-01   1.00800           0   0.00000     -0.301140E-02
      8134 MEMB     66       OYPE     H13S     HAL2     0.900000E-01   1.00800           0   0.00000     -0.301140E-02
      8135 MEMB     66       OYPE     C214     CTL2    -0.180000       12.0110           0   0.00000     -0.301140E-02
      8136 MEMB     66       OYPE     H14R     HAL2     0.900000E-01   1.00800           0   0.00000     -0.301140E-02
      8137 MEMB     66       OYPE     H14S     HAL2     0.900000E-01   1.00800           0   0.00000     -0.301140E-02
      8138 MEMB     66       OYPE     C215     CTL2    -0.180000       12.0110           0   0.00000     -0.301140E-02
      8139 MEMB     66       OYPE     H15R     HAL2     0.900000E-01   1.00800           0   0.00000     -0.301140E-02
      8140 MEMB     66       OYPE     H15S     HAL2     0.900000E-01   1.00800           0   0.00000     -0.301140E-02
      8141 MEMB     66       OYPE     C216     CTL3    -0.270000       12.0110           0   0.00000     -0.301140E-02
      8142 MEMB     66       OYPE     H16R     HAL3     0.900000E-01   1.00800           0   0.00000     -0.301140E-02
      8143 MEMB     66       OYPE     H16S     HAL3     0.900000E-01   1.00800           0   0.00000     -0.301140E-02
      8144 MEMB     66       OYPE     H16T     HAL3     0.900000E-01   1.00800           0   0.00000     -0.301140E-02
      8145 MEMB     66       OYPE     C33      CTL2    -0.180000       12.0110           0   0.00000     -0.301140E-02
      8146 MEMB     66       OYPE     H3X      HAL2     0.900000E-01   1.00800           0   0.00000     -0.301140E-02
      8147 MEMB     66       OYPE     H3Y      HAL2     0.900000E-01   1.00800           0   0.00000     -0.301140E-02
      8148 MEMB     66       OYPE     C34      CTL2    -0.180000       12.0110           0   0.00000     -0.301140E-02
      8149 MEMB     66       OYPE     H4X      HAL2     0.900000E-01   1.00800           0   0.00000     -0.301140E-02
      8150 MEMB     66       OYPE     H4Y      HAL2     0.900000E-01   1.00800           0   0.00000     -0.301140E-02
      8151 MEMB     66       OYPE     C35      CTL2    -0.180000       12.0110           0   0.00000     -0.301140E-02
      8152 MEMB     66       OYPE     H5X      HAL2     0.900000E-01   1.00800           0   0.00000     -0.301140E-02
      8153 MEMB     66       OYPE     H5Y      HAL2     0.900000E-01   1.00800           0   0.00000     -0.301140E-02
      8154 MEMB     66       OYPE     C36      CTL2    -0.180000       12.0110           0   0.00000     -0.301140E-02
      8155 MEMB     66       OYPE     H6X      HAL2     0.900000E-01   1.00800           0   0.00000     -0.301140E-02
      8156 MEMB     66       OYPE     H6Y      HAL2     0.900000E-01   1.00800           0   0.00000     -0.301140E-02
      8157 MEMB     66       OYPE     C37      CTL2    -0.180000       12.0110           0   0.00000     -0.301140E-02
      8158 MEMB     66       OYPE     H7X      HAL2     0.900000E-01   1.00800           0   0.00000     -0.301140E-02
      8159 MEMB     66       OYPE     H7Y      HAL2     0.900000E-01   1.00800           0   0.00000     -0.301140E-02
      8160 MEMB     66       OYPE     C38      CTL2    -0.180000       12.0110           0   0.00000     -0.301140E-02
      8161 MEMB     66       OYPE     H8X      HAL2     0.900000E-01   1.00800           0   0.00000     -0.301140E-02
      8162 MEMB     66       OYPE     H8Y      HAL2     0.900000E-01   1.00800           0   0.00000     -0.301140E-02
      8163 MEMB     66       OYPE     C39      CEL1    -0.150000       12.0110           0   0.00000     -0.301140E-02
      8164 MEMB     66       OYPE     H9X      HEL1     0.150000       1.00800           0   0.00000     -0.301140E-02
      8165 MEMB     66       OYPE     C310     CEL1    -0.150000       12.0110           0   0.00000     -0.301140E-02
      8166 MEMB     66       OYPE     H10X     HEL1     0.150000       1.00800           0   0.00000     -0.301140E-02
      8167 MEMB     66       OYPE     C311     CTL2    -0.180000       12.0110           0   0.00000     -0.301140E-02
      8168 MEMB     66       OYPE     H11X     HAL2     0.900000E-01   1.00800           0   0.00000     -0.301140E-02
      8169 MEMB     66       OYPE     H11Y     HAL2     0.900000E-01   1.00800           0   0.00000     -0.301140E-02
      8170 MEMB     66       OYPE     C312     CTL2    -0.180000       12.0110           0   0.00000     -0.301140E-02
      8171 MEMB     66       OYPE     H12X     HAL2     0.900000E-01   1.00800           0   0.00000     -0.301140E-02
      8172 MEMB     66       OYPE     H12Y     HAL2     0.900000E-01   1.00800           0   0.00000     -0.301140E-02
      8173 MEMB     66       OYPE     C313     CTL2    -0.180000       12.0110           0   0.00000     -0.301140E-02
      8174 MEMB     66       OYPE     H13X     HAL2     0.900000E-01   1.00800           0   0.00000     -0.301140E-02
      8175 MEMB     66       OYPE     H13Y     HAL2     0.900000E-01   1.00800           0   0.00000     -0.301140E-02
      8176 MEMB     66       OYPE     C314     CTL2    -0.180000       12.0110           0   0.00000     -0.301140E-02
      8177 MEMB     66       OYPE     H14X     HAL2     0.900000E-01   1.00800           0   0.00000     -0.301140E-02
      8178 MEMB     66       OYPE     H14Y     HAL2     0.900000E-01   1.00800           0   0.00000     -0.301140E-02
      8179 MEMB     66       OYPE     C315     CTL2    -0.180000       12.0110           0   0.00000     -0.301140E-02
      8180 MEMB     66       OYPE     H15X     HAL2     0.900000E-01   1.00800           0   0.00000     -0.301140E-02
      8181 MEMB     66       OYPE     H15Y     HAL2     0.900000E-01   1.00800           0   0.00000     -0.301140E-02
      8182 MEMB     66       OYPE     C316     CTL2    -0.180000       12.0110           0   0.00000     -0.301140E-02
      8183 MEMB     66       OYPE     H16X     HAL2     0.900000E-01   1.00800           0   0.00000     -0.301140E-02
      8184 MEMB     66       OYPE     H16Y     HAL2     0.900000E-01   1.00800           0   0.00000     -0.301140E-02
      8185 MEMB     66       OYPE     C317     CTL2    -0.180000       12.0110           0   0.00000     -0.301140E-02
      8186 MEMB     66       OYPE     H17X     HAL2     0.900000E-01   1.00800           0   0.00000     -0.301140E-02
      8187 MEMB     66       OYPE     H17Y     HAL2     0.900000E-01   1.00800           0   0.00000     -0.301140E-02
      8188 MEMB     66       OYPE     C318     CTL3    -0.270000       12.0110           0   0.00000     -0.301140E-02
      8189 MEMB     66       OYPE     H18X     HAL3     0.900000E-01   1.00800           0   0.00000     -0.301140E-02
      8190 MEMB     66       OYPE     H18Y     HAL3     0.900000E-01   1.00800           0   0.00000     -0.301140E-02
      8191 MEMB     66       OYPE     H18Z     HAL3     0.900000E-01   1.00800           0   0.00000     -0.301140E-02
      8192 MEMB     67       PMPE     N        NH3L    -0.300000       14.0070           0   0.00000     -0.301140E-02
      8193 MEMB     67       PMPE     HN1      HCL      0.330000       1.00800           0   0.00000     -0.301140E-02
      8194 MEMB     67       PMPE     HN2      HCL      0.330000       1.00800           0   0.00000     -0.301140E-02
      8195 MEMB     67       PMPE     HN3      HCL      0.330000       1.00800           0   0.00000     -0.301140E-02
      8196 MEMB     67       PMPE     C12      CTL2     0.130000       12.0110           0   0.00000     -0.301140E-02
      8197 MEMB     67       PMPE     H12A     HAL2     0.900000E-01   1.00800           0   0.00000     -0.301140E-02
      8198 MEMB     67       PMPE     H12B     HAL2     0.900000E-01   1.00800           0   0.00000     -0.301140E-02
      8199 MEMB     67       PMPE     C11      CTL2    -0.800000E-01   12.0110           0   0.00000     -0.301140E-02
      8200 MEMB     67       PMPE     H11A     HAL2     0.900000E-01   1.00800           0   0.00000     -0.301140E-02
      8201 MEMB     67       PMPE     H11B     HAL2     0.900000E-01   1.00800           0   0.00000     -0.301140E-02
      8202 MEMB     67       PMPE     P        PL        1.50000       30.9740           0   0.00000     -0.301140E-02
      8203 MEMB     67       PMPE     O13      O2L     -0.780000       15.9994           0   0.00000     -0.301140E-02
      8204 MEMB     67       PMPE     O14      O2L     -0.780000       15.9994           0   0.00000     -0.301140E-02
      8205 MEMB     67       PMPE     O11      OSLP    -0.570000       15.9994           0   0.00000     -0.301140E-02
      8206 MEMB     67       PMPE     O12      OSLP    -0.570000       15.9994           0   0.00000     -0.301140E-02
      8207 MEMB     67       PMPE     C1       CTL2    -0.800000E-01   12.0110           0   0.00000     -0.301140E-02
      8208 MEMB     67       PMPE     HA       HAL2     0.900000E-01   1.00800           0   0.00000     -0.301140E-02
      8209 MEMB     67       PMPE     HB       HAL2     0.900000E-01   1.00800           0   0.00000     -0.301140E-02
      8210 MEMB     67       PMPE     C2       CTL1     0.170000       12.0110           0   0.00000     -0.301140E-02
      8211 MEMB     67       PMPE     HS       HAL1     0.900000E-01   1.00800           0   0.00000     -0.301140E-02
      8212 MEMB     67       PMPE     O21      OSL     -0.490000       15.9994           0   0.00000     -0.301140E-02
      8213 MEMB     67       PMPE     C21      CL       0.900000       12.0110           0   0.00000     -0.301140E-02
      8214 MEMB     67       PMPE     O22      OBL     -0.630000       15.9994           0   0.00000     -0.301140E-02
      8215 MEMB     67       PMPE     C22      CTL2    -0.220000       12.0110           0   0.00000     -0.301140E-02
      8216 MEMB     67       PMPE     H2R      HAL2     0.900000E-01   1.00800           0   0.00000     -0.301140E-02
      8217 MEMB     67       PMPE     H2S      HAL2     0.900000E-01   1.00800           0   0.00000     -0.301140E-02
      8218 MEMB     67       PMPE     C3       CTL2     0.800000E-01   12.0110           0   0.00000     -0.301140E-02
      8219 MEMB     67       PMPE     HX       HAL2     0.900000E-01   1.00800           0   0.00000     -0.301140E-02
      8220 MEMB     67       PMPE     HY       HAL2     0.900000E-01   1.00800           0   0.00000     -0.301140E-02
      8221 MEMB     67       PMPE     O31      OSL     -0.490000       15.9994           0   0.00000     -0.301140E-02
      8222 MEMB     67       PMPE     C31      CL       0.900000       12.0110           0   0.00000     -0.301140E-02
      8223 MEMB     67       PMPE     O32      OBL     -0.630000       15.9994           0   0.00000     -0.301140E-02
      8224 MEMB     67       PMPE     C32      CTL2    -0.220000       12.0110           0   0.00000     -0.301140E-02
      8225 MEMB     67       PMPE     H2X      HAL2     0.900000E-01   1.00800           0   0.00000     -0.301140E-02
      8226 MEMB     67       PMPE     H2Y      HAL2     0.900000E-01   1.00800           0   0.00000     -0.301140E-02
      8227 MEMB     67       PMPE     C23      CTL2    -0.180000       12.0110           0   0.00000     -0.301140E-02
      8228 MEMB     67       PMPE     H3R      HAL2     0.900000E-01   1.00800           0   0.00000     -0.301140E-02
      8229 MEMB     67       PMPE     H3S      HAL2     0.900000E-01   1.00800           0   0.00000     -0.301140E-02
      8230 MEMB     67       PMPE     C24      CTL2    -0.180000       12.0110           0   0.00000     -0.301140E-02
      8231 MEMB     67       PMPE     H4R      HAL2     0.900000E-01   1.00800           0   0.00000     -0.301140E-02
      8232 MEMB     67       PMPE     H4S      HAL2     0.900000E-01   1.00800           0   0.00000     -0.301140E-02
      8233 MEMB     67       PMPE     C25      CTL2    -0.180000       12.0110           0   0.00000     -0.301140E-02
      8234 MEMB     67       PMPE     H5R      HAL2     0.900000E-01   1.00800           0   0.00000     -0.301140E-02
      8235 MEMB     67       PMPE     H5S      HAL2     0.900000E-01   1.00800           0   0.00000     -0.301140E-02
      8236 MEMB     67       PMPE     C26      CTL2    -0.180000       12.0110           0   0.00000     -0.301140E-02
      8237 MEMB     67       PMPE     H6R      HAL2     0.900000E-01   1.00800           0   0.00000     -0.301140E-02
      8238 MEMB     67       PMPE     H6S      HAL2     0.900000E-01   1.00800           0   0.00000     -0.301140E-02
      8239 MEMB     67       PMPE     C27      CTL2    -0.180000       12.0110           0   0.00000     -0.301140E-02
      8240 MEMB     67       PMPE     H7R      HAL2     0.900000E-01   1.00800           0   0.00000     -0.301140E-02
      8241 MEMB     67       PMPE     H7S      HAL2     0.900000E-01   1.00800           0   0.00000     -0.301140E-02
      8242 MEMB     67       PMPE     C28      CTL2    -0.180000       12.0110           0   0.00000     -0.301140E-02
      8243 MEMB     67       PMPE     H8R      HAL2     0.900000E-01   1.00800           0   0.00000     -0.301140E-02
      8244 MEMB     67       PMPE     H8S      HAL2     0.900000E-01   1.00800           0   0.00000     -0.301140E-02
      8245 MEMB     67       PMPE     C29      CG3RC1  -0.900000E-01   12.0110           0   0.00000     -0.301140E-02
      8246 MEMB     67       PMPE     H9R      HGA1     0.900000E-01   1.00800           0   0.00000     -0.301140E-02
      8247 MEMB     67       PMPE     C217     CG3C31  -0.180000       12.0110           0   0.00000     -0.301140E-02
      8248 MEMB     67       PMPE     H17R     HGA2     0.900000E-01   1.00800           0   0.00000     -0.301140E-02
      8249 MEMB     67       PMPE     H17S     HGA2     0.900000E-01   1.00800           0   0.00000     -0.301140E-02
      8250 MEMB     67       PMPE     C210     CG3RC1  -0.900000E-01   12.0110           0   0.00000     -0.301140E-02
      8251 MEMB     67       PMPE     H10R     HGA1     0.900000E-01   1.00800           0   0.00000     -0.301140E-02
      8252 MEMB     67       PMPE     C211     CTL2    -0.180000       12.0110           0   0.00000     -0.301140E-02
      8253 MEMB     67       PMPE     H11R     HAL2     0.900000E-01   1.00800           0   0.00000     -0.301140E-02
      8254 MEMB     67       PMPE     H11S     HAL2     0.900000E-01   1.00800           0   0.00000     -0.301140E-02
      8255 MEMB     67       PMPE     C212     CTL2    -0.180000       12.0110           0   0.00000     -0.301140E-02
      8256 MEMB     67       PMPE     H12R     HAL2     0.900000E-01   1.00800           0   0.00000     -0.301140E-02
      8257 MEMB     67       PMPE     H12S     HAL2     0.900000E-01   1.00800           0   0.00000     -0.301140E-02
      8258 MEMB     67       PMPE     C213     CTL2    -0.180000       12.0110           0   0.00000     -0.301140E-02
      8259 MEMB     67       PMPE     H13R     HAL2     0.900000E-01   1.00800           0   0.00000     -0.301140E-02
      8260 MEMB     67       PMPE     H13S     HAL2     0.900000E-01   1.00800           0   0.00000     -0.301140E-02
      8261 MEMB     67       PMPE     C214     CTL2    -0.180000       12.0110           0   0.00000     -0.301140E-02
      8262 MEMB     67       PMPE     H14R     HAL2     0.900000E-01   1.00800           0   0.00000     -0.301140E-02
      8263 MEMB     67       PMPE     H14S     HAL2     0.900000E-01   1.00800           0   0.00000     -0.301140E-02
      8264 MEMB     67       PMPE     C215     CTL2    -0.180000       12.0110           0   0.00000     -0.301140E-02
      8265 MEMB     67       PMPE     H15R     HAL2     0.900000E-01   1.00800           0   0.00000     -0.301140E-02
      8266 MEMB     67       PMPE     H15S     HAL2     0.900000E-01   1.00800           0   0.00000     -0.301140E-02
      8267 MEMB     67       PMPE     C216     CTL3    -0.270000       12.0110           0   0.00000     -0.301140E-02
      8268 MEMB     67       PMPE     H16R     HAL3     0.900000E-01   1.00800           0   0.00000     -0.301140E-02
      8269 MEMB     67       PMPE     H16S     HAL3     0.900000E-01   1.00800           0   0.00000     -0.301140E-02
      8270 MEMB     67       PMPE     H16T     HAL3     0.900000E-01   1.00800           0   0.00000     -0.301140E-02
      8271 MEMB     67       PMPE     C33      CTL2    -0.180000       12.0110           0   0.00000     -0.301140E-02
      8272 MEMB     67       PMPE     H3X      HAL2     0.900000E-01   1.00800           0   0.00000     -0.301140E-02
      8273 MEMB     67       PMPE     H3Y      HAL2     0.900000E-01   1.00800           0   0.00000     -0.301140E-02
      8274 MEMB     67       PMPE     C34      CTL2    -0.180000       12.0110           0   0.00000     -0.301140E-02
      8275 MEMB     67       PMPE     H4X      HAL2     0.900000E-01   1.00800           0   0.00000     -0.301140E-02
      8276 MEMB     67       PMPE     H4Y      HAL2     0.900000E-01   1.00800           0   0.00000     -0.301140E-02
      8277 MEMB     67       PMPE     C35      CTL2    -0.180000       12.0110           0   0.00000     -0.301140E-02
      8278 MEMB     67       PMPE     H5X      HAL2     0.900000E-01   1.00800           0   0.00000     -0.301140E-02
      8279 MEMB     67       PMPE     H5Y      HAL2     0.900000E-01   1.00800           0   0.00000     -0.301140E-02
      8280 MEMB     67       PMPE     C36      CTL2    -0.180000       12.0110           0   0.00000     -0.301140E-02
      8281 MEMB     67       PMPE     H6X      HAL2     0.900000E-01   1.00800           0   0.00000     -0.301140E-02
      8282 MEMB     67       PMPE     H6Y      HAL2     0.900000E-01   1.00800           0   0.00000     -0.301140E-02
      8283 MEMB     67       PMPE     C37      CTL2    -0.180000       12.0110           0   0.00000     -0.301140E-02
      8284 MEMB     67       PMPE     H7X      HAL2     0.900000E-01   1.00800           0   0.00000     -0.301140E-02
      8285 MEMB     67       PMPE     H7Y      HAL2     0.900000E-01   1.00800           0   0.00000     -0.301140E-02
      8286 MEMB     67       PMPE     C38      CTL2    -0.180000       12.0110           0   0.00000     -0.301140E-02
      8287 MEMB     67       PMPE     H8X      HAL2     0.900000E-01   1.00800           0   0.00000     -0.301140E-02
      8288 MEMB     67       PMPE     H8Y      HAL2     0.900000E-01   1.00800           0   0.00000     -0.301140E-02
      8289 MEMB     67       PMPE     C39      CTL2    -0.180000       12.0110           0   0.00000     -0.301140E-02
      8290 MEMB     67       PMPE     H9X      HAL2     0.900000E-01   1.00800           0   0.00000     -0.301140E-02
      8291 MEMB     67       PMPE     H9Y      HAL2     0.900000E-01   1.00800           0   0.00000     -0.301140E-02
      8292 MEMB     67       PMPE     C310     CTL2    -0.180000       12.0110           0   0.00000     -0.301140E-02
      8293 MEMB     67       PMPE     H10X     HAL2     0.900000E-01   1.00800           0   0.00000     -0.301140E-02
      8294 MEMB     67       PMPE     H10Y     HAL2     0.900000E-01   1.00800           0   0.00000     -0.301140E-02
      8295 MEMB     67       PMPE     C311     CTL2    -0.180000       12.0110           0   0.00000     -0.301140E-02
      8296 MEMB     67       PMPE     H11X     HAL2     0.900000E-01   1.00800           0   0.00000     -0.301140E-02
      8297 MEMB     67       PMPE     H11Y     HAL2     0.900000E-01   1.00800           0   0.00000     -0.301140E-02
      8298 MEMB     67       PMPE     C312     CTL2    -0.180000       12.0110           0   0.00000     -0.301140E-02
      8299 MEMB     67       PMPE     H12X     HAL2     0.900000E-01   1.00800           0   0.00000     -0.301140E-02
      8300 MEMB     67       PMPE     H12Y     HAL2     0.900000E-01   1.00800           0   0.00000     -0.301140E-02
      8301 MEMB     67       PMPE     C313     CTL2    -0.180000       12.0110           0   0.00000     -0.301140E-02
      8302 MEMB     67       PMPE     H13X     HAL2     0.900000E-01   1.00800           0   0.00000     -0.301140E-02
      8303 MEMB     67       PMPE     H13Y     HAL2     0.900000E-01   1.00800           0   0.00000     -0.301140E-02
      8304 MEMB     67       PMPE     C314     CTL2    -0.180000       12.0110           0   0.00000     -0.301140E-02
      8305 MEMB     67       PMPE     H14X     HAL2     0.900000E-01   1.00800           0   0.00000     -0.301140E-02
      8306 MEMB     67       PMPE     H14Y     HAL2     0.900000E-01   1.00800           0   0.00000     -0.301140E-02
      8307 MEMB     67       PMPE     C315     CTL2    -0.180000       12.0110           0   0.00000     -0.301140E-02
      8308 MEMB     67       PMPE     H15X     HAL2     0.900000E-01   1.00800           0   0.00000     -0.301140E-02
      8309 MEMB     67       PMPE     H15Y     HAL2     0.900000E-01   1.00800           0   0.00000     -0.301140E-02
      8310 MEMB     67       PMPE     C316     CTL3    -0.270000       12.0110           0   0.00000     -0.301140E-02
      8311 MEMB     67       PMPE     H16X     HAL3     0.900000E-01   1.00800           0   0.00000     -0.301140E-02
      8312 MEMB     67       PMPE     H16Y     HAL3     0.900000E-01   1.00800           0   0.00000     -0.301140E-02
      8313 MEMB     67       PMPE     H16Z     HAL3     0.900000E-01   1.00800           0   0.00000     -0.301140E-02
      8314 MEMB     68       PYPG     C13      CTL2     0.500000E-01   12.0110           0   0.00000     -0.301140E-02
      8315 MEMB     68       PYPG     H13A     HAL2     0.900000E-01   1.00800           0   0.00000     -0.301140E-02
      8316 MEMB     68       PYPG     H13B     HAL2     0.900000E-01   1.00800           0   0.00000     -0.301140E-02
      8317 MEMB     68       PYPG     OC3      OHL     -0.660000       15.9994           0   0.00000     -0.301140E-02
      8318 MEMB     68       PYPG     HO3      HOL      0.430000       1.00800           0   0.00000     -0.301140E-02
      8319 MEMB     68       PYPG     C12      CTL1     0.140000       12.0110           0   0.00000     -0.301140E-02
      8320 MEMB     68       PYPG     H12A     HAL1     0.900000E-01   1.00800           0   0.00000     -0.301140E-02
      8321 MEMB     68       PYPG     OC2      OHL     -0.660000       15.9994           0   0.00000     -0.301140E-02
      8322 MEMB     68       PYPG     HO2      HOL      0.430000       1.00800           0   0.00000     -0.301140E-02
      8323 MEMB     68       PYPG     C11      CTL2    -0.800000E-01   12.0110           0   0.00000     -0.301140E-02
      8324 MEMB     68       PYPG     H11A     HAL2     0.900000E-01   1.00800           0   0.00000     -0.301140E-02
      8325 MEMB     68       PYPG     H11B     HAL2     0.900000E-01   1.00800           0   0.00000     -0.301140E-02
      8326 MEMB     68       PYPG     P        PL        1.50000       30.9740           0   0.00000     -0.301140E-02
      8327 MEMB     68       PYPG     O13      O2L     -0.780000       15.9994           0   0.00000     -0.301140E-02
      8328 MEMB     68       PYPG     O14      O2L     -0.780000       15.9994           0   0.00000     -0.301140E-02
      8329 MEMB     68       PYPG     O11      OSLP    -0.570000       15.9994           0   0.00000     -0.301140E-02
      8330 MEMB     68       PYPG     O12      OSLP    -0.570000       15.9994           0   0.00000     -0.301140E-02
      8331 MEMB     68       PYPG     C1       CTL2    -0.800000E-01   12.0110           0   0.00000     -0.301140E-02
      8332 MEMB     68       PYPG     HA       HAL2     0.900000E-01   1.00800           0   0.00000     -0.301140E-02
      8333 MEMB     68       PYPG     HB       HAL2     0.900000E-01   1.00800           0   0.00000     -0.301140E-02
      8334 MEMB     68       PYPG     C2       CTL1     0.170000       12.0110           0   0.00000     -0.301140E-02
      8335 MEMB     68       PYPG     HS       HAL1     0.900000E-01   1.00800           0   0.00000     -0.301140E-02
      8336 MEMB     68       PYPG     O21      OSL     -0.490000       15.9994           0   0.00000     -0.301140E-02
      8337 MEMB     68       PYPG     C21      CL       0.900000       12.0110           0   0.00000     -0.301140E-02
      8338 MEMB     68       PYPG     O22      OBL     -0.630000       15.9994           0   0.00000     -0.301140E-02
      8339 MEMB     68       PYPG     C22      CTL2    -0.220000       12.0110           0   0.00000     -0.301140E-02
      8340 MEMB     68       PYPG     H2R      HAL2     0.900000E-01   1.00800           0   0.00000     -0.301140E-02
      8341 MEMB     68       PYPG     H2S      HAL2     0.900000E-01   1.00800           0   0.00000     -0.301140E-02
      8342 MEMB     68       PYPG     C3       CTL2     0.800000E-01   12.0110           0   0.00000     -0.301140E-02
      8343 MEMB     68       PYPG     HX       HAL2     0.900000E-01   1.00800           0   0.00000     -0.301140E-02
      8344 MEMB     68       PYPG     HY       HAL2     0.900000E-01   1.00800           0   0.00000     -0.301140E-02
      8345 MEMB     68       PYPG     O31      OSL     -0.490000       15.9994           0   0.00000     -0.301140E-02
      8346 MEMB     68       PYPG     C31      CL       0.900000       12.0110           0   0.00000     -0.301140E-02
      8347 MEMB     68       PYPG     O32      OBL     -0.630000       15.9994           0   0.00000     -0.301140E-02
      8348 MEMB     68       PYPG     C32      CTL2    -0.220000       12.0110           0   0.00000     -0.301140E-02
      8349 MEMB     68       PYPG     H2X      HAL2     0.900000E-01   1.00800           0   0.00000     -0.301140E-02
      8350 MEMB     68       PYPG     H2Y      HAL2     0.900000E-01   1.00800           0   0.00000     -0.301140E-02
      8351 MEMB     68       PYPG     C23      CTL2    -0.180000       12.0110           0   0.00000     -0.301140E-02
      8352 MEMB     68       PYPG     H3R      HAL2     0.900000E-01   1.00800           0   0.00000     -0.301140E-02
      8353 MEMB     68       PYPG     H3S      HAL2     0.900000E-01   1.00800           0   0.00000     -0.301140E-02
      8354 MEMB     68       PYPG     C24      CTL2    -0.180000       12.0110           0   0.00000     -0.301140E-02
      8355 MEMB     68       PYPG     H4R      HAL2     0.900000E-01   1.00800           0   0.00000     -0.301140E-02
      8356 MEMB     68       PYPG     H4S      HAL2     0.900000E-01   1.00800           0   0.00000     -0.301140E-02
      8357 MEMB     68       PYPG     C25      CTL2    -0.180000       12.0110           0   0.00000     -0.301140E-02
      8358 MEMB     68       PYPG     H5R      HAL2     0.900000E-01   1.00800           0   0.00000     -0.301140E-02
      8359 MEMB     68       PYPG     H5S      HAL2     0.900000E-01   1.00800           0   0.00000     -0.301140E-02
      8360 MEMB     68       PYPG     C26      CTL2    -0.180000       12.0110           0   0.00000     -0.301140E-02
      8361 MEMB     68       PYPG     H6R      HAL2     0.900000E-01   1.00800           0   0.00000     -0.301140E-02
      8362 MEMB     68       PYPG     H6S      HAL2     0.900000E-01   1.00800           0   0.00000     -0.301140E-02
      8363 MEMB     68       PYPG     C27      CTL2    -0.180000       12.0110           0   0.00000     -0.301140E-02
      8364 MEMB     68       PYPG     H7R      HAL2     0.900000E-01   1.00800           0   0.00000     -0.301140E-02
      8365 MEMB     68       PYPG     H7S      HAL2     0.900000E-01   1.00800           0   0.00000     -0.301140E-02
      8366 MEMB     68       PYPG     C28      CTL2    -0.180000       12.0110           0   0.00000     -0.301140E-02
      8367 MEMB     68       PYPG     H8R      HAL2     0.900000E-01   1.00800           0   0.00000     -0.301140E-02
      8368 MEMB     68       PYPG     H8S      HAL2     0.900000E-01   1.00800           0   0.00000     -0.301140E-02
      8369 MEMB     68       PYPG     C29      CEL1    -0.150000       12.0110           0   0.00000     -0.301140E-02
      8370 MEMB     68       PYPG     H9R      HEL1     0.150000       1.00800           0   0.00000     -0.301140E-02
      8371 MEMB     68       PYPG     C210     CEL1    -0.150000       12.0110           0   0.00000     -0.301140E-02
      8372 MEMB     68       PYPG     H10R     HEL1     0.150000       1.00800           0   0.00000     -0.301140E-02
      8373 MEMB     68       PYPG     C211     CTL2    -0.180000       12.0110           0   0.00000     -0.301140E-02
      8374 MEMB     68       PYPG     H11R     HAL2     0.900000E-01   1.00800           0   0.00000     -0.301140E-02
      8375 MEMB     68       PYPG     H11S     HAL2     0.900000E-01   1.00800           0   0.00000     -0.301140E-02
      8376 MEMB     68       PYPG     C212     CTL2    -0.180000       12.0110           0   0.00000     -0.301140E-02
      8377 MEMB     68       PYPG     H12R     HAL2     0.900000E-01   1.00800           0   0.00000     -0.301140E-02
      8378 MEMB     68       PYPG     H12S     HAL2     0.900000E-01   1.00800           0   0.00000     -0.301140E-02
      8379 MEMB     68       PYPG     C213     CTL2    -0.180000       12.0110           0   0.00000     -0.301140E-02
      8380 MEMB     68       PYPG     H13R     HAL2     0.900000E-01   1.00800           0   0.00000     -0.301140E-02
      8381 MEMB     68       PYPG     H13S     HAL2     0.900000E-01   1.00800           0   0.00000     -0.301140E-02
      8382 MEMB     68       PYPG     C214     CTL2    -0.180000       12.0110           0   0.00000     -0.301140E-02
      8383 MEMB     68       PYPG     H14R     HAL2     0.900000E-01   1.00800           0   0.00000     -0.301140E-02
      8384 MEMB     68       PYPG     H14S     HAL2     0.900000E-01   1.00800           0   0.00000     -0.301140E-02
      8385 MEMB     68       PYPG     C215     CTL2    -0.180000       12.0110           0   0.00000     -0.301140E-02
      8386 MEMB     68       PYPG     H15R     HAL2     0.900000E-01   1.00800           0   0.00000     -0.301140E-02
      8387 MEMB     68       PYPG     H15S     HAL2     0.900000E-01   1.00800           0   0.00000     -0.301140E-02
      8388 MEMB     68       PYPG     C216     CTL3    -0.270000       12.0110           0   0.00000     -0.301140E-02
      8389 MEMB     68       PYPG     H16R     HAL3     0.900000E-01   1.00800           0   0.00000     -0.301140E-02
      8390 MEMB     68       PYPG     H16S     HAL3     0.900000E-01   1.00800           0   0.00000     -0.301140E-02
      8391 MEMB     68       PYPG     H16T     HAL3     0.900000E-01   1.00800           0   0.00000     -0.301140E-02
      8392 MEMB     68       PYPG     C33      CTL2    -0.180000       12.0110           0   0.00000     -0.301140E-02
      8393 MEMB     68       PYPG     H3X      HAL2     0.900000E-01   1.00800           0   0.00000     -0.301140E-02
      8394 MEMB     68       PYPG     H3Y      HAL2     0.900000E-01   1.00800           0   0.00000     -0.301140E-02
      8395 MEMB     68       PYPG     C34      CTL2    -0.180000       12.0110           0   0.00000     -0.301140E-02
      8396 MEMB     68       PYPG     H4X      HAL2     0.900000E-01   1.00800           0   0.00000     -0.301140E-02
      8397 MEMB     68       PYPG     H4Y      HAL2     0.900000E-01   1.00800           0   0.00000     -0.301140E-02
      8398 MEMB     68       PYPG     C35      CTL2    -0.180000       12.0110           0   0.00000     -0.301140E-02
      8399 MEMB     68       PYPG     H5X      HAL2     0.900000E-01   1.00800           0   0.00000     -0.301140E-02
      8400 MEMB     68       PYPG     H5Y      HAL2     0.900000E-01   1.00800           0   0.00000     -0.301140E-02
      8401 MEMB     68       PYPG     C36      CTL2    -0.180000       12.0110           0   0.00000     -0.301140E-02
      8402 MEMB     68       PYPG     H6X      HAL2     0.900000E-01   1.00800           0   0.00000     -0.301140E-02
      8403 MEMB     68       PYPG     H6Y      HAL2     0.900000E-01   1.00800           0   0.00000     -0.301140E-02
      8404 MEMB     68       PYPG     C37      CTL2    -0.180000       12.0110           0   0.00000     -0.301140E-02
      8405 MEMB     68       PYPG     H7X      HAL2     0.900000E-01   1.00800           0   0.00000     -0.301140E-02
      8406 MEMB     68       PYPG     H7Y      HAL2     0.900000E-01   1.00800           0   0.00000     -0.301140E-02
      8407 MEMB     68       PYPG     C38      CTL2    -0.180000       12.0110           0   0.00000     -0.301140E-02
      8408 MEMB     68       PYPG     H8X      HAL2     0.900000E-01   1.00800           0   0.00000     -0.301140E-02
      8409 MEMB     68       PYPG     H8Y      HAL2     0.900000E-01   1.00800           0   0.00000     -0.301140E-02
      8410 MEMB     68       PYPG     C39      CTL2    -0.180000       12.0110           0   0.00000     -0.301140E-02
      8411 MEMB     68       PYPG     H9X      HAL2     0.900000E-01   1.00800           0   0.00000     -0.301140E-02
      8412 MEMB     68       PYPG     H9Y      HAL2     0.900000E-01   1.00800           0   0.00000     -0.301140E-02
      8413 MEMB     68       PYPG     C310     CTL2    -0.180000       12.0110           0   0.00000     -0.301140E-02
      8414 MEMB     68       PYPG     H10X     HAL2     0.900000E-01   1.00800           0   0.00000     -0.301140E-02
      8415 MEMB     68       PYPG     H10Y     HAL2     0.900000E-01   1.00800           0   0.00000     -0.301140E-02
      8416 MEMB     68       PYPG     C311     CTL2    -0.180000       12.0110           0   0.00000     -0.301140E-02
      8417 MEMB     68       PYPG     H11X     HAL2     0.900000E-01   1.00800           0   0.00000     -0.301140E-02
      8418 MEMB     68       PYPG     H11Y     HAL2     0.900000E-01   1.00800           0   0.00000     -0.301140E-02
      8419 MEMB     68       PYPG     C312     CTL2    -0.180000       12.0110           0   0.00000     -0.301140E-02
      8420 MEMB     68       PYPG     H12X     HAL2     0.900000E-01   1.00800           0   0.00000     -0.301140E-02
      8421 MEMB     68       PYPG     H12Y     HAL2     0.900000E-01   1.00800           0   0.00000     -0.301140E-02
      8422 MEMB     68       PYPG     C313     CTL2    -0.180000       12.0110           0   0.00000     -0.301140E-02
      8423 MEMB     68       PYPG     H13X     HAL2     0.900000E-01   1.00800           0   0.00000     -0.301140E-02
      8424 MEMB     68       PYPG     H13Y     HAL2     0.900000E-01   1.00800           0   0.00000     -0.301140E-02
      8425 MEMB     68       PYPG     C314     CTL2    -0.180000       12.0110           0   0.00000     -0.301140E-02
      8426 MEMB     68       PYPG     H14X     HAL2     0.900000E-01   1.00800           0   0.00000     -0.301140E-02
      8427 MEMB     68       PYPG     H14Y     HAL2     0.900000E-01   1.00800           0   0.00000     -0.301140E-02
      8428 MEMB     68       PYPG     C315     CTL2    -0.180000       12.0110           0   0.00000     -0.301140E-02
      8429 MEMB     68       PYPG     H15X     HAL2     0.900000E-01   1.00800           0   0.00000     -0.301140E-02
      8430 MEMB     68       PYPG     H15Y     HAL2     0.900000E-01   1.00800           0   0.00000     -0.301140E-02
      8431 MEMB     68       PYPG     C316     CTL3    -0.270000       12.0110           0   0.00000     -0.301140E-02
      8432 MEMB     68       PYPG     H16X     HAL3     0.900000E-01   1.00800           0   0.00000     -0.301140E-02
      8433 MEMB     68       PYPG     H16Y     HAL3     0.900000E-01   1.00800           0   0.00000     -0.301140E-02
      8434 MEMB     68       PYPG     H16Z     HAL3     0.900000E-01   1.00800           0   0.00000     -0.301140E-02
      8435 MEMB     69       PMPE     N        NH3L    -0.300000       14.0070           0   0.00000     -0.301140E-02
      8436 MEMB     69       PMPE     HN1      HCL      0.330000       1.00800           0   0.00000     -0.301140E-02
      8437 MEMB     69       PMPE     HN2      HCL      0.330000       1.00800           0   0.00000     -0.301140E-02
      8438 MEMB     69       PMPE     HN3      HCL      0.330000       1.00800           0   0.00000     -0.301140E-02
      8439 MEMB     69       PMPE     C12      CTL2     0.130000       12.0110           0   0.00000     -0.301140E-02
      8440 MEMB     69       PMPE     H12A     HAL2     0.900000E-01   1.00800           0   0.00000     -0.301140E-02
      8441 MEMB     69       PMPE     H12B     HAL2     0.900000E-01   1.00800           0   0.00000     -0.301140E-02
      8442 MEMB     69       PMPE     C11      CTL2    -0.800000E-01   12.0110           0   0.00000     -0.301140E-02
      8443 MEMB     69       PMPE     H11A     HAL2     0.900000E-01   1.00800           0   0.00000     -0.301140E-02
      8444 MEMB     69       PMPE     H11B     HAL2     0.900000E-01   1.00800           0   0.00000     -0.301140E-02
      8445 MEMB     69       PMPE     P        PL        1.50000       30.9740           0   0.00000     -0.301140E-02
      8446 MEMB     69       PMPE     O13      O2L     -0.780000       15.9994           0   0.00000     -0.301140E-02
      8447 MEMB     69       PMPE     O14      O2L     -0.780000       15.9994           0   0.00000     -0.301140E-02
      8448 MEMB     69       PMPE     O11      OSLP    -0.570000       15.9994           0   0.00000     -0.301140E-02
      8449 MEMB     69       PMPE     O12      OSLP    -0.570000       15.9994           0   0.00000     -0.301140E-02
      8450 MEMB     69       PMPE     C1       CTL2    -0.800000E-01   12.0110           0   0.00000     -0.301140E-02
      8451 MEMB     69       PMPE     HA       HAL2     0.900000E-01   1.00800           0   0.00000     -0.301140E-02
      8452 MEMB     69       PMPE     HB       HAL2     0.900000E-01   1.00800           0   0.00000     -0.301140E-02
      8453 MEMB     69       PMPE     C2       CTL1     0.170000       12.0110           0   0.00000     -0.301140E-02
      8454 MEMB     69       PMPE     HS       HAL1     0.900000E-01   1.00800           0   0.00000     -0.301140E-02
      8455 MEMB     69       PMPE     O21      OSL     -0.490000       15.9994           0   0.00000     -0.301140E-02
      8456 MEMB     69       PMPE     C21      CL       0.900000       12.0110           0   0.00000     -0.301140E-02
      8457 MEMB     69       PMPE     O22      OBL     -0.630000       15.9994           0   0.00000     -0.301140E-02
      8458 MEMB     69       PMPE     C22      CTL2    -0.220000       12.0110           0   0.00000     -0.301140E-02
      8459 MEMB     69       PMPE     H2R      HAL2     0.900000E-01   1.00800           0   0.00000     -0.301140E-02
      8460 MEMB     69       PMPE     H2S      HAL2     0.900000E-01   1.00800           0   0.00000     -0.301140E-02
      8461 MEMB     69       PMPE     C3       CTL2     0.800000E-01   12.0110           0   0.00000     -0.301140E-02
      8462 MEMB     69       PMPE     HX       HAL2     0.900000E-01   1.00800           0   0.00000     -0.301140E-02
      8463 MEMB     69       PMPE     HY       HAL2     0.900000E-01   1.00800           0   0.00000     -0.301140E-02
      8464 MEMB     69       PMPE     O31      OSL     -0.490000       15.9994           0   0.00000     -0.301140E-02
      8465 MEMB     69       PMPE     C31      CL       0.900000       12.0110           0   0.00000     -0.301140E-02
      8466 MEMB     69       PMPE     O32      OBL     -0.630000       15.9994           0   0.00000     -0.301140E-02
      8467 MEMB     69       PMPE     C32      CTL2    -0.220000       12.0110           0   0.00000     -0.301140E-02
      8468 MEMB     69       PMPE     H2X      HAL2     0.900000E-01   1.00800           0   0.00000     -0.301140E-02
      8469 MEMB     69       PMPE     H2Y      HAL2     0.900000E-01   1.00800           0   0.00000     -0.301140E-02
      8470 MEMB     69       PMPE     C23      CTL2    -0.180000       12.0110           0   0.00000     -0.301140E-02
      8471 MEMB     69       PMPE     H3R      HAL2     0.900000E-01   1.00800           0   0.00000     -0.301140E-02
      8472 MEMB     69       PMPE     H3S      HAL2     0.900000E-01   1.00800           0   0.00000     -0.301140E-02
      8473 MEMB     69       PMPE     C24      CTL2    -0.180000       12.0110           0   0.00000     -0.301140E-02
      8474 MEMB     69       PMPE     H4R      HAL2     0.900000E-01   1.00800           0   0.00000     -0.301140E-02
      8475 MEMB     69       PMPE     H4S      HAL2     0.900000E-01   1.00800           0   0.00000     -0.301140E-02
      8476 MEMB     69       PMPE     C25      CTL2    -0.180000       12.0110           0   0.00000     -0.301140E-02
      8477 MEMB     69       PMPE     H5R      HAL2     0.900000E-01   1.00800           0   0.00000     -0.301140E-02
      8478 MEMB     69       PMPE     H5S      HAL2     0.900000E-01   1.00800           0   0.00000     -0.301140E-02
      8479 MEMB     69       PMPE     C26      CTL2    -0.180000       12.0110           0   0.00000     -0.301140E-02
      8480 MEMB     69       PMPE     H6R      HAL2     0.900000E-01   1.00800           0   0.00000     -0.301140E-02
      8481 MEMB     69       PMPE     H6S      HAL2     0.900000E-01   1.00800           0   0.00000     -0.301140E-02
      8482 MEMB     69       PMPE     C27      CTL2    -0.180000       12.0110           0   0.00000     -0.301140E-02
      8483 MEMB     69       PMPE     H7R      HAL2     0.900000E-01   1.00800           0   0.00000     -0.301140E-02
      8484 MEMB     69       PMPE     H7S      HAL2     0.900000E-01   1.00800           0   0.00000     -0.301140E-02
      8485 MEMB     69       PMPE     C28      CTL2    -0.180000       12.0110           0   0.00000     -0.301140E-02
      8486 MEMB     69       PMPE     H8R      HAL2     0.900000E-01   1.00800           0   0.00000     -0.301140E-02
      8487 MEMB     69       PMPE     H8S      HAL2     0.900000E-01   1.00800           0   0.00000     -0.301140E-02
      8488 MEMB     69       PMPE     C29      CG3RC1  -0.900000E-01   12.0110           0   0.00000     -0.301140E-02
      8489 MEMB     69       PMPE     H9R      HGA1     0.900000E-01   1.00800           0   0.00000     -0.301140E-02
      8490 MEMB     69       PMPE     C217     CG3C31  -0.180000       12.0110           0   0.00000     -0.301140E-02
      8491 MEMB     69       PMPE     H17R     HGA2     0.900000E-01   1.00800           0   0.00000     -0.301140E-02
      8492 MEMB     69       PMPE     H17S     HGA2     0.900000E-01   1.00800           0   0.00000     -0.301140E-02
      8493 MEMB     69       PMPE     C210     CG3RC1  -0.900000E-01   12.0110           0   0.00000     -0.301140E-02
      8494 MEMB     69       PMPE     H10R     HGA1     0.900000E-01   1.00800           0   0.00000     -0.301140E-02
      8495 MEMB     69       PMPE     C211     CTL2    -0.180000       12.0110           0   0.00000     -0.301140E-02
      8496 MEMB     69       PMPE     H11R     HAL2     0.900000E-01   1.00800           0   0.00000     -0.301140E-02
      8497 MEMB     69       PMPE     H11S     HAL2     0.900000E-01   1.00800           0   0.00000     -0.301140E-02
      8498 MEMB     69       PMPE     C212     CTL2    -0.180000       12.0110           0   0.00000     -0.301140E-02
      8499 MEMB     69       PMPE     H12R     HAL2     0.900000E-01   1.00800           0   0.00000     -0.301140E-02
      8500 MEMB     69       PMPE     H12S     HAL2     0.900000E-01   1.00800           0   0.00000     -0.301140E-02
      8501 MEMB     69       PMPE     C213     CTL2    -0.180000       12.0110           0   0.00000     -0.301140E-02
      8502 MEMB     69       PMPE     H13R     HAL2     0.900000E-01   1.00800           0   0.00000     -0.301140E-02
      8503 MEMB     69       PMPE     H13S     HAL2     0.900000E-01   1.00800           0   0.00000     -0.301140E-02
      8504 MEMB     69       PMPE     C214     CTL2    -0.180000       12.0110           0   0.00000     -0.301140E-02
      8505 MEMB     69       PMPE     H14R     HAL2     0.900000E-01   1.00800           0   0.00000     -0.301140E-02
      8506 MEMB     69       PMPE     H14S     HAL2     0.900000E-01   1.00800           0   0.00000     -0.301140E-02
      8507 MEMB     69       PMPE     C215     CTL2    -0.180000       12.0110           0   0.00000     -0.301140E-02
      8508 MEMB     69       PMPE     H15R     HAL2     0.900000E-01   1.00800           0   0.00000     -0.301140E-02
      8509 MEMB     69       PMPE     H15S     HAL2     0.900000E-01   1.00800           0   0.00000     -0.301140E-02
      8510 MEMB     69       PMPE     C216     CTL3    -0.270000       12.0110           0   0.00000     -0.301140E-02
      8511 MEMB     69       PMPE     H16R     HAL3     0.900000E-01   1.00800           0   0.00000     -0.301140E-02
      8512 MEMB     69       PMPE     H16S     HAL3     0.900000E-01   1.00800           0   0.00000     -0.301140E-02
      8513 MEMB     69       PMPE     H16T     HAL3     0.900000E-01   1.00800           0   0.00000     -0.301140E-02
      8514 MEMB     69       PMPE     C33      CTL2    -0.180000       12.0110           0   0.00000     -0.301140E-02
      8515 MEMB     69       PMPE     H3X      HAL2     0.900000E-01   1.00800           0   0.00000     -0.301140E-02
      8516 MEMB     69       PMPE     H3Y      HAL2     0.900000E-01   1.00800           0   0.00000     -0.301140E-02
      8517 MEMB     69       PMPE     C34      CTL2    -0.180000       12.0110           0   0.00000     -0.301140E-02
      8518 MEMB     69       PMPE     H4X      HAL2     0.900000E-01   1.00800           0   0.00000     -0.301140E-02
      8519 MEMB     69       PMPE     H4Y      HAL2     0.900000E-01   1.00800           0   0.00000     -0.301140E-02
      8520 MEMB     69       PMPE     C35      CTL2    -0.180000       12.0110           0   0.00000     -0.301140E-02
      8521 MEMB     69       PMPE     H5X      HAL2     0.900000E-01   1.00800           0   0.00000     -0.301140E-02
      8522 MEMB     69       PMPE     H5Y      HAL2     0.900000E-01   1.00800           0   0.00000     -0.301140E-02
      8523 MEMB     69       PMPE     C36      CTL2    -0.180000       12.0110           0   0.00000     -0.301140E-02
      8524 MEMB     69       PMPE     H6X      HAL2     0.900000E-01   1.00800           0   0.00000     -0.301140E-02
      8525 MEMB     69       PMPE     H6Y      HAL2     0.900000E-01   1.00800           0   0.00000     -0.301140E-02
      8526 MEMB     69       PMPE     C37      CTL2    -0.180000       12.0110           0   0.00000     -0.301140E-02
      8527 MEMB     69       PMPE     H7X      HAL2     0.900000E-01   1.00800           0   0.00000     -0.301140E-02
      8528 MEMB     69       PMPE     H7Y      HAL2     0.900000E-01   1.00800           0   0.00000     -0.301140E-02
      8529 MEMB     69       PMPE     C38      CTL2    -0.180000       12.0110           0   0.00000     -0.301140E-02
      8530 MEMB     69       PMPE     H8X      HAL2     0.900000E-01   1.00800           0   0.00000     -0.301140E-02
      8531 MEMB     69       PMPE     H8Y      HAL2     0.900000E-01   1.00800           0   0.00000     -0.301140E-02
      8532 MEMB     69       PMPE     C39      CTL2    -0.180000       12.0110           0   0.00000     -0.301140E-02
      8533 MEMB     69       PMPE     H9X      HAL2     0.900000E-01   1.00800           0   0.00000     -0.301140E-02
      8534 MEMB     69       PMPE     H9Y      HAL2     0.900000E-01   1.00800           0   0.00000     -0.301140E-02
      8535 MEMB     69       PMPE     C310     CTL2    -0.180000       12.0110           0   0.00000     -0.301140E-02
      8536 MEMB     69       PMPE     H10X     HAL2     0.900000E-01   1.00800           0   0.00000     -0.301140E-02
      8537 MEMB     69       PMPE     H10Y     HAL2     0.900000E-01   1.00800           0   0.00000     -0.301140E-02
      8538 MEMB     69       PMPE     C311     CTL2    -0.180000       12.0110           0   0.00000     -0.301140E-02
      8539 MEMB     69       PMPE     H11X     HAL2     0.900000E-01   1.00800           0   0.00000     -0.301140E-02
      8540 MEMB     69       PMPE     H11Y     HAL2     0.900000E-01   1.00800           0   0.00000     -0.301140E-02
      8541 MEMB     69       PMPE     C312     CTL2    -0.180000       12.0110           0   0.00000     -0.301140E-02
      8542 MEMB     69       PMPE     H12X     HAL2     0.900000E-01   1.00800           0   0.00000     -0.301140E-02
      8543 MEMB     69       PMPE     H12Y     HAL2     0.900000E-01   1.00800           0   0.00000     -0.301140E-02
      8544 MEMB     69       PMPE     C313     CTL2    -0.180000       12.0110           0   0.00000     -0.301140E-02
      8545 MEMB     69       PMPE     H13X     HAL2     0.900000E-01   1.00800           0   0.00000     -0.301140E-02
      8546 MEMB     69       PMPE     H13Y     HAL2     0.900000E-01   1.00800           0   0.00000     -0.301140E-02
      8547 MEMB     69       PMPE     C314     CTL2    -0.180000       12.0110           0   0.00000     -0.301140E-02
      8548 MEMB     69       PMPE     H14X     HAL2     0.900000E-01   1.00800           0   0.00000     -0.301140E-02
      8549 MEMB     69       PMPE     H14Y     HAL2     0.900000E-01   1.00800           0   0.00000     -0.301140E-02
      8550 MEMB     69       PMPE     C315     CTL2    -0.180000       12.0110           0   0.00000     -0.301140E-02
      8551 MEMB     69       PMPE     H15X     HAL2     0.900000E-01   1.00800           0   0.00000     -0.301140E-02
      8552 MEMB     69       PMPE     H15Y     HAL2     0.900000E-01   1.00800           0   0.00000     -0.301140E-02
      8553 MEMB     69       PMPE     C316     CTL3    -0.270000       12.0110           0   0.00000     -0.301140E-02
      8554 MEMB     69       PMPE     H16X     HAL3     0.900000E-01   1.00800           0   0.00000     -0.301140E-02
      8555 MEMB     69       PMPE     H16Y     HAL3     0.900000E-01   1.00800           0   0.00000     -0.301140E-02
      8556 MEMB     69       PMPE     H16Z     HAL3     0.900000E-01   1.00800           0   0.00000     -0.301140E-02
      8557 MEMB     70       PMPE     N        NH3L    -0.300000       14.0070           0   0.00000     -0.301140E-02
      8558 MEMB     70       PMPE     HN1      HCL      0.330000       1.00800           0   0.00000     -0.301140E-02
      8559 MEMB     70       PMPE     HN2      HCL      0.330000       1.00800           0   0.00000     -0.301140E-02
      8560 MEMB     70       PMPE     HN3      HCL      0.330000       1.00800           0   0.00000     -0.301140E-02
      8561 MEMB     70       PMPE     C12      CTL2     0.130000       12.0110           0   0.00000     -0.301140E-02
      8562 MEMB     70       PMPE     H12A     HAL2     0.900000E-01   1.00800           0   0.00000     -0.301140E-02
      8563 MEMB     70       PMPE     H12B     HAL2     0.900000E-01   1.00800           0   0.00000     -0.301140E-02
      8564 MEMB     70       PMPE     C11      CTL2    -0.800000E-01   12.0110           0   0.00000     -0.301140E-02
      8565 MEMB     70       PMPE     H11A     HAL2     0.900000E-01   1.00800           0   0.00000     -0.301140E-02
      8566 MEMB     70       PMPE     H11B     HAL2     0.900000E-01   1.00800           0   0.00000     -0.301140E-02
      8567 MEMB     70       PMPE     P        PL        1.50000       30.9740           0   0.00000     -0.301140E-02
      8568 MEMB     70       PMPE     O13      O2L     -0.780000       15.9994           0   0.00000     -0.301140E-02
      8569 MEMB     70       PMPE     O14      O2L     -0.780000       15.9994           0   0.00000     -0.301140E-02
      8570 MEMB     70       PMPE     O11      OSLP    -0.570000       15.9994           0   0.00000     -0.301140E-02
      8571 MEMB     70       PMPE     O12      OSLP    -0.570000       15.9994           0   0.00000     -0.301140E-02
      8572 MEMB     70       PMPE     C1       CTL2    -0.800000E-01   12.0110           0   0.00000     -0.301140E-02
      8573 MEMB     70       PMPE     HA       HAL2     0.900000E-01   1.00800           0   0.00000     -0.301140E-02
      8574 MEMB     70       PMPE     HB       HAL2     0.900000E-01   1.00800           0   0.00000     -0.301140E-02
      8575 MEMB     70       PMPE     C2       CTL1     0.170000       12.0110           0   0.00000     -0.301140E-02
      8576 MEMB     70       PMPE     HS       HAL1     0.900000E-01   1.00800           0   0.00000     -0.301140E-02
      8577 MEMB     70       PMPE     O21      OSL     -0.490000       15.9994           0   0.00000     -0.301140E-02
      8578 MEMB     70       PMPE     C21      CL       0.900000       12.0110           0   0.00000     -0.301140E-02
      8579 MEMB     70       PMPE     O22      OBL     -0.630000       15.9994           0   0.00000     -0.301140E-02
      8580 MEMB     70       PMPE     C22      CTL2    -0.220000       12.0110           0   0.00000     -0.301140E-02
      8581 MEMB     70       PMPE     H2R      HAL2     0.900000E-01   1.00800           0   0.00000     -0.301140E-02
      8582 MEMB     70       PMPE     H2S      HAL2     0.900000E-01   1.00800           0   0.00000     -0.301140E-02
      8583 MEMB     70       PMPE     C3       CTL2     0.800000E-01   12.0110           0   0.00000     -0.301140E-02
      8584 MEMB     70       PMPE     HX       HAL2     0.900000E-01   1.00800           0   0.00000     -0.301140E-02
      8585 MEMB     70       PMPE     HY       HAL2     0.900000E-01   1.00800           0   0.00000     -0.301140E-02
      8586 MEMB     70       PMPE     O31      OSL     -0.490000       15.9994           0   0.00000     -0.301140E-02
      8587 MEMB     70       PMPE     C31      CL       0.900000       12.0110           0   0.00000     -0.301140E-02
      8588 MEMB     70       PMPE     O32      OBL     -0.630000       15.9994           0   0.00000     -0.301140E-02
      8589 MEMB     70       PMPE     C32      CTL2    -0.220000       12.0110           0   0.00000     -0.301140E-02
      8590 MEMB     70       PMPE     H2X      HAL2     0.900000E-01   1.00800           0   0.00000     -0.301140E-02
      8591 MEMB     70       PMPE     H2Y      HAL2     0.900000E-01   1.00800           0   0.00000     -0.301140E-02
      8592 MEMB     70       PMPE     C23      CTL2    -0.180000       12.0110           0   0.00000     -0.301140E-02
      8593 MEMB     70       PMPE     H3R      HAL2     0.900000E-01   1.00800           0   0.00000     -0.301140E-02
      8594 MEMB     70       PMPE     H3S      HAL2     0.900000E-01   1.00800           0   0.00000     -0.301140E-02
      8595 MEMB     70       PMPE     C24      CTL2    -0.180000       12.0110           0   0.00000     -0.301140E-02
      8596 MEMB     70       PMPE     H4R      HAL2     0.900000E-01   1.00800           0   0.00000     -0.301140E-02
      8597 MEMB     70       PMPE     H4S      HAL2     0.900000E-01   1.00800           0   0.00000     -0.301140E-02
      8598 MEMB     70       PMPE     C25      CTL2    -0.180000       12.0110           0   0.00000     -0.301140E-02
      8599 MEMB     70       PMPE     H5R      HAL2     0.900000E-01   1.00800           0   0.00000     -0.301140E-02
      8600 MEMB     70       PMPE     H5S      HAL2     0.900000E-01   1.00800           0   0.00000     -0.301140E-02
      8601 MEMB     70       PMPE     C26      CTL2    -0.180000       12.0110           0   0.00000     -0.301140E-02
      8602 MEMB     70       PMPE     H6R      HAL2     0.900000E-01   1.00800           0   0.00000     -0.301140E-02
      8603 MEMB     70       PMPE     H6S      HAL2     0.900000E-01   1.00800           0   0.00000     -0.301140E-02
      8604 MEMB     70       PMPE     C27      CTL2    -0.180000       12.0110           0   0.00000     -0.301140E-02
      8605 MEMB     70       PMPE     H7R      HAL2     0.900000E-01   1.00800           0   0.00000     -0.301140E-02
      8606 MEMB     70       PMPE     H7S      HAL2     0.900000E-01   1.00800           0   0.00000     -0.301140E-02
      8607 MEMB     70       PMPE     C28      CTL2    -0.180000       12.0110           0   0.00000     -0.301140E-02
      8608 MEMB     70       PMPE     H8R      HAL2     0.900000E-01   1.00800           0   0.00000     -0.301140E-02
      8609 MEMB     70       PMPE     H8S      HAL2     0.900000E-01   1.00800           0   0.00000     -0.301140E-02
      8610 MEMB     70       PMPE     C29      CG3RC1  -0.900000E-01   12.0110           0   0.00000     -0.301140E-02
      8611 MEMB     70       PMPE     H9R      HGA1     0.900000E-01   1.00800           0   0.00000     -0.301140E-02
      8612 MEMB     70       PMPE     C217     CG3C31  -0.180000       12.0110           0   0.00000     -0.301140E-02
      8613 MEMB     70       PMPE     H17R     HGA2     0.900000E-01   1.00800           0   0.00000     -0.301140E-02
      8614 MEMB     70       PMPE     H17S     HGA2     0.900000E-01   1.00800           0   0.00000     -0.301140E-02
      8615 MEMB     70       PMPE     C210     CG3RC1  -0.900000E-01   12.0110           0   0.00000     -0.301140E-02
      8616 MEMB     70       PMPE     H10R     HGA1     0.900000E-01   1.00800           0   0.00000     -0.301140E-02
      8617 MEMB     70       PMPE     C211     CTL2    -0.180000       12.0110           0   0.00000     -0.301140E-02
      8618 MEMB     70       PMPE     H11R     HAL2     0.900000E-01   1.00800           0   0.00000     -0.301140E-02
      8619 MEMB     70       PMPE     H11S     HAL2     0.900000E-01   1.00800           0   0.00000     -0.301140E-02
      8620 MEMB     70       PMPE     C212     CTL2    -0.180000       12.0110           0   0.00000     -0.301140E-02
      8621 MEMB     70       PMPE     H12R     HAL2     0.900000E-01   1.00800           0   0.00000     -0.301140E-02
      8622 MEMB     70       PMPE     H12S     HAL2     0.900000E-01   1.00800           0   0.00000     -0.301140E-02
      8623 MEMB     70       PMPE     C213     CTL2    -0.180000       12.0110           0   0.00000     -0.301140E-02
      8624 MEMB     70       PMPE     H13R     HAL2     0.900000E-01   1.00800           0   0.00000     -0.301140E-02
      8625 MEMB     70       PMPE     H13S     HAL2     0.900000E-01   1.00800           0   0.00000     -0.301140E-02
      8626 MEMB     70       PMPE     C214     CTL2    -0.180000       12.0110           0   0.00000     -0.301140E-02
      8627 MEMB     70       PMPE     H14R     HAL2     0.900000E-01   1.00800           0   0.00000     -0.301140E-02
      8628 MEMB     70       PMPE     H14S     HAL2     0.900000E-01   1.00800           0   0.00000     -0.301140E-02
      8629 MEMB     70       PMPE     C215     CTL2    -0.180000       12.0110           0   0.00000     -0.301140E-02
      8630 MEMB     70       PMPE     H15R     HAL2     0.900000E-01   1.00800           0   0.00000     -0.301140E-02
      8631 MEMB     70       PMPE     H15S     HAL2     0.900000E-01   1.00800           0   0.00000     -0.301140E-02
      8632 MEMB     70       PMPE     C216     CTL3    -0.270000       12.0110           0   0.00000     -0.301140E-02
      8633 MEMB     70       PMPE     H16R     HAL3     0.900000E-01   1.00800           0   0.00000     -0.301140E-02
      8634 MEMB     70       PMPE     H16S     HAL3     0.900000E-01   1.00800           0   0.00000     -0.301140E-02
      8635 MEMB     70       PMPE     H16T     HAL3     0.900000E-01   1.00800           0   0.00000     -0.301140E-02
      8636 MEMB     70       PMPE     C33      CTL2    -0.180000       12.0110           0   0.00000     -0.301140E-02
      8637 MEMB     70       PMPE     H3X      HAL2     0.900000E-01   1.00800           0   0.00000     -0.301140E-02
      8638 MEMB     70       PMPE     H3Y      HAL2     0.900000E-01   1.00800           0   0.00000     -0.301140E-02
      8639 MEMB     70       PMPE     C34      CTL2    -0.180000       12.0110           0   0.00000     -0.301140E-02
      8640 MEMB     70       PMPE     H4X      HAL2     0.900000E-01   1.00800           0   0.00000     -0.301140E-02
      8641 MEMB     70       PMPE     H4Y      HAL2     0.900000E-01   1.00800           0   0.00000     -0.301140E-02
      8642 MEMB     70       PMPE     C35      CTL2    -0.180000       12.0110           0   0.00000     -0.301140E-02
      8643 MEMB     70       PMPE     H5X      HAL2     0.900000E-01   1.00800           0   0.00000     -0.301140E-02
      8644 MEMB     70       PMPE     H5Y      HAL2     0.900000E-01   1.00800           0   0.00000     -0.301140E-02
      8645 MEMB     70       PMPE     C36      CTL2    -0.180000       12.0110           0   0.00000     -0.301140E-02
      8646 MEMB     70       PMPE     H6X      HAL2     0.900000E-01   1.00800           0   0.00000     -0.301140E-02
      8647 MEMB     70       PMPE     H6Y      HAL2     0.900000E-01   1.00800           0   0.00000     -0.301140E-02
      8648 MEMB     70       PMPE     C37      CTL2    -0.180000       12.0110           0   0.00000     -0.301140E-02
      8649 MEMB     70       PMPE     H7X      HAL2     0.900000E-01   1.00800           0   0.00000     -0.301140E-02
      8650 MEMB     70       PMPE     H7Y      HAL2     0.900000E-01   1.00800           0   0.00000     -0.301140E-02
      8651 MEMB     70       PMPE     C38      CTL2    -0.180000       12.0110           0   0.00000     -0.301140E-02
      8652 MEMB     70       PMPE     H8X      HAL2     0.900000E-01   1.00800           0   0.00000     -0.301140E-02
      8653 MEMB     70       PMPE     H8Y      HAL2     0.900000E-01   1.00800           0   0.00000     -0.301140E-02
      8654 MEMB     70       PMPE     C39      CTL2    -0.180000       12.0110           0   0.00000     -0.301140E-02
      8655 MEMB     70       PMPE     H9X      HAL2     0.900000E-01   1.00800           0   0.00000     -0.301140E-02
      8656 MEMB     70       PMPE     H9Y      HAL2     0.900000E-01   1.00800           0   0.00000     -0.301140E-02
      8657 MEMB     70       PMPE     C310     CTL2    -0.180000       12.0110           0   0.00000     -0.301140E-02
      8658 MEMB     70       PMPE     H10X     HAL2     0.900000E-01   1.00800           0   0.00000     -0.301140E-02
      8659 MEMB     70       PMPE     H10Y     HAL2     0.900000E-01   1.00800           0   0.00000     -0.301140E-02
      8660 MEMB     70       PMPE     C311     CTL2    -0.180000       12.0110           0   0.00000     -0.301140E-02
      8661 MEMB     70       PMPE     H11X     HAL2     0.900000E-01   1.00800           0   0.00000     -0.301140E-02
      8662 MEMB     70       PMPE     H11Y     HAL2     0.900000E-01   1.00800           0   0.00000     -0.301140E-02
      8663 MEMB     70       PMPE     C312     CTL2    -0.180000       12.0110           0   0.00000     -0.301140E-02
      8664 MEMB     70       PMPE     H12X     HAL2     0.900000E-01   1.00800           0   0.00000     -0.301140E-02
      8665 MEMB     70       PMPE     H12Y     HAL2     0.900000E-01   1.00800           0   0.00000     -0.301140E-02
      8666 MEMB     70       PMPE     C313     CTL2    -0.180000       12.0110           0   0.00000     -0.301140E-02
      8667 MEMB     70       PMPE     H13X     HAL2     0.900000E-01   1.00800           0   0.00000     -0.301140E-02
      8668 MEMB     70       PMPE     H13Y     HAL2     0.900000E-01   1.00800           0   0.00000     -0.301140E-02
      8669 MEMB     70       PMPE     C314     CTL2    -0.180000       12.0110           0   0.00000     -0.301140E-02
      8670 MEMB     70       PMPE     H14X     HAL2     0.900000E-01   1.00800           0   0.00000     -0.301140E-02
      8671 MEMB     70       PMPE     H14Y     HAL2     0.900000E-01   1.00800           0   0.00000     -0.301140E-02
      8672 MEMB     70       PMPE     C315     CTL2    -0.180000       12.0110           0   0.00000     -0.301140E-02
      8673 MEMB     70       PMPE     H15X     HAL2     0.900000E-01   1.00800           0   0.00000     -0.301140E-02
      8674 MEMB     70       PMPE     H15Y     HAL2     0.900000E-01   1.00800           0   0.00000     -0.301140E-02
      8675 MEMB     70       PMPE     C316     CTL3    -0.270000       12.0110           0   0.00000     -0.301140E-02
      8676 MEMB     70       PMPE     H16X     HAL3     0.900000E-01   1.00800           0   0.00000     -0.301140E-02
      8677 MEMB     70       PMPE     H16Y     HAL3     0.900000E-01   1.00800           0   0.00000     -0.301140E-02
      8678 MEMB     70       PMPE     H16Z     HAL3     0.900000E-01   1.00800           0   0.00000     -0.301140E-02
      8679 MEMB     71       PMPE     N        NH3L    -0.300000       14.0070           0   0.00000     -0.301140E-02
      8680 MEMB     71       PMPE     HN1      HCL      0.330000       1.00800           0   0.00000     -0.301140E-02
      8681 MEMB     71       PMPE     HN2      HCL      0.330000       1.00800           0   0.00000     -0.301140E-02
      8682 MEMB     71       PMPE     HN3      HCL      0.330000       1.00800           0   0.00000     -0.301140E-02
      8683 MEMB     71       PMPE     C12      CTL2     0.130000       12.0110           0   0.00000     -0.301140E-02
      8684 MEMB     71       PMPE     H12A     HAL2     0.900000E-01   1.00800           0   0.00000     -0.301140E-02
      8685 MEMB     71       PMPE     H12B     HAL2     0.900000E-01   1.00800           0   0.00000     -0.301140E-02
      8686 MEMB     71       PMPE     C11      CTL2    -0.800000E-01   12.0110           0   0.00000     -0.301140E-02
      8687 MEMB     71       PMPE     H11A     HAL2     0.900000E-01   1.00800           0   0.00000     -0.301140E-02
      8688 MEMB     71       PMPE     H11B     HAL2     0.900000E-01   1.00800           0   0.00000     -0.301140E-02
      8689 MEMB     71       PMPE     P        PL        1.50000       30.9740           0   0.00000     -0.301140E-02
      8690 MEMB     71       PMPE     O13      O2L     -0.780000       15.9994           0   0.00000     -0.301140E-02
      8691 MEMB     71       PMPE     O14      O2L     -0.780000       15.9994           0   0.00000     -0.301140E-02
      8692 MEMB     71       PMPE     O11      OSLP    -0.570000       15.9994           0   0.00000     -0.301140E-02
      8693 MEMB     71       PMPE     O12      OSLP    -0.570000       15.9994           0   0.00000     -0.301140E-02
      8694 MEMB     71       PMPE     C1       CTL2    -0.800000E-01   12.0110           0   0.00000     -0.301140E-02
      8695 MEMB     71       PMPE     HA       HAL2     0.900000E-01   1.00800           0   0.00000     -0.301140E-02
      8696 MEMB     71       PMPE     HB       HAL2     0.900000E-01   1.00800           0   0.00000     -0.301140E-02
      8697 MEMB     71       PMPE     C2       CTL1     0.170000       12.0110           0   0.00000     -0.301140E-02
      8698 MEMB     71       PMPE     HS       HAL1     0.900000E-01   1.00800           0   0.00000     -0.301140E-02
      8699 MEMB     71       PMPE     O21      OSL     -0.490000       15.9994           0   0.00000     -0.301140E-02
      8700 MEMB     71       PMPE     C21      CL       0.900000       12.0110           0   0.00000     -0.301140E-02
      8701 MEMB     71       PMPE     O22      OBL     -0.630000       15.9994           0   0.00000     -0.301140E-02
      8702 MEMB     71       PMPE     C22      CTL2    -0.220000       12.0110           0   0.00000     -0.301140E-02
      8703 MEMB     71       PMPE     H2R      HAL2     0.900000E-01   1.00800           0   0.00000     -0.301140E-02
      8704 MEMB     71       PMPE     H2S      HAL2     0.900000E-01   1.00800           0   0.00000     -0.301140E-02
      8705 MEMB     71       PMPE     C3       CTL2     0.800000E-01   12.0110           0   0.00000     -0.301140E-02
      8706 MEMB     71       PMPE     HX       HAL2     0.900000E-01   1.00800           0   0.00000     -0.301140E-02
      8707 MEMB     71       PMPE     HY       HAL2     0.900000E-01   1.00800           0   0.00000     -0.301140E-02
      8708 MEMB     71       PMPE     O31      OSL     -0.490000       15.9994           0   0.00000     -0.301140E-02
      8709 MEMB     71       PMPE     C31      CL       0.900000       12.0110           0   0.00000     -0.301140E-02
      8710 MEMB     71       PMPE     O32      OBL     -0.630000       15.9994           0   0.00000     -0.301140E-02
      8711 MEMB     71       PMPE     C32      CTL2    -0.220000       12.0110           0   0.00000     -0.301140E-02
      8712 MEMB     71       PMPE     H2X      HAL2     0.900000E-01   1.00800           0   0.00000     -0.301140E-02
      8713 MEMB     71       PMPE     H2Y      HAL2     0.900000E-01   1.00800           0   0.00000     -0.301140E-02
      8714 MEMB     71       PMPE     C23      CTL2    -0.180000       12.0110           0   0.00000     -0.301140E-02
      8715 MEMB     71       PMPE     H3R      HAL2     0.900000E-01   1.00800           0   0.00000     -0.301140E-02
      8716 MEMB     71       PMPE     H3S      HAL2     0.900000E-01   1.00800           0   0.00000     -0.301140E-02
      8717 MEMB     71       PMPE     C24      CTL2    -0.180000       12.0110           0   0.00000     -0.301140E-02
      8718 MEMB     71       PMPE     H4R      HAL2     0.900000E-01   1.00800           0   0.00000     -0.301140E-02
      8719 MEMB     71       PMPE     H4S      HAL2     0.900000E-01   1.00800           0   0.00000     -0.301140E-02
      8720 MEMB     71       PMPE     C25      CTL2    -0.180000       12.0110           0   0.00000     -0.301140E-02
      8721 MEMB     71       PMPE     H5R      HAL2     0.900000E-01   1.00800           0   0.00000     -0.301140E-02
      8722 MEMB     71       PMPE     H5S      HAL2     0.900000E-01   1.00800           0   0.00000     -0.301140E-02
      8723 MEMB     71       PMPE     C26      CTL2    -0.180000       12.0110           0   0.00000     -0.301140E-02
      8724 MEMB     71       PMPE     H6R      HAL2     0.900000E-01   1.00800           0   0.00000     -0.301140E-02
      8725 MEMB     71       PMPE     H6S      HAL2     0.900000E-01   1.00800           0   0.00000     -0.301140E-02
      8726 MEMB     71       PMPE     C27      CTL2    -0.180000       12.0110           0   0.00000     -0.301140E-02
      8727 MEMB     71       PMPE     H7R      HAL2     0.900000E-01   1.00800           0   0.00000     -0.301140E-02
      8728 MEMB     71       PMPE     H7S      HAL2     0.900000E-01   1.00800           0   0.00000     -0.301140E-02
      8729 MEMB     71       PMPE     C28      CTL2    -0.180000       12.0110           0   0.00000     -0.301140E-02
      8730 MEMB     71       PMPE     H8R      HAL2     0.900000E-01   1.00800           0   0.00000     -0.301140E-02
      8731 MEMB     71       PMPE     H8S      HAL2     0.900000E-01   1.00800           0   0.00000     -0.301140E-02
      8732 MEMB     71       PMPE     C29      CG3RC1  -0.900000E-01   12.0110           0   0.00000     -0.301140E-02
      8733 MEMB     71       PMPE     H9R      HGA1     0.900000E-01   1.00800           0   0.00000     -0.301140E-02
      8734 MEMB     71       PMPE     C217     CG3C31  -0.180000       12.0110           0   0.00000     -0.301140E-02
      8735 MEMB     71       PMPE     H17R     HGA2     0.900000E-01   1.00800           0   0.00000     -0.301140E-02
      8736 MEMB     71       PMPE     H17S     HGA2     0.900000E-01   1.00800           0   0.00000     -0.301140E-02
      8737 MEMB     71       PMPE     C210     CG3RC1  -0.900000E-01   12.0110           0   0.00000     -0.301140E-02
      8738 MEMB     71       PMPE     H10R     HGA1     0.900000E-01   1.00800           0   0.00000     -0.301140E-02
      8739 MEMB     71       PMPE     C211     CTL2    -0.180000       12.0110           0   0.00000     -0.301140E-02
      8740 MEMB     71       PMPE     H11R     HAL2     0.900000E-01   1.00800           0   0.00000     -0.301140E-02
      8741 MEMB     71       PMPE     H11S     HAL2     0.900000E-01   1.00800           0   0.00000     -0.301140E-02
      8742 MEMB     71       PMPE     C212     CTL2    -0.180000       12.0110           0   0.00000     -0.301140E-02
      8743 MEMB     71       PMPE     H12R     HAL2     0.900000E-01   1.00800           0   0.00000     -0.301140E-02
      8744 MEMB     71       PMPE     H12S     HAL2     0.900000E-01   1.00800           0   0.00000     -0.301140E-02
      8745 MEMB     71       PMPE     C213     CTL2    -0.180000       12.0110           0   0.00000     -0.301140E-02
      8746 MEMB     71       PMPE     H13R     HAL2     0.900000E-01   1.00800           0   0.00000     -0.301140E-02
      8747 MEMB     71       PMPE     H13S     HAL2     0.900000E-01   1.00800           0   0.00000     -0.301140E-02
      8748 MEMB     71       PMPE     C214     CTL2    -0.180000       12.0110           0   0.00000     -0.301140E-02
      8749 MEMB     71       PMPE     H14R     HAL2     0.900000E-01   1.00800           0   0.00000     -0.301140E-02
      8750 MEMB     71       PMPE     H14S     HAL2     0.900000E-01   1.00800           0   0.00000     -0.301140E-02
      8751 MEMB     71       PMPE     C215     CTL2    -0.180000       12.0110           0   0.00000     -0.301140E-02
      8752 MEMB     71       PMPE     H15R     HAL2     0.900000E-01   1.00800           0   0.00000     -0.301140E-02
      8753 MEMB     71       PMPE     H15S     HAL2     0.900000E-01   1.00800           0   0.00000     -0.301140E-02
      8754 MEMB     71       PMPE     C216     CTL3    -0.270000       12.0110           0   0.00000     -0.301140E-02
      8755 MEMB     71       PMPE     H16R     HAL3     0.900000E-01   1.00800           0   0.00000     -0.301140E-02
      8756 MEMB     71       PMPE     H16S     HAL3     0.900000E-01   1.00800           0   0.00000     -0.301140E-02
      8757 MEMB     71       PMPE     H16T     HAL3     0.900000E-01   1.00800           0   0.00000     -0.301140E-02
      8758 MEMB     71       PMPE     C33      CTL2    -0.180000       12.0110           0   0.00000     -0.301140E-02
      8759 MEMB     71       PMPE     H3X      HAL2     0.900000E-01   1.00800           0   0.00000     -0.301140E-02
      8760 MEMB     71       PMPE     H3Y      HAL2     0.900000E-01   1.00800           0   0.00000     -0.301140E-02
      8761 MEMB     71       PMPE     C34      CTL2    -0.180000       12.0110           0   0.00000     -0.301140E-02
      8762 MEMB     71       PMPE     H4X      HAL2     0.900000E-01   1.00800           0   0.00000     -0.301140E-02
      8763 MEMB     71       PMPE     H4Y      HAL2     0.900000E-01   1.00800           0   0.00000     -0.301140E-02
      8764 MEMB     71       PMPE     C35      CTL2    -0.180000       12.0110           0   0.00000     -0.301140E-02
      8765 MEMB     71       PMPE     H5X      HAL2     0.900000E-01   1.00800           0   0.00000     -0.301140E-02
      8766 MEMB     71       PMPE     H5Y      HAL2     0.900000E-01   1.00800           0   0.00000     -0.301140E-02
      8767 MEMB     71       PMPE     C36      CTL2    -0.180000       12.0110           0   0.00000     -0.301140E-02
      8768 MEMB     71       PMPE     H6X      HAL2     0.900000E-01   1.00800           0   0.00000     -0.301140E-02
      8769 MEMB     71       PMPE     H6Y      HAL2     0.900000E-01   1.00800           0   0.00000     -0.301140E-02
      8770 MEMB     71       PMPE     C37      CTL2    -0.180000       12.0110           0   0.00000     -0.301140E-02
      8771 MEMB     71       PMPE     H7X      HAL2     0.900000E-01   1.00800           0   0.00000     -0.301140E-02
      8772 MEMB     71       PMPE     H7Y      HAL2     0.900000E-01   1.00800           0   0.00000     -0.301140E-02
      8773 MEMB     71       PMPE     C38      CTL2    -0.180000       12.0110           0   0.00000     -0.301140E-02
      8774 MEMB     71       PMPE     H8X      HAL2     0.900000E-01   1.00800           0   0.00000     -0.301140E-02
      8775 MEMB     71       PMPE     H8Y      HAL2     0.900000E-01   1.00800           0   0.00000     -0.301140E-02
      8776 MEMB     71       PMPE     C39      CTL2    -0.180000       12.0110           0   0.00000     -0.301140E-02
      8777 MEMB     71       PMPE     H9X      HAL2     0.900000E-01   1.00800           0   0.00000     -0.301140E-02
      8778 MEMB     71       PMPE     H9Y      HAL2     0.900000E-01   1.00800           0   0.00000     -0.301140E-02
      8779 MEMB     71       PMPE     C310     CTL2    -0.180000       12.0110           0   0.00000     -0.301140E-02
      8780 MEMB     71       PMPE     H10X     HAL2     0.900000E-01   1.00800           0   0.00000     -0.301140E-02
      8781 MEMB     71       PMPE     H10Y     HAL2     0.900000E-01   1.00800           0   0.00000     -0.301140E-02
      8782 MEMB     71       PMPE     C311     CTL2    -0.180000       12.0110           0   0.00000     -0.301140E-02
      8783 MEMB     71       PMPE     H11X     HAL2     0.900000E-01   1.00800           0   0.00000     -0.301140E-02
      8784 MEMB     71       PMPE     H11Y     HAL2     0.900000E-01   1.00800           0   0.00000     -0.301140E-02
      8785 MEMB     71       PMPE     C312     CTL2    -0.180000       12.0110           0   0.00000     -0.301140E-02
      8786 MEMB     71       PMPE     H12X     HAL2     0.900000E-01   1.00800           0   0.00000     -0.301140E-02
      8787 MEMB     71       PMPE     H12Y     HAL2     0.900000E-01   1.00800           0   0.00000     -0.301140E-02
      8788 MEMB     71       PMPE     C313     CTL2    -0.180000       12.0110           0   0.00000     -0.301140E-02
      8789 MEMB     71       PMPE     H13X     HAL2     0.900000E-01   1.00800           0   0.00000     -0.301140E-02
      8790 MEMB     71       PMPE     H13Y     HAL2     0.900000E-01   1.00800           0   0.00000     -0.301140E-02
      8791 MEMB     71       PMPE     C314     CTL2    -0.180000       12.0110           0   0.00000     -0.301140E-02
      8792 MEMB     71       PMPE     H14X     HAL2     0.900000E-01   1.00800           0   0.00000     -0.301140E-02
      8793 MEMB     71       PMPE     H14Y     HAL2     0.900000E-01   1.00800           0   0.00000     -0.301140E-02
      8794 MEMB     71       PMPE     C315     CTL2    -0.180000       12.0110           0   0.00000     -0.301140E-02
      8795 MEMB     71       PMPE     H15X     HAL2     0.900000E-01   1.00800           0   0.00000     -0.301140E-02
      8796 MEMB     71       PMPE     H15Y     HAL2     0.900000E-01   1.00800           0   0.00000     -0.301140E-02
      8797 MEMB     71       PMPE     C316     CTL3    -0.270000       12.0110           0   0.00000     -0.301140E-02
      8798 MEMB     71       PMPE     H16X     HAL3     0.900000E-01   1.00800           0   0.00000     -0.301140E-02
      8799 MEMB     71       PMPE     H16Y     HAL3     0.900000E-01   1.00800           0   0.00000     -0.301140E-02
      8800 MEMB     71       PMPE     H16Z     HAL3     0.900000E-01   1.00800           0   0.00000     -0.301140E-02
      8801 MEMB     72       PMPE     N        NH3L    -0.300000       14.0070           0   0.00000     -0.301140E-02
      8802 MEMB     72       PMPE     HN1      HCL      0.330000       1.00800           0   0.00000     -0.301140E-02
      8803 MEMB     72       PMPE     HN2      HCL      0.330000       1.00800           0   0.00000     -0.301140E-02
      8804 MEMB     72       PMPE     HN3      HCL      0.330000       1.00800           0   0.00000     -0.301140E-02
      8805 MEMB     72       PMPE     C12      CTL2     0.130000       12.0110           0   0.00000     -0.301140E-02
      8806 MEMB     72       PMPE     H12A     HAL2     0.900000E-01   1.00800           0   0.00000     -0.301140E-02
      8807 MEMB     72       PMPE     H12B     HAL2     0.900000E-01   1.00800           0   0.00000     -0.301140E-02
      8808 MEMB     72       PMPE     C11      CTL2    -0.800000E-01   12.0110           0   0.00000     -0.301140E-02
      8809 MEMB     72       PMPE     H11A     HAL2     0.900000E-01   1.00800           0   0.00000     -0.301140E-02
      8810 MEMB     72       PMPE     H11B     HAL2     0.900000E-01   1.00800           0   0.00000     -0.301140E-02
      8811 MEMB     72       PMPE     P        PL        1.50000       30.9740           0   0.00000     -0.301140E-02
      8812 MEMB     72       PMPE     O13      O2L     -0.780000       15.9994           0   0.00000     -0.301140E-02
      8813 MEMB     72       PMPE     O14      O2L     -0.780000       15.9994           0   0.00000     -0.301140E-02
      8814 MEMB     72       PMPE     O11      OSLP    -0.570000       15.9994           0   0.00000     -0.301140E-02
      8815 MEMB     72       PMPE     O12      OSLP    -0.570000       15.9994           0   0.00000     -0.301140E-02
      8816 MEMB     72       PMPE     C1       CTL2    -0.800000E-01   12.0110           0   0.00000     -0.301140E-02
      8817 MEMB     72       PMPE     HA       HAL2     0.900000E-01   1.00800           0   0.00000     -0.301140E-02
      8818 MEMB     72       PMPE     HB       HAL2     0.900000E-01   1.00800           0   0.00000     -0.301140E-02
      8819 MEMB     72       PMPE     C2       CTL1     0.170000       12.0110           0   0.00000     -0.301140E-02
      8820 MEMB     72       PMPE     HS       HAL1     0.900000E-01   1.00800           0   0.00000     -0.301140E-02
      8821 MEMB     72       PMPE     O21      OSL     -0.490000       15.9994           0   0.00000     -0.301140E-02
      8822 MEMB     72       PMPE     C21      CL       0.900000       12.0110           0   0.00000     -0.301140E-02
      8823 MEMB     72       PMPE     O22      OBL     -0.630000       15.9994           0   0.00000     -0.301140E-02
      8824 MEMB     72       PMPE     C22      CTL2    -0.220000       12.0110           0   0.00000     -0.301140E-02
      8825 MEMB     72       PMPE     H2R      HAL2     0.900000E-01   1.00800           0   0.00000     -0.301140E-02
      8826 MEMB     72       PMPE     H2S      HAL2     0.900000E-01   1.00800           0   0.00000     -0.301140E-02
      8827 MEMB     72       PMPE     C3       CTL2     0.800000E-01   12.0110           0   0.00000     -0.301140E-02
      8828 MEMB     72       PMPE     HX       HAL2     0.900000E-01   1.00800           0   0.00000     -0.301140E-02
      8829 MEMB     72       PMPE     HY       HAL2     0.900000E-01   1.00800           0   0.00000     -0.301140E-02
      8830 MEMB     72       PMPE     O31      OSL     -0.490000       15.9994           0   0.00000     -0.301140E-02
      8831 MEMB     72       PMPE     C31      CL       0.900000       12.0110           0   0.00000     -0.301140E-02
      8832 MEMB     72       PMPE     O32      OBL     -0.630000       15.9994           0   0.00000     -0.301140E-02
      8833 MEMB     72       PMPE     C32      CTL2    -0.220000       12.0110           0   0.00000     -0.301140E-02
      8834 MEMB     72       PMPE     H2X      HAL2     0.900000E-01   1.00800           0   0.00000     -0.301140E-02
      8835 MEMB     72       PMPE     H2Y      HAL2     0.900000E-01   1.00800           0   0.00000     -0.301140E-02
      8836 MEMB     72       PMPE     C23      CTL2    -0.180000       12.0110           0   0.00000     -0.301140E-02
      8837 MEMB     72       PMPE     H3R      HAL2     0.900000E-01   1.00800           0   0.00000     -0.301140E-02
      8838 MEMB     72       PMPE     H3S      HAL2     0.900000E-01   1.00800           0   0.00000     -0.301140E-02
      8839 MEMB     72       PMPE     C24      CTL2    -0.180000       12.0110           0   0.00000     -0.301140E-02
      8840 MEMB     72       PMPE     H4R      HAL2     0.900000E-01   1.00800           0   0.00000     -0.301140E-02
      8841 MEMB     72       PMPE     H4S      HAL2     0.900000E-01   1.00800           0   0.00000     -0.301140E-02
      8842 MEMB     72       PMPE     C25      CTL2    -0.180000       12.0110           0   0.00000     -0.301140E-02
      8843 MEMB     72       PMPE     H5R      HAL2     0.900000E-01   1.00800           0   0.00000     -0.301140E-02
      8844 MEMB     72       PMPE     H5S      HAL2     0.900000E-01   1.00800           0   0.00000     -0.301140E-02
      8845 MEMB     72       PMPE     C26      CTL2    -0.180000       12.0110           0   0.00000     -0.301140E-02
      8846 MEMB     72       PMPE     H6R      HAL2     0.900000E-01   1.00800           0   0.00000     -0.301140E-02
      8847 MEMB     72       PMPE     H6S      HAL2     0.900000E-01   1.00800           0   0.00000     -0.301140E-02
      8848 MEMB     72       PMPE     C27      CTL2    -0.180000       12.0110           0   0.00000     -0.301140E-02
      8849 MEMB     72       PMPE     H7R      HAL2     0.900000E-01   1.00800           0   0.00000     -0.301140E-02
      8850 MEMB     72       PMPE     H7S      HAL2     0.900000E-01   1.00800           0   0.00000     -0.301140E-02
      8851 MEMB     72       PMPE     C28      CTL2    -0.180000       12.0110           0   0.00000     -0.301140E-02
      8852 MEMB     72       PMPE     H8R      HAL2     0.900000E-01   1.00800           0   0.00000     -0.301140E-02
      8853 MEMB     72       PMPE     H8S      HAL2     0.900000E-01   1.00800           0   0.00000     -0.301140E-02
      8854 MEMB     72       PMPE     C29      CG3RC1  -0.900000E-01   12.0110           0   0.00000     -0.301140E-02
      8855 MEMB     72       PMPE     H9R      HGA1     0.900000E-01   1.00800           0   0.00000     -0.301140E-02
      8856 MEMB     72       PMPE     C217     CG3C31  -0.180000       12.0110           0   0.00000     -0.301140E-02
      8857 MEMB     72       PMPE     H17R     HGA2     0.900000E-01   1.00800           0   0.00000     -0.301140E-02
      8858 MEMB     72       PMPE     H17S     HGA2     0.900000E-01   1.00800           0   0.00000     -0.301140E-02
      8859 MEMB     72       PMPE     C210     CG3RC1  -0.900000E-01   12.0110           0   0.00000     -0.301140E-02
      8860 MEMB     72       PMPE     H10R     HGA1     0.900000E-01   1.00800           0   0.00000     -0.301140E-02
      8861 MEMB     72       PMPE     C211     CTL2    -0.180000       12.0110           0   0.00000     -0.301140E-02
      8862 MEMB     72       PMPE     H11R     HAL2     0.900000E-01   1.00800           0   0.00000     -0.301140E-02
      8863 MEMB     72       PMPE     H11S     HAL2     0.900000E-01   1.00800           0   0.00000     -0.301140E-02
      8864 MEMB     72       PMPE     C212     CTL2    -0.180000       12.0110           0   0.00000     -0.301140E-02
      8865 MEMB     72       PMPE     H12R     HAL2     0.900000E-01   1.00800           0   0.00000     -0.301140E-02
      8866 MEMB     72       PMPE     H12S     HAL2     0.900000E-01   1.00800           0   0.00000     -0.301140E-02
      8867 MEMB     72       PMPE     C213     CTL2    -0.180000       12.0110           0   0.00000     -0.301140E-02
      8868 MEMB     72       PMPE     H13R     HAL2     0.900000E-01   1.00800           0   0.00000     -0.301140E-02
      8869 MEMB     72       PMPE     H13S     HAL2     0.900000E-01   1.00800           0   0.00000     -0.301140E-02
      8870 MEMB     72       PMPE     C214     CTL2    -0.180000       12.0110           0   0.00000     -0.301140E-02
      8871 MEMB     72       PMPE     H14R     HAL2     0.900000E-01   1.00800           0   0.00000     -0.301140E-02
      8872 MEMB     72       PMPE     H14S     HAL2     0.900000E-01   1.00800           0   0.00000     -0.301140E-02
      8873 MEMB     72       PMPE     C215     CTL2    -0.180000       12.0110           0   0.00000     -0.301140E-02
      8874 MEMB     72       PMPE     H15R     HAL2     0.900000E-01   1.00800           0   0.00000     -0.301140E-02
      8875 MEMB     72       PMPE     H15S     HAL2     0.900000E-01   1.00800           0   0.00000     -0.301140E-02
      8876 MEMB     72       PMPE     C216     CTL3    -0.270000       12.0110           0   0.00000     -0.301140E-02
      8877 MEMB     72       PMPE     H16R     HAL3     0.900000E-01   1.00800           0   0.00000     -0.301140E-02
      8878 MEMB     72       PMPE     H16S     HAL3     0.900000E-01   1.00800           0   0.00000     -0.301140E-02
      8879 MEMB     72       PMPE     H16T     HAL3     0.900000E-01   1.00800           0   0.00000     -0.301140E-02
      8880 MEMB     72       PMPE     C33      CTL2    -0.180000       12.0110           0   0.00000     -0.301140E-02
      8881 MEMB     72       PMPE     H3X      HAL2     0.900000E-01   1.00800           0   0.00000     -0.301140E-02
      8882 MEMB     72       PMPE     H3Y      HAL2     0.900000E-01   1.00800           0   0.00000     -0.301140E-02
      8883 MEMB     72       PMPE     C34      CTL2    -0.180000       12.0110           0   0.00000     -0.301140E-02
      8884 MEMB     72       PMPE     H4X      HAL2     0.900000E-01   1.00800           0   0.00000     -0.301140E-02
      8885 MEMB     72       PMPE     H4Y      HAL2     0.900000E-01   1.00800           0   0.00000     -0.301140E-02
      8886 MEMB     72       PMPE     C35      CTL2    -0.180000       12.0110           0   0.00000     -0.301140E-02
      8887 MEMB     72       PMPE     H5X      HAL2     0.900000E-01   1.00800           0   0.00000     -0.301140E-02
      8888 MEMB     72       PMPE     H5Y      HAL2     0.900000E-01   1.00800           0   0.00000     -0.301140E-02
      8889 MEMB     72       PMPE     C36      CTL2    -0.180000       12.0110           0   0.00000     -0.301140E-02
      8890 MEMB     72       PMPE     H6X      HAL2     0.900000E-01   1.00800           0   0.00000     -0.301140E-02
      8891 MEMB     72       PMPE     H6Y      HAL2     0.900000E-01   1.00800           0   0.00000     -0.301140E-02
      8892 MEMB     72       PMPE     C37      CTL2    -0.180000       12.0110           0   0.00000     -0.301140E-02
      8893 MEMB     72       PMPE     H7X      HAL2     0.900000E-01   1.00800           0   0.00000     -0.301140E-02
      8894 MEMB     72       PMPE     H7Y      HAL2     0.900000E-01   1.00800           0   0.00000     -0.301140E-02
      8895 MEMB     72       PMPE     C38      CTL2    -0.180000       12.0110           0   0.00000     -0.301140E-02
      8896 MEMB     72       PMPE     H8X      HAL2     0.900000E-01   1.00800           0   0.00000     -0.301140E-02
      8897 MEMB     72       PMPE     H8Y      HAL2     0.900000E-01   1.00800           0   0.00000     -0.301140E-02
      8898 MEMB     72       PMPE     C39      CTL2    -0.180000       12.0110           0   0.00000     -0.301140E-02
      8899 MEMB     72       PMPE     H9X      HAL2     0.900000E-01   1.00800           0   0.00000     -0.301140E-02
      8900 MEMB     72       PMPE     H9Y      HAL2     0.900000E-01   1.00800           0   0.00000     -0.301140E-02
      8901 MEMB     72       PMPE     C310     CTL2    -0.180000       12.0110           0   0.00000     -0.301140E-02
      8902 MEMB     72       PMPE     H10X     HAL2     0.900000E-01   1.00800           0   0.00000     -0.301140E-02
      8903 MEMB     72       PMPE     H10Y     HAL2     0.900000E-01   1.00800           0   0.00000     -0.301140E-02
      8904 MEMB     72       PMPE     C311     CTL2    -0.180000       12.0110           0   0.00000     -0.301140E-02
      8905 MEMB     72       PMPE     H11X     HAL2     0.900000E-01   1.00800           0   0.00000     -0.301140E-02
      8906 MEMB     72       PMPE     H11Y     HAL2     0.900000E-01   1.00800           0   0.00000     -0.301140E-02
      8907 MEMB     72       PMPE     C312     CTL2    -0.180000       12.0110           0   0.00000     -0.301140E-02
      8908 MEMB     72       PMPE     H12X     HAL2     0.900000E-01   1.00800           0   0.00000     -0.301140E-02
      8909 MEMB     72       PMPE     H12Y     HAL2     0.900000E-01   1.00800           0   0.00000     -0.301140E-02
      8910 MEMB     72       PMPE     C313     CTL2    -0.180000       12.0110           0   0.00000     -0.301140E-02
      8911 MEMB     72       PMPE     H13X     HAL2     0.900000E-01   1.00800           0   0.00000     -0.301140E-02
      8912 MEMB     72       PMPE     H13Y     HAL2     0.900000E-01   1.00800           0   0.00000     -0.301140E-02
      8913 MEMB     72       PMPE     C314     CTL2    -0.180000       12.0110           0   0.00000     -0.301140E-02
      8914 MEMB     72       PMPE     H14X     HAL2     0.900000E-01   1.00800           0   0.00000     -0.301140E-02
      8915 MEMB     72       PMPE     H14Y     HAL2     0.900000E-01   1.00800           0   0.00000     -0.301140E-02
      8916 MEMB     72       PMPE     C315     CTL2    -0.180000       12.0110           0   0.00000     -0.301140E-02
      8917 MEMB     72       PMPE     H15X     HAL2     0.900000E-01   1.00800           0   0.00000     -0.301140E-02
      8918 MEMB     72       PMPE     H15Y     HAL2     0.900000E-01   1.00800           0   0.00000     -0.301140E-02
      8919 MEMB     72       PMPE     C316     CTL3    -0.270000       12.0110           0   0.00000     -0.301140E-02
      8920 MEMB     72       PMPE     H16X     HAL3     0.900000E-01   1.00800           0   0.00000     -0.301140E-02
      8921 MEMB     72       PMPE     H16Y     HAL3     0.900000E-01   1.00800           0   0.00000     -0.301140E-02
      8922 MEMB     72       PMPE     H16Z     HAL3     0.900000E-01   1.00800           0   0.00000     -0.301140E-02
      8923 MEMB     73       PMPE     N        NH3L    -0.300000       14.0070           0   0.00000     -0.301140E-02
      8924 MEMB     73       PMPE     HN1      HCL      0.330000       1.00800           0   0.00000     -0.301140E-02
      8925 MEMB     73       PMPE     HN2      HCL      0.330000       1.00800           0   0.00000     -0.301140E-02
      8926 MEMB     73       PMPE     HN3      HCL      0.330000       1.00800           0   0.00000     -0.301140E-02
      8927 MEMB     73       PMPE     C12      CTL2     0.130000       12.0110           0   0.00000     -0.301140E-02
      8928 MEMB     73       PMPE     H12A     HAL2     0.900000E-01   1.00800           0   0.00000     -0.301140E-02
      8929 MEMB     73       PMPE     H12B     HAL2     0.900000E-01   1.00800           0   0.00000     -0.301140E-02
      8930 MEMB     73       PMPE     C11      CTL2    -0.800000E-01   12.0110           0   0.00000     -0.301140E-02
      8931 MEMB     73       PMPE     H11A     HAL2     0.900000E-01   1.00800           0   0.00000     -0.301140E-02
      8932 MEMB     73       PMPE     H11B     HAL2     0.900000E-01   1.00800           0   0.00000     -0.301140E-02
      8933 MEMB     73       PMPE     P        PL        1.50000       30.9740           0   0.00000     -0.301140E-02
      8934 MEMB     73       PMPE     O13      O2L     -0.780000       15.9994           0   0.00000     -0.301140E-02
      8935 MEMB     73       PMPE     O14      O2L     -0.780000       15.9994           0   0.00000     -0.301140E-02
      8936 MEMB     73       PMPE     O11      OSLP    -0.570000       15.9994           0   0.00000     -0.301140E-02
      8937 MEMB     73       PMPE     O12      OSLP    -0.570000       15.9994           0   0.00000     -0.301140E-02
      8938 MEMB     73       PMPE     C1       CTL2    -0.800000E-01   12.0110           0   0.00000     -0.301140E-02
      8939 MEMB     73       PMPE     HA       HAL2     0.900000E-01   1.00800           0   0.00000     -0.301140E-02
      8940 MEMB     73       PMPE     HB       HAL2     0.900000E-01   1.00800           0   0.00000     -0.301140E-02
      8941 MEMB     73       PMPE     C2       CTL1     0.170000       12.0110           0   0.00000     -0.301140E-02
      8942 MEMB     73       PMPE     HS       HAL1     0.900000E-01   1.00800           0   0.00000     -0.301140E-02
      8943 MEMB     73       PMPE     O21      OSL     -0.490000       15.9994           0   0.00000     -0.301140E-02
      8944 MEMB     73       PMPE     C21      CL       0.900000       12.0110           0   0.00000     -0.301140E-02
      8945 MEMB     73       PMPE     O22      OBL     -0.630000       15.9994           0   0.00000     -0.301140E-02
      8946 MEMB     73       PMPE     C22      CTL2    -0.220000       12.0110           0   0.00000     -0.301140E-02
      8947 MEMB     73       PMPE     H2R      HAL2     0.900000E-01   1.00800           0   0.00000     -0.301140E-02
      8948 MEMB     73       PMPE     H2S      HAL2     0.900000E-01   1.00800           0   0.00000     -0.301140E-02
      8949 MEMB     73       PMPE     C3       CTL2     0.800000E-01   12.0110           0   0.00000     -0.301140E-02
      8950 MEMB     73       PMPE     HX       HAL2     0.900000E-01   1.00800           0   0.00000     -0.301140E-02
      8951 MEMB     73       PMPE     HY       HAL2     0.900000E-01   1.00800           0   0.00000     -0.301140E-02
      8952 MEMB     73       PMPE     O31      OSL     -0.490000       15.9994           0   0.00000     -0.301140E-02
      8953 MEMB     73       PMPE     C31      CL       0.900000       12.0110           0   0.00000     -0.301140E-02
      8954 MEMB     73       PMPE     O32      OBL     -0.630000       15.9994           0   0.00000     -0.301140E-02
      8955 MEMB     73       PMPE     C32      CTL2    -0.220000       12.0110           0   0.00000     -0.301140E-02
      8956 MEMB     73       PMPE     H2X      HAL2     0.900000E-01   1.00800           0   0.00000     -0.301140E-02
      8957 MEMB     73       PMPE     H2Y      HAL2     0.900000E-01   1.00800           0   0.00000     -0.301140E-02
      8958 MEMB     73       PMPE     C23      CTL2    -0.180000       12.0110           0   0.00000     -0.301140E-02
      8959 MEMB     73       PMPE     H3R      HAL2     0.900000E-01   1.00800           0   0.00000     -0.301140E-02
      8960 MEMB     73       PMPE     H3S      HAL2     0.900000E-01   1.00800           0   0.00000     -0.301140E-02
      8961 MEMB     73       PMPE     C24      CTL2    -0.180000       12.0110           0   0.00000     -0.301140E-02
      8962 MEMB     73       PMPE     H4R      HAL2     0.900000E-01   1.00800           0   0.00000     -0.301140E-02
      8963 MEMB     73       PMPE     H4S      HAL2     0.900000E-01   1.00800           0   0.00000     -0.301140E-02
      8964 MEMB     73       PMPE     C25      CTL2    -0.180000       12.0110           0   0.00000     -0.301140E-02
      8965 MEMB     73       PMPE     H5R      HAL2     0.900000E-01   1.00800           0   0.00000     -0.301140E-02
      8966 MEMB     73       PMPE     H5S      HAL2     0.900000E-01   1.00800           0   0.00000     -0.301140E-02
      8967 MEMB     73       PMPE     C26      CTL2    -0.180000       12.0110           0   0.00000     -0.301140E-02
      8968 MEMB     73       PMPE     H6R      HAL2     0.900000E-01   1.00800           0   0.00000     -0.301140E-02
      8969 MEMB     73       PMPE     H6S      HAL2     0.900000E-01   1.00800           0   0.00000     -0.301140E-02
      8970 MEMB     73       PMPE     C27      CTL2    -0.180000       12.0110           0   0.00000     -0.301140E-02
      8971 MEMB     73       PMPE     H7R      HAL2     0.900000E-01   1.00800           0   0.00000     -0.301140E-02
      8972 MEMB     73       PMPE     H7S      HAL2     0.900000E-01   1.00800           0   0.00000     -0.301140E-02
      8973 MEMB     73       PMPE     C28      CTL2    -0.180000       12.0110           0   0.00000     -0.301140E-02
      8974 MEMB     73       PMPE     H8R      HAL2     0.900000E-01   1.00800           0   0.00000     -0.301140E-02
      8975 MEMB     73       PMPE     H8S      HAL2     0.900000E-01   1.00800           0   0.00000     -0.301140E-02
      8976 MEMB     73       PMPE     C29      CG3RC1  -0.900000E-01   12.0110           0   0.00000     -0.301140E-02
      8977 MEMB     73       PMPE     H9R      HGA1     0.900000E-01   1.00800           0   0.00000     -0.301140E-02
      8978 MEMB     73       PMPE     C217     CG3C31  -0.180000       12.0110           0   0.00000     -0.301140E-02
      8979 MEMB     73       PMPE     H17R     HGA2     0.900000E-01   1.00800           0   0.00000     -0.301140E-02
      8980 MEMB     73       PMPE     H17S     HGA2     0.900000E-01   1.00800           0   0.00000     -0.301140E-02
      8981 MEMB     73       PMPE     C210     CG3RC1  -0.900000E-01   12.0110           0   0.00000     -0.301140E-02
      8982 MEMB     73       PMPE     H10R     HGA1     0.900000E-01   1.00800           0   0.00000     -0.301140E-02
      8983 MEMB     73       PMPE     C211     CTL2    -0.180000       12.0110           0   0.00000     -0.301140E-02
      8984 MEMB     73       PMPE     H11R     HAL2     0.900000E-01   1.00800           0   0.00000     -0.301140E-02
      8985 MEMB     73       PMPE     H11S     HAL2     0.900000E-01   1.00800           0   0.00000     -0.301140E-02
      8986 MEMB     73       PMPE     C212     CTL2    -0.180000       12.0110           0   0.00000     -0.301140E-02
      8987 MEMB     73       PMPE     H12R     HAL2     0.900000E-01   1.00800           0   0.00000     -0.301140E-02
      8988 MEMB     73       PMPE     H12S     HAL2     0.900000E-01   1.00800           0   0.00000     -0.301140E-02
      8989 MEMB     73       PMPE     C213     CTL2    -0.180000       12.0110           0   0.00000     -0.301140E-02
      8990 MEMB     73       PMPE     H13R     HAL2     0.900000E-01   1.00800           0   0.00000     -0.301140E-02
      8991 MEMB     73       PMPE     H13S     HAL2     0.900000E-01   1.00800           0   0.00000     -0.301140E-02
      8992 MEMB     73       PMPE     C214     CTL2    -0.180000       12.0110           0   0.00000     -0.301140E-02
      8993 MEMB     73       PMPE     H14R     HAL2     0.900000E-01   1.00800           0   0.00000     -0.301140E-02
      8994 MEMB     73       PMPE     H14S     HAL2     0.900000E-01   1.00800           0   0.00000     -0.301140E-02
      8995 MEMB     73       PMPE     C215     CTL2    -0.180000       12.0110           0   0.00000     -0.301140E-02
      8996 MEMB     73       PMPE     H15R     HAL2     0.900000E-01   1.00800           0   0.00000     -0.301140E-02
      8997 MEMB     73       PMPE     H15S     HAL2     0.900000E-01   1.00800           0   0.00000     -0.301140E-02
      8998 MEMB     73       PMPE     C216     CTL3    -0.270000       12.0110           0   0.00000     -0.301140E-02
      8999 MEMB     73       PMPE     H16R     HAL3     0.900000E-01   1.00800           0   0.00000     -0.301140E-02
      9000 MEMB     73       PMPE     H16S     HAL3     0.900000E-01   1.00800           0   0.00000     -0.301140E-02
      9001 MEMB     73       PMPE     H16T     HAL3     0.900000E-01   1.00800           0   0.00000     -0.301140E-02
      9002 MEMB     73       PMPE     C33      CTL2    -0.180000       12.0110           0   0.00000     -0.301140E-02
      9003 MEMB     73       PMPE     H3X      HAL2     0.900000E-01   1.00800           0   0.00000     -0.301140E-02
      9004 MEMB     73       PMPE     H3Y      HAL2     0.900000E-01   1.00800           0   0.00000     -0.301140E-02
      9005 MEMB     73       PMPE     C34      CTL2    -0.180000       12.0110           0   0.00000     -0.301140E-02
      9006 MEMB     73       PMPE     H4X      HAL2     0.900000E-01   1.00800           0   0.00000     -0.301140E-02
      9007 MEMB     73       PMPE     H4Y      HAL2     0.900000E-01   1.00800           0   0.00000     -0.301140E-02
      9008 MEMB     73       PMPE     C35      CTL2    -0.180000       12.0110           0   0.00000     -0.301140E-02
      9009 MEMB     73       PMPE     H5X      HAL2     0.900000E-01   1.00800           0   0.00000     -0.301140E-02
      9010 MEMB     73       PMPE     H5Y      HAL2     0.900000E-01   1.00800           0   0.00000     -0.301140E-02
      9011 MEMB     73       PMPE     C36      CTL2    -0.180000       12.0110           0   0.00000     -0.301140E-02
      9012 MEMB     73       PMPE     H6X      HAL2     0.900000E-01   1.00800           0   0.00000     -0.301140E-02
      9013 MEMB     73       PMPE     H6Y      HAL2     0.900000E-01   1.00800           0   0.00000     -0.301140E-02
      9014 MEMB     73       PMPE     C37      CTL2    -0.180000       12.0110           0   0.00000     -0.301140E-02
      9015 MEMB     73       PMPE     H7X      HAL2     0.900000E-01   1.00800           0   0.00000     -0.301140E-02
      9016 MEMB     73       PMPE     H7Y      HAL2     0.900000E-01   1.00800           0   0.00000     -0.301140E-02
      9017 MEMB     73       PMPE     C38      CTL2    -0.180000       12.0110           0   0.00000     -0.301140E-02
      9018 MEMB     73       PMPE     H8X      HAL2     0.900000E-01   1.00800           0   0.00000     -0.301140E-02
      9019 MEMB     73       PMPE     H8Y      HAL2     0.900000E-01   1.00800           0   0.00000     -0.301140E-02
      9020 MEMB     73       PMPE     C39      CTL2    -0.180000       12.0110           0   0.00000     -0.301140E-02
      9021 MEMB     73       PMPE     H9X      HAL2     0.900000E-01   1.00800           0   0.00000     -0.301140E-02
      9022 MEMB     73       PMPE     H9Y      HAL2     0.900000E-01   1.00800           0   0.00000     -0.301140E-02
      9023 MEMB     73       PMPE     C310     CTL2    -0.180000       12.0110           0   0.00000     -0.301140E-02
      9024 MEMB     73       PMPE     H10X     HAL2     0.900000E-01   1.00800           0   0.00000     -0.301140E-02
      9025 MEMB     73       PMPE     H10Y     HAL2     0.900000E-01   1.00800           0   0.00000     -0.301140E-02
      9026 MEMB     73       PMPE     C311     CTL2    -0.180000       12.0110           0   0.00000     -0.301140E-02
      9027 MEMB     73       PMPE     H11X     HAL2     0.900000E-01   1.00800           0   0.00000     -0.301140E-02
      9028 MEMB     73       PMPE     H11Y     HAL2     0.900000E-01   1.00800           0   0.00000     -0.301140E-02
      9029 MEMB     73       PMPE     C312     CTL2    -0.180000       12.0110           0   0.00000     -0.301140E-02
      9030 MEMB     73       PMPE     H12X     HAL2     0.900000E-01   1.00800           0   0.00000     -0.301140E-02
      9031 MEMB     73       PMPE     H12Y     HAL2     0.900000E-01   1.00800           0   0.00000     -0.301140E-02
      9032 MEMB     73       PMPE     C313     CTL2    -0.180000       12.0110           0   0.00000     -0.301140E-02
      9033 MEMB     73       PMPE     H13X     HAL2     0.900000E-01   1.00800           0   0.00000     -0.301140E-02
      9034 MEMB     73       PMPE     H13Y     HAL2     0.900000E-01   1.00800           0   0.00000     -0.301140E-02
      9035 MEMB     73       PMPE     C314     CTL2    -0.180000       12.0110           0   0.00000     -0.301140E-02
      9036 MEMB     73       PMPE     H14X     HAL2     0.900000E-01   1.00800           0   0.00000     -0.301140E-02
      9037 MEMB     73       PMPE     H14Y     HAL2     0.900000E-01   1.00800           0   0.00000     -0.301140E-02
      9038 MEMB     73       PMPE     C315     CTL2    -0.180000       12.0110           0   0.00000     -0.301140E-02
      9039 MEMB     73       PMPE     H15X     HAL2     0.900000E-01   1.00800           0   0.00000     -0.301140E-02
      9040 MEMB     73       PMPE     H15Y     HAL2     0.900000E-01   1.00800           0   0.00000     -0.301140E-02
      9041 MEMB     73       PMPE     C316     CTL3    -0.270000       12.0110           0   0.00000     -0.301140E-02
      9042 MEMB     73       PMPE     H16X     HAL3     0.900000E-01   1.00800           0   0.00000     -0.301140E-02
      9043 MEMB     73       PMPE     H16Y     HAL3     0.900000E-01   1.00800           0   0.00000     -0.301140E-02
      9044 MEMB     73       PMPE     H16Z     HAL3     0.900000E-01   1.00800           0   0.00000     -0.301140E-02
      9045 MEMB     74       PYPG     C13      CTL2     0.500000E-01   12.0110           0   0.00000     -0.301140E-02
      9046 MEMB     74       PYPG     H13A     HAL2     0.900000E-01   1.00800           0   0.00000     -0.301140E-02
      9047 MEMB     74       PYPG     H13B     HAL2     0.900000E-01   1.00800           0   0.00000     -0.301140E-02
      9048 MEMB     74       PYPG     OC3      OHL     -0.660000       15.9994           0   0.00000     -0.301140E-02
      9049 MEMB     74       PYPG     HO3      HOL      0.430000       1.00800           0   0.00000     -0.301140E-02
      9050 MEMB     74       PYPG     C12      CTL1     0.140000       12.0110           0   0.00000     -0.301140E-02
      9051 MEMB     74       PYPG     H12A     HAL1     0.900000E-01   1.00800           0   0.00000     -0.301140E-02
      9052 MEMB     74       PYPG     OC2      OHL     -0.660000       15.9994           0   0.00000     -0.301140E-02
      9053 MEMB     74       PYPG     HO2      HOL      0.430000       1.00800           0   0.00000     -0.301140E-02
      9054 MEMB     74       PYPG     C11      CTL2    -0.800000E-01   12.0110           0   0.00000     -0.301140E-02
      9055 MEMB     74       PYPG     H11A     HAL2     0.900000E-01   1.00800           0   0.00000     -0.301140E-02
      9056 MEMB     74       PYPG     H11B     HAL2     0.900000E-01   1.00800           0   0.00000     -0.301140E-02
      9057 MEMB     74       PYPG     P        PL        1.50000       30.9740           0   0.00000     -0.301140E-02
      9058 MEMB     74       PYPG     O13      O2L     -0.780000       15.9994           0   0.00000     -0.301140E-02
      9059 MEMB     74       PYPG     O14      O2L     -0.780000       15.9994           0   0.00000     -0.301140E-02
      9060 MEMB     74       PYPG     O11      OSLP    -0.570000       15.9994           0   0.00000     -0.301140E-02
      9061 MEMB     74       PYPG     O12      OSLP    -0.570000       15.9994           0   0.00000     -0.301140E-02
      9062 MEMB     74       PYPG     C1       CTL2    -0.800000E-01   12.0110           0   0.00000     -0.301140E-02
      9063 MEMB     74       PYPG     HA       HAL2     0.900000E-01   1.00800           0   0.00000     -0.301140E-02
      9064 MEMB     74       PYPG     HB       HAL2     0.900000E-01   1.00800           0   0.00000     -0.301140E-02
      9065 MEMB     74       PYPG     C2       CTL1     0.170000       12.0110           0   0.00000     -0.301140E-02
      9066 MEMB     74       PYPG     HS       HAL1     0.900000E-01   1.00800           0   0.00000     -0.301140E-02
      9067 MEMB     74       PYPG     O21      OSL     -0.490000       15.9994           0   0.00000     -0.301140E-02
      9068 MEMB     74       PYPG     C21      CL       0.900000       12.0110           0   0.00000     -0.301140E-02
      9069 MEMB     74       PYPG     O22      OBL     -0.630000       15.9994           0   0.00000     -0.301140E-02
      9070 MEMB     74       PYPG     C22      CTL2    -0.220000       12.0110           0   0.00000     -0.301140E-02
      9071 MEMB     74       PYPG     H2R      HAL2     0.900000E-01   1.00800           0   0.00000     -0.301140E-02
      9072 MEMB     74       PYPG     H2S      HAL2     0.900000E-01   1.00800           0   0.00000     -0.301140E-02
      9073 MEMB     74       PYPG     C3       CTL2     0.800000E-01   12.0110           0   0.00000     -0.301140E-02
      9074 MEMB     74       PYPG     HX       HAL2     0.900000E-01   1.00800           0   0.00000     -0.301140E-02
      9075 MEMB     74       PYPG     HY       HAL2     0.900000E-01   1.00800           0   0.00000     -0.301140E-02
      9076 MEMB     74       PYPG     O31      OSL     -0.490000       15.9994           0   0.00000     -0.301140E-02
      9077 MEMB     74       PYPG     C31      CL       0.900000       12.0110           0   0.00000     -0.301140E-02
      9078 MEMB     74       PYPG     O32      OBL     -0.630000       15.9994           0   0.00000     -0.301140E-02
      9079 MEMB     74       PYPG     C32      CTL2    -0.220000       12.0110           0   0.00000     -0.301140E-02
      9080 MEMB     74       PYPG     H2X      HAL2     0.900000E-01   1.00800           0   0.00000     -0.301140E-02
      9081 MEMB     74       PYPG     H2Y      HAL2     0.900000E-01   1.00800           0   0.00000     -0.301140E-02
      9082 MEMB     74       PYPG     C23      CTL2    -0.180000       12.0110           0   0.00000     -0.301140E-02
      9083 MEMB     74       PYPG     H3R      HAL2     0.900000E-01   1.00800           0   0.00000     -0.301140E-02
      9084 MEMB     74       PYPG     H3S      HAL2     0.900000E-01   1.00800           0   0.00000     -0.301140E-02
      9085 MEMB     74       PYPG     C24      CTL2    -0.180000       12.0110           0   0.00000     -0.301140E-02
      9086 MEMB     74       PYPG     H4R      HAL2     0.900000E-01   1.00800           0   0.00000     -0.301140E-02
      9087 MEMB     74       PYPG     H4S      HAL2     0.900000E-01   1.00800           0   0.00000     -0.301140E-02
      9088 MEMB     74       PYPG     C25      CTL2    -0.180000       12.0110           0   0.00000     -0.301140E-02
      9089 MEMB     74       PYPG     H5R      HAL2     0.900000E-01   1.00800           0   0.00000     -0.301140E-02
      9090 MEMB     74       PYPG     H5S      HAL2     0.900000E-01   1.00800           0   0.00000     -0.301140E-02
      9091 MEMB     74       PYPG     C26      CTL2    -0.180000       12.0110           0   0.00000     -0.301140E-02
      9092 MEMB     74       PYPG     H6R      HAL2     0.900000E-01   1.00800           0   0.00000     -0.301140E-02
      9093 MEMB     74       PYPG     H6S      HAL2     0.900000E-01   1.00800           0   0.00000     -0.301140E-02
      9094 MEMB     74       PYPG     C27      CTL2    -0.180000       12.0110           0   0.00000     -0.301140E-02
      9095 MEMB     74       PYPG     H7R      HAL2     0.900000E-01   1.00800           0   0.00000     -0.301140E-02
      9096 MEMB     74       PYPG     H7S      HAL2     0.900000E-01   1.00800           0   0.00000     -0.301140E-02
      9097 MEMB     74       PYPG     C28      CTL2    -0.180000       12.0110           0   0.00000     -0.301140E-02
      9098 MEMB     74       PYPG     H8R      HAL2     0.900000E-01   1.00800           0   0.00000     -0.301140E-02
      9099 MEMB     74       PYPG     H8S      HAL2     0.900000E-01   1.00800           0   0.00000     -0.301140E-02
      9100 MEMB     74       PYPG     C29      CEL1    -0.150000       12.0110           0   0.00000     -0.301140E-02
      9101 MEMB     74       PYPG     H9R      HEL1     0.150000       1.00800           0   0.00000     -0.301140E-02
      9102 MEMB     74       PYPG     C210     CEL1    -0.150000       12.0110           0   0.00000     -0.301140E-02
      9103 MEMB     74       PYPG     H10R     HEL1     0.150000       1.00800           0   0.00000     -0.301140E-02
      9104 MEMB     74       PYPG     C211     CTL2    -0.180000       12.0110           0   0.00000     -0.301140E-02
      9105 MEMB     74       PYPG     H11R     HAL2     0.900000E-01   1.00800           0   0.00000     -0.301140E-02
      9106 MEMB     74       PYPG     H11S     HAL2     0.900000E-01   1.00800           0   0.00000     -0.301140E-02
      9107 MEMB     74       PYPG     C212     CTL2    -0.180000       12.0110           0   0.00000     -0.301140E-02
      9108 MEMB     74       PYPG     H12R     HAL2     0.900000E-01   1.00800           0   0.00000     -0.301140E-02
      9109 MEMB     74       PYPG     H12S     HAL2     0.900000E-01   1.00800           0   0.00000     -0.301140E-02
      9110 MEMB     74       PYPG     C213     CTL2    -0.180000       12.0110           0   0.00000     -0.301140E-02
      9111 MEMB     74       PYPG     H13R     HAL2     0.900000E-01   1.00800           0   0.00000     -0.301140E-02
      9112 MEMB     74       PYPG     H13S     HAL2     0.900000E-01   1.00800           0   0.00000     -0.301140E-02
      9113 MEMB     74       PYPG     C214     CTL2    -0.180000       12.0110           0   0.00000     -0.301140E-02
      9114 MEMB     74       PYPG     H14R     HAL2     0.900000E-01   1.00800           0   0.00000     -0.301140E-02
      9115 MEMB     74       PYPG     H14S     HAL2     0.900000E-01   1.00800           0   0.00000     -0.301140E-02
      9116 MEMB     74       PYPG     C215     CTL2    -0.180000       12.0110           0   0.00000     -0.301140E-02
      9117 MEMB     74       PYPG     H15R     HAL2     0.900000E-01   1.00800           0   0.00000     -0.301140E-02
      9118 MEMB     74       PYPG     H15S     HAL2     0.900000E-01   1.00800           0   0.00000     -0.301140E-02
      9119 MEMB     74       PYPG     C216     CTL3    -0.270000       12.0110           0   0.00000     -0.301140E-02
      9120 MEMB     74       PYPG     H16R     HAL3     0.900000E-01   1.00800           0   0.00000     -0.301140E-02
      9121 MEMB     74       PYPG     H16S     HAL3     0.900000E-01   1.00800           0   0.00000     -0.301140E-02
      9122 MEMB     74       PYPG     H16T     HAL3     0.900000E-01   1.00800           0   0.00000     -0.301140E-02
      9123 MEMB     74       PYPG     C33      CTL2    -0.180000       12.0110           0   0.00000     -0.301140E-02
      9124 MEMB     74       PYPG     H3X      HAL2     0.900000E-01   1.00800           0   0.00000     -0.301140E-02
      9125 MEMB     74       PYPG     H3Y      HAL2     0.900000E-01   1.00800           0   0.00000     -0.301140E-02
      9126 MEMB     74       PYPG     C34      CTL2    -0.180000       12.0110           0   0.00000     -0.301140E-02
      9127 MEMB     74       PYPG     H4X      HAL2     0.900000E-01   1.00800           0   0.00000     -0.301140E-02
      9128 MEMB     74       PYPG     H4Y      HAL2     0.900000E-01   1.00800           0   0.00000     -0.301140E-02
      9129 MEMB     74       PYPG     C35      CTL2    -0.180000       12.0110           0   0.00000     -0.301140E-02
      9130 MEMB     74       PYPG     H5X      HAL2     0.900000E-01   1.00800           0   0.00000     -0.301140E-02
      9131 MEMB     74       PYPG     H5Y      HAL2     0.900000E-01   1.00800           0   0.00000     -0.301140E-02
      9132 MEMB     74       PYPG     C36      CTL2    -0.180000       12.0110           0   0.00000     -0.301140E-02
      9133 MEMB     74       PYPG     H6X      HAL2     0.900000E-01   1.00800           0   0.00000     -0.301140E-02
      9134 MEMB     74       PYPG     H6Y      HAL2     0.900000E-01   1.00800           0   0.00000     -0.301140E-02
      9135 MEMB     74       PYPG     C37      CTL2    -0.180000       12.0110           0   0.00000     -0.301140E-02
      9136 MEMB     74       PYPG     H7X      HAL2     0.900000E-01   1.00800           0   0.00000     -0.301140E-02
      9137 MEMB     74       PYPG     H7Y      HAL2     0.900000E-01   1.00800           0   0.00000     -0.301140E-02
      9138 MEMB     74       PYPG     C38      CTL2    -0.180000       12.0110           0   0.00000     -0.301140E-02
      9139 MEMB     74       PYPG     H8X      HAL2     0.900000E-01   1.00800           0   0.00000     -0.301140E-02
      9140 MEMB     74       PYPG     H8Y      HAL2     0.900000E-01   1.00800           0   0.00000     -0.301140E-02
      9141 MEMB     74       PYPG     C39      CTL2    -0.180000       12.0110           0   0.00000     -0.301140E-02
      9142 MEMB     74       PYPG     H9X      HAL2     0.900000E-01   1.00800           0   0.00000     -0.301140E-02
      9143 MEMB     74       PYPG     H9Y      HAL2     0.900000E-01   1.00800           0   0.00000     -0.301140E-02
      9144 MEMB     74       PYPG     C310     CTL2    -0.180000       12.0110           0   0.00000     -0.301140E-02
      9145 MEMB     74       PYPG     H10X     HAL2     0.900000E-01   1.00800           0   0.00000     -0.301140E-02
      9146 MEMB     74       PYPG     H10Y     HAL2     0.900000E-01   1.00800           0   0.00000     -0.301140E-02
      9147 MEMB     74       PYPG     C311     CTL2    -0.180000       12.0110           0   0.00000     -0.301140E-02
      9148 MEMB     74       PYPG     H11X     HAL2     0.900000E-01   1.00800           0   0.00000     -0.301140E-02
      9149 MEMB     74       PYPG     H11Y     HAL2     0.900000E-01   1.00800           0   0.00000     -0.301140E-02
      9150 MEMB     74       PYPG     C312     CTL2    -0.180000       12.0110           0   0.00000     -0.301140E-02
      9151 MEMB     74       PYPG     H12X     HAL2     0.900000E-01   1.00800           0   0.00000     -0.301140E-02
      9152 MEMB     74       PYPG     H12Y     HAL2     0.900000E-01   1.00800           0   0.00000     -0.301140E-02
      9153 MEMB     74       PYPG     C313     CTL2    -0.180000       12.0110           0   0.00000     -0.301140E-02
      9154 MEMB     74       PYPG     H13X     HAL2     0.900000E-01   1.00800           0   0.00000     -0.301140E-02
      9155 MEMB     74       PYPG     H13Y     HAL2     0.900000E-01   1.00800           0   0.00000     -0.301140E-02
      9156 MEMB     74       PYPG     C314     CTL2    -0.180000       12.0110           0   0.00000     -0.301140E-02
      9157 MEMB     74       PYPG     H14X     HAL2     0.900000E-01   1.00800           0   0.00000     -0.301140E-02
      9158 MEMB     74       PYPG     H14Y     HAL2     0.900000E-01   1.00800           0   0.00000     -0.301140E-02
      9159 MEMB     74       PYPG     C315     CTL2    -0.180000       12.0110           0   0.00000     -0.301140E-02
      9160 MEMB     74       PYPG     H15X     HAL2     0.900000E-01   1.00800           0   0.00000     -0.301140E-02
      9161 MEMB     74       PYPG     H15Y     HAL2     0.900000E-01   1.00800           0   0.00000     -0.301140E-02
      9162 MEMB     74       PYPG     C316     CTL3    -0.270000       12.0110           0   0.00000     -0.301140E-02
      9163 MEMB     74       PYPG     H16X     HAL3     0.900000E-01   1.00800           0   0.00000     -0.301140E-02
      9164 MEMB     74       PYPG     H16Y     HAL3     0.900000E-01   1.00800           0   0.00000     -0.301140E-02
      9165 MEMB     74       PYPG     H16Z     HAL3     0.900000E-01   1.00800           0   0.00000     -0.301140E-02
      9166 MEMB     75       POPE     N        NH3L    -0.300000       14.0070           0   0.00000     -0.301140E-02
      9167 MEMB     75       POPE     HN1      HCL      0.330000       1.00800           0   0.00000     -0.301140E-02
      9168 MEMB     75       POPE     HN2      HCL      0.330000       1.00800           0   0.00000     -0.301140E-02
      9169 MEMB     75       POPE     HN3      HCL      0.330000       1.00800           0   0.00000     -0.301140E-02
      9170 MEMB     75       POPE     C12      CTL2     0.130000       12.0110           0   0.00000     -0.301140E-02
      9171 MEMB     75       POPE     H12A     HAL2     0.900000E-01   1.00800           0   0.00000     -0.301140E-02
      9172 MEMB     75       POPE     H12B     HAL2     0.900000E-01   1.00800           0   0.00000     -0.301140E-02
      9173 MEMB     75       POPE     C11      CTL2    -0.800000E-01   12.0110           0   0.00000     -0.301140E-02
      9174 MEMB     75       POPE     H11A     HAL2     0.900000E-01   1.00800           0   0.00000     -0.301140E-02
      9175 MEMB     75       POPE     H11B     HAL2     0.900000E-01   1.00800           0   0.00000     -0.301140E-02
      9176 MEMB     75       POPE     P        PL        1.50000       30.9740           0   0.00000     -0.301140E-02
      9177 MEMB     75       POPE     O13      O2L     -0.780000       15.9994           0   0.00000     -0.301140E-02
      9178 MEMB     75       POPE     O14      O2L     -0.780000       15.9994           0   0.00000     -0.301140E-02
      9179 MEMB     75       POPE     O11      OSLP    -0.570000       15.9994           0   0.00000     -0.301140E-02
      9180 MEMB     75       POPE     O12      OSLP    -0.570000       15.9994           0   0.00000     -0.301140E-02
      9181 MEMB     75       POPE     C1       CTL2    -0.800000E-01   12.0110           0   0.00000     -0.301140E-02
      9182 MEMB     75       POPE     HA       HAL2     0.900000E-01   1.00800           0   0.00000     -0.301140E-02
      9183 MEMB     75       POPE     HB       HAL2     0.900000E-01   1.00800           0   0.00000     -0.301140E-02
      9184 MEMB     75       POPE     C2       CTL1     0.170000       12.0110           0   0.00000     -0.301140E-02
      9185 MEMB     75       POPE     HS       HAL1     0.900000E-01   1.00800           0   0.00000     -0.301140E-02
      9186 MEMB     75       POPE     O21      OSL     -0.490000       15.9994           0   0.00000     -0.301140E-02
      9187 MEMB     75       POPE     C21      CL       0.900000       12.0110           0   0.00000     -0.301140E-02
      9188 MEMB     75       POPE     O22      OBL     -0.630000       15.9994           0   0.00000     -0.301140E-02
      9189 MEMB     75       POPE     C22      CTL2    -0.220000       12.0110           0   0.00000     -0.301140E-02
      9190 MEMB     75       POPE     H2R      HAL2     0.900000E-01   1.00800           0   0.00000     -0.301140E-02
      9191 MEMB     75       POPE     H2S      HAL2     0.900000E-01   1.00800           0   0.00000     -0.301140E-02
      9192 MEMB     75       POPE     C3       CTL2     0.800000E-01   12.0110           0   0.00000     -0.301140E-02
      9193 MEMB     75       POPE     HX       HAL2     0.900000E-01   1.00800           0   0.00000     -0.301140E-02
      9194 MEMB     75       POPE     HY       HAL2     0.900000E-01   1.00800           0   0.00000     -0.301140E-02
      9195 MEMB     75       POPE     O31      OSL     -0.490000       15.9994           0   0.00000     -0.301140E-02
      9196 MEMB     75       POPE     C31      CL       0.900000       12.0110           0   0.00000     -0.301140E-02
      9197 MEMB     75       POPE     O32      OBL     -0.630000       15.9994           0   0.00000     -0.301140E-02
      9198 MEMB     75       POPE     C32      CTL2    -0.220000       12.0110           0   0.00000     -0.301140E-02
      9199 MEMB     75       POPE     H2X      HAL2     0.900000E-01   1.00800           0   0.00000     -0.301140E-02
      9200 MEMB     75       POPE     H2Y      HAL2     0.900000E-01   1.00800           0   0.00000     -0.301140E-02
      9201 MEMB     75       POPE     C23      CTL2    -0.180000       12.0110           0   0.00000     -0.301140E-02
      9202 MEMB     75       POPE     H3R      HAL2     0.900000E-01   1.00800           0   0.00000     -0.301140E-02
      9203 MEMB     75       POPE     H3S      HAL2     0.900000E-01   1.00800           0   0.00000     -0.301140E-02
      9204 MEMB     75       POPE     C24      CTL2    -0.180000       12.0110           0   0.00000     -0.301140E-02
      9205 MEMB     75       POPE     H4R      HAL2     0.900000E-01   1.00800           0   0.00000     -0.301140E-02
      9206 MEMB     75       POPE     H4S      HAL2     0.900000E-01   1.00800           0   0.00000     -0.301140E-02
      9207 MEMB     75       POPE     C25      CTL2    -0.180000       12.0110           0   0.00000     -0.301140E-02
      9208 MEMB     75       POPE     H5R      HAL2     0.900000E-01   1.00800           0   0.00000     -0.301140E-02
      9209 MEMB     75       POPE     H5S      HAL2     0.900000E-01   1.00800           0   0.00000     -0.301140E-02
      9210 MEMB     75       POPE     C26      CTL2    -0.180000       12.0110           0   0.00000     -0.301140E-02
      9211 MEMB     75       POPE     H6R      HAL2     0.900000E-01   1.00800           0   0.00000     -0.301140E-02
      9212 MEMB     75       POPE     H6S      HAL2     0.900000E-01   1.00800           0   0.00000     -0.301140E-02
      9213 MEMB     75       POPE     C27      CTL2    -0.180000       12.0110           0   0.00000     -0.301140E-02
      9214 MEMB     75       POPE     H7R      HAL2     0.900000E-01   1.00800           0   0.00000     -0.301140E-02
      9215 MEMB     75       POPE     H7S      HAL2     0.900000E-01   1.00800           0   0.00000     -0.301140E-02
      9216 MEMB     75       POPE     C28      CTL2    -0.180000       12.0110           0   0.00000     -0.301140E-02
      9217 MEMB     75       POPE     H8R      HAL2     0.900000E-01   1.00800           0   0.00000     -0.301140E-02
      9218 MEMB     75       POPE     H8S      HAL2     0.900000E-01   1.00800           0   0.00000     -0.301140E-02
      9219 MEMB     75       POPE     C29      CEL1    -0.150000       12.0110           0   0.00000     -0.301140E-02
      9220 MEMB     75       POPE     H91      HEL1     0.150000       1.00800           0   0.00000     -0.301140E-02
      9221 MEMB     75       POPE     C210     CEL1    -0.150000       12.0110           0   0.00000     -0.301140E-02
      9222 MEMB     75       POPE     H101     HEL1     0.150000       1.00800           0   0.00000     -0.301140E-02
      9223 MEMB     75       POPE     C211     CTL2    -0.180000       12.0110           0   0.00000     -0.301140E-02
      9224 MEMB     75       POPE     H11R     HAL2     0.900000E-01   1.00800           0   0.00000     -0.301140E-02
      9225 MEMB     75       POPE     H11S     HAL2     0.900000E-01   1.00800           0   0.00000     -0.301140E-02
      9226 MEMB     75       POPE     C212     CTL2    -0.180000       12.0110           0   0.00000     -0.301140E-02
      9227 MEMB     75       POPE     H12R     HAL2     0.900000E-01   1.00800           0   0.00000     -0.301140E-02
      9228 MEMB     75       POPE     H12S     HAL2     0.900000E-01   1.00800           0   0.00000     -0.301140E-02
      9229 MEMB     75       POPE     C213     CTL2    -0.180000       12.0110           0   0.00000     -0.301140E-02
      9230 MEMB     75       POPE     H13R     HAL2     0.900000E-01   1.00800           0   0.00000     -0.301140E-02
      9231 MEMB     75       POPE     H13S     HAL2     0.900000E-01   1.00800           0   0.00000     -0.301140E-02
      9232 MEMB     75       POPE     C214     CTL2    -0.180000       12.0110           0   0.00000     -0.301140E-02
      9233 MEMB     75       POPE     H14R     HAL2     0.900000E-01   1.00800           0   0.00000     -0.301140E-02
      9234 MEMB     75       POPE     H14S     HAL2     0.900000E-01   1.00800           0   0.00000     -0.301140E-02
      9235 MEMB     75       POPE     C215     CTL2    -0.180000       12.0110           0   0.00000     -0.301140E-02
      9236 MEMB     75       POPE     H15R     HAL2     0.900000E-01   1.00800           0   0.00000     -0.301140E-02
      9237 MEMB     75       POPE     H15S     HAL2     0.900000E-01   1.00800           0   0.00000     -0.301140E-02
      9238 MEMB     75       POPE     C216     CTL2    -0.180000       12.0110           0   0.00000     -0.301140E-02
      9239 MEMB     75       POPE     H16R     HAL2     0.900000E-01   1.00800           0   0.00000     -0.301140E-02
      9240 MEMB     75       POPE     H16S     HAL2     0.900000E-01   1.00800           0   0.00000     -0.301140E-02
      9241 MEMB     75       POPE     C217     CTL2    -0.180000       12.0110           0   0.00000     -0.301140E-02
      9242 MEMB     75       POPE     H17R     HAL2     0.900000E-01   1.00800           0   0.00000     -0.301140E-02
      9243 MEMB     75       POPE     H17S     HAL2     0.900000E-01   1.00800           0   0.00000     -0.301140E-02
      9244 MEMB     75       POPE     C218     CTL3    -0.270000       12.0110           0   0.00000     -0.301140E-02
      9245 MEMB     75       POPE     H18R     HAL3     0.900000E-01   1.00800           0   0.00000     -0.301140E-02
      9246 MEMB     75       POPE     H18S     HAL3     0.900000E-01   1.00800           0   0.00000     -0.301140E-02
      9247 MEMB     75       POPE     H18T     HAL3     0.900000E-01   1.00800           0   0.00000     -0.301140E-02
      9248 MEMB     75       POPE     C33      CTL2    -0.180000       12.0110           0   0.00000     -0.301140E-02
      9249 MEMB     75       POPE     H3X      HAL2     0.900000E-01   1.00800           0   0.00000     -0.301140E-02
      9250 MEMB     75       POPE     H3Y      HAL2     0.900000E-01   1.00800           0   0.00000     -0.301140E-02
      9251 MEMB     75       POPE     C34      CTL2    -0.180000       12.0110           0   0.00000     -0.301140E-02
      9252 MEMB     75       POPE     H4X      HAL2     0.900000E-01   1.00800           0   0.00000     -0.301140E-02
      9253 MEMB     75       POPE     H4Y      HAL2     0.900000E-01   1.00800           0   0.00000     -0.301140E-02
      9254 MEMB     75       POPE     C35      CTL2    -0.180000       12.0110           0   0.00000     -0.301140E-02
      9255 MEMB     75       POPE     H5X      HAL2     0.900000E-01   1.00800           0   0.00000     -0.301140E-02
      9256 MEMB     75       POPE     H5Y      HAL2     0.900000E-01   1.00800           0   0.00000     -0.301140E-02
      9257 MEMB     75       POPE     C36      CTL2    -0.180000       12.0110           0   0.00000     -0.301140E-02
      9258 MEMB     75       POPE     H6X      HAL2     0.900000E-01   1.00800           0   0.00000     -0.301140E-02
      9259 MEMB     75       POPE     H6Y      HAL2     0.900000E-01   1.00800           0   0.00000     -0.301140E-02
      9260 MEMB     75       POPE     C37      CTL2    -0.180000       12.0110           0   0.00000     -0.301140E-02
      9261 MEMB     75       POPE     H7X      HAL2     0.900000E-01   1.00800           0   0.00000     -0.301140E-02
      9262 MEMB     75       POPE     H7Y      HAL2     0.900000E-01   1.00800           0   0.00000     -0.301140E-02
      9263 MEMB     75       POPE     C38      CTL2    -0.180000       12.0110           0   0.00000     -0.301140E-02
      9264 MEMB     75       POPE     H8X      HAL2     0.900000E-01   1.00800           0   0.00000     -0.301140E-02
      9265 MEMB     75       POPE     H8Y      HAL2     0.900000E-01   1.00800           0   0.00000     -0.301140E-02
      9266 MEMB     75       POPE     C39      CTL2    -0.180000       12.0110           0   0.00000     -0.301140E-02
      9267 MEMB     75       POPE     H9X      HAL2     0.900000E-01   1.00800           0   0.00000     -0.301140E-02
      9268 MEMB     75       POPE     H9Y      HAL2     0.900000E-01   1.00800           0   0.00000     -0.301140E-02
      9269 MEMB     75       POPE     C310     CTL2    -0.180000       12.0110           0   0.00000     -0.301140E-02
      9270 MEMB     75       POPE     H10X     HAL2     0.900000E-01   1.00800           0   0.00000     -0.301140E-02
      9271 MEMB     75       POPE     H10Y     HAL2     0.900000E-01   1.00800           0   0.00000     -0.301140E-02
      9272 MEMB     75       POPE     C311     CTL2    -0.180000       12.0110           0   0.00000     -0.301140E-02
      9273 MEMB     75       POPE     H11X     HAL2     0.900000E-01   1.00800           0   0.00000     -0.301140E-02
      9274 MEMB     75       POPE     H11Y     HAL2     0.900000E-01   1.00800           0   0.00000     -0.301140E-02
      9275 MEMB     75       POPE     C312     CTL2    -0.180000       12.0110           0   0.00000     -0.301140E-02
      9276 MEMB     75       POPE     H12X     HAL2     0.900000E-01   1.00800           0   0.00000     -0.301140E-02
      9277 MEMB     75       POPE     H12Y     HAL2     0.900000E-01   1.00800           0   0.00000     -0.301140E-02
      9278 MEMB     75       POPE     C313     CTL2    -0.180000       12.0110           0   0.00000     -0.301140E-02
      9279 MEMB     75       POPE     H13X     HAL2     0.900000E-01   1.00800           0   0.00000     -0.301140E-02
      9280 MEMB     75       POPE     H13Y     HAL2     0.900000E-01   1.00800           0   0.00000     -0.301140E-02
      9281 MEMB     75       POPE     C314     CTL2    -0.180000       12.0110           0   0.00000     -0.301140E-02
      9282 MEMB     75       POPE     H14X     HAL2     0.900000E-01   1.00800           0   0.00000     -0.301140E-02
      9283 MEMB     75       POPE     H14Y     HAL2     0.900000E-01   1.00800           0   0.00000     -0.301140E-02
      9284 MEMB     75       POPE     C315     CTL2    -0.180000       12.0110           0   0.00000     -0.301140E-02
      9285 MEMB     75       POPE     H15X     HAL2     0.900000E-01   1.00800           0   0.00000     -0.301140E-02
      9286 MEMB     75       POPE     H15Y     HAL2     0.900000E-01   1.00800           0   0.00000     -0.301140E-02
      9287 MEMB     75       POPE     C316     CTL3    -0.270000       12.0110           0   0.00000     -0.301140E-02
      9288 MEMB     75       POPE     H16X     HAL3     0.900000E-01   1.00800           0   0.00000     -0.301140E-02
      9289 MEMB     75       POPE     H16Y     HAL3     0.900000E-01   1.00800           0   0.00000     -0.301140E-02
      9290 MEMB     75       POPE     H16Z     HAL3     0.900000E-01   1.00800           0   0.00000     -0.301140E-02
      9291 MEMB     76       QMPE     N        NH3L    -0.300000       14.0070           0   0.00000     -0.301140E-02
      9292 MEMB     76       QMPE     HN1      HCL      0.330000       1.00800           0   0.00000     -0.301140E-02
      9293 MEMB     76       QMPE     HN2      HCL      0.330000       1.00800           0   0.00000     -0.301140E-02
      9294 MEMB     76       QMPE     HN3      HCL      0.330000       1.00800           0   0.00000     -0.301140E-02
      9295 MEMB     76       QMPE     C12      CTL2     0.130000       12.0110           0   0.00000     -0.301140E-02
      9296 MEMB     76       QMPE     H12A     HAL2     0.900000E-01   1.00800           0   0.00000     -0.301140E-02
      9297 MEMB     76       QMPE     H12B     HAL2     0.900000E-01   1.00800           0   0.00000     -0.301140E-02
      9298 MEMB     76       QMPE     C11      CTL2    -0.800000E-01   12.0110           0   0.00000     -0.301140E-02
      9299 MEMB     76       QMPE     H11A     HAL2     0.900000E-01   1.00800           0   0.00000     -0.301140E-02
      9300 MEMB     76       QMPE     H11B     HAL2     0.900000E-01   1.00800           0   0.00000     -0.301140E-02
      9301 MEMB     76       QMPE     P        PL        1.50000       30.9740           0   0.00000     -0.301140E-02
      9302 MEMB     76       QMPE     O13      O2L     -0.780000       15.9994           0   0.00000     -0.301140E-02
      9303 MEMB     76       QMPE     O14      O2L     -0.780000       15.9994           0   0.00000     -0.301140E-02
      9304 MEMB     76       QMPE     O11      OSLP    -0.570000       15.9994           0   0.00000     -0.301140E-02
      9305 MEMB     76       QMPE     O12      OSLP    -0.570000       15.9994           0   0.00000     -0.301140E-02
      9306 MEMB     76       QMPE     C1       CTL2    -0.800000E-01   12.0110           0   0.00000     -0.301140E-02
      9307 MEMB     76       QMPE     HA       HAL2     0.900000E-01   1.00800           0   0.00000     -0.301140E-02
      9308 MEMB     76       QMPE     HB       HAL2     0.900000E-01   1.00800           0   0.00000     -0.301140E-02
      9309 MEMB     76       QMPE     C2       CTL1     0.170000       12.0110           0   0.00000     -0.301140E-02
      9310 MEMB     76       QMPE     HS       HAL1     0.900000E-01   1.00800           0   0.00000     -0.301140E-02
      9311 MEMB     76       QMPE     O21      OSL     -0.490000       15.9994           0   0.00000     -0.301140E-02
      9312 MEMB     76       QMPE     C21      CL       0.900000       12.0110           0   0.00000     -0.301140E-02
      9313 MEMB     76       QMPE     O22      OBL     -0.630000       15.9994           0   0.00000     -0.301140E-02
      9314 MEMB     76       QMPE     C22      CTL2    -0.220000       12.0110           0   0.00000     -0.301140E-02
      9315 MEMB     76       QMPE     H2R      HAL2     0.900000E-01   1.00800           0   0.00000     -0.301140E-02
      9316 MEMB     76       QMPE     H2S      HAL2     0.900000E-01   1.00800           0   0.00000     -0.301140E-02
      9317 MEMB     76       QMPE     C3       CTL2     0.800000E-01   12.0110           0   0.00000     -0.301140E-02
      9318 MEMB     76       QMPE     HX       HAL2     0.900000E-01   1.00800           0   0.00000     -0.301140E-02
      9319 MEMB     76       QMPE     HY       HAL2     0.900000E-01   1.00800           0   0.00000     -0.301140E-02
      9320 MEMB     76       QMPE     O31      OSL     -0.490000       15.9994           0   0.00000     -0.301140E-02
      9321 MEMB     76       QMPE     C31      CL       0.900000       12.0110           0   0.00000     -0.301140E-02
      9322 MEMB     76       QMPE     O32      OBL     -0.630000       15.9994           0   0.00000     -0.301140E-02
      9323 MEMB     76       QMPE     C32      CTL2    -0.220000       12.0110           0   0.00000     -0.301140E-02
      9324 MEMB     76       QMPE     H2X      HAL2     0.900000E-01   1.00800           0   0.00000     -0.301140E-02
      9325 MEMB     76       QMPE     H2Y      HAL2     0.900000E-01   1.00800           0   0.00000     -0.301140E-02
      9326 MEMB     76       QMPE     C23      CTL2    -0.180000       12.0110           0   0.00000     -0.301140E-02
      9327 MEMB     76       QMPE     H3R      HAL2     0.900000E-01   1.00800           0   0.00000     -0.301140E-02
      9328 MEMB     76       QMPE     H3S      HAL2     0.900000E-01   1.00800           0   0.00000     -0.301140E-02
      9329 MEMB     76       QMPE     C24      CTL2    -0.180000       12.0110           0   0.00000     -0.301140E-02
      9330 MEMB     76       QMPE     H4R      HAL2     0.900000E-01   1.00800           0   0.00000     -0.301140E-02
      9331 MEMB     76       QMPE     H4S      HAL2     0.900000E-01   1.00800           0   0.00000     -0.301140E-02
      9332 MEMB     76       QMPE     C25      CTL2    -0.180000       12.0110           0   0.00000     -0.301140E-02
      9333 MEMB     76       QMPE     H5R      HAL2     0.900000E-01   1.00800           0   0.00000     -0.301140E-02
      9334 MEMB     76       QMPE     H5S      HAL2     0.900000E-01   1.00800           0   0.00000     -0.301140E-02
      9335 MEMB     76       QMPE     C26      CTL2    -0.180000       12.0110           0   0.00000     -0.301140E-02
      9336 MEMB     76       QMPE     H6R      HAL2     0.900000E-01   1.00800           0   0.00000     -0.301140E-02
      9337 MEMB     76       QMPE     H6S      HAL2     0.900000E-01   1.00800           0   0.00000     -0.301140E-02
      9338 MEMB     76       QMPE     C27      CTL2    -0.180000       12.0110           0   0.00000     -0.301140E-02
      9339 MEMB     76       QMPE     H7R      HAL2     0.900000E-01   1.00800           0   0.00000     -0.301140E-02
      9340 MEMB     76       QMPE     H7S      HAL2     0.900000E-01   1.00800           0   0.00000     -0.301140E-02
      9341 MEMB     76       QMPE     C28      CTL2    -0.180000       12.0110           0   0.00000     -0.301140E-02
      9342 MEMB     76       QMPE     H8R      HAL2     0.900000E-01   1.00800           0   0.00000     -0.301140E-02
      9343 MEMB     76       QMPE     H8S      HAL2     0.900000E-01   1.00800           0   0.00000     -0.301140E-02
      9344 MEMB     76       QMPE     C29      CG3RC1  -0.900000E-01   12.0110           0   0.00000     -0.301140E-02
      9345 MEMB     76       QMPE     H9R      HGA1     0.900000E-01   1.00800           0   0.00000     -0.301140E-02
      9346 MEMB     76       QMPE     C217     CG3C31  -0.180000       12.0110           0   0.00000     -0.301140E-02
      9347 MEMB     76       QMPE     H17R     HGA2     0.900000E-01   1.00800           0   0.00000     -0.301140E-02
      9348 MEMB     76       QMPE     H17S     HGA2     0.900000E-01   1.00800           0   0.00000     -0.301140E-02
      9349 MEMB     76       QMPE     C210     CG3RC1  -0.900000E-01   12.0110           0   0.00000     -0.301140E-02
      9350 MEMB     76       QMPE     H10R     HGA1     0.900000E-01   1.00800           0   0.00000     -0.301140E-02
      9351 MEMB     76       QMPE     C211     CTL2    -0.180000       12.0110           0   0.00000     -0.301140E-02
      9352 MEMB     76       QMPE     H11R     HAL2     0.900000E-01   1.00800           0   0.00000     -0.301140E-02
      9353 MEMB     76       QMPE     H11S     HAL2     0.900000E-01   1.00800           0   0.00000     -0.301140E-02
      9354 MEMB     76       QMPE     C212     CTL2    -0.180000       12.0110           0   0.00000     -0.301140E-02
      9355 MEMB     76       QMPE     H12R     HAL2     0.900000E-01   1.00800           0   0.00000     -0.301140E-02
      9356 MEMB     76       QMPE     H12S     HAL2     0.900000E-01   1.00800           0   0.00000     -0.301140E-02
      9357 MEMB     76       QMPE     C213     CTL2    -0.180000       12.0110           0   0.00000     -0.301140E-02
      9358 MEMB     76       QMPE     H13R     HAL2     0.900000E-01   1.00800           0   0.00000     -0.301140E-02
      9359 MEMB     76       QMPE     H13S     HAL2     0.900000E-01   1.00800           0   0.00000     -0.301140E-02
      9360 MEMB     76       QMPE     C214     CTL2    -0.180000       12.0110           0   0.00000     -0.301140E-02
      9361 MEMB     76       QMPE     H14R     HAL2     0.900000E-01   1.00800           0   0.00000     -0.301140E-02
      9362 MEMB     76       QMPE     H14S     HAL2     0.900000E-01   1.00800           0   0.00000     -0.301140E-02
      9363 MEMB     76       QMPE     C215     CTL2    -0.180000       12.0110           0   0.00000     -0.301140E-02
      9364 MEMB     76       QMPE     H15R     HAL2     0.900000E-01   1.00800           0   0.00000     -0.301140E-02
      9365 MEMB     76       QMPE     H15S     HAL2     0.900000E-01   1.00800           0   0.00000     -0.301140E-02
      9366 MEMB     76       QMPE     C216     CTL3    -0.270000       12.0110           0   0.00000     -0.301140E-02
      9367 MEMB     76       QMPE     H16R     HAL3     0.900000E-01   1.00800           0   0.00000     -0.301140E-02
      9368 MEMB     76       QMPE     H16S     HAL3     0.900000E-01   1.00800           0   0.00000     -0.301140E-02
      9369 MEMB     76       QMPE     H16T     HAL3     0.900000E-01   1.00800           0   0.00000     -0.301140E-02
      9370 MEMB     76       QMPE     C33      CTL2    -0.180000       12.0110           0   0.00000     -0.301140E-02
      9371 MEMB     76       QMPE     H3X      HAL2     0.900000E-01   1.00800           0   0.00000     -0.301140E-02
      9372 MEMB     76       QMPE     H3Y      HAL2     0.900000E-01   1.00800           0   0.00000     -0.301140E-02
      9373 MEMB     76       QMPE     C34      CTL2    -0.180000       12.0110           0   0.00000     -0.301140E-02
      9374 MEMB     76       QMPE     H4X      HAL2     0.900000E-01   1.00800           0   0.00000     -0.301140E-02
      9375 MEMB     76       QMPE     H4Y      HAL2     0.900000E-01   1.00800           0   0.00000     -0.301140E-02
      9376 MEMB     76       QMPE     C35      CTL2    -0.180000       12.0110           0   0.00000     -0.301140E-02
      9377 MEMB     76       QMPE     H5X      HAL2     0.900000E-01   1.00800           0   0.00000     -0.301140E-02
      9378 MEMB     76       QMPE     H5Y      HAL2     0.900000E-01   1.00800           0   0.00000     -0.301140E-02
      9379 MEMB     76       QMPE     C36      CTL2    -0.180000       12.0110           0   0.00000     -0.301140E-02
      9380 MEMB     76       QMPE     H6X      HAL2     0.900000E-01   1.00800           0   0.00000     -0.301140E-02
      9381 MEMB     76       QMPE     H6Y      HAL2     0.900000E-01   1.00800           0   0.00000     -0.301140E-02
      9382 MEMB     76       QMPE     C37      CTL2    -0.180000       12.0110           0   0.00000     -0.301140E-02
      9383 MEMB     76       QMPE     H7X      HAL2     0.900000E-01   1.00800           0   0.00000     -0.301140E-02
      9384 MEMB     76       QMPE     H7Y      HAL2     0.900000E-01   1.00800           0   0.00000     -0.301140E-02
      9385 MEMB     76       QMPE     C38      CTL2    -0.180000       12.0110           0   0.00000     -0.301140E-02
      9386 MEMB     76       QMPE     H8X      HAL2     0.900000E-01   1.00800           0   0.00000     -0.301140E-02
      9387 MEMB     76       QMPE     H8Y      HAL2     0.900000E-01   1.00800           0   0.00000     -0.301140E-02
      9388 MEMB     76       QMPE     C39      CTL2    -0.180000       12.0110           0   0.00000     -0.301140E-02
      9389 MEMB     76       QMPE     H9X      HAL2     0.900000E-01   1.00800           0   0.00000     -0.301140E-02
      9390 MEMB     76       QMPE     H9Y      HAL2     0.900000E-01   1.00800           0   0.00000     -0.301140E-02
      9391 MEMB     76       QMPE     C310     CTL2    -0.180000       12.0110           0   0.00000     -0.301140E-02
      9392 MEMB     76       QMPE     H10X     HAL2     0.900000E-01   1.00800           0   0.00000     -0.301140E-02
      9393 MEMB     76       QMPE     H10Y     HAL2     0.900000E-01   1.00800           0   0.00000     -0.301140E-02
      9394 MEMB     76       QMPE     C311     CTL2    -0.180000       12.0110           0   0.00000     -0.301140E-02
      9395 MEMB     76       QMPE     H11X     HAL2     0.900000E-01   1.00800           0   0.00000     -0.301140E-02
      9396 MEMB     76       QMPE     H11Y     HAL2     0.900000E-01   1.00800           0   0.00000     -0.301140E-02
      9397 MEMB     76       QMPE     C312     CTL2    -0.180000       12.0110           0   0.00000     -0.301140E-02
      9398 MEMB     76       QMPE     H12X     HAL2     0.900000E-01   1.00800           0   0.00000     -0.301140E-02
      9399 MEMB     76       QMPE     H12Y     HAL2     0.900000E-01   1.00800           0   0.00000     -0.301140E-02
      9400 MEMB     76       QMPE     C313     CTL2    -0.180000       12.0110           0   0.00000     -0.301140E-02
      9401 MEMB     76       QMPE     H13X     HAL2     0.900000E-01   1.00800           0   0.00000     -0.301140E-02
      9402 MEMB     76       QMPE     H13Y     HAL2     0.900000E-01   1.00800           0   0.00000     -0.301140E-02
      9403 MEMB     76       QMPE     C314     CTL2    -0.180000       12.0110           0   0.00000     -0.301140E-02
      9404 MEMB     76       QMPE     H14X     HAL2     0.900000E-01   1.00800           0   0.00000     -0.301140E-02
      9405 MEMB     76       QMPE     H14Y     HAL2     0.900000E-01   1.00800           0   0.00000     -0.301140E-02
      9406 MEMB     76       QMPE     C315     CTL3    -0.270000       12.0110           0   0.00000     -0.301140E-02
      9407 MEMB     76       QMPE     H15X     HAL3     0.900000E-01   1.00800           0   0.00000     -0.301140E-02
      9408 MEMB     76       QMPE     H15Y     HAL3     0.900000E-01   1.00800           0   0.00000     -0.301140E-02
      9409 MEMB     76       QMPE     H15Z     HAL3     0.900000E-01   1.00800           0   0.00000     -0.301140E-02
      9410 MEMB     77       PMPE     N        NH3L    -0.300000       14.0070           0   0.00000     -0.301140E-02
      9411 MEMB     77       PMPE     HN1      HCL      0.330000       1.00800           0   0.00000     -0.301140E-02
      9412 MEMB     77       PMPE     HN2      HCL      0.330000       1.00800           0   0.00000     -0.301140E-02
      9413 MEMB     77       PMPE     HN3      HCL      0.330000       1.00800           0   0.00000     -0.301140E-02
      9414 MEMB     77       PMPE     C12      CTL2     0.130000       12.0110           0   0.00000     -0.301140E-02
      9415 MEMB     77       PMPE     H12A     HAL2     0.900000E-01   1.00800           0   0.00000     -0.301140E-02
      9416 MEMB     77       PMPE     H12B     HAL2     0.900000E-01   1.00800           0   0.00000     -0.301140E-02
      9417 MEMB     77       PMPE     C11      CTL2    -0.800000E-01   12.0110           0   0.00000     -0.301140E-02
      9418 MEMB     77       PMPE     H11A     HAL2     0.900000E-01   1.00800           0   0.00000     -0.301140E-02
      9419 MEMB     77       PMPE     H11B     HAL2     0.900000E-01   1.00800           0   0.00000     -0.301140E-02
      9420 MEMB     77       PMPE     P        PL        1.50000       30.9740           0   0.00000     -0.301140E-02
      9421 MEMB     77       PMPE     O13      O2L     -0.780000       15.9994           0   0.00000     -0.301140E-02
      9422 MEMB     77       PMPE     O14      O2L     -0.780000       15.9994           0   0.00000     -0.301140E-02
      9423 MEMB     77       PMPE     O11      OSLP    -0.570000       15.9994           0   0.00000     -0.301140E-02
      9424 MEMB     77       PMPE     O12      OSLP    -0.570000       15.9994           0   0.00000     -0.301140E-02
      9425 MEMB     77       PMPE     C1       CTL2    -0.800000E-01   12.0110           0   0.00000     -0.301140E-02
      9426 MEMB     77       PMPE     HA       HAL2     0.900000E-01   1.00800           0   0.00000     -0.301140E-02
      9427 MEMB     77       PMPE     HB       HAL2     0.900000E-01   1.00800           0   0.00000     -0.301140E-02
      9428 MEMB     77       PMPE     C2       CTL1     0.170000       12.0110           0   0.00000     -0.301140E-02
      9429 MEMB     77       PMPE     HS       HAL1     0.900000E-01   1.00800           0   0.00000     -0.301140E-02
      9430 MEMB     77       PMPE     O21      OSL     -0.490000       15.9994           0   0.00000     -0.301140E-02
      9431 MEMB     77       PMPE     C21      CL       0.900000       12.0110           0   0.00000     -0.301140E-02
      9432 MEMB     77       PMPE     O22      OBL     -0.630000       15.9994           0   0.00000     -0.301140E-02
      9433 MEMB     77       PMPE     C22      CTL2    -0.220000       12.0110           0   0.00000     -0.301140E-02
      9434 MEMB     77       PMPE     H2R      HAL2     0.900000E-01   1.00800           0   0.00000     -0.301140E-02
      9435 MEMB     77       PMPE     H2S      HAL2     0.900000E-01   1.00800           0   0.00000     -0.301140E-02
      9436 MEMB     77       PMPE     C3       CTL2     0.800000E-01   12.0110           0   0.00000     -0.301140E-02
      9437 MEMB     77       PMPE     HX       HAL2     0.900000E-01   1.00800           0   0.00000     -0.301140E-02
      9438 MEMB     77       PMPE     HY       HAL2     0.900000E-01   1.00800           0   0.00000     -0.301140E-02
      9439 MEMB     77       PMPE     O31      OSL     -0.490000       15.9994           0   0.00000     -0.301140E-02
      9440 MEMB     77       PMPE     C31      CL       0.900000       12.0110           0   0.00000     -0.301140E-02
      9441 MEMB     77       PMPE     O32      OBL     -0.630000       15.9994           0   0.00000     -0.301140E-02
      9442 MEMB     77       PMPE     C32      CTL2    -0.220000       12.0110           0   0.00000     -0.301140E-02
      9443 MEMB     77       PMPE     H2X      HAL2     0.900000E-01   1.00800           0   0.00000     -0.301140E-02
      9444 MEMB     77       PMPE     H2Y      HAL2     0.900000E-01   1.00800           0   0.00000     -0.301140E-02
      9445 MEMB     77       PMPE     C23      CTL2    -0.180000       12.0110           0   0.00000     -0.301140E-02
      9446 MEMB     77       PMPE     H3R      HAL2     0.900000E-01   1.00800           0   0.00000     -0.301140E-02
      9447 MEMB     77       PMPE     H3S      HAL2     0.900000E-01   1.00800           0   0.00000     -0.301140E-02
      9448 MEMB     77       PMPE     C24      CTL2    -0.180000       12.0110           0   0.00000     -0.301140E-02
      9449 MEMB     77       PMPE     H4R      HAL2     0.900000E-01   1.00800           0   0.00000     -0.301140E-02
      9450 MEMB     77       PMPE     H4S      HAL2     0.900000E-01   1.00800           0   0.00000     -0.301140E-02
      9451 MEMB     77       PMPE     C25      CTL2    -0.180000       12.0110           0   0.00000     -0.301140E-02
      9452 MEMB     77       PMPE     H5R      HAL2     0.900000E-01   1.00800           0   0.00000     -0.301140E-02
      9453 MEMB     77       PMPE     H5S      HAL2     0.900000E-01   1.00800           0   0.00000     -0.301140E-02
      9454 MEMB     77       PMPE     C26      CTL2    -0.180000       12.0110           0   0.00000     -0.301140E-02
      9455 MEMB     77       PMPE     H6R      HAL2     0.900000E-01   1.00800           0   0.00000     -0.301140E-02
      9456 MEMB     77       PMPE     H6S      HAL2     0.900000E-01   1.00800           0   0.00000     -0.301140E-02
      9457 MEMB     77       PMPE     C27      CTL2    -0.180000       12.0110           0   0.00000     -0.301140E-02
      9458 MEMB     77       PMPE     H7R      HAL2     0.900000E-01   1.00800           0   0.00000     -0.301140E-02
      9459 MEMB     77       PMPE     H7S      HAL2     0.900000E-01   1.00800           0   0.00000     -0.301140E-02
      9460 MEMB     77       PMPE     C28      CTL2    -0.180000       12.0110           0   0.00000     -0.301140E-02
      9461 MEMB     77       PMPE     H8R      HAL2     0.900000E-01   1.00800           0   0.00000     -0.301140E-02
      9462 MEMB     77       PMPE     H8S      HAL2     0.900000E-01   1.00800           0   0.00000     -0.301140E-02
      9463 MEMB     77       PMPE     C29      CG3RC1  -0.900000E-01   12.0110           0   0.00000     -0.301140E-02
      9464 MEMB     77       PMPE     H9R      HGA1     0.900000E-01   1.00800           0   0.00000     -0.301140E-02
      9465 MEMB     77       PMPE     C217     CG3C31  -0.180000       12.0110           0   0.00000     -0.301140E-02
      9466 MEMB     77       PMPE     H17R     HGA2     0.900000E-01   1.00800           0   0.00000     -0.301140E-02
      9467 MEMB     77       PMPE     H17S     HGA2     0.900000E-01   1.00800           0   0.00000     -0.301140E-02
      9468 MEMB     77       PMPE     C210     CG3RC1  -0.900000E-01   12.0110           0   0.00000     -0.301140E-02
      9469 MEMB     77       PMPE     H10R     HGA1     0.900000E-01   1.00800           0   0.00000     -0.301140E-02
      9470 MEMB     77       PMPE     C211     CTL2    -0.180000       12.0110           0   0.00000     -0.301140E-02
      9471 MEMB     77       PMPE     H11R     HAL2     0.900000E-01   1.00800           0   0.00000     -0.301140E-02
      9472 MEMB     77       PMPE     H11S     HAL2     0.900000E-01   1.00800           0   0.00000     -0.301140E-02
      9473 MEMB     77       PMPE     C212     CTL2    -0.180000       12.0110           0   0.00000     -0.301140E-02
      9474 MEMB     77       PMPE     H12R     HAL2     0.900000E-01   1.00800           0   0.00000     -0.301140E-02
      9475 MEMB     77       PMPE     H12S     HAL2     0.900000E-01   1.00800           0   0.00000     -0.301140E-02
      9476 MEMB     77       PMPE     C213     CTL2    -0.180000       12.0110           0   0.00000     -0.301140E-02
      9477 MEMB     77       PMPE     H13R     HAL2     0.900000E-01   1.00800           0   0.00000     -0.301140E-02
      9478 MEMB     77       PMPE     H13S     HAL2     0.900000E-01   1.00800           0   0.00000     -0.301140E-02
      9479 MEMB     77       PMPE     C214     CTL2    -0.180000       12.0110           0   0.00000     -0.301140E-02
      9480 MEMB     77       PMPE     H14R     HAL2     0.900000E-01   1.00800           0   0.00000     -0.301140E-02
      9481 MEMB     77       PMPE     H14S     HAL2     0.900000E-01   1.00800           0   0.00000     -0.301140E-02
      9482 MEMB     77       PMPE     C215     CTL2    -0.180000       12.0110           0   0.00000     -0.301140E-02
      9483 MEMB     77       PMPE     H15R     HAL2     0.900000E-01   1.00800           0   0.00000     -0.301140E-02
      9484 MEMB     77       PMPE     H15S     HAL2     0.900000E-01   1.00800           0   0.00000     -0.301140E-02
      9485 MEMB     77       PMPE     C216     CTL3    -0.270000       12.0110           0   0.00000     -0.301140E-02
      9486 MEMB     77       PMPE     H16R     HAL3     0.900000E-01   1.00800           0   0.00000     -0.301140E-02
      9487 MEMB     77       PMPE     H16S     HAL3     0.900000E-01   1.00800           0   0.00000     -0.301140E-02
      9488 MEMB     77       PMPE     H16T     HAL3     0.900000E-01   1.00800           0   0.00000     -0.301140E-02
      9489 MEMB     77       PMPE     C33      CTL2    -0.180000       12.0110           0   0.00000     -0.301140E-02
      9490 MEMB     77       PMPE     H3X      HAL2     0.900000E-01   1.00800           0   0.00000     -0.301140E-02
      9491 MEMB     77       PMPE     H3Y      HAL2     0.900000E-01   1.00800           0   0.00000     -0.301140E-02
      9492 MEMB     77       PMPE     C34      CTL2    -0.180000       12.0110           0   0.00000     -0.301140E-02
      9493 MEMB     77       PMPE     H4X      HAL2     0.900000E-01   1.00800           0   0.00000     -0.301140E-02
      9494 MEMB     77       PMPE     H4Y      HAL2     0.900000E-01   1.00800           0   0.00000     -0.301140E-02
      9495 MEMB     77       PMPE     C35      CTL2    -0.180000       12.0110           0   0.00000     -0.301140E-02
      9496 MEMB     77       PMPE     H5X      HAL2     0.900000E-01   1.00800           0   0.00000     -0.301140E-02
      9497 MEMB     77       PMPE     H5Y      HAL2     0.900000E-01   1.00800           0   0.00000     -0.301140E-02
      9498 MEMB     77       PMPE     C36      CTL2    -0.180000       12.0110           0   0.00000     -0.301140E-02
      9499 MEMB     77       PMPE     H6X      HAL2     0.900000E-01   1.00800           0   0.00000     -0.301140E-02
      9500 MEMB     77       PMPE     H6Y      HAL2     0.900000E-01   1.00800           0   0.00000     -0.301140E-02
      9501 MEMB     77       PMPE     C37      CTL2    -0.180000       12.0110           0   0.00000     -0.301140E-02
      9502 MEMB     77       PMPE     H7X      HAL2     0.900000E-01   1.00800           0   0.00000     -0.301140E-02
      9503 MEMB     77       PMPE     H7Y      HAL2     0.900000E-01   1.00800           0   0.00000     -0.301140E-02
      9504 MEMB     77       PMPE     C38      CTL2    -0.180000       12.0110           0   0.00000     -0.301140E-02
      9505 MEMB     77       PMPE     H8X      HAL2     0.900000E-01   1.00800           0   0.00000     -0.301140E-02
      9506 MEMB     77       PMPE     H8Y      HAL2     0.900000E-01   1.00800           0   0.00000     -0.301140E-02
      9507 MEMB     77       PMPE     C39      CTL2    -0.180000       12.0110           0   0.00000     -0.301140E-02
      9508 MEMB     77       PMPE     H9X      HAL2     0.900000E-01   1.00800           0   0.00000     -0.301140E-02
      9509 MEMB     77       PMPE     H9Y      HAL2     0.900000E-01   1.00800           0   0.00000     -0.301140E-02
      9510 MEMB     77       PMPE     C310     CTL2    -0.180000       12.0110           0   0.00000     -0.301140E-02
      9511 MEMB     77       PMPE     H10X     HAL2     0.900000E-01   1.00800           0   0.00000     -0.301140E-02
      9512 MEMB     77       PMPE     H10Y     HAL2     0.900000E-01   1.00800           0   0.00000     -0.301140E-02
      9513 MEMB     77       PMPE     C311     CTL2    -0.180000       12.0110           0   0.00000     -0.301140E-02
      9514 MEMB     77       PMPE     H11X     HAL2     0.900000E-01   1.00800           0   0.00000     -0.301140E-02
      9515 MEMB     77       PMPE     H11Y     HAL2     0.900000E-01   1.00800           0   0.00000     -0.301140E-02
      9516 MEMB     77       PMPE     C312     CTL2    -0.180000       12.0110           0   0.00000     -0.301140E-02
      9517 MEMB     77       PMPE     H12X     HAL2     0.900000E-01   1.00800           0   0.00000     -0.301140E-02
      9518 MEMB     77       PMPE     H12Y     HAL2     0.900000E-01   1.00800           0   0.00000     -0.301140E-02
      9519 MEMB     77       PMPE     C313     CTL2    -0.180000       12.0110           0   0.00000     -0.301140E-02
      9520 MEMB     77       PMPE     H13X     HAL2     0.900000E-01   1.00800           0   0.00000     -0.301140E-02
      9521 MEMB     77       PMPE     H13Y     HAL2     0.900000E-01   1.00800           0   0.00000     -0.301140E-02
      9522 MEMB     77       PMPE     C314     CTL2    -0.180000       12.0110           0   0.00000     -0.301140E-02
      9523 MEMB     77       PMPE     H14X     HAL2     0.900000E-01   1.00800           0   0.00000     -0.301140E-02
      9524 MEMB     77       PMPE     H14Y     HAL2     0.900000E-01   1.00800           0   0.00000     -0.301140E-02
      9525 MEMB     77       PMPE     C315     CTL2    -0.180000       12.0110           0   0.00000     -0.301140E-02
      9526 MEMB     77       PMPE     H15X     HAL2     0.900000E-01   1.00800           0   0.00000     -0.301140E-02
      9527 MEMB     77       PMPE     H15Y     HAL2     0.900000E-01   1.00800           0   0.00000     -0.301140E-02
      9528 MEMB     77       PMPE     C316     CTL3    -0.270000       12.0110           0   0.00000     -0.301140E-02
      9529 MEMB     77       PMPE     H16X     HAL3     0.900000E-01   1.00800           0   0.00000     -0.301140E-02
      9530 MEMB     77       PMPE     H16Y     HAL3     0.900000E-01   1.00800           0   0.00000     -0.301140E-02
      9531 MEMB     77       PMPE     H16Z     HAL3     0.900000E-01   1.00800           0   0.00000     -0.301140E-02
      9532 MEMB     78       POPE     N        NH3L    -0.300000       14.0070           0   0.00000     -0.301140E-02
      9533 MEMB     78       POPE     HN1      HCL      0.330000       1.00800           0   0.00000     -0.301140E-02
      9534 MEMB     78       POPE     HN2      HCL      0.330000       1.00800           0   0.00000     -0.301140E-02
      9535 MEMB     78       POPE     HN3      HCL      0.330000       1.00800           0   0.00000     -0.301140E-02
      9536 MEMB     78       POPE     C12      CTL2     0.130000       12.0110           0   0.00000     -0.301140E-02
      9537 MEMB     78       POPE     H12A     HAL2     0.900000E-01   1.00800           0   0.00000     -0.301140E-02
      9538 MEMB     78       POPE     H12B     HAL2     0.900000E-01   1.00800           0   0.00000     -0.301140E-02
      9539 MEMB     78       POPE     C11      CTL2    -0.800000E-01   12.0110           0   0.00000     -0.301140E-02
      9540 MEMB     78       POPE     H11A     HAL2     0.900000E-01   1.00800           0   0.00000     -0.301140E-02
      9541 MEMB     78       POPE     H11B     HAL2     0.900000E-01   1.00800           0   0.00000     -0.301140E-02
      9542 MEMB     78       POPE     P        PL        1.50000       30.9740           0   0.00000     -0.301140E-02
      9543 MEMB     78       POPE     O13      O2L     -0.780000       15.9994           0   0.00000     -0.301140E-02
      9544 MEMB     78       POPE     O14      O2L     -0.780000       15.9994           0   0.00000     -0.301140E-02
      9545 MEMB     78       POPE     O11      OSLP    -0.570000       15.9994           0   0.00000     -0.301140E-02
      9546 MEMB     78       POPE     O12      OSLP    -0.570000       15.9994           0   0.00000     -0.301140E-02
      9547 MEMB     78       POPE     C1       CTL2    -0.800000E-01   12.0110           0   0.00000     -0.301140E-02
      9548 MEMB     78       POPE     HA       HAL2     0.900000E-01   1.00800           0   0.00000     -0.301140E-02
      9549 MEMB     78       POPE     HB       HAL2     0.900000E-01   1.00800           0   0.00000     -0.301140E-02
      9550 MEMB     78       POPE     C2       CTL1     0.170000       12.0110           0   0.00000     -0.301140E-02
      9551 MEMB     78       POPE     HS       HAL1     0.900000E-01   1.00800           0   0.00000     -0.301140E-02
      9552 MEMB     78       POPE     O21      OSL     -0.490000       15.9994           0   0.00000     -0.301140E-02
      9553 MEMB     78       POPE     C21      CL       0.900000       12.0110           0   0.00000     -0.301140E-02
      9554 MEMB     78       POPE     O22      OBL     -0.630000       15.9994           0   0.00000     -0.301140E-02
      9555 MEMB     78       POPE     C22      CTL2    -0.220000       12.0110           0   0.00000     -0.301140E-02
      9556 MEMB     78       POPE     H2R      HAL2     0.900000E-01   1.00800           0   0.00000     -0.301140E-02
      9557 MEMB     78       POPE     H2S      HAL2     0.900000E-01   1.00800           0   0.00000     -0.301140E-02
      9558 MEMB     78       POPE     C3       CTL2     0.800000E-01   12.0110           0   0.00000     -0.301140E-02
      9559 MEMB     78       POPE     HX       HAL2     0.900000E-01   1.00800           0   0.00000     -0.301140E-02
      9560 MEMB     78       POPE     HY       HAL2     0.900000E-01   1.00800           0   0.00000     -0.301140E-02
      9561 MEMB     78       POPE     O31      OSL     -0.490000       15.9994           0   0.00000     -0.301140E-02
      9562 MEMB     78       POPE     C31      CL       0.900000       12.0110           0   0.00000     -0.301140E-02
      9563 MEMB     78       POPE     O32      OBL     -0.630000       15.9994           0   0.00000     -0.301140E-02
      9564 MEMB     78       POPE     C32      CTL2    -0.220000       12.0110           0   0.00000     -0.301140E-02
      9565 MEMB     78       POPE     H2X      HAL2     0.900000E-01   1.00800           0   0.00000     -0.301140E-02
      9566 MEMB     78       POPE     H2Y      HAL2     0.900000E-01   1.00800           0   0.00000     -0.301140E-02
      9567 MEMB     78       POPE     C23      CTL2    -0.180000       12.0110           0   0.00000     -0.301140E-02
      9568 MEMB     78       POPE     H3R      HAL2     0.900000E-01   1.00800           0   0.00000     -0.301140E-02
      9569 MEMB     78       POPE     H3S      HAL2     0.900000E-01   1.00800           0   0.00000     -0.301140E-02
      9570 MEMB     78       POPE     C24      CTL2    -0.180000       12.0110           0   0.00000     -0.301140E-02
      9571 MEMB     78       POPE     H4R      HAL2     0.900000E-01   1.00800           0   0.00000     -0.301140E-02
      9572 MEMB     78       POPE     H4S      HAL2     0.900000E-01   1.00800           0   0.00000     -0.301140E-02
      9573 MEMB     78       POPE     C25      CTL2    -0.180000       12.0110           0   0.00000     -0.301140E-02
      9574 MEMB     78       POPE     H5R      HAL2     0.900000E-01   1.00800           0   0.00000     -0.301140E-02
      9575 MEMB     78       POPE     H5S      HAL2     0.900000E-01   1.00800           0   0.00000     -0.301140E-02
      9576 MEMB     78       POPE     C26      CTL2    -0.180000       12.0110           0   0.00000     -0.301140E-02
      9577 MEMB     78       POPE     H6R      HAL2     0.900000E-01   1.00800           0   0.00000     -0.301140E-02
      9578 MEMB     78       POPE     H6S      HAL2     0.900000E-01   1.00800           0   0.00000     -0.301140E-02
      9579 MEMB     78       POPE     C27      CTL2    -0.180000       12.0110           0   0.00000     -0.301140E-02
      9580 MEMB     78       POPE     H7R      HAL2     0.900000E-01   1.00800           0   0.00000     -0.301140E-02
      9581 MEMB     78       POPE     H7S      HAL2     0.900000E-01   1.00800           0   0.00000     -0.301140E-02
      9582 MEMB     78       POPE     C28      CTL2    -0.180000       12.0110           0   0.00000     -0.301140E-02
      9583 MEMB     78       POPE     H8R      HAL2     0.900000E-01   1.00800           0   0.00000     -0.301140E-02
      9584 MEMB     78       POPE     H8S      HAL2     0.900000E-01   1.00800           0   0.00000     -0.301140E-02
      9585 MEMB     78       POPE     C29      CEL1    -0.150000       12.0110           0   0.00000     -0.301140E-02
      9586 MEMB     78       POPE     H91      HEL1     0.150000       1.00800           0   0.00000     -0.301140E-02
      9587 MEMB     78       POPE     C210     CEL1    -0.150000       12.0110           0   0.00000     -0.301140E-02
      9588 MEMB     78       POPE     H101     HEL1     0.150000       1.00800           0   0.00000     -0.301140E-02
      9589 MEMB     78       POPE     C211     CTL2    -0.180000       12.0110           0   0.00000     -0.301140E-02
      9590 MEMB     78       POPE     H11R     HAL2     0.900000E-01   1.00800           0   0.00000     -0.301140E-02
      9591 MEMB     78       POPE     H11S     HAL2     0.900000E-01   1.00800           0   0.00000     -0.301140E-02
      9592 MEMB     78       POPE     C212     CTL2    -0.180000       12.0110           0   0.00000     -0.301140E-02
      9593 MEMB     78       POPE     H12R     HAL2     0.900000E-01   1.00800           0   0.00000     -0.301140E-02
      9594 MEMB     78       POPE     H12S     HAL2     0.900000E-01   1.00800           0   0.00000     -0.301140E-02
      9595 MEMB     78       POPE     C213     CTL2    -0.180000       12.0110           0   0.00000     -0.301140E-02
      9596 MEMB     78       POPE     H13R     HAL2     0.900000E-01   1.00800           0   0.00000     -0.301140E-02
      9597 MEMB     78       POPE     H13S     HAL2     0.900000E-01   1.00800           0   0.00000     -0.301140E-02
      9598 MEMB     78       POPE     C214     CTL2    -0.180000       12.0110           0   0.00000     -0.301140E-02
      9599 MEMB     78       POPE     H14R     HAL2     0.900000E-01   1.00800           0   0.00000     -0.301140E-02
      9600 MEMB     78       POPE     H14S     HAL2     0.900000E-01   1.00800           0   0.00000     -0.301140E-02
      9601 MEMB     78       POPE     C215     CTL2    -0.180000       12.0110           0   0.00000     -0.301140E-02
      9602 MEMB     78       POPE     H15R     HAL2     0.900000E-01   1.00800           0   0.00000     -0.301140E-02
      9603 MEMB     78       POPE     H15S     HAL2     0.900000E-01   1.00800           0   0.00000     -0.301140E-02
      9604 MEMB     78       POPE     C216     CTL2    -0.180000       12.0110           0   0.00000     -0.301140E-02
      9605 MEMB     78       POPE     H16R     HAL2     0.900000E-01   1.00800           0   0.00000     -0.301140E-02
      9606 MEMB     78       POPE     H16S     HAL2     0.900000E-01   1.00800           0   0.00000     -0.301140E-02
      9607 MEMB     78       POPE     C217     CTL2    -0.180000       12.0110           0   0.00000     -0.301140E-02
      9608 MEMB     78       POPE     H17R     HAL2     0.900000E-01   1.00800           0   0.00000     -0.301140E-02
      9609 MEMB     78       POPE     H17S     HAL2     0.900000E-01   1.00800           0   0.00000     -0.301140E-02
      9610 MEMB     78       POPE     C218     CTL3    -0.270000       12.0110           0   0.00000     -0.301140E-02
      9611 MEMB     78       POPE     H18R     HAL3     0.900000E-01   1.00800           0   0.00000     -0.301140E-02
      9612 MEMB     78       POPE     H18S     HAL3     0.900000E-01   1.00800           0   0.00000     -0.301140E-02
      9613 MEMB     78       POPE     H18T     HAL3     0.900000E-01   1.00800           0   0.00000     -0.301140E-02
      9614 MEMB     78       POPE     C33      CTL2    -0.180000       12.0110           0   0.00000     -0.301140E-02
      9615 MEMB     78       POPE     H3X      HAL2     0.900000E-01   1.00800           0   0.00000     -0.301140E-02
      9616 MEMB     78       POPE     H3Y      HAL2     0.900000E-01   1.00800           0   0.00000     -0.301140E-02
      9617 MEMB     78       POPE     C34      CTL2    -0.180000       12.0110           0   0.00000     -0.301140E-02
      9618 MEMB     78       POPE     H4X      HAL2     0.900000E-01   1.00800           0   0.00000     -0.301140E-02
      9619 MEMB     78       POPE     H4Y      HAL2     0.900000E-01   1.00800           0   0.00000     -0.301140E-02
      9620 MEMB     78       POPE     C35      CTL2    -0.180000       12.0110           0   0.00000     -0.301140E-02
      9621 MEMB     78       POPE     H5X      HAL2     0.900000E-01   1.00800           0   0.00000     -0.301140E-02
      9622 MEMB     78       POPE     H5Y      HAL2     0.900000E-01   1.00800           0   0.00000     -0.301140E-02
      9623 MEMB     78       POPE     C36      CTL2    -0.180000       12.0110           0   0.00000     -0.301140E-02
      9624 MEMB     78       POPE     H6X      HAL2     0.900000E-01   1.00800           0   0.00000     -0.301140E-02
      9625 MEMB     78       POPE     H6Y      HAL2     0.900000E-01   1.00800           0   0.00000     -0.301140E-02
      9626 MEMB     78       POPE     C37      CTL2    -0.180000       12.0110           0   0.00000     -0.301140E-02
      9627 MEMB     78       POPE     H7X      HAL2     0.900000E-01   1.00800           0   0.00000     -0.301140E-02
      9628 MEMB     78       POPE     H7Y      HAL2     0.900000E-01   1.00800           0   0.00000     -0.301140E-02
      9629 MEMB     78       POPE     C38      CTL2    -0.180000       12.0110           0   0.00000     -0.301140E-02
      9630 MEMB     78       POPE     H8X      HAL2     0.900000E-01   1.00800           0   0.00000     -0.301140E-02
      9631 MEMB     78       POPE     H8Y      HAL2     0.900000E-01   1.00800           0   0.00000     -0.301140E-02
      9632 MEMB     78       POPE     C39      CTL2    -0.180000       12.0110           0   0.00000     -0.301140E-02
      9633 MEMB     78       POPE     H9X      HAL2     0.900000E-01   1.00800           0   0.00000     -0.301140E-02
      9634 MEMB     78       POPE     H9Y      HAL2     0.900000E-01   1.00800           0   0.00000     -0.301140E-02
      9635 MEMB     78       POPE     C310     CTL2    -0.180000       12.0110           0   0.00000     -0.301140E-02
      9636 MEMB     78       POPE     H10X     HAL2     0.900000E-01   1.00800           0   0.00000     -0.301140E-02
      9637 MEMB     78       POPE     H10Y     HAL2     0.900000E-01   1.00800           0   0.00000     -0.301140E-02
      9638 MEMB     78       POPE     C311     CTL2    -0.180000       12.0110           0   0.00000     -0.301140E-02
      9639 MEMB     78       POPE     H11X     HAL2     0.900000E-01   1.00800           0   0.00000     -0.301140E-02
      9640 MEMB     78       POPE     H11Y     HAL2     0.900000E-01   1.00800           0   0.00000     -0.301140E-02
      9641 MEMB     78       POPE     C312     CTL2    -0.180000       12.0110           0   0.00000     -0.301140E-02
      9642 MEMB     78       POPE     H12X     HAL2     0.900000E-01   1.00800           0   0.00000     -0.301140E-02
      9643 MEMB     78       POPE     H12Y     HAL2     0.900000E-01   1.00800           0   0.00000     -0.301140E-02
      9644 MEMB     78       POPE     C313     CTL2    -0.180000       12.0110           0   0.00000     -0.301140E-02
      9645 MEMB     78       POPE     H13X     HAL2     0.900000E-01   1.00800           0   0.00000     -0.301140E-02
      9646 MEMB     78       POPE     H13Y     HAL2     0.900000E-01   1.00800           0   0.00000     -0.301140E-02
      9647 MEMB     78       POPE     C314     CTL2    -0.180000       12.0110           0   0.00000     -0.301140E-02
      9648 MEMB     78       POPE     H14X     HAL2     0.900000E-01   1.00800           0   0.00000     -0.301140E-02
      9649 MEMB     78       POPE     H14Y     HAL2     0.900000E-01   1.00800           0   0.00000     -0.301140E-02
      9650 MEMB     78       POPE     C315     CTL2    -0.180000       12.0110           0   0.00000     -0.301140E-02
      9651 MEMB     78       POPE     H15X     HAL2     0.900000E-01   1.00800           0   0.00000     -0.301140E-02
      9652 MEMB     78       POPE     H15Y     HAL2     0.900000E-01   1.00800           0   0.00000     -0.301140E-02
      9653 MEMB     78       POPE     C316     CTL3    -0.270000       12.0110           0   0.00000     -0.301140E-02
      9654 MEMB     78       POPE     H16X     HAL3     0.900000E-01   1.00800           0   0.00000     -0.301140E-02
      9655 MEMB     78       POPE     H16Y     HAL3     0.900000E-01   1.00800           0   0.00000     -0.301140E-02
      9656 MEMB     78       POPE     H16Z     HAL3     0.900000E-01   1.00800           0   0.00000     -0.301140E-02
      9657 MEMB     79       QMPE     N        NH3L    -0.300000       14.0070           0   0.00000     -0.301140E-02
      9658 MEMB     79       QMPE     HN1      HCL      0.330000       1.00800           0   0.00000     -0.301140E-02
      9659 MEMB     79       QMPE     HN2      HCL      0.330000       1.00800           0   0.00000     -0.301140E-02
      9660 MEMB     79       QMPE     HN3      HCL      0.330000       1.00800           0   0.00000     -0.301140E-02
      9661 MEMB     79       QMPE     C12      CTL2     0.130000       12.0110           0   0.00000     -0.301140E-02
      9662 MEMB     79       QMPE     H12A     HAL2     0.900000E-01   1.00800           0   0.00000     -0.301140E-02
      9663 MEMB     79       QMPE     H12B     HAL2     0.900000E-01   1.00800           0   0.00000     -0.301140E-02
      9664 MEMB     79       QMPE     C11      CTL2    -0.800000E-01   12.0110           0   0.00000     -0.301140E-02
      9665 MEMB     79       QMPE     H11A     HAL2     0.900000E-01   1.00800           0   0.00000     -0.301140E-02
      9666 MEMB     79       QMPE     H11B     HAL2     0.900000E-01   1.00800           0   0.00000     -0.301140E-02
      9667 MEMB     79       QMPE     P        PL        1.50000       30.9740           0   0.00000     -0.301140E-02
      9668 MEMB     79       QMPE     O13      O2L     -0.780000       15.9994           0   0.00000     -0.301140E-02
      9669 MEMB     79       QMPE     O14      O2L     -0.780000       15.9994           0   0.00000     -0.301140E-02
      9670 MEMB     79       QMPE     O11      OSLP    -0.570000       15.9994           0   0.00000     -0.301140E-02
      9671 MEMB     79       QMPE     O12      OSLP    -0.570000       15.9994           0   0.00000     -0.301140E-02
      9672 MEMB     79       QMPE     C1       CTL2    -0.800000E-01   12.0110           0   0.00000     -0.301140E-02
      9673 MEMB     79       QMPE     HA       HAL2     0.900000E-01   1.00800           0   0.00000     -0.301140E-02
      9674 MEMB     79       QMPE     HB       HAL2     0.900000E-01   1.00800           0   0.00000     -0.301140E-02
      9675 MEMB     79       QMPE     C2       CTL1     0.170000       12.0110           0   0.00000     -0.301140E-02
      9676 MEMB     79       QMPE     HS       HAL1     0.900000E-01   1.00800           0   0.00000     -0.301140E-02
      9677 MEMB     79       QMPE     O21      OSL     -0.490000       15.9994           0   0.00000     -0.301140E-02
      9678 MEMB     79       QMPE     C21      CL       0.900000       12.0110           0   0.00000     -0.301140E-02
      9679 MEMB     79       QMPE     O22      OBL     -0.630000       15.9994           0   0.00000     -0.301140E-02
      9680 MEMB     79       QMPE     C22      CTL2    -0.220000       12.0110           0   0.00000     -0.301140E-02
      9681 MEMB     79       QMPE     H2R      HAL2     0.900000E-01   1.00800           0   0.00000     -0.301140E-02
      9682 MEMB     79       QMPE     H2S      HAL2     0.900000E-01   1.00800           0   0.00000     -0.301140E-02
      9683 MEMB     79       QMPE     C3       CTL2     0.800000E-01   12.0110           0   0.00000     -0.301140E-02
      9684 MEMB     79       QMPE     HX       HAL2     0.900000E-01   1.00800           0   0.00000     -0.301140E-02
      9685 MEMB     79       QMPE     HY       HAL2     0.900000E-01   1.00800           0   0.00000     -0.301140E-02
      9686 MEMB     79       QMPE     O31      OSL     -0.490000       15.9994           0   0.00000     -0.301140E-02
      9687 MEMB     79       QMPE     C31      CL       0.900000       12.0110           0   0.00000     -0.301140E-02
      9688 MEMB     79       QMPE     O32      OBL     -0.630000       15.9994           0   0.00000     -0.301140E-02
      9689 MEMB     79       QMPE     C32      CTL2    -0.220000       12.0110           0   0.00000     -0.301140E-02
      9690 MEMB     79       QMPE     H2X      HAL2     0.900000E-01   1.00800           0   0.00000     -0.301140E-02
      9691 MEMB     79       QMPE     H2Y      HAL2     0.900000E-01   1.00800           0   0.00000     -0.301140E-02
      9692 MEMB     79       QMPE     C23      CTL2    -0.180000       12.0110           0   0.00000     -0.301140E-02
      9693 MEMB     79       QMPE     H3R      HAL2     0.900000E-01   1.00800           0   0.00000     -0.301140E-02
      9694 MEMB     79       QMPE     H3S      HAL2     0.900000E-01   1.00800           0   0.00000     -0.301140E-02
      9695 MEMB     79       QMPE     C24      CTL2    -0.180000       12.0110           0   0.00000     -0.301140E-02
      9696 MEMB     79       QMPE     H4R      HAL2     0.900000E-01   1.00800           0   0.00000     -0.301140E-02
      9697 MEMB     79       QMPE     H4S      HAL2     0.900000E-01   1.00800           0   0.00000     -0.301140E-02
      9698 MEMB     79       QMPE     C25      CTL2    -0.180000       12.0110           0   0.00000     -0.301140E-02
      9699 MEMB     79       QMPE     H5R      HAL2     0.900000E-01   1.00800           0   0.00000     -0.301140E-02
      9700 MEMB     79       QMPE     H5S      HAL2     0.900000E-01   1.00800           0   0.00000     -0.301140E-02
      9701 MEMB     79       QMPE     C26      CTL2    -0.180000       12.0110           0   0.00000     -0.301140E-02
      9702 MEMB     79       QMPE     H6R      HAL2     0.900000E-01   1.00800           0   0.00000     -0.301140E-02
      9703 MEMB     79       QMPE     H6S      HAL2     0.900000E-01   1.00800           0   0.00000     -0.301140E-02
      9704 MEMB     79       QMPE     C27      CTL2    -0.180000       12.0110           0   0.00000     -0.301140E-02
      9705 MEMB     79       QMPE     H7R      HAL2     0.900000E-01   1.00800           0   0.00000     -0.301140E-02
      9706 MEMB     79       QMPE     H7S      HAL2     0.900000E-01   1.00800           0   0.00000     -0.301140E-02
      9707 MEMB     79       QMPE     C28      CTL2    -0.180000       12.0110           0   0.00000     -0.301140E-02
      9708 MEMB     79       QMPE     H8R      HAL2     0.900000E-01   1.00800           0   0.00000     -0.301140E-02
      9709 MEMB     79       QMPE     H8S      HAL2     0.900000E-01   1.00800           0   0.00000     -0.301140E-02
      9710 MEMB     79       QMPE     C29      CG3RC1  -0.900000E-01   12.0110           0   0.00000     -0.301140E-02
      9711 MEMB     79       QMPE     H9R      HGA1     0.900000E-01   1.00800           0   0.00000     -0.301140E-02
      9712 MEMB     79       QMPE     C217     CG3C31  -0.180000       12.0110           0   0.00000     -0.301140E-02
      9713 MEMB     79       QMPE     H17R     HGA2     0.900000E-01   1.00800           0   0.00000     -0.301140E-02
      9714 MEMB     79       QMPE     H17S     HGA2     0.900000E-01   1.00800           0   0.00000     -0.301140E-02
      9715 MEMB     79       QMPE     C210     CG3RC1  -0.900000E-01   12.0110           0   0.00000     -0.301140E-02
      9716 MEMB     79       QMPE     H10R     HGA1     0.900000E-01   1.00800           0   0.00000     -0.301140E-02
      9717 MEMB     79       QMPE     C211     CTL2    -0.180000       12.0110           0   0.00000     -0.301140E-02
      9718 MEMB     79       QMPE     H11R     HAL2     0.900000E-01   1.00800           0   0.00000     -0.301140E-02
      9719 MEMB     79       QMPE     H11S     HAL2     0.900000E-01   1.00800           0   0.00000     -0.301140E-02
      9720 MEMB     79       QMPE     C212     CTL2    -0.180000       12.0110           0   0.00000     -0.301140E-02
      9721 MEMB     79       QMPE     H12R     HAL2     0.900000E-01   1.00800           0   0.00000     -0.301140E-02
      9722 MEMB     79       QMPE     H12S     HAL2     0.900000E-01   1.00800           0   0.00000     -0.301140E-02
      9723 MEMB     79       QMPE     C213     CTL2    -0.180000       12.0110           0   0.00000     -0.301140E-02
      9724 MEMB     79       QMPE     H13R     HAL2     0.900000E-01   1.00800           0   0.00000     -0.301140E-02
      9725 MEMB     79       QMPE     H13S     HAL2     0.900000E-01   1.00800           0   0.00000     -0.301140E-02
      9726 MEMB     79       QMPE     C214     CTL2    -0.180000       12.0110           0   0.00000     -0.301140E-02
      9727 MEMB     79       QMPE     H14R     HAL2     0.900000E-01   1.00800           0   0.00000     -0.301140E-02
      9728 MEMB     79       QMPE     H14S     HAL2     0.900000E-01   1.00800           0   0.00000     -0.301140E-02
      9729 MEMB     79       QMPE     C215     CTL2    -0.180000       12.0110           0   0.00000     -0.301140E-02
      9730 MEMB     79       QMPE     H15R     HAL2     0.900000E-01   1.00800           0   0.00000     -0.301140E-02
      9731 MEMB     79       QMPE     H15S     HAL2     0.900000E-01   1.00800           0   0.00000     -0.301140E-02
      9732 MEMB     79       QMPE     C216     CTL3    -0.270000       12.0110           0   0.00000     -0.301140E-02
      9733 MEMB     79       QMPE     H16R     HAL3     0.900000E-01   1.00800           0   0.00000     -0.301140E-02
      9734 MEMB     79       QMPE     H16S     HAL3     0.900000E-01   1.00800           0   0.00000     -0.301140E-02
      9735 MEMB     79       QMPE     H16T     HAL3     0.900000E-01   1.00800           0   0.00000     -0.301140E-02
      9736 MEMB     79       QMPE     C33      CTL2    -0.180000       12.0110           0   0.00000     -0.301140E-02
      9737 MEMB     79       QMPE     H3X      HAL2     0.900000E-01   1.00800           0   0.00000     -0.301140E-02
      9738 MEMB     79       QMPE     H3Y      HAL2     0.900000E-01   1.00800           0   0.00000     -0.301140E-02
      9739 MEMB     79       QMPE     C34      CTL2    -0.180000       12.0110           0   0.00000     -0.301140E-02
      9740 MEMB     79       QMPE     H4X      HAL2     0.900000E-01   1.00800           0   0.00000     -0.301140E-02
      9741 MEMB     79       QMPE     H4Y      HAL2     0.900000E-01   1.00800           0   0.00000     -0.301140E-02
      9742 MEMB     79       QMPE     C35      CTL2    -0.180000       12.0110           0   0.00000     -0.301140E-02
      9743 MEMB     79       QMPE     H5X      HAL2     0.900000E-01   1.00800           0   0.00000     -0.301140E-02
      9744 MEMB     79       QMPE     H5Y      HAL2     0.900000E-01   1.00800           0   0.00000     -0.301140E-02
      9745 MEMB     79       QMPE     C36      CTL2    -0.180000       12.0110           0   0.00000     -0.301140E-02
      9746 MEMB     79       QMPE     H6X      HAL2     0.900000E-01   1.00800           0   0.00000     -0.301140E-02
      9747 MEMB     79       QMPE     H6Y      HAL2     0.900000E-01   1.00800           0   0.00000     -0.301140E-02
      9748 MEMB     79       QMPE     C37      CTL2    -0.180000       12.0110           0   0.00000     -0.301140E-02
      9749 MEMB     79       QMPE     H7X      HAL2     0.900000E-01   1.00800           0   0.00000     -0.301140E-02
      9750 MEMB     79       QMPE     H7Y      HAL2     0.900000E-01   1.00800           0   0.00000     -0.301140E-02
      9751 MEMB     79       QMPE     C38      CTL2    -0.180000       12.0110           0   0.00000     -0.301140E-02
      9752 MEMB     79       QMPE     H8X      HAL2     0.900000E-01   1.00800           0   0.00000     -0.301140E-02
      9753 MEMB     79       QMPE     H8Y      HAL2     0.900000E-01   1.00800           0   0.00000     -0.301140E-02
      9754 MEMB     79       QMPE     C39      CTL2    -0.180000       12.0110           0   0.00000     -0.301140E-02
      9755 MEMB     79       QMPE     H9X      HAL2     0.900000E-01   1.00800           0   0.00000     -0.301140E-02
      9756 MEMB     79       QMPE     H9Y      HAL2     0.900000E-01   1.00800           0   0.00000     -0.301140E-02
      9757 MEMB     79       QMPE     C310     CTL2    -0.180000       12.0110           0   0.00000     -0.301140E-02
      9758 MEMB     79       QMPE     H10X     HAL2     0.900000E-01   1.00800           0   0.00000     -0.301140E-02
      9759 MEMB     79       QMPE     H10Y     HAL2     0.900000E-01   1.00800           0   0.00000     -0.301140E-02
      9760 MEMB     79       QMPE     C311     CTL2    -0.180000       12.0110           0   0.00000     -0.301140E-02
      9761 MEMB     79       QMPE     H11X     HAL2     0.900000E-01   1.00800           0   0.00000     -0.301140E-02
      9762 MEMB     79       QMPE     H11Y     HAL2     0.900000E-01   1.00800           0   0.00000     -0.301140E-02
      9763 MEMB     79       QMPE     C312     CTL2    -0.180000       12.0110           0   0.00000     -0.301140E-02
      9764 MEMB     79       QMPE     H12X     HAL2     0.900000E-01   1.00800           0   0.00000     -0.301140E-02
      9765 MEMB     79       QMPE     H12Y     HAL2     0.900000E-01   1.00800           0   0.00000     -0.301140E-02
      9766 MEMB     79       QMPE     C313     CTL2    -0.180000       12.0110           0   0.00000     -0.301140E-02
      9767 MEMB     79       QMPE     H13X     HAL2     0.900000E-01   1.00800           0   0.00000     -0.301140E-02
      9768 MEMB     79       QMPE     H13Y     HAL2     0.900000E-01   1.00800           0   0.00000     -0.301140E-02
      9769 MEMB     79       QMPE     C314     CTL2    -0.180000       12.0110           0   0.00000     -0.301140E-02
      9770 MEMB     79       QMPE     H14X     HAL2     0.900000E-01   1.00800           0   0.00000     -0.301140E-02
      9771 MEMB     79       QMPE     H14Y     HAL2     0.900000E-01   1.00800           0   0.00000     -0.301140E-02
      9772 MEMB     79       QMPE     C315     CTL3    -0.270000       12.0110           0   0.00000     -0.301140E-02
      9773 MEMB     79       QMPE     H15X     HAL3     0.900000E-01   1.00800           0   0.00000     -0.301140E-02
      9774 MEMB     79       QMPE     H15Y     HAL3     0.900000E-01   1.00800           0   0.00000     -0.301140E-02
      9775 MEMB     79       QMPE     H15Z     HAL3     0.900000E-01   1.00800           0   0.00000     -0.301140E-02
      9776 MEMB     80       PMPE     N        NH3L    -0.300000       14.0070           0   0.00000     -0.301140E-02
      9777 MEMB     80       PMPE     HN1      HCL      0.330000       1.00800           0   0.00000     -0.301140E-02
      9778 MEMB     80       PMPE     HN2      HCL      0.330000       1.00800           0   0.00000     -0.301140E-02
      9779 MEMB     80       PMPE     HN3      HCL      0.330000       1.00800           0   0.00000     -0.301140E-02
      9780 MEMB     80       PMPE     C12      CTL2     0.130000       12.0110           0   0.00000     -0.301140E-02
      9781 MEMB     80       PMPE     H12A     HAL2     0.900000E-01   1.00800           0   0.00000     -0.301140E-02
      9782 MEMB     80       PMPE     H12B     HAL2     0.900000E-01   1.00800           0   0.00000     -0.301140E-02
      9783 MEMB     80       PMPE     C11      CTL2    -0.800000E-01   12.0110           0   0.00000     -0.301140E-02
      9784 MEMB     80       PMPE     H11A     HAL2     0.900000E-01   1.00800           0   0.00000     -0.301140E-02
      9785 MEMB     80       PMPE     H11B     HAL2     0.900000E-01   1.00800           0   0.00000     -0.301140E-02
      9786 MEMB     80       PMPE     P        PL        1.50000       30.9740           0   0.00000     -0.301140E-02
      9787 MEMB     80       PMPE     O13      O2L     -0.780000       15.9994           0   0.00000     -0.301140E-02
      9788 MEMB     80       PMPE     O14      O2L     -0.780000       15.9994           0   0.00000     -0.301140E-02
      9789 MEMB     80       PMPE     O11      OSLP    -0.570000       15.9994           0   0.00000     -0.301140E-02
      9790 MEMB     80       PMPE     O12      OSLP    -0.570000       15.9994           0   0.00000     -0.301140E-02
      9791 MEMB     80       PMPE     C1       CTL2    -0.800000E-01   12.0110           0   0.00000     -0.301140E-02
      9792 MEMB     80       PMPE     HA       HAL2     0.900000E-01   1.00800           0   0.00000     -0.301140E-02
      9793 MEMB     80       PMPE     HB       HAL2     0.900000E-01   1.00800           0   0.00000     -0.301140E-02
      9794 MEMB     80       PMPE     C2       CTL1     0.170000       12.0110           0   0.00000     -0.301140E-02
      9795 MEMB     80       PMPE     HS       HAL1     0.900000E-01   1.00800           0   0.00000     -0.301140E-02
      9796 MEMB     80       PMPE     O21      OSL     -0.490000       15.9994           0   0.00000     -0.301140E-02
      9797 MEMB     80       PMPE     C21      CL       0.900000       12.0110           0   0.00000     -0.301140E-02
      9798 MEMB     80       PMPE     O22      OBL     -0.630000       15.9994           0   0.00000     -0.301140E-02
      9799 MEMB     80       PMPE     C22      CTL2    -0.220000       12.0110           0   0.00000     -0.301140E-02
      9800 MEMB     80       PMPE     H2R      HAL2     0.900000E-01   1.00800           0   0.00000     -0.301140E-02
      9801 MEMB     80       PMPE     H2S      HAL2     0.900000E-01   1.00800           0   0.00000     -0.301140E-02
      9802 MEMB     80       PMPE     C3       CTL2     0.800000E-01   12.0110           0   0.00000     -0.301140E-02
      9803 MEMB     80       PMPE     HX       HAL2     0.900000E-01   1.00800           0   0.00000     -0.301140E-02
      9804 MEMB     80       PMPE     HY       HAL2     0.900000E-01   1.00800           0   0.00000     -0.301140E-02
      9805 MEMB     80       PMPE     O31      OSL     -0.490000       15.9994           0   0.00000     -0.301140E-02
      9806 MEMB     80       PMPE     C31      CL       0.900000       12.0110           0   0.00000     -0.301140E-02
      9807 MEMB     80       PMPE     O32      OBL     -0.630000       15.9994           0   0.00000     -0.301140E-02
      9808 MEMB     80       PMPE     C32      CTL2    -0.220000       12.0110           0   0.00000     -0.301140E-02
      9809 MEMB     80       PMPE     H2X      HAL2     0.900000E-01   1.00800           0   0.00000     -0.301140E-02
      9810 MEMB     80       PMPE     H2Y      HAL2     0.900000E-01   1.00800           0   0.00000     -0.301140E-02
      9811 MEMB     80       PMPE     C23      CTL2    -0.180000       12.0110           0   0.00000     -0.301140E-02
      9812 MEMB     80       PMPE     H3R      HAL2     0.900000E-01   1.00800           0   0.00000     -0.301140E-02
      9813 MEMB     80       PMPE     H3S      HAL2     0.900000E-01   1.00800           0   0.00000     -0.301140E-02
      9814 MEMB     80       PMPE     C24      CTL2    -0.180000       12.0110           0   0.00000     -0.301140E-02
      9815 MEMB     80       PMPE     H4R      HAL2     0.900000E-01   1.00800           0   0.00000     -0.301140E-02
      9816 MEMB     80       PMPE     H4S      HAL2     0.900000E-01   1.00800           0   0.00000     -0.301140E-02
      9817 MEMB     80       PMPE     C25      CTL2    -0.180000       12.0110           0   0.00000     -0.301140E-02
      9818 MEMB     80       PMPE     H5R      HAL2     0.900000E-01   1.00800           0   0.00000     -0.301140E-02
      9819 MEMB     80       PMPE     H5S      HAL2     0.900000E-01   1.00800           0   0.00000     -0.301140E-02
      9820 MEMB     80       PMPE     C26      CTL2    -0.180000       12.0110           0   0.00000     -0.301140E-02
      9821 MEMB     80       PMPE     H6R      HAL2     0.900000E-01   1.00800           0   0.00000     -0.301140E-02
      9822 MEMB     80       PMPE     H6S      HAL2     0.900000E-01   1.00800           0   0.00000     -0.301140E-02
      9823 MEMB     80       PMPE     C27      CTL2    -0.180000       12.0110           0   0.00000     -0.301140E-02
      9824 MEMB     80       PMPE     H7R      HAL2     0.900000E-01   1.00800           0   0.00000     -0.301140E-02
      9825 MEMB     80       PMPE     H7S      HAL2     0.900000E-01   1.00800           0   0.00000     -0.301140E-02
      9826 MEMB     80       PMPE     C28      CTL2    -0.180000       12.0110           0   0.00000     -0.301140E-02
      9827 MEMB     80       PMPE     H8R      HAL2     0.900000E-01   1.00800           0   0.00000     -0.301140E-02
      9828 MEMB     80       PMPE     H8S      HAL2     0.900000E-01   1.00800           0   0.00000     -0.301140E-02
      9829 MEMB     80       PMPE     C29      CG3RC1  -0.900000E-01   12.0110           0   0.00000     -0.301140E-02
      9830 MEMB     80       PMPE     H9R      HGA1     0.900000E-01   1.00800           0   0.00000     -0.301140E-02
      9831 MEMB     80       PMPE     C217     CG3C31  -0.180000       12.0110           0   0.00000     -0.301140E-02
      9832 MEMB     80       PMPE     H17R     HGA2     0.900000E-01   1.00800           0   0.00000     -0.301140E-02
      9833 MEMB     80       PMPE     H17S     HGA2     0.900000E-01   1.00800           0   0.00000     -0.301140E-02
      9834 MEMB     80       PMPE     C210     CG3RC1  -0.900000E-01   12.0110           0   0.00000     -0.301140E-02
      9835 MEMB     80       PMPE     H10R     HGA1     0.900000E-01   1.00800           0   0.00000     -0.301140E-02
      9836 MEMB     80       PMPE     C211     CTL2    -0.180000       12.0110           0   0.00000     -0.301140E-02
      9837 MEMB     80       PMPE     H11R     HAL2     0.900000E-01   1.00800           0   0.00000     -0.301140E-02
      9838 MEMB     80       PMPE     H11S     HAL2     0.900000E-01   1.00800           0   0.00000     -0.301140E-02
      9839 MEMB     80       PMPE     C212     CTL2    -0.180000       12.0110           0   0.00000     -0.301140E-02
      9840 MEMB     80       PMPE     H12R     HAL2     0.900000E-01   1.00800           0   0.00000     -0.301140E-02
      9841 MEMB     80       PMPE     H12S     HAL2     0.900000E-01   1.00800           0   0.00000     -0.301140E-02
      9842 MEMB     80       PMPE     C213     CTL2    -0.180000       12.0110           0   0.00000     -0.301140E-02
      9843 MEMB     80       PMPE     H13R     HAL2     0.900000E-01   1.00800           0   0.00000     -0.301140E-02
      9844 MEMB     80       PMPE     H13S     HAL2     0.900000E-01   1.00800           0   0.00000     -0.301140E-02
      9845 MEMB     80       PMPE     C214     CTL2    -0.180000       12.0110           0   0.00000     -0.301140E-02
      9846 MEMB     80       PMPE     H14R     HAL2     0.900000E-01   1.00800           0   0.00000     -0.301140E-02
      9847 MEMB     80       PMPE     H14S     HAL2     0.900000E-01   1.00800           0   0.00000     -0.301140E-02
      9848 MEMB     80       PMPE     C215     CTL2    -0.180000       12.0110           0   0.00000     -0.301140E-02
      9849 MEMB     80       PMPE     H15R     HAL2     0.900000E-01   1.00800           0   0.00000     -0.301140E-02
      9850 MEMB     80       PMPE     H15S     HAL2     0.900000E-01   1.00800           0   0.00000     -0.301140E-02
      9851 MEMB     80       PMPE     C216     CTL3    -0.270000       12.0110           0   0.00000     -0.301140E-02
      9852 MEMB     80       PMPE     H16R     HAL3     0.900000E-01   1.00800           0   0.00000     -0.301140E-02
      9853 MEMB     80       PMPE     H16S     HAL3     0.900000E-01   1.00800           0   0.00000     -0.301140E-02
      9854 MEMB     80       PMPE     H16T     HAL3     0.900000E-01   1.00800           0   0.00000     -0.301140E-02
      9855 MEMB     80       PMPE     C33      CTL2    -0.180000       12.0110           0   0.00000     -0.301140E-02
      9856 MEMB     80       PMPE     H3X      HAL2     0.900000E-01   1.00800           0   0.00000     -0.301140E-02
      9857 MEMB     80       PMPE     H3Y      HAL2     0.900000E-01   1.00800           0   0.00000     -0.301140E-02
      9858 MEMB     80       PMPE     C34      CTL2    -0.180000       12.0110           0   0.00000     -0.301140E-02
      9859 MEMB     80       PMPE     H4X      HAL2     0.900000E-01   1.00800           0   0.00000     -0.301140E-02
      9860 MEMB     80       PMPE     H4Y      HAL2     0.900000E-01   1.00800           0   0.00000     -0.301140E-02
      9861 MEMB     80       PMPE     C35      CTL2    -0.180000       12.0110           0   0.00000     -0.301140E-02
      9862 MEMB     80       PMPE     H5X      HAL2     0.900000E-01   1.00800           0   0.00000     -0.301140E-02
      9863 MEMB     80       PMPE     H5Y      HAL2     0.900000E-01   1.00800           0   0.00000     -0.301140E-02
      9864 MEMB     80       PMPE     C36      CTL2    -0.180000       12.0110           0   0.00000     -0.301140E-02
      9865 MEMB     80       PMPE     H6X      HAL2     0.900000E-01   1.00800           0   0.00000     -0.301140E-02
      9866 MEMB     80       PMPE     H6Y      HAL2     0.900000E-01   1.00800           0   0.00000     -0.301140E-02
      9867 MEMB     80       PMPE     C37      CTL2    -0.180000       12.0110           0   0.00000     -0.301140E-02
      9868 MEMB     80       PMPE     H7X      HAL2     0.900000E-01   1.00800           0   0.00000     -0.301140E-02
      9869 MEMB     80       PMPE     H7Y      HAL2     0.900000E-01   1.00800           0   0.00000     -0.301140E-02
      9870 MEMB     80       PMPE     C38      CTL2    -0.180000       12.0110           0   0.00000     -0.301140E-02
      9871 MEMB     80       PMPE     H8X      HAL2     0.900000E-01   1.00800           0   0.00000     -0.301140E-02
      9872 MEMB     80       PMPE     H8Y      HAL2     0.900000E-01   1.00800           0   0.00000     -0.301140E-02
      9873 MEMB     80       PMPE     C39      CTL2    -0.180000       12.0110           0   0.00000     -0.301140E-02
      9874 MEMB     80       PMPE     H9X      HAL2     0.900000E-01   1.00800           0   0.00000     -0.301140E-02
      9875 MEMB     80       PMPE     H9Y      HAL2     0.900000E-01   1.00800           0   0.00000     -0.301140E-02
      9876 MEMB     80       PMPE     C310     CTL2    -0.180000       12.0110           0   0.00000     -0.301140E-02
      9877 MEMB     80       PMPE     H10X     HAL2     0.900000E-01   1.00800           0   0.00000     -0.301140E-02
      9878 MEMB     80       PMPE     H10Y     HAL2     0.900000E-01   1.00800           0   0.00000     -0.301140E-02
      9879 MEMB     80       PMPE     C311     CTL2    -0.180000       12.0110           0   0.00000     -0.301140E-02
      9880 MEMB     80       PMPE     H11X     HAL2     0.900000E-01   1.00800           0   0.00000     -0.301140E-02
      9881 MEMB     80       PMPE     H11Y     HAL2     0.900000E-01   1.00800           0   0.00000     -0.301140E-02
      9882 MEMB     80       PMPE     C312     CTL2    -0.180000       12.0110           0   0.00000     -0.301140E-02
      9883 MEMB     80       PMPE     H12X     HAL2     0.900000E-01   1.00800           0   0.00000     -0.301140E-02
      9884 MEMB     80       PMPE     H12Y     HAL2     0.900000E-01   1.00800           0   0.00000     -0.301140E-02
      9885 MEMB     80       PMPE     C313     CTL2    -0.180000       12.0110           0   0.00000     -0.301140E-02
      9886 MEMB     80       PMPE     H13X     HAL2     0.900000E-01   1.00800           0   0.00000     -0.301140E-02
      9887 MEMB     80       PMPE     H13Y     HAL2     0.900000E-01   1.00800           0   0.00000     -0.301140E-02
      9888 MEMB     80       PMPE     C314     CTL2    -0.180000       12.0110           0   0.00000     -0.301140E-02
      9889 MEMB     80       PMPE     H14X     HAL2     0.900000E-01   1.00800           0   0.00000     -0.301140E-02
      9890 MEMB     80       PMPE     H14Y     HAL2     0.900000E-01   1.00800           0   0.00000     -0.301140E-02
      9891 MEMB     80       PMPE     C315     CTL2    -0.180000       12.0110           0   0.00000     -0.301140E-02
      9892 MEMB     80       PMPE     H15X     HAL2     0.900000E-01   1.00800           0   0.00000     -0.301140E-02
      9893 MEMB     80       PMPE     H15Y     HAL2     0.900000E-01   1.00800           0   0.00000     -0.301140E-02
      9894 MEMB     80       PMPE     C316     CTL3    -0.270000       12.0110           0   0.00000     -0.301140E-02
      9895 MEMB     80       PMPE     H16X     HAL3     0.900000E-01   1.00800           0   0.00000     -0.301140E-02
      9896 MEMB     80       PMPE     H16Y     HAL3     0.900000E-01   1.00800           0   0.00000     -0.301140E-02
      9897 MEMB     80       PMPE     H16Z     HAL3     0.900000E-01   1.00800           0   0.00000     -0.301140E-02
      9898 MEMB     81       QMPE     N        NH3L    -0.300000       14.0070           0   0.00000     -0.301140E-02
      9899 MEMB     81       QMPE     HN1      HCL      0.330000       1.00800           0   0.00000     -0.301140E-02
      9900 MEMB     81       QMPE     HN2      HCL      0.330000       1.00800           0   0.00000     -0.301140E-02
      9901 MEMB     81       QMPE     HN3      HCL      0.330000       1.00800           0   0.00000     -0.301140E-02
      9902 MEMB     81       QMPE     C12      CTL2     0.130000       12.0110           0   0.00000     -0.301140E-02
      9903 MEMB     81       QMPE     H12A     HAL2     0.900000E-01   1.00800           0   0.00000     -0.301140E-02
      9904 MEMB     81       QMPE     H12B     HAL2     0.900000E-01   1.00800           0   0.00000     -0.301140E-02
      9905 MEMB     81       QMPE     C11      CTL2    -0.800000E-01   12.0110           0   0.00000     -0.301140E-02
      9906 MEMB     81       QMPE     H11A     HAL2     0.900000E-01   1.00800           0   0.00000     -0.301140E-02
      9907 MEMB     81       QMPE     H11B     HAL2     0.900000E-01   1.00800           0   0.00000     -0.301140E-02
      9908 MEMB     81       QMPE     P        PL        1.50000       30.9740           0   0.00000     -0.301140E-02
      9909 MEMB     81       QMPE     O13      O2L     -0.780000       15.9994           0   0.00000     -0.301140E-02
      9910 MEMB     81       QMPE     O14      O2L     -0.780000       15.9994           0   0.00000     -0.301140E-02
      9911 MEMB     81       QMPE     O11      OSLP    -0.570000       15.9994           0   0.00000     -0.301140E-02
      9912 MEMB     81       QMPE     O12      OSLP    -0.570000       15.9994           0   0.00000     -0.301140E-02
      9913 MEMB     81       QMPE     C1       CTL2    -0.800000E-01   12.0110           0   0.00000     -0.301140E-02
      9914 MEMB     81       QMPE     HA       HAL2     0.900000E-01   1.00800           0   0.00000     -0.301140E-02
      9915 MEMB     81       QMPE     HB       HAL2     0.900000E-01   1.00800           0   0.00000     -0.301140E-02
      9916 MEMB     81       QMPE     C2       CTL1     0.170000       12.0110           0   0.00000     -0.301140E-02
      9917 MEMB     81       QMPE     HS       HAL1     0.900000E-01   1.00800           0   0.00000     -0.301140E-02
      9918 MEMB     81       QMPE     O21      OSL     -0.490000       15.9994           0   0.00000     -0.301140E-02
      9919 MEMB     81       QMPE     C21      CL       0.900000       12.0110           0   0.00000     -0.301140E-02
      9920 MEMB     81       QMPE     O22      OBL     -0.630000       15.9994           0   0.00000     -0.301140E-02
      9921 MEMB     81       QMPE     C22      CTL2    -0.220000       12.0110           0   0.00000     -0.301140E-02
      9922 MEMB     81       QMPE     H2R      HAL2     0.900000E-01   1.00800           0   0.00000     -0.301140E-02
      9923 MEMB     81       QMPE     H2S      HAL2     0.900000E-01   1.00800           0   0.00000     -0.301140E-02
      9924 MEMB     81       QMPE     C3       CTL2     0.800000E-01   12.0110           0   0.00000     -0.301140E-02
      9925 MEMB     81       QMPE     HX       HAL2     0.900000E-01   1.00800           0   0.00000     -0.301140E-02
      9926 MEMB     81       QMPE     HY       HAL2     0.900000E-01   1.00800           0   0.00000     -0.301140E-02
      9927 MEMB     81       QMPE     O31      OSL     -0.490000       15.9994           0   0.00000     -0.301140E-02
      9928 MEMB     81       QMPE     C31      CL       0.900000       12.0110           0   0.00000     -0.301140E-02
      9929 MEMB     81       QMPE     O32      OBL     -0.630000       15.9994           0   0.00000     -0.301140E-02
      9930 MEMB     81       QMPE     C32      CTL2    -0.220000       12.0110           0   0.00000     -0.301140E-02
      9931 MEMB     81       QMPE     H2X      HAL2     0.900000E-01   1.00800           0   0.00000     -0.301140E-02
      9932 MEMB     81       QMPE     H2Y      HAL2     0.900000E-01   1.00800           0   0.00000     -0.301140E-02
      9933 MEMB     81       QMPE     C23      CTL2    -0.180000       12.0110           0   0.00000     -0.301140E-02
      9934 MEMB     81       QMPE     H3R      HAL2     0.900000E-01   1.00800           0   0.00000     -0.301140E-02
      9935 MEMB     81       QMPE     H3S      HAL2     0.900000E-01   1.00800           0   0.00000     -0.301140E-02
      9936 MEMB     81       QMPE     C24      CTL2    -0.180000       12.0110           0   0.00000     -0.301140E-02
      9937 MEMB     81       QMPE     H4R      HAL2     0.900000E-01   1.00800           0   0.00000     -0.301140E-02
      9938 MEMB     81       QMPE     H4S      HAL2     0.900000E-01   1.00800           0   0.00000     -0.301140E-02
      9939 MEMB     81       QMPE     C25      CTL2    -0.180000       12.0110           0   0.00000     -0.301140E-02
      9940 MEMB     81       QMPE     H5R      HAL2     0.900000E-01   1.00800           0   0.00000     -0.301140E-02
      9941 MEMB     81       QMPE     H5S      HAL2     0.900000E-01   1.00800           0   0.00000     -0.301140E-02
      9942 MEMB     81       QMPE     C26      CTL2    -0.180000       12.0110           0   0.00000     -0.301140E-02
      9943 MEMB     81       QMPE     H6R      HAL2     0.900000E-01   1.00800           0   0.00000     -0.301140E-02
      9944 MEMB     81       QMPE     H6S      HAL2     0.900000E-01   1.00800           0   0.00000     -0.301140E-02
      9945 MEMB     81       QMPE     C27      CTL2    -0.180000       12.0110           0   0.00000     -0.301140E-02
      9946 MEMB     81       QMPE     H7R      HAL2     0.900000E-01   1.00800           0   0.00000     -0.301140E-02
      9947 MEMB     81       QMPE     H7S      HAL2     0.900000E-01   1.00800           0   0.00000     -0.301140E-02
      9948 MEMB     81       QMPE     C28      CTL2    -0.180000       12.0110           0   0.00000     -0.301140E-02
      9949 MEMB     81       QMPE     H8R      HAL2     0.900000E-01   1.00800           0   0.00000     -0.301140E-02
      9950 MEMB     81       QMPE     H8S      HAL2     0.900000E-01   1.00800           0   0.00000     -0.301140E-02
      9951 MEMB     81       QMPE     C29      CG3RC1  -0.900000E-01   12.0110           0   0.00000     -0.301140E-02
      9952 MEMB     81       QMPE     H9R      HGA1     0.900000E-01   1.00800           0   0.00000     -0.301140E-02
      9953 MEMB     81       QMPE     C217     CG3C31  -0.180000       12.0110           0   0.00000     -0.301140E-02
      9954 MEMB     81       QMPE     H17R     HGA2     0.900000E-01   1.00800           0   0.00000     -0.301140E-02
      9955 MEMB     81       QMPE     H17S     HGA2     0.900000E-01   1.00800           0   0.00000     -0.301140E-02
      9956 MEMB     81       QMPE     C210     CG3RC1  -0.900000E-01   12.0110           0   0.00000     -0.301140E-02
      9957 MEMB     81       QMPE     H10R     HGA1     0.900000E-01   1.00800           0   0.00000     -0.301140E-02
      9958 MEMB     81       QMPE     C211     CTL2    -0.180000       12.0110           0   0.00000     -0.301140E-02
      9959 MEMB     81       QMPE     H11R     HAL2     0.900000E-01   1.00800           0   0.00000     -0.301140E-02
      9960 MEMB     81       QMPE     H11S     HAL2     0.900000E-01   1.00800           0   0.00000     -0.301140E-02
      9961 MEMB     81       QMPE     C212     CTL2    -0.180000       12.0110           0   0.00000     -0.301140E-02
      9962 MEMB     81       QMPE     H12R     HAL2     0.900000E-01   1.00800           0   0.00000     -0.301140E-02
      9963 MEMB     81       QMPE     H12S     HAL2     0.900000E-01   1.00800           0   0.00000     -0.301140E-02
      9964 MEMB     81       QMPE     C213     CTL2    -0.180000       12.0110           0   0.00000     -0.301140E-02
      9965 MEMB     81       QMPE     H13R     HAL2     0.900000E-01   1.00800           0   0.00000     -0.301140E-02
      9966 MEMB     81       QMPE     H13S     HAL2     0.900000E-01   1.00800           0   0.00000     -0.301140E-02
      9967 MEMB     81       QMPE     C214     CTL2    -0.180000       12.0110           0   0.00000     -0.301140E-02
      9968 MEMB     81       QMPE     H14R     HAL2     0.900000E-01   1.00800           0   0.00000     -0.301140E-02
      9969 MEMB     81       QMPE     H14S     HAL2     0.900000E-01   1.00800           0   0.00000     -0.301140E-02
      9970 MEMB     81       QMPE     C215     CTL2    -0.180000       12.0110           0   0.00000     -0.301140E-02
      9971 MEMB     81       QMPE     H15R     HAL2     0.900000E-01   1.00800           0   0.00000     -0.301140E-02
      9972 MEMB     81       QMPE     H15S     HAL2     0.900000E-01   1.00800           0   0.00000     -0.301140E-02
      9973 MEMB     81       QMPE     C216     CTL3    -0.270000       12.0110           0   0.00000     -0.301140E-02
      9974 MEMB     81       QMPE     H16R     HAL3     0.900000E-01   1.00800           0   0.00000     -0.301140E-02
      9975 MEMB     81       QMPE     H16S     HAL3     0.900000E-01   1.00800           0   0.00000     -0.301140E-02
      9976 MEMB     81       QMPE     H16T     HAL3     0.900000E-01   1.00800           0   0.00000     -0.301140E-02
      9977 MEMB     81       QMPE     C33      CTL2    -0.180000       12.0110           0   0.00000     -0.301140E-02
      9978 MEMB     81       QMPE     H3X      HAL2     0.900000E-01   1.00800           0   0.00000     -0.301140E-02
      9979 MEMB     81       QMPE     H3Y      HAL2     0.900000E-01   1.00800           0   0.00000     -0.301140E-02
      9980 MEMB     81       QMPE     C34      CTL2    -0.180000       12.0110           0   0.00000     -0.301140E-02
      9981 MEMB     81       QMPE     H4X      HAL2     0.900000E-01   1.00800           0   0.00000     -0.301140E-02
      9982 MEMB     81       QMPE     H4Y      HAL2     0.900000E-01   1.00800           0   0.00000     -0.301140E-02
      9983 MEMB     81       QMPE     C35      CTL2    -0.180000       12.0110           0   0.00000     -0.301140E-02
      9984 MEMB     81       QMPE     H5X      HAL2     0.900000E-01   1.00800           0   0.00000     -0.301140E-02
      9985 MEMB     81       QMPE     H5Y      HAL2     0.900000E-01   1.00800           0   0.00000     -0.301140E-02
      9986 MEMB     81       QMPE     C36      CTL2    -0.180000       12.0110           0   0.00000     -0.301140E-02
      9987 MEMB     81       QMPE     H6X      HAL2     0.900000E-01   1.00800           0   0.00000     -0.301140E-02
      9988 MEMB     81       QMPE     H6Y      HAL2     0.900000E-01   1.00800           0   0.00000     -0.301140E-02
      9989 MEMB     81       QMPE     C37      CTL2    -0.180000       12.0110           0   0.00000     -0.301140E-02
      9990 MEMB     81       QMPE     H7X      HAL2     0.900000E-01   1.00800           0   0.00000     -0.301140E-02
      9991 MEMB     81       QMPE     H7Y      HAL2     0.900000E-01   1.00800           0   0.00000     -0.301140E-02
      9992 MEMB     81       QMPE     C38      CTL2    -0.180000       12.0110           0   0.00000     -0.301140E-02
      9993 MEMB     81       QMPE     H8X      HAL2     0.900000E-01   1.00800           0   0.00000     -0.301140E-02
      9994 MEMB     81       QMPE     H8Y      HAL2     0.900000E-01   1.00800           0   0.00000     -0.301140E-02
      9995 MEMB     81       QMPE     C39      CTL2    -0.180000       12.0110           0   0.00000     -0.301140E-02
      9996 MEMB     81       QMPE     H9X      HAL2     0.900000E-01   1.00800           0   0.00000     -0.301140E-02
      9997 MEMB     81       QMPE     H9Y      HAL2     0.900000E-01   1.00800           0   0.00000     -0.301140E-02
      9998 MEMB     81       QMPE     C310     CTL2    -0.180000       12.0110           0   0.00000     -0.301140E-02
      9999 MEMB     81       QMPE     H10X     HAL2     0.900000E-01   1.00800           0   0.00000     -0.301140E-02
     10000 MEMB     81       QMPE     H10Y     HAL2     0.900000E-01   1.00800           0   0.00000     -0.301140E-02
     10001 MEMB     81       QMPE     C311     CTL2    -0.180000       12.0110           0   0.00000     -0.301140E-02
     10002 MEMB     81       QMPE     H11X     HAL2     0.900000E-01   1.00800           0   0.00000     -0.301140E-02
     10003 MEMB     81       QMPE     H11Y     HAL2     0.900000E-01   1.00800           0   0.00000     -0.301140E-02
     10004 MEMB     81       QMPE     C312     CTL2    -0.180000       12.0110           0   0.00000     -0.301140E-02
     10005 MEMB     81       QMPE     H12X     HAL2     0.900000E-01   1.00800           0   0.00000     -0.301140E-02
     10006 MEMB     81       QMPE     H12Y     HAL2     0.900000E-01   1.00800           0   0.00000     -0.301140E-02
     10007 MEMB     81       QMPE     C313     CTL2    -0.180000       12.0110           0   0.00000     -0.301140E-02
     10008 MEMB     81       QMPE     H13X     HAL2     0.900000E-01   1.00800           0   0.00000     -0.301140E-02
     10009 MEMB     81       QMPE     H13Y     HAL2     0.900000E-01   1.00800           0   0.00000     -0.301140E-02
     10010 MEMB     81       QMPE     C314     CTL2    -0.180000       12.0110           0   0.00000     -0.301140E-02
     10011 MEMB     81       QMPE     H14X     HAL2     0.900000E-01   1.00800           0   0.00000     -0.301140E-02
     10012 MEMB     81       QMPE     H14Y     HAL2     0.900000E-01   1.00800           0   0.00000     -0.301140E-02
     10013 MEMB     81       QMPE     C315     CTL3    -0.270000       12.0110           0   0.00000     -0.301140E-02
     10014 MEMB     81       QMPE     H15X     HAL3     0.900000E-01   1.00800           0   0.00000     -0.301140E-02
     10015 MEMB     81       QMPE     H15Y     HAL3     0.900000E-01   1.00800           0   0.00000     -0.301140E-02
     10016 MEMB     81       QMPE     H15Z     HAL3     0.900000E-01   1.00800           0   0.00000     -0.301140E-02
     10017 MEMB     82       PMPE     N        NH3L    -0.300000       14.0070           0   0.00000     -0.301140E-02
     10018 MEMB     82       PMPE     HN1      HCL      0.330000       1.00800           0   0.00000     -0.301140E-02
     10019 MEMB     82       PMPE     HN2      HCL      0.330000       1.00800           0   0.00000     -0.301140E-02
     10020 MEMB     82       PMPE     HN3      HCL      0.330000       1.00800           0   0.00000     -0.301140E-02
     10021 MEMB     82       PMPE     C12      CTL2     0.130000       12.0110           0   0.00000     -0.301140E-02
     10022 MEMB     82       PMPE     H12A     HAL2     0.900000E-01   1.00800           0   0.00000     -0.301140E-02
     10023 MEMB     82       PMPE     H12B     HAL2     0.900000E-01   1.00800           0   0.00000     -0.301140E-02
     10024 MEMB     82       PMPE     C11      CTL2    -0.800000E-01   12.0110           0   0.00000     -0.301140E-02
     10025 MEMB     82       PMPE     H11A     HAL2     0.900000E-01   1.00800           0   0.00000     -0.301140E-02
     10026 MEMB     82       PMPE     H11B     HAL2     0.900000E-01   1.00800           0   0.00000     -0.301140E-02
     10027 MEMB     82       PMPE     P        PL        1.50000       30.9740           0   0.00000     -0.301140E-02
     10028 MEMB     82       PMPE     O13      O2L     -0.780000       15.9994           0   0.00000     -0.301140E-02
     10029 MEMB     82       PMPE     O14      O2L     -0.780000       15.9994           0   0.00000     -0.301140E-02
     10030 MEMB     82       PMPE     O11      OSLP    -0.570000       15.9994           0   0.00000     -0.301140E-02
     10031 MEMB     82       PMPE     O12      OSLP    -0.570000       15.9994           0   0.00000     -0.301140E-02
     10032 MEMB     82       PMPE     C1       CTL2    -0.800000E-01   12.0110           0   0.00000     -0.301140E-02
     10033 MEMB     82       PMPE     HA       HAL2     0.900000E-01   1.00800           0   0.00000     -0.301140E-02
     10034 MEMB     82       PMPE     HB       HAL2     0.900000E-01   1.00800           0   0.00000     -0.301140E-02
     10035 MEMB     82       PMPE     C2       CTL1     0.170000       12.0110           0   0.00000     -0.301140E-02
     10036 MEMB     82       PMPE     HS       HAL1     0.900000E-01   1.00800           0   0.00000     -0.301140E-02
     10037 MEMB     82       PMPE     O21      OSL     -0.490000       15.9994           0   0.00000     -0.301140E-02
     10038 MEMB     82       PMPE     C21      CL       0.900000       12.0110           0   0.00000     -0.301140E-02
     10039 MEMB     82       PMPE     O22      OBL     -0.630000       15.9994           0   0.00000     -0.301140E-02
     10040 MEMB     82       PMPE     C22      CTL2    -0.220000       12.0110           0   0.00000     -0.301140E-02
     10041 MEMB     82       PMPE     H2R      HAL2     0.900000E-01   1.00800           0   0.00000     -0.301140E-02
     10042 MEMB     82       PMPE     H2S      HAL2     0.900000E-01   1.00800           0   0.00000     -0.301140E-02
     10043 MEMB     82       PMPE     C3       CTL2     0.800000E-01   12.0110           0   0.00000     -0.301140E-02
     10044 MEMB     82       PMPE     HX       HAL2     0.900000E-01   1.00800           0   0.00000     -0.301140E-02
     10045 MEMB     82       PMPE     HY       HAL2     0.900000E-01   1.00800           0   0.00000     -0.301140E-02
     10046 MEMB     82       PMPE     O31      OSL     -0.490000       15.9994           0   0.00000     -0.301140E-02
     10047 MEMB     82       PMPE     C31      CL       0.900000       12.0110           0   0.00000     -0.301140E-02
     10048 MEMB     82       PMPE     O32      OBL     -0.630000       15.9994           0   0.00000     -0.301140E-02
     10049 MEMB     82       PMPE     C32      CTL2    -0.220000       12.0110           0   0.00000     -0.301140E-02
     10050 MEMB     82       PMPE     H2X      HAL2     0.900000E-01   1.00800           0   0.00000     -0.301140E-02
     10051 MEMB     82       PMPE     H2Y      HAL2     0.900000E-01   1.00800           0   0.00000     -0.301140E-02
     10052 MEMB     82       PMPE     C23      CTL2    -0.180000       12.0110           0   0.00000     -0.301140E-02
     10053 MEMB     82       PMPE     H3R      HAL2     0.900000E-01   1.00800           0   0.00000     -0.301140E-02
     10054 MEMB     82       PMPE     H3S      HAL2     0.900000E-01   1.00800           0   0.00000     -0.301140E-02
     10055 MEMB     82       PMPE     C24      CTL2    -0.180000       12.0110           0   0.00000     -0.301140E-02
     10056 MEMB     82       PMPE     H4R      HAL2     0.900000E-01   1.00800           0   0.00000     -0.301140E-02
     10057 MEMB     82       PMPE     H4S      HAL2     0.900000E-01   1.00800           0   0.00000     -0.301140E-02
     10058 MEMB     82       PMPE     C25      CTL2    -0.180000       12.0110           0   0.00000     -0.301140E-02
     10059 MEMB     82       PMPE     H5R      HAL2     0.900000E-01   1.00800           0   0.00000     -0.301140E-02
     10060 MEMB     82       PMPE     H5S      HAL2     0.900000E-01   1.00800           0   0.00000     -0.301140E-02
     10061 MEMB     82       PMPE     C26      CTL2    -0.180000       12.0110           0   0.00000     -0.301140E-02
     10062 MEMB     82       PMPE     H6R      HAL2     0.900000E-01   1.00800           0   0.00000     -0.301140E-02
     10063 MEMB     82       PMPE     H6S      HAL2     0.900000E-01   1.00800           0   0.00000     -0.301140E-02
     10064 MEMB     82       PMPE     C27      CTL2    -0.180000       12.0110           0   0.00000     -0.301140E-02
     10065 MEMB     82       PMPE     H7R      HAL2     0.900000E-01   1.00800           0   0.00000     -0.301140E-02
     10066 MEMB     82       PMPE     H7S      HAL2     0.900000E-01   1.00800           0   0.00000     -0.301140E-02
     10067 MEMB     82       PMPE     C28      CTL2    -0.180000       12.0110           0   0.00000     -0.301140E-02
     10068 MEMB     82       PMPE     H8R      HAL2     0.900000E-01   1.00800           0   0.00000     -0.301140E-02
     10069 MEMB     82       PMPE     H8S      HAL2     0.900000E-01   1.00800           0   0.00000     -0.301140E-02
     10070 MEMB     82       PMPE     C29      CG3RC1  -0.900000E-01   12.0110           0   0.00000     -0.301140E-02
     10071 MEMB     82       PMPE     H9R      HGA1     0.900000E-01   1.00800           0   0.00000     -0.301140E-02
     10072 MEMB     82       PMPE     C217     CG3C31  -0.180000       12.0110           0   0.00000     -0.301140E-02
     10073 MEMB     82       PMPE     H17R     HGA2     0.900000E-01   1.00800           0   0.00000     -0.301140E-02
     10074 MEMB     82       PMPE     H17S     HGA2     0.900000E-01   1.00800           0   0.00000     -0.301140E-02
     10075 MEMB     82       PMPE     C210     CG3RC1  -0.900000E-01   12.0110           0   0.00000     -0.301140E-02
     10076 MEMB     82       PMPE     H10R     HGA1     0.900000E-01   1.00800           0   0.00000     -0.301140E-02
     10077 MEMB     82       PMPE     C211     CTL2    -0.180000       12.0110           0   0.00000     -0.301140E-02
     10078 MEMB     82       PMPE     H11R     HAL2     0.900000E-01   1.00800           0   0.00000     -0.301140E-02
     10079 MEMB     82       PMPE     H11S     HAL2     0.900000E-01   1.00800           0   0.00000     -0.301140E-02
     10080 MEMB     82       PMPE     C212     CTL2    -0.180000       12.0110           0   0.00000     -0.301140E-02
     10081 MEMB     82       PMPE     H12R     HAL2     0.900000E-01   1.00800           0   0.00000     -0.301140E-02
     10082 MEMB     82       PMPE     H12S     HAL2     0.900000E-01   1.00800           0   0.00000     -0.301140E-02
     10083 MEMB     82       PMPE     C213     CTL2    -0.180000       12.0110           0   0.00000     -0.301140E-02
     10084 MEMB     82       PMPE     H13R     HAL2     0.900000E-01   1.00800           0   0.00000     -0.301140E-02
     10085 MEMB     82       PMPE     H13S     HAL2     0.900000E-01   1.00800           0   0.00000     -0.301140E-02
     10086 MEMB     82       PMPE     C214     CTL2    -0.180000       12.0110           0   0.00000     -0.301140E-02
     10087 MEMB     82       PMPE     H14R     HAL2     0.900000E-01   1.00800           0   0.00000     -0.301140E-02
     10088 MEMB     82       PMPE     H14S     HAL2     0.900000E-01   1.00800           0   0.00000     -0.301140E-02
     10089 MEMB     82       PMPE     C215     CTL2    -0.180000       12.0110           0   0.00000     -0.301140E-02
     10090 MEMB     82       PMPE     H15R     HAL2     0.900000E-01   1.00800           0   0.00000     -0.301140E-02
     10091 MEMB     82       PMPE     H15S     HAL2     0.900000E-01   1.00800           0   0.00000     -0.301140E-02
     10092 MEMB     82       PMPE     C216     CTL3    -0.270000       12.0110           0   0.00000     -0.301140E-02
     10093 MEMB     82       PMPE     H16R     HAL3     0.900000E-01   1.00800           0   0.00000     -0.301140E-02
     10094 MEMB     82       PMPE     H16S     HAL3     0.900000E-01   1.00800           0   0.00000     -0.301140E-02
     10095 MEMB     82       PMPE     H16T     HAL3     0.900000E-01   1.00800           0   0.00000     -0.301140E-02
     10096 MEMB     82       PMPE     C33      CTL2    -0.180000       12.0110           0   0.00000     -0.301140E-02
     10097 MEMB     82       PMPE     H3X      HAL2     0.900000E-01   1.00800           0   0.00000     -0.301140E-02
     10098 MEMB     82       PMPE     H3Y      HAL2     0.900000E-01   1.00800           0   0.00000     -0.301140E-02
     10099 MEMB     82       PMPE     C34      CTL2    -0.180000       12.0110           0   0.00000     -0.301140E-02
     10100 MEMB     82       PMPE     H4X      HAL2     0.900000E-01   1.00800           0   0.00000     -0.301140E-02
     10101 MEMB     82       PMPE     H4Y      HAL2     0.900000E-01   1.00800           0   0.00000     -0.301140E-02
     10102 MEMB     82       PMPE     C35      CTL2    -0.180000       12.0110           0   0.00000     -0.301140E-02
     10103 MEMB     82       PMPE     H5X      HAL2     0.900000E-01   1.00800           0   0.00000     -0.301140E-02
     10104 MEMB     82       PMPE     H5Y      HAL2     0.900000E-01   1.00800           0   0.00000     -0.301140E-02
     10105 MEMB     82       PMPE     C36      CTL2    -0.180000       12.0110           0   0.00000     -0.301140E-02
     10106 MEMB     82       PMPE     H6X      HAL2     0.900000E-01   1.00800           0   0.00000     -0.301140E-02
     10107 MEMB     82       PMPE     H6Y      HAL2     0.900000E-01   1.00800           0   0.00000     -0.301140E-02
     10108 MEMB     82       PMPE     C37      CTL2    -0.180000       12.0110           0   0.00000     -0.301140E-02
     10109 MEMB     82       PMPE     H7X      HAL2     0.900000E-01   1.00800           0   0.00000     -0.301140E-02
     10110 MEMB     82       PMPE     H7Y      HAL2     0.900000E-01   1.00800           0   0.00000     -0.301140E-02
     10111 MEMB     82       PMPE     C38      CTL2    -0.180000       12.0110           0   0.00000     -0.301140E-02
     10112 MEMB     82       PMPE     H8X      HAL2     0.900000E-01   1.00800           0   0.00000     -0.301140E-02
     10113 MEMB     82       PMPE     H8Y      HAL2     0.900000E-01   1.00800           0   0.00000     -0.301140E-02
     10114 MEMB     82       PMPE     C39      CTL2    -0.180000       12.0110           0   0.00000     -0.301140E-02
     10115 MEMB     82       PMPE     H9X      HAL2     0.900000E-01   1.00800           0   0.00000     -0.301140E-02
     10116 MEMB     82       PMPE     H9Y      HAL2     0.900000E-01   1.00800           0   0.00000     -0.301140E-02
     10117 MEMB     82       PMPE     C310     CTL2    -0.180000       12.0110           0   0.00000     -0.301140E-02
     10118 MEMB     82       PMPE     H10X     HAL2     0.900000E-01   1.00800           0   0.00000     -0.301140E-02
     10119 MEMB     82       PMPE     H10Y     HAL2     0.900000E-01   1.00800           0   0.00000     -0.301140E-02
     10120 MEMB     82       PMPE     C311     CTL2    -0.180000       12.0110           0   0.00000     -0.301140E-02
     10121 MEMB     82       PMPE     H11X     HAL2     0.900000E-01   1.00800           0   0.00000     -0.301140E-02
     10122 MEMB     82       PMPE     H11Y     HAL2     0.900000E-01   1.00800           0   0.00000     -0.301140E-02
     10123 MEMB     82       PMPE     C312     CTL2    -0.180000       12.0110           0   0.00000     -0.301140E-02
     10124 MEMB     82       PMPE     H12X     HAL2     0.900000E-01   1.00800           0   0.00000     -0.301140E-02
     10125 MEMB     82       PMPE     H12Y     HAL2     0.900000E-01   1.00800           0   0.00000     -0.301140E-02
     10126 MEMB     82       PMPE     C313     CTL2    -0.180000       12.0110           0   0.00000     -0.301140E-02
     10127 MEMB     82       PMPE     H13X     HAL2     0.900000E-01   1.00800           0   0.00000     -0.301140E-02
     10128 MEMB     82       PMPE     H13Y     HAL2     0.900000E-01   1.00800           0   0.00000     -0.301140E-02
     10129 MEMB     82       PMPE     C314     CTL2    -0.180000       12.0110           0   0.00000     -0.301140E-02
     10130 MEMB     82       PMPE     H14X     HAL2     0.900000E-01   1.00800           0   0.00000     -0.301140E-02
     10131 MEMB     82       PMPE     H14Y     HAL2     0.900000E-01   1.00800           0   0.00000     -0.301140E-02
     10132 MEMB     82       PMPE     C315     CTL2    -0.180000       12.0110           0   0.00000     -0.301140E-02
     10133 MEMB     82       PMPE     H15X     HAL2     0.900000E-01   1.00800           0   0.00000     -0.301140E-02
     10134 MEMB     82       PMPE     H15Y     HAL2     0.900000E-01   1.00800           0   0.00000     -0.301140E-02
     10135 MEMB     82       PMPE     C316     CTL3    -0.270000       12.0110           0   0.00000     -0.301140E-02
     10136 MEMB     82       PMPE     H16X     HAL3     0.900000E-01   1.00800           0   0.00000     -0.301140E-02
     10137 MEMB     82       PMPE     H16Y     HAL3     0.900000E-01   1.00800           0   0.00000     -0.301140E-02
     10138 MEMB     82       PMPE     H16Z     HAL3     0.900000E-01   1.00800           0   0.00000     -0.301140E-02
     10139 MEMB     83       QMPE     N        NH3L    -0.300000       14.0070           0   0.00000     -0.301140E-02
     10140 MEMB     83       QMPE     HN1      HCL      0.330000       1.00800           0   0.00000     -0.301140E-02
     10141 MEMB     83       QMPE     HN2      HCL      0.330000       1.00800           0   0.00000     -0.301140E-02
     10142 MEMB     83       QMPE     HN3      HCL      0.330000       1.00800           0   0.00000     -0.301140E-02
     10143 MEMB     83       QMPE     C12      CTL2     0.130000       12.0110           0   0.00000     -0.301140E-02
     10144 MEMB     83       QMPE     H12A     HAL2     0.900000E-01   1.00800           0   0.00000     -0.301140E-02
     10145 MEMB     83       QMPE     H12B     HAL2     0.900000E-01   1.00800           0   0.00000     -0.301140E-02
     10146 MEMB     83       QMPE     C11      CTL2    -0.800000E-01   12.0110           0   0.00000     -0.301140E-02
     10147 MEMB     83       QMPE     H11A     HAL2     0.900000E-01   1.00800           0   0.00000     -0.301140E-02
     10148 MEMB     83       QMPE     H11B     HAL2     0.900000E-01   1.00800           0   0.00000     -0.301140E-02
     10149 MEMB     83       QMPE     P        PL        1.50000       30.9740           0   0.00000     -0.301140E-02
     10150 MEMB     83       QMPE     O13      O2L     -0.780000       15.9994           0   0.00000     -0.301140E-02
     10151 MEMB     83       QMPE     O14      O2L     -0.780000       15.9994           0   0.00000     -0.301140E-02
     10152 MEMB     83       QMPE     O11      OSLP    -0.570000       15.9994           0   0.00000     -0.301140E-02
     10153 MEMB     83       QMPE     O12      OSLP    -0.570000       15.9994           0   0.00000     -0.301140E-02
     10154 MEMB     83       QMPE     C1       CTL2    -0.800000E-01   12.0110           0   0.00000     -0.301140E-02
     10155 MEMB     83       QMPE     HA       HAL2     0.900000E-01   1.00800           0   0.00000     -0.301140E-02
     10156 MEMB     83       QMPE     HB       HAL2     0.900000E-01   1.00800           0   0.00000     -0.301140E-02
     10157 MEMB     83       QMPE     C2       CTL1     0.170000       12.0110           0   0.00000     -0.301140E-02
     10158 MEMB     83       QMPE     HS       HAL1     0.900000E-01   1.00800           0   0.00000     -0.301140E-02
     10159 MEMB     83       QMPE     O21      OSL     -0.490000       15.9994           0   0.00000     -0.301140E-02
     10160 MEMB     83       QMPE     C21      CL       0.900000       12.0110           0   0.00000     -0.301140E-02
     10161 MEMB     83       QMPE     O22      OBL     -0.630000       15.9994           0   0.00000     -0.301140E-02
     10162 MEMB     83       QMPE     C22      CTL2    -0.220000       12.0110           0   0.00000     -0.301140E-02
     10163 MEMB     83       QMPE     H2R      HAL2     0.900000E-01   1.00800           0   0.00000     -0.301140E-02
     10164 MEMB     83       QMPE     H2S      HAL2     0.900000E-01   1.00800           0   0.00000     -0.301140E-02
     10165 MEMB     83       QMPE     C3       CTL2     0.800000E-01   12.0110           0   0.00000     -0.301140E-02
     10166 MEMB     83       QMPE     HX       HAL2     0.900000E-01   1.00800           0   0.00000     -0.301140E-02
     10167 MEMB     83       QMPE     HY       HAL2     0.900000E-01   1.00800           0   0.00000     -0.301140E-02
     10168 MEMB     83       QMPE     O31      OSL     -0.490000       15.9994           0   0.00000     -0.301140E-02
     10169 MEMB     83       QMPE     C31      CL       0.900000       12.0110           0   0.00000     -0.301140E-02
     10170 MEMB     83       QMPE     O32      OBL     -0.630000       15.9994           0   0.00000     -0.301140E-02
     10171 MEMB     83       QMPE     C32      CTL2    -0.220000       12.0110           0   0.00000     -0.301140E-02
     10172 MEMB     83       QMPE     H2X      HAL2     0.900000E-01   1.00800           0   0.00000     -0.301140E-02
     10173 MEMB     83       QMPE     H2Y      HAL2     0.900000E-01   1.00800           0   0.00000     -0.301140E-02
     10174 MEMB     83       QMPE     C23      CTL2    -0.180000       12.0110           0   0.00000     -0.301140E-02
     10175 MEMB     83       QMPE     H3R      HAL2     0.900000E-01   1.00800           0   0.00000     -0.301140E-02
     10176 MEMB     83       QMPE     H3S      HAL2     0.900000E-01   1.00800           0   0.00000     -0.301140E-02
     10177 MEMB     83       QMPE     C24      CTL2    -0.180000       12.0110           0   0.00000     -0.301140E-02
     10178 MEMB     83       QMPE     H4R      HAL2     0.900000E-01   1.00800           0   0.00000     -0.301140E-02
     10179 MEMB     83       QMPE     H4S      HAL2     0.900000E-01   1.00800           0   0.00000     -0.301140E-02
     10180 MEMB     83       QMPE     C25      CTL2    -0.180000       12.0110           0   0.00000     -0.301140E-02
     10181 MEMB     83       QMPE     H5R      HAL2     0.900000E-01   1.00800           0   0.00000     -0.301140E-02
     10182 MEMB     83       QMPE     H5S      HAL2     0.900000E-01   1.00800           0   0.00000     -0.301140E-02
     10183 MEMB     83       QMPE     C26      CTL2    -0.180000       12.0110           0   0.00000     -0.301140E-02
     10184 MEMB     83       QMPE     H6R      HAL2     0.900000E-01   1.00800           0   0.00000     -0.301140E-02
     10185 MEMB     83       QMPE     H6S      HAL2     0.900000E-01   1.00800           0   0.00000     -0.301140E-02
     10186 MEMB     83       QMPE     C27      CTL2    -0.180000       12.0110           0   0.00000     -0.301140E-02
     10187 MEMB     83       QMPE     H7R      HAL2     0.900000E-01   1.00800           0   0.00000     -0.301140E-02
     10188 MEMB     83       QMPE     H7S      HAL2     0.900000E-01   1.00800           0   0.00000     -0.301140E-02
     10189 MEMB     83       QMPE     C28      CTL2    -0.180000       12.0110           0   0.00000     -0.301140E-02
     10190 MEMB     83       QMPE     H8R      HAL2     0.900000E-01   1.00800           0   0.00000     -0.301140E-02
     10191 MEMB     83       QMPE     H8S      HAL2     0.900000E-01   1.00800           0   0.00000     -0.301140E-02
     10192 MEMB     83       QMPE     C29      CG3RC1  -0.900000E-01   12.0110           0   0.00000     -0.301140E-02
     10193 MEMB     83       QMPE     H9R      HGA1     0.900000E-01   1.00800           0   0.00000     -0.301140E-02
     10194 MEMB     83       QMPE     C217     CG3C31  -0.180000       12.0110           0   0.00000     -0.301140E-02
     10195 MEMB     83       QMPE     H17R     HGA2     0.900000E-01   1.00800           0   0.00000     -0.301140E-02
     10196 MEMB     83       QMPE     H17S     HGA2     0.900000E-01   1.00800           0   0.00000     -0.301140E-02
     10197 MEMB     83       QMPE     C210     CG3RC1  -0.900000E-01   12.0110           0   0.00000     -0.301140E-02
     10198 MEMB     83       QMPE     H10R     HGA1     0.900000E-01   1.00800           0   0.00000     -0.301140E-02
     10199 MEMB     83       QMPE     C211     CTL2    -0.180000       12.0110           0   0.00000     -0.301140E-02
     10200 MEMB     83       QMPE     H11R     HAL2     0.900000E-01   1.00800           0   0.00000     -0.301140E-02
     10201 MEMB     83       QMPE     H11S     HAL2     0.900000E-01   1.00800           0   0.00000     -0.301140E-02
     10202 MEMB     83       QMPE     C212     CTL2    -0.180000       12.0110           0   0.00000     -0.301140E-02
     10203 MEMB     83       QMPE     H12R     HAL2     0.900000E-01   1.00800           0   0.00000     -0.301140E-02
     10204 MEMB     83       QMPE     H12S     HAL2     0.900000E-01   1.00800           0   0.00000     -0.301140E-02
     10205 MEMB     83       QMPE     C213     CTL2    -0.180000       12.0110           0   0.00000     -0.301140E-02
     10206 MEMB     83       QMPE     H13R     HAL2     0.900000E-01   1.00800           0   0.00000     -0.301140E-02
     10207 MEMB     83       QMPE     H13S     HAL2     0.900000E-01   1.00800           0   0.00000     -0.301140E-02
     10208 MEMB     83       QMPE     C214     CTL2    -0.180000       12.0110           0   0.00000     -0.301140E-02
     10209 MEMB     83       QMPE     H14R     HAL2     0.900000E-01   1.00800           0   0.00000     -0.301140E-02
     10210 MEMB     83       QMPE     H14S     HAL2     0.900000E-01   1.00800           0   0.00000     -0.301140E-02
     10211 MEMB     83       QMPE     C215     CTL2    -0.180000       12.0110           0   0.00000     -0.301140E-02
     10212 MEMB     83       QMPE     H15R     HAL2     0.900000E-01   1.00800           0   0.00000     -0.301140E-02
     10213 MEMB     83       QMPE     H15S     HAL2     0.900000E-01   1.00800           0   0.00000     -0.301140E-02
     10214 MEMB     83       QMPE     C216     CTL3    -0.270000       12.0110           0   0.00000     -0.301140E-02
     10215 MEMB     83       QMPE     H16R     HAL3     0.900000E-01   1.00800           0   0.00000     -0.301140E-02
     10216 MEMB     83       QMPE     H16S     HAL3     0.900000E-01   1.00800           0   0.00000     -0.301140E-02
     10217 MEMB     83       QMPE     H16T     HAL3     0.900000E-01   1.00800           0   0.00000     -0.301140E-02
     10218 MEMB     83       QMPE     C33      CTL2    -0.180000       12.0110           0   0.00000     -0.301140E-02
     10219 MEMB     83       QMPE     H3X      HAL2     0.900000E-01   1.00800           0   0.00000     -0.301140E-02
     10220 MEMB     83       QMPE     H3Y      HAL2     0.900000E-01   1.00800           0   0.00000     -0.301140E-02
     10221 MEMB     83       QMPE     C34      CTL2    -0.180000       12.0110           0   0.00000     -0.301140E-02
     10222 MEMB     83       QMPE     H4X      HAL2     0.900000E-01   1.00800           0   0.00000     -0.301140E-02
     10223 MEMB     83       QMPE     H4Y      HAL2     0.900000E-01   1.00800           0   0.00000     -0.301140E-02
     10224 MEMB     83       QMPE     C35      CTL2    -0.180000       12.0110           0   0.00000     -0.301140E-02
     10225 MEMB     83       QMPE     H5X      HAL2     0.900000E-01   1.00800           0   0.00000     -0.301140E-02
     10226 MEMB     83       QMPE     H5Y      HAL2     0.900000E-01   1.00800           0   0.00000     -0.301140E-02
     10227 MEMB     83       QMPE     C36      CTL2    -0.180000       12.0110           0   0.00000     -0.301140E-02
     10228 MEMB     83       QMPE     H6X      HAL2     0.900000E-01   1.00800           0   0.00000     -0.301140E-02
     10229 MEMB     83       QMPE     H6Y      HAL2     0.900000E-01   1.00800           0   0.00000     -0.301140E-02
     10230 MEMB     83       QMPE     C37      CTL2    -0.180000       12.0110           0   0.00000     -0.301140E-02
     10231 MEMB     83       QMPE     H7X      HAL2     0.900000E-01   1.00800           0   0.00000     -0.301140E-02
     10232 MEMB     83       QMPE     H7Y      HAL2     0.900000E-01   1.00800           0   0.00000     -0.301140E-02
     10233 MEMB     83       QMPE     C38      CTL2    -0.180000       12.0110           0   0.00000     -0.301140E-02
     10234 MEMB     83       QMPE     H8X      HAL2     0.900000E-01   1.00800           0   0.00000     -0.301140E-02
     10235 MEMB     83       QMPE     H8Y      HAL2     0.900000E-01   1.00800           0   0.00000     -0.301140E-02
     10236 MEMB     83       QMPE     C39      CTL2    -0.180000       12.0110           0   0.00000     -0.301140E-02
     10237 MEMB     83       QMPE     H9X      HAL2     0.900000E-01   1.00800           0   0.00000     -0.301140E-02
     10238 MEMB     83       QMPE     H9Y      HAL2     0.900000E-01   1.00800           0   0.00000     -0.301140E-02
     10239 MEMB     83       QMPE     C310     CTL2    -0.180000       12.0110           0   0.00000     -0.301140E-02
     10240 MEMB     83       QMPE     H10X     HAL2     0.900000E-01   1.00800           0   0.00000     -0.301140E-02
     10241 MEMB     83       QMPE     H10Y     HAL2     0.900000E-01   1.00800           0   0.00000     -0.301140E-02
     10242 MEMB     83       QMPE     C311     CTL2    -0.180000       12.0110           0   0.00000     -0.301140E-02
     10243 MEMB     83       QMPE     H11X     HAL2     0.900000E-01   1.00800           0   0.00000     -0.301140E-02
     10244 MEMB     83       QMPE     H11Y     HAL2     0.900000E-01   1.00800           0   0.00000     -0.301140E-02
     10245 MEMB     83       QMPE     C312     CTL2    -0.180000       12.0110           0   0.00000     -0.301140E-02
     10246 MEMB     83       QMPE     H12X     HAL2     0.900000E-01   1.00800           0   0.00000     -0.301140E-02
     10247 MEMB     83       QMPE     H12Y     HAL2     0.900000E-01   1.00800           0   0.00000     -0.301140E-02
     10248 MEMB     83       QMPE     C313     CTL2    -0.180000       12.0110           0   0.00000     -0.301140E-02
     10249 MEMB     83       QMPE     H13X     HAL2     0.900000E-01   1.00800           0   0.00000     -0.301140E-02
     10250 MEMB     83       QMPE     H13Y     HAL2     0.900000E-01   1.00800           0   0.00000     -0.301140E-02
     10251 MEMB     83       QMPE     C314     CTL2    -0.180000       12.0110           0   0.00000     -0.301140E-02
     10252 MEMB     83       QMPE     H14X     HAL2     0.900000E-01   1.00800           0   0.00000     -0.301140E-02
     10253 MEMB     83       QMPE     H14Y     HAL2     0.900000E-01   1.00800           0   0.00000     -0.301140E-02
     10254 MEMB     83       QMPE     C315     CTL3    -0.270000       12.0110           0   0.00000     -0.301140E-02
     10255 MEMB     83       QMPE     H15X     HAL3     0.900000E-01   1.00800           0   0.00000     -0.301140E-02
     10256 MEMB     83       QMPE     H15Y     HAL3     0.900000E-01   1.00800           0   0.00000     -0.301140E-02
     10257 MEMB     83       QMPE     H15Z     HAL3     0.900000E-01   1.00800           0   0.00000     -0.301140E-02
     10258 MEMB     84       POPE     N        NH3L    -0.300000       14.0070           0   0.00000     -0.301140E-02
     10259 MEMB     84       POPE     HN1      HCL      0.330000       1.00800           0   0.00000     -0.301140E-02
     10260 MEMB     84       POPE     HN2      HCL      0.330000       1.00800           0   0.00000     -0.301140E-02
     10261 MEMB     84       POPE     HN3      HCL      0.330000       1.00800           0   0.00000     -0.301140E-02
     10262 MEMB     84       POPE     C12      CTL2     0.130000       12.0110           0   0.00000     -0.301140E-02
     10263 MEMB     84       POPE     H12A     HAL2     0.900000E-01   1.00800           0   0.00000     -0.301140E-02
     10264 MEMB     84       POPE     H12B     HAL2     0.900000E-01   1.00800           0   0.00000     -0.301140E-02
     10265 MEMB     84       POPE     C11      CTL2    -0.800000E-01   12.0110           0   0.00000     -0.301140E-02
     10266 MEMB     84       POPE     H11A     HAL2     0.900000E-01   1.00800           0   0.00000     -0.301140E-02
     10267 MEMB     84       POPE     H11B     HAL2     0.900000E-01   1.00800           0   0.00000     -0.301140E-02
     10268 MEMB     84       POPE     P        PL        1.50000       30.9740           0   0.00000     -0.301140E-02
     10269 MEMB     84       POPE     O13      O2L     -0.780000       15.9994           0   0.00000     -0.301140E-02
     10270 MEMB     84       POPE     O14      O2L     -0.780000       15.9994           0   0.00000     -0.301140E-02
     10271 MEMB     84       POPE     O11      OSLP    -0.570000       15.9994           0   0.00000     -0.301140E-02
     10272 MEMB     84       POPE     O12      OSLP    -0.570000       15.9994           0   0.00000     -0.301140E-02
     10273 MEMB     84       POPE     C1       CTL2    -0.800000E-01   12.0110           0   0.00000     -0.301140E-02
     10274 MEMB     84       POPE     HA       HAL2     0.900000E-01   1.00800           0   0.00000     -0.301140E-02
     10275 MEMB     84       POPE     HB       HAL2     0.900000E-01   1.00800           0   0.00000     -0.301140E-02
     10276 MEMB     84       POPE     C2       CTL1     0.170000       12.0110           0   0.00000     -0.301140E-02
     10277 MEMB     84       POPE     HS       HAL1     0.900000E-01   1.00800           0   0.00000     -0.301140E-02
     10278 MEMB     84       POPE     O21      OSL     -0.490000       15.9994           0   0.00000     -0.301140E-02
     10279 MEMB     84       POPE     C21      CL       0.900000       12.0110           0   0.00000     -0.301140E-02
     10280 MEMB     84       POPE     O22      OBL     -0.630000       15.9994           0   0.00000     -0.301140E-02
     10281 MEMB     84       POPE     C22      CTL2    -0.220000       12.0110           0   0.00000     -0.301140E-02
     10282 MEMB     84       POPE     H2R      HAL2     0.900000E-01   1.00800           0   0.00000     -0.301140E-02
     10283 MEMB     84       POPE     H2S      HAL2     0.900000E-01   1.00800           0   0.00000     -0.301140E-02
     10284 MEMB     84       POPE     C3       CTL2     0.800000E-01   12.0110           0   0.00000     -0.301140E-02
     10285 MEMB     84       POPE     HX       HAL2     0.900000E-01   1.00800           0   0.00000     -0.301140E-02
     10286 MEMB     84       POPE     HY       HAL2     0.900000E-01   1.00800           0   0.00000     -0.301140E-02
     10287 MEMB     84       POPE     O31      OSL     -0.490000       15.9994           0   0.00000     -0.301140E-02
     10288 MEMB     84       POPE     C31      CL       0.900000       12.0110           0   0.00000     -0.301140E-02
     10289 MEMB     84       POPE     O32      OBL     -0.630000       15.9994           0   0.00000     -0.301140E-02
     10290 MEMB     84       POPE     C32      CTL2    -0.220000       12.0110           0   0.00000     -0.301140E-02
     10291 MEMB     84       POPE     H2X      HAL2     0.900000E-01   1.00800           0   0.00000     -0.301140E-02
     10292 MEMB     84       POPE     H2Y      HAL2     0.900000E-01   1.00800           0   0.00000     -0.301140E-02
     10293 MEMB     84       POPE     C23      CTL2    -0.180000       12.0110           0   0.00000     -0.301140E-02
     10294 MEMB     84       POPE     H3R      HAL2     0.900000E-01   1.00800           0   0.00000     -0.301140E-02
     10295 MEMB     84       POPE     H3S      HAL2     0.900000E-01   1.00800           0   0.00000     -0.301140E-02
     10296 MEMB     84       POPE     C24      CTL2    -0.180000       12.0110           0   0.00000     -0.301140E-02
     10297 MEMB     84       POPE     H4R      HAL2     0.900000E-01   1.00800           0   0.00000     -0.301140E-02
     10298 MEMB     84       POPE     H4S      HAL2     0.900000E-01   1.00800           0   0.00000     -0.301140E-02
     10299 MEMB     84       POPE     C25      CTL2    -0.180000       12.0110           0   0.00000     -0.301140E-02
     10300 MEMB     84       POPE     H5R      HAL2     0.900000E-01   1.00800           0   0.00000     -0.301140E-02
     10301 MEMB     84       POPE     H5S      HAL2     0.900000E-01   1.00800           0   0.00000     -0.301140E-02
     10302 MEMB     84       POPE     C26      CTL2    -0.180000       12.0110           0   0.00000     -0.301140E-02
     10303 MEMB     84       POPE     H6R      HAL2     0.900000E-01   1.00800           0   0.00000     -0.301140E-02
     10304 MEMB     84       POPE     H6S      HAL2     0.900000E-01   1.00800           0   0.00000     -0.301140E-02
     10305 MEMB     84       POPE     C27      CTL2    -0.180000       12.0110           0   0.00000     -0.301140E-02
     10306 MEMB     84       POPE     H7R      HAL2     0.900000E-01   1.00800           0   0.00000     -0.301140E-02
     10307 MEMB     84       POPE     H7S      HAL2     0.900000E-01   1.00800           0   0.00000     -0.301140E-02
     10308 MEMB     84       POPE     C28      CTL2    -0.180000       12.0110           0   0.00000     -0.301140E-02
     10309 MEMB     84       POPE     H8R      HAL2     0.900000E-01   1.00800           0   0.00000     -0.301140E-02
     10310 MEMB     84       POPE     H8S      HAL2     0.900000E-01   1.00800           0   0.00000     -0.301140E-02
     10311 MEMB     84       POPE     C29      CEL1    -0.150000       12.0110           0   0.00000     -0.301140E-02
     10312 MEMB     84       POPE     H91      HEL1     0.150000       1.00800           0   0.00000     -0.301140E-02
     10313 MEMB     84       POPE     C210     CEL1    -0.150000       12.0110           0   0.00000     -0.301140E-02
     10314 MEMB     84       POPE     H101     HEL1     0.150000       1.00800           0   0.00000     -0.301140E-02
     10315 MEMB     84       POPE     C211     CTL2    -0.180000       12.0110           0   0.00000     -0.301140E-02
     10316 MEMB     84       POPE     H11R     HAL2     0.900000E-01   1.00800           0   0.00000     -0.301140E-02
     10317 MEMB     84       POPE     H11S     HAL2     0.900000E-01   1.00800           0   0.00000     -0.301140E-02
     10318 MEMB     84       POPE     C212     CTL2    -0.180000       12.0110           0   0.00000     -0.301140E-02
     10319 MEMB     84       POPE     H12R     HAL2     0.900000E-01   1.00800           0   0.00000     -0.301140E-02
     10320 MEMB     84       POPE     H12S     HAL2     0.900000E-01   1.00800           0   0.00000     -0.301140E-02
     10321 MEMB     84       POPE     C213     CTL2    -0.180000       12.0110           0   0.00000     -0.301140E-02
     10322 MEMB     84       POPE     H13R     HAL2     0.900000E-01   1.00800           0   0.00000     -0.301140E-02
     10323 MEMB     84       POPE     H13S     HAL2     0.900000E-01   1.00800           0   0.00000     -0.301140E-02
     10324 MEMB     84       POPE     C214     CTL2    -0.180000       12.0110           0   0.00000     -0.301140E-02
     10325 MEMB     84       POPE     H14R     HAL2     0.900000E-01   1.00800           0   0.00000     -0.301140E-02
     10326 MEMB     84       POPE     H14S     HAL2     0.900000E-01   1.00800           0   0.00000     -0.301140E-02
     10327 MEMB     84       POPE     C215     CTL2    -0.180000       12.0110           0   0.00000     -0.301140E-02
     10328 MEMB     84       POPE     H15R     HAL2     0.900000E-01   1.00800           0   0.00000     -0.301140E-02
     10329 MEMB     84       POPE     H15S     HAL2     0.900000E-01   1.00800           0   0.00000     -0.301140E-02
     10330 MEMB     84       POPE     C216     CTL2    -0.180000       12.0110           0   0.00000     -0.301140E-02
     10331 MEMB     84       POPE     H16R     HAL2     0.900000E-01   1.00800           0   0.00000     -0.301140E-02
     10332 MEMB     84       POPE     H16S     HAL2     0.900000E-01   1.00800           0   0.00000     -0.301140E-02
     10333 MEMB     84       POPE     C217     CTL2    -0.180000       12.0110           0   0.00000     -0.301140E-02
     10334 MEMB     84       POPE     H17R     HAL2     0.900000E-01   1.00800           0   0.00000     -0.301140E-02
     10335 MEMB     84       POPE     H17S     HAL2     0.900000E-01   1.00800           0   0.00000     -0.301140E-02
     10336 MEMB     84       POPE     C218     CTL3    -0.270000       12.0110           0   0.00000     -0.301140E-02
     10337 MEMB     84       POPE     H18R     HAL3     0.900000E-01   1.00800           0   0.00000     -0.301140E-02
     10338 MEMB     84       POPE     H18S     HAL3     0.900000E-01   1.00800           0   0.00000     -0.301140E-02
     10339 MEMB     84       POPE     H18T     HAL3     0.900000E-01   1.00800           0   0.00000     -0.301140E-02
     10340 MEMB     84       POPE     C33      CTL2    -0.180000       12.0110           0   0.00000     -0.301140E-02
     10341 MEMB     84       POPE     H3X      HAL2     0.900000E-01   1.00800           0   0.00000     -0.301140E-02
     10342 MEMB     84       POPE     H3Y      HAL2     0.900000E-01   1.00800           0   0.00000     -0.301140E-02
     10343 MEMB     84       POPE     C34      CTL2    -0.180000       12.0110           0   0.00000     -0.301140E-02
     10344 MEMB     84       POPE     H4X      HAL2     0.900000E-01   1.00800           0   0.00000     -0.301140E-02
     10345 MEMB     84       POPE     H4Y      HAL2     0.900000E-01   1.00800           0   0.00000     -0.301140E-02
     10346 MEMB     84       POPE     C35      CTL2    -0.180000       12.0110           0   0.00000     -0.301140E-02
     10347 MEMB     84       POPE     H5X      HAL2     0.900000E-01   1.00800           0   0.00000     -0.301140E-02
     10348 MEMB     84       POPE     H5Y      HAL2     0.900000E-01   1.00800           0   0.00000     -0.301140E-02
     10349 MEMB     84       POPE     C36      CTL2    -0.180000       12.0110           0   0.00000     -0.301140E-02
     10350 MEMB     84       POPE     H6X      HAL2     0.900000E-01   1.00800           0   0.00000     -0.301140E-02
     10351 MEMB     84       POPE     H6Y      HAL2     0.900000E-01   1.00800           0   0.00000     -0.301140E-02
     10352 MEMB     84       POPE     C37      CTL2    -0.180000       12.0110           0   0.00000     -0.301140E-02
     10353 MEMB     84       POPE     H7X      HAL2     0.900000E-01   1.00800           0   0.00000     -0.301140E-02
     10354 MEMB     84       POPE     H7Y      HAL2     0.900000E-01   1.00800           0   0.00000     -0.301140E-02
     10355 MEMB     84       POPE     C38      CTL2    -0.180000       12.0110           0   0.00000     -0.301140E-02
     10356 MEMB     84       POPE     H8X      HAL2     0.900000E-01   1.00800           0   0.00000     -0.301140E-02
     10357 MEMB     84       POPE     H8Y      HAL2     0.900000E-01   1.00800           0   0.00000     -0.301140E-02
     10358 MEMB     84       POPE     C39      CTL2    -0.180000       12.0110           0   0.00000     -0.301140E-02
     10359 MEMB     84       POPE     H9X      HAL2     0.900000E-01   1.00800           0   0.00000     -0.301140E-02
     10360 MEMB     84       POPE     H9Y      HAL2     0.900000E-01   1.00800           0   0.00000     -0.301140E-02
     10361 MEMB     84       POPE     C310     CTL2    -0.180000       12.0110           0   0.00000     -0.301140E-02
     10362 MEMB     84       POPE     H10X     HAL2     0.900000E-01   1.00800           0   0.00000     -0.301140E-02
     10363 MEMB     84       POPE     H10Y     HAL2     0.900000E-01   1.00800           0   0.00000     -0.301140E-02
     10364 MEMB     84       POPE     C311     CTL2    -0.180000       12.0110           0   0.00000     -0.301140E-02
     10365 MEMB     84       POPE     H11X     HAL2     0.900000E-01   1.00800           0   0.00000     -0.301140E-02
     10366 MEMB     84       POPE     H11Y     HAL2     0.900000E-01   1.00800           0   0.00000     -0.301140E-02
     10367 MEMB     84       POPE     C312     CTL2    -0.180000       12.0110           0   0.00000     -0.301140E-02
     10368 MEMB     84       POPE     H12X     HAL2     0.900000E-01   1.00800           0   0.00000     -0.301140E-02
     10369 MEMB     84       POPE     H12Y     HAL2     0.900000E-01   1.00800           0   0.00000     -0.301140E-02
     10370 MEMB     84       POPE     C313     CTL2    -0.180000       12.0110           0   0.00000     -0.301140E-02
     10371 MEMB     84       POPE     H13X     HAL2     0.900000E-01   1.00800           0   0.00000     -0.301140E-02
     10372 MEMB     84       POPE     H13Y     HAL2     0.900000E-01   1.00800           0   0.00000     -0.301140E-02
     10373 MEMB     84       POPE     C314     CTL2    -0.180000       12.0110           0   0.00000     -0.301140E-02
     10374 MEMB     84       POPE     H14X     HAL2     0.900000E-01   1.00800           0   0.00000     -0.301140E-02
     10375 MEMB     84       POPE     H14Y     HAL2     0.900000E-01   1.00800           0   0.00000     -0.301140E-02
     10376 MEMB     84       POPE     C315     CTL2    -0.180000       12.0110           0   0.00000     -0.301140E-02
     10377 MEMB     84       POPE     H15X     HAL2     0.900000E-01   1.00800           0   0.00000     -0.301140E-02
     10378 MEMB     84       POPE     H15Y     HAL2     0.900000E-01   1.00800           0   0.00000     -0.301140E-02
     10379 MEMB     84       POPE     C316     CTL3    -0.270000       12.0110           0   0.00000     -0.301140E-02
     10380 MEMB     84       POPE     H16X     HAL3     0.900000E-01   1.00800           0   0.00000     -0.301140E-02
     10381 MEMB     84       POPE     H16Y     HAL3     0.900000E-01   1.00800           0   0.00000     -0.301140E-02
     10382 MEMB     84       POPE     H16Z     HAL3     0.900000E-01   1.00800           0   0.00000     -0.301140E-02
     10383 MEMB     85       POPE     N        NH3L    -0.300000       14.0070           0   0.00000     -0.301140E-02
     10384 MEMB     85       POPE     HN1      HCL      0.330000       1.00800           0   0.00000     -0.301140E-02
     10385 MEMB     85       POPE     HN2      HCL      0.330000       1.00800           0   0.00000     -0.301140E-02
     10386 MEMB     85       POPE     HN3      HCL      0.330000       1.00800           0   0.00000     -0.301140E-02
     10387 MEMB     85       POPE     C12      CTL2     0.130000       12.0110           0   0.00000     -0.301140E-02
     10388 MEMB     85       POPE     H12A     HAL2     0.900000E-01   1.00800           0   0.00000     -0.301140E-02
     10389 MEMB     85       POPE     H12B     HAL2     0.900000E-01   1.00800           0   0.00000     -0.301140E-02
     10390 MEMB     85       POPE     C11      CTL2    -0.800000E-01   12.0110           0   0.00000     -0.301140E-02
     10391 MEMB     85       POPE     H11A     HAL2     0.900000E-01   1.00800           0   0.00000     -0.301140E-02
     10392 MEMB     85       POPE     H11B     HAL2     0.900000E-01   1.00800           0   0.00000     -0.301140E-02
     10393 MEMB     85       POPE     P        PL        1.50000       30.9740           0   0.00000     -0.301140E-02
     10394 MEMB     85       POPE     O13      O2L     -0.780000       15.9994           0   0.00000     -0.301140E-02
     10395 MEMB     85       POPE     O14      O2L     -0.780000       15.9994           0   0.00000     -0.301140E-02
     10396 MEMB     85       POPE     O11      OSLP    -0.570000       15.9994           0   0.00000     -0.301140E-02
     10397 MEMB     85       POPE     O12      OSLP    -0.570000       15.9994           0   0.00000     -0.301140E-02
     10398 MEMB     85       POPE     C1       CTL2    -0.800000E-01   12.0110           0   0.00000     -0.301140E-02
     10399 MEMB     85       POPE     HA       HAL2     0.900000E-01   1.00800           0   0.00000     -0.301140E-02
     10400 MEMB     85       POPE     HB       HAL2     0.900000E-01   1.00800           0   0.00000     -0.301140E-02
     10401 MEMB     85       POPE     C2       CTL1     0.170000       12.0110           0   0.00000     -0.301140E-02
     10402 MEMB     85       POPE     HS       HAL1     0.900000E-01   1.00800           0   0.00000     -0.301140E-02
     10403 MEMB     85       POPE     O21      OSL     -0.490000       15.9994           0   0.00000     -0.301140E-02
     10404 MEMB     85       POPE     C21      CL       0.900000       12.0110           0   0.00000     -0.301140E-02
     10405 MEMB     85       POPE     O22      OBL     -0.630000       15.9994           0   0.00000     -0.301140E-02
     10406 MEMB     85       POPE     C22      CTL2    -0.220000       12.0110           0   0.00000     -0.301140E-02
     10407 MEMB     85       POPE     H2R      HAL2     0.900000E-01   1.00800           0   0.00000     -0.301140E-02
     10408 MEMB     85       POPE     H2S      HAL2     0.900000E-01   1.00800           0   0.00000     -0.301140E-02
     10409 MEMB     85       POPE     C3       CTL2     0.800000E-01   12.0110           0   0.00000     -0.301140E-02
     10410 MEMB     85       POPE     HX       HAL2     0.900000E-01   1.00800           0   0.00000     -0.301140E-02
     10411 MEMB     85       POPE     HY       HAL2     0.900000E-01   1.00800           0   0.00000     -0.301140E-02
     10412 MEMB     85       POPE     O31      OSL     -0.490000       15.9994           0   0.00000     -0.301140E-02
     10413 MEMB     85       POPE     C31      CL       0.900000       12.0110           0   0.00000     -0.301140E-02
     10414 MEMB     85       POPE     O32      OBL     -0.630000       15.9994           0   0.00000     -0.301140E-02
     10415 MEMB     85       POPE     C32      CTL2    -0.220000       12.0110           0   0.00000     -0.301140E-02
     10416 MEMB     85       POPE     H2X      HAL2     0.900000E-01   1.00800           0   0.00000     -0.301140E-02
     10417 MEMB     85       POPE     H2Y      HAL2     0.900000E-01   1.00800           0   0.00000     -0.301140E-02
     10418 MEMB     85       POPE     C23      CTL2    -0.180000       12.0110           0   0.00000     -0.301140E-02
     10419 MEMB     85       POPE     H3R      HAL2     0.900000E-01   1.00800           0   0.00000     -0.301140E-02
     10420 MEMB     85       POPE     H3S      HAL2     0.900000E-01   1.00800           0   0.00000     -0.301140E-02
     10421 MEMB     85       POPE     C24      CTL2    -0.180000       12.0110           0   0.00000     -0.301140E-02
     10422 MEMB     85       POPE     H4R      HAL2     0.900000E-01   1.00800           0   0.00000     -0.301140E-02
     10423 MEMB     85       POPE     H4S      HAL2     0.900000E-01   1.00800           0   0.00000     -0.301140E-02
     10424 MEMB     85       POPE     C25      CTL2    -0.180000       12.0110           0   0.00000     -0.301140E-02
     10425 MEMB     85       POPE     H5R      HAL2     0.900000E-01   1.00800           0   0.00000     -0.301140E-02
     10426 MEMB     85       POPE     H5S      HAL2     0.900000E-01   1.00800           0   0.00000     -0.301140E-02
     10427 MEMB     85       POPE     C26      CTL2    -0.180000       12.0110           0   0.00000     -0.301140E-02
     10428 MEMB     85       POPE     H6R      HAL2     0.900000E-01   1.00800           0   0.00000     -0.301140E-02
     10429 MEMB     85       POPE     H6S      HAL2     0.900000E-01   1.00800           0   0.00000     -0.301140E-02
     10430 MEMB     85       POPE     C27      CTL2    -0.180000       12.0110           0   0.00000     -0.301140E-02
     10431 MEMB     85       POPE     H7R      HAL2     0.900000E-01   1.00800           0   0.00000     -0.301140E-02
     10432 MEMB     85       POPE     H7S      HAL2     0.900000E-01   1.00800           0   0.00000     -0.301140E-02
     10433 MEMB     85       POPE     C28      CTL2    -0.180000       12.0110           0   0.00000     -0.301140E-02
     10434 MEMB     85       POPE     H8R      HAL2     0.900000E-01   1.00800           0   0.00000     -0.301140E-02
     10435 MEMB     85       POPE     H8S      HAL2     0.900000E-01   1.00800           0   0.00000     -0.301140E-02
     10436 MEMB     85       POPE     C29      CEL1    -0.150000       12.0110           0   0.00000     -0.301140E-02
     10437 MEMB     85       POPE     H91      HEL1     0.150000       1.00800           0   0.00000     -0.301140E-02
     10438 MEMB     85       POPE     C210     CEL1    -0.150000       12.0110           0   0.00000     -0.301140E-02
     10439 MEMB     85       POPE     H101     HEL1     0.150000       1.00800           0   0.00000     -0.301140E-02
     10440 MEMB     85       POPE     C211     CTL2    -0.180000       12.0110           0   0.00000     -0.301140E-02
     10441 MEMB     85       POPE     H11R     HAL2     0.900000E-01   1.00800           0   0.00000     -0.301140E-02
     10442 MEMB     85       POPE     H11S     HAL2     0.900000E-01   1.00800           0   0.00000     -0.301140E-02
     10443 MEMB     85       POPE     C212     CTL2    -0.180000       12.0110           0   0.00000     -0.301140E-02
     10444 MEMB     85       POPE     H12R     HAL2     0.900000E-01   1.00800           0   0.00000     -0.301140E-02
     10445 MEMB     85       POPE     H12S     HAL2     0.900000E-01   1.00800           0   0.00000     -0.301140E-02
     10446 MEMB     85       POPE     C213     CTL2    -0.180000       12.0110           0   0.00000     -0.301140E-02
     10447 MEMB     85       POPE     H13R     HAL2     0.900000E-01   1.00800           0   0.00000     -0.301140E-02
     10448 MEMB     85       POPE     H13S     HAL2     0.900000E-01   1.00800           0   0.00000     -0.301140E-02
     10449 MEMB     85       POPE     C214     CTL2    -0.180000       12.0110           0   0.00000     -0.301140E-02
     10450 MEMB     85       POPE     H14R     HAL2     0.900000E-01   1.00800           0   0.00000     -0.301140E-02
     10451 MEMB     85       POPE     H14S     HAL2     0.900000E-01   1.00800           0   0.00000     -0.301140E-02
     10452 MEMB     85       POPE     C215     CTL2    -0.180000       12.0110           0   0.00000     -0.301140E-02
     10453 MEMB     85       POPE     H15R     HAL2     0.900000E-01   1.00800           0   0.00000     -0.301140E-02
     10454 MEMB     85       POPE     H15S     HAL2     0.900000E-01   1.00800           0   0.00000     -0.301140E-02
     10455 MEMB     85       POPE     C216     CTL2    -0.180000       12.0110           0   0.00000     -0.301140E-02
     10456 MEMB     85       POPE     H16R     HAL2     0.900000E-01   1.00800           0   0.00000     -0.301140E-02
     10457 MEMB     85       POPE     H16S     HAL2     0.900000E-01   1.00800           0   0.00000     -0.301140E-02
     10458 MEMB     85       POPE     C217     CTL2    -0.180000       12.0110           0   0.00000     -0.301140E-02
     10459 MEMB     85       POPE     H17R     HAL2     0.900000E-01   1.00800           0   0.00000     -0.301140E-02
     10460 MEMB     85       POPE     H17S     HAL2     0.900000E-01   1.00800           0   0.00000     -0.301140E-02
     10461 MEMB     85       POPE     C218     CTL3    -0.270000       12.0110           0   0.00000     -0.301140E-02
     10462 MEMB     85       POPE     H18R     HAL3     0.900000E-01   1.00800           0   0.00000     -0.301140E-02
     10463 MEMB     85       POPE     H18S     HAL3     0.900000E-01   1.00800           0   0.00000     -0.301140E-02
     10464 MEMB     85       POPE     H18T     HAL3     0.900000E-01   1.00800           0   0.00000     -0.301140E-02
     10465 MEMB     85       POPE     C33      CTL2    -0.180000       12.0110           0   0.00000     -0.301140E-02
     10466 MEMB     85       POPE     H3X      HAL2     0.900000E-01   1.00800           0   0.00000     -0.301140E-02
     10467 MEMB     85       POPE     H3Y      HAL2     0.900000E-01   1.00800           0   0.00000     -0.301140E-02
     10468 MEMB     85       POPE     C34      CTL2    -0.180000       12.0110           0   0.00000     -0.301140E-02
     10469 MEMB     85       POPE     H4X      HAL2     0.900000E-01   1.00800           0   0.00000     -0.301140E-02
     10470 MEMB     85       POPE     H4Y      HAL2     0.900000E-01   1.00800           0   0.00000     -0.301140E-02
     10471 MEMB     85       POPE     C35      CTL2    -0.180000       12.0110           0   0.00000     -0.301140E-02
     10472 MEMB     85       POPE     H5X      HAL2     0.900000E-01   1.00800           0   0.00000     -0.301140E-02
     10473 MEMB     85       POPE     H5Y      HAL2     0.900000E-01   1.00800           0   0.00000     -0.301140E-02
     10474 MEMB     85       POPE     C36      CTL2    -0.180000       12.0110           0   0.00000     -0.301140E-02
     10475 MEMB     85       POPE     H6X      HAL2     0.900000E-01   1.00800           0   0.00000     -0.301140E-02
     10476 MEMB     85       POPE     H6Y      HAL2     0.900000E-01   1.00800           0   0.00000     -0.301140E-02
     10477 MEMB     85       POPE     C37      CTL2    -0.180000       12.0110           0   0.00000     -0.301140E-02
     10478 MEMB     85       POPE     H7X      HAL2     0.900000E-01   1.00800           0   0.00000     -0.301140E-02
     10479 MEMB     85       POPE     H7Y      HAL2     0.900000E-01   1.00800           0   0.00000     -0.301140E-02
     10480 MEMB     85       POPE     C38      CTL2    -0.180000       12.0110           0   0.00000     -0.301140E-02
     10481 MEMB     85       POPE     H8X      HAL2     0.900000E-01   1.00800           0   0.00000     -0.301140E-02
     10482 MEMB     85       POPE     H8Y      HAL2     0.900000E-01   1.00800           0   0.00000     -0.301140E-02
     10483 MEMB     85       POPE     C39      CTL2    -0.180000       12.0110           0   0.00000     -0.301140E-02
     10484 MEMB     85       POPE     H9X      HAL2     0.900000E-01   1.00800           0   0.00000     -0.301140E-02
     10485 MEMB     85       POPE     H9Y      HAL2     0.900000E-01   1.00800           0   0.00000     -0.301140E-02
     10486 MEMB     85       POPE     C310     CTL2    -0.180000       12.0110           0   0.00000     -0.301140E-02
     10487 MEMB     85       POPE     H10X     HAL2     0.900000E-01   1.00800           0   0.00000     -0.301140E-02
     10488 MEMB     85       POPE     H10Y     HAL2     0.900000E-01   1.00800           0   0.00000     -0.301140E-02
     10489 MEMB     85       POPE     C311     CTL2    -0.180000       12.0110           0   0.00000     -0.301140E-02
     10490 MEMB     85       POPE     H11X     HAL2     0.900000E-01   1.00800           0   0.00000     -0.301140E-02
     10491 MEMB     85       POPE     H11Y     HAL2     0.900000E-01   1.00800           0   0.00000     -0.301140E-02
     10492 MEMB     85       POPE     C312     CTL2    -0.180000       12.0110           0   0.00000     -0.301140E-02
     10493 MEMB     85       POPE     H12X     HAL2     0.900000E-01   1.00800           0   0.00000     -0.301140E-02
     10494 MEMB     85       POPE     H12Y     HAL2     0.900000E-01   1.00800           0   0.00000     -0.301140E-02
     10495 MEMB     85       POPE     C313     CTL2    -0.180000       12.0110           0   0.00000     -0.301140E-02
     10496 MEMB     85       POPE     H13X     HAL2     0.900000E-01   1.00800           0   0.00000     -0.301140E-02
     10497 MEMB     85       POPE     H13Y     HAL2     0.900000E-01   1.00800           0   0.00000     -0.301140E-02
     10498 MEMB     85       POPE     C314     CTL2    -0.180000       12.0110           0   0.00000     -0.301140E-02
     10499 MEMB     85       POPE     H14X     HAL2     0.900000E-01   1.00800           0   0.00000     -0.301140E-02
     10500 MEMB     85       POPE     H14Y     HAL2     0.900000E-01   1.00800           0   0.00000     -0.301140E-02
     10501 MEMB     85       POPE     C315     CTL2    -0.180000       12.0110           0   0.00000     -0.301140E-02
     10502 MEMB     85       POPE     H15X     HAL2     0.900000E-01   1.00800           0   0.00000     -0.301140E-02
     10503 MEMB     85       POPE     H15Y     HAL2     0.900000E-01   1.00800           0   0.00000     -0.301140E-02
     10504 MEMB     85       POPE     C316     CTL3    -0.270000       12.0110           0   0.00000     -0.301140E-02
     10505 MEMB     85       POPE     H16X     HAL3     0.900000E-01   1.00800           0   0.00000     -0.301140E-02
     10506 MEMB     85       POPE     H16Y     HAL3     0.900000E-01   1.00800           0   0.00000     -0.301140E-02
     10507 MEMB     85       POPE     H16Z     HAL3     0.900000E-01   1.00800           0   0.00000     -0.301140E-02
     10508 MEMB     86       QMPE     N        NH3L    -0.300000       14.0070           0   0.00000     -0.301140E-02
     10509 MEMB     86       QMPE     HN1      HCL      0.330000       1.00800           0   0.00000     -0.301140E-02
     10510 MEMB     86       QMPE     HN2      HCL      0.330000       1.00800           0   0.00000     -0.301140E-02
     10511 MEMB     86       QMPE     HN3      HCL      0.330000       1.00800           0   0.00000     -0.301140E-02
     10512 MEMB     86       QMPE     C12      CTL2     0.130000       12.0110           0   0.00000     -0.301140E-02
     10513 MEMB     86       QMPE     H12A     HAL2     0.900000E-01   1.00800           0   0.00000     -0.301140E-02
     10514 MEMB     86       QMPE     H12B     HAL2     0.900000E-01   1.00800           0   0.00000     -0.301140E-02
     10515 MEMB     86       QMPE     C11      CTL2    -0.800000E-01   12.0110           0   0.00000     -0.301140E-02
     10516 MEMB     86       QMPE     H11A     HAL2     0.900000E-01   1.00800           0   0.00000     -0.301140E-02
     10517 MEMB     86       QMPE     H11B     HAL2     0.900000E-01   1.00800           0   0.00000     -0.301140E-02
     10518 MEMB     86       QMPE     P        PL        1.50000       30.9740           0   0.00000     -0.301140E-02
     10519 MEMB     86       QMPE     O13      O2L     -0.780000       15.9994           0   0.00000     -0.301140E-02
     10520 MEMB     86       QMPE     O14      O2L     -0.780000       15.9994           0   0.00000     -0.301140E-02
     10521 MEMB     86       QMPE     O11      OSLP    -0.570000       15.9994           0   0.00000     -0.301140E-02
     10522 MEMB     86       QMPE     O12      OSLP    -0.570000       15.9994           0   0.00000     -0.301140E-02
     10523 MEMB     86       QMPE     C1       CTL2    -0.800000E-01   12.0110           0   0.00000     -0.301140E-02
     10524 MEMB     86       QMPE     HA       HAL2     0.900000E-01   1.00800           0   0.00000     -0.301140E-02
     10525 MEMB     86       QMPE     HB       HAL2     0.900000E-01   1.00800           0   0.00000     -0.301140E-02
     10526 MEMB     86       QMPE     C2       CTL1     0.170000       12.0110           0   0.00000     -0.301140E-02
     10527 MEMB     86       QMPE     HS       HAL1     0.900000E-01   1.00800           0   0.00000     -0.301140E-02
     10528 MEMB     86       QMPE     O21      OSL     -0.490000       15.9994           0   0.00000     -0.301140E-02
     10529 MEMB     86       QMPE     C21      CL       0.900000       12.0110           0   0.00000     -0.301140E-02
     10530 MEMB     86       QMPE     O22      OBL     -0.630000       15.9994           0   0.00000     -0.301140E-02
     10531 MEMB     86       QMPE     C22      CTL2    -0.220000       12.0110           0   0.00000     -0.301140E-02
     10532 MEMB     86       QMPE     H2R      HAL2     0.900000E-01   1.00800           0   0.00000     -0.301140E-02
     10533 MEMB     86       QMPE     H2S      HAL2     0.900000E-01   1.00800           0   0.00000     -0.301140E-02
     10534 MEMB     86       QMPE     C3       CTL2     0.800000E-01   12.0110           0   0.00000     -0.301140E-02
     10535 MEMB     86       QMPE     HX       HAL2     0.900000E-01   1.00800           0   0.00000     -0.301140E-02
     10536 MEMB     86       QMPE     HY       HAL2     0.900000E-01   1.00800           0   0.00000     -0.301140E-02
     10537 MEMB     86       QMPE     O31      OSL     -0.490000       15.9994           0   0.00000     -0.301140E-02
     10538 MEMB     86       QMPE     C31      CL       0.900000       12.0110           0   0.00000     -0.301140E-02
     10539 MEMB     86       QMPE     O32      OBL     -0.630000       15.9994           0   0.00000     -0.301140E-02
     10540 MEMB     86       QMPE     C32      CTL2    -0.220000       12.0110           0   0.00000     -0.301140E-02
     10541 MEMB     86       QMPE     H2X      HAL2     0.900000E-01   1.00800           0   0.00000     -0.301140E-02
     10542 MEMB     86       QMPE     H2Y      HAL2     0.900000E-01   1.00800           0   0.00000     -0.301140E-02
     10543 MEMB     86       QMPE     C23      CTL2    -0.180000       12.0110           0   0.00000     -0.301140E-02
     10544 MEMB     86       QMPE     H3R      HAL2     0.900000E-01   1.00800           0   0.00000     -0.301140E-02
     10545 MEMB     86       QMPE     H3S      HAL2     0.900000E-01   1.00800           0   0.00000     -0.301140E-02
     10546 MEMB     86       QMPE     C24      CTL2    -0.180000       12.0110           0   0.00000     -0.301140E-02
     10547 MEMB     86       QMPE     H4R      HAL2     0.900000E-01   1.00800           0   0.00000     -0.301140E-02
     10548 MEMB     86       QMPE     H4S      HAL2     0.900000E-01   1.00800           0   0.00000     -0.301140E-02
     10549 MEMB     86       QMPE     C25      CTL2    -0.180000       12.0110           0   0.00000     -0.301140E-02
     10550 MEMB     86       QMPE     H5R      HAL2     0.900000E-01   1.00800           0   0.00000     -0.301140E-02
     10551 MEMB     86       QMPE     H5S      HAL2     0.900000E-01   1.00800           0   0.00000     -0.301140E-02
     10552 MEMB     86       QMPE     C26      CTL2    -0.180000       12.0110           0   0.00000     -0.301140E-02
     10553 MEMB     86       QMPE     H6R      HAL2     0.900000E-01   1.00800           0   0.00000     -0.301140E-02
     10554 MEMB     86       QMPE     H6S      HAL2     0.900000E-01   1.00800           0   0.00000     -0.301140E-02
     10555 MEMB     86       QMPE     C27      CTL2    -0.180000       12.0110           0   0.00000     -0.301140E-02
     10556 MEMB     86       QMPE     H7R      HAL2     0.900000E-01   1.00800           0   0.00000     -0.301140E-02
     10557 MEMB     86       QMPE     H7S      HAL2     0.900000E-01   1.00800           0   0.00000     -0.301140E-02
     10558 MEMB     86       QMPE     C28      CTL2    -0.180000       12.0110           0   0.00000     -0.301140E-02
     10559 MEMB     86       QMPE     H8R      HAL2     0.900000E-01   1.00800           0   0.00000     -0.301140E-02
     10560 MEMB     86       QMPE     H8S      HAL2     0.900000E-01   1.00800           0   0.00000     -0.301140E-02
     10561 MEMB     86       QMPE     C29      CG3RC1  -0.900000E-01   12.0110           0   0.00000     -0.301140E-02
     10562 MEMB     86       QMPE     H9R      HGA1     0.900000E-01   1.00800           0   0.00000     -0.301140E-02
     10563 MEMB     86       QMPE     C217     CG3C31  -0.180000       12.0110           0   0.00000     -0.301140E-02
     10564 MEMB     86       QMPE     H17R     HGA2     0.900000E-01   1.00800           0   0.00000     -0.301140E-02
     10565 MEMB     86       QMPE     H17S     HGA2     0.900000E-01   1.00800           0   0.00000     -0.301140E-02
     10566 MEMB     86       QMPE     C210     CG3RC1  -0.900000E-01   12.0110           0   0.00000     -0.301140E-02
     10567 MEMB     86       QMPE     H10R     HGA1     0.900000E-01   1.00800           0   0.00000     -0.301140E-02
     10568 MEMB     86       QMPE     C211     CTL2    -0.180000       12.0110           0   0.00000     -0.301140E-02
     10569 MEMB     86       QMPE     H11R     HAL2     0.900000E-01   1.00800           0   0.00000     -0.301140E-02
     10570 MEMB     86       QMPE     H11S     HAL2     0.900000E-01   1.00800           0   0.00000     -0.301140E-02
     10571 MEMB     86       QMPE     C212     CTL2    -0.180000       12.0110           0   0.00000     -0.301140E-02
     10572 MEMB     86       QMPE     H12R     HAL2     0.900000E-01   1.00800           0   0.00000     -0.301140E-02
     10573 MEMB     86       QMPE     H12S     HAL2     0.900000E-01   1.00800           0   0.00000     -0.301140E-02
     10574 MEMB     86       QMPE     C213     CTL2    -0.180000       12.0110           0   0.00000     -0.301140E-02
     10575 MEMB     86       QMPE     H13R     HAL2     0.900000E-01   1.00800           0   0.00000     -0.301140E-02
     10576 MEMB     86       QMPE     H13S     HAL2     0.900000E-01   1.00800           0   0.00000     -0.301140E-02
     10577 MEMB     86       QMPE     C214     CTL2    -0.180000       12.0110           0   0.00000     -0.301140E-02
     10578 MEMB     86       QMPE     H14R     HAL2     0.900000E-01   1.00800           0   0.00000     -0.301140E-02
     10579 MEMB     86       QMPE     H14S     HAL2     0.900000E-01   1.00800           0   0.00000     -0.301140E-02
     10580 MEMB     86       QMPE     C215     CTL2    -0.180000       12.0110           0   0.00000     -0.301140E-02
     10581 MEMB     86       QMPE     H15R     HAL2     0.900000E-01   1.00800           0   0.00000     -0.301140E-02
     10582 MEMB     86       QMPE     H15S     HAL2     0.900000E-01   1.00800           0   0.00000     -0.301140E-02
     10583 MEMB     86       QMPE     C216     CTL3    -0.270000       12.0110           0   0.00000     -0.301140E-02
     10584 MEMB     86       QMPE     H16R     HAL3     0.900000E-01   1.00800           0   0.00000     -0.301140E-02
     10585 MEMB     86       QMPE     H16S     HAL3     0.900000E-01   1.00800           0   0.00000     -0.301140E-02
     10586 MEMB     86       QMPE     H16T     HAL3     0.900000E-01   1.00800           0   0.00000     -0.301140E-02
     10587 MEMB     86       QMPE     C33      CTL2    -0.180000       12.0110           0   0.00000     -0.301140E-02
     10588 MEMB     86       QMPE     H3X      HAL2     0.900000E-01   1.00800           0   0.00000     -0.301140E-02
     10589 MEMB     86       QMPE     H3Y      HAL2     0.900000E-01   1.00800           0   0.00000     -0.301140E-02
     10590 MEMB     86       QMPE     C34      CTL2    -0.180000       12.0110           0   0.00000     -0.301140E-02
     10591 MEMB     86       QMPE     H4X      HAL2     0.900000E-01   1.00800           0   0.00000     -0.301140E-02
     10592 MEMB     86       QMPE     H4Y      HAL2     0.900000E-01   1.00800           0   0.00000     -0.301140E-02
     10593 MEMB     86       QMPE     C35      CTL2    -0.180000       12.0110           0   0.00000     -0.301140E-02
     10594 MEMB     86       QMPE     H5X      HAL2     0.900000E-01   1.00800           0   0.00000     -0.301140E-02
     10595 MEMB     86       QMPE     H5Y      HAL2     0.900000E-01   1.00800           0   0.00000     -0.301140E-02
     10596 MEMB     86       QMPE     C36      CTL2    -0.180000       12.0110           0   0.00000     -0.301140E-02
     10597 MEMB     86       QMPE     H6X      HAL2     0.900000E-01   1.00800           0   0.00000     -0.301140E-02
     10598 MEMB     86       QMPE     H6Y      HAL2     0.900000E-01   1.00800           0   0.00000     -0.301140E-02
     10599 MEMB     86       QMPE     C37      CTL2    -0.180000       12.0110           0   0.00000     -0.301140E-02
     10600 MEMB     86       QMPE     H7X      HAL2     0.900000E-01   1.00800           0   0.00000     -0.301140E-02
     10601 MEMB     86       QMPE     H7Y      HAL2     0.900000E-01   1.00800           0   0.00000     -0.301140E-02
     10602 MEMB     86       QMPE     C38      CTL2    -0.180000       12.0110           0   0.00000     -0.301140E-02
     10603 MEMB     86       QMPE     H8X      HAL2     0.900000E-01   1.00800           0   0.00000     -0.301140E-02
     10604 MEMB     86       QMPE     H8Y      HAL2     0.900000E-01   1.00800           0   0.00000     -0.301140E-02
     10605 MEMB     86       QMPE     C39      CTL2    -0.180000       12.0110           0   0.00000     -0.301140E-02
     10606 MEMB     86       QMPE     H9X      HAL2     0.900000E-01   1.00800           0   0.00000     -0.301140E-02
     10607 MEMB     86       QMPE     H9Y      HAL2     0.900000E-01   1.00800           0   0.00000     -0.301140E-02
     10608 MEMB     86       QMPE     C310     CTL2    -0.180000       12.0110           0   0.00000     -0.301140E-02
     10609 MEMB     86       QMPE     H10X     HAL2     0.900000E-01   1.00800           0   0.00000     -0.301140E-02
     10610 MEMB     86       QMPE     H10Y     HAL2     0.900000E-01   1.00800           0   0.00000     -0.301140E-02
     10611 MEMB     86       QMPE     C311     CTL2    -0.180000       12.0110           0   0.00000     -0.301140E-02
     10612 MEMB     86       QMPE     H11X     HAL2     0.900000E-01   1.00800           0   0.00000     -0.301140E-02
     10613 MEMB     86       QMPE     H11Y     HAL2     0.900000E-01   1.00800           0   0.00000     -0.301140E-02
     10614 MEMB     86       QMPE     C312     CTL2    -0.180000       12.0110           0   0.00000     -0.301140E-02
     10615 MEMB     86       QMPE     H12X     HAL2     0.900000E-01   1.00800           0   0.00000     -0.301140E-02
     10616 MEMB     86       QMPE     H12Y     HAL2     0.900000E-01   1.00800           0   0.00000     -0.301140E-02
     10617 MEMB     86       QMPE     C313     CTL2    -0.180000       12.0110           0   0.00000     -0.301140E-02
     10618 MEMB     86       QMPE     H13X     HAL2     0.900000E-01   1.00800           0   0.00000     -0.301140E-02
     10619 MEMB     86       QMPE     H13Y     HAL2     0.900000E-01   1.00800           0   0.00000     -0.301140E-02
     10620 MEMB     86       QMPE     C314     CTL2    -0.180000       12.0110           0   0.00000     -0.301140E-02
     10621 MEMB     86       QMPE     H14X     HAL2     0.900000E-01   1.00800           0   0.00000     -0.301140E-02
     10622 MEMB     86       QMPE     H14Y     HAL2     0.900000E-01   1.00800           0   0.00000     -0.301140E-02
     10623 MEMB     86       QMPE     C315     CTL3    -0.270000       12.0110           0   0.00000     -0.301140E-02
     10624 MEMB     86       QMPE     H15X     HAL3     0.900000E-01   1.00800           0   0.00000     -0.301140E-02
     10625 MEMB     86       QMPE     H15Y     HAL3     0.900000E-01   1.00800           0   0.00000     -0.301140E-02
     10626 MEMB     86       QMPE     H15Z     HAL3     0.900000E-01   1.00800           0   0.00000     -0.301140E-02
     10627 MEMB     87       PMPE     N        NH3L    -0.300000       14.0070           0   0.00000     -0.301140E-02
     10628 MEMB     87       PMPE     HN1      HCL      0.330000       1.00800           0   0.00000     -0.301140E-02
     10629 MEMB     87       PMPE     HN2      HCL      0.330000       1.00800           0   0.00000     -0.301140E-02
     10630 MEMB     87       PMPE     HN3      HCL      0.330000       1.00800           0   0.00000     -0.301140E-02
     10631 MEMB     87       PMPE     C12      CTL2     0.130000       12.0110           0   0.00000     -0.301140E-02
     10632 MEMB     87       PMPE     H12A     HAL2     0.900000E-01   1.00800           0   0.00000     -0.301140E-02
     10633 MEMB     87       PMPE     H12B     HAL2     0.900000E-01   1.00800           0   0.00000     -0.301140E-02
     10634 MEMB     87       PMPE     C11      CTL2    -0.800000E-01   12.0110           0   0.00000     -0.301140E-02
     10635 MEMB     87       PMPE     H11A     HAL2     0.900000E-01   1.00800           0   0.00000     -0.301140E-02
     10636 MEMB     87       PMPE     H11B     HAL2     0.900000E-01   1.00800           0   0.00000     -0.301140E-02
     10637 MEMB     87       PMPE     P        PL        1.50000       30.9740           0   0.00000     -0.301140E-02
     10638 MEMB     87       PMPE     O13      O2L     -0.780000       15.9994           0   0.00000     -0.301140E-02
     10639 MEMB     87       PMPE     O14      O2L     -0.780000       15.9994           0   0.00000     -0.301140E-02
     10640 MEMB     87       PMPE     O11      OSLP    -0.570000       15.9994           0   0.00000     -0.301140E-02
     10641 MEMB     87       PMPE     O12      OSLP    -0.570000       15.9994           0   0.00000     -0.301140E-02
     10642 MEMB     87       PMPE     C1       CTL2    -0.800000E-01   12.0110           0   0.00000     -0.301140E-02
     10643 MEMB     87       PMPE     HA       HAL2     0.900000E-01   1.00800           0   0.00000     -0.301140E-02
     10644 MEMB     87       PMPE     HB       HAL2     0.900000E-01   1.00800           0   0.00000     -0.301140E-02
     10645 MEMB     87       PMPE     C2       CTL1     0.170000       12.0110           0   0.00000     -0.301140E-02
     10646 MEMB     87       PMPE     HS       HAL1     0.900000E-01   1.00800           0   0.00000     -0.301140E-02
     10647 MEMB     87       PMPE     O21      OSL     -0.490000       15.9994           0   0.00000     -0.301140E-02
     10648 MEMB     87       PMPE     C21      CL       0.900000       12.0110           0   0.00000     -0.301140E-02
     10649 MEMB     87       PMPE     O22      OBL     -0.630000       15.9994           0   0.00000     -0.301140E-02
     10650 MEMB     87       PMPE     C22      CTL2    -0.220000       12.0110           0   0.00000     -0.301140E-02
     10651 MEMB     87       PMPE     H2R      HAL2     0.900000E-01   1.00800           0   0.00000     -0.301140E-02
     10652 MEMB     87       PMPE     H2S      HAL2     0.900000E-01   1.00800           0   0.00000     -0.301140E-02
     10653 MEMB     87       PMPE     C3       CTL2     0.800000E-01   12.0110           0   0.00000     -0.301140E-02
     10654 MEMB     87       PMPE     HX       HAL2     0.900000E-01   1.00800           0   0.00000     -0.301140E-02
     10655 MEMB     87       PMPE     HY       HAL2     0.900000E-01   1.00800           0   0.00000     -0.301140E-02
     10656 MEMB     87       PMPE     O31      OSL     -0.490000       15.9994           0   0.00000     -0.301140E-02
     10657 MEMB     87       PMPE     C31      CL       0.900000       12.0110           0   0.00000     -0.301140E-02
     10658 MEMB     87       PMPE     O32      OBL     -0.630000       15.9994           0   0.00000     -0.301140E-02
     10659 MEMB     87       PMPE     C32      CTL2    -0.220000       12.0110           0   0.00000     -0.301140E-02
     10660 MEMB     87       PMPE     H2X      HAL2     0.900000E-01   1.00800           0   0.00000     -0.301140E-02
     10661 MEMB     87       PMPE     H2Y      HAL2     0.900000E-01   1.00800           0   0.00000     -0.301140E-02
     10662 MEMB     87       PMPE     C23      CTL2    -0.180000       12.0110           0   0.00000     -0.301140E-02
     10663 MEMB     87       PMPE     H3R      HAL2     0.900000E-01   1.00800           0   0.00000     -0.301140E-02
     10664 MEMB     87       PMPE     H3S      HAL2     0.900000E-01   1.00800           0   0.00000     -0.301140E-02
     10665 MEMB     87       PMPE     C24      CTL2    -0.180000       12.0110           0   0.00000     -0.301140E-02
     10666 MEMB     87       PMPE     H4R      HAL2     0.900000E-01   1.00800           0   0.00000     -0.301140E-02
     10667 MEMB     87       PMPE     H4S      HAL2     0.900000E-01   1.00800           0   0.00000     -0.301140E-02
     10668 MEMB     87       PMPE     C25      CTL2    -0.180000       12.0110           0   0.00000     -0.301140E-02
     10669 MEMB     87       PMPE     H5R      HAL2     0.900000E-01   1.00800           0   0.00000     -0.301140E-02
     10670 MEMB     87       PMPE     H5S      HAL2     0.900000E-01   1.00800           0   0.00000     -0.301140E-02
     10671 MEMB     87       PMPE     C26      CTL2    -0.180000       12.0110           0   0.00000     -0.301140E-02
     10672 MEMB     87       PMPE     H6R      HAL2     0.900000E-01   1.00800           0   0.00000     -0.301140E-02
     10673 MEMB     87       PMPE     H6S      HAL2     0.900000E-01   1.00800           0   0.00000     -0.301140E-02
     10674 MEMB     87       PMPE     C27      CTL2    -0.180000       12.0110           0   0.00000     -0.301140E-02
     10675 MEMB     87       PMPE     H7R      HAL2     0.900000E-01   1.00800           0   0.00000     -0.301140E-02
     10676 MEMB     87       PMPE     H7S      HAL2     0.900000E-01   1.00800           0   0.00000     -0.301140E-02
     10677 MEMB     87       PMPE     C28      CTL2    -0.180000       12.0110           0   0.00000     -0.301140E-02
     10678 MEMB     87       PMPE     H8R      HAL2     0.900000E-01   1.00800           0   0.00000     -0.301140E-02
     10679 MEMB     87       PMPE     H8S      HAL2     0.900000E-01   1.00800           0   0.00000     -0.301140E-02
     10680 MEMB     87       PMPE     C29      CG3RC1  -0.900000E-01   12.0110           0   0.00000     -0.301140E-02
     10681 MEMB     87       PMPE     H9R      HGA1     0.900000E-01   1.00800           0   0.00000     -0.301140E-02
     10682 MEMB     87       PMPE     C217     CG3C31  -0.180000       12.0110           0   0.00000     -0.301140E-02
     10683 MEMB     87       PMPE     H17R     HGA2     0.900000E-01   1.00800           0   0.00000     -0.301140E-02
     10684 MEMB     87       PMPE     H17S     HGA2     0.900000E-01   1.00800           0   0.00000     -0.301140E-02
     10685 MEMB     87       PMPE     C210     CG3RC1  -0.900000E-01   12.0110           0   0.00000     -0.301140E-02
     10686 MEMB     87       PMPE     H10R     HGA1     0.900000E-01   1.00800           0   0.00000     -0.301140E-02
     10687 MEMB     87       PMPE     C211     CTL2    -0.180000       12.0110           0   0.00000     -0.301140E-02
     10688 MEMB     87       PMPE     H11R     HAL2     0.900000E-01   1.00800           0   0.00000     -0.301140E-02
     10689 MEMB     87       PMPE     H11S     HAL2     0.900000E-01   1.00800           0   0.00000     -0.301140E-02
     10690 MEMB     87       PMPE     C212     CTL2    -0.180000       12.0110           0   0.00000     -0.301140E-02
     10691 MEMB     87       PMPE     H12R     HAL2     0.900000E-01   1.00800           0   0.00000     -0.301140E-02
     10692 MEMB     87       PMPE     H12S     HAL2     0.900000E-01   1.00800           0   0.00000     -0.301140E-02
     10693 MEMB     87       PMPE     C213     CTL2    -0.180000       12.0110           0   0.00000     -0.301140E-02
     10694 MEMB     87       PMPE     H13R     HAL2     0.900000E-01   1.00800           0   0.00000     -0.301140E-02
     10695 MEMB     87       PMPE     H13S     HAL2     0.900000E-01   1.00800           0   0.00000     -0.301140E-02
     10696 MEMB     87       PMPE     C214     CTL2    -0.180000       12.0110           0   0.00000     -0.301140E-02
     10697 MEMB     87       PMPE     H14R     HAL2     0.900000E-01   1.00800           0   0.00000     -0.301140E-02
     10698 MEMB     87       PMPE     H14S     HAL2     0.900000E-01   1.00800           0   0.00000     -0.301140E-02
     10699 MEMB     87       PMPE     C215     CTL2    -0.180000       12.0110           0   0.00000     -0.301140E-02
     10700 MEMB     87       PMPE     H15R     HAL2     0.900000E-01   1.00800           0   0.00000     -0.301140E-02
     10701 MEMB     87       PMPE     H15S     HAL2     0.900000E-01   1.00800           0   0.00000     -0.301140E-02
     10702 MEMB     87       PMPE     C216     CTL3    -0.270000       12.0110           0   0.00000     -0.301140E-02
     10703 MEMB     87       PMPE     H16R     HAL3     0.900000E-01   1.00800           0   0.00000     -0.301140E-02
     10704 MEMB     87       PMPE     H16S     HAL3     0.900000E-01   1.00800           0   0.00000     -0.301140E-02
     10705 MEMB     87       PMPE     H16T     HAL3     0.900000E-01   1.00800           0   0.00000     -0.301140E-02
     10706 MEMB     87       PMPE     C33      CTL2    -0.180000       12.0110           0   0.00000     -0.301140E-02
     10707 MEMB     87       PMPE     H3X      HAL2     0.900000E-01   1.00800           0   0.00000     -0.301140E-02
     10708 MEMB     87       PMPE     H3Y      HAL2     0.900000E-01   1.00800           0   0.00000     -0.301140E-02
     10709 MEMB     87       PMPE     C34      CTL2    -0.180000       12.0110           0   0.00000     -0.301140E-02
     10710 MEMB     87       PMPE     H4X      HAL2     0.900000E-01   1.00800           0   0.00000     -0.301140E-02
     10711 MEMB     87       PMPE     H4Y      HAL2     0.900000E-01   1.00800           0   0.00000     -0.301140E-02
     10712 MEMB     87       PMPE     C35      CTL2    -0.180000       12.0110           0   0.00000     -0.301140E-02
     10713 MEMB     87       PMPE     H5X      HAL2     0.900000E-01   1.00800           0   0.00000     -0.301140E-02
     10714 MEMB     87       PMPE     H5Y      HAL2     0.900000E-01   1.00800           0   0.00000     -0.301140E-02
     10715 MEMB     87       PMPE     C36      CTL2    -0.180000       12.0110           0   0.00000     -0.301140E-02
     10716 MEMB     87       PMPE     H6X      HAL2     0.900000E-01   1.00800           0   0.00000     -0.301140E-02
     10717 MEMB     87       PMPE     H6Y      HAL2     0.900000E-01   1.00800           0   0.00000     -0.301140E-02
     10718 MEMB     87       PMPE     C37      CTL2    -0.180000       12.0110           0   0.00000     -0.301140E-02
     10719 MEMB     87       PMPE     H7X      HAL2     0.900000E-01   1.00800           0   0.00000     -0.301140E-02
     10720 MEMB     87       PMPE     H7Y      HAL2     0.900000E-01   1.00800           0   0.00000     -0.301140E-02
     10721 MEMB     87       PMPE     C38      CTL2    -0.180000       12.0110           0   0.00000     -0.301140E-02
     10722 MEMB     87       PMPE     H8X      HAL2     0.900000E-01   1.00800           0   0.00000     -0.301140E-02
     10723 MEMB     87       PMPE     H8Y      HAL2     0.900000E-01   1.00800           0   0.00000     -0.301140E-02
     10724 MEMB     87       PMPE     C39      CTL2    -0.180000       12.0110           0   0.00000     -0.301140E-02
     10725 MEMB     87       PMPE     H9X      HAL2     0.900000E-01   1.00800           0   0.00000     -0.301140E-02
     10726 MEMB     87       PMPE     H9Y      HAL2     0.900000E-01   1.00800           0   0.00000     -0.301140E-02
     10727 MEMB     87       PMPE     C310     CTL2    -0.180000       12.0110           0   0.00000     -0.301140E-02
     10728 MEMB     87       PMPE     H10X     HAL2     0.900000E-01   1.00800           0   0.00000     -0.301140E-02
     10729 MEMB     87       PMPE     H10Y     HAL2     0.900000E-01   1.00800           0   0.00000     -0.301140E-02
     10730 MEMB     87       PMPE     C311     CTL2    -0.180000       12.0110           0   0.00000     -0.301140E-02
     10731 MEMB     87       PMPE     H11X     HAL2     0.900000E-01   1.00800           0   0.00000     -0.301140E-02
     10732 MEMB     87       PMPE     H11Y     HAL2     0.900000E-01   1.00800           0   0.00000     -0.301140E-02
     10733 MEMB     87       PMPE     C312     CTL2    -0.180000       12.0110           0   0.00000     -0.301140E-02
     10734 MEMB     87       PMPE     H12X     HAL2     0.900000E-01   1.00800           0   0.00000     -0.301140E-02
     10735 MEMB     87       PMPE     H12Y     HAL2     0.900000E-01   1.00800           0   0.00000     -0.301140E-02
     10736 MEMB     87       PMPE     C313     CTL2    -0.180000       12.0110           0   0.00000     -0.301140E-02
     10737 MEMB     87       PMPE     H13X     HAL2     0.900000E-01   1.00800           0   0.00000     -0.301140E-02
     10738 MEMB     87       PMPE     H13Y     HAL2     0.900000E-01   1.00800           0   0.00000     -0.301140E-02
     10739 MEMB     87       PMPE     C314     CTL2    -0.180000       12.0110           0   0.00000     -0.301140E-02
     10740 MEMB     87       PMPE     H14X     HAL2     0.900000E-01   1.00800           0   0.00000     -0.301140E-02
     10741 MEMB     87       PMPE     H14Y     HAL2     0.900000E-01   1.00800           0   0.00000     -0.301140E-02
     10742 MEMB     87       PMPE     C315     CTL2    -0.180000       12.0110           0   0.00000     -0.301140E-02
     10743 MEMB     87       PMPE     H15X     HAL2     0.900000E-01   1.00800           0   0.00000     -0.301140E-02
     10744 MEMB     87       PMPE     H15Y     HAL2     0.900000E-01   1.00800           0   0.00000     -0.301140E-02
     10745 MEMB     87       PMPE     C316     CTL3    -0.270000       12.0110           0   0.00000     -0.301140E-02
     10746 MEMB     87       PMPE     H16X     HAL3     0.900000E-01   1.00800           0   0.00000     -0.301140E-02
     10747 MEMB     87       PMPE     H16Y     HAL3     0.900000E-01   1.00800           0   0.00000     -0.301140E-02
     10748 MEMB     87       PMPE     H16Z     HAL3     0.900000E-01   1.00800           0   0.00000     -0.301140E-02
     10749 MEMB     88       PMPE     N        NH3L    -0.300000       14.0070           0   0.00000     -0.301140E-02
     10750 MEMB     88       PMPE     HN1      HCL      0.330000       1.00800           0   0.00000     -0.301140E-02
     10751 MEMB     88       PMPE     HN2      HCL      0.330000       1.00800           0   0.00000     -0.301140E-02
     10752 MEMB     88       PMPE     HN3      HCL      0.330000       1.00800           0   0.00000     -0.301140E-02
     10753 MEMB     88       PMPE     C12      CTL2     0.130000       12.0110           0   0.00000     -0.301140E-02
     10754 MEMB     88       PMPE     H12A     HAL2     0.900000E-01   1.00800           0   0.00000     -0.301140E-02
     10755 MEMB     88       PMPE     H12B     HAL2     0.900000E-01   1.00800           0   0.00000     -0.301140E-02
     10756 MEMB     88       PMPE     C11      CTL2    -0.800000E-01   12.0110           0   0.00000     -0.301140E-02
     10757 MEMB     88       PMPE     H11A     HAL2     0.900000E-01   1.00800           0   0.00000     -0.301140E-02
     10758 MEMB     88       PMPE     H11B     HAL2     0.900000E-01   1.00800           0   0.00000     -0.301140E-02
     10759 MEMB     88       PMPE     P        PL        1.50000       30.9740           0   0.00000     -0.301140E-02
     10760 MEMB     88       PMPE     O13      O2L     -0.780000       15.9994           0   0.00000     -0.301140E-02
     10761 MEMB     88       PMPE     O14      O2L     -0.780000       15.9994           0   0.00000     -0.301140E-02
     10762 MEMB     88       PMPE     O11      OSLP    -0.570000       15.9994           0   0.00000     -0.301140E-02
     10763 MEMB     88       PMPE     O12      OSLP    -0.570000       15.9994           0   0.00000     -0.301140E-02
     10764 MEMB     88       PMPE     C1       CTL2    -0.800000E-01   12.0110           0   0.00000     -0.301140E-02
     10765 MEMB     88       PMPE     HA       HAL2     0.900000E-01   1.00800           0   0.00000     -0.301140E-02
     10766 MEMB     88       PMPE     HB       HAL2     0.900000E-01   1.00800           0   0.00000     -0.301140E-02
     10767 MEMB     88       PMPE     C2       CTL1     0.170000       12.0110           0   0.00000     -0.301140E-02
     10768 MEMB     88       PMPE     HS       HAL1     0.900000E-01   1.00800           0   0.00000     -0.301140E-02
     10769 MEMB     88       PMPE     O21      OSL     -0.490000       15.9994           0   0.00000     -0.301140E-02
     10770 MEMB     88       PMPE     C21      CL       0.900000       12.0110           0   0.00000     -0.301140E-02
     10771 MEMB     88       PMPE     O22      OBL     -0.630000       15.9994           0   0.00000     -0.301140E-02
     10772 MEMB     88       PMPE     C22      CTL2    -0.220000       12.0110           0   0.00000     -0.301140E-02
     10773 MEMB     88       PMPE     H2R      HAL2     0.900000E-01   1.00800           0   0.00000     -0.301140E-02
     10774 MEMB     88       PMPE     H2S      HAL2     0.900000E-01   1.00800           0   0.00000     -0.301140E-02
     10775 MEMB     88       PMPE     C3       CTL2     0.800000E-01   12.0110           0   0.00000     -0.301140E-02
     10776 MEMB     88       PMPE     HX       HAL2     0.900000E-01   1.00800           0   0.00000     -0.301140E-02
     10777 MEMB     88       PMPE     HY       HAL2     0.900000E-01   1.00800           0   0.00000     -0.301140E-02
     10778 MEMB     88       PMPE     O31      OSL     -0.490000       15.9994           0   0.00000     -0.301140E-02
     10779 MEMB     88       PMPE     C31      CL       0.900000       12.0110           0   0.00000     -0.301140E-02
     10780 MEMB     88       PMPE     O32      OBL     -0.630000       15.9994           0   0.00000     -0.301140E-02
     10781 MEMB     88       PMPE     C32      CTL2    -0.220000       12.0110           0   0.00000     -0.301140E-02
     10782 MEMB     88       PMPE     H2X      HAL2     0.900000E-01   1.00800           0   0.00000     -0.301140E-02
     10783 MEMB     88       PMPE     H2Y      HAL2     0.900000E-01   1.00800           0   0.00000     -0.301140E-02
     10784 MEMB     88       PMPE     C23      CTL2    -0.180000       12.0110           0   0.00000     -0.301140E-02
     10785 MEMB     88       PMPE     H3R      HAL2     0.900000E-01   1.00800           0   0.00000     -0.301140E-02
     10786 MEMB     88       PMPE     H3S      HAL2     0.900000E-01   1.00800           0   0.00000     -0.301140E-02
     10787 MEMB     88       PMPE     C24      CTL2    -0.180000       12.0110           0   0.00000     -0.301140E-02
     10788 MEMB     88       PMPE     H4R      HAL2     0.900000E-01   1.00800           0   0.00000     -0.301140E-02
     10789 MEMB     88       PMPE     H4S      HAL2     0.900000E-01   1.00800           0   0.00000     -0.301140E-02
     10790 MEMB     88       PMPE     C25      CTL2    -0.180000       12.0110           0   0.00000     -0.301140E-02
     10791 MEMB     88       PMPE     H5R      HAL2     0.900000E-01   1.00800           0   0.00000     -0.301140E-02
     10792 MEMB     88       PMPE     H5S      HAL2     0.900000E-01   1.00800           0   0.00000     -0.301140E-02
     10793 MEMB     88       PMPE     C26      CTL2    -0.180000       12.0110           0   0.00000     -0.301140E-02
     10794 MEMB     88       PMPE     H6R      HAL2     0.900000E-01   1.00800           0   0.00000     -0.301140E-02
     10795 MEMB     88       PMPE     H6S      HAL2     0.900000E-01   1.00800           0   0.00000     -0.301140E-02
     10796 MEMB     88       PMPE     C27      CTL2    -0.180000       12.0110           0   0.00000     -0.301140E-02
     10797 MEMB     88       PMPE     H7R      HAL2     0.900000E-01   1.00800           0   0.00000     -0.301140E-02
     10798 MEMB     88       PMPE     H7S      HAL2     0.900000E-01   1.00800           0   0.00000     -0.301140E-02
     10799 MEMB     88       PMPE     C28      CTL2    -0.180000       12.0110           0   0.00000     -0.301140E-02
     10800 MEMB     88       PMPE     H8R      HAL2     0.900000E-01   1.00800           0   0.00000     -0.301140E-02
     10801 MEMB     88       PMPE     H8S      HAL2     0.900000E-01   1.00800           0   0.00000     -0.301140E-02
     10802 MEMB     88       PMPE     C29      CG3RC1  -0.900000E-01   12.0110           0   0.00000     -0.301140E-02
     10803 MEMB     88       PMPE     H9R      HGA1     0.900000E-01   1.00800           0   0.00000     -0.301140E-02
     10804 MEMB     88       PMPE     C217     CG3C31  -0.180000       12.0110           0   0.00000     -0.301140E-02
     10805 MEMB     88       PMPE     H17R     HGA2     0.900000E-01   1.00800           0   0.00000     -0.301140E-02
     10806 MEMB     88       PMPE     H17S     HGA2     0.900000E-01   1.00800           0   0.00000     -0.301140E-02
     10807 MEMB     88       PMPE     C210     CG3RC1  -0.900000E-01   12.0110           0   0.00000     -0.301140E-02
     10808 MEMB     88       PMPE     H10R     HGA1     0.900000E-01   1.00800           0   0.00000     -0.301140E-02
     10809 MEMB     88       PMPE     C211     CTL2    -0.180000       12.0110           0   0.00000     -0.301140E-02
     10810 MEMB     88       PMPE     H11R     HAL2     0.900000E-01   1.00800           0   0.00000     -0.301140E-02
     10811 MEMB     88       PMPE     H11S     HAL2     0.900000E-01   1.00800           0   0.00000     -0.301140E-02
     10812 MEMB     88       PMPE     C212     CTL2    -0.180000       12.0110           0   0.00000     -0.301140E-02
     10813 MEMB     88       PMPE     H12R     HAL2     0.900000E-01   1.00800           0   0.00000     -0.301140E-02
     10814 MEMB     88       PMPE     H12S     HAL2     0.900000E-01   1.00800           0   0.00000     -0.301140E-02
     10815 MEMB     88       PMPE     C213     CTL2    -0.180000       12.0110           0   0.00000     -0.301140E-02
     10816 MEMB     88       PMPE     H13R     HAL2     0.900000E-01   1.00800           0   0.00000     -0.301140E-02
     10817 MEMB     88       PMPE     H13S     HAL2     0.900000E-01   1.00800           0   0.00000     -0.301140E-02
     10818 MEMB     88       PMPE     C214     CTL2    -0.180000       12.0110           0   0.00000     -0.301140E-02
     10819 MEMB     88       PMPE     H14R     HAL2     0.900000E-01   1.00800           0   0.00000     -0.301140E-02
     10820 MEMB     88       PMPE     H14S     HAL2     0.900000E-01   1.00800           0   0.00000     -0.301140E-02
     10821 MEMB     88       PMPE     C215     CTL2    -0.180000       12.0110           0   0.00000     -0.301140E-02
     10822 MEMB     88       PMPE     H15R     HAL2     0.900000E-01   1.00800           0   0.00000     -0.301140E-02
     10823 MEMB     88       PMPE     H15S     HAL2     0.900000E-01   1.00800           0   0.00000     -0.301140E-02
     10824 MEMB     88       PMPE     C216     CTL3    -0.270000       12.0110           0   0.00000     -0.301140E-02
     10825 MEMB     88       PMPE     H16R     HAL3     0.900000E-01   1.00800           0   0.00000     -0.301140E-02
     10826 MEMB     88       PMPE     H16S     HAL3     0.900000E-01   1.00800           0   0.00000     -0.301140E-02
     10827 MEMB     88       PMPE     H16T     HAL3     0.900000E-01   1.00800           0   0.00000     -0.301140E-02
     10828 MEMB     88       PMPE     C33      CTL2    -0.180000       12.0110           0   0.00000     -0.301140E-02
     10829 MEMB     88       PMPE     H3X      HAL2     0.900000E-01   1.00800           0   0.00000     -0.301140E-02
     10830 MEMB     88       PMPE     H3Y      HAL2     0.900000E-01   1.00800           0   0.00000     -0.301140E-02
     10831 MEMB     88       PMPE     C34      CTL2    -0.180000       12.0110           0   0.00000     -0.301140E-02
     10832 MEMB     88       PMPE     H4X      HAL2     0.900000E-01   1.00800           0   0.00000     -0.301140E-02
     10833 MEMB     88       PMPE     H4Y      HAL2     0.900000E-01   1.00800           0   0.00000     -0.301140E-02
     10834 MEMB     88       PMPE     C35      CTL2    -0.180000       12.0110           0   0.00000     -0.301140E-02
     10835 MEMB     88       PMPE     H5X      HAL2     0.900000E-01   1.00800           0   0.00000     -0.301140E-02
     10836 MEMB     88       PMPE     H5Y      HAL2     0.900000E-01   1.00800           0   0.00000     -0.301140E-02
     10837 MEMB     88       PMPE     C36      CTL2    -0.180000       12.0110           0   0.00000     -0.301140E-02
     10838 MEMB     88       PMPE     H6X      HAL2     0.900000E-01   1.00800           0   0.00000     -0.301140E-02
     10839 MEMB     88       PMPE     H6Y      HAL2     0.900000E-01   1.00800           0   0.00000     -0.301140E-02
     10840 MEMB     88       PMPE     C37      CTL2    -0.180000       12.0110           0   0.00000     -0.301140E-02
     10841 MEMB     88       PMPE     H7X      HAL2     0.900000E-01   1.00800           0   0.00000     -0.301140E-02
     10842 MEMB     88       PMPE     H7Y      HAL2     0.900000E-01   1.00800           0   0.00000     -0.301140E-02
     10843 MEMB     88       PMPE     C38      CTL2    -0.180000       12.0110           0   0.00000     -0.301140E-02
     10844 MEMB     88       PMPE     H8X      HAL2     0.900000E-01   1.00800           0   0.00000     -0.301140E-02
     10845 MEMB     88       PMPE     H8Y      HAL2     0.900000E-01   1.00800           0   0.00000     -0.301140E-02
     10846 MEMB     88       PMPE     C39      CTL2    -0.180000       12.0110           0   0.00000     -0.301140E-02
     10847 MEMB     88       PMPE     H9X      HAL2     0.900000E-01   1.00800           0   0.00000     -0.301140E-02
     10848 MEMB     88       PMPE     H9Y      HAL2     0.900000E-01   1.00800           0   0.00000     -0.301140E-02
     10849 MEMB     88       PMPE     C310     CTL2    -0.180000       12.0110           0   0.00000     -0.301140E-02
     10850 MEMB     88       PMPE     H10X     HAL2     0.900000E-01   1.00800           0   0.00000     -0.301140E-02
     10851 MEMB     88       PMPE     H10Y     HAL2     0.900000E-01   1.00800           0   0.00000     -0.301140E-02
     10852 MEMB     88       PMPE     C311     CTL2    -0.180000       12.0110           0   0.00000     -0.301140E-02
     10853 MEMB     88       PMPE     H11X     HAL2     0.900000E-01   1.00800           0   0.00000     -0.301140E-02
     10854 MEMB     88       PMPE     H11Y     HAL2     0.900000E-01   1.00800           0   0.00000     -0.301140E-02
     10855 MEMB     88       PMPE     C312     CTL2    -0.180000       12.0110           0   0.00000     -0.301140E-02
     10856 MEMB     88       PMPE     H12X     HAL2     0.900000E-01   1.00800           0   0.00000     -0.301140E-02
     10857 MEMB     88       PMPE     H12Y     HAL2     0.900000E-01   1.00800           0   0.00000     -0.301140E-02
     10858 MEMB     88       PMPE     C313     CTL2    -0.180000       12.0110           0   0.00000     -0.301140E-02
     10859 MEMB     88       PMPE     H13X     HAL2     0.900000E-01   1.00800           0   0.00000     -0.301140E-02
     10860 MEMB     88       PMPE     H13Y     HAL2     0.900000E-01   1.00800           0   0.00000     -0.301140E-02
     10861 MEMB     88       PMPE     C314     CTL2    -0.180000       12.0110           0   0.00000     -0.301140E-02
     10862 MEMB     88       PMPE     H14X     HAL2     0.900000E-01   1.00800           0   0.00000     -0.301140E-02
     10863 MEMB     88       PMPE     H14Y     HAL2     0.900000E-01   1.00800           0   0.00000     -0.301140E-02
     10864 MEMB     88       PMPE     C315     CTL2    -0.180000       12.0110           0   0.00000     -0.301140E-02
     10865 MEMB     88       PMPE     H15X     HAL2     0.900000E-01   1.00800           0   0.00000     -0.301140E-02
     10866 MEMB     88       PMPE     H15Y     HAL2     0.900000E-01   1.00800           0   0.00000     -0.301140E-02
     10867 MEMB     88       PMPE     C316     CTL3    -0.270000       12.0110           0   0.00000     -0.301140E-02
     10868 MEMB     88       PMPE     H16X     HAL3     0.900000E-01   1.00800           0   0.00000     -0.301140E-02
     10869 MEMB     88       PMPE     H16Y     HAL3     0.900000E-01   1.00800           0   0.00000     -0.301140E-02
     10870 MEMB     88       PMPE     H16Z     HAL3     0.900000E-01   1.00800           0   0.00000     -0.301140E-02
     10871 MEMB     89       PMPE     N        NH3L    -0.300000       14.0070           0   0.00000     -0.301140E-02
     10872 MEMB     89       PMPE     HN1      HCL      0.330000       1.00800           0   0.00000     -0.301140E-02
     10873 MEMB     89       PMPE     HN2      HCL      0.330000       1.00800           0   0.00000     -0.301140E-02
     10874 MEMB     89       PMPE     HN3      HCL      0.330000       1.00800           0   0.00000     -0.301140E-02
     10875 MEMB     89       PMPE     C12      CTL2     0.130000       12.0110           0   0.00000     -0.301140E-02
     10876 MEMB     89       PMPE     H12A     HAL2     0.900000E-01   1.00800           0   0.00000     -0.301140E-02
     10877 MEMB     89       PMPE     H12B     HAL2     0.900000E-01   1.00800           0   0.00000     -0.301140E-02
     10878 MEMB     89       PMPE     C11      CTL2    -0.800000E-01   12.0110           0   0.00000     -0.301140E-02
     10879 MEMB     89       PMPE     H11A     HAL2     0.900000E-01   1.00800           0   0.00000     -0.301140E-02
     10880 MEMB     89       PMPE     H11B     HAL2     0.900000E-01   1.00800           0   0.00000     -0.301140E-02
     10881 MEMB     89       PMPE     P        PL        1.50000       30.9740           0   0.00000     -0.301140E-02
     10882 MEMB     89       PMPE     O13      O2L     -0.780000       15.9994           0   0.00000     -0.301140E-02
     10883 MEMB     89       PMPE     O14      O2L     -0.780000       15.9994           0   0.00000     -0.301140E-02
     10884 MEMB     89       PMPE     O11      OSLP    -0.570000       15.9994           0   0.00000     -0.301140E-02
     10885 MEMB     89       PMPE     O12      OSLP    -0.570000       15.9994           0   0.00000     -0.301140E-02
     10886 MEMB     89       PMPE     C1       CTL2    -0.800000E-01   12.0110           0   0.00000     -0.301140E-02
     10887 MEMB     89       PMPE     HA       HAL2     0.900000E-01   1.00800           0   0.00000     -0.301140E-02
     10888 MEMB     89       PMPE     HB       HAL2     0.900000E-01   1.00800           0   0.00000     -0.301140E-02
     10889 MEMB     89       PMPE     C2       CTL1     0.170000       12.0110           0   0.00000     -0.301140E-02
     10890 MEMB     89       PMPE     HS       HAL1     0.900000E-01   1.00800           0   0.00000     -0.301140E-02
     10891 MEMB     89       PMPE     O21      OSL     -0.490000       15.9994           0   0.00000     -0.301140E-02
     10892 MEMB     89       PMPE     C21      CL       0.900000       12.0110           0   0.00000     -0.301140E-02
     10893 MEMB     89       PMPE     O22      OBL     -0.630000       15.9994           0   0.00000     -0.301140E-02
     10894 MEMB     89       PMPE     C22      CTL2    -0.220000       12.0110           0   0.00000     -0.301140E-02
     10895 MEMB     89       PMPE     H2R      HAL2     0.900000E-01   1.00800           0   0.00000     -0.301140E-02
     10896 MEMB     89       PMPE     H2S      HAL2     0.900000E-01   1.00800           0   0.00000     -0.301140E-02
     10897 MEMB     89       PMPE     C3       CTL2     0.800000E-01   12.0110           0   0.00000     -0.301140E-02
     10898 MEMB     89       PMPE     HX       HAL2     0.900000E-01   1.00800           0   0.00000     -0.301140E-02
     10899 MEMB     89       PMPE     HY       HAL2     0.900000E-01   1.00800           0   0.00000     -0.301140E-02
     10900 MEMB     89       PMPE     O31      OSL     -0.490000       15.9994           0   0.00000     -0.301140E-02
     10901 MEMB     89       PMPE     C31      CL       0.900000       12.0110           0   0.00000     -0.301140E-02
     10902 MEMB     89       PMPE     O32      OBL     -0.630000       15.9994           0   0.00000     -0.301140E-02
     10903 MEMB     89       PMPE     C32      CTL2    -0.220000       12.0110           0   0.00000     -0.301140E-02
     10904 MEMB     89       PMPE     H2X      HAL2     0.900000E-01   1.00800           0   0.00000     -0.301140E-02
     10905 MEMB     89       PMPE     H2Y      HAL2     0.900000E-01   1.00800           0   0.00000     -0.301140E-02
     10906 MEMB     89       PMPE     C23      CTL2    -0.180000       12.0110           0   0.00000     -0.301140E-02
     10907 MEMB     89       PMPE     H3R      HAL2     0.900000E-01   1.00800           0   0.00000     -0.301140E-02
     10908 MEMB     89       PMPE     H3S      HAL2     0.900000E-01   1.00800           0   0.00000     -0.301140E-02
     10909 MEMB     89       PMPE     C24      CTL2    -0.180000       12.0110           0   0.00000     -0.301140E-02
     10910 MEMB     89       PMPE     H4R      HAL2     0.900000E-01   1.00800           0   0.00000     -0.301140E-02
     10911 MEMB     89       PMPE     H4S      HAL2     0.900000E-01   1.00800           0   0.00000     -0.301140E-02
     10912 MEMB     89       PMPE     C25      CTL2    -0.180000       12.0110           0   0.00000     -0.301140E-02
     10913 MEMB     89       PMPE     H5R      HAL2     0.900000E-01   1.00800           0   0.00000     -0.301140E-02
     10914 MEMB     89       PMPE     H5S      HAL2     0.900000E-01   1.00800           0   0.00000     -0.301140E-02
     10915 MEMB     89       PMPE     C26      CTL2    -0.180000       12.0110           0   0.00000     -0.301140E-02
     10916 MEMB     89       PMPE     H6R      HAL2     0.900000E-01   1.00800           0   0.00000     -0.301140E-02
     10917 MEMB     89       PMPE     H6S      HAL2     0.900000E-01   1.00800           0   0.00000     -0.301140E-02
     10918 MEMB     89       PMPE     C27      CTL2    -0.180000       12.0110           0   0.00000     -0.301140E-02
     10919 MEMB     89       PMPE     H7R      HAL2     0.900000E-01   1.00800           0   0.00000     -0.301140E-02
     10920 MEMB     89       PMPE     H7S      HAL2     0.900000E-01   1.00800           0   0.00000     -0.301140E-02
     10921 MEMB     89       PMPE     C28      CTL2    -0.180000       12.0110           0   0.00000     -0.301140E-02
     10922 MEMB     89       PMPE     H8R      HAL2     0.900000E-01   1.00800           0   0.00000     -0.301140E-02
     10923 MEMB     89       PMPE     H8S      HAL2     0.900000E-01   1.00800           0   0.00000     -0.301140E-02
     10924 MEMB     89       PMPE     C29      CG3RC1  -0.900000E-01   12.0110           0   0.00000     -0.301140E-02
     10925 MEMB     89       PMPE     H9R      HGA1     0.900000E-01   1.00800           0   0.00000     -0.301140E-02
     10926 MEMB     89       PMPE     C217     CG3C31  -0.180000       12.0110           0   0.00000     -0.301140E-02
     10927 MEMB     89       PMPE     H17R     HGA2     0.900000E-01   1.00800           0   0.00000     -0.301140E-02
     10928 MEMB     89       PMPE     H17S     HGA2     0.900000E-01   1.00800           0   0.00000     -0.301140E-02
     10929 MEMB     89       PMPE     C210     CG3RC1  -0.900000E-01   12.0110           0   0.00000     -0.301140E-02
     10930 MEMB     89       PMPE     H10R     HGA1     0.900000E-01   1.00800           0   0.00000     -0.301140E-02
     10931 MEMB     89       PMPE     C211     CTL2    -0.180000       12.0110           0   0.00000     -0.301140E-02
     10932 MEMB     89       PMPE     H11R     HAL2     0.900000E-01   1.00800           0   0.00000     -0.301140E-02
     10933 MEMB     89       PMPE     H11S     HAL2     0.900000E-01   1.00800           0   0.00000     -0.301140E-02
     10934 MEMB     89       PMPE     C212     CTL2    -0.180000       12.0110           0   0.00000     -0.301140E-02
     10935 MEMB     89       PMPE     H12R     HAL2     0.900000E-01   1.00800           0   0.00000     -0.301140E-02
     10936 MEMB     89       PMPE     H12S     HAL2     0.900000E-01   1.00800           0   0.00000     -0.301140E-02
     10937 MEMB     89       PMPE     C213     CTL2    -0.180000       12.0110           0   0.00000     -0.301140E-02
     10938 MEMB     89       PMPE     H13R     HAL2     0.900000E-01   1.00800           0   0.00000     -0.301140E-02
     10939 MEMB     89       PMPE     H13S     HAL2     0.900000E-01   1.00800           0   0.00000     -0.301140E-02
     10940 MEMB     89       PMPE     C214     CTL2    -0.180000       12.0110           0   0.00000     -0.301140E-02
     10941 MEMB     89       PMPE     H14R     HAL2     0.900000E-01   1.00800           0   0.00000     -0.301140E-02
     10942 MEMB     89       PMPE     H14S     HAL2     0.900000E-01   1.00800           0   0.00000     -0.301140E-02
     10943 MEMB     89       PMPE     C215     CTL2    -0.180000       12.0110           0   0.00000     -0.301140E-02
     10944 MEMB     89       PMPE     H15R     HAL2     0.900000E-01   1.00800           0   0.00000     -0.301140E-02
     10945 MEMB     89       PMPE     H15S     HAL2     0.900000E-01   1.00800           0   0.00000     -0.301140E-02
     10946 MEMB     89       PMPE     C216     CTL3    -0.270000       12.0110           0   0.00000     -0.301140E-02
     10947 MEMB     89       PMPE     H16R     HAL3     0.900000E-01   1.00800           0   0.00000     -0.301140E-02
     10948 MEMB     89       PMPE     H16S     HAL3     0.900000E-01   1.00800           0   0.00000     -0.301140E-02
     10949 MEMB     89       PMPE     H16T     HAL3     0.900000E-01   1.00800           0   0.00000     -0.301140E-02
     10950 MEMB     89       PMPE     C33      CTL2    -0.180000       12.0110           0   0.00000     -0.301140E-02
     10951 MEMB     89       PMPE     H3X      HAL2     0.900000E-01   1.00800           0   0.00000     -0.301140E-02
     10952 MEMB     89       PMPE     H3Y      HAL2     0.900000E-01   1.00800           0   0.00000     -0.301140E-02
     10953 MEMB     89       PMPE     C34      CTL2    -0.180000       12.0110           0   0.00000     -0.301140E-02
     10954 MEMB     89       PMPE     H4X      HAL2     0.900000E-01   1.00800           0   0.00000     -0.301140E-02
     10955 MEMB     89       PMPE     H4Y      HAL2     0.900000E-01   1.00800           0   0.00000     -0.301140E-02
     10956 MEMB     89       PMPE     C35      CTL2    -0.180000       12.0110           0   0.00000     -0.301140E-02
     10957 MEMB     89       PMPE     H5X      HAL2     0.900000E-01   1.00800           0   0.00000     -0.301140E-02
     10958 MEMB     89       PMPE     H5Y      HAL2     0.900000E-01   1.00800           0   0.00000     -0.301140E-02
     10959 MEMB     89       PMPE     C36      CTL2    -0.180000       12.0110           0   0.00000     -0.301140E-02
     10960 MEMB     89       PMPE     H6X      HAL2     0.900000E-01   1.00800           0   0.00000     -0.301140E-02
     10961 MEMB     89       PMPE     H6Y      HAL2     0.900000E-01   1.00800           0   0.00000     -0.301140E-02
     10962 MEMB     89       PMPE     C37      CTL2    -0.180000       12.0110           0   0.00000     -0.301140E-02
     10963 MEMB     89       PMPE     H7X      HAL2     0.900000E-01   1.00800           0   0.00000     -0.301140E-02
     10964 MEMB     89       PMPE     H7Y      HAL2     0.900000E-01   1.00800           0   0.00000     -0.301140E-02
     10965 MEMB     89       PMPE     C38      CTL2    -0.180000       12.0110           0   0.00000     -0.301140E-02
     10966 MEMB     89       PMPE     H8X      HAL2     0.900000E-01   1.00800           0   0.00000     -0.301140E-02
     10967 MEMB     89       PMPE     H8Y      HAL2     0.900000E-01   1.00800           0   0.00000     -0.301140E-02
     10968 MEMB     89       PMPE     C39      CTL2    -0.180000       12.0110           0   0.00000     -0.301140E-02
     10969 MEMB     89       PMPE     H9X      HAL2     0.900000E-01   1.00800           0   0.00000     -0.301140E-02
     10970 MEMB     89       PMPE     H9Y      HAL2     0.900000E-01   1.00800           0   0.00000     -0.301140E-02
     10971 MEMB     89       PMPE     C310     CTL2    -0.180000       12.0110           0   0.00000     -0.301140E-02
     10972 MEMB     89       PMPE     H10X     HAL2     0.900000E-01   1.00800           0   0.00000     -0.301140E-02
     10973 MEMB     89       PMPE     H10Y     HAL2     0.900000E-01   1.00800           0   0.00000     -0.301140E-02
     10974 MEMB     89       PMPE     C311     CTL2    -0.180000       12.0110           0   0.00000     -0.301140E-02
     10975 MEMB     89       PMPE     H11X     HAL2     0.900000E-01   1.00800           0   0.00000     -0.301140E-02
     10976 MEMB     89       PMPE     H11Y     HAL2     0.900000E-01   1.00800           0   0.00000     -0.301140E-02
     10977 MEMB     89       PMPE     C312     CTL2    -0.180000       12.0110           0   0.00000     -0.301140E-02
     10978 MEMB     89       PMPE     H12X     HAL2     0.900000E-01   1.00800           0   0.00000     -0.301140E-02
     10979 MEMB     89       PMPE     H12Y     HAL2     0.900000E-01   1.00800           0   0.00000     -0.301140E-02
     10980 MEMB     89       PMPE     C313     CTL2    -0.180000       12.0110           0   0.00000     -0.301140E-02
     10981 MEMB     89       PMPE     H13X     HAL2     0.900000E-01   1.00800           0   0.00000     -0.301140E-02
     10982 MEMB     89       PMPE     H13Y     HAL2     0.900000E-01   1.00800           0   0.00000     -0.301140E-02
     10983 MEMB     89       PMPE     C314     CTL2    -0.180000       12.0110           0   0.00000     -0.301140E-02
     10984 MEMB     89       PMPE     H14X     HAL2     0.900000E-01   1.00800           0   0.00000     -0.301140E-02
     10985 MEMB     89       PMPE     H14Y     HAL2     0.900000E-01   1.00800           0   0.00000     -0.301140E-02
     10986 MEMB     89       PMPE     C315     CTL2    -0.180000       12.0110           0   0.00000     -0.301140E-02
     10987 MEMB     89       PMPE     H15X     HAL2     0.900000E-01   1.00800           0   0.00000     -0.301140E-02
     10988 MEMB     89       PMPE     H15Y     HAL2     0.900000E-01   1.00800           0   0.00000     -0.301140E-02
     10989 MEMB     89       PMPE     C316     CTL3    -0.270000       12.0110           0   0.00000     -0.301140E-02
     10990 MEMB     89       PMPE     H16X     HAL3     0.900000E-01   1.00800           0   0.00000     -0.301140E-02
     10991 MEMB     89       PMPE     H16Y     HAL3     0.900000E-01   1.00800           0   0.00000     -0.301140E-02
     10992 MEMB     89       PMPE     H16Z     HAL3     0.900000E-01   1.00800           0   0.00000     -0.301140E-02
     10993 MEMB     90       PVCL2    C3       CTL2    -0.800000E-01   12.0110           0   0.00000     -0.301140E-02
     10994 MEMB     90       PVCL2    HG31     HAL2     0.900000E-01   1.00800           0   0.00000     -0.301140E-02
     10995 MEMB     90       PVCL2    HG32     HAL2     0.900000E-01   1.00800           0   0.00000     -0.301140E-02
     10996 MEMB     90       PVCL2    P3       PL        1.50000       30.9740           0   0.00000     -0.301140E-02
     10997 MEMB     90       PVCL2    OP33     O2L     -0.780000       15.9994           0   0.00000     -0.301140E-02
     10998 MEMB     90       PVCL2    OP34     O2L     -0.780000       15.9994           0   0.00000     -0.301140E-02
     10999 MEMB     90       PVCL2    OP31     OSLP    -0.570000       15.9994           0   0.00000     -0.301140E-02
     11000 MEMB     90       PVCL2    OP32     OSLP    -0.570000       15.9994           0   0.00000     -0.301140E-02
     11001 MEMB     90       PVCL2    C31      CTL2    -0.800000E-01   12.0110           0   0.00000     -0.301140E-02
     11002 MEMB     90       PVCL2    H31J     HAL2     0.900000E-01   1.00800           0   0.00000     -0.301140E-02
     11003 MEMB     90       PVCL2    H31K     HAL2     0.900000E-01   1.00800           0   0.00000     -0.301140E-02
     11004 MEMB     90       PVCL2    C2       CTL1     0.140000       12.0110           0   0.00000     -0.301140E-02
     11005 MEMB     90       PVCL2    HG22     HAL1     0.900000E-01   1.00800           0   0.00000     -0.301140E-02
     11006 MEMB     90       PVCL2    OG12     OHL     -0.650000       15.9994           0   0.00000     -0.301140E-02
     11007 MEMB     90       PVCL2    HO12     HOL      0.420000       1.00800           0   0.00000     -0.301140E-02
     11008 MEMB     90       PVCL2    C1       CTL2    -0.800000E-01   12.0110           0   0.00000     -0.301140E-02
     11009 MEMB     90       PVCL2    HG11     HAL2     0.900000E-01   1.00800           0   0.00000     -0.301140E-02
     11010 MEMB     90       PVCL2    HG12     HAL2     0.900000E-01   1.00800           0   0.00000     -0.301140E-02
     11011 MEMB     90       PVCL2    P1       PL        1.50000       30.9740           0   0.00000     -0.301140E-02
     11012 MEMB     90       PVCL2    OP13     O2L     -0.780000       15.9994           0   0.00000     -0.301140E-02
     11013 MEMB     90       PVCL2    OP14     O2L     -0.780000       15.9994           0   0.00000     -0.301140E-02
     11014 MEMB     90       PVCL2    OP11     OSLP    -0.570000       15.9994           0   0.00000     -0.301140E-02
     11015 MEMB     90       PVCL2    OP12     OSLP    -0.570000       15.9994           0   0.00000     -0.301140E-02
     11016 MEMB     90       PVCL2    C11      CTL2    -0.800000E-01   12.0110           0   0.00000     -0.301140E-02
     11017 MEMB     90       PVCL2    H11J     HAL2     0.900000E-01   1.00800           0   0.00000     -0.301140E-02
     11018 MEMB     90       PVCL2    H11K     HAL2     0.900000E-01   1.00800           0   0.00000     -0.301140E-02
     11019 MEMB     90       PVCL2    C12      CTL1     0.170000       12.0110           0   0.00000     -0.301140E-02
     11020 MEMB     90       PVCL2    H12J     HAL1     0.900000E-01   1.00800           0   0.00000     -0.301140E-02
     11021 MEMB     90       PVCL2    O12      OSL     -0.490000       15.9994           0   0.00000     -0.301140E-02
     11022 MEMB     90       PVCL2    CA1      CL       0.900000       12.0110           0   0.00000     -0.301140E-02
     11023 MEMB     90       PVCL2    OA1      OBL     -0.630000       15.9994           0   0.00000     -0.301140E-02
     11024 MEMB     90       PVCL2    CA2      CTL2    -0.220000       12.0110           0   0.00000     -0.301140E-02
     11025 MEMB     90       PVCL2    H2A      HAL2     0.900000E-01   1.00800           0   0.00000     -0.301140E-02
     11026 MEMB     90       PVCL2    H2B      HAL2     0.900000E-01   1.00800           0   0.00000     -0.301140E-02
     11027 MEMB     90       PVCL2    C13      CTL2     0.800000E-01   12.0110           0   0.00000     -0.301140E-02
     11028 MEMB     90       PVCL2    H13J     HAL2     0.900000E-01   1.00800           0   0.00000     -0.301140E-02
     11029 MEMB     90       PVCL2    H13K     HAL2     0.900000E-01   1.00800           0   0.00000     -0.301140E-02
     11030 MEMB     90       PVCL2    O13      OSL     -0.490000       15.9994           0   0.00000     -0.301140E-02
     11031 MEMB     90       PVCL2    CB1      CL       0.900000       12.0110           0   0.00000     -0.301140E-02
     11032 MEMB     90       PVCL2    OB1      OBL     -0.630000       15.9994           0   0.00000     -0.301140E-02
     11033 MEMB     90       PVCL2    CB2      CTL2    -0.220000       12.0110           0   0.00000     -0.301140E-02
     11034 MEMB     90       PVCL2    H2D      HAL2     0.900000E-01   1.00800           0   0.00000     -0.301140E-02
     11035 MEMB     90       PVCL2    H2E      HAL2     0.900000E-01   1.00800           0   0.00000     -0.301140E-02
     11036 MEMB     90       PVCL2    C32      CTL1     0.170000       12.0110           0   0.00000     -0.301140E-02
     11037 MEMB     90       PVCL2    H32J     HAL1     0.900000E-01   1.00800           0   0.00000     -0.301140E-02
     11038 MEMB     90       PVCL2    O32      OSL     -0.490000       15.9994           0   0.00000     -0.301140E-02
     11039 MEMB     90       PVCL2    CC1      CL       0.900000       12.0110           0   0.00000     -0.301140E-02
     11040 MEMB     90       PVCL2    OC1      OBL     -0.630000       15.9994           0   0.00000     -0.301140E-02
     11041 MEMB     90       PVCL2    CC2      CTL2    -0.220000       12.0110           0   0.00000     -0.301140E-02
     11042 MEMB     90       PVCL2    H2R      HAL2     0.900000E-01   1.00800           0   0.00000     -0.301140E-02
     11043 MEMB     90       PVCL2    H2S      HAL2     0.900000E-01   1.00800           0   0.00000     -0.301140E-02
     11044 MEMB     90       PVCL2    C33      CTL2     0.800000E-01   12.0110           0   0.00000     -0.301140E-02
     11045 MEMB     90       PVCL2    H33J     HAL2     0.900000E-01   1.00800           0   0.00000     -0.301140E-02
     11046 MEMB     90       PVCL2    H33K     HAL2     0.900000E-01   1.00800           0   0.00000     -0.301140E-02
     11047 MEMB     90       PVCL2    O33      OSL     -0.490000       15.9994           0   0.00000     -0.301140E-02
     11048 MEMB     90       PVCL2    CD1      CL       0.900000       12.0110           0   0.00000     -0.301140E-02
     11049 MEMB     90       PVCL2    OD1      OBL     -0.630000       15.9994           0   0.00000     -0.301140E-02
     11050 MEMB     90       PVCL2    CD2      CTL2    -0.220000       12.0110           0   0.00000     -0.301140E-02
     11051 MEMB     90       PVCL2    H2X      HAL2     0.900000E-01   1.00800           0   0.00000     -0.301140E-02
     11052 MEMB     90       PVCL2    H2Y      HAL2     0.900000E-01   1.00800           0   0.00000     -0.301140E-02
     11053 MEMB     90       PVCL2    CA3      CTL2    -0.180000       12.0110           0   0.00000     -0.301140E-02
     11054 MEMB     90       PVCL2    H3A      HAL2     0.900000E-01   1.00800           0   0.00000     -0.301140E-02
     11055 MEMB     90       PVCL2    H3B      HAL2     0.900000E-01   1.00800           0   0.00000     -0.301140E-02
     11056 MEMB     90       PVCL2    CA4      CTL2    -0.180000       12.0110           0   0.00000     -0.301140E-02
     11057 MEMB     90       PVCL2    H4A      HAL2     0.900000E-01   1.00800           0   0.00000     -0.301140E-02
     11058 MEMB     90       PVCL2    H4B      HAL2     0.900000E-01   1.00800           0   0.00000     -0.301140E-02
     11059 MEMB     90       PVCL2    CA5      CTL2    -0.180000       12.0110           0   0.00000     -0.301140E-02
     11060 MEMB     90       PVCL2    H5A      HAL2     0.900000E-01   1.00800           0   0.00000     -0.301140E-02
     11061 MEMB     90       PVCL2    H5B      HAL2     0.900000E-01   1.00800           0   0.00000     -0.301140E-02
     11062 MEMB     90       PVCL2    CA6      CTL2    -0.180000       12.0110           0   0.00000     -0.301140E-02
     11063 MEMB     90       PVCL2    H6A      HAL2     0.900000E-01   1.00800           0   0.00000     -0.301140E-02
     11064 MEMB     90       PVCL2    H6B      HAL2     0.900000E-01   1.00800           0   0.00000     -0.301140E-02
     11065 MEMB     90       PVCL2    CA7      CTL2    -0.180000       12.0110           0   0.00000     -0.301140E-02
     11066 MEMB     90       PVCL2    H7A      HAL2     0.900000E-01   1.00800           0   0.00000     -0.301140E-02
     11067 MEMB     90       PVCL2    H7B      HAL2     0.900000E-01   1.00800           0   0.00000     -0.301140E-02
     11068 MEMB     90       PVCL2    CA8      CTL2    -0.180000       12.0110           0   0.00000     -0.301140E-02
     11069 MEMB     90       PVCL2    H8A      HAL2     0.900000E-01   1.00800           0   0.00000     -0.301140E-02
     11070 MEMB     90       PVCL2    H8B      HAL2     0.900000E-01   1.00800           0   0.00000     -0.301140E-02
     11071 MEMB     90       PVCL2    CA9      CTL2    -0.180000       12.0110           0   0.00000     -0.301140E-02
     11072 MEMB     90       PVCL2    H9A      HAL2     0.900000E-01   1.00800           0   0.00000     -0.301140E-02
     11073 MEMB     90       PVCL2    H9B      HAL2     0.900000E-01   1.00800           0   0.00000     -0.301140E-02
     11074 MEMB     90       PVCL2    CA10     CTL2    -0.180000       12.0110           0   0.00000     -0.301140E-02
     11075 MEMB     90       PVCL2    H10A     HAL2     0.900000E-01   1.00800           0   0.00000     -0.301140E-02
     11076 MEMB     90       PVCL2    H10B     HAL2     0.900000E-01   1.00800           0   0.00000     -0.301140E-02
     11077 MEMB     90       PVCL2    CA11     CEL1    -0.150000       12.0110           0   0.00000     -0.301140E-02
     11078 MEMB     90       PVCL2    H11A     HEL1     0.150000       1.00800           0   0.00000     -0.301140E-02
     11079 MEMB     90       PVCL2    CA12     CEL1    -0.150000       12.0110           0   0.00000     -0.301140E-02
     11080 MEMB     90       PVCL2    H12A     HEL1     0.150000       1.00800           0   0.00000     -0.301140E-02
     11081 MEMB     90       PVCL2    CA13     CTL2    -0.180000       12.0110           0   0.00000     -0.301140E-02
     11082 MEMB     90       PVCL2    H13A     HAL2     0.900000E-01   1.00800           0   0.00000     -0.301140E-02
     11083 MEMB     90       PVCL2    H13B     HAL2     0.900000E-01   1.00800           0   0.00000     -0.301140E-02
     11084 MEMB     90       PVCL2    CA14     CTL2    -0.180000       12.0110           0   0.00000     -0.301140E-02
     11085 MEMB     90       PVCL2    H14A     HAL2     0.900000E-01   1.00800           0   0.00000     -0.301140E-02
     11086 MEMB     90       PVCL2    H14B     HAL2     0.900000E-01   1.00800           0   0.00000     -0.301140E-02
     11087 MEMB     90       PVCL2    CA15     CTL2    -0.180000       12.0110           0   0.00000     -0.301140E-02
     11088 MEMB     90       PVCL2    H15A     HAL2     0.900000E-01   1.00800           0   0.00000     -0.301140E-02
     11089 MEMB     90       PVCL2    H15B     HAL2     0.900000E-01   1.00800           0   0.00000     -0.301140E-02
     11090 MEMB     90       PVCL2    CA16     CTL2    -0.180000       12.0110           0   0.00000     -0.301140E-02
     11091 MEMB     90       PVCL2    H16A     HAL2     0.900000E-01   1.00800           0   0.00000     -0.301140E-02
     11092 MEMB     90       PVCL2    H16B     HAL2     0.900000E-01   1.00800           0   0.00000     -0.301140E-02
     11093 MEMB     90       PVCL2    CA17     CTL2    -0.180000       12.0110           0   0.00000     -0.301140E-02
     11094 MEMB     90       PVCL2    H17A     HAL2     0.900000E-01   1.00800           0   0.00000     -0.301140E-02
     11095 MEMB     90       PVCL2    H17B     HAL2     0.900000E-01   1.00800           0   0.00000     -0.301140E-02
     11096 MEMB     90       PVCL2    CA18     CTL3    -0.270000       12.0110           0   0.00000     -0.301140E-02
     11097 MEMB     90       PVCL2    H18A     HAL3     0.900000E-01   1.00800           0   0.00000     -0.301140E-02
     11098 MEMB     90       PVCL2    H18B     HAL3     0.900000E-01   1.00800           0   0.00000     -0.301140E-02
     11099 MEMB     90       PVCL2    H18C     HAL3     0.900000E-01   1.00800           0   0.00000     -0.301140E-02
     11100 MEMB     90       PVCL2    CB3      CTL2    -0.180000       12.0110           0   0.00000     -0.301140E-02
     11101 MEMB     90       PVCL2    H3D      HAL2     0.900000E-01   1.00800           0   0.00000     -0.301140E-02
     11102 MEMB     90       PVCL2    H3E      HAL2     0.900000E-01   1.00800           0   0.00000     -0.301140E-02
     11103 MEMB     90       PVCL2    CB4      CTL2    -0.180000       12.0110           0   0.00000     -0.301140E-02
     11104 MEMB     90       PVCL2    H4D      HAL2     0.900000E-01   1.00800           0   0.00000     -0.301140E-02
     11105 MEMB     90       PVCL2    H4E      HAL2     0.900000E-01   1.00800           0   0.00000     -0.301140E-02
     11106 MEMB     90       PVCL2    CB5      CTL2    -0.180000       12.0110           0   0.00000     -0.301140E-02
     11107 MEMB     90       PVCL2    H5D      HAL2     0.900000E-01   1.00800           0   0.00000     -0.301140E-02
     11108 MEMB     90       PVCL2    H5E      HAL2     0.900000E-01   1.00800           0   0.00000     -0.301140E-02
     11109 MEMB     90       PVCL2    CB6      CTL2    -0.180000       12.0110           0   0.00000     -0.301140E-02
     11110 MEMB     90       PVCL2    H6D      HAL2     0.900000E-01   1.00800           0   0.00000     -0.301140E-02
     11111 MEMB     90       PVCL2    H6E      HAL2     0.900000E-01   1.00800           0   0.00000     -0.301140E-02
     11112 MEMB     90       PVCL2    CB7      CTL2    -0.180000       12.0110           0   0.00000     -0.301140E-02
     11113 MEMB     90       PVCL2    H7D      HAL2     0.900000E-01   1.00800           0   0.00000     -0.301140E-02
     11114 MEMB     90       PVCL2    H7E      HAL2     0.900000E-01   1.00800           0   0.00000     -0.301140E-02
     11115 MEMB     90       PVCL2    CB8      CTL2    -0.180000       12.0110           0   0.00000     -0.301140E-02
     11116 MEMB     90       PVCL2    H8D      HAL2     0.900000E-01   1.00800           0   0.00000     -0.301140E-02
     11117 MEMB     90       PVCL2    H8E      HAL2     0.900000E-01   1.00800           0   0.00000     -0.301140E-02
     11118 MEMB     90       PVCL2    CB9      CTL2    -0.180000       12.0110           0   0.00000     -0.301140E-02
     11119 MEMB     90       PVCL2    H9D      HAL2     0.900000E-01   1.00800           0   0.00000     -0.301140E-02
     11120 MEMB     90       PVCL2    H9E      HAL2     0.900000E-01   1.00800           0   0.00000     -0.301140E-02
     11121 MEMB     90       PVCL2    CB10     CTL2    -0.180000       12.0110           0   0.00000     -0.301140E-02
     11122 MEMB     90       PVCL2    H10D     HAL2     0.900000E-01   1.00800           0   0.00000     -0.301140E-02
     11123 MEMB     90       PVCL2    H10E     HAL2     0.900000E-01   1.00800           0   0.00000     -0.301140E-02
     11124 MEMB     90       PVCL2    CB11     CTL2    -0.180000       12.0110           0   0.00000     -0.301140E-02
     11125 MEMB     90       PVCL2    H11D     HAL2     0.900000E-01   1.00800           0   0.00000     -0.301140E-02
     11126 MEMB     90       PVCL2    H11E     HAL2     0.900000E-01   1.00800           0   0.00000     -0.301140E-02
     11127 MEMB     90       PVCL2    CB12     CTL2    -0.180000       12.0110           0   0.00000     -0.301140E-02
     11128 MEMB     90       PVCL2    H12D     HAL2     0.900000E-01   1.00800           0   0.00000     -0.301140E-02
     11129 MEMB     90       PVCL2    H12E     HAL2     0.900000E-01   1.00800           0   0.00000     -0.301140E-02
     11130 MEMB     90       PVCL2    CB13     CTL2    -0.180000       12.0110           0   0.00000     -0.301140E-02
     11131 MEMB     90       PVCL2    H13D     HAL2     0.900000E-01   1.00800           0   0.00000     -0.301140E-02
     11132 MEMB     90       PVCL2    H13E     HAL2     0.900000E-01   1.00800           0   0.00000     -0.301140E-02
     11133 MEMB     90       PVCL2    CB14     CTL2    -0.180000       12.0110           0   0.00000     -0.301140E-02
     11134 MEMB     90       PVCL2    H14D     HAL2     0.900000E-01   1.00800           0   0.00000     -0.301140E-02
     11135 MEMB     90       PVCL2    H14E     HAL2     0.900000E-01   1.00800           0   0.00000     -0.301140E-02
     11136 MEMB     90       PVCL2    CB15     CTL2    -0.180000       12.0110           0   0.00000     -0.301140E-02
     11137 MEMB     90       PVCL2    H15D     HAL2     0.900000E-01   1.00800           0   0.00000     -0.301140E-02
     11138 MEMB     90       PVCL2    H15E     HAL2     0.900000E-01   1.00800           0   0.00000     -0.301140E-02
     11139 MEMB     90       PVCL2    CB16     CTL3    -0.270000       12.0110           0   0.00000     -0.301140E-02
     11140 MEMB     90       PVCL2    H16D     HAL3     0.900000E-01   1.00800           0   0.00000     -0.301140E-02
     11141 MEMB     90       PVCL2    H16E     HAL3     0.900000E-01   1.00800           0   0.00000     -0.301140E-02
     11142 MEMB     90       PVCL2    H16F     HAL3     0.900000E-01   1.00800           0   0.00000     -0.301140E-02
     11143 MEMB     90       PVCL2    CC3      CTL2    -0.180000       12.0110           0   0.00000     -0.301140E-02
     11144 MEMB     90       PVCL2    H3R      HAL2     0.900000E-01   1.00800           0   0.00000     -0.301140E-02
     11145 MEMB     90       PVCL2    H3S      HAL2     0.900000E-01   1.00800           0   0.00000     -0.301140E-02
     11146 MEMB     90       PVCL2    CC4      CTL2    -0.180000       12.0110           0   0.00000     -0.301140E-02
     11147 MEMB     90       PVCL2    H4R      HAL2     0.900000E-01   1.00800           0   0.00000     -0.301140E-02
     11148 MEMB     90       PVCL2    H4S      HAL2     0.900000E-01   1.00800           0   0.00000     -0.301140E-02
     11149 MEMB     90       PVCL2    CC5      CTL2    -0.180000       12.0110           0   0.00000     -0.301140E-02
     11150 MEMB     90       PVCL2    H5R      HAL2     0.900000E-01   1.00800           0   0.00000     -0.301140E-02
     11151 MEMB     90       PVCL2    H5S      HAL2     0.900000E-01   1.00800           0   0.00000     -0.301140E-02
     11152 MEMB     90       PVCL2    CC6      CTL2    -0.180000       12.0110           0   0.00000     -0.301140E-02
     11153 MEMB     90       PVCL2    H6R      HAL2     0.900000E-01   1.00800           0   0.00000     -0.301140E-02
     11154 MEMB     90       PVCL2    H6S      HAL2     0.900000E-01   1.00800           0   0.00000     -0.301140E-02
     11155 MEMB     90       PVCL2    CC7      CTL2    -0.180000       12.0110           0   0.00000     -0.301140E-02
     11156 MEMB     90       PVCL2    H7R      HAL2     0.900000E-01   1.00800           0   0.00000     -0.301140E-02
     11157 MEMB     90       PVCL2    H7S      HAL2     0.900000E-01   1.00800           0   0.00000     -0.301140E-02
     11158 MEMB     90       PVCL2    CC8      CTL2    -0.180000       12.0110           0   0.00000     -0.301140E-02
     11159 MEMB     90       PVCL2    H8R      HAL2     0.900000E-01   1.00800           0   0.00000     -0.301140E-02
     11160 MEMB     90       PVCL2    H8S      HAL2     0.900000E-01   1.00800           0   0.00000     -0.301140E-02
     11161 MEMB     90       PVCL2    CC9      CTL2    -0.180000       12.0110           0   0.00000     -0.301140E-02
     11162 MEMB     90       PVCL2    H9R      HAL2     0.900000E-01   1.00800           0   0.00000     -0.301140E-02
     11163 MEMB     90       PVCL2    H9S      HAL2     0.900000E-01   1.00800           0   0.00000     -0.301140E-02
     11164 MEMB     90       PVCL2    CC10     CTL2    -0.180000       12.0110           0   0.00000     -0.301140E-02
     11165 MEMB     90       PVCL2    H10R     HAL2     0.900000E-01   1.00800           0   0.00000     -0.301140E-02
     11166 MEMB     90       PVCL2    H10S     HAL2     0.900000E-01   1.00800           0   0.00000     -0.301140E-02
     11167 MEMB     90       PVCL2    CC11     CEL1    -0.150000       12.0110           0   0.00000     -0.301140E-02
     11168 MEMB     90       PVCL2    H11R     HEL1     0.150000       1.00800           0   0.00000     -0.301140E-02
     11169 MEMB     90       PVCL2    CC12     CEL1    -0.150000       12.0110           0   0.00000     -0.301140E-02
     11170 MEMB     90       PVCL2    H12R     HEL1     0.150000       1.00800           0   0.00000     -0.301140E-02
     11171 MEMB     90       PVCL2    CC13     CTL2    -0.180000       12.0110           0   0.00000     -0.301140E-02
     11172 MEMB     90       PVCL2    H13R     HAL2     0.900000E-01   1.00800           0   0.00000     -0.301140E-02
     11173 MEMB     90       PVCL2    H13S     HAL2     0.900000E-01   1.00800           0   0.00000     -0.301140E-02
     11174 MEMB     90       PVCL2    CC14     CTL2    -0.180000       12.0110           0   0.00000     -0.301140E-02
     11175 MEMB     90       PVCL2    H14R     HAL2     0.900000E-01   1.00800           0   0.00000     -0.301140E-02
     11176 MEMB     90       PVCL2    H14S     HAL2     0.900000E-01   1.00800           0   0.00000     -0.301140E-02
     11177 MEMB     90       PVCL2    CC15     CTL2    -0.180000       12.0110           0   0.00000     -0.301140E-02
     11178 MEMB     90       PVCL2    H15R     HAL2     0.900000E-01   1.00800           0   0.00000     -0.301140E-02
     11179 MEMB     90       PVCL2    H15S     HAL2     0.900000E-01   1.00800           0   0.00000     -0.301140E-02
     11180 MEMB     90       PVCL2    CC16     CTL2    -0.180000       12.0110           0   0.00000     -0.301140E-02
     11181 MEMB     90       PVCL2    H16R     HAL2     0.900000E-01   1.00800           0   0.00000     -0.301140E-02
     11182 MEMB     90       PVCL2    H16S     HAL2     0.900000E-01   1.00800           0   0.00000     -0.301140E-02
     11183 MEMB     90       PVCL2    CC17     CTL2    -0.180000       12.0110           0   0.00000     -0.301140E-02
     11184 MEMB     90       PVCL2    H17R     HAL2     0.900000E-01   1.00800           0   0.00000     -0.301140E-02
     11185 MEMB     90       PVCL2    H17S     HAL2     0.900000E-01   1.00800           0   0.00000     -0.301140E-02
     11186 MEMB     90       PVCL2    CC18     CTL3    -0.270000       12.0110           0   0.00000     -0.301140E-02
     11187 MEMB     90       PVCL2    H18R     HAL3     0.900000E-01   1.00800           0   0.00000     -0.301140E-02
     11188 MEMB     90       PVCL2    H18S     HAL3     0.900000E-01   1.00800           0   0.00000     -0.301140E-02
     11189 MEMB     90       PVCL2    H18T     HAL3     0.900000E-01   1.00800           0   0.00000     -0.301140E-02
     11190 MEMB     90       PVCL2    CD3      CTL2    -0.180000       12.0110           0   0.00000     -0.301140E-02
     11191 MEMB     90       PVCL2    H3X      HAL2     0.900000E-01   1.00800           0   0.00000     -0.301140E-02
     11192 MEMB     90       PVCL2    H3Y      HAL2     0.900000E-01   1.00800           0   0.00000     -0.301140E-02
     11193 MEMB     90       PVCL2    CD4      CTL2    -0.180000       12.0110           0   0.00000     -0.301140E-02
     11194 MEMB     90       PVCL2    H4X      HAL2     0.900000E-01   1.00800           0   0.00000     -0.301140E-02
     11195 MEMB     90       PVCL2    H4Y      HAL2     0.900000E-01   1.00800           0   0.00000     -0.301140E-02
     11196 MEMB     90       PVCL2    CD5      CTL2    -0.180000       12.0110           0   0.00000     -0.301140E-02
     11197 MEMB     90       PVCL2    H5X      HAL2     0.900000E-01   1.00800           0   0.00000     -0.301140E-02
     11198 MEMB     90       PVCL2    H5Y      HAL2     0.900000E-01   1.00800           0   0.00000     -0.301140E-02
     11199 MEMB     90       PVCL2    CD6      CTL2    -0.180000       12.0110           0   0.00000     -0.301140E-02
     11200 MEMB     90       PVCL2    H6X      HAL2     0.900000E-01   1.00800           0   0.00000     -0.301140E-02
     11201 MEMB     90       PVCL2    H6Y      HAL2     0.900000E-01   1.00800           0   0.00000     -0.301140E-02
     11202 MEMB     90       PVCL2    CD7      CTL2    -0.180000       12.0110           0   0.00000     -0.301140E-02
     11203 MEMB     90       PVCL2    H7X      HAL2     0.900000E-01   1.00800           0   0.00000     -0.301140E-02
     11204 MEMB     90       PVCL2    H7Y      HAL2     0.900000E-01   1.00800           0   0.00000     -0.301140E-02
     11205 MEMB     90       PVCL2    CD8      CTL2    -0.180000       12.0110           0   0.00000     -0.301140E-02
     11206 MEMB     90       PVCL2    H8X      HAL2     0.900000E-01   1.00800           0   0.00000     -0.301140E-02
     11207 MEMB     90       PVCL2    H8Y      HAL2     0.900000E-01   1.00800           0   0.00000     -0.301140E-02
     11208 MEMB     90       PVCL2    CD9      CTL2    -0.180000       12.0110           0   0.00000     -0.301140E-02
     11209 MEMB     90       PVCL2    H9X      HAL2     0.900000E-01   1.00800           0   0.00000     -0.301140E-02
     11210 MEMB     90       PVCL2    H9Y      HAL2     0.900000E-01   1.00800           0   0.00000     -0.301140E-02
     11211 MEMB     90       PVCL2    CD10     CTL2    -0.180000       12.0110           0   0.00000     -0.301140E-02
     11212 MEMB     90       PVCL2    H10X     HAL2     0.900000E-01   1.00800           0   0.00000     -0.301140E-02
     11213 MEMB     90       PVCL2    H10Y     HAL2     0.900000E-01   1.00800           0   0.00000     -0.301140E-02
     11214 MEMB     90       PVCL2    CD11     CTL2    -0.180000       12.0110           0   0.00000     -0.301140E-02
     11215 MEMB     90       PVCL2    H11X     HAL2     0.900000E-01   1.00800           0   0.00000     -0.301140E-02
     11216 MEMB     90       PVCL2    H11Y     HAL2     0.900000E-01   1.00800           0   0.00000     -0.301140E-02
     11217 MEMB     90       PVCL2    CD12     CTL2    -0.180000       12.0110           0   0.00000     -0.301140E-02
     11218 MEMB     90       PVCL2    H12X     HAL2     0.900000E-01   1.00800           0   0.00000     -0.301140E-02
     11219 MEMB     90       PVCL2    H12Y     HAL2     0.900000E-01   1.00800           0   0.00000     -0.301140E-02
     11220 MEMB     90       PVCL2    CD13     CTL2    -0.180000       12.0110           0   0.00000     -0.301140E-02
     11221 MEMB     90       PVCL2    H13X     HAL2     0.900000E-01   1.00800           0   0.00000     -0.301140E-02
     11222 MEMB     90       PVCL2    H13Y     HAL2     0.900000E-01   1.00800           0   0.00000     -0.301140E-02
     11223 MEMB     90       PVCL2    CD14     CTL2    -0.180000       12.0110           0   0.00000     -0.301140E-02
     11224 MEMB     90       PVCL2    H14X     HAL2     0.900000E-01   1.00800           0   0.00000     -0.301140E-02
     11225 MEMB     90       PVCL2    H14Y     HAL2     0.900000E-01   1.00800           0   0.00000     -0.301140E-02
     11226 MEMB     90       PVCL2    CD15     CTL2    -0.180000       12.0110           0   0.00000     -0.301140E-02
     11227 MEMB     90       PVCL2    H15X     HAL2     0.900000E-01   1.00800           0   0.00000     -0.301140E-02
     11228 MEMB     90       PVCL2    H15Y     HAL2     0.900000E-01   1.00800           0   0.00000     -0.301140E-02
     11229 MEMB     90       PVCL2    CD16     CTL3    -0.270000       12.0110           0   0.00000     -0.301140E-02
     11230 MEMB     90       PVCL2    H16X     HAL3     0.900000E-01   1.00800           0   0.00000     -0.301140E-02
     11231 MEMB     90       PVCL2    H16Y     HAL3     0.900000E-01   1.00800           0   0.00000     -0.301140E-02
     11232 MEMB     90       PVCL2    H16Z     HAL3     0.900000E-01   1.00800           0   0.00000     -0.301140E-02
     11233 MEMB     91       PMPE     N        NH3L    -0.300000       14.0070           0   0.00000     -0.301140E-02
     11234 MEMB     91       PMPE     HN1      HCL      0.330000       1.00800           0   0.00000     -0.301140E-02
     11235 MEMB     91       PMPE     HN2      HCL      0.330000       1.00800           0   0.00000     -0.301140E-02
     11236 MEMB     91       PMPE     HN3      HCL      0.330000       1.00800           0   0.00000     -0.301140E-02
     11237 MEMB     91       PMPE     C12      CTL2     0.130000       12.0110           0   0.00000     -0.301140E-02
     11238 MEMB     91       PMPE     H12A     HAL2     0.900000E-01   1.00800           0   0.00000     -0.301140E-02
     11239 MEMB     91       PMPE     H12B     HAL2     0.900000E-01   1.00800           0   0.00000     -0.301140E-02
     11240 MEMB     91       PMPE     C11      CTL2    -0.800000E-01   12.0110           0   0.00000     -0.301140E-02
     11241 MEMB     91       PMPE     H11A     HAL2     0.900000E-01   1.00800           0   0.00000     -0.301140E-02
     11242 MEMB     91       PMPE     H11B     HAL2     0.900000E-01   1.00800           0   0.00000     -0.301140E-02
     11243 MEMB     91       PMPE     P        PL        1.50000       30.9740           0   0.00000     -0.301140E-02
     11244 MEMB     91       PMPE     O13      O2L     -0.780000       15.9994           0   0.00000     -0.301140E-02
     11245 MEMB     91       PMPE     O14      O2L     -0.780000       15.9994           0   0.00000     -0.301140E-02
     11246 MEMB     91       PMPE     O11      OSLP    -0.570000       15.9994           0   0.00000     -0.301140E-02
     11247 MEMB     91       PMPE     O12      OSLP    -0.570000       15.9994           0   0.00000     -0.301140E-02
     11248 MEMB     91       PMPE     C1       CTL2    -0.800000E-01   12.0110           0   0.00000     -0.301140E-02
     11249 MEMB     91       PMPE     HA       HAL2     0.900000E-01   1.00800           0   0.00000     -0.301140E-02
     11250 MEMB     91       PMPE     HB       HAL2     0.900000E-01   1.00800           0   0.00000     -0.301140E-02
     11251 MEMB     91       PMPE     C2       CTL1     0.170000       12.0110           0   0.00000     -0.301140E-02
     11252 MEMB     91       PMPE     HS       HAL1     0.900000E-01   1.00800           0   0.00000     -0.301140E-02
     11253 MEMB     91       PMPE     O21      OSL     -0.490000       15.9994           0   0.00000     -0.301140E-02
     11254 MEMB     91       PMPE     C21      CL       0.900000       12.0110           0   0.00000     -0.301140E-02
     11255 MEMB     91       PMPE     O22      OBL     -0.630000       15.9994           0   0.00000     -0.301140E-02
     11256 MEMB     91       PMPE     C22      CTL2    -0.220000       12.0110           0   0.00000     -0.301140E-02
     11257 MEMB     91       PMPE     H2R      HAL2     0.900000E-01   1.00800           0   0.00000     -0.301140E-02
     11258 MEMB     91       PMPE     H2S      HAL2     0.900000E-01   1.00800           0   0.00000     -0.301140E-02
     11259 MEMB     91       PMPE     C3       CTL2     0.800000E-01   12.0110           0   0.00000     -0.301140E-02
     11260 MEMB     91       PMPE     HX       HAL2     0.900000E-01   1.00800           0   0.00000     -0.301140E-02
     11261 MEMB     91       PMPE     HY       HAL2     0.900000E-01   1.00800           0   0.00000     -0.301140E-02
     11262 MEMB     91       PMPE     O31      OSL     -0.490000       15.9994           0   0.00000     -0.301140E-02
     11263 MEMB     91       PMPE     C31      CL       0.900000       12.0110           0   0.00000     -0.301140E-02
     11264 MEMB     91       PMPE     O32      OBL     -0.630000       15.9994           0   0.00000     -0.301140E-02
     11265 MEMB     91       PMPE     C32      CTL2    -0.220000       12.0110           0   0.00000     -0.301140E-02
     11266 MEMB     91       PMPE     H2X      HAL2     0.900000E-01   1.00800           0   0.00000     -0.301140E-02
     11267 MEMB     91       PMPE     H2Y      HAL2     0.900000E-01   1.00800           0   0.00000     -0.301140E-02
     11268 MEMB     91       PMPE     C23      CTL2    -0.180000       12.0110           0   0.00000     -0.301140E-02
     11269 MEMB     91       PMPE     H3R      HAL2     0.900000E-01   1.00800           0   0.00000     -0.301140E-02
     11270 MEMB     91       PMPE     H3S      HAL2     0.900000E-01   1.00800           0   0.00000     -0.301140E-02
     11271 MEMB     91       PMPE     C24      CTL2    -0.180000       12.0110           0   0.00000     -0.301140E-02
     11272 MEMB     91       PMPE     H4R      HAL2     0.900000E-01   1.00800           0   0.00000     -0.301140E-02
     11273 MEMB     91       PMPE     H4S      HAL2     0.900000E-01   1.00800           0   0.00000     -0.301140E-02
     11274 MEMB     91       PMPE     C25      CTL2    -0.180000       12.0110           0   0.00000     -0.301140E-02
     11275 MEMB     91       PMPE     H5R      HAL2     0.900000E-01   1.00800           0   0.00000     -0.301140E-02
     11276 MEMB     91       PMPE     H5S      HAL2     0.900000E-01   1.00800           0   0.00000     -0.301140E-02
     11277 MEMB     91       PMPE     C26      CTL2    -0.180000       12.0110           0   0.00000     -0.301140E-02
     11278 MEMB     91       PMPE     H6R      HAL2     0.900000E-01   1.00800           0   0.00000     -0.301140E-02
     11279 MEMB     91       PMPE     H6S      HAL2     0.900000E-01   1.00800           0   0.00000     -0.301140E-02
     11280 MEMB     91       PMPE     C27      CTL2    -0.180000       12.0110           0   0.00000     -0.301140E-02
     11281 MEMB     91       PMPE     H7R      HAL2     0.900000E-01   1.00800           0   0.00000     -0.301140E-02
     11282 MEMB     91       PMPE     H7S      HAL2     0.900000E-01   1.00800           0   0.00000     -0.301140E-02
     11283 MEMB     91       PMPE     C28      CTL2    -0.180000       12.0110           0   0.00000     -0.301140E-02
     11284 MEMB     91       PMPE     H8R      HAL2     0.900000E-01   1.00800           0   0.00000     -0.301140E-02
     11285 MEMB     91       PMPE     H8S      HAL2     0.900000E-01   1.00800           0   0.00000     -0.301140E-02
     11286 MEMB     91       PMPE     C29      CG3RC1  -0.900000E-01   12.0110           0   0.00000     -0.301140E-02
     11287 MEMB     91       PMPE     H9R      HGA1     0.900000E-01   1.00800           0   0.00000     -0.301140E-02
     11288 MEMB     91       PMPE     C217     CG3C31  -0.180000       12.0110           0   0.00000     -0.301140E-02
     11289 MEMB     91       PMPE     H17R     HGA2     0.900000E-01   1.00800           0   0.00000     -0.301140E-02
     11290 MEMB     91       PMPE     H17S     HGA2     0.900000E-01   1.00800           0   0.00000     -0.301140E-02
     11291 MEMB     91       PMPE     C210     CG3RC1  -0.900000E-01   12.0110           0   0.00000     -0.301140E-02
     11292 MEMB     91       PMPE     H10R     HGA1     0.900000E-01   1.00800           0   0.00000     -0.301140E-02
     11293 MEMB     91       PMPE     C211     CTL2    -0.180000       12.0110           0   0.00000     -0.301140E-02
     11294 MEMB     91       PMPE     H11R     HAL2     0.900000E-01   1.00800           0   0.00000     -0.301140E-02
     11295 MEMB     91       PMPE     H11S     HAL2     0.900000E-01   1.00800           0   0.00000     -0.301140E-02
     11296 MEMB     91       PMPE     C212     CTL2    -0.180000       12.0110           0   0.00000     -0.301140E-02
     11297 MEMB     91       PMPE     H12R     HAL2     0.900000E-01   1.00800           0   0.00000     -0.301140E-02
     11298 MEMB     91       PMPE     H12S     HAL2     0.900000E-01   1.00800           0   0.00000     -0.301140E-02
     11299 MEMB     91       PMPE     C213     CTL2    -0.180000       12.0110           0   0.00000     -0.301140E-02
     11300 MEMB     91       PMPE     H13R     HAL2     0.900000E-01   1.00800           0   0.00000     -0.301140E-02
     11301 MEMB     91       PMPE     H13S     HAL2     0.900000E-01   1.00800           0   0.00000     -0.301140E-02
     11302 MEMB     91       PMPE     C214     CTL2    -0.180000       12.0110           0   0.00000     -0.301140E-02
     11303 MEMB     91       PMPE     H14R     HAL2     0.900000E-01   1.00800           0   0.00000     -0.301140E-02
     11304 MEMB     91       PMPE     H14S     HAL2     0.900000E-01   1.00800           0   0.00000     -0.301140E-02
     11305 MEMB     91       PMPE     C215     CTL2    -0.180000       12.0110           0   0.00000     -0.301140E-02
     11306 MEMB     91       PMPE     H15R     HAL2     0.900000E-01   1.00800           0   0.00000     -0.301140E-02
     11307 MEMB     91       PMPE     H15S     HAL2     0.900000E-01   1.00800           0   0.00000     -0.301140E-02
     11308 MEMB     91       PMPE     C216     CTL3    -0.270000       12.0110           0   0.00000     -0.301140E-02
     11309 MEMB     91       PMPE     H16R     HAL3     0.900000E-01   1.00800           0   0.00000     -0.301140E-02
     11310 MEMB     91       PMPE     H16S     HAL3     0.900000E-01   1.00800           0   0.00000     -0.301140E-02
     11311 MEMB     91       PMPE     H16T     HAL3     0.900000E-01   1.00800           0   0.00000     -0.301140E-02
     11312 MEMB     91       PMPE     C33      CTL2    -0.180000       12.0110           0   0.00000     -0.301140E-02
     11313 MEMB     91       PMPE     H3X      HAL2     0.900000E-01   1.00800           0   0.00000     -0.301140E-02
     11314 MEMB     91       PMPE     H3Y      HAL2     0.900000E-01   1.00800           0   0.00000     -0.301140E-02
     11315 MEMB     91       PMPE     C34      CTL2    -0.180000       12.0110           0   0.00000     -0.301140E-02
     11316 MEMB     91       PMPE     H4X      HAL2     0.900000E-01   1.00800           0   0.00000     -0.301140E-02
     11317 MEMB     91       PMPE     H4Y      HAL2     0.900000E-01   1.00800           0   0.00000     -0.301140E-02
     11318 MEMB     91       PMPE     C35      CTL2    -0.180000       12.0110           0   0.00000     -0.301140E-02
     11319 MEMB     91       PMPE     H5X      HAL2     0.900000E-01   1.00800           0   0.00000     -0.301140E-02
     11320 MEMB     91       PMPE     H5Y      HAL2     0.900000E-01   1.00800           0   0.00000     -0.301140E-02
     11321 MEMB     91       PMPE     C36      CTL2    -0.180000       12.0110           0   0.00000     -0.301140E-02
     11322 MEMB     91       PMPE     H6X      HAL2     0.900000E-01   1.00800           0   0.00000     -0.301140E-02
     11323 MEMB     91       PMPE     H6Y      HAL2     0.900000E-01   1.00800           0   0.00000     -0.301140E-02
     11324 MEMB     91       PMPE     C37      CTL2    -0.180000       12.0110           0   0.00000     -0.301140E-02
     11325 MEMB     91       PMPE     H7X      HAL2     0.900000E-01   1.00800           0   0.00000     -0.301140E-02
     11326 MEMB     91       PMPE     H7Y      HAL2     0.900000E-01   1.00800           0   0.00000     -0.301140E-02
     11327 MEMB     91       PMPE     C38      CTL2    -0.180000       12.0110           0   0.00000     -0.301140E-02
     11328 MEMB     91       PMPE     H8X      HAL2     0.900000E-01   1.00800           0   0.00000     -0.301140E-02
     11329 MEMB     91       PMPE     H8Y      HAL2     0.900000E-01   1.00800           0   0.00000     -0.301140E-02
     11330 MEMB     91       PMPE     C39      CTL2    -0.180000       12.0110           0   0.00000     -0.301140E-02
     11331 MEMB     91       PMPE     H9X      HAL2     0.900000E-01   1.00800           0   0.00000     -0.301140E-02
     11332 MEMB     91       PMPE     H9Y      HAL2     0.900000E-01   1.00800           0   0.00000     -0.301140E-02
     11333 MEMB     91       PMPE     C310     CTL2    -0.180000       12.0110           0   0.00000     -0.301140E-02
     11334 MEMB     91       PMPE     H10X     HAL2     0.900000E-01   1.00800           0   0.00000     -0.301140E-02
     11335 MEMB     91       PMPE     H10Y     HAL2     0.900000E-01   1.00800           0   0.00000     -0.301140E-02
     11336 MEMB     91       PMPE     C311     CTL2    -0.180000       12.0110           0   0.00000     -0.301140E-02
     11337 MEMB     91       PMPE     H11X     HAL2     0.900000E-01   1.00800           0   0.00000     -0.301140E-02
     11338 MEMB     91       PMPE     H11Y     HAL2     0.900000E-01   1.00800           0   0.00000     -0.301140E-02
     11339 MEMB     91       PMPE     C312     CTL2    -0.180000       12.0110           0   0.00000     -0.301140E-02
     11340 MEMB     91       PMPE     H12X     HAL2     0.900000E-01   1.00800           0   0.00000     -0.301140E-02
     11341 MEMB     91       PMPE     H12Y     HAL2     0.900000E-01   1.00800           0   0.00000     -0.301140E-02
     11342 MEMB     91       PMPE     C313     CTL2    -0.180000       12.0110           0   0.00000     -0.301140E-02
     11343 MEMB     91       PMPE     H13X     HAL2     0.900000E-01   1.00800           0   0.00000     -0.301140E-02
     11344 MEMB     91       PMPE     H13Y     HAL2     0.900000E-01   1.00800           0   0.00000     -0.301140E-02
     11345 MEMB     91       PMPE     C314     CTL2    -0.180000       12.0110           0   0.00000     -0.301140E-02
     11346 MEMB     91       PMPE     H14X     HAL2     0.900000E-01   1.00800           0   0.00000     -0.301140E-02
     11347 MEMB     91       PMPE     H14Y     HAL2     0.900000E-01   1.00800           0   0.00000     -0.301140E-02
     11348 MEMB     91       PMPE     C315     CTL2    -0.180000       12.0110           0   0.00000     -0.301140E-02
     11349 MEMB     91       PMPE     H15X     HAL2     0.900000E-01   1.00800           0   0.00000     -0.301140E-02
     11350 MEMB     91       PMPE     H15Y     HAL2     0.900000E-01   1.00800           0   0.00000     -0.301140E-02
     11351 MEMB     91       PMPE     C316     CTL3    -0.270000       12.0110           0   0.00000     -0.301140E-02
     11352 MEMB     91       PMPE     H16X     HAL3     0.900000E-01   1.00800           0   0.00000     -0.301140E-02
     11353 MEMB     91       PMPE     H16Y     HAL3     0.900000E-01   1.00800           0   0.00000     -0.301140E-02
     11354 MEMB     91       PMPE     H16Z     HAL3     0.900000E-01   1.00800           0   0.00000     -0.301140E-02
     11355 MEMB     92       PMPE     N        NH3L    -0.300000       14.0070           0   0.00000     -0.301140E-02
     11356 MEMB     92       PMPE     HN1      HCL      0.330000       1.00800           0   0.00000     -0.301140E-02
     11357 MEMB     92       PMPE     HN2      HCL      0.330000       1.00800           0   0.00000     -0.301140E-02
     11358 MEMB     92       PMPE     HN3      HCL      0.330000       1.00800           0   0.00000     -0.301140E-02
     11359 MEMB     92       PMPE     C12      CTL2     0.130000       12.0110           0   0.00000     -0.301140E-02
     11360 MEMB     92       PMPE     H12A     HAL2     0.900000E-01   1.00800           0   0.00000     -0.301140E-02
     11361 MEMB     92       PMPE     H12B     HAL2     0.900000E-01   1.00800           0   0.00000     -0.301140E-02
     11362 MEMB     92       PMPE     C11      CTL2    -0.800000E-01   12.0110           0   0.00000     -0.301140E-02
     11363 MEMB     92       PMPE     H11A     HAL2     0.900000E-01   1.00800           0   0.00000     -0.301140E-02
     11364 MEMB     92       PMPE     H11B     HAL2     0.900000E-01   1.00800           0   0.00000     -0.301140E-02
     11365 MEMB     92       PMPE     P        PL        1.50000       30.9740           0   0.00000     -0.301140E-02
     11366 MEMB     92       PMPE     O13      O2L     -0.780000       15.9994           0   0.00000     -0.301140E-02
     11367 MEMB     92       PMPE     O14      O2L     -0.780000       15.9994           0   0.00000     -0.301140E-02
     11368 MEMB     92       PMPE     O11      OSLP    -0.570000       15.9994           0   0.00000     -0.301140E-02
     11369 MEMB     92       PMPE     O12      OSLP    -0.570000       15.9994           0   0.00000     -0.301140E-02
     11370 MEMB     92       PMPE     C1       CTL2    -0.800000E-01   12.0110           0   0.00000     -0.301140E-02
     11371 MEMB     92       PMPE     HA       HAL2     0.900000E-01   1.00800           0   0.00000     -0.301140E-02
     11372 MEMB     92       PMPE     HB       HAL2     0.900000E-01   1.00800           0   0.00000     -0.301140E-02
     11373 MEMB     92       PMPE     C2       CTL1     0.170000       12.0110           0   0.00000     -0.301140E-02
     11374 MEMB     92       PMPE     HS       HAL1     0.900000E-01   1.00800           0   0.00000     -0.301140E-02
     11375 MEMB     92       PMPE     O21      OSL     -0.490000       15.9994           0   0.00000     -0.301140E-02
     11376 MEMB     92       PMPE     C21      CL       0.900000       12.0110           0   0.00000     -0.301140E-02
     11377 MEMB     92       PMPE     O22      OBL     -0.630000       15.9994           0   0.00000     -0.301140E-02
     11378 MEMB     92       PMPE     C22      CTL2    -0.220000       12.0110           0   0.00000     -0.301140E-02
     11379 MEMB     92       PMPE     H2R      HAL2     0.900000E-01   1.00800           0   0.00000     -0.301140E-02
     11380 MEMB     92       PMPE     H2S      HAL2     0.900000E-01   1.00800           0   0.00000     -0.301140E-02
     11381 MEMB     92       PMPE     C3       CTL2     0.800000E-01   12.0110           0   0.00000     -0.301140E-02
     11382 MEMB     92       PMPE     HX       HAL2     0.900000E-01   1.00800           0   0.00000     -0.301140E-02
     11383 MEMB     92       PMPE     HY       HAL2     0.900000E-01   1.00800           0   0.00000     -0.301140E-02
     11384 MEMB     92       PMPE     O31      OSL     -0.490000       15.9994           0   0.00000     -0.301140E-02
     11385 MEMB     92       PMPE     C31      CL       0.900000       12.0110           0   0.00000     -0.301140E-02
     11386 MEMB     92       PMPE     O32      OBL     -0.630000       15.9994           0   0.00000     -0.301140E-02
     11387 MEMB     92       PMPE     C32      CTL2    -0.220000       12.0110           0   0.00000     -0.301140E-02
     11388 MEMB     92       PMPE     H2X      HAL2     0.900000E-01   1.00800           0   0.00000     -0.301140E-02
     11389 MEMB     92       PMPE     H2Y      HAL2     0.900000E-01   1.00800           0   0.00000     -0.301140E-02
     11390 MEMB     92       PMPE     C23      CTL2    -0.180000       12.0110           0   0.00000     -0.301140E-02
     11391 MEMB     92       PMPE     H3R      HAL2     0.900000E-01   1.00800           0   0.00000     -0.301140E-02
     11392 MEMB     92       PMPE     H3S      HAL2     0.900000E-01   1.00800           0   0.00000     -0.301140E-02
     11393 MEMB     92       PMPE     C24      CTL2    -0.180000       12.0110           0   0.00000     -0.301140E-02
     11394 MEMB     92       PMPE     H4R      HAL2     0.900000E-01   1.00800           0   0.00000     -0.301140E-02
     11395 MEMB     92       PMPE     H4S      HAL2     0.900000E-01   1.00800           0   0.00000     -0.301140E-02
     11396 MEMB     92       PMPE     C25      CTL2    -0.180000       12.0110           0   0.00000     -0.301140E-02
     11397 MEMB     92       PMPE     H5R      HAL2     0.900000E-01   1.00800           0   0.00000     -0.301140E-02
     11398 MEMB     92       PMPE     H5S      HAL2     0.900000E-01   1.00800           0   0.00000     -0.301140E-02
     11399 MEMB     92       PMPE     C26      CTL2    -0.180000       12.0110           0   0.00000     -0.301140E-02
     11400 MEMB     92       PMPE     H6R      HAL2     0.900000E-01   1.00800           0   0.00000     -0.301140E-02
     11401 MEMB     92       PMPE     H6S      HAL2     0.900000E-01   1.00800           0   0.00000     -0.301140E-02
     11402 MEMB     92       PMPE     C27      CTL2    -0.180000       12.0110           0   0.00000     -0.301140E-02
     11403 MEMB     92       PMPE     H7R      HAL2     0.900000E-01   1.00800           0   0.00000     -0.301140E-02
     11404 MEMB     92       PMPE     H7S      HAL2     0.900000E-01   1.00800           0   0.00000     -0.301140E-02
     11405 MEMB     92       PMPE     C28      CTL2    -0.180000       12.0110           0   0.00000     -0.301140E-02
     11406 MEMB     92       PMPE     H8R      HAL2     0.900000E-01   1.00800           0   0.00000     -0.301140E-02
     11407 MEMB     92       PMPE     H8S      HAL2     0.900000E-01   1.00800           0   0.00000     -0.301140E-02
     11408 MEMB     92       PMPE     C29      CG3RC1  -0.900000E-01   12.0110           0   0.00000     -0.301140E-02
     11409 MEMB     92       PMPE     H9R      HGA1     0.900000E-01   1.00800           0   0.00000     -0.301140E-02
     11410 MEMB     92       PMPE     C217     CG3C31  -0.180000       12.0110           0   0.00000     -0.301140E-02
     11411 MEMB     92       PMPE     H17R     HGA2     0.900000E-01   1.00800           0   0.00000     -0.301140E-02
     11412 MEMB     92       PMPE     H17S     HGA2     0.900000E-01   1.00800           0   0.00000     -0.301140E-02
     11413 MEMB     92       PMPE     C210     CG3RC1  -0.900000E-01   12.0110           0   0.00000     -0.301140E-02
     11414 MEMB     92       PMPE     H10R     HGA1     0.900000E-01   1.00800           0   0.00000     -0.301140E-02
     11415 MEMB     92       PMPE     C211     CTL2    -0.180000       12.0110           0   0.00000     -0.301140E-02
     11416 MEMB     92       PMPE     H11R     HAL2     0.900000E-01   1.00800           0   0.00000     -0.301140E-02
     11417 MEMB     92       PMPE     H11S     HAL2     0.900000E-01   1.00800           0   0.00000     -0.301140E-02
     11418 MEMB     92       PMPE     C212     CTL2    -0.180000       12.0110           0   0.00000     -0.301140E-02
     11419 MEMB     92       PMPE     H12R     HAL2     0.900000E-01   1.00800           0   0.00000     -0.301140E-02
     11420 MEMB     92       PMPE     H12S     HAL2     0.900000E-01   1.00800           0   0.00000     -0.301140E-02
     11421 MEMB     92       PMPE     C213     CTL2    -0.180000       12.0110           0   0.00000     -0.301140E-02
     11422 MEMB     92       PMPE     H13R     HAL2     0.900000E-01   1.00800           0   0.00000     -0.301140E-02
     11423 MEMB     92       PMPE     H13S     HAL2     0.900000E-01   1.00800           0   0.00000     -0.301140E-02
     11424 MEMB     92       PMPE     C214     CTL2    -0.180000       12.0110           0   0.00000     -0.301140E-02
     11425 MEMB     92       PMPE     H14R     HAL2     0.900000E-01   1.00800           0   0.00000     -0.301140E-02
     11426 MEMB     92       PMPE     H14S     HAL2     0.900000E-01   1.00800           0   0.00000     -0.301140E-02
     11427 MEMB     92       PMPE     C215     CTL2    -0.180000       12.0110           0   0.00000     -0.301140E-02
     11428 MEMB     92       PMPE     H15R     HAL2     0.900000E-01   1.00800           0   0.00000     -0.301140E-02
     11429 MEMB     92       PMPE     H15S     HAL2     0.900000E-01   1.00800           0   0.00000     -0.301140E-02
     11430 MEMB     92       PMPE     C216     CTL3    -0.270000       12.0110           0   0.00000     -0.301140E-02
     11431 MEMB     92       PMPE     H16R     HAL3     0.900000E-01   1.00800           0   0.00000     -0.301140E-02
     11432 MEMB     92       PMPE     H16S     HAL3     0.900000E-01   1.00800           0   0.00000     -0.301140E-02
     11433 MEMB     92       PMPE     H16T     HAL3     0.900000E-01   1.00800           0   0.00000     -0.301140E-02
     11434 MEMB     92       PMPE     C33      CTL2    -0.180000       12.0110           0   0.00000     -0.301140E-02
     11435 MEMB     92       PMPE     H3X      HAL2     0.900000E-01   1.00800           0   0.00000     -0.301140E-02
     11436 MEMB     92       PMPE     H3Y      HAL2     0.900000E-01   1.00800           0   0.00000     -0.301140E-02
     11437 MEMB     92       PMPE     C34      CTL2    -0.180000       12.0110           0   0.00000     -0.301140E-02
     11438 MEMB     92       PMPE     H4X      HAL2     0.900000E-01   1.00800           0   0.00000     -0.301140E-02
     11439 MEMB     92       PMPE     H4Y      HAL2     0.900000E-01   1.00800           0   0.00000     -0.301140E-02
     11440 MEMB     92       PMPE     C35      CTL2    -0.180000       12.0110           0   0.00000     -0.301140E-02
     11441 MEMB     92       PMPE     H5X      HAL2     0.900000E-01   1.00800           0   0.00000     -0.301140E-02
     11442 MEMB     92       PMPE     H5Y      HAL2     0.900000E-01   1.00800           0   0.00000     -0.301140E-02
     11443 MEMB     92       PMPE     C36      CTL2    -0.180000       12.0110           0   0.00000     -0.301140E-02
     11444 MEMB     92       PMPE     H6X      HAL2     0.900000E-01   1.00800           0   0.00000     -0.301140E-02
     11445 MEMB     92       PMPE     H6Y      HAL2     0.900000E-01   1.00800           0   0.00000     -0.301140E-02
     11446 MEMB     92       PMPE     C37      CTL2    -0.180000       12.0110           0   0.00000     -0.301140E-02
     11447 MEMB     92       PMPE     H7X      HAL2     0.900000E-01   1.00800           0   0.00000     -0.301140E-02
     11448 MEMB     92       PMPE     H7Y      HAL2     0.900000E-01   1.00800           0   0.00000     -0.301140E-02
     11449 MEMB     92       PMPE     C38      CTL2    -0.180000       12.0110           0   0.00000     -0.301140E-02
     11450 MEMB     92       PMPE     H8X      HAL2     0.900000E-01   1.00800           0   0.00000     -0.301140E-02
     11451 MEMB     92       PMPE     H8Y      HAL2     0.900000E-01   1.00800           0   0.00000     -0.301140E-02
     11452 MEMB     92       PMPE     C39      CTL2    -0.180000       12.0110           0   0.00000     -0.301140E-02
     11453 MEMB     92       PMPE     H9X      HAL2     0.900000E-01   1.00800           0   0.00000     -0.301140E-02
     11454 MEMB     92       PMPE     H9Y      HAL2     0.900000E-01   1.00800           0   0.00000     -0.301140E-02
     11455 MEMB     92       PMPE     C310     CTL2    -0.180000       12.0110           0   0.00000     -0.301140E-02
     11456 MEMB     92       PMPE     H10X     HAL2     0.900000E-01   1.00800           0   0.00000     -0.301140E-02
     11457 MEMB     92       PMPE     H10Y     HAL2     0.900000E-01   1.00800           0   0.00000     -0.301140E-02
     11458 MEMB     92       PMPE     C311     CTL2    -0.180000       12.0110           0   0.00000     -0.301140E-02
     11459 MEMB     92       PMPE     H11X     HAL2     0.900000E-01   1.00800           0   0.00000     -0.301140E-02
     11460 MEMB     92       PMPE     H11Y     HAL2     0.900000E-01   1.00800           0   0.00000     -0.301140E-02
     11461 MEMB     92       PMPE     C312     CTL2    -0.180000       12.0110           0   0.00000     -0.301140E-02
     11462 MEMB     92       PMPE     H12X     HAL2     0.900000E-01   1.00800           0   0.00000     -0.301140E-02
     11463 MEMB     92       PMPE     H12Y     HAL2     0.900000E-01   1.00800           0   0.00000     -0.301140E-02
     11464 MEMB     92       PMPE     C313     CTL2    -0.180000       12.0110           0   0.00000     -0.301140E-02
     11465 MEMB     92       PMPE     H13X     HAL2     0.900000E-01   1.00800           0   0.00000     -0.301140E-02
     11466 MEMB     92       PMPE     H13Y     HAL2     0.900000E-01   1.00800           0   0.00000     -0.301140E-02
     11467 MEMB     92       PMPE     C314     CTL2    -0.180000       12.0110           0   0.00000     -0.301140E-02
     11468 MEMB     92       PMPE     H14X     HAL2     0.900000E-01   1.00800           0   0.00000     -0.301140E-02
     11469 MEMB     92       PMPE     H14Y     HAL2     0.900000E-01   1.00800           0   0.00000     -0.301140E-02
     11470 MEMB     92       PMPE     C315     CTL2    -0.180000       12.0110           0   0.00000     -0.301140E-02
     11471 MEMB     92       PMPE     H15X     HAL2     0.900000E-01   1.00800           0   0.00000     -0.301140E-02
     11472 MEMB     92       PMPE     H15Y     HAL2     0.900000E-01   1.00800           0   0.00000     -0.301140E-02
     11473 MEMB     92       PMPE     C316     CTL3    -0.270000       12.0110           0   0.00000     -0.301140E-02
     11474 MEMB     92       PMPE     H16X     HAL3     0.900000E-01   1.00800           0   0.00000     -0.301140E-02
     11475 MEMB     92       PMPE     H16Y     HAL3     0.900000E-01   1.00800           0   0.00000     -0.301140E-02
     11476 MEMB     92       PMPE     H16Z     HAL3     0.900000E-01   1.00800           0   0.00000     -0.301140E-02
     11477 MEMB     93       PMPE     N        NH3L    -0.300000       14.0070           0   0.00000     -0.301140E-02
     11478 MEMB     93       PMPE     HN1      HCL      0.330000       1.00800           0   0.00000     -0.301140E-02
     11479 MEMB     93       PMPE     HN2      HCL      0.330000       1.00800           0   0.00000     -0.301140E-02
     11480 MEMB     93       PMPE     HN3      HCL      0.330000       1.00800           0   0.00000     -0.301140E-02
     11481 MEMB     93       PMPE     C12      CTL2     0.130000       12.0110           0   0.00000     -0.301140E-02
     11482 MEMB     93       PMPE     H12A     HAL2     0.900000E-01   1.00800           0   0.00000     -0.301140E-02
     11483 MEMB     93       PMPE     H12B     HAL2     0.900000E-01   1.00800           0   0.00000     -0.301140E-02
     11484 MEMB     93       PMPE     C11      CTL2    -0.800000E-01   12.0110           0   0.00000     -0.301140E-02
     11485 MEMB     93       PMPE     H11A     HAL2     0.900000E-01   1.00800           0   0.00000     -0.301140E-02
     11486 MEMB     93       PMPE     H11B     HAL2     0.900000E-01   1.00800           0   0.00000     -0.301140E-02
     11487 MEMB     93       PMPE     P        PL        1.50000       30.9740           0   0.00000     -0.301140E-02
     11488 MEMB     93       PMPE     O13      O2L     -0.780000       15.9994           0   0.00000     -0.301140E-02
     11489 MEMB     93       PMPE     O14      O2L     -0.780000       15.9994           0   0.00000     -0.301140E-02
     11490 MEMB     93       PMPE     O11      OSLP    -0.570000       15.9994           0   0.00000     -0.301140E-02
     11491 MEMB     93       PMPE     O12      OSLP    -0.570000       15.9994           0   0.00000     -0.301140E-02
     11492 MEMB     93       PMPE     C1       CTL2    -0.800000E-01   12.0110           0   0.00000     -0.301140E-02
     11493 MEMB     93       PMPE     HA       HAL2     0.900000E-01   1.00800           0   0.00000     -0.301140E-02
     11494 MEMB     93       PMPE     HB       HAL2     0.900000E-01   1.00800           0   0.00000     -0.301140E-02
     11495 MEMB     93       PMPE     C2       CTL1     0.170000       12.0110           0   0.00000     -0.301140E-02
     11496 MEMB     93       PMPE     HS       HAL1     0.900000E-01   1.00800           0   0.00000     -0.301140E-02
     11497 MEMB     93       PMPE     O21      OSL     -0.490000       15.9994           0   0.00000     -0.301140E-02
     11498 MEMB     93       PMPE     C21      CL       0.900000       12.0110           0   0.00000     -0.301140E-02
     11499 MEMB     93       PMPE     O22      OBL     -0.630000       15.9994           0   0.00000     -0.301140E-02
     11500 MEMB     93       PMPE     C22      CTL2    -0.220000       12.0110           0   0.00000     -0.301140E-02
     11501 MEMB     93       PMPE     H2R      HAL2     0.900000E-01   1.00800           0   0.00000     -0.301140E-02
     11502 MEMB     93       PMPE     H2S      HAL2     0.900000E-01   1.00800           0   0.00000     -0.301140E-02
     11503 MEMB     93       PMPE     C3       CTL2     0.800000E-01   12.0110           0   0.00000     -0.301140E-02
     11504 MEMB     93       PMPE     HX       HAL2     0.900000E-01   1.00800           0   0.00000     -0.301140E-02
     11505 MEMB     93       PMPE     HY       HAL2     0.900000E-01   1.00800           0   0.00000     -0.301140E-02
     11506 MEMB     93       PMPE     O31      OSL     -0.490000       15.9994           0   0.00000     -0.301140E-02
     11507 MEMB     93       PMPE     C31      CL       0.900000       12.0110           0   0.00000     -0.301140E-02
     11508 MEMB     93       PMPE     O32      OBL     -0.630000       15.9994           0   0.00000     -0.301140E-02
     11509 MEMB     93       PMPE     C32      CTL2    -0.220000       12.0110           0   0.00000     -0.301140E-02
     11510 MEMB     93       PMPE     H2X      HAL2     0.900000E-01   1.00800           0   0.00000     -0.301140E-02
     11511 MEMB     93       PMPE     H2Y      HAL2     0.900000E-01   1.00800           0   0.00000     -0.301140E-02
     11512 MEMB     93       PMPE     C23      CTL2    -0.180000       12.0110           0   0.00000     -0.301140E-02
     11513 MEMB     93       PMPE     H3R      HAL2     0.900000E-01   1.00800           0   0.00000     -0.301140E-02
     11514 MEMB     93       PMPE     H3S      HAL2     0.900000E-01   1.00800           0   0.00000     -0.301140E-02
     11515 MEMB     93       PMPE     C24      CTL2    -0.180000       12.0110           0   0.00000     -0.301140E-02
     11516 MEMB     93       PMPE     H4R      HAL2     0.900000E-01   1.00800           0   0.00000     -0.301140E-02
     11517 MEMB     93       PMPE     H4S      HAL2     0.900000E-01   1.00800           0   0.00000     -0.301140E-02
     11518 MEMB     93       PMPE     C25      CTL2    -0.180000       12.0110           0   0.00000     -0.301140E-02
     11519 MEMB     93       PMPE     H5R      HAL2     0.900000E-01   1.00800           0   0.00000     -0.301140E-02
     11520 MEMB     93       PMPE     H5S      HAL2     0.900000E-01   1.00800           0   0.00000     -0.301140E-02
     11521 MEMB     93       PMPE     C26      CTL2    -0.180000       12.0110           0   0.00000     -0.301140E-02
     11522 MEMB     93       PMPE     H6R      HAL2     0.900000E-01   1.00800           0   0.00000     -0.301140E-02
     11523 MEMB     93       PMPE     H6S      HAL2     0.900000E-01   1.00800           0   0.00000     -0.301140E-02
     11524 MEMB     93       PMPE     C27      CTL2    -0.180000       12.0110           0   0.00000     -0.301140E-02
     11525 MEMB     93       PMPE     H7R      HAL2     0.900000E-01   1.00800           0   0.00000     -0.301140E-02
     11526 MEMB     93       PMPE     H7S      HAL2     0.900000E-01   1.00800           0   0.00000     -0.301140E-02
     11527 MEMB     93       PMPE     C28      CTL2    -0.180000       12.0110           0   0.00000     -0.301140E-02
     11528 MEMB     93       PMPE     H8R      HAL2     0.900000E-01   1.00800           0   0.00000     -0.301140E-02
     11529 MEMB     93       PMPE     H8S      HAL2     0.900000E-01   1.00800           0   0.00000     -0.301140E-02
     11530 MEMB     93       PMPE     C29      CG3RC1  -0.900000E-01   12.0110           0   0.00000     -0.301140E-02
     11531 MEMB     93       PMPE     H9R      HGA1     0.900000E-01   1.00800           0   0.00000     -0.301140E-02
     11532 MEMB     93       PMPE     C217     CG3C31  -0.180000       12.0110           0   0.00000     -0.301140E-02
     11533 MEMB     93       PMPE     H17R     HGA2     0.900000E-01   1.00800           0   0.00000     -0.301140E-02
     11534 MEMB     93       PMPE     H17S     HGA2     0.900000E-01   1.00800           0   0.00000     -0.301140E-02
     11535 MEMB     93       PMPE     C210     CG3RC1  -0.900000E-01   12.0110           0   0.00000     -0.301140E-02
     11536 MEMB     93       PMPE     H10R     HGA1     0.900000E-01   1.00800           0   0.00000     -0.301140E-02
     11537 MEMB     93       PMPE     C211     CTL2    -0.180000       12.0110           0   0.00000     -0.301140E-02
     11538 MEMB     93       PMPE     H11R     HAL2     0.900000E-01   1.00800           0   0.00000     -0.301140E-02
     11539 MEMB     93       PMPE     H11S     HAL2     0.900000E-01   1.00800           0   0.00000     -0.301140E-02
     11540 MEMB     93       PMPE     C212     CTL2    -0.180000       12.0110           0   0.00000     -0.301140E-02
     11541 MEMB     93       PMPE     H12R     HAL2     0.900000E-01   1.00800           0   0.00000     -0.301140E-02
     11542 MEMB     93       PMPE     H12S     HAL2     0.900000E-01   1.00800           0   0.00000     -0.301140E-02
     11543 MEMB     93       PMPE     C213     CTL2    -0.180000       12.0110           0   0.00000     -0.301140E-02
     11544 MEMB     93       PMPE     H13R     HAL2     0.900000E-01   1.00800           0   0.00000     -0.301140E-02
     11545 MEMB     93       PMPE     H13S     HAL2     0.900000E-01   1.00800           0   0.00000     -0.301140E-02
     11546 MEMB     93       PMPE     C214     CTL2    -0.180000       12.0110           0   0.00000     -0.301140E-02
     11547 MEMB     93       PMPE     H14R     HAL2     0.900000E-01   1.00800           0   0.00000     -0.301140E-02
     11548 MEMB     93       PMPE     H14S     HAL2     0.900000E-01   1.00800           0   0.00000     -0.301140E-02
     11549 MEMB     93       PMPE     C215     CTL2    -0.180000       12.0110           0   0.00000     -0.301140E-02
     11550 MEMB     93       PMPE     H15R     HAL2     0.900000E-01   1.00800           0   0.00000     -0.301140E-02
     11551 MEMB     93       PMPE     H15S     HAL2     0.900000E-01   1.00800           0   0.00000     -0.301140E-02
     11552 MEMB     93       PMPE     C216     CTL3    -0.270000       12.0110           0   0.00000     -0.301140E-02
     11553 MEMB     93       PMPE     H16R     HAL3     0.900000E-01   1.00800           0   0.00000     -0.301140E-02
     11554 MEMB     93       PMPE     H16S     HAL3     0.900000E-01   1.00800           0   0.00000     -0.301140E-02
     11555 MEMB     93       PMPE     H16T     HAL3     0.900000E-01   1.00800           0   0.00000     -0.301140E-02
     11556 MEMB     93       PMPE     C33      CTL2    -0.180000       12.0110           0   0.00000     -0.301140E-02
     11557 MEMB     93       PMPE     H3X      HAL2     0.900000E-01   1.00800           0   0.00000     -0.301140E-02
     11558 MEMB     93       PMPE     H3Y      HAL2     0.900000E-01   1.00800           0   0.00000     -0.301140E-02
     11559 MEMB     93       PMPE     C34      CTL2    -0.180000       12.0110           0   0.00000     -0.301140E-02
     11560 MEMB     93       PMPE     H4X      HAL2     0.900000E-01   1.00800           0   0.00000     -0.301140E-02
     11561 MEMB     93       PMPE     H4Y      HAL2     0.900000E-01   1.00800           0   0.00000     -0.301140E-02
     11562 MEMB     93       PMPE     C35      CTL2    -0.180000       12.0110           0   0.00000     -0.301140E-02
     11563 MEMB     93       PMPE     H5X      HAL2     0.900000E-01   1.00800           0   0.00000     -0.301140E-02
     11564 MEMB     93       PMPE     H5Y      HAL2     0.900000E-01   1.00800           0   0.00000     -0.301140E-02
     11565 MEMB     93       PMPE     C36      CTL2    -0.180000       12.0110           0   0.00000     -0.301140E-02
     11566 MEMB     93       PMPE     H6X      HAL2     0.900000E-01   1.00800           0   0.00000     -0.301140E-02
     11567 MEMB     93       PMPE     H6Y      HAL2     0.900000E-01   1.00800           0   0.00000     -0.301140E-02
     11568 MEMB     93       PMPE     C37      CTL2    -0.180000       12.0110           0   0.00000     -0.301140E-02
     11569 MEMB     93       PMPE     H7X      HAL2     0.900000E-01   1.00800           0   0.00000     -0.301140E-02
     11570 MEMB     93       PMPE     H7Y      HAL2     0.900000E-01   1.00800           0   0.00000     -0.301140E-02
     11571 MEMB     93       PMPE     C38      CTL2    -0.180000       12.0110           0   0.00000     -0.301140E-02
     11572 MEMB     93       PMPE     H8X      HAL2     0.900000E-01   1.00800           0   0.00000     -0.301140E-02
     11573 MEMB     93       PMPE     H8Y      HAL2     0.900000E-01   1.00800           0   0.00000     -0.301140E-02
     11574 MEMB     93       PMPE     C39      CTL2    -0.180000       12.0110           0   0.00000     -0.301140E-02
     11575 MEMB     93       PMPE     H9X      HAL2     0.900000E-01   1.00800           0   0.00000     -0.301140E-02
     11576 MEMB     93       PMPE     H9Y      HAL2     0.900000E-01   1.00800           0   0.00000     -0.301140E-02
     11577 MEMB     93       PMPE     C310     CTL2    -0.180000       12.0110           0   0.00000     -0.301140E-02
     11578 MEMB     93       PMPE     H10X     HAL2     0.900000E-01   1.00800           0   0.00000     -0.301140E-02
     11579 MEMB     93       PMPE     H10Y     HAL2     0.900000E-01   1.00800           0   0.00000     -0.301140E-02
     11580 MEMB     93       PMPE     C311     CTL2    -0.180000       12.0110           0   0.00000     -0.301140E-02
     11581 MEMB     93       PMPE     H11X     HAL2     0.900000E-01   1.00800           0   0.00000     -0.301140E-02
     11582 MEMB     93       PMPE     H11Y     HAL2     0.900000E-01   1.00800           0   0.00000     -0.301140E-02
     11583 MEMB     93       PMPE     C312     CTL2    -0.180000       12.0110           0   0.00000     -0.301140E-02
     11584 MEMB     93       PMPE     H12X     HAL2     0.900000E-01   1.00800           0   0.00000     -0.301140E-02
     11585 MEMB     93       PMPE     H12Y     HAL2     0.900000E-01   1.00800           0   0.00000     -0.301140E-02
     11586 MEMB     93       PMPE     C313     CTL2    -0.180000       12.0110           0   0.00000     -0.301140E-02
     11587 MEMB     93       PMPE     H13X     HAL2     0.900000E-01   1.00800           0   0.00000     -0.301140E-02
     11588 MEMB     93       PMPE     H13Y     HAL2     0.900000E-01   1.00800           0   0.00000     -0.301140E-02
     11589 MEMB     93       PMPE     C314     CTL2    -0.180000       12.0110           0   0.00000     -0.301140E-02
     11590 MEMB     93       PMPE     H14X     HAL2     0.900000E-01   1.00800           0   0.00000     -0.301140E-02
     11591 MEMB     93       PMPE     H14Y     HAL2     0.900000E-01   1.00800           0   0.00000     -0.301140E-02
     11592 MEMB     93       PMPE     C315     CTL2    -0.180000       12.0110           0   0.00000     -0.301140E-02
     11593 MEMB     93       PMPE     H15X     HAL2     0.900000E-01   1.00800           0   0.00000     -0.301140E-02
     11594 MEMB     93       PMPE     H15Y     HAL2     0.900000E-01   1.00800           0   0.00000     -0.301140E-02
     11595 MEMB     93       PMPE     C316     CTL3    -0.270000       12.0110           0   0.00000     -0.301140E-02
     11596 MEMB     93       PMPE     H16X     HAL3     0.900000E-01   1.00800           0   0.00000     -0.301140E-02
     11597 MEMB     93       PMPE     H16Y     HAL3     0.900000E-01   1.00800           0   0.00000     -0.301140E-02
     11598 MEMB     93       PMPE     H16Z     HAL3     0.900000E-01   1.00800           0   0.00000     -0.301140E-02
     11599 MEMB     94       POPE     N        NH3L    -0.300000       14.0070           0   0.00000     -0.301140E-02
     11600 MEMB     94       POPE     HN1      HCL      0.330000       1.00800           0   0.00000     -0.301140E-02
     11601 MEMB     94       POPE     HN2      HCL      0.330000       1.00800           0   0.00000     -0.301140E-02
     11602 MEMB     94       POPE     HN3      HCL      0.330000       1.00800           0   0.00000     -0.301140E-02
     11603 MEMB     94       POPE     C12      CTL2     0.130000       12.0110           0   0.00000     -0.301140E-02
     11604 MEMB     94       POPE     H12A     HAL2     0.900000E-01   1.00800           0   0.00000     -0.301140E-02
     11605 MEMB     94       POPE     H12B     HAL2     0.900000E-01   1.00800           0   0.00000     -0.301140E-02
     11606 MEMB     94       POPE     C11      CTL2    -0.800000E-01   12.0110           0   0.00000     -0.301140E-02
     11607 MEMB     94       POPE     H11A     HAL2     0.900000E-01   1.00800           0   0.00000     -0.301140E-02
     11608 MEMB     94       POPE     H11B     HAL2     0.900000E-01   1.00800           0   0.00000     -0.301140E-02
     11609 MEMB     94       POPE     P        PL        1.50000       30.9740           0   0.00000     -0.301140E-02
     11610 MEMB     94       POPE     O13      O2L     -0.780000       15.9994           0   0.00000     -0.301140E-02
     11611 MEMB     94       POPE     O14      O2L     -0.780000       15.9994           0   0.00000     -0.301140E-02
     11612 MEMB     94       POPE     O11      OSLP    -0.570000       15.9994           0   0.00000     -0.301140E-02
     11613 MEMB     94       POPE     O12      OSLP    -0.570000       15.9994           0   0.00000     -0.301140E-02
     11614 MEMB     94       POPE     C1       CTL2    -0.800000E-01   12.0110           0   0.00000     -0.301140E-02
     11615 MEMB     94       POPE     HA       HAL2     0.900000E-01   1.00800           0   0.00000     -0.301140E-02
     11616 MEMB     94       POPE     HB       HAL2     0.900000E-01   1.00800           0   0.00000     -0.301140E-02
     11617 MEMB     94       POPE     C2       CTL1     0.170000       12.0110           0   0.00000     -0.301140E-02
     11618 MEMB     94       POPE     HS       HAL1     0.900000E-01   1.00800           0   0.00000     -0.301140E-02
     11619 MEMB     94       POPE     O21      OSL     -0.490000       15.9994           0   0.00000     -0.301140E-02
     11620 MEMB     94       POPE     C21      CL       0.900000       12.0110           0   0.00000     -0.301140E-02
     11621 MEMB     94       POPE     O22      OBL     -0.630000       15.9994           0   0.00000     -0.301140E-02
     11622 MEMB     94       POPE     C22      CTL2    -0.220000       12.0110           0   0.00000     -0.301140E-02
     11623 MEMB     94       POPE     H2R      HAL2     0.900000E-01   1.00800           0   0.00000     -0.301140E-02
     11624 MEMB     94       POPE     H2S      HAL2     0.900000E-01   1.00800           0   0.00000     -0.301140E-02
     11625 MEMB     94       POPE     C3       CTL2     0.800000E-01   12.0110           0   0.00000     -0.301140E-02
     11626 MEMB     94       POPE     HX       HAL2     0.900000E-01   1.00800           0   0.00000     -0.301140E-02
     11627 MEMB     94       POPE     HY       HAL2     0.900000E-01   1.00800           0   0.00000     -0.301140E-02
     11628 MEMB     94       POPE     O31      OSL     -0.490000       15.9994           0   0.00000     -0.301140E-02
     11629 MEMB     94       POPE     C31      CL       0.900000       12.0110           0   0.00000     -0.301140E-02
     11630 MEMB     94       POPE     O32      OBL     -0.630000       15.9994           0   0.00000     -0.301140E-02
     11631 MEMB     94       POPE     C32      CTL2    -0.220000       12.0110           0   0.00000     -0.301140E-02
     11632 MEMB     94       POPE     H2X      HAL2     0.900000E-01   1.00800           0   0.00000     -0.301140E-02
     11633 MEMB     94       POPE     H2Y      HAL2     0.900000E-01   1.00800           0   0.00000     -0.301140E-02
     11634 MEMB     94       POPE     C23      CTL2    -0.180000       12.0110           0   0.00000     -0.301140E-02
     11635 MEMB     94       POPE     H3R      HAL2     0.900000E-01   1.00800           0   0.00000     -0.301140E-02
     11636 MEMB     94       POPE     H3S      HAL2     0.900000E-01   1.00800           0   0.00000     -0.301140E-02
     11637 MEMB     94       POPE     C24      CTL2    -0.180000       12.0110           0   0.00000     -0.301140E-02
     11638 MEMB     94       POPE     H4R      HAL2     0.900000E-01   1.00800           0   0.00000     -0.301140E-02
     11639 MEMB     94       POPE     H4S      HAL2     0.900000E-01   1.00800           0   0.00000     -0.301140E-02
     11640 MEMB     94       POPE     C25      CTL2    -0.180000       12.0110           0   0.00000     -0.301140E-02
     11641 MEMB     94       POPE     H5R      HAL2     0.900000E-01   1.00800           0   0.00000     -0.301140E-02
     11642 MEMB     94       POPE     H5S      HAL2     0.900000E-01   1.00800           0   0.00000     -0.301140E-02
     11643 MEMB     94       POPE     C26      CTL2    -0.180000       12.0110           0   0.00000     -0.301140E-02
     11644 MEMB     94       POPE     H6R      HAL2     0.900000E-01   1.00800           0   0.00000     -0.301140E-02
     11645 MEMB     94       POPE     H6S      HAL2     0.900000E-01   1.00800           0   0.00000     -0.301140E-02
     11646 MEMB     94       POPE     C27      CTL2    -0.180000       12.0110           0   0.00000     -0.301140E-02
     11647 MEMB     94       POPE     H7R      HAL2     0.900000E-01   1.00800           0   0.00000     -0.301140E-02
     11648 MEMB     94       POPE     H7S      HAL2     0.900000E-01   1.00800           0   0.00000     -0.301140E-02
     11649 MEMB     94       POPE     C28      CTL2    -0.180000       12.0110           0   0.00000     -0.301140E-02
     11650 MEMB     94       POPE     H8R      HAL2     0.900000E-01   1.00800           0   0.00000     -0.301140E-02
     11651 MEMB     94       POPE     H8S      HAL2     0.900000E-01   1.00800           0   0.00000     -0.301140E-02
     11652 MEMB     94       POPE     C29      CEL1    -0.150000       12.0110           0   0.00000     -0.301140E-02
     11653 MEMB     94       POPE     H91      HEL1     0.150000       1.00800           0   0.00000     -0.301140E-02
     11654 MEMB     94       POPE     C210     CEL1    -0.150000       12.0110           0   0.00000     -0.301140E-02
     11655 MEMB     94       POPE     H101     HEL1     0.150000       1.00800           0   0.00000     -0.301140E-02
     11656 MEMB     94       POPE     C211     CTL2    -0.180000       12.0110           0   0.00000     -0.301140E-02
     11657 MEMB     94       POPE     H11R     HAL2     0.900000E-01   1.00800           0   0.00000     -0.301140E-02
     11658 MEMB     94       POPE     H11S     HAL2     0.900000E-01   1.00800           0   0.00000     -0.301140E-02
     11659 MEMB     94       POPE     C212     CTL2    -0.180000       12.0110           0   0.00000     -0.301140E-02
     11660 MEMB     94       POPE     H12R     HAL2     0.900000E-01   1.00800           0   0.00000     -0.301140E-02
     11661 MEMB     94       POPE     H12S     HAL2     0.900000E-01   1.00800           0   0.00000     -0.301140E-02
     11662 MEMB     94       POPE     C213     CTL2    -0.180000       12.0110           0   0.00000     -0.301140E-02
     11663 MEMB     94       POPE     H13R     HAL2     0.900000E-01   1.00800           0   0.00000     -0.301140E-02
     11664 MEMB     94       POPE     H13S     HAL2     0.900000E-01   1.00800           0   0.00000     -0.301140E-02
     11665 MEMB     94       POPE     C214     CTL2    -0.180000       12.0110           0   0.00000     -0.301140E-02
     11666 MEMB     94       POPE     H14R     HAL2     0.900000E-01   1.00800           0   0.00000     -0.301140E-02
     11667 MEMB     94       POPE     H14S     HAL2     0.900000E-01   1.00800           0   0.00000     -0.301140E-02
     11668 MEMB     94       POPE     C215     CTL2    -0.180000       12.0110           0   0.00000     -0.301140E-02
     11669 MEMB     94       POPE     H15R     HAL2     0.900000E-01   1.00800           0   0.00000     -0.301140E-02
     11670 MEMB     94       POPE     H15S     HAL2     0.900000E-01   1.00800           0   0.00000     -0.301140E-02
     11671 MEMB     94       POPE     C216     CTL2    -0.180000       12.0110           0   0.00000     -0.301140E-02
     11672 MEMB     94       POPE     H16R     HAL2     0.900000E-01   1.00800           0   0.00000     -0.301140E-02
     11673 MEMB     94       POPE     H16S     HAL2     0.900000E-01   1.00800           0   0.00000     -0.301140E-02
     11674 MEMB     94       POPE     C217     CTL2    -0.180000       12.0110           0   0.00000     -0.301140E-02
     11675 MEMB     94       POPE     H17R     HAL2     0.900000E-01   1.00800           0   0.00000     -0.301140E-02
     11676 MEMB     94       POPE     H17S     HAL2     0.900000E-01   1.00800           0   0.00000     -0.301140E-02
     11677 MEMB     94       POPE     C218     CTL3    -0.270000       12.0110           0   0.00000     -0.301140E-02
     11678 MEMB     94       POPE     H18R     HAL3     0.900000E-01   1.00800           0   0.00000     -0.301140E-02
     11679 MEMB     94       POPE     H18S     HAL3     0.900000E-01   1.00800           0   0.00000     -0.301140E-02
     11680 MEMB     94       POPE     H18T     HAL3     0.900000E-01   1.00800           0   0.00000     -0.301140E-02
     11681 MEMB     94       POPE     C33      CTL2    -0.180000       12.0110           0   0.00000     -0.301140E-02
     11682 MEMB     94       POPE     H3X      HAL2     0.900000E-01   1.00800           0   0.00000     -0.301140E-02
     11683 MEMB     94       POPE     H3Y      HAL2     0.900000E-01   1.00800           0   0.00000     -0.301140E-02
     11684 MEMB     94       POPE     C34      CTL2    -0.180000       12.0110           0   0.00000     -0.301140E-02
     11685 MEMB     94       POPE     H4X      HAL2     0.900000E-01   1.00800           0   0.00000     -0.301140E-02
     11686 MEMB     94       POPE     H4Y      HAL2     0.900000E-01   1.00800           0   0.00000     -0.301140E-02
     11687 MEMB     94       POPE     C35      CTL2    -0.180000       12.0110           0   0.00000     -0.301140E-02
     11688 MEMB     94       POPE     H5X      HAL2     0.900000E-01   1.00800           0   0.00000     -0.301140E-02
     11689 MEMB     94       POPE     H5Y      HAL2     0.900000E-01   1.00800           0   0.00000     -0.301140E-02
     11690 MEMB     94       POPE     C36      CTL2    -0.180000       12.0110           0   0.00000     -0.301140E-02
     11691 MEMB     94       POPE     H6X      HAL2     0.900000E-01   1.00800           0   0.00000     -0.301140E-02
     11692 MEMB     94       POPE     H6Y      HAL2     0.900000E-01   1.00800           0   0.00000     -0.301140E-02
     11693 MEMB     94       POPE     C37      CTL2    -0.180000       12.0110           0   0.00000     -0.301140E-02
     11694 MEMB     94       POPE     H7X      HAL2     0.900000E-01   1.00800           0   0.00000     -0.301140E-02
     11695 MEMB     94       POPE     H7Y      HAL2     0.900000E-01   1.00800           0   0.00000     -0.301140E-02
     11696 MEMB     94       POPE     C38      CTL2    -0.180000       12.0110           0   0.00000     -0.301140E-02
     11697 MEMB     94       POPE     H8X      HAL2     0.900000E-01   1.00800           0   0.00000     -0.301140E-02
     11698 MEMB     94       POPE     H8Y      HAL2     0.900000E-01   1.00800           0   0.00000     -0.301140E-02
     11699 MEMB     94       POPE     C39      CTL2    -0.180000       12.0110           0   0.00000     -0.301140E-02
     11700 MEMB     94       POPE     H9X      HAL2     0.900000E-01   1.00800           0   0.00000     -0.301140E-02
     11701 MEMB     94       POPE     H9Y      HAL2     0.900000E-01   1.00800           0   0.00000     -0.301140E-02
     11702 MEMB     94       POPE     C310     CTL2    -0.180000       12.0110           0   0.00000     -0.301140E-02
     11703 MEMB     94       POPE     H10X     HAL2     0.900000E-01   1.00800           0   0.00000     -0.301140E-02
     11704 MEMB     94       POPE     H10Y     HAL2     0.900000E-01   1.00800           0   0.00000     -0.301140E-02
     11705 MEMB     94       POPE     C311     CTL2    -0.180000       12.0110           0   0.00000     -0.301140E-02
     11706 MEMB     94       POPE     H11X     HAL2     0.900000E-01   1.00800           0   0.00000     -0.301140E-02
     11707 MEMB     94       POPE     H11Y     HAL2     0.900000E-01   1.00800           0   0.00000     -0.301140E-02
     11708 MEMB     94       POPE     C312     CTL2    -0.180000       12.0110           0   0.00000     -0.301140E-02
     11709 MEMB     94       POPE     H12X     HAL2     0.900000E-01   1.00800           0   0.00000     -0.301140E-02
     11710 MEMB     94       POPE     H12Y     HAL2     0.900000E-01   1.00800           0   0.00000     -0.301140E-02
     11711 MEMB     94       POPE     C313     CTL2    -0.180000       12.0110           0   0.00000     -0.301140E-02
     11712 MEMB     94       POPE     H13X     HAL2     0.900000E-01   1.00800           0   0.00000     -0.301140E-02
     11713 MEMB     94       POPE     H13Y     HAL2     0.900000E-01   1.00800           0   0.00000     -0.301140E-02
     11714 MEMB     94       POPE     C314     CTL2    -0.180000       12.0110           0   0.00000     -0.301140E-02
     11715 MEMB     94       POPE     H14X     HAL2     0.900000E-01   1.00800           0   0.00000     -0.301140E-02
     11716 MEMB     94       POPE     H14Y     HAL2     0.900000E-01   1.00800           0   0.00000     -0.301140E-02
     11717 MEMB     94       POPE     C315     CTL2    -0.180000       12.0110           0   0.00000     -0.301140E-02
     11718 MEMB     94       POPE     H15X     HAL2     0.900000E-01   1.00800           0   0.00000     -0.301140E-02
     11719 MEMB     94       POPE     H15Y     HAL2     0.900000E-01   1.00800           0   0.00000     -0.301140E-02
     11720 MEMB     94       POPE     C316     CTL3    -0.270000       12.0110           0   0.00000     -0.301140E-02
     11721 MEMB     94       POPE     H16X     HAL3     0.900000E-01   1.00800           0   0.00000     -0.301140E-02
     11722 MEMB     94       POPE     H16Y     HAL3     0.900000E-01   1.00800           0   0.00000     -0.301140E-02
     11723 MEMB     94       POPE     H16Z     HAL3     0.900000E-01   1.00800           0   0.00000     -0.301140E-02
     11724 MEMB     95       PMPE     N        NH3L    -0.300000       14.0070           0   0.00000     -0.301140E-02
     11725 MEMB     95       PMPE     HN1      HCL      0.330000       1.00800           0   0.00000     -0.301140E-02
     11726 MEMB     95       PMPE     HN2      HCL      0.330000       1.00800           0   0.00000     -0.301140E-02
     11727 MEMB     95       PMPE     HN3      HCL      0.330000       1.00800           0   0.00000     -0.301140E-02
     11728 MEMB     95       PMPE     C12      CTL2     0.130000       12.0110           0   0.00000     -0.301140E-02
     11729 MEMB     95       PMPE     H12A     HAL2     0.900000E-01   1.00800           0   0.00000     -0.301140E-02
     11730 MEMB     95       PMPE     H12B     HAL2     0.900000E-01   1.00800           0   0.00000     -0.301140E-02
     11731 MEMB     95       PMPE     C11      CTL2    -0.800000E-01   12.0110           0   0.00000     -0.301140E-02
     11732 MEMB     95       PMPE     H11A     HAL2     0.900000E-01   1.00800           0   0.00000     -0.301140E-02
     11733 MEMB     95       PMPE     H11B     HAL2     0.900000E-01   1.00800           0   0.00000     -0.301140E-02
     11734 MEMB     95       PMPE     P        PL        1.50000       30.9740           0   0.00000     -0.301140E-02
     11735 MEMB     95       PMPE     O13      O2L     -0.780000       15.9994           0   0.00000     -0.301140E-02
     11736 MEMB     95       PMPE     O14      O2L     -0.780000       15.9994           0   0.00000     -0.301140E-02
     11737 MEMB     95       PMPE     O11      OSLP    -0.570000       15.9994           0   0.00000     -0.301140E-02
     11738 MEMB     95       PMPE     O12      OSLP    -0.570000       15.9994           0   0.00000     -0.301140E-02
     11739 MEMB     95       PMPE     C1       CTL2    -0.800000E-01   12.0110           0   0.00000     -0.301140E-02
     11740 MEMB     95       PMPE     HA       HAL2     0.900000E-01   1.00800           0   0.00000     -0.301140E-02
     11741 MEMB     95       PMPE     HB       HAL2     0.900000E-01   1.00800           0   0.00000     -0.301140E-02
     11742 MEMB     95       PMPE     C2       CTL1     0.170000       12.0110           0   0.00000     -0.301140E-02
     11743 MEMB     95       PMPE     HS       HAL1     0.900000E-01   1.00800           0   0.00000     -0.301140E-02
     11744 MEMB     95       PMPE     O21      OSL     -0.490000       15.9994           0   0.00000     -0.301140E-02
     11745 MEMB     95       PMPE     C21      CL       0.900000       12.0110           0   0.00000     -0.301140E-02
     11746 MEMB     95       PMPE     O22      OBL     -0.630000       15.9994           0   0.00000     -0.301140E-02
     11747 MEMB     95       PMPE     C22      CTL2    -0.220000       12.0110           0   0.00000     -0.301140E-02
     11748 MEMB     95       PMPE     H2R      HAL2     0.900000E-01   1.00800           0   0.00000     -0.301140E-02
     11749 MEMB     95       PMPE     H2S      HAL2     0.900000E-01   1.00800           0   0.00000     -0.301140E-02
     11750 MEMB     95       PMPE     C3       CTL2     0.800000E-01   12.0110           0   0.00000     -0.301140E-02
     11751 MEMB     95       PMPE     HX       HAL2     0.900000E-01   1.00800           0   0.00000     -0.301140E-02
     11752 MEMB     95       PMPE     HY       HAL2     0.900000E-01   1.00800           0   0.00000     -0.301140E-02
     11753 MEMB     95       PMPE     O31      OSL     -0.490000       15.9994           0   0.00000     -0.301140E-02
     11754 MEMB     95       PMPE     C31      CL       0.900000       12.0110           0   0.00000     -0.301140E-02
     11755 MEMB     95       PMPE     O32      OBL     -0.630000       15.9994           0   0.00000     -0.301140E-02
     11756 MEMB     95       PMPE     C32      CTL2    -0.220000       12.0110           0   0.00000     -0.301140E-02
     11757 MEMB     95       PMPE     H2X      HAL2     0.900000E-01   1.00800           0   0.00000     -0.301140E-02
     11758 MEMB     95       PMPE     H2Y      HAL2     0.900000E-01   1.00800           0   0.00000     -0.301140E-02
     11759 MEMB     95       PMPE     C23      CTL2    -0.180000       12.0110           0   0.00000     -0.301140E-02
     11760 MEMB     95       PMPE     H3R      HAL2     0.900000E-01   1.00800           0   0.00000     -0.301140E-02
     11761 MEMB     95       PMPE     H3S      HAL2     0.900000E-01   1.00800           0   0.00000     -0.301140E-02
     11762 MEMB     95       PMPE     C24      CTL2    -0.180000       12.0110           0   0.00000     -0.301140E-02
     11763 MEMB     95       PMPE     H4R      HAL2     0.900000E-01   1.00800           0   0.00000     -0.301140E-02
     11764 MEMB     95       PMPE     H4S      HAL2     0.900000E-01   1.00800           0   0.00000     -0.301140E-02
     11765 MEMB     95       PMPE     C25      CTL2    -0.180000       12.0110           0   0.00000     -0.301140E-02
     11766 MEMB     95       PMPE     H5R      HAL2     0.900000E-01   1.00800           0   0.00000     -0.301140E-02
     11767 MEMB     95       PMPE     H5S      HAL2     0.900000E-01   1.00800           0   0.00000     -0.301140E-02
     11768 MEMB     95       PMPE     C26      CTL2    -0.180000       12.0110           0   0.00000     -0.301140E-02
     11769 MEMB     95       PMPE     H6R      HAL2     0.900000E-01   1.00800           0   0.00000     -0.301140E-02
     11770 MEMB     95       PMPE     H6S      HAL2     0.900000E-01   1.00800           0   0.00000     -0.301140E-02
     11771 MEMB     95       PMPE     C27      CTL2    -0.180000       12.0110           0   0.00000     -0.301140E-02
     11772 MEMB     95       PMPE     H7R      HAL2     0.900000E-01   1.00800           0   0.00000     -0.301140E-02
     11773 MEMB     95       PMPE     H7S      HAL2     0.900000E-01   1.00800           0   0.00000     -0.301140E-02
     11774 MEMB     95       PMPE     C28      CTL2    -0.180000       12.0110           0   0.00000     -0.301140E-02
     11775 MEMB     95       PMPE     H8R      HAL2     0.900000E-01   1.00800           0   0.00000     -0.301140E-02
     11776 MEMB     95       PMPE     H8S      HAL2     0.900000E-01   1.00800           0   0.00000     -0.301140E-02
     11777 MEMB     95       PMPE     C29      CG3RC1  -0.900000E-01   12.0110           0   0.00000     -0.301140E-02
     11778 MEMB     95       PMPE     H9R      HGA1     0.900000E-01   1.00800           0   0.00000     -0.301140E-02
     11779 MEMB     95       PMPE     C217     CG3C31  -0.180000       12.0110           0   0.00000     -0.301140E-02
     11780 MEMB     95       PMPE     H17R     HGA2     0.900000E-01   1.00800           0   0.00000     -0.301140E-02
     11781 MEMB     95       PMPE     H17S     HGA2     0.900000E-01   1.00800           0   0.00000     -0.301140E-02
     11782 MEMB     95       PMPE     C210     CG3RC1  -0.900000E-01   12.0110           0   0.00000     -0.301140E-02
     11783 MEMB     95       PMPE     H10R     HGA1     0.900000E-01   1.00800           0   0.00000     -0.301140E-02
     11784 MEMB     95       PMPE     C211     CTL2    -0.180000       12.0110           0   0.00000     -0.301140E-02
     11785 MEMB     95       PMPE     H11R     HAL2     0.900000E-01   1.00800           0   0.00000     -0.301140E-02
     11786 MEMB     95       PMPE     H11S     HAL2     0.900000E-01   1.00800           0   0.00000     -0.301140E-02
     11787 MEMB     95       PMPE     C212     CTL2    -0.180000       12.0110           0   0.00000     -0.301140E-02
     11788 MEMB     95       PMPE     H12R     HAL2     0.900000E-01   1.00800           0   0.00000     -0.301140E-02
     11789 MEMB     95       PMPE     H12S     HAL2     0.900000E-01   1.00800           0   0.00000     -0.301140E-02
     11790 MEMB     95       PMPE     C213     CTL2    -0.180000       12.0110           0   0.00000     -0.301140E-02
     11791 MEMB     95       PMPE     H13R     HAL2     0.900000E-01   1.00800           0   0.00000     -0.301140E-02
     11792 MEMB     95       PMPE     H13S     HAL2     0.900000E-01   1.00800           0   0.00000     -0.301140E-02
     11793 MEMB     95       PMPE     C214     CTL2    -0.180000       12.0110           0   0.00000     -0.301140E-02
     11794 MEMB     95       PMPE     H14R     HAL2     0.900000E-01   1.00800           0   0.00000     -0.301140E-02
     11795 MEMB     95       PMPE     H14S     HAL2     0.900000E-01   1.00800           0   0.00000     -0.301140E-02
     11796 MEMB     95       PMPE     C215     CTL2    -0.180000       12.0110           0   0.00000     -0.301140E-02
     11797 MEMB     95       PMPE     H15R     HAL2     0.900000E-01   1.00800           0   0.00000     -0.301140E-02
     11798 MEMB     95       PMPE     H15S     HAL2     0.900000E-01   1.00800           0   0.00000     -0.301140E-02
     11799 MEMB     95       PMPE     C216     CTL3    -0.270000       12.0110           0   0.00000     -0.301140E-02
     11800 MEMB     95       PMPE     H16R     HAL3     0.900000E-01   1.00800           0   0.00000     -0.301140E-02
     11801 MEMB     95       PMPE     H16S     HAL3     0.900000E-01   1.00800           0   0.00000     -0.301140E-02
     11802 MEMB     95       PMPE     H16T     HAL3     0.900000E-01   1.00800           0   0.00000     -0.301140E-02
     11803 MEMB     95       PMPE     C33      CTL2    -0.180000       12.0110           0   0.00000     -0.301140E-02
     11804 MEMB     95       PMPE     H3X      HAL2     0.900000E-01   1.00800           0   0.00000     -0.301140E-02
     11805 MEMB     95       PMPE     H3Y      HAL2     0.900000E-01   1.00800           0   0.00000     -0.301140E-02
     11806 MEMB     95       PMPE     C34      CTL2    -0.180000       12.0110           0   0.00000     -0.301140E-02
     11807 MEMB     95       PMPE     H4X      HAL2     0.900000E-01   1.00800           0   0.00000     -0.301140E-02
     11808 MEMB     95       PMPE     H4Y      HAL2     0.900000E-01   1.00800           0   0.00000     -0.301140E-02
     11809 MEMB     95       PMPE     C35      CTL2    -0.180000       12.0110           0   0.00000     -0.301140E-02
     11810 MEMB     95       PMPE     H5X      HAL2     0.900000E-01   1.00800           0   0.00000     -0.301140E-02
     11811 MEMB     95       PMPE     H5Y      HAL2     0.900000E-01   1.00800           0   0.00000     -0.301140E-02
     11812 MEMB     95       PMPE     C36      CTL2    -0.180000       12.0110           0   0.00000     -0.301140E-02
     11813 MEMB     95       PMPE     H6X      HAL2     0.900000E-01   1.00800           0   0.00000     -0.301140E-02
     11814 MEMB     95       PMPE     H6Y      HAL2     0.900000E-01   1.00800           0   0.00000     -0.301140E-02
     11815 MEMB     95       PMPE     C37      CTL2    -0.180000       12.0110           0   0.00000     -0.301140E-02
     11816 MEMB     95       PMPE     H7X      HAL2     0.900000E-01   1.00800           0   0.00000     -0.301140E-02
     11817 MEMB     95       PMPE     H7Y      HAL2     0.900000E-01   1.00800           0   0.00000     -0.301140E-02
     11818 MEMB     95       PMPE     C38      CTL2    -0.180000       12.0110           0   0.00000     -0.301140E-02
     11819 MEMB     95       PMPE     H8X      HAL2     0.900000E-01   1.00800           0   0.00000     -0.301140E-02
     11820 MEMB     95       PMPE     H8Y      HAL2     0.900000E-01   1.00800           0   0.00000     -0.301140E-02
     11821 MEMB     95       PMPE     C39      CTL2    -0.180000       12.0110           0   0.00000     -0.301140E-02
     11822 MEMB     95       PMPE     H9X      HAL2     0.900000E-01   1.00800           0   0.00000     -0.301140E-02
     11823 MEMB     95       PMPE     H9Y      HAL2     0.900000E-01   1.00800           0   0.00000     -0.301140E-02
     11824 MEMB     95       PMPE     C310     CTL2    -0.180000       12.0110           0   0.00000     -0.301140E-02
     11825 MEMB     95       PMPE     H10X     HAL2     0.900000E-01   1.00800           0   0.00000     -0.301140E-02
     11826 MEMB     95       PMPE     H10Y     HAL2     0.900000E-01   1.00800           0   0.00000     -0.301140E-02
     11827 MEMB     95       PMPE     C311     CTL2    -0.180000       12.0110           0   0.00000     -0.301140E-02
     11828 MEMB     95       PMPE     H11X     HAL2     0.900000E-01   1.00800           0   0.00000     -0.301140E-02
     11829 MEMB     95       PMPE     H11Y     HAL2     0.900000E-01   1.00800           0   0.00000     -0.301140E-02
     11830 MEMB     95       PMPE     C312     CTL2    -0.180000       12.0110           0   0.00000     -0.301140E-02
     11831 MEMB     95       PMPE     H12X     HAL2     0.900000E-01   1.00800           0   0.00000     -0.301140E-02
     11832 MEMB     95       PMPE     H12Y     HAL2     0.900000E-01   1.00800           0   0.00000     -0.301140E-02
     11833 MEMB     95       PMPE     C313     CTL2    -0.180000       12.0110           0   0.00000     -0.301140E-02
     11834 MEMB     95       PMPE     H13X     HAL2     0.900000E-01   1.00800           0   0.00000     -0.301140E-02
     11835 MEMB     95       PMPE     H13Y     HAL2     0.900000E-01   1.00800           0   0.00000     -0.301140E-02
     11836 MEMB     95       PMPE     C314     CTL2    -0.180000       12.0110           0   0.00000     -0.301140E-02
     11837 MEMB     95       PMPE     H14X     HAL2     0.900000E-01   1.00800           0   0.00000     -0.301140E-02
     11838 MEMB     95       PMPE     H14Y     HAL2     0.900000E-01   1.00800           0   0.00000     -0.301140E-02
     11839 MEMB     95       PMPE     C315     CTL2    -0.180000       12.0110           0   0.00000     -0.301140E-02
     11840 MEMB     95       PMPE     H15X     HAL2     0.900000E-01   1.00800           0   0.00000     -0.301140E-02
     11841 MEMB     95       PMPE     H15Y     HAL2     0.900000E-01   1.00800           0   0.00000     -0.301140E-02
     11842 MEMB     95       PMPE     C316     CTL3    -0.270000       12.0110           0   0.00000     -0.301140E-02
     11843 MEMB     95       PMPE     H16X     HAL3     0.900000E-01   1.00800           0   0.00000     -0.301140E-02
     11844 MEMB     95       PMPE     H16Y     HAL3     0.900000E-01   1.00800           0   0.00000     -0.301140E-02
     11845 MEMB     95       PMPE     H16Z     HAL3     0.900000E-01   1.00800           0   0.00000     -0.301140E-02
     11846 MEMB     96       OYPE     N        NH3L    -0.300000       14.0070           0   0.00000     -0.301140E-02
     11847 MEMB     96       OYPE     HN1      HCL      0.330000       1.00800           0   0.00000     -0.301140E-02
     11848 MEMB     96       OYPE     HN2      HCL      0.330000       1.00800           0   0.00000     -0.301140E-02
     11849 MEMB     96       OYPE     HN3      HCL      0.330000       1.00800           0   0.00000     -0.301140E-02
     11850 MEMB     96       OYPE     C12      CTL2     0.130000       12.0110           0   0.00000     -0.301140E-02
     11851 MEMB     96       OYPE     H12A     HAL2     0.900000E-01   1.00800           0   0.00000     -0.301140E-02
     11852 MEMB     96       OYPE     H12B     HAL2     0.900000E-01   1.00800           0   0.00000     -0.301140E-02
     11853 MEMB     96       OYPE     C11      CTL2    -0.800000E-01   12.0110           0   0.00000     -0.301140E-02
     11854 MEMB     96       OYPE     H11A     HAL2     0.900000E-01   1.00800           0   0.00000     -0.301140E-02
     11855 MEMB     96       OYPE     H11B     HAL2     0.900000E-01   1.00800           0   0.00000     -0.301140E-02
     11856 MEMB     96       OYPE     P        PL        1.50000       30.9740           0   0.00000     -0.301140E-02
     11857 MEMB     96       OYPE     O13      O2L     -0.780000       15.9994           0   0.00000     -0.301140E-02
     11858 MEMB     96       OYPE     O14      O2L     -0.780000       15.9994           0   0.00000     -0.301140E-02
     11859 MEMB     96       OYPE     O11      OSLP    -0.570000       15.9994           0   0.00000     -0.301140E-02
     11860 MEMB     96       OYPE     O12      OSLP    -0.570000       15.9994           0   0.00000     -0.301140E-02
     11861 MEMB     96       OYPE     C1       CTL2    -0.800000E-01   12.0110           0   0.00000     -0.301140E-02
     11862 MEMB     96       OYPE     HA       HAL2     0.900000E-01   1.00800           0   0.00000     -0.301140E-02
     11863 MEMB     96       OYPE     HB       HAL2     0.900000E-01   1.00800           0   0.00000     -0.301140E-02
     11864 MEMB     96       OYPE     C2       CTL1     0.170000       12.0110           0   0.00000     -0.301140E-02
     11865 MEMB     96       OYPE     HS       HAL1     0.900000E-01   1.00800           0   0.00000     -0.301140E-02
     11866 MEMB     96       OYPE     O21      OSL     -0.490000       15.9994           0   0.00000     -0.301140E-02
     11867 MEMB     96       OYPE     C21      CL       0.900000       12.0110           0   0.00000     -0.301140E-02
     11868 MEMB     96       OYPE     O22      OBL     -0.630000       15.9994           0   0.00000     -0.301140E-02
     11869 MEMB     96       OYPE     C22      CTL2    -0.220000       12.0110           0   0.00000     -0.301140E-02
     11870 MEMB     96       OYPE     H2R      HAL2     0.900000E-01   1.00800           0   0.00000     -0.301140E-02
     11871 MEMB     96       OYPE     H2S      HAL2     0.900000E-01   1.00800           0   0.00000     -0.301140E-02
     11872 MEMB     96       OYPE     C3       CTL2     0.800000E-01   12.0110           0   0.00000     -0.301140E-02
     11873 MEMB     96       OYPE     HX       HAL2     0.900000E-01   1.00800           0   0.00000     -0.301140E-02
     11874 MEMB     96       OYPE     HY       HAL2     0.900000E-01   1.00800           0   0.00000     -0.301140E-02
     11875 MEMB     96       OYPE     O31      OSL     -0.490000       15.9994           0   0.00000     -0.301140E-02
     11876 MEMB     96       OYPE     C31      CL       0.900000       12.0110           0   0.00000     -0.301140E-02
     11877 MEMB     96       OYPE     O32      OBL     -0.630000       15.9994           0   0.00000     -0.301140E-02
     11878 MEMB     96       OYPE     C32      CTL2    -0.220000       12.0110           0   0.00000     -0.301140E-02
     11879 MEMB     96       OYPE     H2X      HAL2     0.900000E-01   1.00800           0   0.00000     -0.301140E-02
     11880 MEMB     96       OYPE     H2Y      HAL2     0.900000E-01   1.00800           0   0.00000     -0.301140E-02
     11881 MEMB     96       OYPE     C23      CTL2    -0.180000       12.0110           0   0.00000     -0.301140E-02
     11882 MEMB     96       OYPE     H3R      HAL2     0.900000E-01   1.00800           0   0.00000     -0.301140E-02
     11883 MEMB     96       OYPE     H3S      HAL2     0.900000E-01   1.00800           0   0.00000     -0.301140E-02
     11884 MEMB     96       OYPE     C24      CTL2    -0.180000       12.0110           0   0.00000     -0.301140E-02
     11885 MEMB     96       OYPE     H4R      HAL2     0.900000E-01   1.00800           0   0.00000     -0.301140E-02
     11886 MEMB     96       OYPE     H4S      HAL2     0.900000E-01   1.00800           0   0.00000     -0.301140E-02
     11887 MEMB     96       OYPE     C25      CTL2    -0.180000       12.0110           0   0.00000     -0.301140E-02
     11888 MEMB     96       OYPE     H5R      HAL2     0.900000E-01   1.00800           0   0.00000     -0.301140E-02
     11889 MEMB     96       OYPE     H5S      HAL2     0.900000E-01   1.00800           0   0.00000     -0.301140E-02
     11890 MEMB     96       OYPE     C26      CTL2    -0.180000       12.0110           0   0.00000     -0.301140E-02
     11891 MEMB     96       OYPE     H6R      HAL2     0.900000E-01   1.00800           0   0.00000     -0.301140E-02
     11892 MEMB     96       OYPE     H6S      HAL2     0.900000E-01   1.00800           0   0.00000     -0.301140E-02
     11893 MEMB     96       OYPE     C27      CTL2    -0.180000       12.0110           0   0.00000     -0.301140E-02
     11894 MEMB     96       OYPE     H7R      HAL2     0.900000E-01   1.00800           0   0.00000     -0.301140E-02
     11895 MEMB     96       OYPE     H7S      HAL2     0.900000E-01   1.00800           0   0.00000     -0.301140E-02
     11896 MEMB     96       OYPE     C28      CTL2    -0.180000       12.0110           0   0.00000     -0.301140E-02
     11897 MEMB     96       OYPE     H8R      HAL2     0.900000E-01   1.00800           0   0.00000     -0.301140E-02
     11898 MEMB     96       OYPE     H8S      HAL2     0.900000E-01   1.00800           0   0.00000     -0.301140E-02
     11899 MEMB     96       OYPE     C29      CEL1    -0.150000       12.0110           0   0.00000     -0.301140E-02
     11900 MEMB     96       OYPE     H9R      HEL1     0.150000       1.00800           0   0.00000     -0.301140E-02
     11901 MEMB     96       OYPE     C210     CEL1    -0.150000       12.0110           0   0.00000     -0.301140E-02
     11902 MEMB     96       OYPE     H10R     HEL1     0.150000       1.00800           0   0.00000     -0.301140E-02
     11903 MEMB     96       OYPE     C211     CTL2    -0.180000       12.0110           0   0.00000     -0.301140E-02
     11904 MEMB     96       OYPE     H11R     HAL2     0.900000E-01   1.00800           0   0.00000     -0.301140E-02
     11905 MEMB     96       OYPE     H11S     HAL2     0.900000E-01   1.00800           0   0.00000     -0.301140E-02
     11906 MEMB     96       OYPE     C212     CTL2    -0.180000       12.0110           0   0.00000     -0.301140E-02
     11907 MEMB     96       OYPE     H12R     HAL2     0.900000E-01   1.00800           0   0.00000     -0.301140E-02
     11908 MEMB     96       OYPE     H12S     HAL2     0.900000E-01   1.00800           0   0.00000     -0.301140E-02
     11909 MEMB     96       OYPE     C213     CTL2    -0.180000       12.0110           0   0.00000     -0.301140E-02
     11910 MEMB     96       OYPE     H13R     HAL2     0.900000E-01   1.00800           0   0.00000     -0.301140E-02
     11911 MEMB     96       OYPE     H13S     HAL2     0.900000E-01   1.00800           0   0.00000     -0.301140E-02
     11912 MEMB     96       OYPE     C214     CTL2    -0.180000       12.0110           0   0.00000     -0.301140E-02
     11913 MEMB     96       OYPE     H14R     HAL2     0.900000E-01   1.00800           0   0.00000     -0.301140E-02
     11914 MEMB     96       OYPE     H14S     HAL2     0.900000E-01   1.00800           0   0.00000     -0.301140E-02
     11915 MEMB     96       OYPE     C215     CTL2    -0.180000       12.0110           0   0.00000     -0.301140E-02
     11916 MEMB     96       OYPE     H15R     HAL2     0.900000E-01   1.00800           0   0.00000     -0.301140E-02
     11917 MEMB     96       OYPE     H15S     HAL2     0.900000E-01   1.00800           0   0.00000     -0.301140E-02
     11918 MEMB     96       OYPE     C216     CTL3    -0.270000       12.0110           0   0.00000     -0.301140E-02
     11919 MEMB     96       OYPE     H16R     HAL3     0.900000E-01   1.00800           0   0.00000     -0.301140E-02
     11920 MEMB     96       OYPE     H16S     HAL3     0.900000E-01   1.00800           0   0.00000     -0.301140E-02
     11921 MEMB     96       OYPE     H16T     HAL3     0.900000E-01   1.00800           0   0.00000     -0.301140E-02
     11922 MEMB     96       OYPE     C33      CTL2    -0.180000       12.0110           0   0.00000     -0.301140E-02
     11923 MEMB     96       OYPE     H3X      HAL2     0.900000E-01   1.00800           0   0.00000     -0.301140E-02
     11924 MEMB     96       OYPE     H3Y      HAL2     0.900000E-01   1.00800           0   0.00000     -0.301140E-02
     11925 MEMB     96       OYPE     C34      CTL2    -0.180000       12.0110           0   0.00000     -0.301140E-02
     11926 MEMB     96       OYPE     H4X      HAL2     0.900000E-01   1.00800           0   0.00000     -0.301140E-02
     11927 MEMB     96       OYPE     H4Y      HAL2     0.900000E-01   1.00800           0   0.00000     -0.301140E-02
     11928 MEMB     96       OYPE     C35      CTL2    -0.180000       12.0110           0   0.00000     -0.301140E-02
     11929 MEMB     96       OYPE     H5X      HAL2     0.900000E-01   1.00800           0   0.00000     -0.301140E-02
     11930 MEMB     96       OYPE     H5Y      HAL2     0.900000E-01   1.00800           0   0.00000     -0.301140E-02
     11931 MEMB     96       OYPE     C36      CTL2    -0.180000       12.0110           0   0.00000     -0.301140E-02
     11932 MEMB     96       OYPE     H6X      HAL2     0.900000E-01   1.00800           0   0.00000     -0.301140E-02
     11933 MEMB     96       OYPE     H6Y      HAL2     0.900000E-01   1.00800           0   0.00000     -0.301140E-02
     11934 MEMB     96       OYPE     C37      CTL2    -0.180000       12.0110           0   0.00000     -0.301140E-02
     11935 MEMB     96       OYPE     H7X      HAL2     0.900000E-01   1.00800           0   0.00000     -0.301140E-02
     11936 MEMB     96       OYPE     H7Y      HAL2     0.900000E-01   1.00800           0   0.00000     -0.301140E-02
     11937 MEMB     96       OYPE     C38      CTL2    -0.180000       12.0110           0   0.00000     -0.301140E-02
     11938 MEMB     96       OYPE     H8X      HAL2     0.900000E-01   1.00800           0   0.00000     -0.301140E-02
     11939 MEMB     96       OYPE     H8Y      HAL2     0.900000E-01   1.00800           0   0.00000     -0.301140E-02
     11940 MEMB     96       OYPE     C39      CEL1    -0.150000       12.0110           0   0.00000     -0.301140E-02
     11941 MEMB     96       OYPE     H9X      HEL1     0.150000       1.00800           0   0.00000     -0.301140E-02
     11942 MEMB     96       OYPE     C310     CEL1    -0.150000       12.0110           0   0.00000     -0.301140E-02
     11943 MEMB     96       OYPE     H10X     HEL1     0.150000       1.00800           0   0.00000     -0.301140E-02
     11944 MEMB     96       OYPE     C311     CTL2    -0.180000       12.0110           0   0.00000     -0.301140E-02
     11945 MEMB     96       OYPE     H11X     HAL2     0.900000E-01   1.00800           0   0.00000     -0.301140E-02
     11946 MEMB     96       OYPE     H11Y     HAL2     0.900000E-01   1.00800           0   0.00000     -0.301140E-02
     11947 MEMB     96       OYPE     C312     CTL2    -0.180000       12.0110           0   0.00000     -0.301140E-02
     11948 MEMB     96       OYPE     H12X     HAL2     0.900000E-01   1.00800           0   0.00000     -0.301140E-02
     11949 MEMB     96       OYPE     H12Y     HAL2     0.900000E-01   1.00800           0   0.00000     -0.301140E-02
     11950 MEMB     96       OYPE     C313     CTL2    -0.180000       12.0110           0   0.00000     -0.301140E-02
     11951 MEMB     96       OYPE     H13X     HAL2     0.900000E-01   1.00800           0   0.00000     -0.301140E-02
     11952 MEMB     96       OYPE     H13Y     HAL2     0.900000E-01   1.00800           0   0.00000     -0.301140E-02
     11953 MEMB     96       OYPE     C314     CTL2    -0.180000       12.0110           0   0.00000     -0.301140E-02
     11954 MEMB     96       OYPE     H14X     HAL2     0.900000E-01   1.00800           0   0.00000     -0.301140E-02
     11955 MEMB     96       OYPE     H14Y     HAL2     0.900000E-01   1.00800           0   0.00000     -0.301140E-02
     11956 MEMB     96       OYPE     C315     CTL2    -0.180000       12.0110           0   0.00000     -0.301140E-02
     11957 MEMB     96       OYPE     H15X     HAL2     0.900000E-01   1.00800           0   0.00000     -0.301140E-02
     11958 MEMB     96       OYPE     H15Y     HAL2     0.900000E-01   1.00800           0   0.00000     -0.301140E-02
     11959 MEMB     96       OYPE     C316     CTL2    -0.180000       12.0110           0   0.00000     -0.301140E-02
     11960 MEMB     96       OYPE     H16X     HAL2     0.900000E-01   1.00800           0   0.00000     -0.301140E-02
     11961 MEMB     96       OYPE     H16Y     HAL2     0.900000E-01   1.00800           0   0.00000     -0.301140E-02
     11962 MEMB     96       OYPE     C317     CTL2    -0.180000       12.0110           0   0.00000     -0.301140E-02
     11963 MEMB     96       OYPE     H17X     HAL2     0.900000E-01   1.00800           0   0.00000     -0.301140E-02
     11964 MEMB     96       OYPE     H17Y     HAL2     0.900000E-01   1.00800           0   0.00000     -0.301140E-02
     11965 MEMB     96       OYPE     C318     CTL3    -0.270000       12.0110           0   0.00000     -0.301140E-02
     11966 MEMB     96       OYPE     H18X     HAL3     0.900000E-01   1.00800           0   0.00000     -0.301140E-02
     11967 MEMB     96       OYPE     H18Y     HAL3     0.900000E-01   1.00800           0   0.00000     -0.301140E-02
     11968 MEMB     96       OYPE     H18Z     HAL3     0.900000E-01   1.00800           0   0.00000     -0.301140E-02
     11969 MEMB     97       QMPE     N        NH3L    -0.300000       14.0070           0   0.00000     -0.301140E-02
     11970 MEMB     97       QMPE     HN1      HCL      0.330000       1.00800           0   0.00000     -0.301140E-02
     11971 MEMB     97       QMPE     HN2      HCL      0.330000       1.00800           0   0.00000     -0.301140E-02
     11972 MEMB     97       QMPE     HN3      HCL      0.330000       1.00800           0   0.00000     -0.301140E-02
     11973 MEMB     97       QMPE     C12      CTL2     0.130000       12.0110           0   0.00000     -0.301140E-02
     11974 MEMB     97       QMPE     H12A     HAL2     0.900000E-01   1.00800           0   0.00000     -0.301140E-02
     11975 MEMB     97       QMPE     H12B     HAL2     0.900000E-01   1.00800           0   0.00000     -0.301140E-02
     11976 MEMB     97       QMPE     C11      CTL2    -0.800000E-01   12.0110           0   0.00000     -0.301140E-02
     11977 MEMB     97       QMPE     H11A     HAL2     0.900000E-01   1.00800           0   0.00000     -0.301140E-02
     11978 MEMB     97       QMPE     H11B     HAL2     0.900000E-01   1.00800           0   0.00000     -0.301140E-02
     11979 MEMB     97       QMPE     P        PL        1.50000       30.9740           0   0.00000     -0.301140E-02
     11980 MEMB     97       QMPE     O13      O2L     -0.780000       15.9994           0   0.00000     -0.301140E-02
     11981 MEMB     97       QMPE     O14      O2L     -0.780000       15.9994           0   0.00000     -0.301140E-02
     11982 MEMB     97       QMPE     O11      OSLP    -0.570000       15.9994           0   0.00000     -0.301140E-02
     11983 MEMB     97       QMPE     O12      OSLP    -0.570000       15.9994           0   0.00000     -0.301140E-02
     11984 MEMB     97       QMPE     C1       CTL2    -0.800000E-01   12.0110           0   0.00000     -0.301140E-02
     11985 MEMB     97       QMPE     HA       HAL2     0.900000E-01   1.00800           0   0.00000     -0.301140E-02
     11986 MEMB     97       QMPE     HB       HAL2     0.900000E-01   1.00800           0   0.00000     -0.301140E-02
     11987 MEMB     97       QMPE     C2       CTL1     0.170000       12.0110           0   0.00000     -0.301140E-02
     11988 MEMB     97       QMPE     HS       HAL1     0.900000E-01   1.00800           0   0.00000     -0.301140E-02
     11989 MEMB     97       QMPE     O21      OSL     -0.490000       15.9994           0   0.00000     -0.301140E-02
     11990 MEMB     97       QMPE     C21      CL       0.900000       12.0110           0   0.00000     -0.301140E-02
     11991 MEMB     97       QMPE     O22      OBL     -0.630000       15.9994           0   0.00000     -0.301140E-02
     11992 MEMB     97       QMPE     C22      CTL2    -0.220000       12.0110           0   0.00000     -0.301140E-02
     11993 MEMB     97       QMPE     H2R      HAL2     0.900000E-01   1.00800           0   0.00000     -0.301140E-02
     11994 MEMB     97       QMPE     H2S      HAL2     0.900000E-01   1.00800           0   0.00000     -0.301140E-02
     11995 MEMB     97       QMPE     C3       CTL2     0.800000E-01   12.0110           0   0.00000     -0.301140E-02
     11996 MEMB     97       QMPE     HX       HAL2     0.900000E-01   1.00800           0   0.00000     -0.301140E-02
     11997 MEMB     97       QMPE     HY       HAL2     0.900000E-01   1.00800           0   0.00000     -0.301140E-02
     11998 MEMB     97       QMPE     O31      OSL     -0.490000       15.9994           0   0.00000     -0.301140E-02
     11999 MEMB     97       QMPE     C31      CL       0.900000       12.0110           0   0.00000     -0.301140E-02
     12000 MEMB     97       QMPE     O32      OBL     -0.630000       15.9994           0   0.00000     -0.301140E-02
     12001 MEMB     97       QMPE     C32      CTL2    -0.220000       12.0110           0   0.00000     -0.301140E-02
     12002 MEMB     97       QMPE     H2X      HAL2     0.900000E-01   1.00800           0   0.00000     -0.301140E-02
     12003 MEMB     97       QMPE     H2Y      HAL2     0.900000E-01   1.00800           0   0.00000     -0.301140E-02
     12004 MEMB     97       QMPE     C23      CTL2    -0.180000       12.0110           0   0.00000     -0.301140E-02
     12005 MEMB     97       QMPE     H3R      HAL2     0.900000E-01   1.00800           0   0.00000     -0.301140E-02
     12006 MEMB     97       QMPE     H3S      HAL2     0.900000E-01   1.00800           0   0.00000     -0.301140E-02
     12007 MEMB     97       QMPE     C24      CTL2    -0.180000       12.0110           0   0.00000     -0.301140E-02
     12008 MEMB     97       QMPE     H4R      HAL2     0.900000E-01   1.00800           0   0.00000     -0.301140E-02
     12009 MEMB     97       QMPE     H4S      HAL2     0.900000E-01   1.00800           0   0.00000     -0.301140E-02
     12010 MEMB     97       QMPE     C25      CTL2    -0.180000       12.0110           0   0.00000     -0.301140E-02
     12011 MEMB     97       QMPE     H5R      HAL2     0.900000E-01   1.00800           0   0.00000     -0.301140E-02
     12012 MEMB     97       QMPE     H5S      HAL2     0.900000E-01   1.00800           0   0.00000     -0.301140E-02
     12013 MEMB     97       QMPE     C26      CTL2    -0.180000       12.0110           0   0.00000     -0.301140E-02
     12014 MEMB     97       QMPE     H6R      HAL2     0.900000E-01   1.00800           0   0.00000     -0.301140E-02
     12015 MEMB     97       QMPE     H6S      HAL2     0.900000E-01   1.00800           0   0.00000     -0.301140E-02
     12016 MEMB     97       QMPE     C27      CTL2    -0.180000       12.0110           0   0.00000     -0.301140E-02
     12017 MEMB     97       QMPE     H7R      HAL2     0.900000E-01   1.00800           0   0.00000     -0.301140E-02
     12018 MEMB     97       QMPE     H7S      HAL2     0.900000E-01   1.00800           0   0.00000     -0.301140E-02
     12019 MEMB     97       QMPE     C28      CTL2    -0.180000       12.0110           0   0.00000     -0.301140E-02
     12020 MEMB     97       QMPE     H8R      HAL2     0.900000E-01   1.00800           0   0.00000     -0.301140E-02
     12021 MEMB     97       QMPE     H8S      HAL2     0.900000E-01   1.00800           0   0.00000     -0.301140E-02
     12022 MEMB     97       QMPE     C29      CG3RC1  -0.900000E-01   12.0110           0   0.00000     -0.301140E-02
     12023 MEMB     97       QMPE     H9R      HGA1     0.900000E-01   1.00800           0   0.00000     -0.301140E-02
     12024 MEMB     97       QMPE     C217     CG3C31  -0.180000       12.0110           0   0.00000     -0.301140E-02
     12025 MEMB     97       QMPE     H17R     HGA2     0.900000E-01   1.00800           0   0.00000     -0.301140E-02
     12026 MEMB     97       QMPE     H17S     HGA2     0.900000E-01   1.00800           0   0.00000     -0.301140E-02
     12027 MEMB     97       QMPE     C210     CG3RC1  -0.900000E-01   12.0110           0   0.00000     -0.301140E-02
     12028 MEMB     97       QMPE     H10R     HGA1     0.900000E-01   1.00800           0   0.00000     -0.301140E-02
     12029 MEMB     97       QMPE     C211     CTL2    -0.180000       12.0110           0   0.00000     -0.301140E-02
     12030 MEMB     97       QMPE     H11R     HAL2     0.900000E-01   1.00800           0   0.00000     -0.301140E-02
     12031 MEMB     97       QMPE     H11S     HAL2     0.900000E-01   1.00800           0   0.00000     -0.301140E-02
     12032 MEMB     97       QMPE     C212     CTL2    -0.180000       12.0110           0   0.00000     -0.301140E-02
     12033 MEMB     97       QMPE     H12R     HAL2     0.900000E-01   1.00800           0   0.00000     -0.301140E-02
     12034 MEMB     97       QMPE     H12S     HAL2     0.900000E-01   1.00800           0   0.00000     -0.301140E-02
     12035 MEMB     97       QMPE     C213     CTL2    -0.180000       12.0110           0   0.00000     -0.301140E-02
     12036 MEMB     97       QMPE     H13R     HAL2     0.900000E-01   1.00800           0   0.00000     -0.301140E-02
     12037 MEMB     97       QMPE     H13S     HAL2     0.900000E-01   1.00800           0   0.00000     -0.301140E-02
     12038 MEMB     97       QMPE     C214     CTL2    -0.180000       12.0110           0   0.00000     -0.301140E-02
     12039 MEMB     97       QMPE     H14R     HAL2     0.900000E-01   1.00800           0   0.00000     -0.301140E-02
     12040 MEMB     97       QMPE     H14S     HAL2     0.900000E-01   1.00800           0   0.00000     -0.301140E-02
     12041 MEMB     97       QMPE     C215     CTL2    -0.180000       12.0110           0   0.00000     -0.301140E-02
     12042 MEMB     97       QMPE     H15R     HAL2     0.900000E-01   1.00800           0   0.00000     -0.301140E-02
     12043 MEMB     97       QMPE     H15S     HAL2     0.900000E-01   1.00800           0   0.00000     -0.301140E-02
     12044 MEMB     97       QMPE     C216     CTL3    -0.270000       12.0110           0   0.00000     -0.301140E-02
     12045 MEMB     97       QMPE     H16R     HAL3     0.900000E-01   1.00800           0   0.00000     -0.301140E-02
     12046 MEMB     97       QMPE     H16S     HAL3     0.900000E-01   1.00800           0   0.00000     -0.301140E-02
     12047 MEMB     97       QMPE     H16T     HAL3     0.900000E-01   1.00800           0   0.00000     -0.301140E-02
     12048 MEMB     97       QMPE     C33      CTL2    -0.180000       12.0110           0   0.00000     -0.301140E-02
     12049 MEMB     97       QMPE     H3X      HAL2     0.900000E-01   1.00800           0   0.00000     -0.301140E-02
     12050 MEMB     97       QMPE     H3Y      HAL2     0.900000E-01   1.00800           0   0.00000     -0.301140E-02
     12051 MEMB     97       QMPE     C34      CTL2    -0.180000       12.0110           0   0.00000     -0.301140E-02
     12052 MEMB     97       QMPE     H4X      HAL2     0.900000E-01   1.00800           0   0.00000     -0.301140E-02
     12053 MEMB     97       QMPE     H4Y      HAL2     0.900000E-01   1.00800           0   0.00000     -0.301140E-02
     12054 MEMB     97       QMPE     C35      CTL2    -0.180000       12.0110           0   0.00000     -0.301140E-02
     12055 MEMB     97       QMPE     H5X      HAL2     0.900000E-01   1.00800           0   0.00000     -0.301140E-02
     12056 MEMB     97       QMPE     H5Y      HAL2     0.900000E-01   1.00800           0   0.00000     -0.301140E-02
     12057 MEMB     97       QMPE     C36      CTL2    -0.180000       12.0110           0   0.00000     -0.301140E-02
     12058 MEMB     97       QMPE     H6X      HAL2     0.900000E-01   1.00800           0   0.00000     -0.301140E-02
     12059 MEMB     97       QMPE     H6Y      HAL2     0.900000E-01   1.00800           0   0.00000     -0.301140E-02
     12060 MEMB     97       QMPE     C37      CTL2    -0.180000       12.0110           0   0.00000     -0.301140E-02
     12061 MEMB     97       QMPE     H7X      HAL2     0.900000E-01   1.00800           0   0.00000     -0.301140E-02
     12062 MEMB     97       QMPE     H7Y      HAL2     0.900000E-01   1.00800           0   0.00000     -0.301140E-02
     12063 MEMB     97       QMPE     C38      CTL2    -0.180000       12.0110           0   0.00000     -0.301140E-02
     12064 MEMB     97       QMPE     H8X      HAL2     0.900000E-01   1.00800           0   0.00000     -0.301140E-02
     12065 MEMB     97       QMPE     H8Y      HAL2     0.900000E-01   1.00800           0   0.00000     -0.301140E-02
     12066 MEMB     97       QMPE     C39      CTL2    -0.180000       12.0110           0   0.00000     -0.301140E-02
     12067 MEMB     97       QMPE     H9X      HAL2     0.900000E-01   1.00800           0   0.00000     -0.301140E-02
     12068 MEMB     97       QMPE     H9Y      HAL2     0.900000E-01   1.00800           0   0.00000     -0.301140E-02
     12069 MEMB     97       QMPE     C310     CTL2    -0.180000       12.0110           0   0.00000     -0.301140E-02
     12070 MEMB     97       QMPE     H10X     HAL2     0.900000E-01   1.00800           0   0.00000     -0.301140E-02
     12071 MEMB     97       QMPE     H10Y     HAL2     0.900000E-01   1.00800           0   0.00000     -0.301140E-02
     12072 MEMB     97       QMPE     C311     CTL2    -0.180000       12.0110           0   0.00000     -0.301140E-02
     12073 MEMB     97       QMPE     H11X     HAL2     0.900000E-01   1.00800           0   0.00000     -0.301140E-02
     12074 MEMB     97       QMPE     H11Y     HAL2     0.900000E-01   1.00800           0   0.00000     -0.301140E-02
     12075 MEMB     97       QMPE     C312     CTL2    -0.180000       12.0110           0   0.00000     -0.301140E-02
     12076 MEMB     97       QMPE     H12X     HAL2     0.900000E-01   1.00800           0   0.00000     -0.301140E-02
     12077 MEMB     97       QMPE     H12Y     HAL2     0.900000E-01   1.00800           0   0.00000     -0.301140E-02
     12078 MEMB     97       QMPE     C313     CTL2    -0.180000       12.0110           0   0.00000     -0.301140E-02
     12079 MEMB     97       QMPE     H13X     HAL2     0.900000E-01   1.00800           0   0.00000     -0.301140E-02
     12080 MEMB     97       QMPE     H13Y     HAL2     0.900000E-01   1.00800           0   0.00000     -0.301140E-02
     12081 MEMB     97       QMPE     C314     CTL2    -0.180000       12.0110           0   0.00000     -0.301140E-02
     12082 MEMB     97       QMPE     H14X     HAL2     0.900000E-01   1.00800           0   0.00000     -0.301140E-02
     12083 MEMB     97       QMPE     H14Y     HAL2     0.900000E-01   1.00800           0   0.00000     -0.301140E-02
     12084 MEMB     97       QMPE     C315     CTL3    -0.270000       12.0110           0   0.00000     -0.301140E-02
     12085 MEMB     97       QMPE     H15X     HAL3     0.900000E-01   1.00800           0   0.00000     -0.301140E-02
     12086 MEMB     97       QMPE     H15Y     HAL3     0.900000E-01   1.00800           0   0.00000     -0.301140E-02
     12087 MEMB     97       QMPE     H15Z     HAL3     0.900000E-01   1.00800           0   0.00000     -0.301140E-02
     12088 MEMB     98       PYPG     C13      CTL2     0.500000E-01   12.0110           0   0.00000     -0.301140E-02
     12089 MEMB     98       PYPG     H13A     HAL2     0.900000E-01   1.00800           0   0.00000     -0.301140E-02
     12090 MEMB     98       PYPG     H13B     HAL2     0.900000E-01   1.00800           0   0.00000     -0.301140E-02
     12091 MEMB     98       PYPG     OC3      OHL     -0.660000       15.9994           0   0.00000     -0.301140E-02
     12092 MEMB     98       PYPG     HO3      HOL      0.430000       1.00800           0   0.00000     -0.301140E-02
     12093 MEMB     98       PYPG     C12      CTL1     0.140000       12.0110           0   0.00000     -0.301140E-02
     12094 MEMB     98       PYPG     H12A     HAL1     0.900000E-01   1.00800           0   0.00000     -0.301140E-02
     12095 MEMB     98       PYPG     OC2      OHL     -0.660000       15.9994           0   0.00000     -0.301140E-02
     12096 MEMB     98       PYPG     HO2      HOL      0.430000       1.00800           0   0.00000     -0.301140E-02
     12097 MEMB     98       PYPG     C11      CTL2    -0.800000E-01   12.0110           0   0.00000     -0.301140E-02
     12098 MEMB     98       PYPG     H11A     HAL2     0.900000E-01   1.00800           0   0.00000     -0.301140E-02
     12099 MEMB     98       PYPG     H11B     HAL2     0.900000E-01   1.00800           0   0.00000     -0.301140E-02
     12100 MEMB     98       PYPG     P        PL        1.50000       30.9740           0   0.00000     -0.301140E-02
     12101 MEMB     98       PYPG     O13      O2L     -0.780000       15.9994           0   0.00000     -0.301140E-02
     12102 MEMB     98       PYPG     O14      O2L     -0.780000       15.9994           0   0.00000     -0.301140E-02
     12103 MEMB     98       PYPG     O11      OSLP    -0.570000       15.9994           0   0.00000     -0.301140E-02
     12104 MEMB     98       PYPG     O12      OSLP    -0.570000       15.9994           0   0.00000     -0.301140E-02
     12105 MEMB     98       PYPG     C1       CTL2    -0.800000E-01   12.0110           0   0.00000     -0.301140E-02
     12106 MEMB     98       PYPG     HA       HAL2     0.900000E-01   1.00800           0   0.00000     -0.301140E-02
     12107 MEMB     98       PYPG     HB       HAL2     0.900000E-01   1.00800           0   0.00000     -0.301140E-02
     12108 MEMB     98       PYPG     C2       CTL1     0.170000       12.0110           0   0.00000     -0.301140E-02
     12109 MEMB     98       PYPG     HS       HAL1     0.900000E-01   1.00800           0   0.00000     -0.301140E-02
     12110 MEMB     98       PYPG     O21      OSL     -0.490000       15.9994           0   0.00000     -0.301140E-02
     12111 MEMB     98       PYPG     C21      CL       0.900000       12.0110           0   0.00000     -0.301140E-02
     12112 MEMB     98       PYPG     O22      OBL     -0.630000       15.9994           0   0.00000     -0.301140E-02
     12113 MEMB     98       PYPG     C22      CTL2    -0.220000       12.0110           0   0.00000     -0.301140E-02
     12114 MEMB     98       PYPG     H2R      HAL2     0.900000E-01   1.00800           0   0.00000     -0.301140E-02
     12115 MEMB     98       PYPG     H2S      HAL2     0.900000E-01   1.00800           0   0.00000     -0.301140E-02
     12116 MEMB     98       PYPG     C3       CTL2     0.800000E-01   12.0110           0   0.00000     -0.301140E-02
     12117 MEMB     98       PYPG     HX       HAL2     0.900000E-01   1.00800           0   0.00000     -0.301140E-02
     12118 MEMB     98       PYPG     HY       HAL2     0.900000E-01   1.00800           0   0.00000     -0.301140E-02
     12119 MEMB     98       PYPG     O31      OSL     -0.490000       15.9994           0   0.00000     -0.301140E-02
     12120 MEMB     98       PYPG     C31      CL       0.900000       12.0110           0   0.00000     -0.301140E-02
     12121 MEMB     98       PYPG     O32      OBL     -0.630000       15.9994           0   0.00000     -0.301140E-02
     12122 MEMB     98       PYPG     C32      CTL2    -0.220000       12.0110           0   0.00000     -0.301140E-02
     12123 MEMB     98       PYPG     H2X      HAL2     0.900000E-01   1.00800           0   0.00000     -0.301140E-02
     12124 MEMB     98       PYPG     H2Y      HAL2     0.900000E-01   1.00800           0   0.00000     -0.301140E-02
     12125 MEMB     98       PYPG     C23      CTL2    -0.180000       12.0110           0   0.00000     -0.301140E-02
     12126 MEMB     98       PYPG     H3R      HAL2     0.900000E-01   1.00800           0   0.00000     -0.301140E-02
     12127 MEMB     98       PYPG     H3S      HAL2     0.900000E-01   1.00800           0   0.00000     -0.301140E-02
     12128 MEMB     98       PYPG     C24      CTL2    -0.180000       12.0110           0   0.00000     -0.301140E-02
     12129 MEMB     98       PYPG     H4R      HAL2     0.900000E-01   1.00800           0   0.00000     -0.301140E-02
     12130 MEMB     98       PYPG     H4S      HAL2     0.900000E-01   1.00800           0   0.00000     -0.301140E-02
     12131 MEMB     98       PYPG     C25      CTL2    -0.180000       12.0110           0   0.00000     -0.301140E-02
     12132 MEMB     98       PYPG     H5R      HAL2     0.900000E-01   1.00800           0   0.00000     -0.301140E-02
     12133 MEMB     98       PYPG     H5S      HAL2     0.900000E-01   1.00800           0   0.00000     -0.301140E-02
     12134 MEMB     98       PYPG     C26      CTL2    -0.180000       12.0110           0   0.00000     -0.301140E-02
     12135 MEMB     98       PYPG     H6R      HAL2     0.900000E-01   1.00800           0   0.00000     -0.301140E-02
     12136 MEMB     98       PYPG     H6S      HAL2     0.900000E-01   1.00800           0   0.00000     -0.301140E-02
     12137 MEMB     98       PYPG     C27      CTL2    -0.180000       12.0110           0   0.00000     -0.301140E-02
     12138 MEMB     98       PYPG     H7R      HAL2     0.900000E-01   1.00800           0   0.00000     -0.301140E-02
     12139 MEMB     98       PYPG     H7S      HAL2     0.900000E-01   1.00800           0   0.00000     -0.301140E-02
     12140 MEMB     98       PYPG     C28      CTL2    -0.180000       12.0110           0   0.00000     -0.301140E-02
     12141 MEMB     98       PYPG     H8R      HAL2     0.900000E-01   1.00800           0   0.00000     -0.301140E-02
     12142 MEMB     98       PYPG     H8S      HAL2     0.900000E-01   1.00800           0   0.00000     -0.301140E-02
     12143 MEMB     98       PYPG     C29      CEL1    -0.150000       12.0110           0   0.00000     -0.301140E-02
     12144 MEMB     98       PYPG     H9R      HEL1     0.150000       1.00800           0   0.00000     -0.301140E-02
     12145 MEMB     98       PYPG     C210     CEL1    -0.150000       12.0110           0   0.00000     -0.301140E-02
     12146 MEMB     98       PYPG     H10R     HEL1     0.150000       1.00800           0   0.00000     -0.301140E-02
     12147 MEMB     98       PYPG     C211     CTL2    -0.180000       12.0110           0   0.00000     -0.301140E-02
     12148 MEMB     98       PYPG     H11R     HAL2     0.900000E-01   1.00800           0   0.00000     -0.301140E-02
     12149 MEMB     98       PYPG     H11S     HAL2     0.900000E-01   1.00800           0   0.00000     -0.301140E-02
     12150 MEMB     98       PYPG     C212     CTL2    -0.180000       12.0110           0   0.00000     -0.301140E-02
     12151 MEMB     98       PYPG     H12R     HAL2     0.900000E-01   1.00800           0   0.00000     -0.301140E-02
     12152 MEMB     98       PYPG     H12S     HAL2     0.900000E-01   1.00800           0   0.00000     -0.301140E-02
     12153 MEMB     98       PYPG     C213     CTL2    -0.180000       12.0110           0   0.00000     -0.301140E-02
     12154 MEMB     98       PYPG     H13R     HAL2     0.900000E-01   1.00800           0   0.00000     -0.301140E-02
     12155 MEMB     98       PYPG     H13S     HAL2     0.900000E-01   1.00800           0   0.00000     -0.301140E-02
     12156 MEMB     98       PYPG     C214     CTL2    -0.180000       12.0110           0   0.00000     -0.301140E-02
     12157 MEMB     98       PYPG     H14R     HAL2     0.900000E-01   1.00800           0   0.00000     -0.301140E-02
     12158 MEMB     98       PYPG     H14S     HAL2     0.900000E-01   1.00800           0   0.00000     -0.301140E-02
     12159 MEMB     98       PYPG     C215     CTL2    -0.180000       12.0110           0   0.00000     -0.301140E-02
     12160 MEMB     98       PYPG     H15R     HAL2     0.900000E-01   1.00800           0   0.00000     -0.301140E-02
     12161 MEMB     98       PYPG     H15S     HAL2     0.900000E-01   1.00800           0   0.00000     -0.301140E-02
     12162 MEMB     98       PYPG     C216     CTL3    -0.270000       12.0110           0   0.00000     -0.301140E-02
     12163 MEMB     98       PYPG     H16R     HAL3     0.900000E-01   1.00800           0   0.00000     -0.301140E-02
     12164 MEMB     98       PYPG     H16S     HAL3     0.900000E-01   1.00800           0   0.00000     -0.301140E-02
     12165 MEMB     98       PYPG     H16T     HAL3     0.900000E-01   1.00800           0   0.00000     -0.301140E-02
     12166 MEMB     98       PYPG     C33      CTL2    -0.180000       12.0110           0   0.00000     -0.301140E-02
     12167 MEMB     98       PYPG     H3X      HAL2     0.900000E-01   1.00800           0   0.00000     -0.301140E-02
     12168 MEMB     98       PYPG     H3Y      HAL2     0.900000E-01   1.00800           0   0.00000     -0.301140E-02
     12169 MEMB     98       PYPG     C34      CTL2    -0.180000       12.0110           0   0.00000     -0.301140E-02
     12170 MEMB     98       PYPG     H4X      HAL2     0.900000E-01   1.00800           0   0.00000     -0.301140E-02
     12171 MEMB     98       PYPG     H4Y      HAL2     0.900000E-01   1.00800           0   0.00000     -0.301140E-02
     12172 MEMB     98       PYPG     C35      CTL2    -0.180000       12.0110           0   0.00000     -0.301140E-02
     12173 MEMB     98       PYPG     H5X      HAL2     0.900000E-01   1.00800           0   0.00000     -0.301140E-02
     12174 MEMB     98       PYPG     H5Y      HAL2     0.900000E-01   1.00800           0   0.00000     -0.301140E-02
     12175 MEMB     98       PYPG     C36      CTL2    -0.180000       12.0110           0   0.00000     -0.301140E-02
     12176 MEMB     98       PYPG     H6X      HAL2     0.900000E-01   1.00800           0   0.00000     -0.301140E-02
     12177 MEMB     98       PYPG     H6Y      HAL2     0.900000E-01   1.00800           0   0.00000     -0.301140E-02
     12178 MEMB     98       PYPG     C37      CTL2    -0.180000       12.0110           0   0.00000     -0.301140E-02
     12179 MEMB     98       PYPG     H7X      HAL2     0.900000E-01   1.00800           0   0.00000     -0.301140E-02
     12180 MEMB     98       PYPG     H7Y      HAL2     0.900000E-01   1.00800           0   0.00000     -0.301140E-02
     12181 MEMB     98       PYPG     C38      CTL2    -0.180000       12.0110           0   0.00000     -0.301140E-02
     12182 MEMB     98       PYPG     H8X      HAL2     0.900000E-01   1.00800           0   0.00000     -0.301140E-02
     12183 MEMB     98       PYPG     H8Y      HAL2     0.900000E-01   1.00800           0   0.00000     -0.301140E-02
     12184 MEMB     98       PYPG     C39      CTL2    -0.180000       12.0110           0   0.00000     -0.301140E-02
     12185 MEMB     98       PYPG     H9X      HAL2     0.900000E-01   1.00800           0   0.00000     -0.301140E-02
     12186 MEMB     98       PYPG     H9Y      HAL2     0.900000E-01   1.00800           0   0.00000     -0.301140E-02
     12187 MEMB     98       PYPG     C310     CTL2    -0.180000       12.0110           0   0.00000     -0.301140E-02
     12188 MEMB     98       PYPG     H10X     HAL2     0.900000E-01   1.00800           0   0.00000     -0.301140E-02
     12189 MEMB     98       PYPG     H10Y     HAL2     0.900000E-01   1.00800           0   0.00000     -0.301140E-02
     12190 MEMB     98       PYPG     C311     CTL2    -0.180000       12.0110           0   0.00000     -0.301140E-02
     12191 MEMB     98       PYPG     H11X     HAL2     0.900000E-01   1.00800           0   0.00000     -0.301140E-02
     12192 MEMB     98       PYPG     H11Y     HAL2     0.900000E-01   1.00800           0   0.00000     -0.301140E-02
     12193 MEMB     98       PYPG     C312     CTL2    -0.180000       12.0110           0   0.00000     -0.301140E-02
     12194 MEMB     98       PYPG     H12X     HAL2     0.900000E-01   1.00800           0   0.00000     -0.301140E-02
     12195 MEMB     98       PYPG     H12Y     HAL2     0.900000E-01   1.00800           0   0.00000     -0.301140E-02
     12196 MEMB     98       PYPG     C313     CTL2    -0.180000       12.0110           0   0.00000     -0.301140E-02
     12197 MEMB     98       PYPG     H13X     HAL2     0.900000E-01   1.00800           0   0.00000     -0.301140E-02
     12198 MEMB     98       PYPG     H13Y     HAL2     0.900000E-01   1.00800           0   0.00000     -0.301140E-02
     12199 MEMB     98       PYPG     C314     CTL2    -0.180000       12.0110           0   0.00000     -0.301140E-02
     12200 MEMB     98       PYPG     H14X     HAL2     0.900000E-01   1.00800           0   0.00000     -0.301140E-02
     12201 MEMB     98       PYPG     H14Y     HAL2     0.900000E-01   1.00800           0   0.00000     -0.301140E-02
     12202 MEMB     98       PYPG     C315     CTL2    -0.180000       12.0110           0   0.00000     -0.301140E-02
     12203 MEMB     98       PYPG     H15X     HAL2     0.900000E-01   1.00800           0   0.00000     -0.301140E-02
     12204 MEMB     98       PYPG     H15Y     HAL2     0.900000E-01   1.00800           0   0.00000     -0.301140E-02
     12205 MEMB     98       PYPG     C316     CTL3    -0.270000       12.0110           0   0.00000     -0.301140E-02
     12206 MEMB     98       PYPG     H16X     HAL3     0.900000E-01   1.00800           0   0.00000     -0.301140E-02
     12207 MEMB     98       PYPG     H16Y     HAL3     0.900000E-01   1.00800           0   0.00000     -0.301140E-02
     12208 MEMB     98       PYPG     H16Z     HAL3     0.900000E-01   1.00800           0   0.00000     -0.301140E-02
     12209 MEMB     99       POPE     N        NH3L    -0.300000       14.0070           0   0.00000     -0.301140E-02
     12210 MEMB     99       POPE     HN1      HCL      0.330000       1.00800           0   0.00000     -0.301140E-02
     12211 MEMB     99       POPE     HN2      HCL      0.330000       1.00800           0   0.00000     -0.301140E-02
     12212 MEMB     99       POPE     HN3      HCL      0.330000       1.00800           0   0.00000     -0.301140E-02
     12213 MEMB     99       POPE     C12      CTL2     0.130000       12.0110           0   0.00000     -0.301140E-02
     12214 MEMB     99       POPE     H12A     HAL2     0.900000E-01   1.00800           0   0.00000     -0.301140E-02
     12215 MEMB     99       POPE     H12B     HAL2     0.900000E-01   1.00800           0   0.00000     -0.301140E-02
     12216 MEMB     99       POPE     C11      CTL2    -0.800000E-01   12.0110           0   0.00000     -0.301140E-02
     12217 MEMB     99       POPE     H11A     HAL2     0.900000E-01   1.00800           0   0.00000     -0.301140E-02
     12218 MEMB     99       POPE     H11B     HAL2     0.900000E-01   1.00800           0   0.00000     -0.301140E-02
     12219 MEMB     99       POPE     P        PL        1.50000       30.9740           0   0.00000     -0.301140E-02
     12220 MEMB     99       POPE     O13      O2L     -0.780000       15.9994           0   0.00000     -0.301140E-02
     12221 MEMB     99       POPE     O14      O2L     -0.780000       15.9994           0   0.00000     -0.301140E-02
     12222 MEMB     99       POPE     O11      OSLP    -0.570000       15.9994           0   0.00000     -0.301140E-02
     12223 MEMB     99       POPE     O12      OSLP    -0.570000       15.9994           0   0.00000     -0.301140E-02
     12224 MEMB     99       POPE     C1       CTL2    -0.800000E-01   12.0110           0   0.00000     -0.301140E-02
     12225 MEMB     99       POPE     HA       HAL2     0.900000E-01   1.00800           0   0.00000     -0.301140E-02
     12226 MEMB     99       POPE     HB       HAL2     0.900000E-01   1.00800           0   0.00000     -0.301140E-02
     12227 MEMB     99       POPE     C2       CTL1     0.170000       12.0110           0   0.00000     -0.301140E-02
     12228 MEMB     99       POPE     HS       HAL1     0.900000E-01   1.00800           0   0.00000     -0.301140E-02
     12229 MEMB     99       POPE     O21      OSL     -0.490000       15.9994           0   0.00000     -0.301140E-02
     12230 MEMB     99       POPE     C21      CL       0.900000       12.0110           0   0.00000     -0.301140E-02
     12231 MEMB     99       POPE     O22      OBL     -0.630000       15.9994           0   0.00000     -0.301140E-02
     12232 MEMB     99       POPE     C22      CTL2    -0.220000       12.0110           0   0.00000     -0.301140E-02
     12233 MEMB     99       POPE     H2R      HAL2     0.900000E-01   1.00800           0   0.00000     -0.301140E-02
     12234 MEMB     99       POPE     H2S      HAL2     0.900000E-01   1.00800           0   0.00000     -0.301140E-02
     12235 MEMB     99       POPE     C3       CTL2     0.800000E-01   12.0110           0   0.00000     -0.301140E-02
     12236 MEMB     99       POPE     HX       HAL2     0.900000E-01   1.00800           0   0.00000     -0.301140E-02
     12237 MEMB     99       POPE     HY       HAL2     0.900000E-01   1.00800           0   0.00000     -0.301140E-02
     12238 MEMB     99       POPE     O31      OSL     -0.490000       15.9994           0   0.00000     -0.301140E-02
     12239 MEMB     99       POPE     C31      CL       0.900000       12.0110           0   0.00000     -0.301140E-02
     12240 MEMB     99       POPE     O32      OBL     -0.630000       15.9994           0   0.00000     -0.301140E-02
     12241 MEMB     99       POPE     C32      CTL2    -0.220000       12.0110           0   0.00000     -0.301140E-02
     12242 MEMB     99       POPE     H2X      HAL2     0.900000E-01   1.00800           0   0.00000     -0.301140E-02
     12243 MEMB     99       POPE     H2Y      HAL2     0.900000E-01   1.00800           0   0.00000     -0.301140E-02
     12244 MEMB     99       POPE     C23      CTL2    -0.180000       12.0110           0   0.00000     -0.301140E-02
     12245 MEMB     99       POPE     H3R      HAL2     0.900000E-01   1.00800           0   0.00000     -0.301140E-02
     12246 MEMB     99       POPE     H3S      HAL2     0.900000E-01   1.00800           0   0.00000     -0.301140E-02
     12247 MEMB     99       POPE     C24      CTL2    -0.180000       12.0110           0   0.00000     -0.301140E-02
     12248 MEMB     99       POPE     H4R      HAL2     0.900000E-01   1.00800           0   0.00000     -0.301140E-02
     12249 MEMB     99       POPE     H4S      HAL2     0.900000E-01   1.00800           0   0.00000     -0.301140E-02
     12250 MEMB     99       POPE     C25      CTL2    -0.180000       12.0110           0   0.00000     -0.301140E-02
     12251 MEMB     99       POPE     H5R      HAL2     0.900000E-01   1.00800           0   0.00000     -0.301140E-02
     12252 MEMB     99       POPE     H5S      HAL2     0.900000E-01   1.00800           0   0.00000     -0.301140E-02
     12253 MEMB     99       POPE     C26      CTL2    -0.180000       12.0110           0   0.00000     -0.301140E-02
     12254 MEMB     99       POPE     H6R      HAL2     0.900000E-01   1.00800           0   0.00000     -0.301140E-02
     12255 MEMB     99       POPE     H6S      HAL2     0.900000E-01   1.00800           0   0.00000     -0.301140E-02
     12256 MEMB     99       POPE     C27      CTL2    -0.180000       12.0110           0   0.00000     -0.301140E-02
     12257 MEMB     99       POPE     H7R      HAL2     0.900000E-01   1.00800           0   0.00000     -0.301140E-02
     12258 MEMB     99       POPE     H7S      HAL2     0.900000E-01   1.00800           0   0.00000     -0.301140E-02
     12259 MEMB     99       POPE     C28      CTL2    -0.180000       12.0110           0   0.00000     -0.301140E-02
     12260 MEMB     99       POPE     H8R      HAL2     0.900000E-01   1.00800           0   0.00000     -0.301140E-02
     12261 MEMB     99       POPE     H8S      HAL2     0.900000E-01   1.00800           0   0.00000     -0.301140E-02
     12262 MEMB     99       POPE     C29      CEL1    -0.150000       12.0110           0   0.00000     -0.301140E-02
     12263 MEMB     99       POPE     H91      HEL1     0.150000       1.00800           0   0.00000     -0.301140E-02
     12264 MEMB     99       POPE     C210     CEL1    -0.150000       12.0110           0   0.00000     -0.301140E-02
     12265 MEMB     99       POPE     H101     HEL1     0.150000       1.00800           0   0.00000     -0.301140E-02
     12266 MEMB     99       POPE     C211     CTL2    -0.180000       12.0110           0   0.00000     -0.301140E-02
     12267 MEMB     99       POPE     H11R     HAL2     0.900000E-01   1.00800           0   0.00000     -0.301140E-02
     12268 MEMB     99       POPE     H11S     HAL2     0.900000E-01   1.00800           0   0.00000     -0.301140E-02
     12269 MEMB     99       POPE     C212     CTL2    -0.180000       12.0110           0   0.00000     -0.301140E-02
     12270 MEMB     99       POPE     H12R     HAL2     0.900000E-01   1.00800           0   0.00000     -0.301140E-02
     12271 MEMB     99       POPE     H12S     HAL2     0.900000E-01   1.00800           0   0.00000     -0.301140E-02
     12272 MEMB     99       POPE     C213     CTL2    -0.180000       12.0110           0   0.00000     -0.301140E-02
     12273 MEMB     99       POPE     H13R     HAL2     0.900000E-01   1.00800           0   0.00000     -0.301140E-02
     12274 MEMB     99       POPE     H13S     HAL2     0.900000E-01   1.00800           0   0.00000     -0.301140E-02
     12275 MEMB     99       POPE     C214     CTL2    -0.180000       12.0110           0   0.00000     -0.301140E-02
     12276 MEMB     99       POPE     H14R     HAL2     0.900000E-01   1.00800           0   0.00000     -0.301140E-02
     12277 MEMB     99       POPE     H14S     HAL2     0.900000E-01   1.00800           0   0.00000     -0.301140E-02
     12278 MEMB     99       POPE     C215     CTL2    -0.180000       12.0110           0   0.00000     -0.301140E-02
     12279 MEMB     99       POPE     H15R     HAL2     0.900000E-01   1.00800           0   0.00000     -0.301140E-02
     12280 MEMB     99       POPE     H15S     HAL2     0.900000E-01   1.00800           0   0.00000     -0.301140E-02
     12281 MEMB     99       POPE     C216     CTL2    -0.180000       12.0110           0   0.00000     -0.301140E-02
     12282 MEMB     99       POPE     H16R     HAL2     0.900000E-01   1.00800           0   0.00000     -0.301140E-02
     12283 MEMB     99       POPE     H16S     HAL2     0.900000E-01   1.00800           0   0.00000     -0.301140E-02
     12284 MEMB     99       POPE     C217     CTL2    -0.180000       12.0110           0   0.00000     -0.301140E-02
     12285 MEMB     99       POPE     H17R     HAL2     0.900000E-01   1.00800           0   0.00000     -0.301140E-02
     12286 MEMB     99       POPE     H17S     HAL2     0.900000E-01   1.00800           0   0.00000     -0.301140E-02
     12287 MEMB     99       POPE     C218     CTL3    -0.270000       12.0110           0   0.00000     -0.301140E-02
     12288 MEMB     99       POPE     H18R     HAL3     0.900000E-01   1.00800           0   0.00000     -0.301140E-02
     12289 MEMB     99       POPE     H18S     HAL3     0.900000E-01   1.00800           0   0.00000     -0.301140E-02
     12290 MEMB     99       POPE     H18T     HAL3     0.900000E-01   1.00800           0   0.00000     -0.301140E-02
     12291 MEMB     99       POPE     C33      CTL2    -0.180000       12.0110           0   0.00000     -0.301140E-02
     12292 MEMB     99       POPE     H3X      HAL2     0.900000E-01   1.00800           0   0.00000     -0.301140E-02
     12293 MEMB     99       POPE     H3Y      HAL2     0.900000E-01   1.00800           0   0.00000     -0.301140E-02
     12294 MEMB     99       POPE     C34      CTL2    -0.180000       12.0110           0   0.00000     -0.301140E-02
     12295 MEMB     99       POPE     H4X      HAL2     0.900000E-01   1.00800           0   0.00000     -0.301140E-02
     12296 MEMB     99       POPE     H4Y      HAL2     0.900000E-01   1.00800           0   0.00000     -0.301140E-02
     12297 MEMB     99       POPE     C35      CTL2    -0.180000       12.0110           0   0.00000     -0.301140E-02
     12298 MEMB     99       POPE     H5X      HAL2     0.900000E-01   1.00800           0   0.00000     -0.301140E-02
     12299 MEMB     99       POPE     H5Y      HAL2     0.900000E-01   1.00800           0   0.00000     -0.301140E-02
     12300 MEMB     99       POPE     C36      CTL2    -0.180000       12.0110           0   0.00000     -0.301140E-02
     12301 MEMB     99       POPE     H6X      HAL2     0.900000E-01   1.00800           0   0.00000     -0.301140E-02
     12302 MEMB     99       POPE     H6Y      HAL2     0.900000E-01   1.00800           0   0.00000     -0.301140E-02
     12303 MEMB     99       POPE     C37      CTL2    -0.180000       12.0110           0   0.00000     -0.301140E-02
     12304 MEMB     99       POPE     H7X      HAL2     0.900000E-01   1.00800           0   0.00000     -0.301140E-02
     12305 MEMB     99       POPE     H7Y      HAL2     0.900000E-01   1.00800           0   0.00000     -0.301140E-02
     12306 MEMB     99       POPE     C38      CTL2    -0.180000       12.0110           0   0.00000     -0.301140E-02
     12307 MEMB     99       POPE     H8X      HAL2     0.900000E-01   1.00800           0   0.00000     -0.301140E-02
     12308 MEMB     99       POPE     H8Y      HAL2     0.900000E-01   1.00800           0   0.00000     -0.301140E-02
     12309 MEMB     99       POPE     C39      CTL2    -0.180000       12.0110           0   0.00000     -0.301140E-02
     12310 MEMB     99       POPE     H9X      HAL2     0.900000E-01   1.00800           0   0.00000     -0.301140E-02
     12311 MEMB     99       POPE     H9Y      HAL2     0.900000E-01   1.00800           0   0.00000     -0.301140E-02
     12312 MEMB     99       POPE     C310     CTL2    -0.180000       12.0110           0   0.00000     -0.301140E-02
     12313 MEMB     99       POPE     H10X     HAL2     0.900000E-01   1.00800           0   0.00000     -0.301140E-02
     12314 MEMB     99       POPE     H10Y     HAL2     0.900000E-01   1.00800           0   0.00000     -0.301140E-02
     12315 MEMB     99       POPE     C311     CTL2    -0.180000       12.0110           0   0.00000     -0.301140E-02
     12316 MEMB     99       POPE     H11X     HAL2     0.900000E-01   1.00800           0   0.00000     -0.301140E-02
     12317 MEMB     99       POPE     H11Y     HAL2     0.900000E-01   1.00800           0   0.00000     -0.301140E-02
     12318 MEMB     99       POPE     C312     CTL2    -0.180000       12.0110           0   0.00000     -0.301140E-02
     12319 MEMB     99       POPE     H12X     HAL2     0.900000E-01   1.00800           0   0.00000     -0.301140E-02
     12320 MEMB     99       POPE     H12Y     HAL2     0.900000E-01   1.00800           0   0.00000     -0.301140E-02
     12321 MEMB     99       POPE     C313     CTL2    -0.180000       12.0110           0   0.00000     -0.301140E-02
     12322 MEMB     99       POPE     H13X     HAL2     0.900000E-01   1.00800           0   0.00000     -0.301140E-02
     12323 MEMB     99       POPE     H13Y     HAL2     0.900000E-01   1.00800           0   0.00000     -0.301140E-02
     12324 MEMB     99       POPE     C314     CTL2    -0.180000       12.0110           0   0.00000     -0.301140E-02
     12325 MEMB     99       POPE     H14X     HAL2     0.900000E-01   1.00800           0   0.00000     -0.301140E-02
     12326 MEMB     99       POPE     H14Y     HAL2     0.900000E-01   1.00800           0   0.00000     -0.301140E-02
     12327 MEMB     99       POPE     C315     CTL2    -0.180000       12.0110           0   0.00000     -0.301140E-02
     12328 MEMB     99       POPE     H15X     HAL2     0.900000E-01   1.00800           0   0.00000     -0.301140E-02
     12329 MEMB     99       POPE     H15Y     HAL2     0.900000E-01   1.00800           0   0.00000     -0.301140E-02
     12330 MEMB     99       POPE     C316     CTL3    -0.270000       12.0110           0   0.00000     -0.301140E-02
     12331 MEMB     99       POPE     H16X     HAL3     0.900000E-01   1.00800           0   0.00000     -0.301140E-02
     12332 MEMB     99       POPE     H16Y     HAL3     0.900000E-01   1.00800           0   0.00000     -0.301140E-02
     12333 MEMB     99       POPE     H16Z     HAL3     0.900000E-01   1.00800           0   0.00000     -0.301140E-02
     12334 MEMB     100      POPE     N        NH3L    -0.300000       14.0070           0   0.00000     -0.301140E-02
     12335 MEMB     100      POPE     HN1      HCL      0.330000       1.00800           0   0.00000     -0.301140E-02
     12336 MEMB     100      POPE     HN2      HCL      0.330000       1.00800           0   0.00000     -0.301140E-02
     12337 MEMB     100      POPE     HN3      HCL      0.330000       1.00800           0   0.00000     -0.301140E-02
     12338 MEMB     100      POPE     C12      CTL2     0.130000       12.0110           0   0.00000     -0.301140E-02
     12339 MEMB     100      POPE     H12A     HAL2     0.900000E-01   1.00800           0   0.00000     -0.301140E-02
     12340 MEMB     100      POPE     H12B     HAL2     0.900000E-01   1.00800           0   0.00000     -0.301140E-02
     12341 MEMB     100      POPE     C11      CTL2    -0.800000E-01   12.0110           0   0.00000     -0.301140E-02
     12342 MEMB     100      POPE     H11A     HAL2     0.900000E-01   1.00800           0   0.00000     -0.301140E-02
     12343 MEMB     100      POPE     H11B     HAL2     0.900000E-01   1.00800           0   0.00000     -0.301140E-02
     12344 MEMB     100      POPE     P        PL        1.50000       30.9740           0   0.00000     -0.301140E-02
     12345 MEMB     100      POPE     O13      O2L     -0.780000       15.9994           0   0.00000     -0.301140E-02
     12346 MEMB     100      POPE     O14      O2L     -0.780000       15.9994           0   0.00000     -0.301140E-02
     12347 MEMB     100      POPE     O11      OSLP    -0.570000       15.9994           0   0.00000     -0.301140E-02
     12348 MEMB     100      POPE     O12      OSLP    -0.570000       15.9994           0   0.00000     -0.301140E-02
     12349 MEMB     100      POPE     C1       CTL2    -0.800000E-01   12.0110           0   0.00000     -0.301140E-02
     12350 MEMB     100      POPE     HA       HAL2     0.900000E-01   1.00800           0   0.00000     -0.301140E-02
     12351 MEMB     100      POPE     HB       HAL2     0.900000E-01   1.00800           0   0.00000     -0.301140E-02
     12352 MEMB     100      POPE     C2       CTL1     0.170000       12.0110           0   0.00000     -0.301140E-02
     12353 MEMB     100      POPE     HS       HAL1     0.900000E-01   1.00800           0   0.00000     -0.301140E-02
     12354 MEMB     100      POPE     O21      OSL     -0.490000       15.9994           0   0.00000     -0.301140E-02
     12355 MEMB     100      POPE     C21      CL       0.900000       12.0110           0   0.00000     -0.301140E-02
     12356 MEMB     100      POPE     O22      OBL     -0.630000       15.9994           0   0.00000     -0.301140E-02
     12357 MEMB     100      POPE     C22      CTL2    -0.220000       12.0110           0   0.00000     -0.301140E-02
     12358 MEMB     100      POPE     H2R      HAL2     0.900000E-01   1.00800           0   0.00000     -0.301140E-02
     12359 MEMB     100      POPE     H2S      HAL2     0.900000E-01   1.00800           0   0.00000     -0.301140E-02
     12360 MEMB     100      POPE     C3       CTL2     0.800000E-01   12.0110           0   0.00000     -0.301140E-02
     12361 MEMB     100      POPE     HX       HAL2     0.900000E-01   1.00800           0   0.00000     -0.301140E-02
     12362 MEMB     100      POPE     HY       HAL2     0.900000E-01   1.00800           0   0.00000     -0.301140E-02
     12363 MEMB     100      POPE     O31      OSL     -0.490000       15.9994           0   0.00000     -0.301140E-02
     12364 MEMB     100      POPE     C31      CL       0.900000       12.0110           0   0.00000     -0.301140E-02
     12365 MEMB     100      POPE     O32      OBL     -0.630000       15.9994           0   0.00000     -0.301140E-02
     12366 MEMB     100      POPE     C32      CTL2    -0.220000       12.0110           0   0.00000     -0.301140E-02
     12367 MEMB     100      POPE     H2X      HAL2     0.900000E-01   1.00800           0   0.00000     -0.301140E-02
     12368 MEMB     100      POPE     H2Y      HAL2     0.900000E-01   1.00800           0   0.00000     -0.301140E-02
     12369 MEMB     100      POPE     C23      CTL2    -0.180000       12.0110           0   0.00000     -0.301140E-02
     12370 MEMB     100      POPE     H3R      HAL2     0.900000E-01   1.00800           0   0.00000     -0.301140E-02
     12371 MEMB     100      POPE     H3S      HAL2     0.900000E-01   1.00800           0   0.00000     -0.301140E-02
     12372 MEMB     100      POPE     C24      CTL2    -0.180000       12.0110           0   0.00000     -0.301140E-02
     12373 MEMB     100      POPE     H4R      HAL2     0.900000E-01   1.00800           0   0.00000     -0.301140E-02
     12374 MEMB     100      POPE     H4S      HAL2     0.900000E-01   1.00800           0   0.00000     -0.301140E-02
     12375 MEMB     100      POPE     C25      CTL2    -0.180000       12.0110           0   0.00000     -0.301140E-02
     12376 MEMB     100      POPE     H5R      HAL2     0.900000E-01   1.00800           0   0.00000     -0.301140E-02
     12377 MEMB     100      POPE     H5S      HAL2     0.900000E-01   1.00800           0   0.00000     -0.301140E-02
     12378 MEMB     100      POPE     C26      CTL2    -0.180000       12.0110           0   0.00000     -0.301140E-02
     12379 MEMB     100      POPE     H6R      HAL2     0.900000E-01   1.00800           0   0.00000     -0.301140E-02
     12380 MEMB     100      POPE     H6S      HAL2     0.900000E-01   1.00800           0   0.00000     -0.301140E-02
     12381 MEMB     100      POPE     C27      CTL2    -0.180000       12.0110           0   0.00000     -0.301140E-02
     12382 MEMB     100      POPE     H7R      HAL2     0.900000E-01   1.00800           0   0.00000     -0.301140E-02
     12383 MEMB     100      POPE     H7S      HAL2     0.900000E-01   1.00800           0   0.00000     -0.301140E-02
     12384 MEMB     100      POPE     C28      CTL2    -0.180000       12.0110           0   0.00000     -0.301140E-02
     12385 MEMB     100      POPE     H8R      HAL2     0.900000E-01   1.00800           0   0.00000     -0.301140E-02
     12386 MEMB     100      POPE     H8S      HAL2     0.900000E-01   1.00800           0   0.00000     -0.301140E-02
     12387 MEMB     100      POPE     C29      CEL1    -0.150000       12.0110           0   0.00000     -0.301140E-02
     12388 MEMB     100      POPE     H91      HEL1     0.150000       1.00800           0   0.00000     -0.301140E-02
     12389 MEMB     100      POPE     C210     CEL1    -0.150000       12.0110           0   0.00000     -0.301140E-02
     12390 MEMB     100      POPE     H101     HEL1     0.150000       1.00800           0   0.00000     -0.301140E-02
     12391 MEMB     100      POPE     C211     CTL2    -0.180000       12.0110           0   0.00000     -0.301140E-02
     12392 MEMB     100      POPE     H11R     HAL2     0.900000E-01   1.00800           0   0.00000     -0.301140E-02
     12393 MEMB     100      POPE     H11S     HAL2     0.900000E-01   1.00800           0   0.00000     -0.301140E-02
     12394 MEMB     100      POPE     C212     CTL2    -0.180000       12.0110           0   0.00000     -0.301140E-02
     12395 MEMB     100      POPE     H12R     HAL2     0.900000E-01   1.00800           0   0.00000     -0.301140E-02
     12396 MEMB     100      POPE     H12S     HAL2     0.900000E-01   1.00800           0   0.00000     -0.301140E-02
     12397 MEMB     100      POPE     C213     CTL2    -0.180000       12.0110           0   0.00000     -0.301140E-02
     12398 MEMB     100      POPE     H13R     HAL2     0.900000E-01   1.00800           0   0.00000     -0.301140E-02
     12399 MEMB     100      POPE     H13S     HAL2     0.900000E-01   1.00800           0   0.00000     -0.301140E-02
     12400 MEMB     100      POPE     C214     CTL2    -0.180000       12.0110           0   0.00000     -0.301140E-02
     12401 MEMB     100      POPE     H14R     HAL2     0.900000E-01   1.00800           0   0.00000     -0.301140E-02
     12402 MEMB     100      POPE     H14S     HAL2     0.900000E-01   1.00800           0   0.00000     -0.301140E-02
     12403 MEMB     100      POPE     C215     CTL2    -0.180000       12.0110           0   0.00000     -0.301140E-02
     12404 MEMB     100      POPE     H15R     HAL2     0.900000E-01   1.00800           0   0.00000     -0.301140E-02
     12405 MEMB     100      POPE     H15S     HAL2     0.900000E-01   1.00800           0   0.00000     -0.301140E-02
     12406 MEMB     100      POPE     C216     CTL2    -0.180000       12.0110           0   0.00000     -0.301140E-02
     12407 MEMB     100      POPE     H16R     HAL2     0.900000E-01   1.00800           0   0.00000     -0.301140E-02
     12408 MEMB     100      POPE     H16S     HAL2     0.900000E-01   1.00800           0   0.00000     -0.301140E-02
     12409 MEMB     100      POPE     C217     CTL2    -0.180000       12.0110           0   0.00000     -0.301140E-02
     12410 MEMB     100      POPE     H17R     HAL2     0.900000E-01   1.00800           0   0.00000     -0.301140E-02
     12411 MEMB     100      POPE     H17S     HAL2     0.900000E-01   1.00800           0   0.00000     -0.301140E-02
     12412 MEMB     100      POPE     C218     CTL3    -0.270000       12.0110           0   0.00000     -0.301140E-02
     12413 MEMB     100      POPE     H18R     HAL3     0.900000E-01   1.00800           0   0.00000     -0.301140E-02
     12414 MEMB     100      POPE     H18S     HAL3     0.900000E-01   1.00800           0   0.00000     -0.301140E-02
     12415 MEMB     100      POPE     H18T     HAL3     0.900000E-01   1.00800           0   0.00000     -0.301140E-02
     12416 MEMB     100      POPE     C33      CTL2    -0.180000       12.0110           0   0.00000     -0.301140E-02
     12417 MEMB     100      POPE     H3X      HAL2     0.900000E-01   1.00800           0   0.00000     -0.301140E-02
     12418 MEMB     100      POPE     H3Y      HAL2     0.900000E-01   1.00800           0   0.00000     -0.301140E-02
     12419 MEMB     100      POPE     C34      CTL2    -0.180000       12.0110           0   0.00000     -0.301140E-02
     12420 MEMB     100      POPE     H4X      HAL2     0.900000E-01   1.00800           0   0.00000     -0.301140E-02
     12421 MEMB     100      POPE     H4Y      HAL2     0.900000E-01   1.00800           0   0.00000     -0.301140E-02
     12422 MEMB     100      POPE     C35      CTL2    -0.180000       12.0110           0   0.00000     -0.301140E-02
     12423 MEMB     100      POPE     H5X      HAL2     0.900000E-01   1.00800           0   0.00000     -0.301140E-02
     12424 MEMB     100      POPE     H5Y      HAL2     0.900000E-01   1.00800           0   0.00000     -0.301140E-02
     12425 MEMB     100      POPE     C36      CTL2    -0.180000       12.0110           0   0.00000     -0.301140E-02
     12426 MEMB     100      POPE     H6X      HAL2     0.900000E-01   1.00800           0   0.00000     -0.301140E-02
     12427 MEMB     100      POPE     H6Y      HAL2     0.900000E-01   1.00800           0   0.00000     -0.301140E-02
     12428 MEMB     100      POPE     C37      CTL2    -0.180000       12.0110           0   0.00000     -0.301140E-02
     12429 MEMB     100      POPE     H7X      HAL2     0.900000E-01   1.00800           0   0.00000     -0.301140E-02
     12430 MEMB     100      POPE     H7Y      HAL2     0.900000E-01   1.00800           0   0.00000     -0.301140E-02
     12431 MEMB     100      POPE     C38      CTL2    -0.180000       12.0110           0   0.00000     -0.301140E-02
     12432 MEMB     100      POPE     H8X      HAL2     0.900000E-01   1.00800           0   0.00000     -0.301140E-02
     12433 MEMB     100      POPE     H8Y      HAL2     0.900000E-01   1.00800           0   0.00000     -0.301140E-02
     12434 MEMB     100      POPE     C39      CTL2    -0.180000       12.0110           0   0.00000     -0.301140E-02
     12435 MEMB     100      POPE     H9X      HAL2     0.900000E-01   1.00800           0   0.00000     -0.301140E-02
     12436 MEMB     100      POPE     H9Y      HAL2     0.900000E-01   1.00800           0   0.00000     -0.301140E-02
     12437 MEMB     100      POPE     C310     CTL2    -0.180000       12.0110           0   0.00000     -0.301140E-02
     12438 MEMB     100      POPE     H10X     HAL2     0.900000E-01   1.00800           0   0.00000     -0.301140E-02
     12439 MEMB     100      POPE     H10Y     HAL2     0.900000E-01   1.00800           0   0.00000     -0.301140E-02
     12440 MEMB     100      POPE     C311     CTL2    -0.180000       12.0110           0   0.00000     -0.301140E-02
     12441 MEMB     100      POPE     H11X     HAL2     0.900000E-01   1.00800           0   0.00000     -0.301140E-02
     12442 MEMB     100      POPE     H11Y     HAL2     0.900000E-01   1.00800           0   0.00000     -0.301140E-02
     12443 MEMB     100      POPE     C312     CTL2    -0.180000       12.0110           0   0.00000     -0.301140E-02
     12444 MEMB     100      POPE     H12X     HAL2     0.900000E-01   1.00800           0   0.00000     -0.301140E-02
     12445 MEMB     100      POPE     H12Y     HAL2     0.900000E-01   1.00800           0   0.00000     -0.301140E-02
     12446 MEMB     100      POPE     C313     CTL2    -0.180000       12.0110           0   0.00000     -0.301140E-02
     12447 MEMB     100      POPE     H13X     HAL2     0.900000E-01   1.00800           0   0.00000     -0.301140E-02
     12448 MEMB     100      POPE     H13Y     HAL2     0.900000E-01   1.00800           0   0.00000     -0.301140E-02
     12449 MEMB     100      POPE     C314     CTL2    -0.180000       12.0110           0   0.00000     -0.301140E-02
     12450 MEMB     100      POPE     H14X     HAL2     0.900000E-01   1.00800           0   0.00000     -0.301140E-02
     12451 MEMB     100      POPE     H14Y     HAL2     0.900000E-01   1.00800           0   0.00000     -0.301140E-02
     12452 MEMB     100      POPE     C315     CTL2    -0.180000       12.0110           0   0.00000     -0.301140E-02
     12453 MEMB     100      POPE     H15X     HAL2     0.900000E-01   1.00800           0   0.00000     -0.301140E-02
     12454 MEMB     100      POPE     H15Y     HAL2     0.900000E-01   1.00800           0   0.00000     -0.301140E-02
     12455 MEMB     100      POPE     C316     CTL3    -0.270000       12.0110           0   0.00000     -0.301140E-02
     12456 MEMB     100      POPE     H16X     HAL3     0.900000E-01   1.00800           0   0.00000     -0.301140E-02
     12457 MEMB     100      POPE     H16Y     HAL3     0.900000E-01   1.00800           0   0.00000     -0.301140E-02
     12458 MEMB     100      POPE     H16Z     HAL3     0.900000E-01   1.00800           0   0.00000     -0.301140E-02
     12459 MEMB     101      PMPG     C13      CTL2     0.500000E-01   12.0110           0   0.00000     -0.301140E-02
     12460 MEMB     101      PMPG     H13A     HAL2     0.900000E-01   1.00800           0   0.00000     -0.301140E-02
     12461 MEMB     101      PMPG     H13B     HAL2     0.900000E-01   1.00800           0   0.00000     -0.301140E-02
     12462 MEMB     101      PMPG     OC3      OHL     -0.660000       15.9994           0   0.00000     -0.301140E-02
     12463 MEMB     101      PMPG     HO3      HOL      0.430000       1.00800           0   0.00000     -0.301140E-02
     12464 MEMB     101      PMPG     C12      CTL1     0.140000       12.0110           0   0.00000     -0.301140E-02
     12465 MEMB     101      PMPG     H12A     HAL1     0.900000E-01   1.00800           0   0.00000     -0.301140E-02
     12466 MEMB     101      PMPG     OC2      OHL     -0.660000       15.9994           0   0.00000     -0.301140E-02
     12467 MEMB     101      PMPG     HO2      HOL      0.430000       1.00800           0   0.00000     -0.301140E-02
     12468 MEMB     101      PMPG     C11      CTL2    -0.800000E-01   12.0110           0   0.00000     -0.301140E-02
     12469 MEMB     101      PMPG     H11A     HAL2     0.900000E-01   1.00800           0   0.00000     -0.301140E-02
     12470 MEMB     101      PMPG     H11B     HAL2     0.900000E-01   1.00800           0   0.00000     -0.301140E-02
     12471 MEMB     101      PMPG     P        PL        1.50000       30.9740           0   0.00000     -0.301140E-02
     12472 MEMB     101      PMPG     O13      O2L     -0.780000       15.9994           0   0.00000     -0.301140E-02
     12473 MEMB     101      PMPG     O14      O2L     -0.780000       15.9994           0   0.00000     -0.301140E-02
     12474 MEMB     101      PMPG     O11      OSLP    -0.570000       15.9994           0   0.00000     -0.301140E-02
     12475 MEMB     101      PMPG     O12      OSLP    -0.570000       15.9994           0   0.00000     -0.301140E-02
     12476 MEMB     101      PMPG     C1       CTL2    -0.800000E-01   12.0110           0   0.00000     -0.301140E-02
     12477 MEMB     101      PMPG     HA       HAL2     0.900000E-01   1.00800           0   0.00000     -0.301140E-02
     12478 MEMB     101      PMPG     HB       HAL2     0.900000E-01   1.00800           0   0.00000     -0.301140E-02
     12479 MEMB     101      PMPG     C2       CTL1     0.170000       12.0110           0   0.00000     -0.301140E-02
     12480 MEMB     101      PMPG     HS       HAL1     0.900000E-01   1.00800           0   0.00000     -0.301140E-02
     12481 MEMB     101      PMPG     O21      OSL     -0.490000       15.9994           0   0.00000     -0.301140E-02
     12482 MEMB     101      PMPG     C21      CL       0.900000       12.0110           0   0.00000     -0.301140E-02
     12483 MEMB     101      PMPG     O22      OBL     -0.630000       15.9994           0   0.00000     -0.301140E-02
     12484 MEMB     101      PMPG     C22      CTL2    -0.220000       12.0110           0   0.00000     -0.301140E-02
     12485 MEMB     101      PMPG     H2R      HAL2     0.900000E-01   1.00800           0   0.00000     -0.301140E-02
     12486 MEMB     101      PMPG     H2S      HAL2     0.900000E-01   1.00800           0   0.00000     -0.301140E-02
     12487 MEMB     101      PMPG     C3       CTL2     0.800000E-01   12.0110           0   0.00000     -0.301140E-02
     12488 MEMB     101      PMPG     HX       HAL2     0.900000E-01   1.00800           0   0.00000     -0.301140E-02
     12489 MEMB     101      PMPG     HY       HAL2     0.900000E-01   1.00800           0   0.00000     -0.301140E-02
     12490 MEMB     101      PMPG     O31      OSL     -0.490000       15.9994           0   0.00000     -0.301140E-02
     12491 MEMB     101      PMPG     C31      CL       0.900000       12.0110           0   0.00000     -0.301140E-02
     12492 MEMB     101      PMPG     O32      OBL     -0.630000       15.9994           0   0.00000     -0.301140E-02
     12493 MEMB     101      PMPG     C32      CTL2    -0.220000       12.0110           0   0.00000     -0.301140E-02
     12494 MEMB     101      PMPG     H2X      HAL2     0.900000E-01   1.00800           0   0.00000     -0.301140E-02
     12495 MEMB     101      PMPG     H2Y      HAL2     0.900000E-01   1.00800           0   0.00000     -0.301140E-02
     12496 MEMB     101      PMPG     C23      CTL2    -0.180000       12.0110           0   0.00000     -0.301140E-02
     12497 MEMB     101      PMPG     H3R      HAL2     0.900000E-01   1.00800           0   0.00000     -0.301140E-02
     12498 MEMB     101      PMPG     H3S      HAL2     0.900000E-01   1.00800           0   0.00000     -0.301140E-02
     12499 MEMB     101      PMPG     C24      CTL2    -0.180000       12.0110           0   0.00000     -0.301140E-02
     12500 MEMB     101      PMPG     H4R      HAL2     0.900000E-01   1.00800           0   0.00000     -0.301140E-02
     12501 MEMB     101      PMPG     H4S      HAL2     0.900000E-01   1.00800           0   0.00000     -0.301140E-02
     12502 MEMB     101      PMPG     C25      CTL2    -0.180000       12.0110           0   0.00000     -0.301140E-02
     12503 MEMB     101      PMPG     H5R      HAL2     0.900000E-01   1.00800           0   0.00000     -0.301140E-02
     12504 MEMB     101      PMPG     H5S      HAL2     0.900000E-01   1.00800           0   0.00000     -0.301140E-02
     12505 MEMB     101      PMPG     C26      CTL2    -0.180000       12.0110           0   0.00000     -0.301140E-02
     12506 MEMB     101      PMPG     H6R      HAL2     0.900000E-01   1.00800           0   0.00000     -0.301140E-02
     12507 MEMB     101      PMPG     H6S      HAL2     0.900000E-01   1.00800           0   0.00000     -0.301140E-02
     12508 MEMB     101      PMPG     C27      CTL2    -0.180000       12.0110           0   0.00000     -0.301140E-02
     12509 MEMB     101      PMPG     H7R      HAL2     0.900000E-01   1.00800           0   0.00000     -0.301140E-02
     12510 MEMB     101      PMPG     H7S      HAL2     0.900000E-01   1.00800           0   0.00000     -0.301140E-02
     12511 MEMB     101      PMPG     C28      CTL2    -0.180000       12.0110           0   0.00000     -0.301140E-02
     12512 MEMB     101      PMPG     H8R      HAL2     0.900000E-01   1.00800           0   0.00000     -0.301140E-02
     12513 MEMB     101      PMPG     H8S      HAL2     0.900000E-01   1.00800           0   0.00000     -0.301140E-02
     12514 MEMB     101      PMPG     C29      CG3RC1  -0.900000E-01   12.0110           0   0.00000     -0.301140E-02
     12515 MEMB     101      PMPG     H9R      HGA1     0.900000E-01   1.00800           0   0.00000     -0.301140E-02
     12516 MEMB     101      PMPG     C217     CG3C31  -0.180000       12.0110           0   0.00000     -0.301140E-02
     12517 MEMB     101      PMPG     H17R     HGA2     0.900000E-01   1.00800           0   0.00000     -0.301140E-02
     12518 MEMB     101      PMPG     H17S     HGA2     0.900000E-01   1.00800           0   0.00000     -0.301140E-02
     12519 MEMB     101      PMPG     C210     CG3RC1  -0.900000E-01   12.0110           0   0.00000     -0.301140E-02
     12520 MEMB     101      PMPG     H10R     HGA1     0.900000E-01   1.00800           0   0.00000     -0.301140E-02
     12521 MEMB     101      PMPG     C211     CTL2    -0.180000       12.0110           0   0.00000     -0.301140E-02
     12522 MEMB     101      PMPG     H11R     HAL2     0.900000E-01   1.00800           0   0.00000     -0.301140E-02
     12523 MEMB     101      PMPG     H11S     HAL2     0.900000E-01   1.00800           0   0.00000     -0.301140E-02
     12524 MEMB     101      PMPG     C212     CTL2    -0.180000       12.0110           0   0.00000     -0.301140E-02
     12525 MEMB     101      PMPG     H12R     HAL2     0.900000E-01   1.00800           0   0.00000     -0.301140E-02
     12526 MEMB     101      PMPG     H12S     HAL2     0.900000E-01   1.00800           0   0.00000     -0.301140E-02
     12527 MEMB     101      PMPG     C213     CTL2    -0.180000       12.0110           0   0.00000     -0.301140E-02
     12528 MEMB     101      PMPG     H13R     HAL2     0.900000E-01   1.00800           0   0.00000     -0.301140E-02
     12529 MEMB     101      PMPG     H13S     HAL2     0.900000E-01   1.00800           0   0.00000     -0.301140E-02
     12530 MEMB     101      PMPG     C214     CTL2    -0.180000       12.0110           0   0.00000     -0.301140E-02
     12531 MEMB     101      PMPG     H14R     HAL2     0.900000E-01   1.00800           0   0.00000     -0.301140E-02
     12532 MEMB     101      PMPG     H14S     HAL2     0.900000E-01   1.00800           0   0.00000     -0.301140E-02
     12533 MEMB     101      PMPG     C215     CTL2    -0.180000       12.0110           0   0.00000     -0.301140E-02
     12534 MEMB     101      PMPG     H15R     HAL2     0.900000E-01   1.00800           0   0.00000     -0.301140E-02
     12535 MEMB     101      PMPG     H15S     HAL2     0.900000E-01   1.00800           0   0.00000     -0.301140E-02
     12536 MEMB     101      PMPG     C216     CTL3    -0.270000       12.0110           0   0.00000     -0.301140E-02
     12537 MEMB     101      PMPG     H16R     HAL3     0.900000E-01   1.00800           0   0.00000     -0.301140E-02
     12538 MEMB     101      PMPG     H16S     HAL3     0.900000E-01   1.00800           0   0.00000     -0.301140E-02
     12539 MEMB     101      PMPG     H16T     HAL3     0.900000E-01   1.00800           0   0.00000     -0.301140E-02
     12540 MEMB     101      PMPG     C33      CTL2    -0.180000       12.0110           0   0.00000     -0.301140E-02
     12541 MEMB     101      PMPG     H3X      HAL2     0.900000E-01   1.00800           0   0.00000     -0.301140E-02
     12542 MEMB     101      PMPG     H3Y      HAL2     0.900000E-01   1.00800           0   0.00000     -0.301140E-02
     12543 MEMB     101      PMPG     C34      CTL2    -0.180000       12.0110           0   0.00000     -0.301140E-02
     12544 MEMB     101      PMPG     H4X      HAL2     0.900000E-01   1.00800           0   0.00000     -0.301140E-02
     12545 MEMB     101      PMPG     H4Y      HAL2     0.900000E-01   1.00800           0   0.00000     -0.301140E-02
     12546 MEMB     101      PMPG     C35      CTL2    -0.180000       12.0110           0   0.00000     -0.301140E-02
     12547 MEMB     101      PMPG     H5X      HAL2     0.900000E-01   1.00800           0   0.00000     -0.301140E-02
     12548 MEMB     101      PMPG     H5Y      HAL2     0.900000E-01   1.00800           0   0.00000     -0.301140E-02
     12549 MEMB     101      PMPG     C36      CTL2    -0.180000       12.0110           0   0.00000     -0.301140E-02
     12550 MEMB     101      PMPG     H6X      HAL2     0.900000E-01   1.00800           0   0.00000     -0.301140E-02
     12551 MEMB     101      PMPG     H6Y      HAL2     0.900000E-01   1.00800           0   0.00000     -0.301140E-02
     12552 MEMB     101      PMPG     C37      CTL2    -0.180000       12.0110           0   0.00000     -0.301140E-02
     12553 MEMB     101      PMPG     H7X      HAL2     0.900000E-01   1.00800           0   0.00000     -0.301140E-02
     12554 MEMB     101      PMPG     H7Y      HAL2     0.900000E-01   1.00800           0   0.00000     -0.301140E-02
     12555 MEMB     101      PMPG     C38      CTL2    -0.180000       12.0110           0   0.00000     -0.301140E-02
     12556 MEMB     101      PMPG     H8X      HAL2     0.900000E-01   1.00800           0   0.00000     -0.301140E-02
     12557 MEMB     101      PMPG     H8Y      HAL2     0.900000E-01   1.00800           0   0.00000     -0.301140E-02
     12558 MEMB     101      PMPG     C39      CTL2    -0.180000       12.0110           0   0.00000     -0.301140E-02
     12559 MEMB     101      PMPG     H9X      HAL2     0.900000E-01   1.00800           0   0.00000     -0.301140E-02
     12560 MEMB     101      PMPG     H9Y      HAL2     0.900000E-01   1.00800           0   0.00000     -0.301140E-02
     12561 MEMB     101      PMPG     C310     CTL2    -0.180000       12.0110           0   0.00000     -0.301140E-02
     12562 MEMB     101      PMPG     H10X     HAL2     0.900000E-01   1.00800           0   0.00000     -0.301140E-02
     12563 MEMB     101      PMPG     H10Y     HAL2     0.900000E-01   1.00800           0   0.00000     -0.301140E-02
     12564 MEMB     101      PMPG     C311     CTL2    -0.180000       12.0110           0   0.00000     -0.301140E-02
     12565 MEMB     101      PMPG     H11X     HAL2     0.900000E-01   1.00800           0   0.00000     -0.301140E-02
     12566 MEMB     101      PMPG     H11Y     HAL2     0.900000E-01   1.00800           0   0.00000     -0.301140E-02
     12567 MEMB     101      PMPG     C312     CTL2    -0.180000       12.0110           0   0.00000     -0.301140E-02
     12568 MEMB     101      PMPG     H12X     HAL2     0.900000E-01   1.00800           0   0.00000     -0.301140E-02
     12569 MEMB     101      PMPG     H12Y     HAL2     0.900000E-01   1.00800           0   0.00000     -0.301140E-02
     12570 MEMB     101      PMPG     C313     CTL2    -0.180000       12.0110           0   0.00000     -0.301140E-02
     12571 MEMB     101      PMPG     H13X     HAL2     0.900000E-01   1.00800           0   0.00000     -0.301140E-02
     12572 MEMB     101      PMPG     H13Y     HAL2     0.900000E-01   1.00800           0   0.00000     -0.301140E-02
     12573 MEMB     101      PMPG     C314     CTL2    -0.180000       12.0110           0   0.00000     -0.301140E-02
     12574 MEMB     101      PMPG     H14X     HAL2     0.900000E-01   1.00800           0   0.00000     -0.301140E-02
     12575 MEMB     101      PMPG     H14Y     HAL2     0.900000E-01   1.00800           0   0.00000     -0.301140E-02
     12576 MEMB     101      PMPG     C315     CTL2    -0.180000       12.0110           0   0.00000     -0.301140E-02
     12577 MEMB     101      PMPG     H15X     HAL2     0.900000E-01   1.00800           0   0.00000     -0.301140E-02
     12578 MEMB     101      PMPG     H15Y     HAL2     0.900000E-01   1.00800           0   0.00000     -0.301140E-02
     12579 MEMB     101      PMPG     C316     CTL3    -0.270000       12.0110           0   0.00000     -0.301140E-02
     12580 MEMB     101      PMPG     H16X     HAL3     0.900000E-01   1.00800           0   0.00000     -0.301140E-02
     12581 MEMB     101      PMPG     H16Y     HAL3     0.900000E-01   1.00800           0   0.00000     -0.301140E-02
     12582 MEMB     101      PMPG     H16Z     HAL3     0.900000E-01   1.00800           0   0.00000     -0.301140E-02
     12583 MEMB     102      POPE     N        NH3L    -0.300000       14.0070           0   0.00000     -0.301140E-02
     12584 MEMB     102      POPE     HN1      HCL      0.330000       1.00800           0   0.00000     -0.301140E-02
     12585 MEMB     102      POPE     HN2      HCL      0.330000       1.00800           0   0.00000     -0.301140E-02
     12586 MEMB     102      POPE     HN3      HCL      0.330000       1.00800           0   0.00000     -0.301140E-02
     12587 MEMB     102      POPE     C12      CTL2     0.130000       12.0110           0   0.00000     -0.301140E-02
     12588 MEMB     102      POPE     H12A     HAL2     0.900000E-01   1.00800           0   0.00000     -0.301140E-02
     12589 MEMB     102      POPE     H12B     HAL2     0.900000E-01   1.00800           0   0.00000     -0.301140E-02
     12590 MEMB     102      POPE     C11      CTL2    -0.800000E-01   12.0110           0   0.00000     -0.301140E-02
     12591 MEMB     102      POPE     H11A     HAL2     0.900000E-01   1.00800           0   0.00000     -0.301140E-02
     12592 MEMB     102      POPE     H11B     HAL2     0.900000E-01   1.00800           0   0.00000     -0.301140E-02
     12593 MEMB     102      POPE     P        PL        1.50000       30.9740           0   0.00000     -0.301140E-02
     12594 MEMB     102      POPE     O13      O2L     -0.780000       15.9994           0   0.00000     -0.301140E-02
     12595 MEMB     102      POPE     O14      O2L     -0.780000       15.9994           0   0.00000     -0.301140E-02
     12596 MEMB     102      POPE     O11      OSLP    -0.570000       15.9994           0   0.00000     -0.301140E-02
     12597 MEMB     102      POPE     O12      OSLP    -0.570000       15.9994           0   0.00000     -0.301140E-02
     12598 MEMB     102      POPE     C1       CTL2    -0.800000E-01   12.0110           0   0.00000     -0.301140E-02
     12599 MEMB     102      POPE     HA       HAL2     0.900000E-01   1.00800           0   0.00000     -0.301140E-02
     12600 MEMB     102      POPE     HB       HAL2     0.900000E-01   1.00800           0   0.00000     -0.301140E-02
     12601 MEMB     102      POPE     C2       CTL1     0.170000       12.0110           0   0.00000     -0.301140E-02
     12602 MEMB     102      POPE     HS       HAL1     0.900000E-01   1.00800           0   0.00000     -0.301140E-02
     12603 MEMB     102      POPE     O21      OSL     -0.490000       15.9994           0   0.00000     -0.301140E-02
     12604 MEMB     102      POPE     C21      CL       0.900000       12.0110           0   0.00000     -0.301140E-02
     12605 MEMB     102      POPE     O22      OBL     -0.630000       15.9994           0   0.00000     -0.301140E-02
     12606 MEMB     102      POPE     C22      CTL2    -0.220000       12.0110           0   0.00000     -0.301140E-02
     12607 MEMB     102      POPE     H2R      HAL2     0.900000E-01   1.00800           0   0.00000     -0.301140E-02
     12608 MEMB     102      POPE     H2S      HAL2     0.900000E-01   1.00800           0   0.00000     -0.301140E-02
     12609 MEMB     102      POPE     C3       CTL2     0.800000E-01   12.0110           0   0.00000     -0.301140E-02
     12610 MEMB     102      POPE     HX       HAL2     0.900000E-01   1.00800           0   0.00000     -0.301140E-02
     12611 MEMB     102      POPE     HY       HAL2     0.900000E-01   1.00800           0   0.00000     -0.301140E-02
     12612 MEMB     102      POPE     O31      OSL     -0.490000       15.9994           0   0.00000     -0.301140E-02
     12613 MEMB     102      POPE     C31      CL       0.900000       12.0110           0   0.00000     -0.301140E-02
     12614 MEMB     102      POPE     O32      OBL     -0.630000       15.9994           0   0.00000     -0.301140E-02
     12615 MEMB     102      POPE     C32      CTL2    -0.220000       12.0110           0   0.00000     -0.301140E-02
     12616 MEMB     102      POPE     H2X      HAL2     0.900000E-01   1.00800           0   0.00000     -0.301140E-02
     12617 MEMB     102      POPE     H2Y      HAL2     0.900000E-01   1.00800           0   0.00000     -0.301140E-02
     12618 MEMB     102      POPE     C23      CTL2    -0.180000       12.0110           0   0.00000     -0.301140E-02
     12619 MEMB     102      POPE     H3R      HAL2     0.900000E-01   1.00800           0   0.00000     -0.301140E-02
     12620 MEMB     102      POPE     H3S      HAL2     0.900000E-01   1.00800           0   0.00000     -0.301140E-02
     12621 MEMB     102      POPE     C24      CTL2    -0.180000       12.0110           0   0.00000     -0.301140E-02
     12622 MEMB     102      POPE     H4R      HAL2     0.900000E-01   1.00800           0   0.00000     -0.301140E-02
     12623 MEMB     102      POPE     H4S      HAL2     0.900000E-01   1.00800           0   0.00000     -0.301140E-02
     12624 MEMB     102      POPE     C25      CTL2    -0.180000       12.0110           0   0.00000     -0.301140E-02
     12625 MEMB     102      POPE     H5R      HAL2     0.900000E-01   1.00800           0   0.00000     -0.301140E-02
     12626 MEMB     102      POPE     H5S      HAL2     0.900000E-01   1.00800           0   0.00000     -0.301140E-02
     12627 MEMB     102      POPE     C26      CTL2    -0.180000       12.0110           0   0.00000     -0.301140E-02
     12628 MEMB     102      POPE     H6R      HAL2     0.900000E-01   1.00800           0   0.00000     -0.301140E-02
     12629 MEMB     102      POPE     H6S      HAL2     0.900000E-01   1.00800           0   0.00000     -0.301140E-02
     12630 MEMB     102      POPE     C27      CTL2    -0.180000       12.0110           0   0.00000     -0.301140E-02
     12631 MEMB     102      POPE     H7R      HAL2     0.900000E-01   1.00800           0   0.00000     -0.301140E-02
     12632 MEMB     102      POPE     H7S      HAL2     0.900000E-01   1.00800           0   0.00000     -0.301140E-02
     12633 MEMB     102      POPE     C28      CTL2    -0.180000       12.0110           0   0.00000     -0.301140E-02
     12634 MEMB     102      POPE     H8R      HAL2     0.900000E-01   1.00800           0   0.00000     -0.301140E-02
     12635 MEMB     102      POPE     H8S      HAL2     0.900000E-01   1.00800           0   0.00000     -0.301140E-02
     12636 MEMB     102      POPE     C29      CEL1    -0.150000       12.0110           0   0.00000     -0.301140E-02
     12637 MEMB     102      POPE     H91      HEL1     0.150000       1.00800           0   0.00000     -0.301140E-02
     12638 MEMB     102      POPE     C210     CEL1    -0.150000       12.0110           0   0.00000     -0.301140E-02
     12639 MEMB     102      POPE     H101     HEL1     0.150000       1.00800           0   0.00000     -0.301140E-02
     12640 MEMB     102      POPE     C211     CTL2    -0.180000       12.0110           0   0.00000     -0.301140E-02
     12641 MEMB     102      POPE     H11R     HAL2     0.900000E-01   1.00800           0   0.00000     -0.301140E-02
     12642 MEMB     102      POPE     H11S     HAL2     0.900000E-01   1.00800           0   0.00000     -0.301140E-02
     12643 MEMB     102      POPE     C212     CTL2    -0.180000       12.0110           0   0.00000     -0.301140E-02
     12644 MEMB     102      POPE     H12R     HAL2     0.900000E-01   1.00800           0   0.00000     -0.301140E-02
     12645 MEMB     102      POPE     H12S     HAL2     0.900000E-01   1.00800           0   0.00000     -0.301140E-02
     12646 MEMB     102      POPE     C213     CTL2    -0.180000       12.0110           0   0.00000     -0.301140E-02
     12647 MEMB     102      POPE     H13R     HAL2     0.900000E-01   1.00800           0   0.00000     -0.301140E-02
     12648 MEMB     102      POPE     H13S     HAL2     0.900000E-01   1.00800           0   0.00000     -0.301140E-02
     12649 MEMB     102      POPE     C214     CTL2    -0.180000       12.0110           0   0.00000     -0.301140E-02
     12650 MEMB     102      POPE     H14R     HAL2     0.900000E-01   1.00800           0   0.00000     -0.301140E-02
     12651 MEMB     102      POPE     H14S     HAL2     0.900000E-01   1.00800           0   0.00000     -0.301140E-02
     12652 MEMB     102      POPE     C215     CTL2    -0.180000       12.0110           0   0.00000     -0.301140E-02
     12653 MEMB     102      POPE     H15R     HAL2     0.900000E-01   1.00800           0   0.00000     -0.301140E-02
     12654 MEMB     102      POPE     H15S     HAL2     0.900000E-01   1.00800           0   0.00000     -0.301140E-02
     12655 MEMB     102      POPE     C216     CTL2    -0.180000       12.0110           0   0.00000     -0.301140E-02
     12656 MEMB     102      POPE     H16R     HAL2     0.900000E-01   1.00800           0   0.00000     -0.301140E-02
     12657 MEMB     102      POPE     H16S     HAL2     0.900000E-01   1.00800           0   0.00000     -0.301140E-02
     12658 MEMB     102      POPE     C217     CTL2    -0.180000       12.0110           0   0.00000     -0.301140E-02
     12659 MEMB     102      POPE     H17R     HAL2     0.900000E-01   1.00800           0   0.00000     -0.301140E-02
     12660 MEMB     102      POPE     H17S     HAL2     0.900000E-01   1.00800           0   0.00000     -0.301140E-02
     12661 MEMB     102      POPE     C218     CTL3    -0.270000       12.0110           0   0.00000     -0.301140E-02
     12662 MEMB     102      POPE     H18R     HAL3     0.900000E-01   1.00800           0   0.00000     -0.301140E-02
     12663 MEMB     102      POPE     H18S     HAL3     0.900000E-01   1.00800           0   0.00000     -0.301140E-02
     12664 MEMB     102      POPE     H18T     HAL3     0.900000E-01   1.00800           0   0.00000     -0.301140E-02
     12665 MEMB     102      POPE     C33      CTL2    -0.180000       12.0110           0   0.00000     -0.301140E-02
     12666 MEMB     102      POPE     H3X      HAL2     0.900000E-01   1.00800           0   0.00000     -0.301140E-02
     12667 MEMB     102      POPE     H3Y      HAL2     0.900000E-01   1.00800           0   0.00000     -0.301140E-02
     12668 MEMB     102      POPE     C34      CTL2    -0.180000       12.0110           0   0.00000     -0.301140E-02
     12669 MEMB     102      POPE     H4X      HAL2     0.900000E-01   1.00800           0   0.00000     -0.301140E-02
     12670 MEMB     102      POPE     H4Y      HAL2     0.900000E-01   1.00800           0   0.00000     -0.301140E-02
     12671 MEMB     102      POPE     C35      CTL2    -0.180000       12.0110           0   0.00000     -0.301140E-02
     12672 MEMB     102      POPE     H5X      HAL2     0.900000E-01   1.00800           0   0.00000     -0.301140E-02
     12673 MEMB     102      POPE     H5Y      HAL2     0.900000E-01   1.00800           0   0.00000     -0.301140E-02
     12674 MEMB     102      POPE     C36      CTL2    -0.180000       12.0110           0   0.00000     -0.301140E-02
     12675 MEMB     102      POPE     H6X      HAL2     0.900000E-01   1.00800           0   0.00000     -0.301140E-02
     12676 MEMB     102      POPE     H6Y      HAL2     0.900000E-01   1.00800           0   0.00000     -0.301140E-02
     12677 MEMB     102      POPE     C37      CTL2    -0.180000       12.0110           0   0.00000     -0.301140E-02
     12678 MEMB     102      POPE     H7X      HAL2     0.900000E-01   1.00800           0   0.00000     -0.301140E-02
     12679 MEMB     102      POPE     H7Y      HAL2     0.900000E-01   1.00800           0   0.00000     -0.301140E-02
     12680 MEMB     102      POPE     C38      CTL2    -0.180000       12.0110           0   0.00000     -0.301140E-02
     12681 MEMB     102      POPE     H8X      HAL2     0.900000E-01   1.00800           0   0.00000     -0.301140E-02
     12682 MEMB     102      POPE     H8Y      HAL2     0.900000E-01   1.00800           0   0.00000     -0.301140E-02
     12683 MEMB     102      POPE     C39      CTL2    -0.180000       12.0110           0   0.00000     -0.301140E-02
     12684 MEMB     102      POPE     H9X      HAL2     0.900000E-01   1.00800           0   0.00000     -0.301140E-02
     12685 MEMB     102      POPE     H9Y      HAL2     0.900000E-01   1.00800           0   0.00000     -0.301140E-02
     12686 MEMB     102      POPE     C310     CTL2    -0.180000       12.0110           0   0.00000     -0.301140E-02
     12687 MEMB     102      POPE     H10X     HAL2     0.900000E-01   1.00800           0   0.00000     -0.301140E-02
     12688 MEMB     102      POPE     H10Y     HAL2     0.900000E-01   1.00800           0   0.00000     -0.301140E-02
     12689 MEMB     102      POPE     C311     CTL2    -0.180000       12.0110           0   0.00000     -0.301140E-02
     12690 MEMB     102      POPE     H11X     HAL2     0.900000E-01   1.00800           0   0.00000     -0.301140E-02
     12691 MEMB     102      POPE     H11Y     HAL2     0.900000E-01   1.00800           0   0.00000     -0.301140E-02
     12692 MEMB     102      POPE     C312     CTL2    -0.180000       12.0110           0   0.00000     -0.301140E-02
     12693 MEMB     102      POPE     H12X     HAL2     0.900000E-01   1.00800           0   0.00000     -0.301140E-02
     12694 MEMB     102      POPE     H12Y     HAL2     0.900000E-01   1.00800           0   0.00000     -0.301140E-02
     12695 MEMB     102      POPE     C313     CTL2    -0.180000       12.0110           0   0.00000     -0.301140E-02
     12696 MEMB     102      POPE     H13X     HAL2     0.900000E-01   1.00800           0   0.00000     -0.301140E-02
     12697 MEMB     102      POPE     H13Y     HAL2     0.900000E-01   1.00800           0   0.00000     -0.301140E-02
     12698 MEMB     102      POPE     C314     CTL2    -0.180000       12.0110           0   0.00000     -0.301140E-02
     12699 MEMB     102      POPE     H14X     HAL2     0.900000E-01   1.00800           0   0.00000     -0.301140E-02
     12700 MEMB     102      POPE     H14Y     HAL2     0.900000E-01   1.00800           0   0.00000     -0.301140E-02
     12701 MEMB     102      POPE     C315     CTL2    -0.180000       12.0110           0   0.00000     -0.301140E-02
     12702 MEMB     102      POPE     H15X     HAL2     0.900000E-01   1.00800           0   0.00000     -0.301140E-02
     12703 MEMB     102      POPE     H15Y     HAL2     0.900000E-01   1.00800           0   0.00000     -0.301140E-02
     12704 MEMB     102      POPE     C316     CTL3    -0.270000       12.0110           0   0.00000     -0.301140E-02
     12705 MEMB     102      POPE     H16X     HAL3     0.900000E-01   1.00800           0   0.00000     -0.301140E-02
     12706 MEMB     102      POPE     H16Y     HAL3     0.900000E-01   1.00800           0   0.00000     -0.301140E-02
     12707 MEMB     102      POPE     H16Z     HAL3     0.900000E-01   1.00800           0   0.00000     -0.301140E-02
     12708 MEMB     103      PMPE     N        NH3L    -0.300000       14.0070           0   0.00000     -0.301140E-02
     12709 MEMB     103      PMPE     HN1      HCL      0.330000       1.00800           0   0.00000     -0.301140E-02
     12710 MEMB     103      PMPE     HN2      HCL      0.330000       1.00800           0   0.00000     -0.301140E-02
     12711 MEMB     103      PMPE     HN3      HCL      0.330000       1.00800           0   0.00000     -0.301140E-02
     12712 MEMB     103      PMPE     C12      CTL2     0.130000       12.0110           0   0.00000     -0.301140E-02
     12713 MEMB     103      PMPE     H12A     HAL2     0.900000E-01   1.00800           0   0.00000     -0.301140E-02
     12714 MEMB     103      PMPE     H12B     HAL2     0.900000E-01   1.00800           0   0.00000     -0.301140E-02
     12715 MEMB     103      PMPE     C11      CTL2    -0.800000E-01   12.0110           0   0.00000     -0.301140E-02
     12716 MEMB     103      PMPE     H11A     HAL2     0.900000E-01   1.00800           0   0.00000     -0.301140E-02
     12717 MEMB     103      PMPE     H11B     HAL2     0.900000E-01   1.00800           0   0.00000     -0.301140E-02
     12718 MEMB     103      PMPE     P        PL        1.50000       30.9740           0   0.00000     -0.301140E-02
     12719 MEMB     103      PMPE     O13      O2L     -0.780000       15.9994           0   0.00000     -0.301140E-02
     12720 MEMB     103      PMPE     O14      O2L     -0.780000       15.9994           0   0.00000     -0.301140E-02
     12721 MEMB     103      PMPE     O11      OSLP    -0.570000       15.9994           0   0.00000     -0.301140E-02
     12722 MEMB     103      PMPE     O12      OSLP    -0.570000       15.9994           0   0.00000     -0.301140E-02
     12723 MEMB     103      PMPE     C1       CTL2    -0.800000E-01   12.0110           0   0.00000     -0.301140E-02
     12724 MEMB     103      PMPE     HA       HAL2     0.900000E-01   1.00800           0   0.00000     -0.301140E-02
     12725 MEMB     103      PMPE     HB       HAL2     0.900000E-01   1.00800           0   0.00000     -0.301140E-02
     12726 MEMB     103      PMPE     C2       CTL1     0.170000       12.0110           0   0.00000     -0.301140E-02
     12727 MEMB     103      PMPE     HS       HAL1     0.900000E-01   1.00800           0   0.00000     -0.301140E-02
     12728 MEMB     103      PMPE     O21      OSL     -0.490000       15.9994           0   0.00000     -0.301140E-02
     12729 MEMB     103      PMPE     C21      CL       0.900000       12.0110           0   0.00000     -0.301140E-02
     12730 MEMB     103      PMPE     O22      OBL     -0.630000       15.9994           0   0.00000     -0.301140E-02
     12731 MEMB     103      PMPE     C22      CTL2    -0.220000       12.0110           0   0.00000     -0.301140E-02
     12732 MEMB     103      PMPE     H2R      HAL2     0.900000E-01   1.00800           0   0.00000     -0.301140E-02
     12733 MEMB     103      PMPE     H2S      HAL2     0.900000E-01   1.00800           0   0.00000     -0.301140E-02
     12734 MEMB     103      PMPE     C3       CTL2     0.800000E-01   12.0110           0   0.00000     -0.301140E-02
     12735 MEMB     103      PMPE     HX       HAL2     0.900000E-01   1.00800           0   0.00000     -0.301140E-02
     12736 MEMB     103      PMPE     HY       HAL2     0.900000E-01   1.00800           0   0.00000     -0.301140E-02
     12737 MEMB     103      PMPE     O31      OSL     -0.490000       15.9994           0   0.00000     -0.301140E-02
     12738 MEMB     103      PMPE     C31      CL       0.900000       12.0110           0   0.00000     -0.301140E-02
     12739 MEMB     103      PMPE     O32      OBL     -0.630000       15.9994           0   0.00000     -0.301140E-02
     12740 MEMB     103      PMPE     C32      CTL2    -0.220000       12.0110           0   0.00000     -0.301140E-02
     12741 MEMB     103      PMPE     H2X      HAL2     0.900000E-01   1.00800           0   0.00000     -0.301140E-02
     12742 MEMB     103      PMPE     H2Y      HAL2     0.900000E-01   1.00800           0   0.00000     -0.301140E-02
     12743 MEMB     103      PMPE     C23      CTL2    -0.180000       12.0110           0   0.00000     -0.301140E-02
     12744 MEMB     103      PMPE     H3R      HAL2     0.900000E-01   1.00800           0   0.00000     -0.301140E-02
     12745 MEMB     103      PMPE     H3S      HAL2     0.900000E-01   1.00800           0   0.00000     -0.301140E-02
     12746 MEMB     103      PMPE     C24      CTL2    -0.180000       12.0110           0   0.00000     -0.301140E-02
     12747 MEMB     103      PMPE     H4R      HAL2     0.900000E-01   1.00800           0   0.00000     -0.301140E-02
     12748 MEMB     103      PMPE     H4S      HAL2     0.900000E-01   1.00800           0   0.00000     -0.301140E-02
     12749 MEMB     103      PMPE     C25      CTL2    -0.180000       12.0110           0   0.00000     -0.301140E-02
     12750 MEMB     103      PMPE     H5R      HAL2     0.900000E-01   1.00800           0   0.00000     -0.301140E-02
     12751 MEMB     103      PMPE     H5S      HAL2     0.900000E-01   1.00800           0   0.00000     -0.301140E-02
     12752 MEMB     103      PMPE     C26      CTL2    -0.180000       12.0110           0   0.00000     -0.301140E-02
     12753 MEMB     103      PMPE     H6R      HAL2     0.900000E-01   1.00800           0   0.00000     -0.301140E-02
     12754 MEMB     103      PMPE     H6S      HAL2     0.900000E-01   1.00800           0   0.00000     -0.301140E-02
     12755 MEMB     103      PMPE     C27      CTL2    -0.180000       12.0110           0   0.00000     -0.301140E-02
     12756 MEMB     103      PMPE     H7R      HAL2     0.900000E-01   1.00800           0   0.00000     -0.301140E-02
     12757 MEMB     103      PMPE     H7S      HAL2     0.900000E-01   1.00800           0   0.00000     -0.301140E-02
     12758 MEMB     103      PMPE     C28      CTL2    -0.180000       12.0110           0   0.00000     -0.301140E-02
     12759 MEMB     103      PMPE     H8R      HAL2     0.900000E-01   1.00800           0   0.00000     -0.301140E-02
     12760 MEMB     103      PMPE     H8S      HAL2     0.900000E-01   1.00800           0   0.00000     -0.301140E-02
     12761 MEMB     103      PMPE     C29      CG3RC1  -0.900000E-01   12.0110           0   0.00000     -0.301140E-02
     12762 MEMB     103      PMPE     H9R      HGA1     0.900000E-01   1.00800           0   0.00000     -0.301140E-02
     12763 MEMB     103      PMPE     C217     CG3C31  -0.180000       12.0110           0   0.00000     -0.301140E-02
     12764 MEMB     103      PMPE     H17R     HGA2     0.900000E-01   1.00800           0   0.00000     -0.301140E-02
     12765 MEMB     103      PMPE     H17S     HGA2     0.900000E-01   1.00800           0   0.00000     -0.301140E-02
     12766 MEMB     103      PMPE     C210     CG3RC1  -0.900000E-01   12.0110           0   0.00000     -0.301140E-02
     12767 MEMB     103      PMPE     H10R     HGA1     0.900000E-01   1.00800           0   0.00000     -0.301140E-02
     12768 MEMB     103      PMPE     C211     CTL2    -0.180000       12.0110           0   0.00000     -0.301140E-02
     12769 MEMB     103      PMPE     H11R     HAL2     0.900000E-01   1.00800           0   0.00000     -0.301140E-02
     12770 MEMB     103      PMPE     H11S     HAL2     0.900000E-01   1.00800           0   0.00000     -0.301140E-02
     12771 MEMB     103      PMPE     C212     CTL2    -0.180000       12.0110           0   0.00000     -0.301140E-02
     12772 MEMB     103      PMPE     H12R     HAL2     0.900000E-01   1.00800           0   0.00000     -0.301140E-02
     12773 MEMB     103      PMPE     H12S     HAL2     0.900000E-01   1.00800           0   0.00000     -0.301140E-02
     12774 MEMB     103      PMPE     C213     CTL2    -0.180000       12.0110           0   0.00000     -0.301140E-02
     12775 MEMB     103      PMPE     H13R     HAL2     0.900000E-01   1.00800           0   0.00000     -0.301140E-02
     12776 MEMB     103      PMPE     H13S     HAL2     0.900000E-01   1.00800           0   0.00000     -0.301140E-02
     12777 MEMB     103      PMPE     C214     CTL2    -0.180000       12.0110           0   0.00000     -0.301140E-02
     12778 MEMB     103      PMPE     H14R     HAL2     0.900000E-01   1.00800           0   0.00000     -0.301140E-02
     12779 MEMB     103      PMPE     H14S     HAL2     0.900000E-01   1.00800           0   0.00000     -0.301140E-02
     12780 MEMB     103      PMPE     C215     CTL2    -0.180000       12.0110           0   0.00000     -0.301140E-02
     12781 MEMB     103      PMPE     H15R     HAL2     0.900000E-01   1.00800           0   0.00000     -0.301140E-02
     12782 MEMB     103      PMPE     H15S     HAL2     0.900000E-01   1.00800           0   0.00000     -0.301140E-02
     12783 MEMB     103      PMPE     C216     CTL3    -0.270000       12.0110           0   0.00000     -0.301140E-02
     12784 MEMB     103      PMPE     H16R     HAL3     0.900000E-01   1.00800           0   0.00000     -0.301140E-02
     12785 MEMB     103      PMPE     H16S     HAL3     0.900000E-01   1.00800           0   0.00000     -0.301140E-02
     12786 MEMB     103      PMPE     H16T     HAL3     0.900000E-01   1.00800           0   0.00000     -0.301140E-02
     12787 MEMB     103      PMPE     C33      CTL2    -0.180000       12.0110           0   0.00000     -0.301140E-02
     12788 MEMB     103      PMPE     H3X      HAL2     0.900000E-01   1.00800           0   0.00000     -0.301140E-02
     12789 MEMB     103      PMPE     H3Y      HAL2     0.900000E-01   1.00800           0   0.00000     -0.301140E-02
     12790 MEMB     103      PMPE     C34      CTL2    -0.180000       12.0110           0   0.00000     -0.301140E-02
     12791 MEMB     103      PMPE     H4X      HAL2     0.900000E-01   1.00800           0   0.00000     -0.301140E-02
     12792 MEMB     103      PMPE     H4Y      HAL2     0.900000E-01   1.00800           0   0.00000     -0.301140E-02
     12793 MEMB     103      PMPE     C35      CTL2    -0.180000       12.0110           0   0.00000     -0.301140E-02
     12794 MEMB     103      PMPE     H5X      HAL2     0.900000E-01   1.00800           0   0.00000     -0.301140E-02
     12795 MEMB     103      PMPE     H5Y      HAL2     0.900000E-01   1.00800           0   0.00000     -0.301140E-02
     12796 MEMB     103      PMPE     C36      CTL2    -0.180000       12.0110           0   0.00000     -0.301140E-02
     12797 MEMB     103      PMPE     H6X      HAL2     0.900000E-01   1.00800           0   0.00000     -0.301140E-02
     12798 MEMB     103      PMPE     H6Y      HAL2     0.900000E-01   1.00800           0   0.00000     -0.301140E-02
     12799 MEMB     103      PMPE     C37      CTL2    -0.180000       12.0110           0   0.00000     -0.301140E-02
     12800 MEMB     103      PMPE     H7X      HAL2     0.900000E-01   1.00800           0   0.00000     -0.301140E-02
     12801 MEMB     103      PMPE     H7Y      HAL2     0.900000E-01   1.00800           0   0.00000     -0.301140E-02
     12802 MEMB     103      PMPE     C38      CTL2    -0.180000       12.0110           0   0.00000     -0.301140E-02
     12803 MEMB     103      PMPE     H8X      HAL2     0.900000E-01   1.00800           0   0.00000     -0.301140E-02
     12804 MEMB     103      PMPE     H8Y      HAL2     0.900000E-01   1.00800           0   0.00000     -0.301140E-02
     12805 MEMB     103      PMPE     C39      CTL2    -0.180000       12.0110           0   0.00000     -0.301140E-02
     12806 MEMB     103      PMPE     H9X      HAL2     0.900000E-01   1.00800           0   0.00000     -0.301140E-02
     12807 MEMB     103      PMPE     H9Y      HAL2     0.900000E-01   1.00800           0   0.00000     -0.301140E-02
     12808 MEMB     103      PMPE     C310     CTL2    -0.180000       12.0110           0   0.00000     -0.301140E-02
     12809 MEMB     103      PMPE     H10X     HAL2     0.900000E-01   1.00800           0   0.00000     -0.301140E-02
     12810 MEMB     103      PMPE     H10Y     HAL2     0.900000E-01   1.00800           0   0.00000     -0.301140E-02
     12811 MEMB     103      PMPE     C311     CTL2    -0.180000       12.0110           0   0.00000     -0.301140E-02
     12812 MEMB     103      PMPE     H11X     HAL2     0.900000E-01   1.00800           0   0.00000     -0.301140E-02
     12813 MEMB     103      PMPE     H11Y     HAL2     0.900000E-01   1.00800           0   0.00000     -0.301140E-02
     12814 MEMB     103      PMPE     C312     CTL2    -0.180000       12.0110           0   0.00000     -0.301140E-02
     12815 MEMB     103      PMPE     H12X     HAL2     0.900000E-01   1.00800           0   0.00000     -0.301140E-02
     12816 MEMB     103      PMPE     H12Y     HAL2     0.900000E-01   1.00800           0   0.00000     -0.301140E-02
     12817 MEMB     103      PMPE     C313     CTL2    -0.180000       12.0110           0   0.00000     -0.301140E-02
     12818 MEMB     103      PMPE     H13X     HAL2     0.900000E-01   1.00800           0   0.00000     -0.301140E-02
     12819 MEMB     103      PMPE     H13Y     HAL2     0.900000E-01   1.00800           0   0.00000     -0.301140E-02
     12820 MEMB     103      PMPE     C314     CTL2    -0.180000       12.0110           0   0.00000     -0.301140E-02
     12821 MEMB     103      PMPE     H14X     HAL2     0.900000E-01   1.00800           0   0.00000     -0.301140E-02
     12822 MEMB     103      PMPE     H14Y     HAL2     0.900000E-01   1.00800           0   0.00000     -0.301140E-02
     12823 MEMB     103      PMPE     C315     CTL2    -0.180000       12.0110           0   0.00000     -0.301140E-02
     12824 MEMB     103      PMPE     H15X     HAL2     0.900000E-01   1.00800           0   0.00000     -0.301140E-02
     12825 MEMB     103      PMPE     H15Y     HAL2     0.900000E-01   1.00800           0   0.00000     -0.301140E-02
     12826 MEMB     103      PMPE     C316     CTL3    -0.270000       12.0110           0   0.00000     -0.301140E-02
     12827 MEMB     103      PMPE     H16X     HAL3     0.900000E-01   1.00800           0   0.00000     -0.301140E-02
     12828 MEMB     103      PMPE     H16Y     HAL3     0.900000E-01   1.00800           0   0.00000     -0.301140E-02
     12829 MEMB     103      PMPE     H16Z     HAL3     0.900000E-01   1.00800           0   0.00000     -0.301140E-02
     12830 MEMB     104      PMPE     N        NH3L    -0.300000       14.0070           0   0.00000     -0.301140E-02
     12831 MEMB     104      PMPE     HN1      HCL      0.330000       1.00800           0   0.00000     -0.301140E-02
     12832 MEMB     104      PMPE     HN2      HCL      0.330000       1.00800           0   0.00000     -0.301140E-02
     12833 MEMB     104      PMPE     HN3      HCL      0.330000       1.00800           0   0.00000     -0.301140E-02
     12834 MEMB     104      PMPE     C12      CTL2     0.130000       12.0110           0   0.00000     -0.301140E-02
     12835 MEMB     104      PMPE     H12A     HAL2     0.900000E-01   1.00800           0   0.00000     -0.301140E-02
     12836 MEMB     104      PMPE     H12B     HAL2     0.900000E-01   1.00800           0   0.00000     -0.301140E-02
     12837 MEMB     104      PMPE     C11      CTL2    -0.800000E-01   12.0110           0   0.00000     -0.301140E-02
     12838 MEMB     104      PMPE     H11A     HAL2     0.900000E-01   1.00800           0   0.00000     -0.301140E-02
     12839 MEMB     104      PMPE     H11B     HAL2     0.900000E-01   1.00800           0   0.00000     -0.301140E-02
     12840 MEMB     104      PMPE     P        PL        1.50000       30.9740           0   0.00000     -0.301140E-02
     12841 MEMB     104      PMPE     O13      O2L     -0.780000       15.9994           0   0.00000     -0.301140E-02
     12842 MEMB     104      PMPE     O14      O2L     -0.780000       15.9994           0   0.00000     -0.301140E-02
     12843 MEMB     104      PMPE     O11      OSLP    -0.570000       15.9994           0   0.00000     -0.301140E-02
     12844 MEMB     104      PMPE     O12      OSLP    -0.570000       15.9994           0   0.00000     -0.301140E-02
     12845 MEMB     104      PMPE     C1       CTL2    -0.800000E-01   12.0110           0   0.00000     -0.301140E-02
     12846 MEMB     104      PMPE     HA       HAL2     0.900000E-01   1.00800           0   0.00000     -0.301140E-02
     12847 MEMB     104      PMPE     HB       HAL2     0.900000E-01   1.00800           0   0.00000     -0.301140E-02
     12848 MEMB     104      PMPE     C2       CTL1     0.170000       12.0110           0   0.00000     -0.301140E-02
     12849 MEMB     104      PMPE     HS       HAL1     0.900000E-01   1.00800           0   0.00000     -0.301140E-02
     12850 MEMB     104      PMPE     O21      OSL     -0.490000       15.9994           0   0.00000     -0.301140E-02
     12851 MEMB     104      PMPE     C21      CL       0.900000       12.0110           0   0.00000     -0.301140E-02
     12852 MEMB     104      PMPE     O22      OBL     -0.630000       15.9994           0   0.00000     -0.301140E-02
     12853 MEMB     104      PMPE     C22      CTL2    -0.220000       12.0110           0   0.00000     -0.301140E-02
     12854 MEMB     104      PMPE     H2R      HAL2     0.900000E-01   1.00800           0   0.00000     -0.301140E-02
     12855 MEMB     104      PMPE     H2S      HAL2     0.900000E-01   1.00800           0   0.00000     -0.301140E-02
     12856 MEMB     104      PMPE     C3       CTL2     0.800000E-01   12.0110           0   0.00000     -0.301140E-02
     12857 MEMB     104      PMPE     HX       HAL2     0.900000E-01   1.00800           0   0.00000     -0.301140E-02
     12858 MEMB     104      PMPE     HY       HAL2     0.900000E-01   1.00800           0   0.00000     -0.301140E-02
     12859 MEMB     104      PMPE     O31      OSL     -0.490000       15.9994           0   0.00000     -0.301140E-02
     12860 MEMB     104      PMPE     C31      CL       0.900000       12.0110           0   0.00000     -0.301140E-02
     12861 MEMB     104      PMPE     O32      OBL     -0.630000       15.9994           0   0.00000     -0.301140E-02
     12862 MEMB     104      PMPE     C32      CTL2    -0.220000       12.0110           0   0.00000     -0.301140E-02
     12863 MEMB     104      PMPE     H2X      HAL2     0.900000E-01   1.00800           0   0.00000     -0.301140E-02
     12864 MEMB     104      PMPE     H2Y      HAL2     0.900000E-01   1.00800           0   0.00000     -0.301140E-02
     12865 MEMB     104      PMPE     C23      CTL2    -0.180000       12.0110           0   0.00000     -0.301140E-02
     12866 MEMB     104      PMPE     H3R      HAL2     0.900000E-01   1.00800           0   0.00000     -0.301140E-02
     12867 MEMB     104      PMPE     H3S      HAL2     0.900000E-01   1.00800           0   0.00000     -0.301140E-02
     12868 MEMB     104      PMPE     C24      CTL2    -0.180000       12.0110           0   0.00000     -0.301140E-02
     12869 MEMB     104      PMPE     H4R      HAL2     0.900000E-01   1.00800           0   0.00000     -0.301140E-02
     12870 MEMB     104      PMPE     H4S      HAL2     0.900000E-01   1.00800           0   0.00000     -0.301140E-02
     12871 MEMB     104      PMPE     C25      CTL2    -0.180000       12.0110           0   0.00000     -0.301140E-02
     12872 MEMB     104      PMPE     H5R      HAL2     0.900000E-01   1.00800           0   0.00000     -0.301140E-02
     12873 MEMB     104      PMPE     H5S      HAL2     0.900000E-01   1.00800           0   0.00000     -0.301140E-02
     12874 MEMB     104      PMPE     C26      CTL2    -0.180000       12.0110           0   0.00000     -0.301140E-02
     12875 MEMB     104      PMPE     H6R      HAL2     0.900000E-01   1.00800           0   0.00000     -0.301140E-02
     12876 MEMB     104      PMPE     H6S      HAL2     0.900000E-01   1.00800           0   0.00000     -0.301140E-02
     12877 MEMB     104      PMPE     C27      CTL2    -0.180000       12.0110           0   0.00000     -0.301140E-02
     12878 MEMB     104      PMPE     H7R      HAL2     0.900000E-01   1.00800           0   0.00000     -0.301140E-02
     12879 MEMB     104      PMPE     H7S      HAL2     0.900000E-01   1.00800           0   0.00000     -0.301140E-02
     12880 MEMB     104      PMPE     C28      CTL2    -0.180000       12.0110           0   0.00000     -0.301140E-02
     12881 MEMB     104      PMPE     H8R      HAL2     0.900000E-01   1.00800           0   0.00000     -0.301140E-02
     12882 MEMB     104      PMPE     H8S      HAL2     0.900000E-01   1.00800           0   0.00000     -0.301140E-02
     12883 MEMB     104      PMPE     C29      CG3RC1  -0.900000E-01   12.0110           0   0.00000     -0.301140E-02
     12884 MEMB     104      PMPE     H9R      HGA1     0.900000E-01   1.00800           0   0.00000     -0.301140E-02
     12885 MEMB     104      PMPE     C217     CG3C31  -0.180000       12.0110           0   0.00000     -0.301140E-02
     12886 MEMB     104      PMPE     H17R     HGA2     0.900000E-01   1.00800           0   0.00000     -0.301140E-02
     12887 MEMB     104      PMPE     H17S     HGA2     0.900000E-01   1.00800           0   0.00000     -0.301140E-02
     12888 MEMB     104      PMPE     C210     CG3RC1  -0.900000E-01   12.0110           0   0.00000     -0.301140E-02
     12889 MEMB     104      PMPE     H10R     HGA1     0.900000E-01   1.00800           0   0.00000     -0.301140E-02
     12890 MEMB     104      PMPE     C211     CTL2    -0.180000       12.0110           0   0.00000     -0.301140E-02
     12891 MEMB     104      PMPE     H11R     HAL2     0.900000E-01   1.00800           0   0.00000     -0.301140E-02
     12892 MEMB     104      PMPE     H11S     HAL2     0.900000E-01   1.00800           0   0.00000     -0.301140E-02
     12893 MEMB     104      PMPE     C212     CTL2    -0.180000       12.0110           0   0.00000     -0.301140E-02
     12894 MEMB     104      PMPE     H12R     HAL2     0.900000E-01   1.00800           0   0.00000     -0.301140E-02
     12895 MEMB     104      PMPE     H12S     HAL2     0.900000E-01   1.00800           0   0.00000     -0.301140E-02
     12896 MEMB     104      PMPE     C213     CTL2    -0.180000       12.0110           0   0.00000     -0.301140E-02
     12897 MEMB     104      PMPE     H13R     HAL2     0.900000E-01   1.00800           0   0.00000     -0.301140E-02
     12898 MEMB     104      PMPE     H13S     HAL2     0.900000E-01   1.00800           0   0.00000     -0.301140E-02
     12899 MEMB     104      PMPE     C214     CTL2    -0.180000       12.0110           0   0.00000     -0.301140E-02
     12900 MEMB     104      PMPE     H14R     HAL2     0.900000E-01   1.00800           0   0.00000     -0.301140E-02
     12901 MEMB     104      PMPE     H14S     HAL2     0.900000E-01   1.00800           0   0.00000     -0.301140E-02
     12902 MEMB     104      PMPE     C215     CTL2    -0.180000       12.0110           0   0.00000     -0.301140E-02
     12903 MEMB     104      PMPE     H15R     HAL2     0.900000E-01   1.00800           0   0.00000     -0.301140E-02
     12904 MEMB     104      PMPE     H15S     HAL2     0.900000E-01   1.00800           0   0.00000     -0.301140E-02
     12905 MEMB     104      PMPE     C216     CTL3    -0.270000       12.0110           0   0.00000     -0.301140E-02
     12906 MEMB     104      PMPE     H16R     HAL3     0.900000E-01   1.00800           0   0.00000     -0.301140E-02
     12907 MEMB     104      PMPE     H16S     HAL3     0.900000E-01   1.00800           0   0.00000     -0.301140E-02
     12908 MEMB     104      PMPE     H16T     HAL3     0.900000E-01   1.00800           0   0.00000     -0.301140E-02
     12909 MEMB     104      PMPE     C33      CTL2    -0.180000       12.0110           0   0.00000     -0.301140E-02
     12910 MEMB     104      PMPE     H3X      HAL2     0.900000E-01   1.00800           0   0.00000     -0.301140E-02
     12911 MEMB     104      PMPE     H3Y      HAL2     0.900000E-01   1.00800           0   0.00000     -0.301140E-02
     12912 MEMB     104      PMPE     C34      CTL2    -0.180000       12.0110           0   0.00000     -0.301140E-02
     12913 MEMB     104      PMPE     H4X      HAL2     0.900000E-01   1.00800           0   0.00000     -0.301140E-02
     12914 MEMB     104      PMPE     H4Y      HAL2     0.900000E-01   1.00800           0   0.00000     -0.301140E-02
     12915 MEMB     104      PMPE     C35      CTL2    -0.180000       12.0110           0   0.00000     -0.301140E-02
     12916 MEMB     104      PMPE     H5X      HAL2     0.900000E-01   1.00800           0   0.00000     -0.301140E-02
     12917 MEMB     104      PMPE     H5Y      HAL2     0.900000E-01   1.00800           0   0.00000     -0.301140E-02
     12918 MEMB     104      PMPE     C36      CTL2    -0.180000       12.0110           0   0.00000     -0.301140E-02
     12919 MEMB     104      PMPE     H6X      HAL2     0.900000E-01   1.00800           0   0.00000     -0.301140E-02
     12920 MEMB     104      PMPE     H6Y      HAL2     0.900000E-01   1.00800           0   0.00000     -0.301140E-02
     12921 MEMB     104      PMPE     C37      CTL2    -0.180000       12.0110           0   0.00000     -0.301140E-02
     12922 MEMB     104      PMPE     H7X      HAL2     0.900000E-01   1.00800           0   0.00000     -0.301140E-02
     12923 MEMB     104      PMPE     H7Y      HAL2     0.900000E-01   1.00800           0   0.00000     -0.301140E-02
     12924 MEMB     104      PMPE     C38      CTL2    -0.180000       12.0110           0   0.00000     -0.301140E-02
     12925 MEMB     104      PMPE     H8X      HAL2     0.900000E-01   1.00800           0   0.00000     -0.301140E-02
     12926 MEMB     104      PMPE     H8Y      HAL2     0.900000E-01   1.00800           0   0.00000     -0.301140E-02
     12927 MEMB     104      PMPE     C39      CTL2    -0.180000       12.0110           0   0.00000     -0.301140E-02
     12928 MEMB     104      PMPE     H9X      HAL2     0.900000E-01   1.00800           0   0.00000     -0.301140E-02
     12929 MEMB     104      PMPE     H9Y      HAL2     0.900000E-01   1.00800           0   0.00000     -0.301140E-02
     12930 MEMB     104      PMPE     C310     CTL2    -0.180000       12.0110           0   0.00000     -0.301140E-02
     12931 MEMB     104      PMPE     H10X     HAL2     0.900000E-01   1.00800           0   0.00000     -0.301140E-02
     12932 MEMB     104      PMPE     H10Y     HAL2     0.900000E-01   1.00800           0   0.00000     -0.301140E-02
     12933 MEMB     104      PMPE     C311     CTL2    -0.180000       12.0110           0   0.00000     -0.301140E-02
     12934 MEMB     104      PMPE     H11X     HAL2     0.900000E-01   1.00800           0   0.00000     -0.301140E-02
     12935 MEMB     104      PMPE     H11Y     HAL2     0.900000E-01   1.00800           0   0.00000     -0.301140E-02
     12936 MEMB     104      PMPE     C312     CTL2    -0.180000       12.0110           0   0.00000     -0.301140E-02
     12937 MEMB     104      PMPE     H12X     HAL2     0.900000E-01   1.00800           0   0.00000     -0.301140E-02
     12938 MEMB     104      PMPE     H12Y     HAL2     0.900000E-01   1.00800           0   0.00000     -0.301140E-02
     12939 MEMB     104      PMPE     C313     CTL2    -0.180000       12.0110           0   0.00000     -0.301140E-02
     12940 MEMB     104      PMPE     H13X     HAL2     0.900000E-01   1.00800           0   0.00000     -0.301140E-02
     12941 MEMB     104      PMPE     H13Y     HAL2     0.900000E-01   1.00800           0   0.00000     -0.301140E-02
     12942 MEMB     104      PMPE     C314     CTL2    -0.180000       12.0110           0   0.00000     -0.301140E-02
     12943 MEMB     104      PMPE     H14X     HAL2     0.900000E-01   1.00800           0   0.00000     -0.301140E-02
     12944 MEMB     104      PMPE     H14Y     HAL2     0.900000E-01   1.00800           0   0.00000     -0.301140E-02
     12945 MEMB     104      PMPE     C315     CTL2    -0.180000       12.0110           0   0.00000     -0.301140E-02
     12946 MEMB     104      PMPE     H15X     HAL2     0.900000E-01   1.00800           0   0.00000     -0.301140E-02
     12947 MEMB     104      PMPE     H15Y     HAL2     0.900000E-01   1.00800           0   0.00000     -0.301140E-02
     12948 MEMB     104      PMPE     C316     CTL3    -0.270000       12.0110           0   0.00000     -0.301140E-02
     12949 MEMB     104      PMPE     H16X     HAL3     0.900000E-01   1.00800           0   0.00000     -0.301140E-02
     12950 MEMB     104      PMPE     H16Y     HAL3     0.900000E-01   1.00800           0   0.00000     -0.301140E-02
     12951 MEMB     104      PMPE     H16Z     HAL3     0.900000E-01   1.00800           0   0.00000     -0.301140E-02
     12952 MEMB     105      QMPE     N        NH3L    -0.300000       14.0070           0   0.00000     -0.301140E-02
     12953 MEMB     105      QMPE     HN1      HCL      0.330000       1.00800           0   0.00000     -0.301140E-02
     12954 MEMB     105      QMPE     HN2      HCL      0.330000       1.00800           0   0.00000     -0.301140E-02
     12955 MEMB     105      QMPE     HN3      HCL      0.330000       1.00800           0   0.00000     -0.301140E-02
     12956 MEMB     105      QMPE     C12      CTL2     0.130000       12.0110           0   0.00000     -0.301140E-02
     12957 MEMB     105      QMPE     H12A     HAL2     0.900000E-01   1.00800           0   0.00000     -0.301140E-02
     12958 MEMB     105      QMPE     H12B     HAL2     0.900000E-01   1.00800           0   0.00000     -0.301140E-02
     12959 MEMB     105      QMPE     C11      CTL2    -0.800000E-01   12.0110           0   0.00000     -0.301140E-02
     12960 MEMB     105      QMPE     H11A     HAL2     0.900000E-01   1.00800           0   0.00000     -0.301140E-02
     12961 MEMB     105      QMPE     H11B     HAL2     0.900000E-01   1.00800           0   0.00000     -0.301140E-02
     12962 MEMB     105      QMPE     P        PL        1.50000       30.9740           0   0.00000     -0.301140E-02
     12963 MEMB     105      QMPE     O13      O2L     -0.780000       15.9994           0   0.00000     -0.301140E-02
     12964 MEMB     105      QMPE     O14      O2L     -0.780000       15.9994           0   0.00000     -0.301140E-02
     12965 MEMB     105      QMPE     O11      OSLP    -0.570000       15.9994           0   0.00000     -0.301140E-02
     12966 MEMB     105      QMPE     O12      OSLP    -0.570000       15.9994           0   0.00000     -0.301140E-02
     12967 MEMB     105      QMPE     C1       CTL2    -0.800000E-01   12.0110           0   0.00000     -0.301140E-02
     12968 MEMB     105      QMPE     HA       HAL2     0.900000E-01   1.00800           0   0.00000     -0.301140E-02
     12969 MEMB     105      QMPE     HB       HAL2     0.900000E-01   1.00800           0   0.00000     -0.301140E-02
     12970 MEMB     105      QMPE     C2       CTL1     0.170000       12.0110           0   0.00000     -0.301140E-02
     12971 MEMB     105      QMPE     HS       HAL1     0.900000E-01   1.00800           0   0.00000     -0.301140E-02
     12972 MEMB     105      QMPE     O21      OSL     -0.490000       15.9994           0   0.00000     -0.301140E-02
     12973 MEMB     105      QMPE     C21      CL       0.900000       12.0110           0   0.00000     -0.301140E-02
     12974 MEMB     105      QMPE     O22      OBL     -0.630000       15.9994           0   0.00000     -0.301140E-02
     12975 MEMB     105      QMPE     C22      CTL2    -0.220000       12.0110           0   0.00000     -0.301140E-02
     12976 MEMB     105      QMPE     H2R      HAL2     0.900000E-01   1.00800           0   0.00000     -0.301140E-02
     12977 MEMB     105      QMPE     H2S      HAL2     0.900000E-01   1.00800           0   0.00000     -0.301140E-02
     12978 MEMB     105      QMPE     C3       CTL2     0.800000E-01   12.0110           0   0.00000     -0.301140E-02
     12979 MEMB     105      QMPE     HX       HAL2     0.900000E-01   1.00800           0   0.00000     -0.301140E-02
     12980 MEMB     105      QMPE     HY       HAL2     0.900000E-01   1.00800           0   0.00000     -0.301140E-02
     12981 MEMB     105      QMPE     O31      OSL     -0.490000       15.9994           0   0.00000     -0.301140E-02
     12982 MEMB     105      QMPE     C31      CL       0.900000       12.0110           0   0.00000     -0.301140E-02
     12983 MEMB     105      QMPE     O32      OBL     -0.630000       15.9994           0   0.00000     -0.301140E-02
     12984 MEMB     105      QMPE     C32      CTL2    -0.220000       12.0110           0   0.00000     -0.301140E-02
     12985 MEMB     105      QMPE     H2X      HAL2     0.900000E-01   1.00800           0   0.00000     -0.301140E-02
     12986 MEMB     105      QMPE     H2Y      HAL2     0.900000E-01   1.00800           0   0.00000     -0.301140E-02
     12987 MEMB     105      QMPE     C23      CTL2    -0.180000       12.0110           0   0.00000     -0.301140E-02
     12988 MEMB     105      QMPE     H3R      HAL2     0.900000E-01   1.00800           0   0.00000     -0.301140E-02
     12989 MEMB     105      QMPE     H3S      HAL2     0.900000E-01   1.00800           0   0.00000     -0.301140E-02
     12990 MEMB     105      QMPE     C24      CTL2    -0.180000       12.0110           0   0.00000     -0.301140E-02
     12991 MEMB     105      QMPE     H4R      HAL2     0.900000E-01   1.00800           0   0.00000     -0.301140E-02
     12992 MEMB     105      QMPE     H4S      HAL2     0.900000E-01   1.00800           0   0.00000     -0.301140E-02
     12993 MEMB     105      QMPE     C25      CTL2    -0.180000       12.0110           0   0.00000     -0.301140E-02
     12994 MEMB     105      QMPE     H5R      HAL2     0.900000E-01   1.00800           0   0.00000     -0.301140E-02
     12995 MEMB     105      QMPE     H5S      HAL2     0.900000E-01   1.00800           0   0.00000     -0.301140E-02
     12996 MEMB     105      QMPE     C26      CTL2    -0.180000       12.0110           0   0.00000     -0.301140E-02
     12997 MEMB     105      QMPE     H6R      HAL2     0.900000E-01   1.00800           0   0.00000     -0.301140E-02
     12998 MEMB     105      QMPE     H6S      HAL2     0.900000E-01   1.00800           0   0.00000     -0.301140E-02
     12999 MEMB     105      QMPE     C27      CTL2    -0.180000       12.0110           0   0.00000     -0.301140E-02
     13000 MEMB     105      QMPE     H7R      HAL2     0.900000E-01   1.00800           0   0.00000     -0.301140E-02
     13001 MEMB     105      QMPE     H7S      HAL2     0.900000E-01   1.00800           0   0.00000     -0.301140E-02
     13002 MEMB     105      QMPE     C28      CTL2    -0.180000       12.0110           0   0.00000     -0.301140E-02
     13003 MEMB     105      QMPE     H8R      HAL2     0.900000E-01   1.00800           0   0.00000     -0.301140E-02
     13004 MEMB     105      QMPE     H8S      HAL2     0.900000E-01   1.00800           0   0.00000     -0.301140E-02
     13005 MEMB     105      QMPE     C29      CG3RC1  -0.900000E-01   12.0110           0   0.00000     -0.301140E-02
     13006 MEMB     105      QMPE     H9R      HGA1     0.900000E-01   1.00800           0   0.00000     -0.301140E-02
     13007 MEMB     105      QMPE     C217     CG3C31  -0.180000       12.0110           0   0.00000     -0.301140E-02
     13008 MEMB     105      QMPE     H17R     HGA2     0.900000E-01   1.00800           0   0.00000     -0.301140E-02
     13009 MEMB     105      QMPE     H17S     HGA2     0.900000E-01   1.00800           0   0.00000     -0.301140E-02
     13010 MEMB     105      QMPE     C210     CG3RC1  -0.900000E-01   12.0110           0   0.00000     -0.301140E-02
     13011 MEMB     105      QMPE     H10R     HGA1     0.900000E-01   1.00800           0   0.00000     -0.301140E-02
     13012 MEMB     105      QMPE     C211     CTL2    -0.180000       12.0110           0   0.00000     -0.301140E-02
     13013 MEMB     105      QMPE     H11R     HAL2     0.900000E-01   1.00800           0   0.00000     -0.301140E-02
     13014 MEMB     105      QMPE     H11S     HAL2     0.900000E-01   1.00800           0   0.00000     -0.301140E-02
     13015 MEMB     105      QMPE     C212     CTL2    -0.180000       12.0110           0   0.00000     -0.301140E-02
     13016 MEMB     105      QMPE     H12R     HAL2     0.900000E-01   1.00800           0   0.00000     -0.301140E-02
     13017 MEMB     105      QMPE     H12S     HAL2     0.900000E-01   1.00800           0   0.00000     -0.301140E-02
     13018 MEMB     105      QMPE     C213     CTL2    -0.180000       12.0110           0   0.00000     -0.301140E-02
     13019 MEMB     105      QMPE     H13R     HAL2     0.900000E-01   1.00800           0   0.00000     -0.301140E-02
     13020 MEMB     105      QMPE     H13S     HAL2     0.900000E-01   1.00800           0   0.00000     -0.301140E-02
     13021 MEMB     105      QMPE     C214     CTL2    -0.180000       12.0110           0   0.00000     -0.301140E-02
     13022 MEMB     105      QMPE     H14R     HAL2     0.900000E-01   1.00800           0   0.00000     -0.301140E-02
     13023 MEMB     105      QMPE     H14S     HAL2     0.900000E-01   1.00800           0   0.00000     -0.301140E-02
     13024 MEMB     105      QMPE     C215     CTL2    -0.180000       12.0110           0   0.00000     -0.301140E-02
     13025 MEMB     105      QMPE     H15R     HAL2     0.900000E-01   1.00800           0   0.00000     -0.301140E-02
     13026 MEMB     105      QMPE     H15S     HAL2     0.900000E-01   1.00800           0   0.00000     -0.301140E-02
     13027 MEMB     105      QMPE     C216     CTL3    -0.270000       12.0110           0   0.00000     -0.301140E-02
     13028 MEMB     105      QMPE     H16R     HAL3     0.900000E-01   1.00800           0   0.00000     -0.301140E-02
     13029 MEMB     105      QMPE     H16S     HAL3     0.900000E-01   1.00800           0   0.00000     -0.301140E-02
     13030 MEMB     105      QMPE     H16T     HAL3     0.900000E-01   1.00800           0   0.00000     -0.301140E-02
     13031 MEMB     105      QMPE     C33      CTL2    -0.180000       12.0110           0   0.00000     -0.301140E-02
     13032 MEMB     105      QMPE     H3X      HAL2     0.900000E-01   1.00800           0   0.00000     -0.301140E-02
     13033 MEMB     105      QMPE     H3Y      HAL2     0.900000E-01   1.00800           0   0.00000     -0.301140E-02
     13034 MEMB     105      QMPE     C34      CTL2    -0.180000       12.0110           0   0.00000     -0.301140E-02
     13035 MEMB     105      QMPE     H4X      HAL2     0.900000E-01   1.00800           0   0.00000     -0.301140E-02
     13036 MEMB     105      QMPE     H4Y      HAL2     0.900000E-01   1.00800           0   0.00000     -0.301140E-02
     13037 MEMB     105      QMPE     C35      CTL2    -0.180000       12.0110           0   0.00000     -0.301140E-02
     13038 MEMB     105      QMPE     H5X      HAL2     0.900000E-01   1.00800           0   0.00000     -0.301140E-02
     13039 MEMB     105      QMPE     H5Y      HAL2     0.900000E-01   1.00800           0   0.00000     -0.301140E-02
     13040 MEMB     105      QMPE     C36      CTL2    -0.180000       12.0110           0   0.00000     -0.301140E-02
     13041 MEMB     105      QMPE     H6X      HAL2     0.900000E-01   1.00800           0   0.00000     -0.301140E-02
     13042 MEMB     105      QMPE     H6Y      HAL2     0.900000E-01   1.00800           0   0.00000     -0.301140E-02
     13043 MEMB     105      QMPE     C37      CTL2    -0.180000       12.0110           0   0.00000     -0.301140E-02
     13044 MEMB     105      QMPE     H7X      HAL2     0.900000E-01   1.00800           0   0.00000     -0.301140E-02
     13045 MEMB     105      QMPE     H7Y      HAL2     0.900000E-01   1.00800           0   0.00000     -0.301140E-02
     13046 MEMB     105      QMPE     C38      CTL2    -0.180000       12.0110           0   0.00000     -0.301140E-02
     13047 MEMB     105      QMPE     H8X      HAL2     0.900000E-01   1.00800           0   0.00000     -0.301140E-02
     13048 MEMB     105      QMPE     H8Y      HAL2     0.900000E-01   1.00800           0   0.00000     -0.301140E-02
     13049 MEMB     105      QMPE     C39      CTL2    -0.180000       12.0110           0   0.00000     -0.301140E-02
     13050 MEMB     105      QMPE     H9X      HAL2     0.900000E-01   1.00800           0   0.00000     -0.301140E-02
     13051 MEMB     105      QMPE     H9Y      HAL2     0.900000E-01   1.00800           0   0.00000     -0.301140E-02
     13052 MEMB     105      QMPE     C310     CTL2    -0.180000       12.0110           0   0.00000     -0.301140E-02
     13053 MEMB     105      QMPE     H10X     HAL2     0.900000E-01   1.00800           0   0.00000     -0.301140E-02
     13054 MEMB     105      QMPE     H10Y     HAL2     0.900000E-01   1.00800           0   0.00000     -0.301140E-02
     13055 MEMB     105      QMPE     C311     CTL2    -0.180000       12.0110           0   0.00000     -0.301140E-02
     13056 MEMB     105      QMPE     H11X     HAL2     0.900000E-01   1.00800           0   0.00000     -0.301140E-02
     13057 MEMB     105      QMPE     H11Y     HAL2     0.900000E-01   1.00800           0   0.00000     -0.301140E-02
     13058 MEMB     105      QMPE     C312     CTL2    -0.180000       12.0110           0   0.00000     -0.301140E-02
     13059 MEMB     105      QMPE     H12X     HAL2     0.900000E-01   1.00800           0   0.00000     -0.301140E-02
     13060 MEMB     105      QMPE     H12Y     HAL2     0.900000E-01   1.00800           0   0.00000     -0.301140E-02
     13061 MEMB     105      QMPE     C313     CTL2    -0.180000       12.0110           0   0.00000     -0.301140E-02
     13062 MEMB     105      QMPE     H13X     HAL2     0.900000E-01   1.00800           0   0.00000     -0.301140E-02
     13063 MEMB     105      QMPE     H13Y     HAL2     0.900000E-01   1.00800           0   0.00000     -0.301140E-02
     13064 MEMB     105      QMPE     C314     CTL2    -0.180000       12.0110           0   0.00000     -0.301140E-02
     13065 MEMB     105      QMPE     H14X     HAL2     0.900000E-01   1.00800           0   0.00000     -0.301140E-02
     13066 MEMB     105      QMPE     H14Y     HAL2     0.900000E-01   1.00800           0   0.00000     -0.301140E-02
     13067 MEMB     105      QMPE     C315     CTL3    -0.270000       12.0110           0   0.00000     -0.301140E-02
     13068 MEMB     105      QMPE     H15X     HAL3     0.900000E-01   1.00800           0   0.00000     -0.301140E-02
     13069 MEMB     105      QMPE     H15Y     HAL3     0.900000E-01   1.00800           0   0.00000     -0.301140E-02
     13070 MEMB     105      QMPE     H15Z     HAL3     0.900000E-01   1.00800           0   0.00000     -0.301140E-02
     13071 MEMB     106      QMPE     N        NH3L    -0.300000       14.0070           0   0.00000     -0.301140E-02
     13072 MEMB     106      QMPE     HN1      HCL      0.330000       1.00800           0   0.00000     -0.301140E-02
     13073 MEMB     106      QMPE     HN2      HCL      0.330000       1.00800           0   0.00000     -0.301140E-02
     13074 MEMB     106      QMPE     HN3      HCL      0.330000       1.00800           0   0.00000     -0.301140E-02
     13075 MEMB     106      QMPE     C12      CTL2     0.130000       12.0110           0   0.00000     -0.301140E-02
     13076 MEMB     106      QMPE     H12A     HAL2     0.900000E-01   1.00800           0   0.00000     -0.301140E-02
     13077 MEMB     106      QMPE     H12B     HAL2     0.900000E-01   1.00800           0   0.00000     -0.301140E-02
     13078 MEMB     106      QMPE     C11      CTL2    -0.800000E-01   12.0110           0   0.00000     -0.301140E-02
     13079 MEMB     106      QMPE     H11A     HAL2     0.900000E-01   1.00800           0   0.00000     -0.301140E-02
     13080 MEMB     106      QMPE     H11B     HAL2     0.900000E-01   1.00800           0   0.00000     -0.301140E-02
     13081 MEMB     106      QMPE     P        PL        1.50000       30.9740           0   0.00000     -0.301140E-02
     13082 MEMB     106      QMPE     O13      O2L     -0.780000       15.9994           0   0.00000     -0.301140E-02
     13083 MEMB     106      QMPE     O14      O2L     -0.780000       15.9994           0   0.00000     -0.301140E-02
     13084 MEMB     106      QMPE     O11      OSLP    -0.570000       15.9994           0   0.00000     -0.301140E-02
     13085 MEMB     106      QMPE     O12      OSLP    -0.570000       15.9994           0   0.00000     -0.301140E-02
     13086 MEMB     106      QMPE     C1       CTL2    -0.800000E-01   12.0110           0   0.00000     -0.301140E-02
     13087 MEMB     106      QMPE     HA       HAL2     0.900000E-01   1.00800           0   0.00000     -0.301140E-02
     13088 MEMB     106      QMPE     HB       HAL2     0.900000E-01   1.00800           0   0.00000     -0.301140E-02
     13089 MEMB     106      QMPE     C2       CTL1     0.170000       12.0110           0   0.00000     -0.301140E-02
     13090 MEMB     106      QMPE     HS       HAL1     0.900000E-01   1.00800           0   0.00000     -0.301140E-02
     13091 MEMB     106      QMPE     O21      OSL     -0.490000       15.9994           0   0.00000     -0.301140E-02
     13092 MEMB     106      QMPE     C21      CL       0.900000       12.0110           0   0.00000     -0.301140E-02
     13093 MEMB     106      QMPE     O22      OBL     -0.630000       15.9994           0   0.00000     -0.301140E-02
     13094 MEMB     106      QMPE     C22      CTL2    -0.220000       12.0110           0   0.00000     -0.301140E-02
     13095 MEMB     106      QMPE     H2R      HAL2     0.900000E-01   1.00800           0   0.00000     -0.301140E-02
     13096 MEMB     106      QMPE     H2S      HAL2     0.900000E-01   1.00800           0   0.00000     -0.301140E-02
     13097 MEMB     106      QMPE     C3       CTL2     0.800000E-01   12.0110           0   0.00000     -0.301140E-02
     13098 MEMB     106      QMPE     HX       HAL2     0.900000E-01   1.00800           0   0.00000     -0.301140E-02
     13099 MEMB     106      QMPE     HY       HAL2     0.900000E-01   1.00800           0   0.00000     -0.301140E-02
     13100 MEMB     106      QMPE     O31      OSL     -0.490000       15.9994           0   0.00000     -0.301140E-02
     13101 MEMB     106      QMPE     C31      CL       0.900000       12.0110           0   0.00000     -0.301140E-02
     13102 MEMB     106      QMPE     O32      OBL     -0.630000       15.9994           0   0.00000     -0.301140E-02
     13103 MEMB     106      QMPE     C32      CTL2    -0.220000       12.0110           0   0.00000     -0.301140E-02
     13104 MEMB     106      QMPE     H2X      HAL2     0.900000E-01   1.00800           0   0.00000     -0.301140E-02
     13105 MEMB     106      QMPE     H2Y      HAL2     0.900000E-01   1.00800           0   0.00000     -0.301140E-02
     13106 MEMB     106      QMPE     C23      CTL2    -0.180000       12.0110           0   0.00000     -0.301140E-02
     13107 MEMB     106      QMPE     H3R      HAL2     0.900000E-01   1.00800           0   0.00000     -0.301140E-02
     13108 MEMB     106      QMPE     H3S      HAL2     0.900000E-01   1.00800           0   0.00000     -0.301140E-02
     13109 MEMB     106      QMPE     C24      CTL2    -0.180000       12.0110           0   0.00000     -0.301140E-02
     13110 MEMB     106      QMPE     H4R      HAL2     0.900000E-01   1.00800           0   0.00000     -0.301140E-02
     13111 MEMB     106      QMPE     H4S      HAL2     0.900000E-01   1.00800           0   0.00000     -0.301140E-02
     13112 MEMB     106      QMPE     C25      CTL2    -0.180000       12.0110           0   0.00000     -0.301140E-02
     13113 MEMB     106      QMPE     H5R      HAL2     0.900000E-01   1.00800           0   0.00000     -0.301140E-02
     13114 MEMB     106      QMPE     H5S      HAL2     0.900000E-01   1.00800           0   0.00000     -0.301140E-02
     13115 MEMB     106      QMPE     C26      CTL2    -0.180000       12.0110           0   0.00000     -0.301140E-02
     13116 MEMB     106      QMPE     H6R      HAL2     0.900000E-01   1.00800           0   0.00000     -0.301140E-02
     13117 MEMB     106      QMPE     H6S      HAL2     0.900000E-01   1.00800           0   0.00000     -0.301140E-02
     13118 MEMB     106      QMPE     C27      CTL2    -0.180000       12.0110           0   0.00000     -0.301140E-02
     13119 MEMB     106      QMPE     H7R      HAL2     0.900000E-01   1.00800           0   0.00000     -0.301140E-02
     13120 MEMB     106      QMPE     H7S      HAL2     0.900000E-01   1.00800           0   0.00000     -0.301140E-02
     13121 MEMB     106      QMPE     C28      CTL2    -0.180000       12.0110           0   0.00000     -0.301140E-02
     13122 MEMB     106      QMPE     H8R      HAL2     0.900000E-01   1.00800           0   0.00000     -0.301140E-02
     13123 MEMB     106      QMPE     H8S      HAL2     0.900000E-01   1.00800           0   0.00000     -0.301140E-02
     13124 MEMB     106      QMPE     C29      CG3RC1  -0.900000E-01   12.0110           0   0.00000     -0.301140E-02
     13125 MEMB     106      QMPE     H9R      HGA1     0.900000E-01   1.00800           0   0.00000     -0.301140E-02
     13126 MEMB     106      QMPE     C217     CG3C31  -0.180000       12.0110           0   0.00000     -0.301140E-02
     13127 MEMB     106      QMPE     H17R     HGA2     0.900000E-01   1.00800           0   0.00000     -0.301140E-02
     13128 MEMB     106      QMPE     H17S     HGA2     0.900000E-01   1.00800           0   0.00000     -0.301140E-02
     13129 MEMB     106      QMPE     C210     CG3RC1  -0.900000E-01   12.0110           0   0.00000     -0.301140E-02
     13130 MEMB     106      QMPE     H10R     HGA1     0.900000E-01   1.00800           0   0.00000     -0.301140E-02
     13131 MEMB     106      QMPE     C211     CTL2    -0.180000       12.0110           0   0.00000     -0.301140E-02
     13132 MEMB     106      QMPE     H11R     HAL2     0.900000E-01   1.00800           0   0.00000     -0.301140E-02
     13133 MEMB     106      QMPE     H11S     HAL2     0.900000E-01   1.00800           0   0.00000     -0.301140E-02
     13134 MEMB     106      QMPE     C212     CTL2    -0.180000       12.0110           0   0.00000     -0.301140E-02
     13135 MEMB     106      QMPE     H12R     HAL2     0.900000E-01   1.00800           0   0.00000     -0.301140E-02
     13136 MEMB     106      QMPE     H12S     HAL2     0.900000E-01   1.00800           0   0.00000     -0.301140E-02
     13137 MEMB     106      QMPE     C213     CTL2    -0.180000       12.0110           0   0.00000     -0.301140E-02
     13138 MEMB     106      QMPE     H13R     HAL2     0.900000E-01   1.00800           0   0.00000     -0.301140E-02
     13139 MEMB     106      QMPE     H13S     HAL2     0.900000E-01   1.00800           0   0.00000     -0.301140E-02
     13140 MEMB     106      QMPE     C214     CTL2    -0.180000       12.0110           0   0.00000     -0.301140E-02
     13141 MEMB     106      QMPE     H14R     HAL2     0.900000E-01   1.00800           0   0.00000     -0.301140E-02
     13142 MEMB     106      QMPE     H14S     HAL2     0.900000E-01   1.00800           0   0.00000     -0.301140E-02
     13143 MEMB     106      QMPE     C215     CTL2    -0.180000       12.0110           0   0.00000     -0.301140E-02
     13144 MEMB     106      QMPE     H15R     HAL2     0.900000E-01   1.00800           0   0.00000     -0.301140E-02
     13145 MEMB     106      QMPE     H15S     HAL2     0.900000E-01   1.00800           0   0.00000     -0.301140E-02
     13146 MEMB     106      QMPE     C216     CTL3    -0.270000       12.0110           0   0.00000     -0.301140E-02
     13147 MEMB     106      QMPE     H16R     HAL3     0.900000E-01   1.00800           0   0.00000     -0.301140E-02
     13148 MEMB     106      QMPE     H16S     HAL3     0.900000E-01   1.00800           0   0.00000     -0.301140E-02
     13149 MEMB     106      QMPE     H16T     HAL3     0.900000E-01   1.00800           0   0.00000     -0.301140E-02
     13150 MEMB     106      QMPE     C33      CTL2    -0.180000       12.0110           0   0.00000     -0.301140E-02
     13151 MEMB     106      QMPE     H3X      HAL2     0.900000E-01   1.00800           0   0.00000     -0.301140E-02
     13152 MEMB     106      QMPE     H3Y      HAL2     0.900000E-01   1.00800           0   0.00000     -0.301140E-02
     13153 MEMB     106      QMPE     C34      CTL2    -0.180000       12.0110           0   0.00000     -0.301140E-02
     13154 MEMB     106      QMPE     H4X      HAL2     0.900000E-01   1.00800           0   0.00000     -0.301140E-02
     13155 MEMB     106      QMPE     H4Y      HAL2     0.900000E-01   1.00800           0   0.00000     -0.301140E-02
     13156 MEMB     106      QMPE     C35      CTL2    -0.180000       12.0110           0   0.00000     -0.301140E-02
     13157 MEMB     106      QMPE     H5X      HAL2     0.900000E-01   1.00800           0   0.00000     -0.301140E-02
     13158 MEMB     106      QMPE     H5Y      HAL2     0.900000E-01   1.00800           0   0.00000     -0.301140E-02
     13159 MEMB     106      QMPE     C36      CTL2    -0.180000       12.0110           0   0.00000     -0.301140E-02
     13160 MEMB     106      QMPE     H6X      HAL2     0.900000E-01   1.00800           0   0.00000     -0.301140E-02
     13161 MEMB     106      QMPE     H6Y      HAL2     0.900000E-01   1.00800           0   0.00000     -0.301140E-02
     13162 MEMB     106      QMPE     C37      CTL2    -0.180000       12.0110           0   0.00000     -0.301140E-02
     13163 MEMB     106      QMPE     H7X      HAL2     0.900000E-01   1.00800           0   0.00000     -0.301140E-02
     13164 MEMB     106      QMPE     H7Y      HAL2     0.900000E-01   1.00800           0   0.00000     -0.301140E-02
     13165 MEMB     106      QMPE     C38      CTL2    -0.180000       12.0110           0   0.00000     -0.301140E-02
     13166 MEMB     106      QMPE     H8X      HAL2     0.900000E-01   1.00800           0   0.00000     -0.301140E-02
     13167 MEMB     106      QMPE     H8Y      HAL2     0.900000E-01   1.00800           0   0.00000     -0.301140E-02
     13168 MEMB     106      QMPE     C39      CTL2    -0.180000       12.0110           0   0.00000     -0.301140E-02
     13169 MEMB     106      QMPE     H9X      HAL2     0.900000E-01   1.00800           0   0.00000     -0.301140E-02
     13170 MEMB     106      QMPE     H9Y      HAL2     0.900000E-01   1.00800           0   0.00000     -0.301140E-02
     13171 MEMB     106      QMPE     C310     CTL2    -0.180000       12.0110           0   0.00000     -0.301140E-02
     13172 MEMB     106      QMPE     H10X     HAL2     0.900000E-01   1.00800           0   0.00000     -0.301140E-02
     13173 MEMB     106      QMPE     H10Y     HAL2     0.900000E-01   1.00800           0   0.00000     -0.301140E-02
     13174 MEMB     106      QMPE     C311     CTL2    -0.180000       12.0110           0   0.00000     -0.301140E-02
     13175 MEMB     106      QMPE     H11X     HAL2     0.900000E-01   1.00800           0   0.00000     -0.301140E-02
     13176 MEMB     106      QMPE     H11Y     HAL2     0.900000E-01   1.00800           0   0.00000     -0.301140E-02
     13177 MEMB     106      QMPE     C312     CTL2    -0.180000       12.0110           0   0.00000     -0.301140E-02
     13178 MEMB     106      QMPE     H12X     HAL2     0.900000E-01   1.00800           0   0.00000     -0.301140E-02
     13179 MEMB     106      QMPE     H12Y     HAL2     0.900000E-01   1.00800           0   0.00000     -0.301140E-02
     13180 MEMB     106      QMPE     C313     CTL2    -0.180000       12.0110           0   0.00000     -0.301140E-02
     13181 MEMB     106      QMPE     H13X     HAL2     0.900000E-01   1.00800           0   0.00000     -0.301140E-02
     13182 MEMB     106      QMPE     H13Y     HAL2     0.900000E-01   1.00800           0   0.00000     -0.301140E-02
     13183 MEMB     106      QMPE     C314     CTL2    -0.180000       12.0110           0   0.00000     -0.301140E-02
     13184 MEMB     106      QMPE     H14X     HAL2     0.900000E-01   1.00800           0   0.00000     -0.301140E-02
     13185 MEMB     106      QMPE     H14Y     HAL2     0.900000E-01   1.00800           0   0.00000     -0.301140E-02
     13186 MEMB     106      QMPE     C315     CTL3    -0.270000       12.0110           0   0.00000     -0.301140E-02
     13187 MEMB     106      QMPE     H15X     HAL3     0.900000E-01   1.00800           0   0.00000     -0.301140E-02
     13188 MEMB     106      QMPE     H15Y     HAL3     0.900000E-01   1.00800           0   0.00000     -0.301140E-02
     13189 MEMB     106      QMPE     H15Z     HAL3     0.900000E-01   1.00800           0   0.00000     -0.301140E-02
     13190 MEMB     107      PMPE     N        NH3L    -0.300000       14.0070           0   0.00000     -0.301140E-02
     13191 MEMB     107      PMPE     HN1      HCL      0.330000       1.00800           0   0.00000     -0.301140E-02
     13192 MEMB     107      PMPE     HN2      HCL      0.330000       1.00800           0   0.00000     -0.301140E-02
     13193 MEMB     107      PMPE     HN3      HCL      0.330000       1.00800           0   0.00000     -0.301140E-02
     13194 MEMB     107      PMPE     C12      CTL2     0.130000       12.0110           0   0.00000     -0.301140E-02
     13195 MEMB     107      PMPE     H12A     HAL2     0.900000E-01   1.00800           0   0.00000     -0.301140E-02
     13196 MEMB     107      PMPE     H12B     HAL2     0.900000E-01   1.00800           0   0.00000     -0.301140E-02
     13197 MEMB     107      PMPE     C11      CTL2    -0.800000E-01   12.0110           0   0.00000     -0.301140E-02
     13198 MEMB     107      PMPE     H11A     HAL2     0.900000E-01   1.00800           0   0.00000     -0.301140E-02
     13199 MEMB     107      PMPE     H11B     HAL2     0.900000E-01   1.00800           0   0.00000     -0.301140E-02
     13200 MEMB     107      PMPE     P        PL        1.50000       30.9740           0   0.00000     -0.301140E-02
     13201 MEMB     107      PMPE     O13      O2L     -0.780000       15.9994           0   0.00000     -0.301140E-02
     13202 MEMB     107      PMPE     O14      O2L     -0.780000       15.9994           0   0.00000     -0.301140E-02
     13203 MEMB     107      PMPE     O11      OSLP    -0.570000       15.9994           0   0.00000     -0.301140E-02
     13204 MEMB     107      PMPE     O12      OSLP    -0.570000       15.9994           0   0.00000     -0.301140E-02
     13205 MEMB     107      PMPE     C1       CTL2    -0.800000E-01   12.0110           0   0.00000     -0.301140E-02
     13206 MEMB     107      PMPE     HA       HAL2     0.900000E-01   1.00800           0   0.00000     -0.301140E-02
     13207 MEMB     107      PMPE     HB       HAL2     0.900000E-01   1.00800           0   0.00000     -0.301140E-02
     13208 MEMB     107      PMPE     C2       CTL1     0.170000       12.0110           0   0.00000     -0.301140E-02
     13209 MEMB     107      PMPE     HS       HAL1     0.900000E-01   1.00800           0   0.00000     -0.301140E-02
     13210 MEMB     107      PMPE     O21      OSL     -0.490000       15.9994           0   0.00000     -0.301140E-02
     13211 MEMB     107      PMPE     C21      CL       0.900000       12.0110           0   0.00000     -0.301140E-02
     13212 MEMB     107      PMPE     O22      OBL     -0.630000       15.9994           0   0.00000     -0.301140E-02
     13213 MEMB     107      PMPE     C22      CTL2    -0.220000       12.0110           0   0.00000     -0.301140E-02
     13214 MEMB     107      PMPE     H2R      HAL2     0.900000E-01   1.00800           0   0.00000     -0.301140E-02
     13215 MEMB     107      PMPE     H2S      HAL2     0.900000E-01   1.00800           0   0.00000     -0.301140E-02
     13216 MEMB     107      PMPE     C3       CTL2     0.800000E-01   12.0110           0   0.00000     -0.301140E-02
     13217 MEMB     107      PMPE     HX       HAL2     0.900000E-01   1.00800           0   0.00000     -0.301140E-02
     13218 MEMB     107      PMPE     HY       HAL2     0.900000E-01   1.00800           0   0.00000     -0.301140E-02
     13219 MEMB     107      PMPE     O31      OSL     -0.490000       15.9994           0   0.00000     -0.301140E-02
     13220 MEMB     107      PMPE     C31      CL       0.900000       12.0110           0   0.00000     -0.301140E-02
     13221 MEMB     107      PMPE     O32      OBL     -0.630000       15.9994           0   0.00000     -0.301140E-02
     13222 MEMB     107      PMPE     C32      CTL2    -0.220000       12.0110           0   0.00000     -0.301140E-02
     13223 MEMB     107      PMPE     H2X      HAL2     0.900000E-01   1.00800           0   0.00000     -0.301140E-02
     13224 MEMB     107      PMPE     H2Y      HAL2     0.900000E-01   1.00800           0   0.00000     -0.301140E-02
     13225 MEMB     107      PMPE     C23      CTL2    -0.180000       12.0110           0   0.00000     -0.301140E-02
     13226 MEMB     107      PMPE     H3R      HAL2     0.900000E-01   1.00800           0   0.00000     -0.301140E-02
     13227 MEMB     107      PMPE     H3S      HAL2     0.900000E-01   1.00800           0   0.00000     -0.301140E-02
     13228 MEMB     107      PMPE     C24      CTL2    -0.180000       12.0110           0   0.00000     -0.301140E-02
     13229 MEMB     107      PMPE     H4R      HAL2     0.900000E-01   1.00800           0   0.00000     -0.301140E-02
     13230 MEMB     107      PMPE     H4S      HAL2     0.900000E-01   1.00800           0   0.00000     -0.301140E-02
     13231 MEMB     107      PMPE     C25      CTL2    -0.180000       12.0110           0   0.00000     -0.301140E-02
     13232 MEMB     107      PMPE     H5R      HAL2     0.900000E-01   1.00800           0   0.00000     -0.301140E-02
     13233 MEMB     107      PMPE     H5S      HAL2     0.900000E-01   1.00800           0   0.00000     -0.301140E-02
     13234 MEMB     107      PMPE     C26      CTL2    -0.180000       12.0110           0   0.00000     -0.301140E-02
     13235 MEMB     107      PMPE     H6R      HAL2     0.900000E-01   1.00800           0   0.00000     -0.301140E-02
     13236 MEMB     107      PMPE     H6S      HAL2     0.900000E-01   1.00800           0   0.00000     -0.301140E-02
     13237 MEMB     107      PMPE     C27      CTL2    -0.180000       12.0110           0   0.00000     -0.301140E-02
     13238 MEMB     107      PMPE     H7R      HAL2     0.900000E-01   1.00800           0   0.00000     -0.301140E-02
     13239 MEMB     107      PMPE     H7S      HAL2     0.900000E-01   1.00800           0   0.00000     -0.301140E-02
     13240 MEMB     107      PMPE     C28      CTL2    -0.180000       12.0110           0   0.00000     -0.301140E-02
     13241 MEMB     107      PMPE     H8R      HAL2     0.900000E-01   1.00800           0   0.00000     -0.301140E-02
     13242 MEMB     107      PMPE     H8S      HAL2     0.900000E-01   1.00800           0   0.00000     -0.301140E-02
     13243 MEMB     107      PMPE     C29      CG3RC1  -0.900000E-01   12.0110           0   0.00000     -0.301140E-02
     13244 MEMB     107      PMPE     H9R      HGA1     0.900000E-01   1.00800           0   0.00000     -0.301140E-02
     13245 MEMB     107      PMPE     C217     CG3C31  -0.180000       12.0110           0   0.00000     -0.301140E-02
     13246 MEMB     107      PMPE     H17R     HGA2     0.900000E-01   1.00800           0   0.00000     -0.301140E-02
     13247 MEMB     107      PMPE     H17S     HGA2     0.900000E-01   1.00800           0   0.00000     -0.301140E-02
     13248 MEMB     107      PMPE     C210     CG3RC1  -0.900000E-01   12.0110           0   0.00000     -0.301140E-02
     13249 MEMB     107      PMPE     H10R     HGA1     0.900000E-01   1.00800           0   0.00000     -0.301140E-02
     13250 MEMB     107      PMPE     C211     CTL2    -0.180000       12.0110           0   0.00000     -0.301140E-02
     13251 MEMB     107      PMPE     H11R     HAL2     0.900000E-01   1.00800           0   0.00000     -0.301140E-02
     13252 MEMB     107      PMPE     H11S     HAL2     0.900000E-01   1.00800           0   0.00000     -0.301140E-02
     13253 MEMB     107      PMPE     C212     CTL2    -0.180000       12.0110           0   0.00000     -0.301140E-02
     13254 MEMB     107      PMPE     H12R     HAL2     0.900000E-01   1.00800           0   0.00000     -0.301140E-02
     13255 MEMB     107      PMPE     H12S     HAL2     0.900000E-01   1.00800           0   0.00000     -0.301140E-02
     13256 MEMB     107      PMPE     C213     CTL2    -0.180000       12.0110           0   0.00000     -0.301140E-02
     13257 MEMB     107      PMPE     H13R     HAL2     0.900000E-01   1.00800           0   0.00000     -0.301140E-02
     13258 MEMB     107      PMPE     H13S     HAL2     0.900000E-01   1.00800           0   0.00000     -0.301140E-02
     13259 MEMB     107      PMPE     C214     CTL2    -0.180000       12.0110           0   0.00000     -0.301140E-02
     13260 MEMB     107      PMPE     H14R     HAL2     0.900000E-01   1.00800           0   0.00000     -0.301140E-02
     13261 MEMB     107      PMPE     H14S     HAL2     0.900000E-01   1.00800           0   0.00000     -0.301140E-02
     13262 MEMB     107      PMPE     C215     CTL2    -0.180000       12.0110           0   0.00000     -0.301140E-02
     13263 MEMB     107      PMPE     H15R     HAL2     0.900000E-01   1.00800           0   0.00000     -0.301140E-02
     13264 MEMB     107      PMPE     H15S     HAL2     0.900000E-01   1.00800           0   0.00000     -0.301140E-02
     13265 MEMB     107      PMPE     C216     CTL3    -0.270000       12.0110           0   0.00000     -0.301140E-02
     13266 MEMB     107      PMPE     H16R     HAL3     0.900000E-01   1.00800           0   0.00000     -0.301140E-02
     13267 MEMB     107      PMPE     H16S     HAL3     0.900000E-01   1.00800           0   0.00000     -0.301140E-02
     13268 MEMB     107      PMPE     H16T     HAL3     0.900000E-01   1.00800           0   0.00000     -0.301140E-02
     13269 MEMB     107      PMPE     C33      CTL2    -0.180000       12.0110           0   0.00000     -0.301140E-02
     13270 MEMB     107      PMPE     H3X      HAL2     0.900000E-01   1.00800           0   0.00000     -0.301140E-02
     13271 MEMB     107      PMPE     H3Y      HAL2     0.900000E-01   1.00800           0   0.00000     -0.301140E-02
     13272 MEMB     107      PMPE     C34      CTL2    -0.180000       12.0110           0   0.00000     -0.301140E-02
     13273 MEMB     107      PMPE     H4X      HAL2     0.900000E-01   1.00800           0   0.00000     -0.301140E-02
     13274 MEMB     107      PMPE     H4Y      HAL2     0.900000E-01   1.00800           0   0.00000     -0.301140E-02
     13275 MEMB     107      PMPE     C35      CTL2    -0.180000       12.0110           0   0.00000     -0.301140E-02
     13276 MEMB     107      PMPE     H5X      HAL2     0.900000E-01   1.00800           0   0.00000     -0.301140E-02
     13277 MEMB     107      PMPE     H5Y      HAL2     0.900000E-01   1.00800           0   0.00000     -0.301140E-02
     13278 MEMB     107      PMPE     C36      CTL2    -0.180000       12.0110           0   0.00000     -0.301140E-02
     13279 MEMB     107      PMPE     H6X      HAL2     0.900000E-01   1.00800           0   0.00000     -0.301140E-02
     13280 MEMB     107      PMPE     H6Y      HAL2     0.900000E-01   1.00800           0   0.00000     -0.301140E-02
     13281 MEMB     107      PMPE     C37      CTL2    -0.180000       12.0110           0   0.00000     -0.301140E-02
     13282 MEMB     107      PMPE     H7X      HAL2     0.900000E-01   1.00800           0   0.00000     -0.301140E-02
     13283 MEMB     107      PMPE     H7Y      HAL2     0.900000E-01   1.00800           0   0.00000     -0.301140E-02
     13284 MEMB     107      PMPE     C38      CTL2    -0.180000       12.0110           0   0.00000     -0.301140E-02
     13285 MEMB     107      PMPE     H8X      HAL2     0.900000E-01   1.00800           0   0.00000     -0.301140E-02
     13286 MEMB     107      PMPE     H8Y      HAL2     0.900000E-01   1.00800           0   0.00000     -0.301140E-02
     13287 MEMB     107      PMPE     C39      CTL2    -0.180000       12.0110           0   0.00000     -0.301140E-02
     13288 MEMB     107      PMPE     H9X      HAL2     0.900000E-01   1.00800           0   0.00000     -0.301140E-02
     13289 MEMB     107      PMPE     H9Y      HAL2     0.900000E-01   1.00800           0   0.00000     -0.301140E-02
     13290 MEMB     107      PMPE     C310     CTL2    -0.180000       12.0110           0   0.00000     -0.301140E-02
     13291 MEMB     107      PMPE     H10X     HAL2     0.900000E-01   1.00800           0   0.00000     -0.301140E-02
     13292 MEMB     107      PMPE     H10Y     HAL2     0.900000E-01   1.00800           0   0.00000     -0.301140E-02
     13293 MEMB     107      PMPE     C311     CTL2    -0.180000       12.0110           0   0.00000     -0.301140E-02
     13294 MEMB     107      PMPE     H11X     HAL2     0.900000E-01   1.00800           0   0.00000     -0.301140E-02
     13295 MEMB     107      PMPE     H11Y     HAL2     0.900000E-01   1.00800           0   0.00000     -0.301140E-02
     13296 MEMB     107      PMPE     C312     CTL2    -0.180000       12.0110           0   0.00000     -0.301140E-02
     13297 MEMB     107      PMPE     H12X     HAL2     0.900000E-01   1.00800           0   0.00000     -0.301140E-02
     13298 MEMB     107      PMPE     H12Y     HAL2     0.900000E-01   1.00800           0   0.00000     -0.301140E-02
     13299 MEMB     107      PMPE     C313     CTL2    -0.180000       12.0110           0   0.00000     -0.301140E-02
     13300 MEMB     107      PMPE     H13X     HAL2     0.900000E-01   1.00800           0   0.00000     -0.301140E-02
     13301 MEMB     107      PMPE     H13Y     HAL2     0.900000E-01   1.00800           0   0.00000     -0.301140E-02
     13302 MEMB     107      PMPE     C314     CTL2    -0.180000       12.0110           0   0.00000     -0.301140E-02
     13303 MEMB     107      PMPE     H14X     HAL2     0.900000E-01   1.00800           0   0.00000     -0.301140E-02
     13304 MEMB     107      PMPE     H14Y     HAL2     0.900000E-01   1.00800           0   0.00000     -0.301140E-02
     13305 MEMB     107      PMPE     C315     CTL2    -0.180000       12.0110           0   0.00000     -0.301140E-02
     13306 MEMB     107      PMPE     H15X     HAL2     0.900000E-01   1.00800           0   0.00000     -0.301140E-02
     13307 MEMB     107      PMPE     H15Y     HAL2     0.900000E-01   1.00800           0   0.00000     -0.301140E-02
     13308 MEMB     107      PMPE     C316     CTL3    -0.270000       12.0110           0   0.00000     -0.301140E-02
     13309 MEMB     107      PMPE     H16X     HAL3     0.900000E-01   1.00800           0   0.00000     -0.301140E-02
     13310 MEMB     107      PMPE     H16Y     HAL3     0.900000E-01   1.00800           0   0.00000     -0.301140E-02
     13311 MEMB     107      PMPE     H16Z     HAL3     0.900000E-01   1.00800           0   0.00000     -0.301140E-02
     13312 MEMB     108      PMPE     N        NH3L    -0.300000       14.0070           0   0.00000     -0.301140E-02
     13313 MEMB     108      PMPE     HN1      HCL      0.330000       1.00800           0   0.00000     -0.301140E-02
     13314 MEMB     108      PMPE     HN2      HCL      0.330000       1.00800           0   0.00000     -0.301140E-02
     13315 MEMB     108      PMPE     HN3      HCL      0.330000       1.00800           0   0.00000     -0.301140E-02
     13316 MEMB     108      PMPE     C12      CTL2     0.130000       12.0110           0   0.00000     -0.301140E-02
     13317 MEMB     108      PMPE     H12A     HAL2     0.900000E-01   1.00800           0   0.00000     -0.301140E-02
     13318 MEMB     108      PMPE     H12B     HAL2     0.900000E-01   1.00800           0   0.00000     -0.301140E-02
     13319 MEMB     108      PMPE     C11      CTL2    -0.800000E-01   12.0110           0   0.00000     -0.301140E-02
     13320 MEMB     108      PMPE     H11A     HAL2     0.900000E-01   1.00800           0   0.00000     -0.301140E-02
     13321 MEMB     108      PMPE     H11B     HAL2     0.900000E-01   1.00800           0   0.00000     -0.301140E-02
     13322 MEMB     108      PMPE     P        PL        1.50000       30.9740           0   0.00000     -0.301140E-02
     13323 MEMB     108      PMPE     O13      O2L     -0.780000       15.9994           0   0.00000     -0.301140E-02
     13324 MEMB     108      PMPE     O14      O2L     -0.780000       15.9994           0   0.00000     -0.301140E-02
     13325 MEMB     108      PMPE     O11      OSLP    -0.570000       15.9994           0   0.00000     -0.301140E-02
     13326 MEMB     108      PMPE     O12      OSLP    -0.570000       15.9994           0   0.00000     -0.301140E-02
     13327 MEMB     108      PMPE     C1       CTL2    -0.800000E-01   12.0110           0   0.00000     -0.301140E-02
     13328 MEMB     108      PMPE     HA       HAL2     0.900000E-01   1.00800           0   0.00000     -0.301140E-02
     13329 MEMB     108      PMPE     HB       HAL2     0.900000E-01   1.00800           0   0.00000     -0.301140E-02
     13330 MEMB     108      PMPE     C2       CTL1     0.170000       12.0110           0   0.00000     -0.301140E-02
     13331 MEMB     108      PMPE     HS       HAL1     0.900000E-01   1.00800           0   0.00000     -0.301140E-02
     13332 MEMB     108      PMPE     O21      OSL     -0.490000       15.9994           0   0.00000     -0.301140E-02
     13333 MEMB     108      PMPE     C21      CL       0.900000       12.0110           0   0.00000     -0.301140E-02
     13334 MEMB     108      PMPE     O22      OBL     -0.630000       15.9994           0   0.00000     -0.301140E-02
     13335 MEMB     108      PMPE     C22      CTL2    -0.220000       12.0110           0   0.00000     -0.301140E-02
     13336 MEMB     108      PMPE     H2R      HAL2     0.900000E-01   1.00800           0   0.00000     -0.301140E-02
     13337 MEMB     108      PMPE     H2S      HAL2     0.900000E-01   1.00800           0   0.00000     -0.301140E-02
     13338 MEMB     108      PMPE     C3       CTL2     0.800000E-01   12.0110           0   0.00000     -0.301140E-02
     13339 MEMB     108      PMPE     HX       HAL2     0.900000E-01   1.00800           0   0.00000     -0.301140E-02
     13340 MEMB     108      PMPE     HY       HAL2     0.900000E-01   1.00800           0   0.00000     -0.301140E-02
     13341 MEMB     108      PMPE     O31      OSL     -0.490000       15.9994           0   0.00000     -0.301140E-02
     13342 MEMB     108      PMPE     C31      CL       0.900000       12.0110           0   0.00000     -0.301140E-02
     13343 MEMB     108      PMPE     O32      OBL     -0.630000       15.9994           0   0.00000     -0.301140E-02
     13344 MEMB     108      PMPE     C32      CTL2    -0.220000       12.0110           0   0.00000     -0.301140E-02
     13345 MEMB     108      PMPE     H2X      HAL2     0.900000E-01   1.00800           0   0.00000     -0.301140E-02
     13346 MEMB     108      PMPE     H2Y      HAL2     0.900000E-01   1.00800           0   0.00000     -0.301140E-02
     13347 MEMB     108      PMPE     C23      CTL2    -0.180000       12.0110           0   0.00000     -0.301140E-02
     13348 MEMB     108      PMPE     H3R      HAL2     0.900000E-01   1.00800           0   0.00000     -0.301140E-02
     13349 MEMB     108      PMPE     H3S      HAL2     0.900000E-01   1.00800           0   0.00000     -0.301140E-02
     13350 MEMB     108      PMPE     C24      CTL2    -0.180000       12.0110           0   0.00000     -0.301140E-02
     13351 MEMB     108      PMPE     H4R      HAL2     0.900000E-01   1.00800           0   0.00000     -0.301140E-02
     13352 MEMB     108      PMPE     H4S      HAL2     0.900000E-01   1.00800           0   0.00000     -0.301140E-02
     13353 MEMB     108      PMPE     C25      CTL2    -0.180000       12.0110           0   0.00000     -0.301140E-02
     13354 MEMB     108      PMPE     H5R      HAL2     0.900000E-01   1.00800           0   0.00000     -0.301140E-02
     13355 MEMB     108      PMPE     H5S      HAL2     0.900000E-01   1.00800           0   0.00000     -0.301140E-02
     13356 MEMB     108      PMPE     C26      CTL2    -0.180000       12.0110           0   0.00000     -0.301140E-02
     13357 MEMB     108      PMPE     H6R      HAL2     0.900000E-01   1.00800           0   0.00000     -0.301140E-02
     13358 MEMB     108      PMPE     H6S      HAL2     0.900000E-01   1.00800           0   0.00000     -0.301140E-02
     13359 MEMB     108      PMPE     C27      CTL2    -0.180000       12.0110           0   0.00000     -0.301140E-02
     13360 MEMB     108      PMPE     H7R      HAL2     0.900000E-01   1.00800           0   0.00000     -0.301140E-02
     13361 MEMB     108      PMPE     H7S      HAL2     0.900000E-01   1.00800           0   0.00000     -0.301140E-02
     13362 MEMB     108      PMPE     C28      CTL2    -0.180000       12.0110           0   0.00000     -0.301140E-02
     13363 MEMB     108      PMPE     H8R      HAL2     0.900000E-01   1.00800           0   0.00000     -0.301140E-02
     13364 MEMB     108      PMPE     H8S      HAL2     0.900000E-01   1.00800           0   0.00000     -0.301140E-02
     13365 MEMB     108      PMPE     C29      CG3RC1  -0.900000E-01   12.0110           0   0.00000     -0.301140E-02
     13366 MEMB     108      PMPE     H9R      HGA1     0.900000E-01   1.00800           0   0.00000     -0.301140E-02
     13367 MEMB     108      PMPE     C217     CG3C31  -0.180000       12.0110           0   0.00000     -0.301140E-02
     13368 MEMB     108      PMPE     H17R     HGA2     0.900000E-01   1.00800           0   0.00000     -0.301140E-02
     13369 MEMB     108      PMPE     H17S     HGA2     0.900000E-01   1.00800           0   0.00000     -0.301140E-02
     13370 MEMB     108      PMPE     C210     CG3RC1  -0.900000E-01   12.0110           0   0.00000     -0.301140E-02
     13371 MEMB     108      PMPE     H10R     HGA1     0.900000E-01   1.00800           0   0.00000     -0.301140E-02
     13372 MEMB     108      PMPE     C211     CTL2    -0.180000       12.0110           0   0.00000     -0.301140E-02
     13373 MEMB     108      PMPE     H11R     HAL2     0.900000E-01   1.00800           0   0.00000     -0.301140E-02
     13374 MEMB     108      PMPE     H11S     HAL2     0.900000E-01   1.00800           0   0.00000     -0.301140E-02
     13375 MEMB     108      PMPE     C212     CTL2    -0.180000       12.0110           0   0.00000     -0.301140E-02
     13376 MEMB     108      PMPE     H12R     HAL2     0.900000E-01   1.00800           0   0.00000     -0.301140E-02
     13377 MEMB     108      PMPE     H12S     HAL2     0.900000E-01   1.00800           0   0.00000     -0.301140E-02
     13378 MEMB     108      PMPE     C213     CTL2    -0.180000       12.0110           0   0.00000     -0.301140E-02
     13379 MEMB     108      PMPE     H13R     HAL2     0.900000E-01   1.00800           0   0.00000     -0.301140E-02
     13380 MEMB     108      PMPE     H13S     HAL2     0.900000E-01   1.00800           0   0.00000     -0.301140E-02
     13381 MEMB     108      PMPE     C214     CTL2    -0.180000       12.0110           0   0.00000     -0.301140E-02
     13382 MEMB     108      PMPE     H14R     HAL2     0.900000E-01   1.00800           0   0.00000     -0.301140E-02
     13383 MEMB     108      PMPE     H14S     HAL2     0.900000E-01   1.00800           0   0.00000     -0.301140E-02
     13384 MEMB     108      PMPE     C215     CTL2    -0.180000       12.0110           0   0.00000     -0.301140E-02
     13385 MEMB     108      PMPE     H15R     HAL2     0.900000E-01   1.00800           0   0.00000     -0.301140E-02
     13386 MEMB     108      PMPE     H15S     HAL2     0.900000E-01   1.00800           0   0.00000     -0.301140E-02
     13387 MEMB     108      PMPE     C216     CTL3    -0.270000       12.0110           0   0.00000     -0.301140E-02
     13388 MEMB     108      PMPE     H16R     HAL3     0.900000E-01   1.00800           0   0.00000     -0.301140E-02
     13389 MEMB     108      PMPE     H16S     HAL3     0.900000E-01   1.00800           0   0.00000     -0.301140E-02
     13390 MEMB     108      PMPE     H16T     HAL3     0.900000E-01   1.00800           0   0.00000     -0.301140E-02
     13391 MEMB     108      PMPE     C33      CTL2    -0.180000       12.0110           0   0.00000     -0.301140E-02
     13392 MEMB     108      PMPE     H3X      HAL2     0.900000E-01   1.00800           0   0.00000     -0.301140E-02
     13393 MEMB     108      PMPE     H3Y      HAL2     0.900000E-01   1.00800           0   0.00000     -0.301140E-02
     13394 MEMB     108      PMPE     C34      CTL2    -0.180000       12.0110           0   0.00000     -0.301140E-02
     13395 MEMB     108      PMPE     H4X      HAL2     0.900000E-01   1.00800           0   0.00000     -0.301140E-02
     13396 MEMB     108      PMPE     H4Y      HAL2     0.900000E-01   1.00800           0   0.00000     -0.301140E-02
     13397 MEMB     108      PMPE     C35      CTL2    -0.180000       12.0110           0   0.00000     -0.301140E-02
     13398 MEMB     108      PMPE     H5X      HAL2     0.900000E-01   1.00800           0   0.00000     -0.301140E-02
     13399 MEMB     108      PMPE     H5Y      HAL2     0.900000E-01   1.00800           0   0.00000     -0.301140E-02
     13400 MEMB     108      PMPE     C36      CTL2    -0.180000       12.0110           0   0.00000     -0.301140E-02
     13401 MEMB     108      PMPE     H6X      HAL2     0.900000E-01   1.00800           0   0.00000     -0.301140E-02
     13402 MEMB     108      PMPE     H6Y      HAL2     0.900000E-01   1.00800           0   0.00000     -0.301140E-02
     13403 MEMB     108      PMPE     C37      CTL2    -0.180000       12.0110           0   0.00000     -0.301140E-02
     13404 MEMB     108      PMPE     H7X      HAL2     0.900000E-01   1.00800           0   0.00000     -0.301140E-02
     13405 MEMB     108      PMPE     H7Y      HAL2     0.900000E-01   1.00800           0   0.00000     -0.301140E-02
     13406 MEMB     108      PMPE     C38      CTL2    -0.180000       12.0110           0   0.00000     -0.301140E-02
     13407 MEMB     108      PMPE     H8X      HAL2     0.900000E-01   1.00800           0   0.00000     -0.301140E-02
     13408 MEMB     108      PMPE     H8Y      HAL2     0.900000E-01   1.00800           0   0.00000     -0.301140E-02
     13409 MEMB     108      PMPE     C39      CTL2    -0.180000       12.0110           0   0.00000     -0.301140E-02
     13410 MEMB     108      PMPE     H9X      HAL2     0.900000E-01   1.00800           0   0.00000     -0.301140E-02
     13411 MEMB     108      PMPE     H9Y      HAL2     0.900000E-01   1.00800           0   0.00000     -0.301140E-02
     13412 MEMB     108      PMPE     C310     CTL2    -0.180000       12.0110           0   0.00000     -0.301140E-02
     13413 MEMB     108      PMPE     H10X     HAL2     0.900000E-01   1.00800           0   0.00000     -0.301140E-02
     13414 MEMB     108      PMPE     H10Y     HAL2     0.900000E-01   1.00800           0   0.00000     -0.301140E-02
     13415 MEMB     108      PMPE     C311     CTL2    -0.180000       12.0110           0   0.00000     -0.301140E-02
     13416 MEMB     108      PMPE     H11X     HAL2     0.900000E-01   1.00800           0   0.00000     -0.301140E-02
     13417 MEMB     108      PMPE     H11Y     HAL2     0.900000E-01   1.00800           0   0.00000     -0.301140E-02
     13418 MEMB     108      PMPE     C312     CTL2    -0.180000       12.0110           0   0.00000     -0.301140E-02
     13419 MEMB     108      PMPE     H12X     HAL2     0.900000E-01   1.00800           0   0.00000     -0.301140E-02
     13420 MEMB     108      PMPE     H12Y     HAL2     0.900000E-01   1.00800           0   0.00000     -0.301140E-02
     13421 MEMB     108      PMPE     C313     CTL2    -0.180000       12.0110           0   0.00000     -0.301140E-02
     13422 MEMB     108      PMPE     H13X     HAL2     0.900000E-01   1.00800           0   0.00000     -0.301140E-02
     13423 MEMB     108      PMPE     H13Y     HAL2     0.900000E-01   1.00800           0   0.00000     -0.301140E-02
     13424 MEMB     108      PMPE     C314     CTL2    -0.180000       12.0110           0   0.00000     -0.301140E-02
     13425 MEMB     108      PMPE     H14X     HAL2     0.900000E-01   1.00800           0   0.00000     -0.301140E-02
     13426 MEMB     108      PMPE     H14Y     HAL2     0.900000E-01   1.00800           0   0.00000     -0.301140E-02
     13427 MEMB     108      PMPE     C315     CTL2    -0.180000       12.0110           0   0.00000     -0.301140E-02
     13428 MEMB     108      PMPE     H15X     HAL2     0.900000E-01   1.00800           0   0.00000     -0.301140E-02
     13429 MEMB     108      PMPE     H15Y     HAL2     0.900000E-01   1.00800           0   0.00000     -0.301140E-02
     13430 MEMB     108      PMPE     C316     CTL3    -0.270000       12.0110           0   0.00000     -0.301140E-02
     13431 MEMB     108      PMPE     H16X     HAL3     0.900000E-01   1.00800           0   0.00000     -0.301140E-02
     13432 MEMB     108      PMPE     H16Y     HAL3     0.900000E-01   1.00800           0   0.00000     -0.301140E-02
     13433 MEMB     108      PMPE     H16Z     HAL3     0.900000E-01   1.00800           0   0.00000     -0.301140E-02
     13434 MEMB     109      PMPE     N        NH3L    -0.300000       14.0070           0   0.00000     -0.301140E-02
     13435 MEMB     109      PMPE     HN1      HCL      0.330000       1.00800           0   0.00000     -0.301140E-02
     13436 MEMB     109      PMPE     HN2      HCL      0.330000       1.00800           0   0.00000     -0.301140E-02
     13437 MEMB     109      PMPE     HN3      HCL      0.330000       1.00800           0   0.00000     -0.301140E-02
     13438 MEMB     109      PMPE     C12      CTL2     0.130000       12.0110           0   0.00000     -0.301140E-02
     13439 MEMB     109      PMPE     H12A     HAL2     0.900000E-01   1.00800           0   0.00000     -0.301140E-02
     13440 MEMB     109      PMPE     H12B     HAL2     0.900000E-01   1.00800           0   0.00000     -0.301140E-02
     13441 MEMB     109      PMPE     C11      CTL2    -0.800000E-01   12.0110           0   0.00000     -0.301140E-02
     13442 MEMB     109      PMPE     H11A     HAL2     0.900000E-01   1.00800           0   0.00000     -0.301140E-02
     13443 MEMB     109      PMPE     H11B     HAL2     0.900000E-01   1.00800           0   0.00000     -0.301140E-02
     13444 MEMB     109      PMPE     P        PL        1.50000       30.9740           0   0.00000     -0.301140E-02
     13445 MEMB     109      PMPE     O13      O2L     -0.780000       15.9994           0   0.00000     -0.301140E-02
     13446 MEMB     109      PMPE     O14      O2L     -0.780000       15.9994           0   0.00000     -0.301140E-02
     13447 MEMB     109      PMPE     O11      OSLP    -0.570000       15.9994           0   0.00000     -0.301140E-02
     13448 MEMB     109      PMPE     O12      OSLP    -0.570000       15.9994           0   0.00000     -0.301140E-02
     13449 MEMB     109      PMPE     C1       CTL2    -0.800000E-01   12.0110           0   0.00000     -0.301140E-02
     13450 MEMB     109      PMPE     HA       HAL2     0.900000E-01   1.00800           0   0.00000     -0.301140E-02
     13451 MEMB     109      PMPE     HB       HAL2     0.900000E-01   1.00800           0   0.00000     -0.301140E-02
     13452 MEMB     109      PMPE     C2       CTL1     0.170000       12.0110           0   0.00000     -0.301140E-02
     13453 MEMB     109      PMPE     HS       HAL1     0.900000E-01   1.00800           0   0.00000     -0.301140E-02
     13454 MEMB     109      PMPE     O21      OSL     -0.490000       15.9994           0   0.00000     -0.301140E-02
     13455 MEMB     109      PMPE     C21      CL       0.900000       12.0110           0   0.00000     -0.301140E-02
     13456 MEMB     109      PMPE     O22      OBL     -0.630000       15.9994           0   0.00000     -0.301140E-02
     13457 MEMB     109      PMPE     C22      CTL2    -0.220000       12.0110           0   0.00000     -0.301140E-02
     13458 MEMB     109      PMPE     H2R      HAL2     0.900000E-01   1.00800           0   0.00000     -0.301140E-02
     13459 MEMB     109      PMPE     H2S      HAL2     0.900000E-01   1.00800           0   0.00000     -0.301140E-02
     13460 MEMB     109      PMPE     C3       CTL2     0.800000E-01   12.0110           0   0.00000     -0.301140E-02
     13461 MEMB     109      PMPE     HX       HAL2     0.900000E-01   1.00800           0   0.00000     -0.301140E-02
     13462 MEMB     109      PMPE     HY       HAL2     0.900000E-01   1.00800           0   0.00000     -0.301140E-02
     13463 MEMB     109      PMPE     O31      OSL     -0.490000       15.9994           0   0.00000     -0.301140E-02
     13464 MEMB     109      PMPE     C31      CL       0.900000       12.0110           0   0.00000     -0.301140E-02
     13465 MEMB     109      PMPE     O32      OBL     -0.630000       15.9994           0   0.00000     -0.301140E-02
     13466 MEMB     109      PMPE     C32      CTL2    -0.220000       12.0110           0   0.00000     -0.301140E-02
     13467 MEMB     109      PMPE     H2X      HAL2     0.900000E-01   1.00800           0   0.00000     -0.301140E-02
     13468 MEMB     109      PMPE     H2Y      HAL2     0.900000E-01   1.00800           0   0.00000     -0.301140E-02
     13469 MEMB     109      PMPE     C23      CTL2    -0.180000       12.0110           0   0.00000     -0.301140E-02
     13470 MEMB     109      PMPE     H3R      HAL2     0.900000E-01   1.00800           0   0.00000     -0.301140E-02
     13471 MEMB     109      PMPE     H3S      HAL2     0.900000E-01   1.00800           0   0.00000     -0.301140E-02
     13472 MEMB     109      PMPE     C24      CTL2    -0.180000       12.0110           0   0.00000     -0.301140E-02
     13473 MEMB     109      PMPE     H4R      HAL2     0.900000E-01   1.00800           0   0.00000     -0.301140E-02
     13474 MEMB     109      PMPE     H4S      HAL2     0.900000E-01   1.00800           0   0.00000     -0.301140E-02
     13475 MEMB     109      PMPE     C25      CTL2    -0.180000       12.0110           0   0.00000     -0.301140E-02
     13476 MEMB     109      PMPE     H5R      HAL2     0.900000E-01   1.00800           0   0.00000     -0.301140E-02
     13477 MEMB     109      PMPE     H5S      HAL2     0.900000E-01   1.00800           0   0.00000     -0.301140E-02
     13478 MEMB     109      PMPE     C26      CTL2    -0.180000       12.0110           0   0.00000     -0.301140E-02
     13479 MEMB     109      PMPE     H6R      HAL2     0.900000E-01   1.00800           0   0.00000     -0.301140E-02
     13480 MEMB     109      PMPE     H6S      HAL2     0.900000E-01   1.00800           0   0.00000     -0.301140E-02
     13481 MEMB     109      PMPE     C27      CTL2    -0.180000       12.0110           0   0.00000     -0.301140E-02
     13482 MEMB     109      PMPE     H7R      HAL2     0.900000E-01   1.00800           0   0.00000     -0.301140E-02
     13483 MEMB     109      PMPE     H7S      HAL2     0.900000E-01   1.00800           0   0.00000     -0.301140E-02
     13484 MEMB     109      PMPE     C28      CTL2    -0.180000       12.0110           0   0.00000     -0.301140E-02
     13485 MEMB     109      PMPE     H8R      HAL2     0.900000E-01   1.00800           0   0.00000     -0.301140E-02
     13486 MEMB     109      PMPE     H8S      HAL2     0.900000E-01   1.00800           0   0.00000     -0.301140E-02
     13487 MEMB     109      PMPE     C29      CG3RC1  -0.900000E-01   12.0110           0   0.00000     -0.301140E-02
     13488 MEMB     109      PMPE     H9R      HGA1     0.900000E-01   1.00800           0   0.00000     -0.301140E-02
     13489 MEMB     109      PMPE     C217     CG3C31  -0.180000       12.0110           0   0.00000     -0.301140E-02
     13490 MEMB     109      PMPE     H17R     HGA2     0.900000E-01   1.00800           0   0.00000     -0.301140E-02
     13491 MEMB     109      PMPE     H17S     HGA2     0.900000E-01   1.00800           0   0.00000     -0.301140E-02
     13492 MEMB     109      PMPE     C210     CG3RC1  -0.900000E-01   12.0110           0   0.00000     -0.301140E-02
     13493 MEMB     109      PMPE     H10R     HGA1     0.900000E-01   1.00800           0   0.00000     -0.301140E-02
     13494 MEMB     109      PMPE     C211     CTL2    -0.180000       12.0110           0   0.00000     -0.301140E-02
     13495 MEMB     109      PMPE     H11R     HAL2     0.900000E-01   1.00800           0   0.00000     -0.301140E-02
     13496 MEMB     109      PMPE     H11S     HAL2     0.900000E-01   1.00800           0   0.00000     -0.301140E-02
     13497 MEMB     109      PMPE     C212     CTL2    -0.180000       12.0110           0   0.00000     -0.301140E-02
     13498 MEMB     109      PMPE     H12R     HAL2     0.900000E-01   1.00800           0   0.00000     -0.301140E-02
     13499 MEMB     109      PMPE     H12S     HAL2     0.900000E-01   1.00800           0   0.00000     -0.301140E-02
     13500 MEMB     109      PMPE     C213     CTL2    -0.180000       12.0110           0   0.00000     -0.301140E-02
     13501 MEMB     109      PMPE     H13R     HAL2     0.900000E-01   1.00800           0   0.00000     -0.301140E-02
     13502 MEMB     109      PMPE     H13S     HAL2     0.900000E-01   1.00800           0   0.00000     -0.301140E-02
     13503 MEMB     109      PMPE     C214     CTL2    -0.180000       12.0110           0   0.00000     -0.301140E-02
     13504 MEMB     109      PMPE     H14R     HAL2     0.900000E-01   1.00800           0   0.00000     -0.301140E-02
     13505 MEMB     109      PMPE     H14S     HAL2     0.900000E-01   1.00800           0   0.00000     -0.301140E-02
     13506 MEMB     109      PMPE     C215     CTL2    -0.180000       12.0110           0   0.00000     -0.301140E-02
     13507 MEMB     109      PMPE     H15R     HAL2     0.900000E-01   1.00800           0   0.00000     -0.301140E-02
     13508 MEMB     109      PMPE     H15S     HAL2     0.900000E-01   1.00800           0   0.00000     -0.301140E-02
     13509 MEMB     109      PMPE     C216     CTL3    -0.270000       12.0110           0   0.00000     -0.301140E-02
     13510 MEMB     109      PMPE     H16R     HAL3     0.900000E-01   1.00800           0   0.00000     -0.301140E-02
     13511 MEMB     109      PMPE     H16S     HAL3     0.900000E-01   1.00800           0   0.00000     -0.301140E-02
     13512 MEMB     109      PMPE     H16T     HAL3     0.900000E-01   1.00800           0   0.00000     -0.301140E-02
     13513 MEMB     109      PMPE     C33      CTL2    -0.180000       12.0110           0   0.00000     -0.301140E-02
     13514 MEMB     109      PMPE     H3X      HAL2     0.900000E-01   1.00800           0   0.00000     -0.301140E-02
     13515 MEMB     109      PMPE     H3Y      HAL2     0.900000E-01   1.00800           0   0.00000     -0.301140E-02
     13516 MEMB     109      PMPE     C34      CTL2    -0.180000       12.0110           0   0.00000     -0.301140E-02
     13517 MEMB     109      PMPE     H4X      HAL2     0.900000E-01   1.00800           0   0.00000     -0.301140E-02
     13518 MEMB     109      PMPE     H4Y      HAL2     0.900000E-01   1.00800           0   0.00000     -0.301140E-02
     13519 MEMB     109      PMPE     C35      CTL2    -0.180000       12.0110           0   0.00000     -0.301140E-02
     13520 MEMB     109      PMPE     H5X      HAL2     0.900000E-01   1.00800           0   0.00000     -0.301140E-02
     13521 MEMB     109      PMPE     H5Y      HAL2     0.900000E-01   1.00800           0   0.00000     -0.301140E-02
     13522 MEMB     109      PMPE     C36      CTL2    -0.180000       12.0110           0   0.00000     -0.301140E-02
     13523 MEMB     109      PMPE     H6X      HAL2     0.900000E-01   1.00800           0   0.00000     -0.301140E-02
     13524 MEMB     109      PMPE     H6Y      HAL2     0.900000E-01   1.00800           0   0.00000     -0.301140E-02
     13525 MEMB     109      PMPE     C37      CTL2    -0.180000       12.0110           0   0.00000     -0.301140E-02
     13526 MEMB     109      PMPE     H7X      HAL2     0.900000E-01   1.00800           0   0.00000     -0.301140E-02
     13527 MEMB     109      PMPE     H7Y      HAL2     0.900000E-01   1.00800           0   0.00000     -0.301140E-02
     13528 MEMB     109      PMPE     C38      CTL2    -0.180000       12.0110           0   0.00000     -0.301140E-02
     13529 MEMB     109      PMPE     H8X      HAL2     0.900000E-01   1.00800           0   0.00000     -0.301140E-02
     13530 MEMB     109      PMPE     H8Y      HAL2     0.900000E-01   1.00800           0   0.00000     -0.301140E-02
     13531 MEMB     109      PMPE     C39      CTL2    -0.180000       12.0110           0   0.00000     -0.301140E-02
     13532 MEMB     109      PMPE     H9X      HAL2     0.900000E-01   1.00800           0   0.00000     -0.301140E-02
     13533 MEMB     109      PMPE     H9Y      HAL2     0.900000E-01   1.00800           0   0.00000     -0.301140E-02
     13534 MEMB     109      PMPE     C310     CTL2    -0.180000       12.0110           0   0.00000     -0.301140E-02
     13535 MEMB     109      PMPE     H10X     HAL2     0.900000E-01   1.00800           0   0.00000     -0.301140E-02
     13536 MEMB     109      PMPE     H10Y     HAL2     0.900000E-01   1.00800           0   0.00000     -0.301140E-02
     13537 MEMB     109      PMPE     C311     CTL2    -0.180000       12.0110           0   0.00000     -0.301140E-02
     13538 MEMB     109      PMPE     H11X     HAL2     0.900000E-01   1.00800           0   0.00000     -0.301140E-02
     13539 MEMB     109      PMPE     H11Y     HAL2     0.900000E-01   1.00800           0   0.00000     -0.301140E-02
     13540 MEMB     109      PMPE     C312     CTL2    -0.180000       12.0110           0   0.00000     -0.301140E-02
     13541 MEMB     109      PMPE     H12X     HAL2     0.900000E-01   1.00800           0   0.00000     -0.301140E-02
     13542 MEMB     109      PMPE     H12Y     HAL2     0.900000E-01   1.00800           0   0.00000     -0.301140E-02
     13543 MEMB     109      PMPE     C313     CTL2    -0.180000       12.0110           0   0.00000     -0.301140E-02
     13544 MEMB     109      PMPE     H13X     HAL2     0.900000E-01   1.00800           0   0.00000     -0.301140E-02
     13545 MEMB     109      PMPE     H13Y     HAL2     0.900000E-01   1.00800           0   0.00000     -0.301140E-02
     13546 MEMB     109      PMPE     C314     CTL2    -0.180000       12.0110           0   0.00000     -0.301140E-02
     13547 MEMB     109      PMPE     H14X     HAL2     0.900000E-01   1.00800           0   0.00000     -0.301140E-02
     13548 MEMB     109      PMPE     H14Y     HAL2     0.900000E-01   1.00800           0   0.00000     -0.301140E-02
     13549 MEMB     109      PMPE     C315     CTL2    -0.180000       12.0110           0   0.00000     -0.301140E-02
     13550 MEMB     109      PMPE     H15X     HAL2     0.900000E-01   1.00800           0   0.00000     -0.301140E-02
     13551 MEMB     109      PMPE     H15Y     HAL2     0.900000E-01   1.00800           0   0.00000     -0.301140E-02
     13552 MEMB     109      PMPE     C316     CTL3    -0.270000       12.0110           0   0.00000     -0.301140E-02
     13553 MEMB     109      PMPE     H16X     HAL3     0.900000E-01   1.00800           0   0.00000     -0.301140E-02
     13554 MEMB     109      PMPE     H16Y     HAL3     0.900000E-01   1.00800           0   0.00000     -0.301140E-02
     13555 MEMB     109      PMPE     H16Z     HAL3     0.900000E-01   1.00800           0   0.00000     -0.301140E-02
     13556 MEMB     110      PMPE     N        NH3L    -0.300000       14.0070           0   0.00000     -0.301140E-02
     13557 MEMB     110      PMPE     HN1      HCL      0.330000       1.00800           0   0.00000     -0.301140E-02
     13558 MEMB     110      PMPE     HN2      HCL      0.330000       1.00800           0   0.00000     -0.301140E-02
     13559 MEMB     110      PMPE     HN3      HCL      0.330000       1.00800           0   0.00000     -0.301140E-02
     13560 MEMB     110      PMPE     C12      CTL2     0.130000       12.0110           0   0.00000     -0.301140E-02
     13561 MEMB     110      PMPE     H12A     HAL2     0.900000E-01   1.00800           0   0.00000     -0.301140E-02
     13562 MEMB     110      PMPE     H12B     HAL2     0.900000E-01   1.00800           0   0.00000     -0.301140E-02
     13563 MEMB     110      PMPE     C11      CTL2    -0.800000E-01   12.0110           0   0.00000     -0.301140E-02
     13564 MEMB     110      PMPE     H11A     HAL2     0.900000E-01   1.00800           0   0.00000     -0.301140E-02
     13565 MEMB     110      PMPE     H11B     HAL2     0.900000E-01   1.00800           0   0.00000     -0.301140E-02
     13566 MEMB     110      PMPE     P        PL        1.50000       30.9740           0   0.00000     -0.301140E-02
     13567 MEMB     110      PMPE     O13      O2L     -0.780000       15.9994           0   0.00000     -0.301140E-02
     13568 MEMB     110      PMPE     O14      O2L     -0.780000       15.9994           0   0.00000     -0.301140E-02
     13569 MEMB     110      PMPE     O11      OSLP    -0.570000       15.9994           0   0.00000     -0.301140E-02
     13570 MEMB     110      PMPE     O12      OSLP    -0.570000       15.9994           0   0.00000     -0.301140E-02
     13571 MEMB     110      PMPE     C1       CTL2    -0.800000E-01   12.0110           0   0.00000     -0.301140E-02
     13572 MEMB     110      PMPE     HA       HAL2     0.900000E-01   1.00800           0   0.00000     -0.301140E-02
     13573 MEMB     110      PMPE     HB       HAL2     0.900000E-01   1.00800           0   0.00000     -0.301140E-02
     13574 MEMB     110      PMPE     C2       CTL1     0.170000       12.0110           0   0.00000     -0.301140E-02
     13575 MEMB     110      PMPE     HS       HAL1     0.900000E-01   1.00800           0   0.00000     -0.301140E-02
     13576 MEMB     110      PMPE     O21      OSL     -0.490000       15.9994           0   0.00000     -0.301140E-02
     13577 MEMB     110      PMPE     C21      CL       0.900000       12.0110           0   0.00000     -0.301140E-02
     13578 MEMB     110      PMPE     O22      OBL     -0.630000       15.9994           0   0.00000     -0.301140E-02
     13579 MEMB     110      PMPE     C22      CTL2    -0.220000       12.0110           0   0.00000     -0.301140E-02
     13580 MEMB     110      PMPE     H2R      HAL2     0.900000E-01   1.00800           0   0.00000     -0.301140E-02
     13581 MEMB     110      PMPE     H2S      HAL2     0.900000E-01   1.00800           0   0.00000     -0.301140E-02
     13582 MEMB     110      PMPE     C3       CTL2     0.800000E-01   12.0110           0   0.00000     -0.301140E-02
     13583 MEMB     110      PMPE     HX       HAL2     0.900000E-01   1.00800           0   0.00000     -0.301140E-02
     13584 MEMB     110      PMPE     HY       HAL2     0.900000E-01   1.00800           0   0.00000     -0.301140E-02
     13585 MEMB     110      PMPE     O31      OSL     -0.490000       15.9994           0   0.00000     -0.301140E-02
     13586 MEMB     110      PMPE     C31      CL       0.900000       12.0110           0   0.00000     -0.301140E-02
     13587 MEMB     110      PMPE     O32      OBL     -0.630000       15.9994           0   0.00000     -0.301140E-02
     13588 MEMB     110      PMPE     C32      CTL2    -0.220000       12.0110           0   0.00000     -0.301140E-02
     13589 MEMB     110      PMPE     H2X      HAL2     0.900000E-01   1.00800           0   0.00000     -0.301140E-02
     13590 MEMB     110      PMPE     H2Y      HAL2     0.900000E-01   1.00800           0   0.00000     -0.301140E-02
     13591 MEMB     110      PMPE     C23      CTL2    -0.180000       12.0110           0   0.00000     -0.301140E-02
     13592 MEMB     110      PMPE     H3R      HAL2     0.900000E-01   1.00800           0   0.00000     -0.301140E-02
     13593 MEMB     110      PMPE     H3S      HAL2     0.900000E-01   1.00800           0   0.00000     -0.301140E-02
     13594 MEMB     110      PMPE     C24      CTL2    -0.180000       12.0110           0   0.00000     -0.301140E-02
     13595 MEMB     110      PMPE     H4R      HAL2     0.900000E-01   1.00800           0   0.00000     -0.301140E-02
     13596 MEMB     110      PMPE     H4S      HAL2     0.900000E-01   1.00800           0   0.00000     -0.301140E-02
     13597 MEMB     110      PMPE     C25      CTL2    -0.180000       12.0110           0   0.00000     -0.301140E-02
     13598 MEMB     110      PMPE     H5R      HAL2     0.900000E-01   1.00800           0   0.00000     -0.301140E-02
     13599 MEMB     110      PMPE     H5S      HAL2     0.900000E-01   1.00800           0   0.00000     -0.301140E-02
     13600 MEMB     110      PMPE     C26      CTL2    -0.180000       12.0110           0   0.00000     -0.301140E-02
     13601 MEMB     110      PMPE     H6R      HAL2     0.900000E-01   1.00800           0   0.00000     -0.301140E-02
     13602 MEMB     110      PMPE     H6S      HAL2     0.900000E-01   1.00800           0   0.00000     -0.301140E-02
     13603 MEMB     110      PMPE     C27      CTL2    -0.180000       12.0110           0   0.00000     -0.301140E-02
     13604 MEMB     110      PMPE     H7R      HAL2     0.900000E-01   1.00800           0   0.00000     -0.301140E-02
     13605 MEMB     110      PMPE     H7S      HAL2     0.900000E-01   1.00800           0   0.00000     -0.301140E-02
     13606 MEMB     110      PMPE     C28      CTL2    -0.180000       12.0110           0   0.00000     -0.301140E-02
     13607 MEMB     110      PMPE     H8R      HAL2     0.900000E-01   1.00800           0   0.00000     -0.301140E-02
     13608 MEMB     110      PMPE     H8S      HAL2     0.900000E-01   1.00800           0   0.00000     -0.301140E-02
     13609 MEMB     110      PMPE     C29      CG3RC1  -0.900000E-01   12.0110           0   0.00000     -0.301140E-02
     13610 MEMB     110      PMPE     H9R      HGA1     0.900000E-01   1.00800           0   0.00000     -0.301140E-02
     13611 MEMB     110      PMPE     C217     CG3C31  -0.180000       12.0110           0   0.00000     -0.301140E-02
     13612 MEMB     110      PMPE     H17R     HGA2     0.900000E-01   1.00800           0   0.00000     -0.301140E-02
     13613 MEMB     110      PMPE     H17S     HGA2     0.900000E-01   1.00800           0   0.00000     -0.301140E-02
     13614 MEMB     110      PMPE     C210     CG3RC1  -0.900000E-01   12.0110           0   0.00000     -0.301140E-02
     13615 MEMB     110      PMPE     H10R     HGA1     0.900000E-01   1.00800           0   0.00000     -0.301140E-02
     13616 MEMB     110      PMPE     C211     CTL2    -0.180000       12.0110           0   0.00000     -0.301140E-02
     13617 MEMB     110      PMPE     H11R     HAL2     0.900000E-01   1.00800           0   0.00000     -0.301140E-02
     13618 MEMB     110      PMPE     H11S     HAL2     0.900000E-01   1.00800           0   0.00000     -0.301140E-02
     13619 MEMB     110      PMPE     C212     CTL2    -0.180000       12.0110           0   0.00000     -0.301140E-02
     13620 MEMB     110      PMPE     H12R     HAL2     0.900000E-01   1.00800           0   0.00000     -0.301140E-02
     13621 MEMB     110      PMPE     H12S     HAL2     0.900000E-01   1.00800           0   0.00000     -0.301140E-02
     13622 MEMB     110      PMPE     C213     CTL2    -0.180000       12.0110           0   0.00000     -0.301140E-02
     13623 MEMB     110      PMPE     H13R     HAL2     0.900000E-01   1.00800           0   0.00000     -0.301140E-02
     13624 MEMB     110      PMPE     H13S     HAL2     0.900000E-01   1.00800           0   0.00000     -0.301140E-02
     13625 MEMB     110      PMPE     C214     CTL2    -0.180000       12.0110           0   0.00000     -0.301140E-02
     13626 MEMB     110      PMPE     H14R     HAL2     0.900000E-01   1.00800           0   0.00000     -0.301140E-02
     13627 MEMB     110      PMPE     H14S     HAL2     0.900000E-01   1.00800           0   0.00000     -0.301140E-02
     13628 MEMB     110      PMPE     C215     CTL2    -0.180000       12.0110           0   0.00000     -0.301140E-02
     13629 MEMB     110      PMPE     H15R     HAL2     0.900000E-01   1.00800           0   0.00000     -0.301140E-02
     13630 MEMB     110      PMPE     H15S     HAL2     0.900000E-01   1.00800           0   0.00000     -0.301140E-02
     13631 MEMB     110      PMPE     C216     CTL3    -0.270000       12.0110           0   0.00000     -0.301140E-02
     13632 MEMB     110      PMPE     H16R     HAL3     0.900000E-01   1.00800           0   0.00000     -0.301140E-02
     13633 MEMB     110      PMPE     H16S     HAL3     0.900000E-01   1.00800           0   0.00000     -0.301140E-02
     13634 MEMB     110      PMPE     H16T     HAL3     0.900000E-01   1.00800           0   0.00000     -0.301140E-02
     13635 MEMB     110      PMPE     C33      CTL2    -0.180000       12.0110           0   0.00000     -0.301140E-02
     13636 MEMB     110      PMPE     H3X      HAL2     0.900000E-01   1.00800           0   0.00000     -0.301140E-02
     13637 MEMB     110      PMPE     H3Y      HAL2     0.900000E-01   1.00800           0   0.00000     -0.301140E-02
     13638 MEMB     110      PMPE     C34      CTL2    -0.180000       12.0110           0   0.00000     -0.301140E-02
     13639 MEMB     110      PMPE     H4X      HAL2     0.900000E-01   1.00800           0   0.00000     -0.301140E-02
     13640 MEMB     110      PMPE     H4Y      HAL2     0.900000E-01   1.00800           0   0.00000     -0.301140E-02
     13641 MEMB     110      PMPE     C35      CTL2    -0.180000       12.0110           0   0.00000     -0.301140E-02
     13642 MEMB     110      PMPE     H5X      HAL2     0.900000E-01   1.00800           0   0.00000     -0.301140E-02
     13643 MEMB     110      PMPE     H5Y      HAL2     0.900000E-01   1.00800           0   0.00000     -0.301140E-02
     13644 MEMB     110      PMPE     C36      CTL2    -0.180000       12.0110           0   0.00000     -0.301140E-02
     13645 MEMB     110      PMPE     H6X      HAL2     0.900000E-01   1.00800           0   0.00000     -0.301140E-02
     13646 MEMB     110      PMPE     H6Y      HAL2     0.900000E-01   1.00800           0   0.00000     -0.301140E-02
     13647 MEMB     110      PMPE     C37      CTL2    -0.180000       12.0110           0   0.00000     -0.301140E-02
     13648 MEMB     110      PMPE     H7X      HAL2     0.900000E-01   1.00800           0   0.00000     -0.301140E-02
     13649 MEMB     110      PMPE     H7Y      HAL2     0.900000E-01   1.00800           0   0.00000     -0.301140E-02
     13650 MEMB     110      PMPE     C38      CTL2    -0.180000       12.0110           0   0.00000     -0.301140E-02
     13651 MEMB     110      PMPE     H8X      HAL2     0.900000E-01   1.00800           0   0.00000     -0.301140E-02
     13652 MEMB     110      PMPE     H8Y      HAL2     0.900000E-01   1.00800           0   0.00000     -0.301140E-02
     13653 MEMB     110      PMPE     C39      CTL2    -0.180000       12.0110           0   0.00000     -0.301140E-02
     13654 MEMB     110      PMPE     H9X      HAL2     0.900000E-01   1.00800           0   0.00000     -0.301140E-02
     13655 MEMB     110      PMPE     H9Y      HAL2     0.900000E-01   1.00800           0   0.00000     -0.301140E-02
     13656 MEMB     110      PMPE     C310     CTL2    -0.180000       12.0110           0   0.00000     -0.301140E-02
     13657 MEMB     110      PMPE     H10X     HAL2     0.900000E-01   1.00800           0   0.00000     -0.301140E-02
     13658 MEMB     110      PMPE     H10Y     HAL2     0.900000E-01   1.00800           0   0.00000     -0.301140E-02
     13659 MEMB     110      PMPE     C311     CTL2    -0.180000       12.0110           0   0.00000     -0.301140E-02
     13660 MEMB     110      PMPE     H11X     HAL2     0.900000E-01   1.00800           0   0.00000     -0.301140E-02
     13661 MEMB     110      PMPE     H11Y     HAL2     0.900000E-01   1.00800           0   0.00000     -0.301140E-02
     13662 MEMB     110      PMPE     C312     CTL2    -0.180000       12.0110           0   0.00000     -0.301140E-02
     13663 MEMB     110      PMPE     H12X     HAL2     0.900000E-01   1.00800           0   0.00000     -0.301140E-02
     13664 MEMB     110      PMPE     H12Y     HAL2     0.900000E-01   1.00800           0   0.00000     -0.301140E-02
     13665 MEMB     110      PMPE     C313     CTL2    -0.180000       12.0110           0   0.00000     -0.301140E-02
     13666 MEMB     110      PMPE     H13X     HAL2     0.900000E-01   1.00800           0   0.00000     -0.301140E-02
     13667 MEMB     110      PMPE     H13Y     HAL2     0.900000E-01   1.00800           0   0.00000     -0.301140E-02
     13668 MEMB     110      PMPE     C314     CTL2    -0.180000       12.0110           0   0.00000     -0.301140E-02
     13669 MEMB     110      PMPE     H14X     HAL2     0.900000E-01   1.00800           0   0.00000     -0.301140E-02
     13670 MEMB     110      PMPE     H14Y     HAL2     0.900000E-01   1.00800           0   0.00000     -0.301140E-02
     13671 MEMB     110      PMPE     C315     CTL2    -0.180000       12.0110           0   0.00000     -0.301140E-02
     13672 MEMB     110      PMPE     H15X     HAL2     0.900000E-01   1.00800           0   0.00000     -0.301140E-02
     13673 MEMB     110      PMPE     H15Y     HAL2     0.900000E-01   1.00800           0   0.00000     -0.301140E-02
     13674 MEMB     110      PMPE     C316     CTL3    -0.270000       12.0110           0   0.00000     -0.301140E-02
     13675 MEMB     110      PMPE     H16X     HAL3     0.900000E-01   1.00800           0   0.00000     -0.301140E-02
     13676 MEMB     110      PMPE     H16Y     HAL3     0.900000E-01   1.00800           0   0.00000     -0.301140E-02
     13677 MEMB     110      PMPE     H16Z     HAL3     0.900000E-01   1.00800           0   0.00000     -0.301140E-02
     13678 MEMB     111      PMPE     N        NH3L    -0.300000       14.0070           0   0.00000     -0.301140E-02
     13679 MEMB     111      PMPE     HN1      HCL      0.330000       1.00800           0   0.00000     -0.301140E-02
     13680 MEMB     111      PMPE     HN2      HCL      0.330000       1.00800           0   0.00000     -0.301140E-02
     13681 MEMB     111      PMPE     HN3      HCL      0.330000       1.00800           0   0.00000     -0.301140E-02
     13682 MEMB     111      PMPE     C12      CTL2     0.130000       12.0110           0   0.00000     -0.301140E-02
     13683 MEMB     111      PMPE     H12A     HAL2     0.900000E-01   1.00800           0   0.00000     -0.301140E-02
     13684 MEMB     111      PMPE     H12B     HAL2     0.900000E-01   1.00800           0   0.00000     -0.301140E-02
     13685 MEMB     111      PMPE     C11      CTL2    -0.800000E-01   12.0110           0   0.00000     -0.301140E-02
     13686 MEMB     111      PMPE     H11A     HAL2     0.900000E-01   1.00800           0   0.00000     -0.301140E-02
     13687 MEMB     111      PMPE     H11B     HAL2     0.900000E-01   1.00800           0   0.00000     -0.301140E-02
     13688 MEMB     111      PMPE     P        PL        1.50000       30.9740           0   0.00000     -0.301140E-02
     13689 MEMB     111      PMPE     O13      O2L     -0.780000       15.9994           0   0.00000     -0.301140E-02
     13690 MEMB     111      PMPE     O14      O2L     -0.780000       15.9994           0   0.00000     -0.301140E-02
     13691 MEMB     111      PMPE     O11      OSLP    -0.570000       15.9994           0   0.00000     -0.301140E-02
     13692 MEMB     111      PMPE     O12      OSLP    -0.570000       15.9994           0   0.00000     -0.301140E-02
     13693 MEMB     111      PMPE     C1       CTL2    -0.800000E-01   12.0110           0   0.00000     -0.301140E-02
     13694 MEMB     111      PMPE     HA       HAL2     0.900000E-01   1.00800           0   0.00000     -0.301140E-02
     13695 MEMB     111      PMPE     HB       HAL2     0.900000E-01   1.00800           0   0.00000     -0.301140E-02
     13696 MEMB     111      PMPE     C2       CTL1     0.170000       12.0110           0   0.00000     -0.301140E-02
     13697 MEMB     111      PMPE     HS       HAL1     0.900000E-01   1.00800           0   0.00000     -0.301140E-02
     13698 MEMB     111      PMPE     O21      OSL     -0.490000       15.9994           0   0.00000     -0.301140E-02
     13699 MEMB     111      PMPE     C21      CL       0.900000       12.0110           0   0.00000     -0.301140E-02
     13700 MEMB     111      PMPE     O22      OBL     -0.630000       15.9994           0   0.00000     -0.301140E-02
     13701 MEMB     111      PMPE     C22      CTL2    -0.220000       12.0110           0   0.00000     -0.301140E-02
     13702 MEMB     111      PMPE     H2R      HAL2     0.900000E-01   1.00800           0   0.00000     -0.301140E-02
     13703 MEMB     111      PMPE     H2S      HAL2     0.900000E-01   1.00800           0   0.00000     -0.301140E-02
     13704 MEMB     111      PMPE     C3       CTL2     0.800000E-01   12.0110           0   0.00000     -0.301140E-02
     13705 MEMB     111      PMPE     HX       HAL2     0.900000E-01   1.00800           0   0.00000     -0.301140E-02
     13706 MEMB     111      PMPE     HY       HAL2     0.900000E-01   1.00800           0   0.00000     -0.301140E-02
     13707 MEMB     111      PMPE     O31      OSL     -0.490000       15.9994           0   0.00000     -0.301140E-02
     13708 MEMB     111      PMPE     C31      CL       0.900000       12.0110           0   0.00000     -0.301140E-02
     13709 MEMB     111      PMPE     O32      OBL     -0.630000       15.9994           0   0.00000     -0.301140E-02
     13710 MEMB     111      PMPE     C32      CTL2    -0.220000       12.0110           0   0.00000     -0.301140E-02
     13711 MEMB     111      PMPE     H2X      HAL2     0.900000E-01   1.00800           0   0.00000     -0.301140E-02
     13712 MEMB     111      PMPE     H2Y      HAL2     0.900000E-01   1.00800           0   0.00000     -0.301140E-02
     13713 MEMB     111      PMPE     C23      CTL2    -0.180000       12.0110           0   0.00000     -0.301140E-02
     13714 MEMB     111      PMPE     H3R      HAL2     0.900000E-01   1.00800           0   0.00000     -0.301140E-02
     13715 MEMB     111      PMPE     H3S      HAL2     0.900000E-01   1.00800           0   0.00000     -0.301140E-02
     13716 MEMB     111      PMPE     C24      CTL2    -0.180000       12.0110           0   0.00000     -0.301140E-02
     13717 MEMB     111      PMPE     H4R      HAL2     0.900000E-01   1.00800           0   0.00000     -0.301140E-02
     13718 MEMB     111      PMPE     H4S      HAL2     0.900000E-01   1.00800           0   0.00000     -0.301140E-02
     13719 MEMB     111      PMPE     C25      CTL2    -0.180000       12.0110           0   0.00000     -0.301140E-02
     13720 MEMB     111      PMPE     H5R      HAL2     0.900000E-01   1.00800           0   0.00000     -0.301140E-02
     13721 MEMB     111      PMPE     H5S      HAL2     0.900000E-01   1.00800           0   0.00000     -0.301140E-02
     13722 MEMB     111      PMPE     C26      CTL2    -0.180000       12.0110           0   0.00000     -0.301140E-02
     13723 MEMB     111      PMPE     H6R      HAL2     0.900000E-01   1.00800           0   0.00000     -0.301140E-02
     13724 MEMB     111      PMPE     H6S      HAL2     0.900000E-01   1.00800           0   0.00000     -0.301140E-02
     13725 MEMB     111      PMPE     C27      CTL2    -0.180000       12.0110           0   0.00000     -0.301140E-02
     13726 MEMB     111      PMPE     H7R      HAL2     0.900000E-01   1.00800           0   0.00000     -0.301140E-02
     13727 MEMB     111      PMPE     H7S      HAL2     0.900000E-01   1.00800           0   0.00000     -0.301140E-02
     13728 MEMB     111      PMPE     C28      CTL2    -0.180000       12.0110           0   0.00000     -0.301140E-02
     13729 MEMB     111      PMPE     H8R      HAL2     0.900000E-01   1.00800           0   0.00000     -0.301140E-02
     13730 MEMB     111      PMPE     H8S      HAL2     0.900000E-01   1.00800           0   0.00000     -0.301140E-02
     13731 MEMB     111      PMPE     C29      CG3RC1  -0.900000E-01   12.0110           0   0.00000     -0.301140E-02
     13732 MEMB     111      PMPE     H9R      HGA1     0.900000E-01   1.00800           0   0.00000     -0.301140E-02
     13733 MEMB     111      PMPE     C217     CG3C31  -0.180000       12.0110           0   0.00000     -0.301140E-02
     13734 MEMB     111      PMPE     H17R     HGA2     0.900000E-01   1.00800           0   0.00000     -0.301140E-02
     13735 MEMB     111      PMPE     H17S     HGA2     0.900000E-01   1.00800           0   0.00000     -0.301140E-02
     13736 MEMB     111      PMPE     C210     CG3RC1  -0.900000E-01   12.0110           0   0.00000     -0.301140E-02
     13737 MEMB     111      PMPE     H10R     HGA1     0.900000E-01   1.00800           0   0.00000     -0.301140E-02
     13738 MEMB     111      PMPE     C211     CTL2    -0.180000       12.0110           0   0.00000     -0.301140E-02
     13739 MEMB     111      PMPE     H11R     HAL2     0.900000E-01   1.00800           0   0.00000     -0.301140E-02
     13740 MEMB     111      PMPE     H11S     HAL2     0.900000E-01   1.00800           0   0.00000     -0.301140E-02
     13741 MEMB     111      PMPE     C212     CTL2    -0.180000       12.0110           0   0.00000     -0.301140E-02
     13742 MEMB     111      PMPE     H12R     HAL2     0.900000E-01   1.00800           0   0.00000     -0.301140E-02
     13743 MEMB     111      PMPE     H12S     HAL2     0.900000E-01   1.00800           0   0.00000     -0.301140E-02
     13744 MEMB     111      PMPE     C213     CTL2    -0.180000       12.0110           0   0.00000     -0.301140E-02
     13745 MEMB     111      PMPE     H13R     HAL2     0.900000E-01   1.00800           0   0.00000     -0.301140E-02
     13746 MEMB     111      PMPE     H13S     HAL2     0.900000E-01   1.00800           0   0.00000     -0.301140E-02
     13747 MEMB     111      PMPE     C214     CTL2    -0.180000       12.0110           0   0.00000     -0.301140E-02
     13748 MEMB     111      PMPE     H14R     HAL2     0.900000E-01   1.00800           0   0.00000     -0.301140E-02
     13749 MEMB     111      PMPE     H14S     HAL2     0.900000E-01   1.00800           0   0.00000     -0.301140E-02
     13750 MEMB     111      PMPE     C215     CTL2    -0.180000       12.0110           0   0.00000     -0.301140E-02
     13751 MEMB     111      PMPE     H15R     HAL2     0.900000E-01   1.00800           0   0.00000     -0.301140E-02
     13752 MEMB     111      PMPE     H15S     HAL2     0.900000E-01   1.00800           0   0.00000     -0.301140E-02
     13753 MEMB     111      PMPE     C216     CTL3    -0.270000       12.0110           0   0.00000     -0.301140E-02
     13754 MEMB     111      PMPE     H16R     HAL3     0.900000E-01   1.00800           0   0.00000     -0.301140E-02
     13755 MEMB     111      PMPE     H16S     HAL3     0.900000E-01   1.00800           0   0.00000     -0.301140E-02
     13756 MEMB     111      PMPE     H16T     HAL3     0.900000E-01   1.00800           0   0.00000     -0.301140E-02
     13757 MEMB     111      PMPE     C33      CTL2    -0.180000       12.0110           0   0.00000     -0.301140E-02
     13758 MEMB     111      PMPE     H3X      HAL2     0.900000E-01   1.00800           0   0.00000     -0.301140E-02
     13759 MEMB     111      PMPE     H3Y      HAL2     0.900000E-01   1.00800           0   0.00000     -0.301140E-02
     13760 MEMB     111      PMPE     C34      CTL2    -0.180000       12.0110           0   0.00000     -0.301140E-02
     13761 MEMB     111      PMPE     H4X      HAL2     0.900000E-01   1.00800           0   0.00000     -0.301140E-02
     13762 MEMB     111      PMPE     H4Y      HAL2     0.900000E-01   1.00800           0   0.00000     -0.301140E-02
     13763 MEMB     111      PMPE     C35      CTL2    -0.180000       12.0110           0   0.00000     -0.301140E-02
     13764 MEMB     111      PMPE     H5X      HAL2     0.900000E-01   1.00800           0   0.00000     -0.301140E-02
     13765 MEMB     111      PMPE     H5Y      HAL2     0.900000E-01   1.00800           0   0.00000     -0.301140E-02
     13766 MEMB     111      PMPE     C36      CTL2    -0.180000       12.0110           0   0.00000     -0.301140E-02
     13767 MEMB     111      PMPE     H6X      HAL2     0.900000E-01   1.00800           0   0.00000     -0.301140E-02
     13768 MEMB     111      PMPE     H6Y      HAL2     0.900000E-01   1.00800           0   0.00000     -0.301140E-02
     13769 MEMB     111      PMPE     C37      CTL2    -0.180000       12.0110           0   0.00000     -0.301140E-02
     13770 MEMB     111      PMPE     H7X      HAL2     0.900000E-01   1.00800           0   0.00000     -0.301140E-02
     13771 MEMB     111      PMPE     H7Y      HAL2     0.900000E-01   1.00800           0   0.00000     -0.301140E-02
     13772 MEMB     111      PMPE     C38      CTL2    -0.180000       12.0110           0   0.00000     -0.301140E-02
     13773 MEMB     111      PMPE     H8X      HAL2     0.900000E-01   1.00800           0   0.00000     -0.301140E-02
     13774 MEMB     111      PMPE     H8Y      HAL2     0.900000E-01   1.00800           0   0.00000     -0.301140E-02
     13775 MEMB     111      PMPE     C39      CTL2    -0.180000       12.0110           0   0.00000     -0.301140E-02
     13776 MEMB     111      PMPE     H9X      HAL2     0.900000E-01   1.00800           0   0.00000     -0.301140E-02
     13777 MEMB     111      PMPE     H9Y      HAL2     0.900000E-01   1.00800           0   0.00000     -0.301140E-02
     13778 MEMB     111      PMPE     C310     CTL2    -0.180000       12.0110           0   0.00000     -0.301140E-02
     13779 MEMB     111      PMPE     H10X     HAL2     0.900000E-01   1.00800           0   0.00000     -0.301140E-02
     13780 MEMB     111      PMPE     H10Y     HAL2     0.900000E-01   1.00800           0   0.00000     -0.301140E-02
     13781 MEMB     111      PMPE     C311     CTL2    -0.180000       12.0110           0   0.00000     -0.301140E-02
     13782 MEMB     111      PMPE     H11X     HAL2     0.900000E-01   1.00800           0   0.00000     -0.301140E-02
     13783 MEMB     111      PMPE     H11Y     HAL2     0.900000E-01   1.00800           0   0.00000     -0.301140E-02
     13784 MEMB     111      PMPE     C312     CTL2    -0.180000       12.0110           0   0.00000     -0.301140E-02
     13785 MEMB     111      PMPE     H12X     HAL2     0.900000E-01   1.00800           0   0.00000     -0.301140E-02
     13786 MEMB     111      PMPE     H12Y     HAL2     0.900000E-01   1.00800           0   0.00000     -0.301140E-02
     13787 MEMB     111      PMPE     C313     CTL2    -0.180000       12.0110           0   0.00000     -0.301140E-02
     13788 MEMB     111      PMPE     H13X     HAL2     0.900000E-01   1.00800           0   0.00000     -0.301140E-02
     13789 MEMB     111      PMPE     H13Y     HAL2     0.900000E-01   1.00800           0   0.00000     -0.301140E-02
     13790 MEMB     111      PMPE     C314     CTL2    -0.180000       12.0110           0   0.00000     -0.301140E-02
     13791 MEMB     111      PMPE     H14X     HAL2     0.900000E-01   1.00800           0   0.00000     -0.301140E-02
     13792 MEMB     111      PMPE     H14Y     HAL2     0.900000E-01   1.00800           0   0.00000     -0.301140E-02
     13793 MEMB     111      PMPE     C315     CTL2    -0.180000       12.0110           0   0.00000     -0.301140E-02
     13794 MEMB     111      PMPE     H15X     HAL2     0.900000E-01   1.00800           0   0.00000     -0.301140E-02
     13795 MEMB     111      PMPE     H15Y     HAL2     0.900000E-01   1.00800           0   0.00000     -0.301140E-02
     13796 MEMB     111      PMPE     C316     CTL3    -0.270000       12.0110           0   0.00000     -0.301140E-02
     13797 MEMB     111      PMPE     H16X     HAL3     0.900000E-01   1.00800           0   0.00000     -0.301140E-02
     13798 MEMB     111      PMPE     H16Y     HAL3     0.900000E-01   1.00800           0   0.00000     -0.301140E-02
     13799 MEMB     111      PMPE     H16Z     HAL3     0.900000E-01   1.00800           0   0.00000     -0.301140E-02
     13800 MEMB     112      QMPE     N        NH3L    -0.300000       14.0070           0   0.00000     -0.301140E-02
     13801 MEMB     112      QMPE     HN1      HCL      0.330000       1.00800           0   0.00000     -0.301140E-02
     13802 MEMB     112      QMPE     HN2      HCL      0.330000       1.00800           0   0.00000     -0.301140E-02
     13803 MEMB     112      QMPE     HN3      HCL      0.330000       1.00800           0   0.00000     -0.301140E-02
     13804 MEMB     112      QMPE     C12      CTL2     0.130000       12.0110           0   0.00000     -0.301140E-02
     13805 MEMB     112      QMPE     H12A     HAL2     0.900000E-01   1.00800           0   0.00000     -0.301140E-02
     13806 MEMB     112      QMPE     H12B     HAL2     0.900000E-01   1.00800           0   0.00000     -0.301140E-02
     13807 MEMB     112      QMPE     C11      CTL2    -0.800000E-01   12.0110           0   0.00000     -0.301140E-02
     13808 MEMB     112      QMPE     H11A     HAL2     0.900000E-01   1.00800           0   0.00000     -0.301140E-02
     13809 MEMB     112      QMPE     H11B     HAL2     0.900000E-01   1.00800           0   0.00000     -0.301140E-02
     13810 MEMB     112      QMPE     P        PL        1.50000       30.9740           0   0.00000     -0.301140E-02
     13811 MEMB     112      QMPE     O13      O2L     -0.780000       15.9994           0   0.00000     -0.301140E-02
     13812 MEMB     112      QMPE     O14      O2L     -0.780000       15.9994           0   0.00000     -0.301140E-02
     13813 MEMB     112      QMPE     O11      OSLP    -0.570000       15.9994           0   0.00000     -0.301140E-02
     13814 MEMB     112      QMPE     O12      OSLP    -0.570000       15.9994           0   0.00000     -0.301140E-02
     13815 MEMB     112      QMPE     C1       CTL2    -0.800000E-01   12.0110           0   0.00000     -0.301140E-02
     13816 MEMB     112      QMPE     HA       HAL2     0.900000E-01   1.00800           0   0.00000     -0.301140E-02
     13817 MEMB     112      QMPE     HB       HAL2     0.900000E-01   1.00800           0   0.00000     -0.301140E-02
     13818 MEMB     112      QMPE     C2       CTL1     0.170000       12.0110           0   0.00000     -0.301140E-02
     13819 MEMB     112      QMPE     HS       HAL1     0.900000E-01   1.00800           0   0.00000     -0.301140E-02
     13820 MEMB     112      QMPE     O21      OSL     -0.490000       15.9994           0   0.00000     -0.301140E-02
     13821 MEMB     112      QMPE     C21      CL       0.900000       12.0110           0   0.00000     -0.301140E-02
     13822 MEMB     112      QMPE     O22      OBL     -0.630000       15.9994           0   0.00000     -0.301140E-02
     13823 MEMB     112      QMPE     C22      CTL2    -0.220000       12.0110           0   0.00000     -0.301140E-02
     13824 MEMB     112      QMPE     H2R      HAL2     0.900000E-01   1.00800           0   0.00000     -0.301140E-02
     13825 MEMB     112      QMPE     H2S      HAL2     0.900000E-01   1.00800           0   0.00000     -0.301140E-02
     13826 MEMB     112      QMPE     C3       CTL2     0.800000E-01   12.0110           0   0.00000     -0.301140E-02
     13827 MEMB     112      QMPE     HX       HAL2     0.900000E-01   1.00800           0   0.00000     -0.301140E-02
     13828 MEMB     112      QMPE     HY       HAL2     0.900000E-01   1.00800           0   0.00000     -0.301140E-02
     13829 MEMB     112      QMPE     O31      OSL     -0.490000       15.9994           0   0.00000     -0.301140E-02
     13830 MEMB     112      QMPE     C31      CL       0.900000       12.0110           0   0.00000     -0.301140E-02
     13831 MEMB     112      QMPE     O32      OBL     -0.630000       15.9994           0   0.00000     -0.301140E-02
     13832 MEMB     112      QMPE     C32      CTL2    -0.220000       12.0110           0   0.00000     -0.301140E-02
     13833 MEMB     112      QMPE     H2X      HAL2     0.900000E-01   1.00800           0   0.00000     -0.301140E-02
     13834 MEMB     112      QMPE     H2Y      HAL2     0.900000E-01   1.00800           0   0.00000     -0.301140E-02
     13835 MEMB     112      QMPE     C23      CTL2    -0.180000       12.0110           0   0.00000     -0.301140E-02
     13836 MEMB     112      QMPE     H3R      HAL2     0.900000E-01   1.00800           0   0.00000     -0.301140E-02
     13837 MEMB     112      QMPE     H3S      HAL2     0.900000E-01   1.00800           0   0.00000     -0.301140E-02
     13838 MEMB     112      QMPE     C24      CTL2    -0.180000       12.0110           0   0.00000     -0.301140E-02
     13839 MEMB     112      QMPE     H4R      HAL2     0.900000E-01   1.00800           0   0.00000     -0.301140E-02
     13840 MEMB     112      QMPE     H4S      HAL2     0.900000E-01   1.00800           0   0.00000     -0.301140E-02
     13841 MEMB     112      QMPE     C25      CTL2    -0.180000       12.0110           0   0.00000     -0.301140E-02
     13842 MEMB     112      QMPE     H5R      HAL2     0.900000E-01   1.00800           0   0.00000     -0.301140E-02
     13843 MEMB     112      QMPE     H5S      HAL2     0.900000E-01   1.00800           0   0.00000     -0.301140E-02
     13844 MEMB     112      QMPE     C26      CTL2    -0.180000       12.0110           0   0.00000     -0.301140E-02
     13845 MEMB     112      QMPE     H6R      HAL2     0.900000E-01   1.00800           0   0.00000     -0.301140E-02
     13846 MEMB     112      QMPE     H6S      HAL2     0.900000E-01   1.00800           0   0.00000     -0.301140E-02
     13847 MEMB     112      QMPE     C27      CTL2    -0.180000       12.0110           0   0.00000     -0.301140E-02
     13848 MEMB     112      QMPE     H7R      HAL2     0.900000E-01   1.00800           0   0.00000     -0.301140E-02
     13849 MEMB     112      QMPE     H7S      HAL2     0.900000E-01   1.00800           0   0.00000     -0.301140E-02
     13850 MEMB     112      QMPE     C28      CTL2    -0.180000       12.0110           0   0.00000     -0.301140E-02
     13851 MEMB     112      QMPE     H8R      HAL2     0.900000E-01   1.00800           0   0.00000     -0.301140E-02
     13852 MEMB     112      QMPE     H8S      HAL2     0.900000E-01   1.00800           0   0.00000     -0.301140E-02
     13853 MEMB     112      QMPE     C29      CG3RC1  -0.900000E-01   12.0110           0   0.00000     -0.301140E-02
     13854 MEMB     112      QMPE     H9R      HGA1     0.900000E-01   1.00800           0   0.00000     -0.301140E-02
     13855 MEMB     112      QMPE     C217     CG3C31  -0.180000       12.0110           0   0.00000     -0.301140E-02
     13856 MEMB     112      QMPE     H17R     HGA2     0.900000E-01   1.00800           0   0.00000     -0.301140E-02
     13857 MEMB     112      QMPE     H17S     HGA2     0.900000E-01   1.00800           0   0.00000     -0.301140E-02
     13858 MEMB     112      QMPE     C210     CG3RC1  -0.900000E-01   12.0110           0   0.00000     -0.301140E-02
     13859 MEMB     112      QMPE     H10R     HGA1     0.900000E-01   1.00800           0   0.00000     -0.301140E-02
     13860 MEMB     112      QMPE     C211     CTL2    -0.180000       12.0110           0   0.00000     -0.301140E-02
     13861 MEMB     112      QMPE     H11R     HAL2     0.900000E-01   1.00800           0   0.00000     -0.301140E-02
     13862 MEMB     112      QMPE     H11S     HAL2     0.900000E-01   1.00800           0   0.00000     -0.301140E-02
     13863 MEMB     112      QMPE     C212     CTL2    -0.180000       12.0110           0   0.00000     -0.301140E-02
     13864 MEMB     112      QMPE     H12R     HAL2     0.900000E-01   1.00800           0   0.00000     -0.301140E-02
     13865 MEMB     112      QMPE     H12S     HAL2     0.900000E-01   1.00800           0   0.00000     -0.301140E-02
     13866 MEMB     112      QMPE     C213     CTL2    -0.180000       12.0110           0   0.00000     -0.301140E-02
     13867 MEMB     112      QMPE     H13R     HAL2     0.900000E-01   1.00800           0   0.00000     -0.301140E-02
     13868 MEMB     112      QMPE     H13S     HAL2     0.900000E-01   1.00800           0   0.00000     -0.301140E-02
     13869 MEMB     112      QMPE     C214     CTL2    -0.180000       12.0110           0   0.00000     -0.301140E-02
     13870 MEMB     112      QMPE     H14R     HAL2     0.900000E-01   1.00800           0   0.00000     -0.301140E-02
     13871 MEMB     112      QMPE     H14S     HAL2     0.900000E-01   1.00800           0   0.00000     -0.301140E-02
     13872 MEMB     112      QMPE     C215     CTL2    -0.180000       12.0110           0   0.00000     -0.301140E-02
     13873 MEMB     112      QMPE     H15R     HAL2     0.900000E-01   1.00800           0   0.00000     -0.301140E-02
     13874 MEMB     112      QMPE     H15S     HAL2     0.900000E-01   1.00800           0   0.00000     -0.301140E-02
     13875 MEMB     112      QMPE     C216     CTL3    -0.270000       12.0110           0   0.00000     -0.301140E-02
     13876 MEMB     112      QMPE     H16R     HAL3     0.900000E-01   1.00800           0   0.00000     -0.301140E-02
     13877 MEMB     112      QMPE     H16S     HAL3     0.900000E-01   1.00800           0   0.00000     -0.301140E-02
     13878 MEMB     112      QMPE     H16T     HAL3     0.900000E-01   1.00800           0   0.00000     -0.301140E-02
     13879 MEMB     112      QMPE     C33      CTL2    -0.180000       12.0110           0   0.00000     -0.301140E-02
     13880 MEMB     112      QMPE     H3X      HAL2     0.900000E-01   1.00800           0   0.00000     -0.301140E-02
     13881 MEMB     112      QMPE     H3Y      HAL2     0.900000E-01   1.00800           0   0.00000     -0.301140E-02
     13882 MEMB     112      QMPE     C34      CTL2    -0.180000       12.0110           0   0.00000     -0.301140E-02
     13883 MEMB     112      QMPE     H4X      HAL2     0.900000E-01   1.00800           0   0.00000     -0.301140E-02
     13884 MEMB     112      QMPE     H4Y      HAL2     0.900000E-01   1.00800           0   0.00000     -0.301140E-02
     13885 MEMB     112      QMPE     C35      CTL2    -0.180000       12.0110           0   0.00000     -0.301140E-02
     13886 MEMB     112      QMPE     H5X      HAL2     0.900000E-01   1.00800           0   0.00000     -0.301140E-02
     13887 MEMB     112      QMPE     H5Y      HAL2     0.900000E-01   1.00800           0   0.00000     -0.301140E-02
     13888 MEMB     112      QMPE     C36      CTL2    -0.180000       12.0110           0   0.00000     -0.301140E-02
     13889 MEMB     112      QMPE     H6X      HAL2     0.900000E-01   1.00800           0   0.00000     -0.301140E-02
     13890 MEMB     112      QMPE     H6Y      HAL2     0.900000E-01   1.00800           0   0.00000     -0.301140E-02
     13891 MEMB     112      QMPE     C37      CTL2    -0.180000       12.0110           0   0.00000     -0.301140E-02
     13892 MEMB     112      QMPE     H7X      HAL2     0.900000E-01   1.00800           0   0.00000     -0.301140E-02
     13893 MEMB     112      QMPE     H7Y      HAL2     0.900000E-01   1.00800           0   0.00000     -0.301140E-02
     13894 MEMB     112      QMPE     C38      CTL2    -0.180000       12.0110           0   0.00000     -0.301140E-02
     13895 MEMB     112      QMPE     H8X      HAL2     0.900000E-01   1.00800           0   0.00000     -0.301140E-02
     13896 MEMB     112      QMPE     H8Y      HAL2     0.900000E-01   1.00800           0   0.00000     -0.301140E-02
     13897 MEMB     112      QMPE     C39      CTL2    -0.180000       12.0110           0   0.00000     -0.301140E-02
     13898 MEMB     112      QMPE     H9X      HAL2     0.900000E-01   1.00800           0   0.00000     -0.301140E-02
     13899 MEMB     112      QMPE     H9Y      HAL2     0.900000E-01   1.00800           0   0.00000     -0.301140E-02
     13900 MEMB     112      QMPE     C310     CTL2    -0.180000       12.0110           0   0.00000     -0.301140E-02
     13901 MEMB     112      QMPE     H10X     HAL2     0.900000E-01   1.00800           0   0.00000     -0.301140E-02
     13902 MEMB     112      QMPE     H10Y     HAL2     0.900000E-01   1.00800           0   0.00000     -0.301140E-02
     13903 MEMB     112      QMPE     C311     CTL2    -0.180000       12.0110           0   0.00000     -0.301140E-02
     13904 MEMB     112      QMPE     H11X     HAL2     0.900000E-01   1.00800           0   0.00000     -0.301140E-02
     13905 MEMB     112      QMPE     H11Y     HAL2     0.900000E-01   1.00800           0   0.00000     -0.301140E-02
     13906 MEMB     112      QMPE     C312     CTL2    -0.180000       12.0110           0   0.00000     -0.301140E-02
     13907 MEMB     112      QMPE     H12X     HAL2     0.900000E-01   1.00800           0   0.00000     -0.301140E-02
     13908 MEMB     112      QMPE     H12Y     HAL2     0.900000E-01   1.00800           0   0.00000     -0.301140E-02
     13909 MEMB     112      QMPE     C313     CTL2    -0.180000       12.0110           0   0.00000     -0.301140E-02
     13910 MEMB     112      QMPE     H13X     HAL2     0.900000E-01   1.00800           0   0.00000     -0.301140E-02
     13911 MEMB     112      QMPE     H13Y     HAL2     0.900000E-01   1.00800           0   0.00000     -0.301140E-02
     13912 MEMB     112      QMPE     C314     CTL2    -0.180000       12.0110           0   0.00000     -0.301140E-02
     13913 MEMB     112      QMPE     H14X     HAL2     0.900000E-01   1.00800           0   0.00000     -0.301140E-02
     13914 MEMB     112      QMPE     H14Y     HAL2     0.900000E-01   1.00800           0   0.00000     -0.301140E-02
     13915 MEMB     112      QMPE     C315     CTL3    -0.270000       12.0110           0   0.00000     -0.301140E-02
     13916 MEMB     112      QMPE     H15X     HAL3     0.900000E-01   1.00800           0   0.00000     -0.301140E-02
     13917 MEMB     112      QMPE     H15Y     HAL3     0.900000E-01   1.00800           0   0.00000     -0.301140E-02
     13918 MEMB     112      QMPE     H15Z     HAL3     0.900000E-01   1.00800           0   0.00000     -0.301140E-02
     13919 MEMB     113      PMPG     C13      CTL2     0.500000E-01   12.0110           0   0.00000     -0.301140E-02
     13920 MEMB     113      PMPG     H13A     HAL2     0.900000E-01   1.00800           0   0.00000     -0.301140E-02
     13921 MEMB     113      PMPG     H13B     HAL2     0.900000E-01   1.00800           0   0.00000     -0.301140E-02
     13922 MEMB     113      PMPG     OC3      OHL     -0.660000       15.9994           0   0.00000     -0.301140E-02
     13923 MEMB     113      PMPG     HO3      HOL      0.430000       1.00800           0   0.00000     -0.301140E-02
     13924 MEMB     113      PMPG     C12      CTL1     0.140000       12.0110           0   0.00000     -0.301140E-02
     13925 MEMB     113      PMPG     H12A     HAL1     0.900000E-01   1.00800           0   0.00000     -0.301140E-02
     13926 MEMB     113      PMPG     OC2      OHL     -0.660000       15.9994           0   0.00000     -0.301140E-02
     13927 MEMB     113      PMPG     HO2      HOL      0.430000       1.00800           0   0.00000     -0.301140E-02
     13928 MEMB     113      PMPG     C11      CTL2    -0.800000E-01   12.0110           0   0.00000     -0.301140E-02
     13929 MEMB     113      PMPG     H11A     HAL2     0.900000E-01   1.00800           0   0.00000     -0.301140E-02
     13930 MEMB     113      PMPG     H11B     HAL2     0.900000E-01   1.00800           0   0.00000     -0.301140E-02
     13931 MEMB     113      PMPG     P        PL        1.50000       30.9740           0   0.00000     -0.301140E-02
     13932 MEMB     113      PMPG     O13      O2L     -0.780000       15.9994           0   0.00000     -0.301140E-02
     13933 MEMB     113      PMPG     O14      O2L     -0.780000       15.9994           0   0.00000     -0.301140E-02
     13934 MEMB     113      PMPG     O11      OSLP    -0.570000       15.9994           0   0.00000     -0.301140E-02
     13935 MEMB     113      PMPG     O12      OSLP    -0.570000       15.9994           0   0.00000     -0.301140E-02
     13936 MEMB     113      PMPG     C1       CTL2    -0.800000E-01   12.0110           0   0.00000     -0.301140E-02
     13937 MEMB     113      PMPG     HA       HAL2     0.900000E-01   1.00800           0   0.00000     -0.301140E-02
     13938 MEMB     113      PMPG     HB       HAL2     0.900000E-01   1.00800           0   0.00000     -0.301140E-02
     13939 MEMB     113      PMPG     C2       CTL1     0.170000       12.0110           0   0.00000     -0.301140E-02
     13940 MEMB     113      PMPG     HS       HAL1     0.900000E-01   1.00800           0   0.00000     -0.301140E-02
     13941 MEMB     113      PMPG     O21      OSL     -0.490000       15.9994           0   0.00000     -0.301140E-02
     13942 MEMB     113      PMPG     C21      CL       0.900000       12.0110           0   0.00000     -0.301140E-02
     13943 MEMB     113      PMPG     O22      OBL     -0.630000       15.9994           0   0.00000     -0.301140E-02
     13944 MEMB     113      PMPG     C22      CTL2    -0.220000       12.0110           0   0.00000     -0.301140E-02
     13945 MEMB     113      PMPG     H2R      HAL2     0.900000E-01   1.00800           0   0.00000     -0.301140E-02
     13946 MEMB     113      PMPG     H2S      HAL2     0.900000E-01   1.00800           0   0.00000     -0.301140E-02
     13947 MEMB     113      PMPG     C3       CTL2     0.800000E-01   12.0110           0   0.00000     -0.301140E-02
     13948 MEMB     113      PMPG     HX       HAL2     0.900000E-01   1.00800           0   0.00000     -0.301140E-02
     13949 MEMB     113      PMPG     HY       HAL2     0.900000E-01   1.00800           0   0.00000     -0.301140E-02
     13950 MEMB     113      PMPG     O31      OSL     -0.490000       15.9994           0   0.00000     -0.301140E-02
     13951 MEMB     113      PMPG     C31      CL       0.900000       12.0110           0   0.00000     -0.301140E-02
     13952 MEMB     113      PMPG     O32      OBL     -0.630000       15.9994           0   0.00000     -0.301140E-02
     13953 MEMB     113      PMPG     C32      CTL2    -0.220000       12.0110           0   0.00000     -0.301140E-02
     13954 MEMB     113      PMPG     H2X      HAL2     0.900000E-01   1.00800           0   0.00000     -0.301140E-02
     13955 MEMB     113      PMPG     H2Y      HAL2     0.900000E-01   1.00800           0   0.00000     -0.301140E-02
     13956 MEMB     113      PMPG     C23      CTL2    -0.180000       12.0110           0   0.00000     -0.301140E-02
     13957 MEMB     113      PMPG     H3R      HAL2     0.900000E-01   1.00800           0   0.00000     -0.301140E-02
     13958 MEMB     113      PMPG     H3S      HAL2     0.900000E-01   1.00800           0   0.00000     -0.301140E-02
     13959 MEMB     113      PMPG     C24      CTL2    -0.180000       12.0110           0   0.00000     -0.301140E-02
     13960 MEMB     113      PMPG     H4R      HAL2     0.900000E-01   1.00800           0   0.00000     -0.301140E-02
     13961 MEMB     113      PMPG     H4S      HAL2     0.900000E-01   1.00800           0   0.00000     -0.301140E-02
     13962 MEMB     113      PMPG     C25      CTL2    -0.180000       12.0110           0   0.00000     -0.301140E-02
     13963 MEMB     113      PMPG     H5R      HAL2     0.900000E-01   1.00800           0   0.00000     -0.301140E-02
     13964 MEMB     113      PMPG     H5S      HAL2     0.900000E-01   1.00800           0   0.00000     -0.301140E-02
     13965 MEMB     113      PMPG     C26      CTL2    -0.180000       12.0110           0   0.00000     -0.301140E-02
     13966 MEMB     113      PMPG     H6R      HAL2     0.900000E-01   1.00800           0   0.00000     -0.301140E-02
     13967 MEMB     113      PMPG     H6S      HAL2     0.900000E-01   1.00800           0   0.00000     -0.301140E-02
     13968 MEMB     113      PMPG     C27      CTL2    -0.180000       12.0110           0   0.00000     -0.301140E-02
     13969 MEMB     113      PMPG     H7R      HAL2     0.900000E-01   1.00800           0   0.00000     -0.301140E-02
     13970 MEMB     113      PMPG     H7S      HAL2     0.900000E-01   1.00800           0   0.00000     -0.301140E-02
     13971 MEMB     113      PMPG     C28      CTL2    -0.180000       12.0110           0   0.00000     -0.301140E-02
     13972 MEMB     113      PMPG     H8R      HAL2     0.900000E-01   1.00800           0   0.00000     -0.301140E-02
     13973 MEMB     113      PMPG     H8S      HAL2     0.900000E-01   1.00800           0   0.00000     -0.301140E-02
     13974 MEMB     113      PMPG     C29      CG3RC1  -0.900000E-01   12.0110           0   0.00000     -0.301140E-02
     13975 MEMB     113      PMPG     H9R      HGA1     0.900000E-01   1.00800           0   0.00000     -0.301140E-02
     13976 MEMB     113      PMPG     C217     CG3C31  -0.180000       12.0110           0   0.00000     -0.301140E-02
     13977 MEMB     113      PMPG     H17R     HGA2     0.900000E-01   1.00800           0   0.00000     -0.301140E-02
     13978 MEMB     113      PMPG     H17S     HGA2     0.900000E-01   1.00800           0   0.00000     -0.301140E-02
     13979 MEMB     113      PMPG     C210     CG3RC1  -0.900000E-01   12.0110           0   0.00000     -0.301140E-02
     13980 MEMB     113      PMPG     H10R     HGA1     0.900000E-01   1.00800           0   0.00000     -0.301140E-02
     13981 MEMB     113      PMPG     C211     CTL2    -0.180000       12.0110           0   0.00000     -0.301140E-02
     13982 MEMB     113      PMPG     H11R     HAL2     0.900000E-01   1.00800           0   0.00000     -0.301140E-02
     13983 MEMB     113      PMPG     H11S     HAL2     0.900000E-01   1.00800           0   0.00000     -0.301140E-02
     13984 MEMB     113      PMPG     C212     CTL2    -0.180000       12.0110           0   0.00000     -0.301140E-02
     13985 MEMB     113      PMPG     H12R     HAL2     0.900000E-01   1.00800           0   0.00000     -0.301140E-02
     13986 MEMB     113      PMPG     H12S     HAL2     0.900000E-01   1.00800           0   0.00000     -0.301140E-02
     13987 MEMB     113      PMPG     C213     CTL2    -0.180000       12.0110           0   0.00000     -0.301140E-02
     13988 MEMB     113      PMPG     H13R     HAL2     0.900000E-01   1.00800           0   0.00000     -0.301140E-02
     13989 MEMB     113      PMPG     H13S     HAL2     0.900000E-01   1.00800           0   0.00000     -0.301140E-02
     13990 MEMB     113      PMPG     C214     CTL2    -0.180000       12.0110           0   0.00000     -0.301140E-02
     13991 MEMB     113      PMPG     H14R     HAL2     0.900000E-01   1.00800           0   0.00000     -0.301140E-02
     13992 MEMB     113      PMPG     H14S     HAL2     0.900000E-01   1.00800           0   0.00000     -0.301140E-02
     13993 MEMB     113      PMPG     C215     CTL2    -0.180000       12.0110           0   0.00000     -0.301140E-02
     13994 MEMB     113      PMPG     H15R     HAL2     0.900000E-01   1.00800           0   0.00000     -0.301140E-02
     13995 MEMB     113      PMPG     H15S     HAL2     0.900000E-01   1.00800           0   0.00000     -0.301140E-02
     13996 MEMB     113      PMPG     C216     CTL3    -0.270000       12.0110           0   0.00000     -0.301140E-02
     13997 MEMB     113      PMPG     H16R     HAL3     0.900000E-01   1.00800           0   0.00000     -0.301140E-02
     13998 MEMB     113      PMPG     H16S     HAL3     0.900000E-01   1.00800           0   0.00000     -0.301140E-02
     13999 MEMB     113      PMPG     H16T     HAL3     0.900000E-01   1.00800           0   0.00000     -0.301140E-02
     14000 MEMB     113      PMPG     C33      CTL2    -0.180000       12.0110           0   0.00000     -0.301140E-02
     14001 MEMB     113      PMPG     H3X      HAL2     0.900000E-01   1.00800           0   0.00000     -0.301140E-02
     14002 MEMB     113      PMPG     H3Y      HAL2     0.900000E-01   1.00800           0   0.00000     -0.301140E-02
     14003 MEMB     113      PMPG     C34      CTL2    -0.180000       12.0110           0   0.00000     -0.301140E-02
     14004 MEMB     113      PMPG     H4X      HAL2     0.900000E-01   1.00800           0   0.00000     -0.301140E-02
     14005 MEMB     113      PMPG     H4Y      HAL2     0.900000E-01   1.00800           0   0.00000     -0.301140E-02
     14006 MEMB     113      PMPG     C35      CTL2    -0.180000       12.0110           0   0.00000     -0.301140E-02
     14007 MEMB     113      PMPG     H5X      HAL2     0.900000E-01   1.00800           0   0.00000     -0.301140E-02
     14008 MEMB     113      PMPG     H5Y      HAL2     0.900000E-01   1.00800           0   0.00000     -0.301140E-02
     14009 MEMB     113      PMPG     C36      CTL2    -0.180000       12.0110           0   0.00000     -0.301140E-02
     14010 MEMB     113      PMPG     H6X      HAL2     0.900000E-01   1.00800           0   0.00000     -0.301140E-02
     14011 MEMB     113      PMPG     H6Y      HAL2     0.900000E-01   1.00800           0   0.00000     -0.301140E-02
     14012 MEMB     113      PMPG     C37      CTL2    -0.180000       12.0110           0   0.00000     -0.301140E-02
     14013 MEMB     113      PMPG     H7X      HAL2     0.900000E-01   1.00800           0   0.00000     -0.301140E-02
     14014 MEMB     113      PMPG     H7Y      HAL2     0.900000E-01   1.00800           0   0.00000     -0.301140E-02
     14015 MEMB     113      PMPG     C38      CTL2    -0.180000       12.0110           0   0.00000     -0.301140E-02
     14016 MEMB     113      PMPG     H8X      HAL2     0.900000E-01   1.00800           0   0.00000     -0.301140E-02
     14017 MEMB     113      PMPG     H8Y      HAL2     0.900000E-01   1.00800           0   0.00000     -0.301140E-02
     14018 MEMB     113      PMPG     C39      CTL2    -0.180000       12.0110           0   0.00000     -0.301140E-02
     14019 MEMB     113      PMPG     H9X      HAL2     0.900000E-01   1.00800           0   0.00000     -0.301140E-02
     14020 MEMB     113      PMPG     H9Y      HAL2     0.900000E-01   1.00800           0   0.00000     -0.301140E-02
     14021 MEMB     113      PMPG     C310     CTL2    -0.180000       12.0110           0   0.00000     -0.301140E-02
     14022 MEMB     113      PMPG     H10X     HAL2     0.900000E-01   1.00800           0   0.00000     -0.301140E-02
     14023 MEMB     113      PMPG     H10Y     HAL2     0.900000E-01   1.00800           0   0.00000     -0.301140E-02
     14024 MEMB     113      PMPG     C311     CTL2    -0.180000       12.0110           0   0.00000     -0.301140E-02
     14025 MEMB     113      PMPG     H11X     HAL2     0.900000E-01   1.00800           0   0.00000     -0.301140E-02
     14026 MEMB     113      PMPG     H11Y     HAL2     0.900000E-01   1.00800           0   0.00000     -0.301140E-02
     14027 MEMB     113      PMPG     C312     CTL2    -0.180000       12.0110           0   0.00000     -0.301140E-02
     14028 MEMB     113      PMPG     H12X     HAL2     0.900000E-01   1.00800           0   0.00000     -0.301140E-02
     14029 MEMB     113      PMPG     H12Y     HAL2     0.900000E-01   1.00800           0   0.00000     -0.301140E-02
     14030 MEMB     113      PMPG     C313     CTL2    -0.180000       12.0110           0   0.00000     -0.301140E-02
     14031 MEMB     113      PMPG     H13X     HAL2     0.900000E-01   1.00800           0   0.00000     -0.301140E-02
     14032 MEMB     113      PMPG     H13Y     HAL2     0.900000E-01   1.00800           0   0.00000     -0.301140E-02
     14033 MEMB     113      PMPG     C314     CTL2    -0.180000       12.0110           0   0.00000     -0.301140E-02
     14034 MEMB     113      PMPG     H14X     HAL2     0.900000E-01   1.00800           0   0.00000     -0.301140E-02
     14035 MEMB     113      PMPG     H14Y     HAL2     0.900000E-01   1.00800           0   0.00000     -0.301140E-02
     14036 MEMB     113      PMPG     C315     CTL2    -0.180000       12.0110           0   0.00000     -0.301140E-02
     14037 MEMB     113      PMPG     H15X     HAL2     0.900000E-01   1.00800           0   0.00000     -0.301140E-02
     14038 MEMB     113      PMPG     H15Y     HAL2     0.900000E-01   1.00800           0   0.00000     -0.301140E-02
     14039 MEMB     113      PMPG     C316     CTL3    -0.270000       12.0110           0   0.00000     -0.301140E-02
     14040 MEMB     113      PMPG     H16X     HAL3     0.900000E-01   1.00800           0   0.00000     -0.301140E-02
     14041 MEMB     113      PMPG     H16Y     HAL3     0.900000E-01   1.00800           0   0.00000     -0.301140E-02
     14042 MEMB     113      PMPG     H16Z     HAL3     0.900000E-01   1.00800           0   0.00000     -0.301140E-02
     14043 MEMB     114      POPE     N        NH3L    -0.300000       14.0070           0   0.00000     -0.301140E-02
     14044 MEMB     114      POPE     HN1      HCL      0.330000       1.00800           0   0.00000     -0.301140E-02
     14045 MEMB     114      POPE     HN2      HCL      0.330000       1.00800           0   0.00000     -0.301140E-02
     14046 MEMB     114      POPE     HN3      HCL      0.330000       1.00800           0   0.00000     -0.301140E-02
     14047 MEMB     114      POPE     C12      CTL2     0.130000       12.0110           0   0.00000     -0.301140E-02
     14048 MEMB     114      POPE     H12A     HAL2     0.900000E-01   1.00800           0   0.00000     -0.301140E-02
     14049 MEMB     114      POPE     H12B     HAL2     0.900000E-01   1.00800           0   0.00000     -0.301140E-02
     14050 MEMB     114      POPE     C11      CTL2    -0.800000E-01   12.0110           0   0.00000     -0.301140E-02
     14051 MEMB     114      POPE     H11A     HAL2     0.900000E-01   1.00800           0   0.00000     -0.301140E-02
     14052 MEMB     114      POPE     H11B     HAL2     0.900000E-01   1.00800           0   0.00000     -0.301140E-02
     14053 MEMB     114      POPE     P        PL        1.50000       30.9740           0   0.00000     -0.301140E-02
     14054 MEMB     114      POPE     O13      O2L     -0.780000       15.9994           0   0.00000     -0.301140E-02
     14055 MEMB     114      POPE     O14      O2L     -0.780000       15.9994           0   0.00000     -0.301140E-02
     14056 MEMB     114      POPE     O11      OSLP    -0.570000       15.9994           0   0.00000     -0.301140E-02
     14057 MEMB     114      POPE     O12      OSLP    -0.570000       15.9994           0   0.00000     -0.301140E-02
     14058 MEMB     114      POPE     C1       CTL2    -0.800000E-01   12.0110           0   0.00000     -0.301140E-02
     14059 MEMB     114      POPE     HA       HAL2     0.900000E-01   1.00800           0   0.00000     -0.301140E-02
     14060 MEMB     114      POPE     HB       HAL2     0.900000E-01   1.00800           0   0.00000     -0.301140E-02
     14061 MEMB     114      POPE     C2       CTL1     0.170000       12.0110           0   0.00000     -0.301140E-02
     14062 MEMB     114      POPE     HS       HAL1     0.900000E-01   1.00800           0   0.00000     -0.301140E-02
     14063 MEMB     114      POPE     O21      OSL     -0.490000       15.9994           0   0.00000     -0.301140E-02
     14064 MEMB     114      POPE     C21      CL       0.900000       12.0110           0   0.00000     -0.301140E-02
     14065 MEMB     114      POPE     O22      OBL     -0.630000       15.9994           0   0.00000     -0.301140E-02
     14066 MEMB     114      POPE     C22      CTL2    -0.220000       12.0110           0   0.00000     -0.301140E-02
     14067 MEMB     114      POPE     H2R      HAL2     0.900000E-01   1.00800           0   0.00000     -0.301140E-02
     14068 MEMB     114      POPE     H2S      HAL2     0.900000E-01   1.00800           0   0.00000     -0.301140E-02
     14069 MEMB     114      POPE     C3       CTL2     0.800000E-01   12.0110           0   0.00000     -0.301140E-02
     14070 MEMB     114      POPE     HX       HAL2     0.900000E-01   1.00800           0   0.00000     -0.301140E-02
     14071 MEMB     114      POPE     HY       HAL2     0.900000E-01   1.00800           0   0.00000     -0.301140E-02
     14072 MEMB     114      POPE     O31      OSL     -0.490000       15.9994           0   0.00000     -0.301140E-02
     14073 MEMB     114      POPE     C31      CL       0.900000       12.0110           0   0.00000     -0.301140E-02
     14074 MEMB     114      POPE     O32      OBL     -0.630000       15.9994           0   0.00000     -0.301140E-02
     14075 MEMB     114      POPE     C32      CTL2    -0.220000       12.0110           0   0.00000     -0.301140E-02
     14076 MEMB     114      POPE     H2X      HAL2     0.900000E-01   1.00800           0   0.00000     -0.301140E-02
     14077 MEMB     114      POPE     H2Y      HAL2     0.900000E-01   1.00800           0   0.00000     -0.301140E-02
     14078 MEMB     114      POPE     C23      CTL2    -0.180000       12.0110           0   0.00000     -0.301140E-02
     14079 MEMB     114      POPE     H3R      HAL2     0.900000E-01   1.00800           0   0.00000     -0.301140E-02
     14080 MEMB     114      POPE     H3S      HAL2     0.900000E-01   1.00800           0   0.00000     -0.301140E-02
     14081 MEMB     114      POPE     C24      CTL2    -0.180000       12.0110           0   0.00000     -0.301140E-02
     14082 MEMB     114      POPE     H4R      HAL2     0.900000E-01   1.00800           0   0.00000     -0.301140E-02
     14083 MEMB     114      POPE     H4S      HAL2     0.900000E-01   1.00800           0   0.00000     -0.301140E-02
     14084 MEMB     114      POPE     C25      CTL2    -0.180000       12.0110           0   0.00000     -0.301140E-02
     14085 MEMB     114      POPE     H5R      HAL2     0.900000E-01   1.00800           0   0.00000     -0.301140E-02
     14086 MEMB     114      POPE     H5S      HAL2     0.900000E-01   1.00800           0   0.00000     -0.301140E-02
     14087 MEMB     114      POPE     C26      CTL2    -0.180000       12.0110           0   0.00000     -0.301140E-02
     14088 MEMB     114      POPE     H6R      HAL2     0.900000E-01   1.00800           0   0.00000     -0.301140E-02
     14089 MEMB     114      POPE     H6S      HAL2     0.900000E-01   1.00800           0   0.00000     -0.301140E-02
     14090 MEMB     114      POPE     C27      CTL2    -0.180000       12.0110           0   0.00000     -0.301140E-02
     14091 MEMB     114      POPE     H7R      HAL2     0.900000E-01   1.00800           0   0.00000     -0.301140E-02
     14092 MEMB     114      POPE     H7S      HAL2     0.900000E-01   1.00800           0   0.00000     -0.301140E-02
     14093 MEMB     114      POPE     C28      CTL2    -0.180000       12.0110           0   0.00000     -0.301140E-02
     14094 MEMB     114      POPE     H8R      HAL2     0.900000E-01   1.00800           0   0.00000     -0.301140E-02
     14095 MEMB     114      POPE     H8S      HAL2     0.900000E-01   1.00800           0   0.00000     -0.301140E-02
     14096 MEMB     114      POPE     C29      CEL1    -0.150000       12.0110           0   0.00000     -0.301140E-02
     14097 MEMB     114      POPE     H91      HEL1     0.150000       1.00800           0   0.00000     -0.301140E-02
     14098 MEMB     114      POPE     C210     CEL1    -0.150000       12.0110           0   0.00000     -0.301140E-02
     14099 MEMB     114      POPE     H101     HEL1     0.150000       1.00800           0   0.00000     -0.301140E-02
     14100 MEMB     114      POPE     C211     CTL2    -0.180000       12.0110           0   0.00000     -0.301140E-02
     14101 MEMB     114      POPE     H11R     HAL2     0.900000E-01   1.00800           0   0.00000     -0.301140E-02
     14102 MEMB     114      POPE     H11S     HAL2     0.900000E-01   1.00800           0   0.00000     -0.301140E-02
     14103 MEMB     114      POPE     C212     CTL2    -0.180000       12.0110           0   0.00000     -0.301140E-02
     14104 MEMB     114      POPE     H12R     HAL2     0.900000E-01   1.00800           0   0.00000     -0.301140E-02
     14105 MEMB     114      POPE     H12S     HAL2     0.900000E-01   1.00800           0   0.00000     -0.301140E-02
     14106 MEMB     114      POPE     C213     CTL2    -0.180000       12.0110           0   0.00000     -0.301140E-02
     14107 MEMB     114      POPE     H13R     HAL2     0.900000E-01   1.00800           0   0.00000     -0.301140E-02
     14108 MEMB     114      POPE     H13S     HAL2     0.900000E-01   1.00800           0   0.00000     -0.301140E-02
     14109 MEMB     114      POPE     C214     CTL2    -0.180000       12.0110           0   0.00000     -0.301140E-02
     14110 MEMB     114      POPE     H14R     HAL2     0.900000E-01   1.00800           0   0.00000     -0.301140E-02
     14111 MEMB     114      POPE     H14S     HAL2     0.900000E-01   1.00800           0   0.00000     -0.301140E-02
     14112 MEMB     114      POPE     C215     CTL2    -0.180000       12.0110           0   0.00000     -0.301140E-02
     14113 MEMB     114      POPE     H15R     HAL2     0.900000E-01   1.00800           0   0.00000     -0.301140E-02
     14114 MEMB     114      POPE     H15S     HAL2     0.900000E-01   1.00800           0   0.00000     -0.301140E-02
     14115 MEMB     114      POPE     C216     CTL2    -0.180000       12.0110           0   0.00000     -0.301140E-02
     14116 MEMB     114      POPE     H16R     HAL2     0.900000E-01   1.00800           0   0.00000     -0.301140E-02
     14117 MEMB     114      POPE     H16S     HAL2     0.900000E-01   1.00800           0   0.00000     -0.301140E-02
     14118 MEMB     114      POPE     C217     CTL2    -0.180000       12.0110           0   0.00000     -0.301140E-02
     14119 MEMB     114      POPE     H17R     HAL2     0.900000E-01   1.00800           0   0.00000     -0.301140E-02
     14120 MEMB     114      POPE     H17S     HAL2     0.900000E-01   1.00800           0   0.00000     -0.301140E-02
     14121 MEMB     114      POPE     C218     CTL3    -0.270000       12.0110           0   0.00000     -0.301140E-02
     14122 MEMB     114      POPE     H18R     HAL3     0.900000E-01   1.00800           0   0.00000     -0.301140E-02
     14123 MEMB     114      POPE     H18S     HAL3     0.900000E-01   1.00800           0   0.00000     -0.301140E-02
     14124 MEMB     114      POPE     H18T     HAL3     0.900000E-01   1.00800           0   0.00000     -0.301140E-02
     14125 MEMB     114      POPE     C33      CTL2    -0.180000       12.0110           0   0.00000     -0.301140E-02
     14126 MEMB     114      POPE     H3X      HAL2     0.900000E-01   1.00800           0   0.00000     -0.301140E-02
     14127 MEMB     114      POPE     H3Y      HAL2     0.900000E-01   1.00800           0   0.00000     -0.301140E-02
     14128 MEMB     114      POPE     C34      CTL2    -0.180000       12.0110           0   0.00000     -0.301140E-02
     14129 MEMB     114      POPE     H4X      HAL2     0.900000E-01   1.00800           0   0.00000     -0.301140E-02
     14130 MEMB     114      POPE     H4Y      HAL2     0.900000E-01   1.00800           0   0.00000     -0.301140E-02
     14131 MEMB     114      POPE     C35      CTL2    -0.180000       12.0110           0   0.00000     -0.301140E-02
     14132 MEMB     114      POPE     H5X      HAL2     0.900000E-01   1.00800           0   0.00000     -0.301140E-02
     14133 MEMB     114      POPE     H5Y      HAL2     0.900000E-01   1.00800           0   0.00000     -0.301140E-02
     14134 MEMB     114      POPE     C36      CTL2    -0.180000       12.0110           0   0.00000     -0.301140E-02
     14135 MEMB     114      POPE     H6X      HAL2     0.900000E-01   1.00800           0   0.00000     -0.301140E-02
     14136 MEMB     114      POPE     H6Y      HAL2     0.900000E-01   1.00800           0   0.00000     -0.301140E-02
     14137 MEMB     114      POPE     C37      CTL2    -0.180000       12.0110           0   0.00000     -0.301140E-02
     14138 MEMB     114      POPE     H7X      HAL2     0.900000E-01   1.00800           0   0.00000     -0.301140E-02
     14139 MEMB     114      POPE     H7Y      HAL2     0.900000E-01   1.00800           0   0.00000     -0.301140E-02
     14140 MEMB     114      POPE     C38      CTL2    -0.180000       12.0110           0   0.00000     -0.301140E-02
     14141 MEMB     114      POPE     H8X      HAL2     0.900000E-01   1.00800           0   0.00000     -0.301140E-02
     14142 MEMB     114      POPE     H8Y      HAL2     0.900000E-01   1.00800           0   0.00000     -0.301140E-02
     14143 MEMB     114      POPE     C39      CTL2    -0.180000       12.0110           0   0.00000     -0.301140E-02
     14144 MEMB     114      POPE     H9X      HAL2     0.900000E-01   1.00800           0   0.00000     -0.301140E-02
     14145 MEMB     114      POPE     H9Y      HAL2     0.900000E-01   1.00800           0   0.00000     -0.301140E-02
     14146 MEMB     114      POPE     C310     CTL2    -0.180000       12.0110           0   0.00000     -0.301140E-02
     14147 MEMB     114      POPE     H10X     HAL2     0.900000E-01   1.00800           0   0.00000     -0.301140E-02
     14148 MEMB     114      POPE     H10Y     HAL2     0.900000E-01   1.00800           0   0.00000     -0.301140E-02
     14149 MEMB     114      POPE     C311     CTL2    -0.180000       12.0110           0   0.00000     -0.301140E-02
     14150 MEMB     114      POPE     H11X     HAL2     0.900000E-01   1.00800           0   0.00000     -0.301140E-02
     14151 MEMB     114      POPE     H11Y     HAL2     0.900000E-01   1.00800           0   0.00000     -0.301140E-02
     14152 MEMB     114      POPE     C312     CTL2    -0.180000       12.0110           0   0.00000     -0.301140E-02
     14153 MEMB     114      POPE     H12X     HAL2     0.900000E-01   1.00800           0   0.00000     -0.301140E-02
     14154 MEMB     114      POPE     H12Y     HAL2     0.900000E-01   1.00800           0   0.00000     -0.301140E-02
     14155 MEMB     114      POPE     C313     CTL2    -0.180000       12.0110           0   0.00000     -0.301140E-02
     14156 MEMB     114      POPE     H13X     HAL2     0.900000E-01   1.00800           0   0.00000     -0.301140E-02
     14157 MEMB     114      POPE     H13Y     HAL2     0.900000E-01   1.00800           0   0.00000     -0.301140E-02
     14158 MEMB     114      POPE     C314     CTL2    -0.180000       12.0110           0   0.00000     -0.301140E-02
     14159 MEMB     114      POPE     H14X     HAL2     0.900000E-01   1.00800           0   0.00000     -0.301140E-02
     14160 MEMB     114      POPE     H14Y     HAL2     0.900000E-01   1.00800           0   0.00000     -0.301140E-02
     14161 MEMB     114      POPE     C315     CTL2    -0.180000       12.0110           0   0.00000     -0.301140E-02
     14162 MEMB     114      POPE     H15X     HAL2     0.900000E-01   1.00800           0   0.00000     -0.301140E-02
     14163 MEMB     114      POPE     H15Y     HAL2     0.900000E-01   1.00800           0   0.00000     -0.301140E-02
     14164 MEMB     114      POPE     C316     CTL3    -0.270000       12.0110           0   0.00000     -0.301140E-02
     14165 MEMB     114      POPE     H16X     HAL3     0.900000E-01   1.00800           0   0.00000     -0.301140E-02
     14166 MEMB     114      POPE     H16Y     HAL3     0.900000E-01   1.00800           0   0.00000     -0.301140E-02
     14167 MEMB     114      POPE     H16Z     HAL3     0.900000E-01   1.00800           0   0.00000     -0.301140E-02
     14168 MEMB     115      PMPE     N        NH3L    -0.300000       14.0070           0   0.00000     -0.301140E-02
     14169 MEMB     115      PMPE     HN1      HCL      0.330000       1.00800           0   0.00000     -0.301140E-02
     14170 MEMB     115      PMPE     HN2      HCL      0.330000       1.00800           0   0.00000     -0.301140E-02
     14171 MEMB     115      PMPE     HN3      HCL      0.330000       1.00800           0   0.00000     -0.301140E-02
     14172 MEMB     115      PMPE     C12      CTL2     0.130000       12.0110           0   0.00000     -0.301140E-02
     14173 MEMB     115      PMPE     H12A     HAL2     0.900000E-01   1.00800           0   0.00000     -0.301140E-02
     14174 MEMB     115      PMPE     H12B     HAL2     0.900000E-01   1.00800           0   0.00000     -0.301140E-02
     14175 MEMB     115      PMPE     C11      CTL2    -0.800000E-01   12.0110           0   0.00000     -0.301140E-02
     14176 MEMB     115      PMPE     H11A     HAL2     0.900000E-01   1.00800           0   0.00000     -0.301140E-02
     14177 MEMB     115      PMPE     H11B     HAL2     0.900000E-01   1.00800           0   0.00000     -0.301140E-02
     14178 MEMB     115      PMPE     P        PL        1.50000       30.9740           0   0.00000     -0.301140E-02
     14179 MEMB     115      PMPE     O13      O2L     -0.780000       15.9994           0   0.00000     -0.301140E-02
     14180 MEMB     115      PMPE     O14      O2L     -0.780000       15.9994           0   0.00000     -0.301140E-02
     14181 MEMB     115      PMPE     O11      OSLP    -0.570000       15.9994           0   0.00000     -0.301140E-02
     14182 MEMB     115      PMPE     O12      OSLP    -0.570000       15.9994           0   0.00000     -0.301140E-02
     14183 MEMB     115      PMPE     C1       CTL2    -0.800000E-01   12.0110           0   0.00000     -0.301140E-02
     14184 MEMB     115      PMPE     HA       HAL2     0.900000E-01   1.00800           0   0.00000     -0.301140E-02
     14185 MEMB     115      PMPE     HB       HAL2     0.900000E-01   1.00800           0   0.00000     -0.301140E-02
     14186 MEMB     115      PMPE     C2       CTL1     0.170000       12.0110           0   0.00000     -0.301140E-02
     14187 MEMB     115      PMPE     HS       HAL1     0.900000E-01   1.00800           0   0.00000     -0.301140E-02
     14188 MEMB     115      PMPE     O21      OSL     -0.490000       15.9994           0   0.00000     -0.301140E-02
     14189 MEMB     115      PMPE     C21      CL       0.900000       12.0110           0   0.00000     -0.301140E-02
     14190 MEMB     115      PMPE     O22      OBL     -0.630000       15.9994           0   0.00000     -0.301140E-02
     14191 MEMB     115      PMPE     C22      CTL2    -0.220000       12.0110           0   0.00000     -0.301140E-02
     14192 MEMB     115      PMPE     H2R      HAL2     0.900000E-01   1.00800           0   0.00000     -0.301140E-02
     14193 MEMB     115      PMPE     H2S      HAL2     0.900000E-01   1.00800           0   0.00000     -0.301140E-02
     14194 MEMB     115      PMPE     C3       CTL2     0.800000E-01   12.0110           0   0.00000     -0.301140E-02
     14195 MEMB     115      PMPE     HX       HAL2     0.900000E-01   1.00800           0   0.00000     -0.301140E-02
     14196 MEMB     115      PMPE     HY       HAL2     0.900000E-01   1.00800           0   0.00000     -0.301140E-02
     14197 MEMB     115      PMPE     O31      OSL     -0.490000       15.9994           0   0.00000     -0.301140E-02
     14198 MEMB     115      PMPE     C31      CL       0.900000       12.0110           0   0.00000     -0.301140E-02
     14199 MEMB     115      PMPE     O32      OBL     -0.630000       15.9994           0   0.00000     -0.301140E-02
     14200 MEMB     115      PMPE     C32      CTL2    -0.220000       12.0110           0   0.00000     -0.301140E-02
     14201 MEMB     115      PMPE     H2X      HAL2     0.900000E-01   1.00800           0   0.00000     -0.301140E-02
     14202 MEMB     115      PMPE     H2Y      HAL2     0.900000E-01   1.00800           0   0.00000     -0.301140E-02
     14203 MEMB     115      PMPE     C23      CTL2    -0.180000       12.0110           0   0.00000     -0.301140E-02
     14204 MEMB     115      PMPE     H3R      HAL2     0.900000E-01   1.00800           0   0.00000     -0.301140E-02
     14205 MEMB     115      PMPE     H3S      HAL2     0.900000E-01   1.00800           0   0.00000     -0.301140E-02
     14206 MEMB     115      PMPE     C24      CTL2    -0.180000       12.0110           0   0.00000     -0.301140E-02
     14207 MEMB     115      PMPE     H4R      HAL2     0.900000E-01   1.00800           0   0.00000     -0.301140E-02
     14208 MEMB     115      PMPE     H4S      HAL2     0.900000E-01   1.00800           0   0.00000     -0.301140E-02
     14209 MEMB     115      PMPE     C25      CTL2    -0.180000       12.0110           0   0.00000     -0.301140E-02
     14210 MEMB     115      PMPE     H5R      HAL2     0.900000E-01   1.00800           0   0.00000     -0.301140E-02
     14211 MEMB     115      PMPE     H5S      HAL2     0.900000E-01   1.00800           0   0.00000     -0.301140E-02
     14212 MEMB     115      PMPE     C26      CTL2    -0.180000       12.0110           0   0.00000     -0.301140E-02
     14213 MEMB     115      PMPE     H6R      HAL2     0.900000E-01   1.00800           0   0.00000     -0.301140E-02
     14214 MEMB     115      PMPE     H6S      HAL2     0.900000E-01   1.00800           0   0.00000     -0.301140E-02
     14215 MEMB     115      PMPE     C27      CTL2    -0.180000       12.0110           0   0.00000     -0.301140E-02
     14216 MEMB     115      PMPE     H7R      HAL2     0.900000E-01   1.00800           0   0.00000     -0.301140E-02
     14217 MEMB     115      PMPE     H7S      HAL2     0.900000E-01   1.00800           0   0.00000     -0.301140E-02
     14218 MEMB     115      PMPE     C28      CTL2    -0.180000       12.0110           0   0.00000     -0.301140E-02
     14219 MEMB     115      PMPE     H8R      HAL2     0.900000E-01   1.00800           0   0.00000     -0.301140E-02
     14220 MEMB     115      PMPE     H8S      HAL2     0.900000E-01   1.00800           0   0.00000     -0.301140E-02
     14221 MEMB     115      PMPE     C29      CG3RC1  -0.900000E-01   12.0110           0   0.00000     -0.301140E-02
     14222 MEMB     115      PMPE     H9R      HGA1     0.900000E-01   1.00800           0   0.00000     -0.301140E-02
     14223 MEMB     115      PMPE     C217     CG3C31  -0.180000       12.0110           0   0.00000     -0.301140E-02
     14224 MEMB     115      PMPE     H17R     HGA2     0.900000E-01   1.00800           0   0.00000     -0.301140E-02
     14225 MEMB     115      PMPE     H17S     HGA2     0.900000E-01   1.00800           0   0.00000     -0.301140E-02
     14226 MEMB     115      PMPE     C210     CG3RC1  -0.900000E-01   12.0110           0   0.00000     -0.301140E-02
     14227 MEMB     115      PMPE     H10R     HGA1     0.900000E-01   1.00800           0   0.00000     -0.301140E-02
     14228 MEMB     115      PMPE     C211     CTL2    -0.180000       12.0110           0   0.00000     -0.301140E-02
     14229 MEMB     115      PMPE     H11R     HAL2     0.900000E-01   1.00800           0   0.00000     -0.301140E-02
     14230 MEMB     115      PMPE     H11S     HAL2     0.900000E-01   1.00800           0   0.00000     -0.301140E-02
     14231 MEMB     115      PMPE     C212     CTL2    -0.180000       12.0110           0   0.00000     -0.301140E-02
     14232 MEMB     115      PMPE     H12R     HAL2     0.900000E-01   1.00800           0   0.00000     -0.301140E-02
     14233 MEMB     115      PMPE     H12S     HAL2     0.900000E-01   1.00800           0   0.00000     -0.301140E-02
     14234 MEMB     115      PMPE     C213     CTL2    -0.180000       12.0110           0   0.00000     -0.301140E-02
     14235 MEMB     115      PMPE     H13R     HAL2     0.900000E-01   1.00800           0   0.00000     -0.301140E-02
     14236 MEMB     115      PMPE     H13S     HAL2     0.900000E-01   1.00800           0   0.00000     -0.301140E-02
     14237 MEMB     115      PMPE     C214     CTL2    -0.180000       12.0110           0   0.00000     -0.301140E-02
     14238 MEMB     115      PMPE     H14R     HAL2     0.900000E-01   1.00800           0   0.00000     -0.301140E-02
     14239 MEMB     115      PMPE     H14S     HAL2     0.900000E-01   1.00800           0   0.00000     -0.301140E-02
     14240 MEMB     115      PMPE     C215     CTL2    -0.180000       12.0110           0   0.00000     -0.301140E-02
     14241 MEMB     115      PMPE     H15R     HAL2     0.900000E-01   1.00800           0   0.00000     -0.301140E-02
     14242 MEMB     115      PMPE     H15S     HAL2     0.900000E-01   1.00800           0   0.00000     -0.301140E-02
     14243 MEMB     115      PMPE     C216     CTL3    -0.270000       12.0110           0   0.00000     -0.301140E-02
     14244 MEMB     115      PMPE     H16R     HAL3     0.900000E-01   1.00800           0   0.00000     -0.301140E-02
     14245 MEMB     115      PMPE     H16S     HAL3     0.900000E-01   1.00800           0   0.00000     -0.301140E-02
     14246 MEMB     115      PMPE     H16T     HAL3     0.900000E-01   1.00800           0   0.00000     -0.301140E-02
     14247 MEMB     115      PMPE     C33      CTL2    -0.180000       12.0110           0   0.00000     -0.301140E-02
     14248 MEMB     115      PMPE     H3X      HAL2     0.900000E-01   1.00800           0   0.00000     -0.301140E-02
     14249 MEMB     115      PMPE     H3Y      HAL2     0.900000E-01   1.00800           0   0.00000     -0.301140E-02
     14250 MEMB     115      PMPE     C34      CTL2    -0.180000       12.0110           0   0.00000     -0.301140E-02
     14251 MEMB     115      PMPE     H4X      HAL2     0.900000E-01   1.00800           0   0.00000     -0.301140E-02
     14252 MEMB     115      PMPE     H4Y      HAL2     0.900000E-01   1.00800           0   0.00000     -0.301140E-02
     14253 MEMB     115      PMPE     C35      CTL2    -0.180000       12.0110           0   0.00000     -0.301140E-02
     14254 MEMB     115      PMPE     H5X      HAL2     0.900000E-01   1.00800           0   0.00000     -0.301140E-02
     14255 MEMB     115      PMPE     H5Y      HAL2     0.900000E-01   1.00800           0   0.00000     -0.301140E-02
     14256 MEMB     115      PMPE     C36      CTL2    -0.180000       12.0110           0   0.00000     -0.301140E-02
     14257 MEMB     115      PMPE     H6X      HAL2     0.900000E-01   1.00800           0   0.00000     -0.301140E-02
     14258 MEMB     115      PMPE     H6Y      HAL2     0.900000E-01   1.00800           0   0.00000     -0.301140E-02
     14259 MEMB     115      PMPE     C37      CTL2    -0.180000       12.0110           0   0.00000     -0.301140E-02
     14260 MEMB     115      PMPE     H7X      HAL2     0.900000E-01   1.00800           0   0.00000     -0.301140E-02
     14261 MEMB     115      PMPE     H7Y      HAL2     0.900000E-01   1.00800           0   0.00000     -0.301140E-02
     14262 MEMB     115      PMPE     C38      CTL2    -0.180000       12.0110           0   0.00000     -0.301140E-02
     14263 MEMB     115      PMPE     H8X      HAL2     0.900000E-01   1.00800           0   0.00000     -0.301140E-02
     14264 MEMB     115      PMPE     H8Y      HAL2     0.900000E-01   1.00800           0   0.00000     -0.301140E-02
     14265 MEMB     115      PMPE     C39      CTL2    -0.180000       12.0110           0   0.00000     -0.301140E-02
     14266 MEMB     115      PMPE     H9X      HAL2     0.900000E-01   1.00800           0   0.00000     -0.301140E-02
     14267 MEMB     115      PMPE     H9Y      HAL2     0.900000E-01   1.00800           0   0.00000     -0.301140E-02
     14268 MEMB     115      PMPE     C310     CTL2    -0.180000       12.0110           0   0.00000     -0.301140E-02
     14269 MEMB     115      PMPE     H10X     HAL2     0.900000E-01   1.00800           0   0.00000     -0.301140E-02
     14270 MEMB     115      PMPE     H10Y     HAL2     0.900000E-01   1.00800           0   0.00000     -0.301140E-02
     14271 MEMB     115      PMPE     C311     CTL2    -0.180000       12.0110           0   0.00000     -0.301140E-02
     14272 MEMB     115      PMPE     H11X     HAL2     0.900000E-01   1.00800           0   0.00000     -0.301140E-02
     14273 MEMB     115      PMPE     H11Y     HAL2     0.900000E-01   1.00800           0   0.00000     -0.301140E-02
     14274 MEMB     115      PMPE     C312     CTL2    -0.180000       12.0110           0   0.00000     -0.301140E-02
     14275 MEMB     115      PMPE     H12X     HAL2     0.900000E-01   1.00800           0   0.00000     -0.301140E-02
     14276 MEMB     115      PMPE     H12Y     HAL2     0.900000E-01   1.00800           0   0.00000     -0.301140E-02
     14277 MEMB     115      PMPE     C313     CTL2    -0.180000       12.0110           0   0.00000     -0.301140E-02
     14278 MEMB     115      PMPE     H13X     HAL2     0.900000E-01   1.00800           0   0.00000     -0.301140E-02
     14279 MEMB     115      PMPE     H13Y     HAL2     0.900000E-01   1.00800           0   0.00000     -0.301140E-02
     14280 MEMB     115      PMPE     C314     CTL2    -0.180000       12.0110           0   0.00000     -0.301140E-02
     14281 MEMB     115      PMPE     H14X     HAL2     0.900000E-01   1.00800           0   0.00000     -0.301140E-02
     14282 MEMB     115      PMPE     H14Y     HAL2     0.900000E-01   1.00800           0   0.00000     -0.301140E-02
     14283 MEMB     115      PMPE     C315     CTL2    -0.180000       12.0110           0   0.00000     -0.301140E-02
     14284 MEMB     115      PMPE     H15X     HAL2     0.900000E-01   1.00800           0   0.00000     -0.301140E-02
     14285 MEMB     115      PMPE     H15Y     HAL2     0.900000E-01   1.00800           0   0.00000     -0.301140E-02
     14286 MEMB     115      PMPE     C316     CTL3    -0.270000       12.0110           0   0.00000     -0.301140E-02
     14287 MEMB     115      PMPE     H16X     HAL3     0.900000E-01   1.00800           0   0.00000     -0.301140E-02
     14288 MEMB     115      PMPE     H16Y     HAL3     0.900000E-01   1.00800           0   0.00000     -0.301140E-02
     14289 MEMB     115      PMPE     H16Z     HAL3     0.900000E-01   1.00800           0   0.00000     -0.301140E-02
     14290 MEMB     116      POPE     N        NH3L    -0.300000       14.0070           0   0.00000     -0.301140E-02
     14291 MEMB     116      POPE     HN1      HCL      0.330000       1.00800           0   0.00000     -0.301140E-02
     14292 MEMB     116      POPE     HN2      HCL      0.330000       1.00800           0   0.00000     -0.301140E-02
     14293 MEMB     116      POPE     HN3      HCL      0.330000       1.00800           0   0.00000     -0.301140E-02
     14294 MEMB     116      POPE     C12      CTL2     0.130000       12.0110           0   0.00000     -0.301140E-02
     14295 MEMB     116      POPE     H12A     HAL2     0.900000E-01   1.00800           0   0.00000     -0.301140E-02
     14296 MEMB     116      POPE     H12B     HAL2     0.900000E-01   1.00800           0   0.00000     -0.301140E-02
     14297 MEMB     116      POPE     C11      CTL2    -0.800000E-01   12.0110           0   0.00000     -0.301140E-02
     14298 MEMB     116      POPE     H11A     HAL2     0.900000E-01   1.00800           0   0.00000     -0.301140E-02
     14299 MEMB     116      POPE     H11B     HAL2     0.900000E-01   1.00800           0   0.00000     -0.301140E-02
     14300 MEMB     116      POPE     P        PL        1.50000       30.9740           0   0.00000     -0.301140E-02
     14301 MEMB     116      POPE     O13      O2L     -0.780000       15.9994           0   0.00000     -0.301140E-02
     14302 MEMB     116      POPE     O14      O2L     -0.780000       15.9994           0   0.00000     -0.301140E-02
     14303 MEMB     116      POPE     O11      OSLP    -0.570000       15.9994           0   0.00000     -0.301140E-02
     14304 MEMB     116      POPE     O12      OSLP    -0.570000       15.9994           0   0.00000     -0.301140E-02
     14305 MEMB     116      POPE     C1       CTL2    -0.800000E-01   12.0110           0   0.00000     -0.301140E-02
     14306 MEMB     116      POPE     HA       HAL2     0.900000E-01   1.00800           0   0.00000     -0.301140E-02
     14307 MEMB     116      POPE     HB       HAL2     0.900000E-01   1.00800           0   0.00000     -0.301140E-02
     14308 MEMB     116      POPE     C2       CTL1     0.170000       12.0110           0   0.00000     -0.301140E-02
     14309 MEMB     116      POPE     HS       HAL1     0.900000E-01   1.00800           0   0.00000     -0.301140E-02
     14310 MEMB     116      POPE     O21      OSL     -0.490000       15.9994           0   0.00000     -0.301140E-02
     14311 MEMB     116      POPE     C21      CL       0.900000       12.0110           0   0.00000     -0.301140E-02
     14312 MEMB     116      POPE     O22      OBL     -0.630000       15.9994           0   0.00000     -0.301140E-02
     14313 MEMB     116      POPE     C22      CTL2    -0.220000       12.0110           0   0.00000     -0.301140E-02
     14314 MEMB     116      POPE     H2R      HAL2     0.900000E-01   1.00800           0   0.00000     -0.301140E-02
     14315 MEMB     116      POPE     H2S      HAL2     0.900000E-01   1.00800           0   0.00000     -0.301140E-02
     14316 MEMB     116      POPE     C3       CTL2     0.800000E-01   12.0110           0   0.00000     -0.301140E-02
     14317 MEMB     116      POPE     HX       HAL2     0.900000E-01   1.00800           0   0.00000     -0.301140E-02
     14318 MEMB     116      POPE     HY       HAL2     0.900000E-01   1.00800           0   0.00000     -0.301140E-02
     14319 MEMB     116      POPE     O31      OSL     -0.490000       15.9994           0   0.00000     -0.301140E-02
     14320 MEMB     116      POPE     C31      CL       0.900000       12.0110           0   0.00000     -0.301140E-02
     14321 MEMB     116      POPE     O32      OBL     -0.630000       15.9994           0   0.00000     -0.301140E-02
     14322 MEMB     116      POPE     C32      CTL2    -0.220000       12.0110           0   0.00000     -0.301140E-02
     14323 MEMB     116      POPE     H2X      HAL2     0.900000E-01   1.00800           0   0.00000     -0.301140E-02
     14324 MEMB     116      POPE     H2Y      HAL2     0.900000E-01   1.00800           0   0.00000     -0.301140E-02
     14325 MEMB     116      POPE     C23      CTL2    -0.180000       12.0110           0   0.00000     -0.301140E-02
     14326 MEMB     116      POPE     H3R      HAL2     0.900000E-01   1.00800           0   0.00000     -0.301140E-02
     14327 MEMB     116      POPE     H3S      HAL2     0.900000E-01   1.00800           0   0.00000     -0.301140E-02
     14328 MEMB     116      POPE     C24      CTL2    -0.180000       12.0110           0   0.00000     -0.301140E-02
     14329 MEMB     116      POPE     H4R      HAL2     0.900000E-01   1.00800           0   0.00000     -0.301140E-02
     14330 MEMB     116      POPE     H4S      HAL2     0.900000E-01   1.00800           0   0.00000     -0.301140E-02
     14331 MEMB     116      POPE     C25      CTL2    -0.180000       12.0110           0   0.00000     -0.301140E-02
     14332 MEMB     116      POPE     H5R      HAL2     0.900000E-01   1.00800           0   0.00000     -0.301140E-02
     14333 MEMB     116      POPE     H5S      HAL2     0.900000E-01   1.00800           0   0.00000     -0.301140E-02
     14334 MEMB     116      POPE     C26      CTL2    -0.180000       12.0110           0   0.00000     -0.301140E-02
     14335 MEMB     116      POPE     H6R      HAL2     0.900000E-01   1.00800           0   0.00000     -0.301140E-02
     14336 MEMB     116      POPE     H6S      HAL2     0.900000E-01   1.00800           0   0.00000     -0.301140E-02
     14337 MEMB     116      POPE     C27      CTL2    -0.180000       12.0110           0   0.00000     -0.301140E-02
     14338 MEMB     116      POPE     H7R      HAL2     0.900000E-01   1.00800           0   0.00000     -0.301140E-02
     14339 MEMB     116      POPE     H7S      HAL2     0.900000E-01   1.00800           0   0.00000     -0.301140E-02
     14340 MEMB     116      POPE     C28      CTL2    -0.180000       12.0110           0   0.00000     -0.301140E-02
     14341 MEMB     116      POPE     H8R      HAL2     0.900000E-01   1.00800           0   0.00000     -0.301140E-02
     14342 MEMB     116      POPE     H8S      HAL2     0.900000E-01   1.00800           0   0.00000     -0.301140E-02
     14343 MEMB     116      POPE     C29      CEL1    -0.150000       12.0110           0   0.00000     -0.301140E-02
     14344 MEMB     116      POPE     H91      HEL1     0.150000       1.00800           0   0.00000     -0.301140E-02
     14345 MEMB     116      POPE     C210     CEL1    -0.150000       12.0110           0   0.00000     -0.301140E-02
     14346 MEMB     116      POPE     H101     HEL1     0.150000       1.00800           0   0.00000     -0.301140E-02
     14347 MEMB     116      POPE     C211     CTL2    -0.180000       12.0110           0   0.00000     -0.301140E-02
     14348 MEMB     116      POPE     H11R     HAL2     0.900000E-01   1.00800           0   0.00000     -0.301140E-02
     14349 MEMB     116      POPE     H11S     HAL2     0.900000E-01   1.00800           0   0.00000     -0.301140E-02
     14350 MEMB     116      POPE     C212     CTL2    -0.180000       12.0110           0   0.00000     -0.301140E-02
     14351 MEMB     116      POPE     H12R     HAL2     0.900000E-01   1.00800           0   0.00000     -0.301140E-02
     14352 MEMB     116      POPE     H12S     HAL2     0.900000E-01   1.00800           0   0.00000     -0.301140E-02
     14353 MEMB     116      POPE     C213     CTL2    -0.180000       12.0110           0   0.00000     -0.301140E-02
     14354 MEMB     116      POPE     H13R     HAL2     0.900000E-01   1.00800           0   0.00000     -0.301140E-02
     14355 MEMB     116      POPE     H13S     HAL2     0.900000E-01   1.00800           0   0.00000     -0.301140E-02
     14356 MEMB     116      POPE     C214     CTL2    -0.180000       12.0110           0   0.00000     -0.301140E-02
     14357 MEMB     116      POPE     H14R     HAL2     0.900000E-01   1.00800           0   0.00000     -0.301140E-02
     14358 MEMB     116      POPE     H14S     HAL2     0.900000E-01   1.00800           0   0.00000     -0.301140E-02
     14359 MEMB     116      POPE     C215     CTL2    -0.180000       12.0110           0   0.00000     -0.301140E-02
     14360 MEMB     116      POPE     H15R     HAL2     0.900000E-01   1.00800           0   0.00000     -0.301140E-02
     14361 MEMB     116      POPE     H15S     HAL2     0.900000E-01   1.00800           0   0.00000     -0.301140E-02
     14362 MEMB     116      POPE     C216     CTL2    -0.180000       12.0110           0   0.00000     -0.301140E-02
     14363 MEMB     116      POPE     H16R     HAL2     0.900000E-01   1.00800           0   0.00000     -0.301140E-02
     14364 MEMB     116      POPE     H16S     HAL2     0.900000E-01   1.00800           0   0.00000     -0.301140E-02
     14365 MEMB     116      POPE     C217     CTL2    -0.180000       12.0110           0   0.00000     -0.301140E-02
     14366 MEMB     116      POPE     H17R     HAL2     0.900000E-01   1.00800           0   0.00000     -0.301140E-02
     14367 MEMB     116      POPE     H17S     HAL2     0.900000E-01   1.00800           0   0.00000     -0.301140E-02
     14368 MEMB     116      POPE     C218     CTL3    -0.270000       12.0110           0   0.00000     -0.301140E-02
     14369 MEMB     116      POPE     H18R     HAL3     0.900000E-01   1.00800           0   0.00000     -0.301140E-02
     14370 MEMB     116      POPE     H18S     HAL3     0.900000E-01   1.00800           0   0.00000     -0.301140E-02
     14371 MEMB     116      POPE     H18T     HAL3     0.900000E-01   1.00800           0   0.00000     -0.301140E-02
     14372 MEMB     116      POPE     C33      CTL2    -0.180000       12.0110           0   0.00000     -0.301140E-02
     14373 MEMB     116      POPE     H3X      HAL2     0.900000E-01   1.00800           0   0.00000     -0.301140E-02
     14374 MEMB     116      POPE     H3Y      HAL2     0.900000E-01   1.00800           0   0.00000     -0.301140E-02
     14375 MEMB     116      POPE     C34      CTL2    -0.180000       12.0110           0   0.00000     -0.301140E-02
     14376 MEMB     116      POPE     H4X      HAL2     0.900000E-01   1.00800           0   0.00000     -0.301140E-02
     14377 MEMB     116      POPE     H4Y      HAL2     0.900000E-01   1.00800           0   0.00000     -0.301140E-02
     14378 MEMB     116      POPE     C35      CTL2    -0.180000       12.0110           0   0.00000     -0.301140E-02
     14379 MEMB     116      POPE     H5X      HAL2     0.900000E-01   1.00800           0   0.00000     -0.301140E-02
     14380 MEMB     116      POPE     H5Y      HAL2     0.900000E-01   1.00800           0   0.00000     -0.301140E-02
     14381 MEMB     116      POPE     C36      CTL2    -0.180000       12.0110           0   0.00000     -0.301140E-02
     14382 MEMB     116      POPE     H6X      HAL2     0.900000E-01   1.00800           0   0.00000     -0.301140E-02
     14383 MEMB     116      POPE     H6Y      HAL2     0.900000E-01   1.00800           0   0.00000     -0.301140E-02
     14384 MEMB     116      POPE     C37      CTL2    -0.180000       12.0110           0   0.00000     -0.301140E-02
     14385 MEMB     116      POPE     H7X      HAL2     0.900000E-01   1.00800           0   0.00000     -0.301140E-02
     14386 MEMB     116      POPE     H7Y      HAL2     0.900000E-01   1.00800           0   0.00000     -0.301140E-02
     14387 MEMB     116      POPE     C38      CTL2    -0.180000       12.0110           0   0.00000     -0.301140E-02
     14388 MEMB     116      POPE     H8X      HAL2     0.900000E-01   1.00800           0   0.00000     -0.301140E-02
     14389 MEMB     116      POPE     H8Y      HAL2     0.900000E-01   1.00800           0   0.00000     -0.301140E-02
     14390 MEMB     116      POPE     C39      CTL2    -0.180000       12.0110           0   0.00000     -0.301140E-02
     14391 MEMB     116      POPE     H9X      HAL2     0.900000E-01   1.00800           0   0.00000     -0.301140E-02
     14392 MEMB     116      POPE     H9Y      HAL2     0.900000E-01   1.00800           0   0.00000     -0.301140E-02
     14393 MEMB     116      POPE     C310     CTL2    -0.180000       12.0110           0   0.00000     -0.301140E-02
     14394 MEMB     116      POPE     H10X     HAL2     0.900000E-01   1.00800           0   0.00000     -0.301140E-02
     14395 MEMB     116      POPE     H10Y     HAL2     0.900000E-01   1.00800           0   0.00000     -0.301140E-02
     14396 MEMB     116      POPE     C311     CTL2    -0.180000       12.0110           0   0.00000     -0.301140E-02
     14397 MEMB     116      POPE     H11X     HAL2     0.900000E-01   1.00800           0   0.00000     -0.301140E-02
     14398 MEMB     116      POPE     H11Y     HAL2     0.900000E-01   1.00800           0   0.00000     -0.301140E-02
     14399 MEMB     116      POPE     C312     CTL2    -0.180000       12.0110           0   0.00000     -0.301140E-02
     14400 MEMB     116      POPE     H12X     HAL2     0.900000E-01   1.00800           0   0.00000     -0.301140E-02
     14401 MEMB     116      POPE     H12Y     HAL2     0.900000E-01   1.00800           0   0.00000     -0.301140E-02
     14402 MEMB     116      POPE     C313     CTL2    -0.180000       12.0110           0   0.00000     -0.301140E-02
     14403 MEMB     116      POPE     H13X     HAL2     0.900000E-01   1.00800           0   0.00000     -0.301140E-02
     14404 MEMB     116      POPE     H13Y     HAL2     0.900000E-01   1.00800           0   0.00000     -0.301140E-02
     14405 MEMB     116      POPE     C314     CTL2    -0.180000       12.0110           0   0.00000     -0.301140E-02
     14406 MEMB     116      POPE     H14X     HAL2     0.900000E-01   1.00800           0   0.00000     -0.301140E-02
     14407 MEMB     116      POPE     H14Y     HAL2     0.900000E-01   1.00800           0   0.00000     -0.301140E-02
     14408 MEMB     116      POPE     C315     CTL2    -0.180000       12.0110           0   0.00000     -0.301140E-02
     14409 MEMB     116      POPE     H15X     HAL2     0.900000E-01   1.00800           0   0.00000     -0.301140E-02
     14410 MEMB     116      POPE     H15Y     HAL2     0.900000E-01   1.00800           0   0.00000     -0.301140E-02
     14411 MEMB     116      POPE     C316     CTL3    -0.270000       12.0110           0   0.00000     -0.301140E-02
     14412 MEMB     116      POPE     H16X     HAL3     0.900000E-01   1.00800           0   0.00000     -0.301140E-02
     14413 MEMB     116      POPE     H16Y     HAL3     0.900000E-01   1.00800           0   0.00000     -0.301140E-02
     14414 MEMB     116      POPE     H16Z     HAL3     0.900000E-01   1.00800           0   0.00000     -0.301140E-02
     14415 MEMB     117      PMPG     C13      CTL2     0.500000E-01   12.0110           0   0.00000     -0.301140E-02
     14416 MEMB     117      PMPG     H13A     HAL2     0.900000E-01   1.00800           0   0.00000     -0.301140E-02
     14417 MEMB     117      PMPG     H13B     HAL2     0.900000E-01   1.00800           0   0.00000     -0.301140E-02
     14418 MEMB     117      PMPG     OC3      OHL     -0.660000       15.9994           0   0.00000     -0.301140E-02
     14419 MEMB     117      PMPG     HO3      HOL      0.430000       1.00800           0   0.00000     -0.301140E-02
     14420 MEMB     117      PMPG     C12      CTL1     0.140000       12.0110           0   0.00000     -0.301140E-02
     14421 MEMB     117      PMPG     H12A     HAL1     0.900000E-01   1.00800           0   0.00000     -0.301140E-02
     14422 MEMB     117      PMPG     OC2      OHL     -0.660000       15.9994           0   0.00000     -0.301140E-02
     14423 MEMB     117      PMPG     HO2      HOL      0.430000       1.00800           0   0.00000     -0.301140E-02
     14424 MEMB     117      PMPG     C11      CTL2    -0.800000E-01   12.0110           0   0.00000     -0.301140E-02
     14425 MEMB     117      PMPG     H11A     HAL2     0.900000E-01   1.00800           0   0.00000     -0.301140E-02
     14426 MEMB     117      PMPG     H11B     HAL2     0.900000E-01   1.00800           0   0.00000     -0.301140E-02
     14427 MEMB     117      PMPG     P        PL        1.50000       30.9740           0   0.00000     -0.301140E-02
     14428 MEMB     117      PMPG     O13      O2L     -0.780000       15.9994           0   0.00000     -0.301140E-02
     14429 MEMB     117      PMPG     O14      O2L     -0.780000       15.9994           0   0.00000     -0.301140E-02
     14430 MEMB     117      PMPG     O11      OSLP    -0.570000       15.9994           0   0.00000     -0.301140E-02
     14431 MEMB     117      PMPG     O12      OSLP    -0.570000       15.9994           0   0.00000     -0.301140E-02
     14432 MEMB     117      PMPG     C1       CTL2    -0.800000E-01   12.0110           0   0.00000     -0.301140E-02
     14433 MEMB     117      PMPG     HA       HAL2     0.900000E-01   1.00800           0   0.00000     -0.301140E-02
     14434 MEMB     117      PMPG     HB       HAL2     0.900000E-01   1.00800           0   0.00000     -0.301140E-02
     14435 MEMB     117      PMPG     C2       CTL1     0.170000       12.0110           0   0.00000     -0.301140E-02
     14436 MEMB     117      PMPG     HS       HAL1     0.900000E-01   1.00800           0   0.00000     -0.301140E-02
     14437 MEMB     117      PMPG     O21      OSL     -0.490000       15.9994           0   0.00000     -0.301140E-02
     14438 MEMB     117      PMPG     C21      CL       0.900000       12.0110           0   0.00000     -0.301140E-02
     14439 MEMB     117      PMPG     O22      OBL     -0.630000       15.9994           0   0.00000     -0.301140E-02
     14440 MEMB     117      PMPG     C22      CTL2    -0.220000       12.0110           0   0.00000     -0.301140E-02
     14441 MEMB     117      PMPG     H2R      HAL2     0.900000E-01   1.00800           0   0.00000     -0.301140E-02
     14442 MEMB     117      PMPG     H2S      HAL2     0.900000E-01   1.00800           0   0.00000     -0.301140E-02
     14443 MEMB     117      PMPG     C3       CTL2     0.800000E-01   12.0110           0   0.00000     -0.301140E-02
     14444 MEMB     117      PMPG     HX       HAL2     0.900000E-01   1.00800           0   0.00000     -0.301140E-02
     14445 MEMB     117      PMPG     HY       HAL2     0.900000E-01   1.00800           0   0.00000     -0.301140E-02
     14446 MEMB     117      PMPG     O31      OSL     -0.490000       15.9994           0   0.00000     -0.301140E-02
     14447 MEMB     117      PMPG     C31      CL       0.900000       12.0110           0   0.00000     -0.301140E-02
     14448 MEMB     117      PMPG     O32      OBL     -0.630000       15.9994           0   0.00000     -0.301140E-02
     14449 MEMB     117      PMPG     C32      CTL2    -0.220000       12.0110           0   0.00000     -0.301140E-02
     14450 MEMB     117      PMPG     H2X      HAL2     0.900000E-01   1.00800           0   0.00000     -0.301140E-02
     14451 MEMB     117      PMPG     H2Y      HAL2     0.900000E-01   1.00800           0   0.00000     -0.301140E-02
     14452 MEMB     117      PMPG     C23      CTL2    -0.180000       12.0110           0   0.00000     -0.301140E-02
     14453 MEMB     117      PMPG     H3R      HAL2     0.900000E-01   1.00800           0   0.00000     -0.301140E-02
     14454 MEMB     117      PMPG     H3S      HAL2     0.900000E-01   1.00800           0   0.00000     -0.301140E-02
     14455 MEMB     117      PMPG     C24      CTL2    -0.180000       12.0110           0   0.00000     -0.301140E-02
     14456 MEMB     117      PMPG     H4R      HAL2     0.900000E-01   1.00800           0   0.00000     -0.301140E-02
     14457 MEMB     117      PMPG     H4S      HAL2     0.900000E-01   1.00800           0   0.00000     -0.301140E-02
     14458 MEMB     117      PMPG     C25      CTL2    -0.180000       12.0110           0   0.00000     -0.301140E-02
     14459 MEMB     117      PMPG     H5R      HAL2     0.900000E-01   1.00800           0   0.00000     -0.301140E-02
     14460 MEMB     117      PMPG     H5S      HAL2     0.900000E-01   1.00800           0   0.00000     -0.301140E-02
     14461 MEMB     117      PMPG     C26      CTL2    -0.180000       12.0110           0   0.00000     -0.301140E-02
     14462 MEMB     117      PMPG     H6R      HAL2     0.900000E-01   1.00800           0   0.00000     -0.301140E-02
     14463 MEMB     117      PMPG     H6S      HAL2     0.900000E-01   1.00800           0   0.00000     -0.301140E-02
     14464 MEMB     117      PMPG     C27      CTL2    -0.180000       12.0110           0   0.00000     -0.301140E-02
     14465 MEMB     117      PMPG     H7R      HAL2     0.900000E-01   1.00800           0   0.00000     -0.301140E-02
     14466 MEMB     117      PMPG     H7S      HAL2     0.900000E-01   1.00800           0   0.00000     -0.301140E-02
     14467 MEMB     117      PMPG     C28      CTL2    -0.180000       12.0110           0   0.00000     -0.301140E-02
     14468 MEMB     117      PMPG     H8R      HAL2     0.900000E-01   1.00800           0   0.00000     -0.301140E-02
     14469 MEMB     117      PMPG     H8S      HAL2     0.900000E-01   1.00800           0   0.00000     -0.301140E-02
     14470 MEMB     117      PMPG     C29      CG3RC1  -0.900000E-01   12.0110           0   0.00000     -0.301140E-02
     14471 MEMB     117      PMPG     H9R      HGA1     0.900000E-01   1.00800           0   0.00000     -0.301140E-02
     14472 MEMB     117      PMPG     C217     CG3C31  -0.180000       12.0110           0   0.00000     -0.301140E-02
     14473 MEMB     117      PMPG     H17R     HGA2     0.900000E-01   1.00800           0   0.00000     -0.301140E-02
     14474 MEMB     117      PMPG     H17S     HGA2     0.900000E-01   1.00800           0   0.00000     -0.301140E-02
     14475 MEMB     117      PMPG     C210     CG3RC1  -0.900000E-01   12.0110           0   0.00000     -0.301140E-02
     14476 MEMB     117      PMPG     H10R     HGA1     0.900000E-01   1.00800           0   0.00000     -0.301140E-02
     14477 MEMB     117      PMPG     C211     CTL2    -0.180000       12.0110           0   0.00000     -0.301140E-02
     14478 MEMB     117      PMPG     H11R     HAL2     0.900000E-01   1.00800           0   0.00000     -0.301140E-02
     14479 MEMB     117      PMPG     H11S     HAL2     0.900000E-01   1.00800           0   0.00000     -0.301140E-02
     14480 MEMB     117      PMPG     C212     CTL2    -0.180000       12.0110           0   0.00000     -0.301140E-02
     14481 MEMB     117      PMPG     H12R     HAL2     0.900000E-01   1.00800           0   0.00000     -0.301140E-02
     14482 MEMB     117      PMPG     H12S     HAL2     0.900000E-01   1.00800           0   0.00000     -0.301140E-02
     14483 MEMB     117      PMPG     C213     CTL2    -0.180000       12.0110           0   0.00000     -0.301140E-02
     14484 MEMB     117      PMPG     H13R     HAL2     0.900000E-01   1.00800           0   0.00000     -0.301140E-02
     14485 MEMB     117      PMPG     H13S     HAL2     0.900000E-01   1.00800           0   0.00000     -0.301140E-02
     14486 MEMB     117      PMPG     C214     CTL2    -0.180000       12.0110           0   0.00000     -0.301140E-02
     14487 MEMB     117      PMPG     H14R     HAL2     0.900000E-01   1.00800           0   0.00000     -0.301140E-02
     14488 MEMB     117      PMPG     H14S     HAL2     0.900000E-01   1.00800           0   0.00000     -0.301140E-02
     14489 MEMB     117      PMPG     C215     CTL2    -0.180000       12.0110           0   0.00000     -0.301140E-02
     14490 MEMB     117      PMPG     H15R     HAL2     0.900000E-01   1.00800           0   0.00000     -0.301140E-02
     14491 MEMB     117      PMPG     H15S     HAL2     0.900000E-01   1.00800           0   0.00000     -0.301140E-02
     14492 MEMB     117      PMPG     C216     CTL3    -0.270000       12.0110           0   0.00000     -0.301140E-02
     14493 MEMB     117      PMPG     H16R     HAL3     0.900000E-01   1.00800           0   0.00000     -0.301140E-02
     14494 MEMB     117      PMPG     H16S     HAL3     0.900000E-01   1.00800           0   0.00000     -0.301140E-02
     14495 MEMB     117      PMPG     H16T     HAL3     0.900000E-01   1.00800           0   0.00000     -0.301140E-02
     14496 MEMB     117      PMPG     C33      CTL2    -0.180000       12.0110           0   0.00000     -0.301140E-02
     14497 MEMB     117      PMPG     H3X      HAL2     0.900000E-01   1.00800           0   0.00000     -0.301140E-02
     14498 MEMB     117      PMPG     H3Y      HAL2     0.900000E-01   1.00800           0   0.00000     -0.301140E-02
     14499 MEMB     117      PMPG     C34      CTL2    -0.180000       12.0110           0   0.00000     -0.301140E-02
     14500 MEMB     117      PMPG     H4X      HAL2     0.900000E-01   1.00800           0   0.00000     -0.301140E-02
     14501 MEMB     117      PMPG     H4Y      HAL2     0.900000E-01   1.00800           0   0.00000     -0.301140E-02
     14502 MEMB     117      PMPG     C35      CTL2    -0.180000       12.0110           0   0.00000     -0.301140E-02
     14503 MEMB     117      PMPG     H5X      HAL2     0.900000E-01   1.00800           0   0.00000     -0.301140E-02
     14504 MEMB     117      PMPG     H5Y      HAL2     0.900000E-01   1.00800           0   0.00000     -0.301140E-02
     14505 MEMB     117      PMPG     C36      CTL2    -0.180000       12.0110           0   0.00000     -0.301140E-02
     14506 MEMB     117      PMPG     H6X      HAL2     0.900000E-01   1.00800           0   0.00000     -0.301140E-02
     14507 MEMB     117      PMPG     H6Y      HAL2     0.900000E-01   1.00800           0   0.00000     -0.301140E-02
     14508 MEMB     117      PMPG     C37      CTL2    -0.180000       12.0110           0   0.00000     -0.301140E-02
     14509 MEMB     117      PMPG     H7X      HAL2     0.900000E-01   1.00800           0   0.00000     -0.301140E-02
     14510 MEMB     117      PMPG     H7Y      HAL2     0.900000E-01   1.00800           0   0.00000     -0.301140E-02
     14511 MEMB     117      PMPG     C38      CTL2    -0.180000       12.0110           0   0.00000     -0.301140E-02
     14512 MEMB     117      PMPG     H8X      HAL2     0.900000E-01   1.00800           0   0.00000     -0.301140E-02
     14513 MEMB     117      PMPG     H8Y      HAL2     0.900000E-01   1.00800           0   0.00000     -0.301140E-02
     14514 MEMB     117      PMPG     C39      CTL2    -0.180000       12.0110           0   0.00000     -0.301140E-02
     14515 MEMB     117      PMPG     H9X      HAL2     0.900000E-01   1.00800           0   0.00000     -0.301140E-02
     14516 MEMB     117      PMPG     H9Y      HAL2     0.900000E-01   1.00800           0   0.00000     -0.301140E-02
     14517 MEMB     117      PMPG     C310     CTL2    -0.180000       12.0110           0   0.00000     -0.301140E-02
     14518 MEMB     117      PMPG     H10X     HAL2     0.900000E-01   1.00800           0   0.00000     -0.301140E-02
     14519 MEMB     117      PMPG     H10Y     HAL2     0.900000E-01   1.00800           0   0.00000     -0.301140E-02
     14520 MEMB     117      PMPG     C311     CTL2    -0.180000       12.0110           0   0.00000     -0.301140E-02
     14521 MEMB     117      PMPG     H11X     HAL2     0.900000E-01   1.00800           0   0.00000     -0.301140E-02
     14522 MEMB     117      PMPG     H11Y     HAL2     0.900000E-01   1.00800           0   0.00000     -0.301140E-02
     14523 MEMB     117      PMPG     C312     CTL2    -0.180000       12.0110           0   0.00000     -0.301140E-02
     14524 MEMB     117      PMPG     H12X     HAL2     0.900000E-01   1.00800           0   0.00000     -0.301140E-02
     14525 MEMB     117      PMPG     H12Y     HAL2     0.900000E-01   1.00800           0   0.00000     -0.301140E-02
     14526 MEMB     117      PMPG     C313     CTL2    -0.180000       12.0110           0   0.00000     -0.301140E-02
     14527 MEMB     117      PMPG     H13X     HAL2     0.900000E-01   1.00800           0   0.00000     -0.301140E-02
     14528 MEMB     117      PMPG     H13Y     HAL2     0.900000E-01   1.00800           0   0.00000     -0.301140E-02
     14529 MEMB     117      PMPG     C314     CTL2    -0.180000       12.0110           0   0.00000     -0.301140E-02
     14530 MEMB     117      PMPG     H14X     HAL2     0.900000E-01   1.00800           0   0.00000     -0.301140E-02
     14531 MEMB     117      PMPG     H14Y     HAL2     0.900000E-01   1.00800           0   0.00000     -0.301140E-02
     14532 MEMB     117      PMPG     C315     CTL2    -0.180000       12.0110           0   0.00000     -0.301140E-02
     14533 MEMB     117      PMPG     H15X     HAL2     0.900000E-01   1.00800           0   0.00000     -0.301140E-02
     14534 MEMB     117      PMPG     H15Y     HAL2     0.900000E-01   1.00800           0   0.00000     -0.301140E-02
     14535 MEMB     117      PMPG     C316     CTL3    -0.270000       12.0110           0   0.00000     -0.301140E-02
     14536 MEMB     117      PMPG     H16X     HAL3     0.900000E-01   1.00800           0   0.00000     -0.301140E-02
     14537 MEMB     117      PMPG     H16Y     HAL3     0.900000E-01   1.00800           0   0.00000     -0.301140E-02
     14538 MEMB     117      PMPG     H16Z     HAL3     0.900000E-01   1.00800           0   0.00000     -0.301140E-02
     14539 MEMB     118      PMPE     N        NH3L    -0.300000       14.0070           0   0.00000     -0.301140E-02
     14540 MEMB     118      PMPE     HN1      HCL      0.330000       1.00800           0   0.00000     -0.301140E-02
     14541 MEMB     118      PMPE     HN2      HCL      0.330000       1.00800           0   0.00000     -0.301140E-02
     14542 MEMB     118      PMPE     HN3      HCL      0.330000       1.00800           0   0.00000     -0.301140E-02
     14543 MEMB     118      PMPE     C12      CTL2     0.130000       12.0110           0   0.00000     -0.301140E-02
     14544 MEMB     118      PMPE     H12A     HAL2     0.900000E-01   1.00800           0   0.00000     -0.301140E-02
     14545 MEMB     118      PMPE     H12B     HAL2     0.900000E-01   1.00800           0   0.00000     -0.301140E-02
     14546 MEMB     118      PMPE     C11      CTL2    -0.800000E-01   12.0110           0   0.00000     -0.301140E-02
     14547 MEMB     118      PMPE     H11A     HAL2     0.900000E-01   1.00800           0   0.00000     -0.301140E-02
     14548 MEMB     118      PMPE     H11B     HAL2     0.900000E-01   1.00800           0   0.00000     -0.301140E-02
     14549 MEMB     118      PMPE     P        PL        1.50000       30.9740           0   0.00000     -0.301140E-02
     14550 MEMB     118      PMPE     O13      O2L     -0.780000       15.9994           0   0.00000     -0.301140E-02
     14551 MEMB     118      PMPE     O14      O2L     -0.780000       15.9994           0   0.00000     -0.301140E-02
     14552 MEMB     118      PMPE     O11      OSLP    -0.570000       15.9994           0   0.00000     -0.301140E-02
     14553 MEMB     118      PMPE     O12      OSLP    -0.570000       15.9994           0   0.00000     -0.301140E-02
     14554 MEMB     118      PMPE     C1       CTL2    -0.800000E-01   12.0110           0   0.00000     -0.301140E-02
     14555 MEMB     118      PMPE     HA       HAL2     0.900000E-01   1.00800           0   0.00000     -0.301140E-02
     14556 MEMB     118      PMPE     HB       HAL2     0.900000E-01   1.00800           0   0.00000     -0.301140E-02
     14557 MEMB     118      PMPE     C2       CTL1     0.170000       12.0110           0   0.00000     -0.301140E-02
     14558 MEMB     118      PMPE     HS       HAL1     0.900000E-01   1.00800           0   0.00000     -0.301140E-02
     14559 MEMB     118      PMPE     O21      OSL     -0.490000       15.9994           0   0.00000     -0.301140E-02
     14560 MEMB     118      PMPE     C21      CL       0.900000       12.0110           0   0.00000     -0.301140E-02
     14561 MEMB     118      PMPE     O22      OBL     -0.630000       15.9994           0   0.00000     -0.301140E-02
     14562 MEMB     118      PMPE     C22      CTL2    -0.220000       12.0110           0   0.00000     -0.301140E-02
     14563 MEMB     118      PMPE     H2R      HAL2     0.900000E-01   1.00800           0   0.00000     -0.301140E-02
     14564 MEMB     118      PMPE     H2S      HAL2     0.900000E-01   1.00800           0   0.00000     -0.301140E-02
     14565 MEMB     118      PMPE     C3       CTL2     0.800000E-01   12.0110           0   0.00000     -0.301140E-02
     14566 MEMB     118      PMPE     HX       HAL2     0.900000E-01   1.00800           0   0.00000     -0.301140E-02
     14567 MEMB     118      PMPE     HY       HAL2     0.900000E-01   1.00800           0   0.00000     -0.301140E-02
     14568 MEMB     118      PMPE     O31      OSL     -0.490000       15.9994           0   0.00000     -0.301140E-02
     14569 MEMB     118      PMPE     C31      CL       0.900000       12.0110           0   0.00000     -0.301140E-02
     14570 MEMB     118      PMPE     O32      OBL     -0.630000       15.9994           0   0.00000     -0.301140E-02
     14571 MEMB     118      PMPE     C32      CTL2    -0.220000       12.0110           0   0.00000     -0.301140E-02
     14572 MEMB     118      PMPE     H2X      HAL2     0.900000E-01   1.00800           0   0.00000     -0.301140E-02
     14573 MEMB     118      PMPE     H2Y      HAL2     0.900000E-01   1.00800           0   0.00000     -0.301140E-02
     14574 MEMB     118      PMPE     C23      CTL2    -0.180000       12.0110           0   0.00000     -0.301140E-02
     14575 MEMB     118      PMPE     H3R      HAL2     0.900000E-01   1.00800           0   0.00000     -0.301140E-02
     14576 MEMB     118      PMPE     H3S      HAL2     0.900000E-01   1.00800           0   0.00000     -0.301140E-02
     14577 MEMB     118      PMPE     C24      CTL2    -0.180000       12.0110           0   0.00000     -0.301140E-02
     14578 MEMB     118      PMPE     H4R      HAL2     0.900000E-01   1.00800           0   0.00000     -0.301140E-02
     14579 MEMB     118      PMPE     H4S      HAL2     0.900000E-01   1.00800           0   0.00000     -0.301140E-02
     14580 MEMB     118      PMPE     C25      CTL2    -0.180000       12.0110           0   0.00000     -0.301140E-02
     14581 MEMB     118      PMPE     H5R      HAL2     0.900000E-01   1.00800           0   0.00000     -0.301140E-02
     14582 MEMB     118      PMPE     H5S      HAL2     0.900000E-01   1.00800           0   0.00000     -0.301140E-02
     14583 MEMB     118      PMPE     C26      CTL2    -0.180000       12.0110           0   0.00000     -0.301140E-02
     14584 MEMB     118      PMPE     H6R      HAL2     0.900000E-01   1.00800           0   0.00000     -0.301140E-02
     14585 MEMB     118      PMPE     H6S      HAL2     0.900000E-01   1.00800           0   0.00000     -0.301140E-02
     14586 MEMB     118      PMPE     C27      CTL2    -0.180000       12.0110           0   0.00000     -0.301140E-02
     14587 MEMB     118      PMPE     H7R      HAL2     0.900000E-01   1.00800           0   0.00000     -0.301140E-02
     14588 MEMB     118      PMPE     H7S      HAL2     0.900000E-01   1.00800           0   0.00000     -0.301140E-02
     14589 MEMB     118      PMPE     C28      CTL2    -0.180000       12.0110           0   0.00000     -0.301140E-02
     14590 MEMB     118      PMPE     H8R      HAL2     0.900000E-01   1.00800           0   0.00000     -0.301140E-02
     14591 MEMB     118      PMPE     H8S      HAL2     0.900000E-01   1.00800           0   0.00000     -0.301140E-02
     14592 MEMB     118      PMPE     C29      CG3RC1  -0.900000E-01   12.0110           0   0.00000     -0.301140E-02
     14593 MEMB     118      PMPE     H9R      HGA1     0.900000E-01   1.00800           0   0.00000     -0.301140E-02
     14594 MEMB     118      PMPE     C217     CG3C31  -0.180000       12.0110           0   0.00000     -0.301140E-02
     14595 MEMB     118      PMPE     H17R     HGA2     0.900000E-01   1.00800           0   0.00000     -0.301140E-02
     14596 MEMB     118      PMPE     H17S     HGA2     0.900000E-01   1.00800           0   0.00000     -0.301140E-02
     14597 MEMB     118      PMPE     C210     CG3RC1  -0.900000E-01   12.0110           0   0.00000     -0.301140E-02
     14598 MEMB     118      PMPE     H10R     HGA1     0.900000E-01   1.00800           0   0.00000     -0.301140E-02
     14599 MEMB     118      PMPE     C211     CTL2    -0.180000       12.0110           0   0.00000     -0.301140E-02
     14600 MEMB     118      PMPE     H11R     HAL2     0.900000E-01   1.00800           0   0.00000     -0.301140E-02
     14601 MEMB     118      PMPE     H11S     HAL2     0.900000E-01   1.00800           0   0.00000     -0.301140E-02
     14602 MEMB     118      PMPE     C212     CTL2    -0.180000       12.0110           0   0.00000     -0.301140E-02
     14603 MEMB     118      PMPE     H12R     HAL2     0.900000E-01   1.00800           0   0.00000     -0.301140E-02
     14604 MEMB     118      PMPE     H12S     HAL2     0.900000E-01   1.00800           0   0.00000     -0.301140E-02
     14605 MEMB     118      PMPE     C213     CTL2    -0.180000       12.0110           0   0.00000     -0.301140E-02
     14606 MEMB     118      PMPE     H13R     HAL2     0.900000E-01   1.00800           0   0.00000     -0.301140E-02
     14607 MEMB     118      PMPE     H13S     HAL2     0.900000E-01   1.00800           0   0.00000     -0.301140E-02
     14608 MEMB     118      PMPE     C214     CTL2    -0.180000       12.0110           0   0.00000     -0.301140E-02
     14609 MEMB     118      PMPE     H14R     HAL2     0.900000E-01   1.00800           0   0.00000     -0.301140E-02
     14610 MEMB     118      PMPE     H14S     HAL2     0.900000E-01   1.00800           0   0.00000     -0.301140E-02
     14611 MEMB     118      PMPE     C215     CTL2    -0.180000       12.0110           0   0.00000     -0.301140E-02
     14612 MEMB     118      PMPE     H15R     HAL2     0.900000E-01   1.00800           0   0.00000     -0.301140E-02
     14613 MEMB     118      PMPE     H15S     HAL2     0.900000E-01   1.00800           0   0.00000     -0.301140E-02
     14614 MEMB     118      PMPE     C216     CTL3    -0.270000       12.0110           0   0.00000     -0.301140E-02
     14615 MEMB     118      PMPE     H16R     HAL3     0.900000E-01   1.00800           0   0.00000     -0.301140E-02
     14616 MEMB     118      PMPE     H16S     HAL3     0.900000E-01   1.00800           0   0.00000     -0.301140E-02
     14617 MEMB     118      PMPE     H16T     HAL3     0.900000E-01   1.00800           0   0.00000     -0.301140E-02
     14618 MEMB     118      PMPE     C33      CTL2    -0.180000       12.0110           0   0.00000     -0.301140E-02
     14619 MEMB     118      PMPE     H3X      HAL2     0.900000E-01   1.00800           0   0.00000     -0.301140E-02
     14620 MEMB     118      PMPE     H3Y      HAL2     0.900000E-01   1.00800           0   0.00000     -0.301140E-02
     14621 MEMB     118      PMPE     C34      CTL2    -0.180000       12.0110           0   0.00000     -0.301140E-02
     14622 MEMB     118      PMPE     H4X      HAL2     0.900000E-01   1.00800           0   0.00000     -0.301140E-02
     14623 MEMB     118      PMPE     H4Y      HAL2     0.900000E-01   1.00800           0   0.00000     -0.301140E-02
     14624 MEMB     118      PMPE     C35      CTL2    -0.180000       12.0110           0   0.00000     -0.301140E-02
     14625 MEMB     118      PMPE     H5X      HAL2     0.900000E-01   1.00800           0   0.00000     -0.301140E-02
     14626 MEMB     118      PMPE     H5Y      HAL2     0.900000E-01   1.00800           0   0.00000     -0.301140E-02
     14627 MEMB     118      PMPE     C36      CTL2    -0.180000       12.0110           0   0.00000     -0.301140E-02
     14628 MEMB     118      PMPE     H6X      HAL2     0.900000E-01   1.00800           0   0.00000     -0.301140E-02
     14629 MEMB     118      PMPE     H6Y      HAL2     0.900000E-01   1.00800           0   0.00000     -0.301140E-02
     14630 MEMB     118      PMPE     C37      CTL2    -0.180000       12.0110           0   0.00000     -0.301140E-02
     14631 MEMB     118      PMPE     H7X      HAL2     0.900000E-01   1.00800           0   0.00000     -0.301140E-02
     14632 MEMB     118      PMPE     H7Y      HAL2     0.900000E-01   1.00800           0   0.00000     -0.301140E-02
     14633 MEMB     118      PMPE     C38      CTL2    -0.180000       12.0110           0   0.00000     -0.301140E-02
     14634 MEMB     118      PMPE     H8X      HAL2     0.900000E-01   1.00800           0   0.00000     -0.301140E-02
     14635 MEMB     118      PMPE     H8Y      HAL2     0.900000E-01   1.00800           0   0.00000     -0.301140E-02
     14636 MEMB     118      PMPE     C39      CTL2    -0.180000       12.0110           0   0.00000     -0.301140E-02
     14637 MEMB     118      PMPE     H9X      HAL2     0.900000E-01   1.00800           0   0.00000     -0.301140E-02
     14638 MEMB     118      PMPE     H9Y      HAL2     0.900000E-01   1.00800           0   0.00000     -0.301140E-02
     14639 MEMB     118      PMPE     C310     CTL2    -0.180000       12.0110           0   0.00000     -0.301140E-02
     14640 MEMB     118      PMPE     H10X     HAL2     0.900000E-01   1.00800           0   0.00000     -0.301140E-02
     14641 MEMB     118      PMPE     H10Y     HAL2     0.900000E-01   1.00800           0   0.00000     -0.301140E-02
     14642 MEMB     118      PMPE     C311     CTL2    -0.180000       12.0110           0   0.00000     -0.301140E-02
     14643 MEMB     118      PMPE     H11X     HAL2     0.900000E-01   1.00800           0   0.00000     -0.301140E-02
     14644 MEMB     118      PMPE     H11Y     HAL2     0.900000E-01   1.00800           0   0.00000     -0.301140E-02
     14645 MEMB     118      PMPE     C312     CTL2    -0.180000       12.0110           0   0.00000     -0.301140E-02
     14646 MEMB     118      PMPE     H12X     HAL2     0.900000E-01   1.00800           0   0.00000     -0.301140E-02
     14647 MEMB     118      PMPE     H12Y     HAL2     0.900000E-01   1.00800           0   0.00000     -0.301140E-02
     14648 MEMB     118      PMPE     C313     CTL2    -0.180000       12.0110           0   0.00000     -0.301140E-02
     14649 MEMB     118      PMPE     H13X     HAL2     0.900000E-01   1.00800           0   0.00000     -0.301140E-02
     14650 MEMB     118      PMPE     H13Y     HAL2     0.900000E-01   1.00800           0   0.00000     -0.301140E-02
     14651 MEMB     118      PMPE     C314     CTL2    -0.180000       12.0110           0   0.00000     -0.301140E-02
     14652 MEMB     118      PMPE     H14X     HAL2     0.900000E-01   1.00800           0   0.00000     -0.301140E-02
     14653 MEMB     118      PMPE     H14Y     HAL2     0.900000E-01   1.00800           0   0.00000     -0.301140E-02
     14654 MEMB     118      PMPE     C315     CTL2    -0.180000       12.0110           0   0.00000     -0.301140E-02
     14655 MEMB     118      PMPE     H15X     HAL2     0.900000E-01   1.00800           0   0.00000     -0.301140E-02
     14656 MEMB     118      PMPE     H15Y     HAL2     0.900000E-01   1.00800           0   0.00000     -0.301140E-02
     14657 MEMB     118      PMPE     C316     CTL3    -0.270000       12.0110           0   0.00000     -0.301140E-02
     14658 MEMB     118      PMPE     H16X     HAL3     0.900000E-01   1.00800           0   0.00000     -0.301140E-02
     14659 MEMB     118      PMPE     H16Y     HAL3     0.900000E-01   1.00800           0   0.00000     -0.301140E-02
     14660 MEMB     118      PMPE     H16Z     HAL3     0.900000E-01   1.00800           0   0.00000     -0.301140E-02
     14661 MEMB     119      PMPE     N        NH3L    -0.300000       14.0070           0   0.00000     -0.301140E-02
     14662 MEMB     119      PMPE     HN1      HCL      0.330000       1.00800           0   0.00000     -0.301140E-02
     14663 MEMB     119      PMPE     HN2      HCL      0.330000       1.00800           0   0.00000     -0.301140E-02
     14664 MEMB     119      PMPE     HN3      HCL      0.330000       1.00800           0   0.00000     -0.301140E-02
     14665 MEMB     119      PMPE     C12      CTL2     0.130000       12.0110           0   0.00000     -0.301140E-02
     14666 MEMB     119      PMPE     H12A     HAL2     0.900000E-01   1.00800           0   0.00000     -0.301140E-02
     14667 MEMB     119      PMPE     H12B     HAL2     0.900000E-01   1.00800           0   0.00000     -0.301140E-02
     14668 MEMB     119      PMPE     C11      CTL2    -0.800000E-01   12.0110           0   0.00000     -0.301140E-02
     14669 MEMB     119      PMPE     H11A     HAL2     0.900000E-01   1.00800           0   0.00000     -0.301140E-02
     14670 MEMB     119      PMPE     H11B     HAL2     0.900000E-01   1.00800           0   0.00000     -0.301140E-02
     14671 MEMB     119      PMPE     P        PL        1.50000       30.9740           0   0.00000     -0.301140E-02
     14672 MEMB     119      PMPE     O13      O2L     -0.780000       15.9994           0   0.00000     -0.301140E-02
     14673 MEMB     119      PMPE     O14      O2L     -0.780000       15.9994           0   0.00000     -0.301140E-02
     14674 MEMB     119      PMPE     O11      OSLP    -0.570000       15.9994           0   0.00000     -0.301140E-02
     14675 MEMB     119      PMPE     O12      OSLP    -0.570000       15.9994           0   0.00000     -0.301140E-02
     14676 MEMB     119      PMPE     C1       CTL2    -0.800000E-01   12.0110           0   0.00000     -0.301140E-02
     14677 MEMB     119      PMPE     HA       HAL2     0.900000E-01   1.00800           0   0.00000     -0.301140E-02
     14678 MEMB     119      PMPE     HB       HAL2     0.900000E-01   1.00800           0   0.00000     -0.301140E-02
     14679 MEMB     119      PMPE     C2       CTL1     0.170000       12.0110           0   0.00000     -0.301140E-02
     14680 MEMB     119      PMPE     HS       HAL1     0.900000E-01   1.00800           0   0.00000     -0.301140E-02
     14681 MEMB     119      PMPE     O21      OSL     -0.490000       15.9994           0   0.00000     -0.301140E-02
     14682 MEMB     119      PMPE     C21      CL       0.900000       12.0110           0   0.00000     -0.301140E-02
     14683 MEMB     119      PMPE     O22      OBL     -0.630000       15.9994           0   0.00000     -0.301140E-02
     14684 MEMB     119      PMPE     C22      CTL2    -0.220000       12.0110           0   0.00000     -0.301140E-02
     14685 MEMB     119      PMPE     H2R      HAL2     0.900000E-01   1.00800           0   0.00000     -0.301140E-02
     14686 MEMB     119      PMPE     H2S      HAL2     0.900000E-01   1.00800           0   0.00000     -0.301140E-02
     14687 MEMB     119      PMPE     C3       CTL2     0.800000E-01   12.0110           0   0.00000     -0.301140E-02
     14688 MEMB     119      PMPE     HX       HAL2     0.900000E-01   1.00800           0   0.00000     -0.301140E-02
     14689 MEMB     119      PMPE     HY       HAL2     0.900000E-01   1.00800           0   0.00000     -0.301140E-02
     14690 MEMB     119      PMPE     O31      OSL     -0.490000       15.9994           0   0.00000     -0.301140E-02
     14691 MEMB     119      PMPE     C31      CL       0.900000       12.0110           0   0.00000     -0.301140E-02
     14692 MEMB     119      PMPE     O32      OBL     -0.630000       15.9994           0   0.00000     -0.301140E-02
     14693 MEMB     119      PMPE     C32      CTL2    -0.220000       12.0110           0   0.00000     -0.301140E-02
     14694 MEMB     119      PMPE     H2X      HAL2     0.900000E-01   1.00800           0   0.00000     -0.301140E-02
     14695 MEMB     119      PMPE     H2Y      HAL2     0.900000E-01   1.00800           0   0.00000     -0.301140E-02
     14696 MEMB     119      PMPE     C23      CTL2    -0.180000       12.0110           0   0.00000     -0.301140E-02
     14697 MEMB     119      PMPE     H3R      HAL2     0.900000E-01   1.00800           0   0.00000     -0.301140E-02
     14698 MEMB     119      PMPE     H3S      HAL2     0.900000E-01   1.00800           0   0.00000     -0.301140E-02
     14699 MEMB     119      PMPE     C24      CTL2    -0.180000       12.0110           0   0.00000     -0.301140E-02
     14700 MEMB     119      PMPE     H4R      HAL2     0.900000E-01   1.00800           0   0.00000     -0.301140E-02
     14701 MEMB     119      PMPE     H4S      HAL2     0.900000E-01   1.00800           0   0.00000     -0.301140E-02
     14702 MEMB     119      PMPE     C25      CTL2    -0.180000       12.0110           0   0.00000     -0.301140E-02
     14703 MEMB     119      PMPE     H5R      HAL2     0.900000E-01   1.00800           0   0.00000     -0.301140E-02
     14704 MEMB     119      PMPE     H5S      HAL2     0.900000E-01   1.00800           0   0.00000     -0.301140E-02
     14705 MEMB     119      PMPE     C26      CTL2    -0.180000       12.0110           0   0.00000     -0.301140E-02
     14706 MEMB     119      PMPE     H6R      HAL2     0.900000E-01   1.00800           0   0.00000     -0.301140E-02
     14707 MEMB     119      PMPE     H6S      HAL2     0.900000E-01   1.00800           0   0.00000     -0.301140E-02
     14708 MEMB     119      PMPE     C27      CTL2    -0.180000       12.0110           0   0.00000     -0.301140E-02
     14709 MEMB     119      PMPE     H7R      HAL2     0.900000E-01   1.00800           0   0.00000     -0.301140E-02
     14710 MEMB     119      PMPE     H7S      HAL2     0.900000E-01   1.00800           0   0.00000     -0.301140E-02
     14711 MEMB     119      PMPE     C28      CTL2    -0.180000       12.0110           0   0.00000     -0.301140E-02
     14712 MEMB     119      PMPE     H8R      HAL2     0.900000E-01   1.00800           0   0.00000     -0.301140E-02
     14713 MEMB     119      PMPE     H8S      HAL2     0.900000E-01   1.00800           0   0.00000     -0.301140E-02
     14714 MEMB     119      PMPE     C29      CG3RC1  -0.900000E-01   12.0110           0   0.00000     -0.301140E-02
     14715 MEMB     119      PMPE     H9R      HGA1     0.900000E-01   1.00800           0   0.00000     -0.301140E-02
     14716 MEMB     119      PMPE     C217     CG3C31  -0.180000       12.0110           0   0.00000     -0.301140E-02
     14717 MEMB     119      PMPE     H17R     HGA2     0.900000E-01   1.00800           0   0.00000     -0.301140E-02
     14718 MEMB     119      PMPE     H17S     HGA2     0.900000E-01   1.00800           0   0.00000     -0.301140E-02
     14719 MEMB     119      PMPE     C210     CG3RC1  -0.900000E-01   12.0110           0   0.00000     -0.301140E-02
     14720 MEMB     119      PMPE     H10R     HGA1     0.900000E-01   1.00800           0   0.00000     -0.301140E-02
     14721 MEMB     119      PMPE     C211     CTL2    -0.180000       12.0110           0   0.00000     -0.301140E-02
     14722 MEMB     119      PMPE     H11R     HAL2     0.900000E-01   1.00800           0   0.00000     -0.301140E-02
     14723 MEMB     119      PMPE     H11S     HAL2     0.900000E-01   1.00800           0   0.00000     -0.301140E-02
     14724 MEMB     119      PMPE     C212     CTL2    -0.180000       12.0110           0   0.00000     -0.301140E-02
     14725 MEMB     119      PMPE     H12R     HAL2     0.900000E-01   1.00800           0   0.00000     -0.301140E-02
     14726 MEMB     119      PMPE     H12S     HAL2     0.900000E-01   1.00800           0   0.00000     -0.301140E-02
     14727 MEMB     119      PMPE     C213     CTL2    -0.180000       12.0110           0   0.00000     -0.301140E-02
     14728 MEMB     119      PMPE     H13R     HAL2     0.900000E-01   1.00800           0   0.00000     -0.301140E-02
     14729 MEMB     119      PMPE     H13S     HAL2     0.900000E-01   1.00800           0   0.00000     -0.301140E-02
     14730 MEMB     119      PMPE     C214     CTL2    -0.180000       12.0110           0   0.00000     -0.301140E-02
     14731 MEMB     119      PMPE     H14R     HAL2     0.900000E-01   1.00800           0   0.00000     -0.301140E-02
     14732 MEMB     119      PMPE     H14S     HAL2     0.900000E-01   1.00800           0   0.00000     -0.301140E-02
     14733 MEMB     119      PMPE     C215     CTL2    -0.180000       12.0110           0   0.00000     -0.301140E-02
     14734 MEMB     119      PMPE     H15R     HAL2     0.900000E-01   1.00800           0   0.00000     -0.301140E-02
     14735 MEMB     119      PMPE     H15S     HAL2     0.900000E-01   1.00800           0   0.00000     -0.301140E-02
     14736 MEMB     119      PMPE     C216     CTL3    -0.270000       12.0110           0   0.00000     -0.301140E-02
     14737 MEMB     119      PMPE     H16R     HAL3     0.900000E-01   1.00800           0   0.00000     -0.301140E-02
     14738 MEMB     119      PMPE     H16S     HAL3     0.900000E-01   1.00800           0   0.00000     -0.301140E-02
     14739 MEMB     119      PMPE     H16T     HAL3     0.900000E-01   1.00800           0   0.00000     -0.301140E-02
     14740 MEMB     119      PMPE     C33      CTL2    -0.180000       12.0110           0   0.00000     -0.301140E-02
     14741 MEMB     119      PMPE     H3X      HAL2     0.900000E-01   1.00800           0   0.00000     -0.301140E-02
     14742 MEMB     119      PMPE     H3Y      HAL2     0.900000E-01   1.00800           0   0.00000     -0.301140E-02
     14743 MEMB     119      PMPE     C34      CTL2    -0.180000       12.0110           0   0.00000     -0.301140E-02
     14744 MEMB     119      PMPE     H4X      HAL2     0.900000E-01   1.00800           0   0.00000     -0.301140E-02
     14745 MEMB     119      PMPE     H4Y      HAL2     0.900000E-01   1.00800           0   0.00000     -0.301140E-02
     14746 MEMB     119      PMPE     C35      CTL2    -0.180000       12.0110           0   0.00000     -0.301140E-02
     14747 MEMB     119      PMPE     H5X      HAL2     0.900000E-01   1.00800           0   0.00000     -0.301140E-02
     14748 MEMB     119      PMPE     H5Y      HAL2     0.900000E-01   1.00800           0   0.00000     -0.301140E-02
     14749 MEMB     119      PMPE     C36      CTL2    -0.180000       12.0110           0   0.00000     -0.301140E-02
     14750 MEMB     119      PMPE     H6X      HAL2     0.900000E-01   1.00800           0   0.00000     -0.301140E-02
     14751 MEMB     119      PMPE     H6Y      HAL2     0.900000E-01   1.00800           0   0.00000     -0.301140E-02
     14752 MEMB     119      PMPE     C37      CTL2    -0.180000       12.0110           0   0.00000     -0.301140E-02
     14753 MEMB     119      PMPE     H7X      HAL2     0.900000E-01   1.00800           0   0.00000     -0.301140E-02
     14754 MEMB     119      PMPE     H7Y      HAL2     0.900000E-01   1.00800           0   0.00000     -0.301140E-02
     14755 MEMB     119      PMPE     C38      CTL2    -0.180000       12.0110           0   0.00000     -0.301140E-02
     14756 MEMB     119      PMPE     H8X      HAL2     0.900000E-01   1.00800           0   0.00000     -0.301140E-02
     14757 MEMB     119      PMPE     H8Y      HAL2     0.900000E-01   1.00800           0   0.00000     -0.301140E-02
     14758 MEMB     119      PMPE     C39      CTL2    -0.180000       12.0110           0   0.00000     -0.301140E-02
     14759 MEMB     119      PMPE     H9X      HAL2     0.900000E-01   1.00800           0   0.00000     -0.301140E-02
     14760 MEMB     119      PMPE     H9Y      HAL2     0.900000E-01   1.00800           0   0.00000     -0.301140E-02
     14761 MEMB     119      PMPE     C310     CTL2    -0.180000       12.0110           0   0.00000     -0.301140E-02
     14762 MEMB     119      PMPE     H10X     HAL2     0.900000E-01   1.00800           0   0.00000     -0.301140E-02
     14763 MEMB     119      PMPE     H10Y     HAL2     0.900000E-01   1.00800           0   0.00000     -0.301140E-02
     14764 MEMB     119      PMPE     C311     CTL2    -0.180000       12.0110           0   0.00000     -0.301140E-02
     14765 MEMB     119      PMPE     H11X     HAL2     0.900000E-01   1.00800           0   0.00000     -0.301140E-02
     14766 MEMB     119      PMPE     H11Y     HAL2     0.900000E-01   1.00800           0   0.00000     -0.301140E-02
     14767 MEMB     119      PMPE     C312     CTL2    -0.180000       12.0110           0   0.00000     -0.301140E-02
     14768 MEMB     119      PMPE     H12X     HAL2     0.900000E-01   1.00800           0   0.00000     -0.301140E-02
     14769 MEMB     119      PMPE     H12Y     HAL2     0.900000E-01   1.00800           0   0.00000     -0.301140E-02
     14770 MEMB     119      PMPE     C313     CTL2    -0.180000       12.0110           0   0.00000     -0.301140E-02
     14771 MEMB     119      PMPE     H13X     HAL2     0.900000E-01   1.00800           0   0.00000     -0.301140E-02
     14772 MEMB     119      PMPE     H13Y     HAL2     0.900000E-01   1.00800           0   0.00000     -0.301140E-02
     14773 MEMB     119      PMPE     C314     CTL2    -0.180000       12.0110           0   0.00000     -0.301140E-02
     14774 MEMB     119      PMPE     H14X     HAL2     0.900000E-01   1.00800           0   0.00000     -0.301140E-02
     14775 MEMB     119      PMPE     H14Y     HAL2     0.900000E-01   1.00800           0   0.00000     -0.301140E-02
     14776 MEMB     119      PMPE     C315     CTL2    -0.180000       12.0110           0   0.00000     -0.301140E-02
     14777 MEMB     119      PMPE     H15X     HAL2     0.900000E-01   1.00800           0   0.00000     -0.301140E-02
     14778 MEMB     119      PMPE     H15Y     HAL2     0.900000E-01   1.00800           0   0.00000     -0.301140E-02
     14779 MEMB     119      PMPE     C316     CTL3    -0.270000       12.0110           0   0.00000     -0.301140E-02
     14780 MEMB     119      PMPE     H16X     HAL3     0.900000E-01   1.00800           0   0.00000     -0.301140E-02
     14781 MEMB     119      PMPE     H16Y     HAL3     0.900000E-01   1.00800           0   0.00000     -0.301140E-02
     14782 MEMB     119      PMPE     H16Z     HAL3     0.900000E-01   1.00800           0   0.00000     -0.301140E-02
     14783 MEMB     120      PMPE     N        NH3L    -0.300000       14.0070           0   0.00000     -0.301140E-02
     14784 MEMB     120      PMPE     HN1      HCL      0.330000       1.00800           0   0.00000     -0.301140E-02
     14785 MEMB     120      PMPE     HN2      HCL      0.330000       1.00800           0   0.00000     -0.301140E-02
     14786 MEMB     120      PMPE     HN3      HCL      0.330000       1.00800           0   0.00000     -0.301140E-02
     14787 MEMB     120      PMPE     C12      CTL2     0.130000       12.0110           0   0.00000     -0.301140E-02
     14788 MEMB     120      PMPE     H12A     HAL2     0.900000E-01   1.00800           0   0.00000     -0.301140E-02
     14789 MEMB     120      PMPE     H12B     HAL2     0.900000E-01   1.00800           0   0.00000     -0.301140E-02
     14790 MEMB     120      PMPE     C11      CTL2    -0.800000E-01   12.0110           0   0.00000     -0.301140E-02
     14791 MEMB     120      PMPE     H11A     HAL2     0.900000E-01   1.00800           0   0.00000     -0.301140E-02
     14792 MEMB     120      PMPE     H11B     HAL2     0.900000E-01   1.00800           0   0.00000     -0.301140E-02
     14793 MEMB     120      PMPE     P        PL        1.50000       30.9740           0   0.00000     -0.301140E-02
     14794 MEMB     120      PMPE     O13      O2L     -0.780000       15.9994           0   0.00000     -0.301140E-02
     14795 MEMB     120      PMPE     O14      O2L     -0.780000       15.9994           0   0.00000     -0.301140E-02
     14796 MEMB     120      PMPE     O11      OSLP    -0.570000       15.9994           0   0.00000     -0.301140E-02
     14797 MEMB     120      PMPE     O12      OSLP    -0.570000       15.9994           0   0.00000     -0.301140E-02
     14798 MEMB     120      PMPE     C1       CTL2    -0.800000E-01   12.0110           0   0.00000     -0.301140E-02
     14799 MEMB     120      PMPE     HA       HAL2     0.900000E-01   1.00800           0   0.00000     -0.301140E-02
     14800 MEMB     120      PMPE     HB       HAL2     0.900000E-01   1.00800           0   0.00000     -0.301140E-02
     14801 MEMB     120      PMPE     C2       CTL1     0.170000       12.0110           0   0.00000     -0.301140E-02
     14802 MEMB     120      PMPE     HS       HAL1     0.900000E-01   1.00800           0   0.00000     -0.301140E-02
     14803 MEMB     120      PMPE     O21      OSL     -0.490000       15.9994           0   0.00000     -0.301140E-02
     14804 MEMB     120      PMPE     C21      CL       0.900000       12.0110           0   0.00000     -0.301140E-02
     14805 MEMB     120      PMPE     O22      OBL     -0.630000       15.9994           0   0.00000     -0.301140E-02
     14806 MEMB     120      PMPE     C22      CTL2    -0.220000       12.0110           0   0.00000     -0.301140E-02
     14807 MEMB     120      PMPE     H2R      HAL2     0.900000E-01   1.00800           0   0.00000     -0.301140E-02
     14808 MEMB     120      PMPE     H2S      HAL2     0.900000E-01   1.00800           0   0.00000     -0.301140E-02
     14809 MEMB     120      PMPE     C3       CTL2     0.800000E-01   12.0110           0   0.00000     -0.301140E-02
     14810 MEMB     120      PMPE     HX       HAL2     0.900000E-01   1.00800           0   0.00000     -0.301140E-02
     14811 MEMB     120      PMPE     HY       HAL2     0.900000E-01   1.00800           0   0.00000     -0.301140E-02
     14812 MEMB     120      PMPE     O31      OSL     -0.490000       15.9994           0   0.00000     -0.301140E-02
     14813 MEMB     120      PMPE     C31      CL       0.900000       12.0110           0   0.00000     -0.301140E-02
     14814 MEMB     120      PMPE     O32      OBL     -0.630000       15.9994           0   0.00000     -0.301140E-02
     14815 MEMB     120      PMPE     C32      CTL2    -0.220000       12.0110           0   0.00000     -0.301140E-02
     14816 MEMB     120      PMPE     H2X      HAL2     0.900000E-01   1.00800           0   0.00000     -0.301140E-02
     14817 MEMB     120      PMPE     H2Y      HAL2     0.900000E-01   1.00800           0   0.00000     -0.301140E-02
     14818 MEMB     120      PMPE     C23      CTL2    -0.180000       12.0110           0   0.00000     -0.301140E-02
     14819 MEMB     120      PMPE     H3R      HAL2     0.900000E-01   1.00800           0   0.00000     -0.301140E-02
     14820 MEMB     120      PMPE     H3S      HAL2     0.900000E-01   1.00800           0   0.00000     -0.301140E-02
     14821 MEMB     120      PMPE     C24      CTL2    -0.180000       12.0110           0   0.00000     -0.301140E-02
     14822 MEMB     120      PMPE     H4R      HAL2     0.900000E-01   1.00800           0   0.00000     -0.301140E-02
     14823 MEMB     120      PMPE     H4S      HAL2     0.900000E-01   1.00800           0   0.00000     -0.301140E-02
     14824 MEMB     120      PMPE     C25      CTL2    -0.180000       12.0110           0   0.00000     -0.301140E-02
     14825 MEMB     120      PMPE     H5R      HAL2     0.900000E-01   1.00800           0   0.00000     -0.301140E-02
     14826 MEMB     120      PMPE     H5S      HAL2     0.900000E-01   1.00800           0   0.00000     -0.301140E-02
     14827 MEMB     120      PMPE     C26      CTL2    -0.180000       12.0110           0   0.00000     -0.301140E-02
     14828 MEMB     120      PMPE     H6R      HAL2     0.900000E-01   1.00800           0   0.00000     -0.301140E-02
     14829 MEMB     120      PMPE     H6S      HAL2     0.900000E-01   1.00800           0   0.00000     -0.301140E-02
     14830 MEMB     120      PMPE     C27      CTL2    -0.180000       12.0110           0   0.00000     -0.301140E-02
     14831 MEMB     120      PMPE     H7R      HAL2     0.900000E-01   1.00800           0   0.00000     -0.301140E-02
     14832 MEMB     120      PMPE     H7S      HAL2     0.900000E-01   1.00800           0   0.00000     -0.301140E-02
     14833 MEMB     120      PMPE     C28      CTL2    -0.180000       12.0110           0   0.00000     -0.301140E-02
     14834 MEMB     120      PMPE     H8R      HAL2     0.900000E-01   1.00800           0   0.00000     -0.301140E-02
     14835 MEMB     120      PMPE     H8S      HAL2     0.900000E-01   1.00800           0   0.00000     -0.301140E-02
     14836 MEMB     120      PMPE     C29      CG3RC1  -0.900000E-01   12.0110           0   0.00000     -0.301140E-02
     14837 MEMB     120      PMPE     H9R      HGA1     0.900000E-01   1.00800           0   0.00000     -0.301140E-02
     14838 MEMB     120      PMPE     C217     CG3C31  -0.180000       12.0110           0   0.00000     -0.301140E-02
     14839 MEMB     120      PMPE     H17R     HGA2     0.900000E-01   1.00800           0   0.00000     -0.301140E-02
     14840 MEMB     120      PMPE     H17S     HGA2     0.900000E-01   1.00800           0   0.00000     -0.301140E-02
     14841 MEMB     120      PMPE     C210     CG3RC1  -0.900000E-01   12.0110           0   0.00000     -0.301140E-02
     14842 MEMB     120      PMPE     H10R     HGA1     0.900000E-01   1.00800           0   0.00000     -0.301140E-02
     14843 MEMB     120      PMPE     C211     CTL2    -0.180000       12.0110           0   0.00000     -0.301140E-02
     14844 MEMB     120      PMPE     H11R     HAL2     0.900000E-01   1.00800           0   0.00000     -0.301140E-02
     14845 MEMB     120      PMPE     H11S     HAL2     0.900000E-01   1.00800           0   0.00000     -0.301140E-02
     14846 MEMB     120      PMPE     C212     CTL2    -0.180000       12.0110           0   0.00000     -0.301140E-02
     14847 MEMB     120      PMPE     H12R     HAL2     0.900000E-01   1.00800           0   0.00000     -0.301140E-02
     14848 MEMB     120      PMPE     H12S     HAL2     0.900000E-01   1.00800           0   0.00000     -0.301140E-02
     14849 MEMB     120      PMPE     C213     CTL2    -0.180000       12.0110           0   0.00000     -0.301140E-02
     14850 MEMB     120      PMPE     H13R     HAL2     0.900000E-01   1.00800           0   0.00000     -0.301140E-02
     14851 MEMB     120      PMPE     H13S     HAL2     0.900000E-01   1.00800           0   0.00000     -0.301140E-02
     14852 MEMB     120      PMPE     C214     CTL2    -0.180000       12.0110           0   0.00000     -0.301140E-02
     14853 MEMB     120      PMPE     H14R     HAL2     0.900000E-01   1.00800           0   0.00000     -0.301140E-02
     14854 MEMB     120      PMPE     H14S     HAL2     0.900000E-01   1.00800           0   0.00000     -0.301140E-02
     14855 MEMB     120      PMPE     C215     CTL2    -0.180000       12.0110           0   0.00000     -0.301140E-02
     14856 MEMB     120      PMPE     H15R     HAL2     0.900000E-01   1.00800           0   0.00000     -0.301140E-02
     14857 MEMB     120      PMPE     H15S     HAL2     0.900000E-01   1.00800           0   0.00000     -0.301140E-02
     14858 MEMB     120      PMPE     C216     CTL3    -0.270000       12.0110           0   0.00000     -0.301140E-02
     14859 MEMB     120      PMPE     H16R     HAL3     0.900000E-01   1.00800           0   0.00000     -0.301140E-02
     14860 MEMB     120      PMPE     H16S     HAL3     0.900000E-01   1.00800           0   0.00000     -0.301140E-02
     14861 MEMB     120      PMPE     H16T     HAL3     0.900000E-01   1.00800           0   0.00000     -0.301140E-02
     14862 MEMB     120      PMPE     C33      CTL2    -0.180000       12.0110           0   0.00000     -0.301140E-02
     14863 MEMB     120      PMPE     H3X      HAL2     0.900000E-01   1.00800           0   0.00000     -0.301140E-02
     14864 MEMB     120      PMPE     H3Y      HAL2     0.900000E-01   1.00800           0   0.00000     -0.301140E-02
     14865 MEMB     120      PMPE     C34      CTL2    -0.180000       12.0110           0   0.00000     -0.301140E-02
     14866 MEMB     120      PMPE     H4X      HAL2     0.900000E-01   1.00800           0   0.00000     -0.301140E-02
     14867 MEMB     120      PMPE     H4Y      HAL2     0.900000E-01   1.00800           0   0.00000     -0.301140E-02
     14868 MEMB     120      PMPE     C35      CTL2    -0.180000       12.0110           0   0.00000     -0.301140E-02
     14869 MEMB     120      PMPE     H5X      HAL2     0.900000E-01   1.00800           0   0.00000     -0.301140E-02
     14870 MEMB     120      PMPE     H5Y      HAL2     0.900000E-01   1.00800           0   0.00000     -0.301140E-02
     14871 MEMB     120      PMPE     C36      CTL2    -0.180000       12.0110           0   0.00000     -0.301140E-02
     14872 MEMB     120      PMPE     H6X      HAL2     0.900000E-01   1.00800           0   0.00000     -0.301140E-02
     14873 MEMB     120      PMPE     H6Y      HAL2     0.900000E-01   1.00800           0   0.00000     -0.301140E-02
     14874 MEMB     120      PMPE     C37      CTL2    -0.180000       12.0110           0   0.00000     -0.301140E-02
     14875 MEMB     120      PMPE     H7X      HAL2     0.900000E-01   1.00800           0   0.00000     -0.301140E-02
     14876 MEMB     120      PMPE     H7Y      HAL2     0.900000E-01   1.00800           0   0.00000     -0.301140E-02
     14877 MEMB     120      PMPE     C38      CTL2    -0.180000       12.0110           0   0.00000     -0.301140E-02
     14878 MEMB     120      PMPE     H8X      HAL2     0.900000E-01   1.00800           0   0.00000     -0.301140E-02
     14879 MEMB     120      PMPE     H8Y      HAL2     0.900000E-01   1.00800           0   0.00000     -0.301140E-02
     14880 MEMB     120      PMPE     C39      CTL2    -0.180000       12.0110           0   0.00000     -0.301140E-02
     14881 MEMB     120      PMPE     H9X      HAL2     0.900000E-01   1.00800           0   0.00000     -0.301140E-02
     14882 MEMB     120      PMPE     H9Y      HAL2     0.900000E-01   1.00800           0   0.00000     -0.301140E-02
     14883 MEMB     120      PMPE     C310     CTL2    -0.180000       12.0110           0   0.00000     -0.301140E-02
     14884 MEMB     120      PMPE     H10X     HAL2     0.900000E-01   1.00800           0   0.00000     -0.301140E-02
     14885 MEMB     120      PMPE     H10Y     HAL2     0.900000E-01   1.00800           0   0.00000     -0.301140E-02
     14886 MEMB     120      PMPE     C311     CTL2    -0.180000       12.0110           0   0.00000     -0.301140E-02
     14887 MEMB     120      PMPE     H11X     HAL2     0.900000E-01   1.00800           0   0.00000     -0.301140E-02
     14888 MEMB     120      PMPE     H11Y     HAL2     0.900000E-01   1.00800           0   0.00000     -0.301140E-02
     14889 MEMB     120      PMPE     C312     CTL2    -0.180000       12.0110           0   0.00000     -0.301140E-02
     14890 MEMB     120      PMPE     H12X     HAL2     0.900000E-01   1.00800           0   0.00000     -0.301140E-02
     14891 MEMB     120      PMPE     H12Y     HAL2     0.900000E-01   1.00800           0   0.00000     -0.301140E-02
     14892 MEMB     120      PMPE     C313     CTL2    -0.180000       12.0110           0   0.00000     -0.301140E-02
     14893 MEMB     120      PMPE     H13X     HAL2     0.900000E-01   1.00800           0   0.00000     -0.301140E-02
     14894 MEMB     120      PMPE     H13Y     HAL2     0.900000E-01   1.00800           0   0.00000     -0.301140E-02
     14895 MEMB     120      PMPE     C314     CTL2    -0.180000       12.0110           0   0.00000     -0.301140E-02
     14896 MEMB     120      PMPE     H14X     HAL2     0.900000E-01   1.00800           0   0.00000     -0.301140E-02
     14897 MEMB     120      PMPE     H14Y     HAL2     0.900000E-01   1.00800           0   0.00000     -0.301140E-02
     14898 MEMB     120      PMPE     C315     CTL2    -0.180000       12.0110           0   0.00000     -0.301140E-02
     14899 MEMB     120      PMPE     H15X     HAL2     0.900000E-01   1.00800           0   0.00000     -0.301140E-02
     14900 MEMB     120      PMPE     H15Y     HAL2     0.900000E-01   1.00800           0   0.00000     -0.301140E-02
     14901 MEMB     120      PMPE     C316     CTL3    -0.270000       12.0110           0   0.00000     -0.301140E-02
     14902 MEMB     120      PMPE     H16X     HAL3     0.900000E-01   1.00800           0   0.00000     -0.301140E-02
     14903 MEMB     120      PMPE     H16Y     HAL3     0.900000E-01   1.00800           0   0.00000     -0.301140E-02
     14904 MEMB     120      PMPE     H16Z     HAL3     0.900000E-01   1.00800           0   0.00000     -0.301140E-02
     14905 MEMB     121      OYPE     N        NH3L    -0.300000       14.0070           0   0.00000     -0.301140E-02
     14906 MEMB     121      OYPE     HN1      HCL      0.330000       1.00800           0   0.00000     -0.301140E-02
     14907 MEMB     121      OYPE     HN2      HCL      0.330000       1.00800           0   0.00000     -0.301140E-02
     14908 MEMB     121      OYPE     HN3      HCL      0.330000       1.00800           0   0.00000     -0.301140E-02
     14909 MEMB     121      OYPE     C12      CTL2     0.130000       12.0110           0   0.00000     -0.301140E-02
     14910 MEMB     121      OYPE     H12A     HAL2     0.900000E-01   1.00800           0   0.00000     -0.301140E-02
     14911 MEMB     121      OYPE     H12B     HAL2     0.900000E-01   1.00800           0   0.00000     -0.301140E-02
     14912 MEMB     121      OYPE     C11      CTL2    -0.800000E-01   12.0110           0   0.00000     -0.301140E-02
     14913 MEMB     121      OYPE     H11A     HAL2     0.900000E-01   1.00800           0   0.00000     -0.301140E-02
     14914 MEMB     121      OYPE     H11B     HAL2     0.900000E-01   1.00800           0   0.00000     -0.301140E-02
     14915 MEMB     121      OYPE     P        PL        1.50000       30.9740           0   0.00000     -0.301140E-02
     14916 MEMB     121      OYPE     O13      O2L     -0.780000       15.9994           0   0.00000     -0.301140E-02
     14917 MEMB     121      OYPE     O14      O2L     -0.780000       15.9994           0   0.00000     -0.301140E-02
     14918 MEMB     121      OYPE     O11      OSLP    -0.570000       15.9994           0   0.00000     -0.301140E-02
     14919 MEMB     121      OYPE     O12      OSLP    -0.570000       15.9994           0   0.00000     -0.301140E-02
     14920 MEMB     121      OYPE     C1       CTL2    -0.800000E-01   12.0110           0   0.00000     -0.301140E-02
     14921 MEMB     121      OYPE     HA       HAL2     0.900000E-01   1.00800           0   0.00000     -0.301140E-02
     14922 MEMB     121      OYPE     HB       HAL2     0.900000E-01   1.00800           0   0.00000     -0.301140E-02
     14923 MEMB     121      OYPE     C2       CTL1     0.170000       12.0110           0   0.00000     -0.301140E-02
     14924 MEMB     121      OYPE     HS       HAL1     0.900000E-01   1.00800           0   0.00000     -0.301140E-02
     14925 MEMB     121      OYPE     O21      OSL     -0.490000       15.9994           0   0.00000     -0.301140E-02
     14926 MEMB     121      OYPE     C21      CL       0.900000       12.0110           0   0.00000     -0.301140E-02
     14927 MEMB     121      OYPE     O22      OBL     -0.630000       15.9994           0   0.00000     -0.301140E-02
     14928 MEMB     121      OYPE     C22      CTL2    -0.220000       12.0110           0   0.00000     -0.301140E-02
     14929 MEMB     121      OYPE     H2R      HAL2     0.900000E-01   1.00800           0   0.00000     -0.301140E-02
     14930 MEMB     121      OYPE     H2S      HAL2     0.900000E-01   1.00800           0   0.00000     -0.301140E-02
     14931 MEMB     121      OYPE     C3       CTL2     0.800000E-01   12.0110           0   0.00000     -0.301140E-02
     14932 MEMB     121      OYPE     HX       HAL2     0.900000E-01   1.00800           0   0.00000     -0.301140E-02
     14933 MEMB     121      OYPE     HY       HAL2     0.900000E-01   1.00800           0   0.00000     -0.301140E-02
     14934 MEMB     121      OYPE     O31      OSL     -0.490000       15.9994           0   0.00000     -0.301140E-02
     14935 MEMB     121      OYPE     C31      CL       0.900000       12.0110           0   0.00000     -0.301140E-02
     14936 MEMB     121      OYPE     O32      OBL     -0.630000       15.9994           0   0.00000     -0.301140E-02
     14937 MEMB     121      OYPE     C32      CTL2    -0.220000       12.0110           0   0.00000     -0.301140E-02
     14938 MEMB     121      OYPE     H2X      HAL2     0.900000E-01   1.00800           0   0.00000     -0.301140E-02
     14939 MEMB     121      OYPE     H2Y      HAL2     0.900000E-01   1.00800           0   0.00000     -0.301140E-02
     14940 MEMB     121      OYPE     C23      CTL2    -0.180000       12.0110           0   0.00000     -0.301140E-02
     14941 MEMB     121      OYPE     H3R      HAL2     0.900000E-01   1.00800           0   0.00000     -0.301140E-02
     14942 MEMB     121      OYPE     H3S      HAL2     0.900000E-01   1.00800           0   0.00000     -0.301140E-02
     14943 MEMB     121      OYPE     C24      CTL2    -0.180000       12.0110           0   0.00000     -0.301140E-02
     14944 MEMB     121      OYPE     H4R      HAL2     0.900000E-01   1.00800           0   0.00000     -0.301140E-02
     14945 MEMB     121      OYPE     H4S      HAL2     0.900000E-01   1.00800           0   0.00000     -0.301140E-02
     14946 MEMB     121      OYPE     C25      CTL2    -0.180000       12.0110           0   0.00000     -0.301140E-02
     14947 MEMB     121      OYPE     H5R      HAL2     0.900000E-01   1.00800           0   0.00000     -0.301140E-02
     14948 MEMB     121      OYPE     H5S      HAL2     0.900000E-01   1.00800           0   0.00000     -0.301140E-02
     14949 MEMB     121      OYPE     C26      CTL2    -0.180000       12.0110           0   0.00000     -0.301140E-02
     14950 MEMB     121      OYPE     H6R      HAL2     0.900000E-01   1.00800           0   0.00000     -0.301140E-02
     14951 MEMB     121      OYPE     H6S      HAL2     0.900000E-01   1.00800           0   0.00000     -0.301140E-02
     14952 MEMB     121      OYPE     C27      CTL2    -0.180000       12.0110           0   0.00000     -0.301140E-02
     14953 MEMB     121      OYPE     H7R      HAL2     0.900000E-01   1.00800           0   0.00000     -0.301140E-02
     14954 MEMB     121      OYPE     H7S      HAL2     0.900000E-01   1.00800           0   0.00000     -0.301140E-02
     14955 MEMB     121      OYPE     C28      CTL2    -0.180000       12.0110           0   0.00000     -0.301140E-02
     14956 MEMB     121      OYPE     H8R      HAL2     0.900000E-01   1.00800           0   0.00000     -0.301140E-02
     14957 MEMB     121      OYPE     H8S      HAL2     0.900000E-01   1.00800           0   0.00000     -0.301140E-02
     14958 MEMB     121      OYPE     C29      CEL1    -0.150000       12.0110           0   0.00000     -0.301140E-02
     14959 MEMB     121      OYPE     H9R      HEL1     0.150000       1.00800           0   0.00000     -0.301140E-02
     14960 MEMB     121      OYPE     C210     CEL1    -0.150000       12.0110           0   0.00000     -0.301140E-02
     14961 MEMB     121      OYPE     H10R     HEL1     0.150000       1.00800           0   0.00000     -0.301140E-02
     14962 MEMB     121      OYPE     C211     CTL2    -0.180000       12.0110           0   0.00000     -0.301140E-02
     14963 MEMB     121      OYPE     H11R     HAL2     0.900000E-01   1.00800           0   0.00000     -0.301140E-02
     14964 MEMB     121      OYPE     H11S     HAL2     0.900000E-01   1.00800           0   0.00000     -0.301140E-02
     14965 MEMB     121      OYPE     C212     CTL2    -0.180000       12.0110           0   0.00000     -0.301140E-02
     14966 MEMB     121      OYPE     H12R     HAL2     0.900000E-01   1.00800           0   0.00000     -0.301140E-02
     14967 MEMB     121      OYPE     H12S     HAL2     0.900000E-01   1.00800           0   0.00000     -0.301140E-02
     14968 MEMB     121      OYPE     C213     CTL2    -0.180000       12.0110           0   0.00000     -0.301140E-02
     14969 MEMB     121      OYPE     H13R     HAL2     0.900000E-01   1.00800           0   0.00000     -0.301140E-02
     14970 MEMB     121      OYPE     H13S     HAL2     0.900000E-01   1.00800           0   0.00000     -0.301140E-02
     14971 MEMB     121      OYPE     C214     CTL2    -0.180000       12.0110           0   0.00000     -0.301140E-02
     14972 MEMB     121      OYPE     H14R     HAL2     0.900000E-01   1.00800           0   0.00000     -0.301140E-02
     14973 MEMB     121      OYPE     H14S     HAL2     0.900000E-01   1.00800           0   0.00000     -0.301140E-02
     14974 MEMB     121      OYPE     C215     CTL2    -0.180000       12.0110           0   0.00000     -0.301140E-02
     14975 MEMB     121      OYPE     H15R     HAL2     0.900000E-01   1.00800           0   0.00000     -0.301140E-02
     14976 MEMB     121      OYPE     H15S     HAL2     0.900000E-01   1.00800           0   0.00000     -0.301140E-02
     14977 MEMB     121      OYPE     C216     CTL3    -0.270000       12.0110           0   0.00000     -0.301140E-02
     14978 MEMB     121      OYPE     H16R     HAL3     0.900000E-01   1.00800           0   0.00000     -0.301140E-02
     14979 MEMB     121      OYPE     H16S     HAL3     0.900000E-01   1.00800           0   0.00000     -0.301140E-02
     14980 MEMB     121      OYPE     H16T     HAL3     0.900000E-01   1.00800           0   0.00000     -0.301140E-02
     14981 MEMB     121      OYPE     C33      CTL2    -0.180000       12.0110           0   0.00000     -0.301140E-02
     14982 MEMB     121      OYPE     H3X      HAL2     0.900000E-01   1.00800           0   0.00000     -0.301140E-02
     14983 MEMB     121      OYPE     H3Y      HAL2     0.900000E-01   1.00800           0   0.00000     -0.301140E-02
     14984 MEMB     121      OYPE     C34      CTL2    -0.180000       12.0110           0   0.00000     -0.301140E-02
     14985 MEMB     121      OYPE     H4X      HAL2     0.900000E-01   1.00800           0   0.00000     -0.301140E-02
     14986 MEMB     121      OYPE     H4Y      HAL2     0.900000E-01   1.00800           0   0.00000     -0.301140E-02
     14987 MEMB     121      OYPE     C35      CTL2    -0.180000       12.0110           0   0.00000     -0.301140E-02
     14988 MEMB     121      OYPE     H5X      HAL2     0.900000E-01   1.00800           0   0.00000     -0.301140E-02
     14989 MEMB     121      OYPE     H5Y      HAL2     0.900000E-01   1.00800           0   0.00000     -0.301140E-02
     14990 MEMB     121      OYPE     C36      CTL2    -0.180000       12.0110           0   0.00000     -0.301140E-02
     14991 MEMB     121      OYPE     H6X      HAL2     0.900000E-01   1.00800           0   0.00000     -0.301140E-02
     14992 MEMB     121      OYPE     H6Y      HAL2     0.900000E-01   1.00800           0   0.00000     -0.301140E-02
     14993 MEMB     121      OYPE     C37      CTL2    -0.180000       12.0110           0   0.00000     -0.301140E-02
     14994 MEMB     121      OYPE     H7X      HAL2     0.900000E-01   1.00800           0   0.00000     -0.301140E-02
     14995 MEMB     121      OYPE     H7Y      HAL2     0.900000E-01   1.00800           0   0.00000     -0.301140E-02
     14996 MEMB     121      OYPE     C38      CTL2    -0.180000       12.0110           0   0.00000     -0.301140E-02
     14997 MEMB     121      OYPE     H8X      HAL2     0.900000E-01   1.00800           0   0.00000     -0.301140E-02
     14998 MEMB     121      OYPE     H8Y      HAL2     0.900000E-01   1.00800           0   0.00000     -0.301140E-02
     14999 MEMB     121      OYPE     C39      CEL1    -0.150000       12.0110           0   0.00000     -0.301140E-02
     15000 MEMB     121      OYPE     H9X      HEL1     0.150000       1.00800           0   0.00000     -0.301140E-02
     15001 MEMB     121      OYPE     C310     CEL1    -0.150000       12.0110           0   0.00000     -0.301140E-02
     15002 MEMB     121      OYPE     H10X     HEL1     0.150000       1.00800           0   0.00000     -0.301140E-02
     15003 MEMB     121      OYPE     C311     CTL2    -0.180000       12.0110           0   0.00000     -0.301140E-02
     15004 MEMB     121      OYPE     H11X     HAL2     0.900000E-01   1.00800           0   0.00000     -0.301140E-02
     15005 MEMB     121      OYPE     H11Y     HAL2     0.900000E-01   1.00800           0   0.00000     -0.301140E-02
     15006 MEMB     121      OYPE     C312     CTL2    -0.180000       12.0110           0   0.00000     -0.301140E-02
     15007 MEMB     121      OYPE     H12X     HAL2     0.900000E-01   1.00800           0   0.00000     -0.301140E-02
     15008 MEMB     121      OYPE     H12Y     HAL2     0.900000E-01   1.00800           0   0.00000     -0.301140E-02
     15009 MEMB     121      OYPE     C313     CTL2    -0.180000       12.0110           0   0.00000     -0.301140E-02
     15010 MEMB     121      OYPE     H13X     HAL2     0.900000E-01   1.00800           0   0.00000     -0.301140E-02
     15011 MEMB     121      OYPE     H13Y     HAL2     0.900000E-01   1.00800           0   0.00000     -0.301140E-02
     15012 MEMB     121      OYPE     C314     CTL2    -0.180000       12.0110           0   0.00000     -0.301140E-02
     15013 MEMB     121      OYPE     H14X     HAL2     0.900000E-01   1.00800           0   0.00000     -0.301140E-02
     15014 MEMB     121      OYPE     H14Y     HAL2     0.900000E-01   1.00800           0   0.00000     -0.301140E-02
     15015 MEMB     121      OYPE     C315     CTL2    -0.180000       12.0110           0   0.00000     -0.301140E-02
     15016 MEMB     121      OYPE     H15X     HAL2     0.900000E-01   1.00800           0   0.00000     -0.301140E-02
     15017 MEMB     121      OYPE     H15Y     HAL2     0.900000E-01   1.00800           0   0.00000     -0.301140E-02
     15018 MEMB     121      OYPE     C316     CTL2    -0.180000       12.0110           0   0.00000     -0.301140E-02
     15019 MEMB     121      OYPE     H16X     HAL2     0.900000E-01   1.00800           0   0.00000     -0.301140E-02
     15020 MEMB     121      OYPE     H16Y     HAL2     0.900000E-01   1.00800           0   0.00000     -0.301140E-02
     15021 MEMB     121      OYPE     C317     CTL2    -0.180000       12.0110           0   0.00000     -0.301140E-02
     15022 MEMB     121      OYPE     H17X     HAL2     0.900000E-01   1.00800           0   0.00000     -0.301140E-02
     15023 MEMB     121      OYPE     H17Y     HAL2     0.900000E-01   1.00800           0   0.00000     -0.301140E-02
     15024 MEMB     121      OYPE     C318     CTL3    -0.270000       12.0110           0   0.00000     -0.301140E-02
     15025 MEMB     121      OYPE     H18X     HAL3     0.900000E-01   1.00800           0   0.00000     -0.301140E-02
     15026 MEMB     121      OYPE     H18Y     HAL3     0.900000E-01   1.00800           0   0.00000     -0.301140E-02
     15027 MEMB     121      OYPE     H18Z     HAL3     0.900000E-01   1.00800           0   0.00000     -0.301140E-02
     15028 MEMB     122      PVCL2    C3       CTL2    -0.800000E-01   12.0110           0   0.00000     -0.301140E-02
     15029 MEMB     122      PVCL2    HG31     HAL2     0.900000E-01   1.00800           0   0.00000     -0.301140E-02
     15030 MEMB     122      PVCL2    HG32     HAL2     0.900000E-01   1.00800           0   0.00000     -0.301140E-02
     15031 MEMB     122      PVCL2    P3       PL        1.50000       30.9740           0   0.00000     -0.301140E-02
     15032 MEMB     122      PVCL2    OP33     O2L     -0.780000       15.9994           0   0.00000     -0.301140E-02
     15033 MEMB     122      PVCL2    OP34     O2L     -0.780000       15.9994           0   0.00000     -0.301140E-02
     15034 MEMB     122      PVCL2    OP31     OSLP    -0.570000       15.9994           0   0.00000     -0.301140E-02
     15035 MEMB     122      PVCL2    OP32     OSLP    -0.570000       15.9994           0   0.00000     -0.301140E-02
     15036 MEMB     122      PVCL2    C31      CTL2    -0.800000E-01   12.0110           0   0.00000     -0.301140E-02
     15037 MEMB     122      PVCL2    H31J     HAL2     0.900000E-01   1.00800           0   0.00000     -0.301140E-02
     15038 MEMB     122      PVCL2    H31K     HAL2     0.900000E-01   1.00800           0   0.00000     -0.301140E-02
     15039 MEMB     122      PVCL2    C2       CTL1     0.140000       12.0110           0   0.00000     -0.301140E-02
     15040 MEMB     122      PVCL2    HG22     HAL1     0.900000E-01   1.00800           0   0.00000     -0.301140E-02
     15041 MEMB     122      PVCL2    OG12     OHL     -0.650000       15.9994           0   0.00000     -0.301140E-02
     15042 MEMB     122      PVCL2    HO12     HOL      0.420000       1.00800           0   0.00000     -0.301140E-02
     15043 MEMB     122      PVCL2    C1       CTL2    -0.800000E-01   12.0110           0   0.00000     -0.301140E-02
     15044 MEMB     122      PVCL2    HG11     HAL2     0.900000E-01   1.00800           0   0.00000     -0.301140E-02
     15045 MEMB     122      PVCL2    HG12     HAL2     0.900000E-01   1.00800           0   0.00000     -0.301140E-02
     15046 MEMB     122      PVCL2    P1       PL        1.50000       30.9740           0   0.00000     -0.301140E-02
     15047 MEMB     122      PVCL2    OP13     O2L     -0.780000       15.9994           0   0.00000     -0.301140E-02
     15048 MEMB     122      PVCL2    OP14     O2L     -0.780000       15.9994           0   0.00000     -0.301140E-02
     15049 MEMB     122      PVCL2    OP11     OSLP    -0.570000       15.9994           0   0.00000     -0.301140E-02
     15050 MEMB     122      PVCL2    OP12     OSLP    -0.570000       15.9994           0   0.00000     -0.301140E-02
     15051 MEMB     122      PVCL2    C11      CTL2    -0.800000E-01   12.0110           0   0.00000     -0.301140E-02
     15052 MEMB     122      PVCL2    H11J     HAL2     0.900000E-01   1.00800           0   0.00000     -0.301140E-02
     15053 MEMB     122      PVCL2    H11K     HAL2     0.900000E-01   1.00800           0   0.00000     -0.301140E-02
     15054 MEMB     122      PVCL2    C12      CTL1     0.170000       12.0110           0   0.00000     -0.301140E-02
     15055 MEMB     122      PVCL2    H12J     HAL1     0.900000E-01   1.00800           0   0.00000     -0.301140E-02
     15056 MEMB     122      PVCL2    O12      OSL     -0.490000       15.9994           0   0.00000     -0.301140E-02
     15057 MEMB     122      PVCL2    CA1      CL       0.900000       12.0110           0   0.00000     -0.301140E-02
     15058 MEMB     122      PVCL2    OA1      OBL     -0.630000       15.9994           0   0.00000     -0.301140E-02
     15059 MEMB     122      PVCL2    CA2      CTL2    -0.220000       12.0110           0   0.00000     -0.301140E-02
     15060 MEMB     122      PVCL2    H2A      HAL2     0.900000E-01   1.00800           0   0.00000     -0.301140E-02
     15061 MEMB     122      PVCL2    H2B      HAL2     0.900000E-01   1.00800           0   0.00000     -0.301140E-02
     15062 MEMB     122      PVCL2    C13      CTL2     0.800000E-01   12.0110           0   0.00000     -0.301140E-02
     15063 MEMB     122      PVCL2    H13J     HAL2     0.900000E-01   1.00800           0   0.00000     -0.301140E-02
     15064 MEMB     122      PVCL2    H13K     HAL2     0.900000E-01   1.00800           0   0.00000     -0.301140E-02
     15065 MEMB     122      PVCL2    O13      OSL     -0.490000       15.9994           0   0.00000     -0.301140E-02
     15066 MEMB     122      PVCL2    CB1      CL       0.900000       12.0110           0   0.00000     -0.301140E-02
     15067 MEMB     122      PVCL2    OB1      OBL     -0.630000       15.9994           0   0.00000     -0.301140E-02
     15068 MEMB     122      PVCL2    CB2      CTL2    -0.220000       12.0110           0   0.00000     -0.301140E-02
     15069 MEMB     122      PVCL2    H2D      HAL2     0.900000E-01   1.00800           0   0.00000     -0.301140E-02
     15070 MEMB     122      PVCL2    H2E      HAL2     0.900000E-01   1.00800           0   0.00000     -0.301140E-02
     15071 MEMB     122      PVCL2    C32      CTL1     0.170000       12.0110           0   0.00000     -0.301140E-02
     15072 MEMB     122      PVCL2    H32J     HAL1     0.900000E-01   1.00800           0   0.00000     -0.301140E-02
     15073 MEMB     122      PVCL2    O32      OSL     -0.490000       15.9994           0   0.00000     -0.301140E-02
     15074 MEMB     122      PVCL2    CC1      CL       0.900000       12.0110           0   0.00000     -0.301140E-02
     15075 MEMB     122      PVCL2    OC1      OBL     -0.630000       15.9994           0   0.00000     -0.301140E-02
     15076 MEMB     122      PVCL2    CC2      CTL2    -0.220000       12.0110           0   0.00000     -0.301140E-02
     15077 MEMB     122      PVCL2    H2R      HAL2     0.900000E-01   1.00800           0   0.00000     -0.301140E-02
     15078 MEMB     122      PVCL2    H2S      HAL2     0.900000E-01   1.00800           0   0.00000     -0.301140E-02
     15079 MEMB     122      PVCL2    C33      CTL2     0.800000E-01   12.0110           0   0.00000     -0.301140E-02
     15080 MEMB     122      PVCL2    H33J     HAL2     0.900000E-01   1.00800           0   0.00000     -0.301140E-02
     15081 MEMB     122      PVCL2    H33K     HAL2     0.900000E-01   1.00800           0   0.00000     -0.301140E-02
     15082 MEMB     122      PVCL2    O33      OSL     -0.490000       15.9994           0   0.00000     -0.301140E-02
     15083 MEMB     122      PVCL2    CD1      CL       0.900000       12.0110           0   0.00000     -0.301140E-02
     15084 MEMB     122      PVCL2    OD1      OBL     -0.630000       15.9994           0   0.00000     -0.301140E-02
     15085 MEMB     122      PVCL2    CD2      CTL2    -0.220000       12.0110           0   0.00000     -0.301140E-02
     15086 MEMB     122      PVCL2    H2X      HAL2     0.900000E-01   1.00800           0   0.00000     -0.301140E-02
     15087 MEMB     122      PVCL2    H2Y      HAL2     0.900000E-01   1.00800           0   0.00000     -0.301140E-02
     15088 MEMB     122      PVCL2    CA3      CTL2    -0.180000       12.0110           0   0.00000     -0.301140E-02
     15089 MEMB     122      PVCL2    H3A      HAL2     0.900000E-01   1.00800           0   0.00000     -0.301140E-02
     15090 MEMB     122      PVCL2    H3B      HAL2     0.900000E-01   1.00800           0   0.00000     -0.301140E-02
     15091 MEMB     122      PVCL2    CA4      CTL2    -0.180000       12.0110           0   0.00000     -0.301140E-02
     15092 MEMB     122      PVCL2    H4A      HAL2     0.900000E-01   1.00800           0   0.00000     -0.301140E-02
     15093 MEMB     122      PVCL2    H4B      HAL2     0.900000E-01   1.00800           0   0.00000     -0.301140E-02
     15094 MEMB     122      PVCL2    CA5      CTL2    -0.180000       12.0110           0   0.00000     -0.301140E-02
     15095 MEMB     122      PVCL2    H5A      HAL2     0.900000E-01   1.00800           0   0.00000     -0.301140E-02
     15096 MEMB     122      PVCL2    H5B      HAL2     0.900000E-01   1.00800           0   0.00000     -0.301140E-02
     15097 MEMB     122      PVCL2    CA6      CTL2    -0.180000       12.0110           0   0.00000     -0.301140E-02
     15098 MEMB     122      PVCL2    H6A      HAL2     0.900000E-01   1.00800           0   0.00000     -0.301140E-02
     15099 MEMB     122      PVCL2    H6B      HAL2     0.900000E-01   1.00800           0   0.00000     -0.301140E-02
     15100 MEMB     122      PVCL2    CA7      CTL2    -0.180000       12.0110           0   0.00000     -0.301140E-02
     15101 MEMB     122      PVCL2    H7A      HAL2     0.900000E-01   1.00800           0   0.00000     -0.301140E-02
     15102 MEMB     122      PVCL2    H7B      HAL2     0.900000E-01   1.00800           0   0.00000     -0.301140E-02
     15103 MEMB     122      PVCL2    CA8      CTL2    -0.180000       12.0110           0   0.00000     -0.301140E-02
     15104 MEMB     122      PVCL2    H8A      HAL2     0.900000E-01   1.00800           0   0.00000     -0.301140E-02
     15105 MEMB     122      PVCL2    H8B      HAL2     0.900000E-01   1.00800           0   0.00000     -0.301140E-02
     15106 MEMB     122      PVCL2    CA9      CTL2    -0.180000       12.0110           0   0.00000     -0.301140E-02
     15107 MEMB     122      PVCL2    H9A      HAL2     0.900000E-01   1.00800           0   0.00000     -0.301140E-02
     15108 MEMB     122      PVCL2    H9B      HAL2     0.900000E-01   1.00800           0   0.00000     -0.301140E-02
     15109 MEMB     122      PVCL2    CA10     CTL2    -0.180000       12.0110           0   0.00000     -0.301140E-02
     15110 MEMB     122      PVCL2    H10A     HAL2     0.900000E-01   1.00800           0   0.00000     -0.301140E-02
     15111 MEMB     122      PVCL2    H10B     HAL2     0.900000E-01   1.00800           0   0.00000     -0.301140E-02
     15112 MEMB     122      PVCL2    CA11     CEL1    -0.150000       12.0110           0   0.00000     -0.301140E-02
     15113 MEMB     122      PVCL2    H11A     HEL1     0.150000       1.00800           0   0.00000     -0.301140E-02
     15114 MEMB     122      PVCL2    CA12     CEL1    -0.150000       12.0110           0   0.00000     -0.301140E-02
     15115 MEMB     122      PVCL2    H12A     HEL1     0.150000       1.00800           0   0.00000     -0.301140E-02
     15116 MEMB     122      PVCL2    CA13     CTL2    -0.180000       12.0110           0   0.00000     -0.301140E-02
     15117 MEMB     122      PVCL2    H13A     HAL2     0.900000E-01   1.00800           0   0.00000     -0.301140E-02
     15118 MEMB     122      PVCL2    H13B     HAL2     0.900000E-01   1.00800           0   0.00000     -0.301140E-02
     15119 MEMB     122      PVCL2    CA14     CTL2    -0.180000       12.0110           0   0.00000     -0.301140E-02
     15120 MEMB     122      PVCL2    H14A     HAL2     0.900000E-01   1.00800           0   0.00000     -0.301140E-02
     15121 MEMB     122      PVCL2    H14B     HAL2     0.900000E-01   1.00800           0   0.00000     -0.301140E-02
     15122 MEMB     122      PVCL2    CA15     CTL2    -0.180000       12.0110           0   0.00000     -0.301140E-02
     15123 MEMB     122      PVCL2    H15A     HAL2     0.900000E-01   1.00800           0   0.00000     -0.301140E-02
     15124 MEMB     122      PVCL2    H15B     HAL2     0.900000E-01   1.00800           0   0.00000     -0.301140E-02
     15125 MEMB     122      PVCL2    CA16     CTL2    -0.180000       12.0110           0   0.00000     -0.301140E-02
     15126 MEMB     122      PVCL2    H16A     HAL2     0.900000E-01   1.00800           0   0.00000     -0.301140E-02
     15127 MEMB     122      PVCL2    H16B     HAL2     0.900000E-01   1.00800           0   0.00000     -0.301140E-02
     15128 MEMB     122      PVCL2    CA17     CTL2    -0.180000       12.0110           0   0.00000     -0.301140E-02
     15129 MEMB     122      PVCL2    H17A     HAL2     0.900000E-01   1.00800           0   0.00000     -0.301140E-02
     15130 MEMB     122      PVCL2    H17B     HAL2     0.900000E-01   1.00800           0   0.00000     -0.301140E-02
     15131 MEMB     122      PVCL2    CA18     CTL3    -0.270000       12.0110           0   0.00000     -0.301140E-02
     15132 MEMB     122      PVCL2    H18A     HAL3     0.900000E-01   1.00800           0   0.00000     -0.301140E-02
     15133 MEMB     122      PVCL2    H18B     HAL3     0.900000E-01   1.00800           0   0.00000     -0.301140E-02
     15134 MEMB     122      PVCL2    H18C     HAL3     0.900000E-01   1.00800           0   0.00000     -0.301140E-02
     15135 MEMB     122      PVCL2    CB3      CTL2    -0.180000       12.0110           0   0.00000     -0.301140E-02
     15136 MEMB     122      PVCL2    H3D      HAL2     0.900000E-01   1.00800           0   0.00000     -0.301140E-02
     15137 MEMB     122      PVCL2    H3E      HAL2     0.900000E-01   1.00800           0   0.00000     -0.301140E-02
     15138 MEMB     122      PVCL2    CB4      CTL2    -0.180000       12.0110           0   0.00000     -0.301140E-02
     15139 MEMB     122      PVCL2    H4D      HAL2     0.900000E-01   1.00800           0   0.00000     -0.301140E-02
     15140 MEMB     122      PVCL2    H4E      HAL2     0.900000E-01   1.00800           0   0.00000     -0.301140E-02
     15141 MEMB     122      PVCL2    CB5      CTL2    -0.180000       12.0110           0   0.00000     -0.301140E-02
     15142 MEMB     122      PVCL2    H5D      HAL2     0.900000E-01   1.00800           0   0.00000     -0.301140E-02
     15143 MEMB     122      PVCL2    H5E      HAL2     0.900000E-01   1.00800           0   0.00000     -0.301140E-02
     15144 MEMB     122      PVCL2    CB6      CTL2    -0.180000       12.0110           0   0.00000     -0.301140E-02
     15145 MEMB     122      PVCL2    H6D      HAL2     0.900000E-01   1.00800           0   0.00000     -0.301140E-02
     15146 MEMB     122      PVCL2    H6E      HAL2     0.900000E-01   1.00800           0   0.00000     -0.301140E-02
     15147 MEMB     122      PVCL2    CB7      CTL2    -0.180000       12.0110           0   0.00000     -0.301140E-02
     15148 MEMB     122      PVCL2    H7D      HAL2     0.900000E-01   1.00800           0   0.00000     -0.301140E-02
     15149 MEMB     122      PVCL2    H7E      HAL2     0.900000E-01   1.00800           0   0.00000     -0.301140E-02
     15150 MEMB     122      PVCL2    CB8      CTL2    -0.180000       12.0110           0   0.00000     -0.301140E-02
     15151 MEMB     122      PVCL2    H8D      HAL2     0.900000E-01   1.00800           0   0.00000     -0.301140E-02
     15152 MEMB     122      PVCL2    H8E      HAL2     0.900000E-01   1.00800           0   0.00000     -0.301140E-02
     15153 MEMB     122      PVCL2    CB9      CTL2    -0.180000       12.0110           0   0.00000     -0.301140E-02
     15154 MEMB     122      PVCL2    H9D      HAL2     0.900000E-01   1.00800           0   0.00000     -0.301140E-02
     15155 MEMB     122      PVCL2    H9E      HAL2     0.900000E-01   1.00800           0   0.00000     -0.301140E-02
     15156 MEMB     122      PVCL2    CB10     CTL2    -0.180000       12.0110           0   0.00000     -0.301140E-02
     15157 MEMB     122      PVCL2    H10D     HAL2     0.900000E-01   1.00800           0   0.00000     -0.301140E-02
     15158 MEMB     122      PVCL2    H10E     HAL2     0.900000E-01   1.00800           0   0.00000     -0.301140E-02
     15159 MEMB     122      PVCL2    CB11     CTL2    -0.180000       12.0110           0   0.00000     -0.301140E-02
     15160 MEMB     122      PVCL2    H11D     HAL2     0.900000E-01   1.00800           0   0.00000     -0.301140E-02
     15161 MEMB     122      PVCL2    H11E     HAL2     0.900000E-01   1.00800           0   0.00000     -0.301140E-02
     15162 MEMB     122      PVCL2    CB12     CTL2    -0.180000       12.0110           0   0.00000     -0.301140E-02
     15163 MEMB     122      PVCL2    H12D     HAL2     0.900000E-01   1.00800           0   0.00000     -0.301140E-02
     15164 MEMB     122      PVCL2    H12E     HAL2     0.900000E-01   1.00800           0   0.00000     -0.301140E-02
     15165 MEMB     122      PVCL2    CB13     CTL2    -0.180000       12.0110           0   0.00000     -0.301140E-02
     15166 MEMB     122      PVCL2    H13D     HAL2     0.900000E-01   1.00800           0   0.00000     -0.301140E-02
     15167 MEMB     122      PVCL2    H13E     HAL2     0.900000E-01   1.00800           0   0.00000     -0.301140E-02
     15168 MEMB     122      PVCL2    CB14     CTL2    -0.180000       12.0110           0   0.00000     -0.301140E-02
     15169 MEMB     122      PVCL2    H14D     HAL2     0.900000E-01   1.00800           0   0.00000     -0.301140E-02
     15170 MEMB     122      PVCL2    H14E     HAL2     0.900000E-01   1.00800           0   0.00000     -0.301140E-02
     15171 MEMB     122      PVCL2    CB15     CTL2    -0.180000       12.0110           0   0.00000     -0.301140E-02
     15172 MEMB     122      PVCL2    H15D     HAL2     0.900000E-01   1.00800           0   0.00000     -0.301140E-02
     15173 MEMB     122      PVCL2    H15E     HAL2     0.900000E-01   1.00800           0   0.00000     -0.301140E-02
     15174 MEMB     122      PVCL2    CB16     CTL3    -0.270000       12.0110           0   0.00000     -0.301140E-02
     15175 MEMB     122      PVCL2    H16D     HAL3     0.900000E-01   1.00800           0   0.00000     -0.301140E-02
     15176 MEMB     122      PVCL2    H16E     HAL3     0.900000E-01   1.00800           0   0.00000     -0.301140E-02
     15177 MEMB     122      PVCL2    H16F     HAL3     0.900000E-01   1.00800           0   0.00000     -0.301140E-02
     15178 MEMB     122      PVCL2    CC3      CTL2    -0.180000       12.0110           0   0.00000     -0.301140E-02
     15179 MEMB     122      PVCL2    H3R      HAL2     0.900000E-01   1.00800           0   0.00000     -0.301140E-02
     15180 MEMB     122      PVCL2    H3S      HAL2     0.900000E-01   1.00800           0   0.00000     -0.301140E-02
     15181 MEMB     122      PVCL2    CC4      CTL2    -0.180000       12.0110           0   0.00000     -0.301140E-02
     15182 MEMB     122      PVCL2    H4R      HAL2     0.900000E-01   1.00800           0   0.00000     -0.301140E-02
     15183 MEMB     122      PVCL2    H4S      HAL2     0.900000E-01   1.00800           0   0.00000     -0.301140E-02
     15184 MEMB     122      PVCL2    CC5      CTL2    -0.180000       12.0110           0   0.00000     -0.301140E-02
     15185 MEMB     122      PVCL2    H5R      HAL2     0.900000E-01   1.00800           0   0.00000     -0.301140E-02
     15186 MEMB     122      PVCL2    H5S      HAL2     0.900000E-01   1.00800           0   0.00000     -0.301140E-02
     15187 MEMB     122      PVCL2    CC6      CTL2    -0.180000       12.0110           0   0.00000     -0.301140E-02
     15188 MEMB     122      PVCL2    H6R      HAL2     0.900000E-01   1.00800           0   0.00000     -0.301140E-02
     15189 MEMB     122      PVCL2    H6S      HAL2     0.900000E-01   1.00800           0   0.00000     -0.301140E-02
     15190 MEMB     122      PVCL2    CC7      CTL2    -0.180000       12.0110           0   0.00000     -0.301140E-02
     15191 MEMB     122      PVCL2    H7R      HAL2     0.900000E-01   1.00800           0   0.00000     -0.301140E-02
     15192 MEMB     122      PVCL2    H7S      HAL2     0.900000E-01   1.00800           0   0.00000     -0.301140E-02
     15193 MEMB     122      PVCL2    CC8      CTL2    -0.180000       12.0110           0   0.00000     -0.301140E-02
     15194 MEMB     122      PVCL2    H8R      HAL2     0.900000E-01   1.00800           0   0.00000     -0.301140E-02
     15195 MEMB     122      PVCL2    H8S      HAL2     0.900000E-01   1.00800           0   0.00000     -0.301140E-02
     15196 MEMB     122      PVCL2    CC9      CTL2    -0.180000       12.0110           0   0.00000     -0.301140E-02
     15197 MEMB     122      PVCL2    H9R      HAL2     0.900000E-01   1.00800           0   0.00000     -0.301140E-02
     15198 MEMB     122      PVCL2    H9S      HAL2     0.900000E-01   1.00800           0   0.00000     -0.301140E-02
     15199 MEMB     122      PVCL2    CC10     CTL2    -0.180000       12.0110           0   0.00000     -0.301140E-02
     15200 MEMB     122      PVCL2    H10R     HAL2     0.900000E-01   1.00800           0   0.00000     -0.301140E-02
     15201 MEMB     122      PVCL2    H10S     HAL2     0.900000E-01   1.00800           0   0.00000     -0.301140E-02
     15202 MEMB     122      PVCL2    CC11     CEL1    -0.150000       12.0110           0   0.00000     -0.301140E-02
     15203 MEMB     122      PVCL2    H11R     HEL1     0.150000       1.00800           0   0.00000     -0.301140E-02
     15204 MEMB     122      PVCL2    CC12     CEL1    -0.150000       12.0110           0   0.00000     -0.301140E-02
     15205 MEMB     122      PVCL2    H12R     HEL1     0.150000       1.00800           0   0.00000     -0.301140E-02
     15206 MEMB     122      PVCL2    CC13     CTL2    -0.180000       12.0110           0   0.00000     -0.301140E-02
     15207 MEMB     122      PVCL2    H13R     HAL2     0.900000E-01   1.00800           0   0.00000     -0.301140E-02
     15208 MEMB     122      PVCL2    H13S     HAL2     0.900000E-01   1.00800           0   0.00000     -0.301140E-02
     15209 MEMB     122      PVCL2    CC14     CTL2    -0.180000       12.0110           0   0.00000     -0.301140E-02
     15210 MEMB     122      PVCL2    H14R     HAL2     0.900000E-01   1.00800           0   0.00000     -0.301140E-02
     15211 MEMB     122      PVCL2    H14S     HAL2     0.900000E-01   1.00800           0   0.00000     -0.301140E-02
     15212 MEMB     122      PVCL2    CC15     CTL2    -0.180000       12.0110           0   0.00000     -0.301140E-02
     15213 MEMB     122      PVCL2    H15R     HAL2     0.900000E-01   1.00800           0   0.00000     -0.301140E-02
     15214 MEMB     122      PVCL2    H15S     HAL2     0.900000E-01   1.00800           0   0.00000     -0.301140E-02
     15215 MEMB     122      PVCL2    CC16     CTL2    -0.180000       12.0110           0   0.00000     -0.301140E-02
     15216 MEMB     122      PVCL2    H16R     HAL2     0.900000E-01   1.00800           0   0.00000     -0.301140E-02
     15217 MEMB     122      PVCL2    H16S     HAL2     0.900000E-01   1.00800           0   0.00000     -0.301140E-02
     15218 MEMB     122      PVCL2    CC17     CTL2    -0.180000       12.0110           0   0.00000     -0.301140E-02
     15219 MEMB     122      PVCL2    H17R     HAL2     0.900000E-01   1.00800           0   0.00000     -0.301140E-02
     15220 MEMB     122      PVCL2    H17S     HAL2     0.900000E-01   1.00800           0   0.00000     -0.301140E-02
     15221 MEMB     122      PVCL2    CC18     CTL3    -0.270000       12.0110           0   0.00000     -0.301140E-02
     15222 MEMB     122      PVCL2    H18R     HAL3     0.900000E-01   1.00800           0   0.00000     -0.301140E-02
     15223 MEMB     122      PVCL2    H18S     HAL3     0.900000E-01   1.00800           0   0.00000     -0.301140E-02
     15224 MEMB     122      PVCL2    H18T     HAL3     0.900000E-01   1.00800           0   0.00000     -0.301140E-02
     15225 MEMB     122      PVCL2    CD3      CTL2    -0.180000       12.0110           0   0.00000     -0.301140E-02
     15226 MEMB     122      PVCL2    H3X      HAL2     0.900000E-01   1.00800           0   0.00000     -0.301140E-02
     15227 MEMB     122      PVCL2    H3Y      HAL2     0.900000E-01   1.00800           0   0.00000     -0.301140E-02
     15228 MEMB     122      PVCL2    CD4      CTL2    -0.180000       12.0110           0   0.00000     -0.301140E-02
     15229 MEMB     122      PVCL2    H4X      HAL2     0.900000E-01   1.00800           0   0.00000     -0.301140E-02
     15230 MEMB     122      PVCL2    H4Y      HAL2     0.900000E-01   1.00800           0   0.00000     -0.301140E-02
     15231 MEMB     122      PVCL2    CD5      CTL2    -0.180000       12.0110           0   0.00000     -0.301140E-02
     15232 MEMB     122      PVCL2    H5X      HAL2     0.900000E-01   1.00800           0   0.00000     -0.301140E-02
     15233 MEMB     122      PVCL2    H5Y      HAL2     0.900000E-01   1.00800           0   0.00000     -0.301140E-02
     15234 MEMB     122      PVCL2    CD6      CTL2    -0.180000       12.0110           0   0.00000     -0.301140E-02
     15235 MEMB     122      PVCL2    H6X      HAL2     0.900000E-01   1.00800           0   0.00000     -0.301140E-02
     15236 MEMB     122      PVCL2    H6Y      HAL2     0.900000E-01   1.00800           0   0.00000     -0.301140E-02
     15237 MEMB     122      PVCL2    CD7      CTL2    -0.180000       12.0110           0   0.00000     -0.301140E-02
     15238 MEMB     122      PVCL2    H7X      HAL2     0.900000E-01   1.00800           0   0.00000     -0.301140E-02
     15239 MEMB     122      PVCL2    H7Y      HAL2     0.900000E-01   1.00800           0   0.00000     -0.301140E-02
     15240 MEMB     122      PVCL2    CD8      CTL2    -0.180000       12.0110           0   0.00000     -0.301140E-02
     15241 MEMB     122      PVCL2    H8X      HAL2     0.900000E-01   1.00800           0   0.00000     -0.301140E-02
     15242 MEMB     122      PVCL2    H8Y      HAL2     0.900000E-01   1.00800           0   0.00000     -0.301140E-02
     15243 MEMB     122      PVCL2    CD9      CTL2    -0.180000       12.0110           0   0.00000     -0.301140E-02
     15244 MEMB     122      PVCL2    H9X      HAL2     0.900000E-01   1.00800           0   0.00000     -0.301140E-02
     15245 MEMB     122      PVCL2    H9Y      HAL2     0.900000E-01   1.00800           0   0.00000     -0.301140E-02
     15246 MEMB     122      PVCL2    CD10     CTL2    -0.180000       12.0110           0   0.00000     -0.301140E-02
     15247 MEMB     122      PVCL2    H10X     HAL2     0.900000E-01   1.00800           0   0.00000     -0.301140E-02
     15248 MEMB     122      PVCL2    H10Y     HAL2     0.900000E-01   1.00800           0   0.00000     -0.301140E-02
     15249 MEMB     122      PVCL2    CD11     CTL2    -0.180000       12.0110           0   0.00000     -0.301140E-02
     15250 MEMB     122      PVCL2    H11X     HAL2     0.900000E-01   1.00800           0   0.00000     -0.301140E-02
     15251 MEMB     122      PVCL2    H11Y     HAL2     0.900000E-01   1.00800           0   0.00000     -0.301140E-02
     15252 MEMB     122      PVCL2    CD12     CTL2    -0.180000       12.0110           0   0.00000     -0.301140E-02
     15253 MEMB     122      PVCL2    H12X     HAL2     0.900000E-01   1.00800           0   0.00000     -0.301140E-02
     15254 MEMB     122      PVCL2    H12Y     HAL2     0.900000E-01   1.00800           0   0.00000     -0.301140E-02
     15255 MEMB     122      PVCL2    CD13     CTL2    -0.180000       12.0110           0   0.00000     -0.301140E-02
     15256 MEMB     122      PVCL2    H13X     HAL2     0.900000E-01   1.00800           0   0.00000     -0.301140E-02
     15257 MEMB     122      PVCL2    H13Y     HAL2     0.900000E-01   1.00800           0   0.00000     -0.301140E-02
     15258 MEMB     122      PVCL2    CD14     CTL2    -0.180000       12.0110           0   0.00000     -0.301140E-02
     15259 MEMB     122      PVCL2    H14X     HAL2     0.900000E-01   1.00800           0   0.00000     -0.301140E-02
     15260 MEMB     122      PVCL2    H14Y     HAL2     0.900000E-01   1.00800           0   0.00000     -0.301140E-02
     15261 MEMB     122      PVCL2    CD15     CTL2    -0.180000       12.0110           0   0.00000     -0.301140E-02
     15262 MEMB     122      PVCL2    H15X     HAL2     0.900000E-01   1.00800           0   0.00000     -0.301140E-02
     15263 MEMB     122      PVCL2    H15Y     HAL2     0.900000E-01   1.00800           0   0.00000     -0.301140E-02
     15264 MEMB     122      PVCL2    CD16     CTL3    -0.270000       12.0110           0   0.00000     -0.301140E-02
     15265 MEMB     122      PVCL2    H16X     HAL3     0.900000E-01   1.00800           0   0.00000     -0.301140E-02
     15266 MEMB     122      PVCL2    H16Y     HAL3     0.900000E-01   1.00800           0   0.00000     -0.301140E-02
     15267 MEMB     122      PVCL2    H16Z     HAL3     0.900000E-01   1.00800           0   0.00000     -0.301140E-02
     15268 MEMB     123      PMPE     N        NH3L    -0.300000       14.0070           0   0.00000     -0.301140E-02
     15269 MEMB     123      PMPE     HN1      HCL      0.330000       1.00800           0   0.00000     -0.301140E-02
     15270 MEMB     123      PMPE     HN2      HCL      0.330000       1.00800           0   0.00000     -0.301140E-02
     15271 MEMB     123      PMPE     HN3      HCL      0.330000       1.00800           0   0.00000     -0.301140E-02
     15272 MEMB     123      PMPE     C12      CTL2     0.130000       12.0110           0   0.00000     -0.301140E-02
     15273 MEMB     123      PMPE     H12A     HAL2     0.900000E-01   1.00800           0   0.00000     -0.301140E-02
     15274 MEMB     123      PMPE     H12B     HAL2     0.900000E-01   1.00800           0   0.00000     -0.301140E-02
     15275 MEMB     123      PMPE     C11      CTL2    -0.800000E-01   12.0110           0   0.00000     -0.301140E-02
     15276 MEMB     123      PMPE     H11A     HAL2     0.900000E-01   1.00800           0   0.00000     -0.301140E-02
     15277 MEMB     123      PMPE     H11B     HAL2     0.900000E-01   1.00800           0   0.00000     -0.301140E-02
     15278 MEMB     123      PMPE     P        PL        1.50000       30.9740           0   0.00000     -0.301140E-02
     15279 MEMB     123      PMPE     O13      O2L     -0.780000       15.9994           0   0.00000     -0.301140E-02
     15280 MEMB     123      PMPE     O14      O2L     -0.780000       15.9994           0   0.00000     -0.301140E-02
     15281 MEMB     123      PMPE     O11      OSLP    -0.570000       15.9994           0   0.00000     -0.301140E-02
     15282 MEMB     123      PMPE     O12      OSLP    -0.570000       15.9994           0   0.00000     -0.301140E-02
     15283 MEMB     123      PMPE     C1       CTL2    -0.800000E-01   12.0110           0   0.00000     -0.301140E-02
     15284 MEMB     123      PMPE     HA       HAL2     0.900000E-01   1.00800           0   0.00000     -0.301140E-02
     15285 MEMB     123      PMPE     HB       HAL2     0.900000E-01   1.00800           0   0.00000     -0.301140E-02
     15286 MEMB     123      PMPE     C2       CTL1     0.170000       12.0110           0   0.00000     -0.301140E-02
     15287 MEMB     123      PMPE     HS       HAL1     0.900000E-01   1.00800           0   0.00000     -0.301140E-02
     15288 MEMB     123      PMPE     O21      OSL     -0.490000       15.9994           0   0.00000     -0.301140E-02
     15289 MEMB     123      PMPE     C21      CL       0.900000       12.0110           0   0.00000     -0.301140E-02
     15290 MEMB     123      PMPE     O22      OBL     -0.630000       15.9994           0   0.00000     -0.301140E-02
     15291 MEMB     123      PMPE     C22      CTL2    -0.220000       12.0110           0   0.00000     -0.301140E-02
     15292 MEMB     123      PMPE     H2R      HAL2     0.900000E-01   1.00800           0   0.00000     -0.301140E-02
     15293 MEMB     123      PMPE     H2S      HAL2     0.900000E-01   1.00800           0   0.00000     -0.301140E-02
     15294 MEMB     123      PMPE     C3       CTL2     0.800000E-01   12.0110           0   0.00000     -0.301140E-02
     15295 MEMB     123      PMPE     HX       HAL2     0.900000E-01   1.00800           0   0.00000     -0.301140E-02
     15296 MEMB     123      PMPE     HY       HAL2     0.900000E-01   1.00800           0   0.00000     -0.301140E-02
     15297 MEMB     123      PMPE     O31      OSL     -0.490000       15.9994           0   0.00000     -0.301140E-02
     15298 MEMB     123      PMPE     C31      CL       0.900000       12.0110           0   0.00000     -0.301140E-02
     15299 MEMB     123      PMPE     O32      OBL     -0.630000       15.9994           0   0.00000     -0.301140E-02
     15300 MEMB     123      PMPE     C32      CTL2    -0.220000       12.0110           0   0.00000     -0.301140E-02
     15301 MEMB     123      PMPE     H2X      HAL2     0.900000E-01   1.00800           0   0.00000     -0.301140E-02
     15302 MEMB     123      PMPE     H2Y      HAL2     0.900000E-01   1.00800           0   0.00000     -0.301140E-02
     15303 MEMB     123      PMPE     C23      CTL2    -0.180000       12.0110           0   0.00000     -0.301140E-02
     15304 MEMB     123      PMPE     H3R      HAL2     0.900000E-01   1.00800           0   0.00000     -0.301140E-02
     15305 MEMB     123      PMPE     H3S      HAL2     0.900000E-01   1.00800           0   0.00000     -0.301140E-02
     15306 MEMB     123      PMPE     C24      CTL2    -0.180000       12.0110           0   0.00000     -0.301140E-02
     15307 MEMB     123      PMPE     H4R      HAL2     0.900000E-01   1.00800           0   0.00000     -0.301140E-02
     15308 MEMB     123      PMPE     H4S      HAL2     0.900000E-01   1.00800           0   0.00000     -0.301140E-02
     15309 MEMB     123      PMPE     C25      CTL2    -0.180000       12.0110           0   0.00000     -0.301140E-02
     15310 MEMB     123      PMPE     H5R      HAL2     0.900000E-01   1.00800           0   0.00000     -0.301140E-02
     15311 MEMB     123      PMPE     H5S      HAL2     0.900000E-01   1.00800           0   0.00000     -0.301140E-02
     15312 MEMB     123      PMPE     C26      CTL2    -0.180000       12.0110           0   0.00000     -0.301140E-02
     15313 MEMB     123      PMPE     H6R      HAL2     0.900000E-01   1.00800           0   0.00000     -0.301140E-02
     15314 MEMB     123      PMPE     H6S      HAL2     0.900000E-01   1.00800           0   0.00000     -0.301140E-02
     15315 MEMB     123      PMPE     C27      CTL2    -0.180000       12.0110           0   0.00000     -0.301140E-02
     15316 MEMB     123      PMPE     H7R      HAL2     0.900000E-01   1.00800           0   0.00000     -0.301140E-02
     15317 MEMB     123      PMPE     H7S      HAL2     0.900000E-01   1.00800           0   0.00000     -0.301140E-02
     15318 MEMB     123      PMPE     C28      CTL2    -0.180000       12.0110           0   0.00000     -0.301140E-02
     15319 MEMB     123      PMPE     H8R      HAL2     0.900000E-01   1.00800           0   0.00000     -0.301140E-02
     15320 MEMB     123      PMPE     H8S      HAL2     0.900000E-01   1.00800           0   0.00000     -0.301140E-02
     15321 MEMB     123      PMPE     C29      CG3RC1  -0.900000E-01   12.0110           0   0.00000     -0.301140E-02
     15322 MEMB     123      PMPE     H9R      HGA1     0.900000E-01   1.00800           0   0.00000     -0.301140E-02
     15323 MEMB     123      PMPE     C217     CG3C31  -0.180000       12.0110           0   0.00000     -0.301140E-02
     15324 MEMB     123      PMPE     H17R     HGA2     0.900000E-01   1.00800           0   0.00000     -0.301140E-02
     15325 MEMB     123      PMPE     H17S     HGA2     0.900000E-01   1.00800           0   0.00000     -0.301140E-02
     15326 MEMB     123      PMPE     C210     CG3RC1  -0.900000E-01   12.0110           0   0.00000     -0.301140E-02
     15327 MEMB     123      PMPE     H10R     HGA1     0.900000E-01   1.00800           0   0.00000     -0.301140E-02
     15328 MEMB     123      PMPE     C211     CTL2    -0.180000       12.0110           0   0.00000     -0.301140E-02
     15329 MEMB     123      PMPE     H11R     HAL2     0.900000E-01   1.00800           0   0.00000     -0.301140E-02
     15330 MEMB     123      PMPE     H11S     HAL2     0.900000E-01   1.00800           0   0.00000     -0.301140E-02
     15331 MEMB     123      PMPE     C212     CTL2    -0.180000       12.0110           0   0.00000     -0.301140E-02
     15332 MEMB     123      PMPE     H12R     HAL2     0.900000E-01   1.00800           0   0.00000     -0.301140E-02
     15333 MEMB     123      PMPE     H12S     HAL2     0.900000E-01   1.00800           0   0.00000     -0.301140E-02
     15334 MEMB     123      PMPE     C213     CTL2    -0.180000       12.0110           0   0.00000     -0.301140E-02
     15335 MEMB     123      PMPE     H13R     HAL2     0.900000E-01   1.00800           0   0.00000     -0.301140E-02
     15336 MEMB     123      PMPE     H13S     HAL2     0.900000E-01   1.00800           0   0.00000     -0.301140E-02
     15337 MEMB     123      PMPE     C214     CTL2    -0.180000       12.0110           0   0.00000     -0.301140E-02
     15338 MEMB     123      PMPE     H14R     HAL2     0.900000E-01   1.00800           0   0.00000     -0.301140E-02
     15339 MEMB     123      PMPE     H14S     HAL2     0.900000E-01   1.00800           0   0.00000     -0.301140E-02
     15340 MEMB     123      PMPE     C215     CTL2    -0.180000       12.0110           0   0.00000     -0.301140E-02
     15341 MEMB     123      PMPE     H15R     HAL2     0.900000E-01   1.00800           0   0.00000     -0.301140E-02
     15342 MEMB     123      PMPE     H15S     HAL2     0.900000E-01   1.00800           0   0.00000     -0.301140E-02
     15343 MEMB     123      PMPE     C216     CTL3    -0.270000       12.0110           0   0.00000     -0.301140E-02
     15344 MEMB     123      PMPE     H16R     HAL3     0.900000E-01   1.00800           0   0.00000     -0.301140E-02
     15345 MEMB     123      PMPE     H16S     HAL3     0.900000E-01   1.00800           0   0.00000     -0.301140E-02
     15346 MEMB     123      PMPE     H16T     HAL3     0.900000E-01   1.00800           0   0.00000     -0.301140E-02
     15347 MEMB     123      PMPE     C33      CTL2    -0.180000       12.0110           0   0.00000     -0.301140E-02
     15348 MEMB     123      PMPE     H3X      HAL2     0.900000E-01   1.00800           0   0.00000     -0.301140E-02
     15349 MEMB     123      PMPE     H3Y      HAL2     0.900000E-01   1.00800           0   0.00000     -0.301140E-02
     15350 MEMB     123      PMPE     C34      CTL2    -0.180000       12.0110           0   0.00000     -0.301140E-02
     15351 MEMB     123      PMPE     H4X      HAL2     0.900000E-01   1.00800           0   0.00000     -0.301140E-02
     15352 MEMB     123      PMPE     H4Y      HAL2     0.900000E-01   1.00800           0   0.00000     -0.301140E-02
     15353 MEMB     123      PMPE     C35      CTL2    -0.180000       12.0110           0   0.00000     -0.301140E-02
     15354 MEMB     123      PMPE     H5X      HAL2     0.900000E-01   1.00800           0   0.00000     -0.301140E-02
     15355 MEMB     123      PMPE     H5Y      HAL2     0.900000E-01   1.00800           0   0.00000     -0.301140E-02
     15356 MEMB     123      PMPE     C36      CTL2    -0.180000       12.0110           0   0.00000     -0.301140E-02
     15357 MEMB     123      PMPE     H6X      HAL2     0.900000E-01   1.00800           0   0.00000     -0.301140E-02
     15358 MEMB     123      PMPE     H6Y      HAL2     0.900000E-01   1.00800           0   0.00000     -0.301140E-02
     15359 MEMB     123      PMPE     C37      CTL2    -0.180000       12.0110           0   0.00000     -0.301140E-02
     15360 MEMB     123      PMPE     H7X      HAL2     0.900000E-01   1.00800           0   0.00000     -0.301140E-02
     15361 MEMB     123      PMPE     H7Y      HAL2     0.900000E-01   1.00800           0   0.00000     -0.301140E-02
     15362 MEMB     123      PMPE     C38      CTL2    -0.180000       12.0110           0   0.00000     -0.301140E-02
     15363 MEMB     123      PMPE     H8X      HAL2     0.900000E-01   1.00800           0   0.00000     -0.301140E-02
     15364 MEMB     123      PMPE     H8Y      HAL2     0.900000E-01   1.00800           0   0.00000     -0.301140E-02
     15365 MEMB     123      PMPE     C39      CTL2    -0.180000       12.0110           0   0.00000     -0.301140E-02
     15366 MEMB     123      PMPE     H9X      HAL2     0.900000E-01   1.00800           0   0.00000     -0.301140E-02
     15367 MEMB     123      PMPE     H9Y      HAL2     0.900000E-01   1.00800           0   0.00000     -0.301140E-02
     15368 MEMB     123      PMPE     C310     CTL2    -0.180000       12.0110           0   0.00000     -0.301140E-02
     15369 MEMB     123      PMPE     H10X     HAL2     0.900000E-01   1.00800           0   0.00000     -0.301140E-02
     15370 MEMB     123      PMPE     H10Y     HAL2     0.900000E-01   1.00800           0   0.00000     -0.301140E-02
     15371 MEMB     123      PMPE     C311     CTL2    -0.180000       12.0110           0   0.00000     -0.301140E-02
     15372 MEMB     123      PMPE     H11X     HAL2     0.900000E-01   1.00800           0   0.00000     -0.301140E-02
     15373 MEMB     123      PMPE     H11Y     HAL2     0.900000E-01   1.00800           0   0.00000     -0.301140E-02
     15374 MEMB     123      PMPE     C312     CTL2    -0.180000       12.0110           0   0.00000     -0.301140E-02
     15375 MEMB     123      PMPE     H12X     HAL2     0.900000E-01   1.00800           0   0.00000     -0.301140E-02
     15376 MEMB     123      PMPE     H12Y     HAL2     0.900000E-01   1.00800           0   0.00000     -0.301140E-02
     15377 MEMB     123      PMPE     C313     CTL2    -0.180000       12.0110           0   0.00000     -0.301140E-02
     15378 MEMB     123      PMPE     H13X     HAL2     0.900000E-01   1.00800           0   0.00000     -0.301140E-02
     15379 MEMB     123      PMPE     H13Y     HAL2     0.900000E-01   1.00800           0   0.00000     -0.301140E-02
     15380 MEMB     123      PMPE     C314     CTL2    -0.180000       12.0110           0   0.00000     -0.301140E-02
     15381 MEMB     123      PMPE     H14X     HAL2     0.900000E-01   1.00800           0   0.00000     -0.301140E-02
     15382 MEMB     123      PMPE     H14Y     HAL2     0.900000E-01   1.00800           0   0.00000     -0.301140E-02
     15383 MEMB     123      PMPE     C315     CTL2    -0.180000       12.0110           0   0.00000     -0.301140E-02
     15384 MEMB     123      PMPE     H15X     HAL2     0.900000E-01   1.00800           0   0.00000     -0.301140E-02
     15385 MEMB     123      PMPE     H15Y     HAL2     0.900000E-01   1.00800           0   0.00000     -0.301140E-02
     15386 MEMB     123      PMPE     C316     CTL3    -0.270000       12.0110           0   0.00000     -0.301140E-02
     15387 MEMB     123      PMPE     H16X     HAL3     0.900000E-01   1.00800           0   0.00000     -0.301140E-02
     15388 MEMB     123      PMPE     H16Y     HAL3     0.900000E-01   1.00800           0   0.00000     -0.301140E-02
     15389 MEMB     123      PMPE     H16Z     HAL3     0.900000E-01   1.00800           0   0.00000     -0.301140E-02
     15390 MEMB     124      OYPE     N        NH3L    -0.300000       14.0070           0   0.00000     -0.301140E-02
     15391 MEMB     124      OYPE     HN1      HCL      0.330000       1.00800           0   0.00000     -0.301140E-02
     15392 MEMB     124      OYPE     HN2      HCL      0.330000       1.00800           0   0.00000     -0.301140E-02
     15393 MEMB     124      OYPE     HN3      HCL      0.330000       1.00800           0   0.00000     -0.301140E-02
     15394 MEMB     124      OYPE     C12      CTL2     0.130000       12.0110           0   0.00000     -0.301140E-02
     15395 MEMB     124      OYPE     H12A     HAL2     0.900000E-01   1.00800           0   0.00000     -0.301140E-02
     15396 MEMB     124      OYPE     H12B     HAL2     0.900000E-01   1.00800           0   0.00000     -0.301140E-02
     15397 MEMB     124      OYPE     C11      CTL2    -0.800000E-01   12.0110           0   0.00000     -0.301140E-02
     15398 MEMB     124      OYPE     H11A     HAL2     0.900000E-01   1.00800           0   0.00000     -0.301140E-02
     15399 MEMB     124      OYPE     H11B     HAL2     0.900000E-01   1.00800           0   0.00000     -0.301140E-02
     15400 MEMB     124      OYPE     P        PL        1.50000       30.9740           0   0.00000     -0.301140E-02
     15401 MEMB     124      OYPE     O13      O2L     -0.780000       15.9994           0   0.00000     -0.301140E-02
     15402 MEMB     124      OYPE     O14      O2L     -0.780000       15.9994           0   0.00000     -0.301140E-02
     15403 MEMB     124      OYPE     O11      OSLP    -0.570000       15.9994           0   0.00000     -0.301140E-02
     15404 MEMB     124      OYPE     O12      OSLP    -0.570000       15.9994           0   0.00000     -0.301140E-02
     15405 MEMB     124      OYPE     C1       CTL2    -0.800000E-01   12.0110           0   0.00000     -0.301140E-02
     15406 MEMB     124      OYPE     HA       HAL2     0.900000E-01   1.00800           0   0.00000     -0.301140E-02
     15407 MEMB     124      OYPE     HB       HAL2     0.900000E-01   1.00800           0   0.00000     -0.301140E-02
     15408 MEMB     124      OYPE     C2       CTL1     0.170000       12.0110           0   0.00000     -0.301140E-02
     15409 MEMB     124      OYPE     HS       HAL1     0.900000E-01   1.00800           0   0.00000     -0.301140E-02
     15410 MEMB     124      OYPE     O21      OSL     -0.490000       15.9994           0   0.00000     -0.301140E-02
     15411 MEMB     124      OYPE     C21      CL       0.900000       12.0110           0   0.00000     -0.301140E-02
     15412 MEMB     124      OYPE     O22      OBL     -0.630000       15.9994           0   0.00000     -0.301140E-02
     15413 MEMB     124      OYPE     C22      CTL2    -0.220000       12.0110           0   0.00000     -0.301140E-02
     15414 MEMB     124      OYPE     H2R      HAL2     0.900000E-01   1.00800           0   0.00000     -0.301140E-02
     15415 MEMB     124      OYPE     H2S      HAL2     0.900000E-01   1.00800           0   0.00000     -0.301140E-02
     15416 MEMB     124      OYPE     C3       CTL2     0.800000E-01   12.0110           0   0.00000     -0.301140E-02
     15417 MEMB     124      OYPE     HX       HAL2     0.900000E-01   1.00800           0   0.00000     -0.301140E-02
     15418 MEMB     124      OYPE     HY       HAL2     0.900000E-01   1.00800           0   0.00000     -0.301140E-02
     15419 MEMB     124      OYPE     O31      OSL     -0.490000       15.9994           0   0.00000     -0.301140E-02
     15420 MEMB     124      OYPE     C31      CL       0.900000       12.0110           0   0.00000     -0.301140E-02
     15421 MEMB     124      OYPE     O32      OBL     -0.630000       15.9994           0   0.00000     -0.301140E-02
     15422 MEMB     124      OYPE     C32      CTL2    -0.220000       12.0110           0   0.00000     -0.301140E-02
     15423 MEMB     124      OYPE     H2X      HAL2     0.900000E-01   1.00800           0   0.00000     -0.301140E-02
     15424 MEMB     124      OYPE     H2Y      HAL2     0.900000E-01   1.00800           0   0.00000     -0.301140E-02
     15425 MEMB     124      OYPE     C23      CTL2    -0.180000       12.0110           0   0.00000     -0.301140E-02
     15426 MEMB     124      OYPE     H3R      HAL2     0.900000E-01   1.00800           0   0.00000     -0.301140E-02
     15427 MEMB     124      OYPE     H3S      HAL2     0.900000E-01   1.00800           0   0.00000     -0.301140E-02
     15428 MEMB     124      OYPE     C24      CTL2    -0.180000       12.0110           0   0.00000     -0.301140E-02
     15429 MEMB     124      OYPE     H4R      HAL2     0.900000E-01   1.00800           0   0.00000     -0.301140E-02
     15430 MEMB     124      OYPE     H4S      HAL2     0.900000E-01   1.00800           0   0.00000     -0.301140E-02
     15431 MEMB     124      OYPE     C25      CTL2    -0.180000       12.0110           0   0.00000     -0.301140E-02
     15432 MEMB     124      OYPE     H5R      HAL2     0.900000E-01   1.00800           0   0.00000     -0.301140E-02
     15433 MEMB     124      OYPE     H5S      HAL2     0.900000E-01   1.00800           0   0.00000     -0.301140E-02
     15434 MEMB     124      OYPE     C26      CTL2    -0.180000       12.0110           0   0.00000     -0.301140E-02
     15435 MEMB     124      OYPE     H6R      HAL2     0.900000E-01   1.00800           0   0.00000     -0.301140E-02
     15436 MEMB     124      OYPE     H6S      HAL2     0.900000E-01   1.00800           0   0.00000     -0.301140E-02
     15437 MEMB     124      OYPE     C27      CTL2    -0.180000       12.0110           0   0.00000     -0.301140E-02
     15438 MEMB     124      OYPE     H7R      HAL2     0.900000E-01   1.00800           0   0.00000     -0.301140E-02
     15439 MEMB     124      OYPE     H7S      HAL2     0.900000E-01   1.00800           0   0.00000     -0.301140E-02
     15440 MEMB     124      OYPE     C28      CTL2    -0.180000       12.0110           0   0.00000     -0.301140E-02
     15441 MEMB     124      OYPE     H8R      HAL2     0.900000E-01   1.00800           0   0.00000     -0.301140E-02
     15442 MEMB     124      OYPE     H8S      HAL2     0.900000E-01   1.00800           0   0.00000     -0.301140E-02
     15443 MEMB     124      OYPE     C29      CEL1    -0.150000       12.0110           0   0.00000     -0.301140E-02
     15444 MEMB     124      OYPE     H9R      HEL1     0.150000       1.00800           0   0.00000     -0.301140E-02
     15445 MEMB     124      OYPE     C210     CEL1    -0.150000       12.0110           0   0.00000     -0.301140E-02
     15446 MEMB     124      OYPE     H10R     HEL1     0.150000       1.00800           0   0.00000     -0.301140E-02
     15447 MEMB     124      OYPE     C211     CTL2    -0.180000       12.0110           0   0.00000     -0.301140E-02
     15448 MEMB     124      OYPE     H11R     HAL2     0.900000E-01   1.00800           0   0.00000     -0.301140E-02
     15449 MEMB     124      OYPE     H11S     HAL2     0.900000E-01   1.00800           0   0.00000     -0.301140E-02
     15450 MEMB     124      OYPE     C212     CTL2    -0.180000       12.0110           0   0.00000     -0.301140E-02
     15451 MEMB     124      OYPE     H12R     HAL2     0.900000E-01   1.00800           0   0.00000     -0.301140E-02
     15452 MEMB     124      OYPE     H12S     HAL2     0.900000E-01   1.00800           0   0.00000     -0.301140E-02
     15453 MEMB     124      OYPE     C213     CTL2    -0.180000       12.0110           0   0.00000     -0.301140E-02
     15454 MEMB     124      OYPE     H13R     HAL2     0.900000E-01   1.00800           0   0.00000     -0.301140E-02
     15455 MEMB     124      OYPE     H13S     HAL2     0.900000E-01   1.00800           0   0.00000     -0.301140E-02
     15456 MEMB     124      OYPE     C214     CTL2    -0.180000       12.0110           0   0.00000     -0.301140E-02
     15457 MEMB     124      OYPE     H14R     HAL2     0.900000E-01   1.00800           0   0.00000     -0.301140E-02
     15458 MEMB     124      OYPE     H14S     HAL2     0.900000E-01   1.00800           0   0.00000     -0.301140E-02
     15459 MEMB     124      OYPE     C215     CTL2    -0.180000       12.0110           0   0.00000     -0.301140E-02
     15460 MEMB     124      OYPE     H15R     HAL2     0.900000E-01   1.00800           0   0.00000     -0.301140E-02
     15461 MEMB     124      OYPE     H15S     HAL2     0.900000E-01   1.00800           0   0.00000     -0.301140E-02
     15462 MEMB     124      OYPE     C216     CTL3    -0.270000       12.0110           0   0.00000     -0.301140E-02
     15463 MEMB     124      OYPE     H16R     HAL3     0.900000E-01   1.00800           0   0.00000     -0.301140E-02
     15464 MEMB     124      OYPE     H16S     HAL3     0.900000E-01   1.00800           0   0.00000     -0.301140E-02
     15465 MEMB     124      OYPE     H16T     HAL3     0.900000E-01   1.00800           0   0.00000     -0.301140E-02
     15466 MEMB     124      OYPE     C33      CTL2    -0.180000       12.0110           0   0.00000     -0.301140E-02
     15467 MEMB     124      OYPE     H3X      HAL2     0.900000E-01   1.00800           0   0.00000     -0.301140E-02
     15468 MEMB     124      OYPE     H3Y      HAL2     0.900000E-01   1.00800           0   0.00000     -0.301140E-02
     15469 MEMB     124      OYPE     C34      CTL2    -0.180000       12.0110           0   0.00000     -0.301140E-02
     15470 MEMB     124      OYPE     H4X      HAL2     0.900000E-01   1.00800           0   0.00000     -0.301140E-02
     15471 MEMB     124      OYPE     H4Y      HAL2     0.900000E-01   1.00800           0   0.00000     -0.301140E-02
     15472 MEMB     124      OYPE     C35      CTL2    -0.180000       12.0110           0   0.00000     -0.301140E-02
     15473 MEMB     124      OYPE     H5X      HAL2     0.900000E-01   1.00800           0   0.00000     -0.301140E-02
     15474 MEMB     124      OYPE     H5Y      HAL2     0.900000E-01   1.00800           0   0.00000     -0.301140E-02
     15475 MEMB     124      OYPE     C36      CTL2    -0.180000       12.0110           0   0.00000     -0.301140E-02
     15476 MEMB     124      OYPE     H6X      HAL2     0.900000E-01   1.00800           0   0.00000     -0.301140E-02
     15477 MEMB     124      OYPE     H6Y      HAL2     0.900000E-01   1.00800           0   0.00000     -0.301140E-02
     15478 MEMB     124      OYPE     C37      CTL2    -0.180000       12.0110           0   0.00000     -0.301140E-02
     15479 MEMB     124      OYPE     H7X      HAL2     0.900000E-01   1.00800           0   0.00000     -0.301140E-02
     15480 MEMB     124      OYPE     H7Y      HAL2     0.900000E-01   1.00800           0   0.00000     -0.301140E-02
     15481 MEMB     124      OYPE     C38      CTL2    -0.180000       12.0110           0   0.00000     -0.301140E-02
     15482 MEMB     124      OYPE     H8X      HAL2     0.900000E-01   1.00800           0   0.00000     -0.301140E-02
     15483 MEMB     124      OYPE     H8Y      HAL2     0.900000E-01   1.00800           0   0.00000     -0.301140E-02
     15484 MEMB     124      OYPE     C39      CEL1    -0.150000       12.0110           0   0.00000     -0.301140E-02
     15485 MEMB     124      OYPE     H9X      HEL1     0.150000       1.00800           0   0.00000     -0.301140E-02
     15486 MEMB     124      OYPE     C310     CEL1    -0.150000       12.0110           0   0.00000     -0.301140E-02
     15487 MEMB     124      OYPE     H10X     HEL1     0.150000       1.00800           0   0.00000     -0.301140E-02
     15488 MEMB     124      OYPE     C311     CTL2    -0.180000       12.0110           0   0.00000     -0.301140E-02
     15489 MEMB     124      OYPE     H11X     HAL2     0.900000E-01   1.00800           0   0.00000     -0.301140E-02
     15490 MEMB     124      OYPE     H11Y     HAL2     0.900000E-01   1.00800           0   0.00000     -0.301140E-02
     15491 MEMB     124      OYPE     C312     CTL2    -0.180000       12.0110           0   0.00000     -0.301140E-02
     15492 MEMB     124      OYPE     H12X     HAL2     0.900000E-01   1.00800           0   0.00000     -0.301140E-02
     15493 MEMB     124      OYPE     H12Y     HAL2     0.900000E-01   1.00800           0   0.00000     -0.301140E-02
     15494 MEMB     124      OYPE     C313     CTL2    -0.180000       12.0110           0   0.00000     -0.301140E-02
     15495 MEMB     124      OYPE     H13X     HAL2     0.900000E-01   1.00800           0   0.00000     -0.301140E-02
     15496 MEMB     124      OYPE     H13Y     HAL2     0.900000E-01   1.00800           0   0.00000     -0.301140E-02
     15497 MEMB     124      OYPE     C314     CTL2    -0.180000       12.0110           0   0.00000     -0.301140E-02
     15498 MEMB     124      OYPE     H14X     HAL2     0.900000E-01   1.00800           0   0.00000     -0.301140E-02
     15499 MEMB     124      OYPE     H14Y     HAL2     0.900000E-01   1.00800           0   0.00000     -0.301140E-02
     15500 MEMB     124      OYPE     C315     CTL2    -0.180000       12.0110           0   0.00000     -0.301140E-02
     15501 MEMB     124      OYPE     H15X     HAL2     0.900000E-01   1.00800           0   0.00000     -0.301140E-02
     15502 MEMB     124      OYPE     H15Y     HAL2     0.900000E-01   1.00800           0   0.00000     -0.301140E-02
     15503 MEMB     124      OYPE     C316     CTL2    -0.180000       12.0110           0   0.00000     -0.301140E-02
     15504 MEMB     124      OYPE     H16X     HAL2     0.900000E-01   1.00800           0   0.00000     -0.301140E-02
     15505 MEMB     124      OYPE     H16Y     HAL2     0.900000E-01   1.00800           0   0.00000     -0.301140E-02
     15506 MEMB     124      OYPE     C317     CTL2    -0.180000       12.0110           0   0.00000     -0.301140E-02
     15507 MEMB     124      OYPE     H17X     HAL2     0.900000E-01   1.00800           0   0.00000     -0.301140E-02
     15508 MEMB     124      OYPE     H17Y     HAL2     0.900000E-01   1.00800           0   0.00000     -0.301140E-02
     15509 MEMB     124      OYPE     C318     CTL3    -0.270000       12.0110           0   0.00000     -0.301140E-02
     15510 MEMB     124      OYPE     H18X     HAL3     0.900000E-01   1.00800           0   0.00000     -0.301140E-02
     15511 MEMB     124      OYPE     H18Y     HAL3     0.900000E-01   1.00800           0   0.00000     -0.301140E-02
     15512 MEMB     124      OYPE     H18Z     HAL3     0.900000E-01   1.00800           0   0.00000     -0.301140E-02
     15513 MEMB     125      PMPE     N        NH3L    -0.300000       14.0070           0   0.00000     -0.301140E-02
     15514 MEMB     125      PMPE     HN1      HCL      0.330000       1.00800           0   0.00000     -0.301140E-02
     15515 MEMB     125      PMPE     HN2      HCL      0.330000       1.00800           0   0.00000     -0.301140E-02
     15516 MEMB     125      PMPE     HN3      HCL      0.330000       1.00800           0   0.00000     -0.301140E-02
     15517 MEMB     125      PMPE     C12      CTL2     0.130000       12.0110           0   0.00000     -0.301140E-02
     15518 MEMB     125      PMPE     H12A     HAL2     0.900000E-01   1.00800           0   0.00000     -0.301140E-02
     15519 MEMB     125      PMPE     H12B     HAL2     0.900000E-01   1.00800           0   0.00000     -0.301140E-02
     15520 MEMB     125      PMPE     C11      CTL2    -0.800000E-01   12.0110           0   0.00000     -0.301140E-02
     15521 MEMB     125      PMPE     H11A     HAL2     0.900000E-01   1.00800           0   0.00000     -0.301140E-02
     15522 MEMB     125      PMPE     H11B     HAL2     0.900000E-01   1.00800           0   0.00000     -0.301140E-02
     15523 MEMB     125      PMPE     P        PL        1.50000       30.9740           0   0.00000     -0.301140E-02
     15524 MEMB     125      PMPE     O13      O2L     -0.780000       15.9994           0   0.00000     -0.301140E-02
     15525 MEMB     125      PMPE     O14      O2L     -0.780000       15.9994           0   0.00000     -0.301140E-02
     15526 MEMB     125      PMPE     O11      OSLP    -0.570000       15.9994           0   0.00000     -0.301140E-02
     15527 MEMB     125      PMPE     O12      OSLP    -0.570000       15.9994           0   0.00000     -0.301140E-02
     15528 MEMB     125      PMPE     C1       CTL2    -0.800000E-01   12.0110           0   0.00000     -0.301140E-02
     15529 MEMB     125      PMPE     HA       HAL2     0.900000E-01   1.00800           0   0.00000     -0.301140E-02
     15530 MEMB     125      PMPE     HB       HAL2     0.900000E-01   1.00800           0   0.00000     -0.301140E-02
     15531 MEMB     125      PMPE     C2       CTL1     0.170000       12.0110           0   0.00000     -0.301140E-02
     15532 MEMB     125      PMPE     HS       HAL1     0.900000E-01   1.00800           0   0.00000     -0.301140E-02
     15533 MEMB     125      PMPE     O21      OSL     -0.490000       15.9994           0   0.00000     -0.301140E-02
     15534 MEMB     125      PMPE     C21      CL       0.900000       12.0110           0   0.00000     -0.301140E-02
     15535 MEMB     125      PMPE     O22      OBL     -0.630000       15.9994           0   0.00000     -0.301140E-02
     15536 MEMB     125      PMPE     C22      CTL2    -0.220000       12.0110           0   0.00000     -0.301140E-02
     15537 MEMB     125      PMPE     H2R      HAL2     0.900000E-01   1.00800           0   0.00000     -0.301140E-02
     15538 MEMB     125      PMPE     H2S      HAL2     0.900000E-01   1.00800           0   0.00000     -0.301140E-02
     15539 MEMB     125      PMPE     C3       CTL2     0.800000E-01   12.0110           0   0.00000     -0.301140E-02
     15540 MEMB     125      PMPE     HX       HAL2     0.900000E-01   1.00800           0   0.00000     -0.301140E-02
     15541 MEMB     125      PMPE     HY       HAL2     0.900000E-01   1.00800           0   0.00000     -0.301140E-02
     15542 MEMB     125      PMPE     O31      OSL     -0.490000       15.9994           0   0.00000     -0.301140E-02
     15543 MEMB     125      PMPE     C31      CL       0.900000       12.0110           0   0.00000     -0.301140E-02
     15544 MEMB     125      PMPE     O32      OBL     -0.630000       15.9994           0   0.00000     -0.301140E-02
     15545 MEMB     125      PMPE     C32      CTL2    -0.220000       12.0110           0   0.00000     -0.301140E-02
     15546 MEMB     125      PMPE     H2X      HAL2     0.900000E-01   1.00800           0   0.00000     -0.301140E-02
     15547 MEMB     125      PMPE     H2Y      HAL2     0.900000E-01   1.00800           0   0.00000     -0.301140E-02
     15548 MEMB     125      PMPE     C23      CTL2    -0.180000       12.0110           0   0.00000     -0.301140E-02
     15549 MEMB     125      PMPE     H3R      HAL2     0.900000E-01   1.00800           0   0.00000     -0.301140E-02
     15550 MEMB     125      PMPE     H3S      HAL2     0.900000E-01   1.00800           0   0.00000     -0.301140E-02
     15551 MEMB     125      PMPE     C24      CTL2    -0.180000       12.0110           0   0.00000     -0.301140E-02
     15552 MEMB     125      PMPE     H4R      HAL2     0.900000E-01   1.00800           0   0.00000     -0.301140E-02
     15553 MEMB     125      PMPE     H4S      HAL2     0.900000E-01   1.00800           0   0.00000     -0.301140E-02
     15554 MEMB     125      PMPE     C25      CTL2    -0.180000       12.0110           0   0.00000     -0.301140E-02
     15555 MEMB     125      PMPE     H5R      HAL2     0.900000E-01   1.00800           0   0.00000     -0.301140E-02
     15556 MEMB     125      PMPE     H5S      HAL2     0.900000E-01   1.00800           0   0.00000     -0.301140E-02
     15557 MEMB     125      PMPE     C26      CTL2    -0.180000       12.0110           0   0.00000     -0.301140E-02
     15558 MEMB     125      PMPE     H6R      HAL2     0.900000E-01   1.00800           0   0.00000     -0.301140E-02
     15559 MEMB     125      PMPE     H6S      HAL2     0.900000E-01   1.00800           0   0.00000     -0.301140E-02
     15560 MEMB     125      PMPE     C27      CTL2    -0.180000       12.0110           0   0.00000     -0.301140E-02
     15561 MEMB     125      PMPE     H7R      HAL2     0.900000E-01   1.00800           0   0.00000     -0.301140E-02
     15562 MEMB     125      PMPE     H7S      HAL2     0.900000E-01   1.00800           0   0.00000     -0.301140E-02
     15563 MEMB     125      PMPE     C28      CTL2    -0.180000       12.0110           0   0.00000     -0.301140E-02
     15564 MEMB     125      PMPE     H8R      HAL2     0.900000E-01   1.00800           0   0.00000     -0.301140E-02
     15565 MEMB     125      PMPE     H8S      HAL2     0.900000E-01   1.00800           0   0.00000     -0.301140E-02
     15566 MEMB     125      PMPE     C29      CG3RC1  -0.900000E-01   12.0110           0   0.00000     -0.301140E-02
     15567 MEMB     125      PMPE     H9R      HGA1     0.900000E-01   1.00800           0   0.00000     -0.301140E-02
     15568 MEMB     125      PMPE     C217     CG3C31  -0.180000       12.0110           0   0.00000     -0.301140E-02
     15569 MEMB     125      PMPE     H17R     HGA2     0.900000E-01   1.00800           0   0.00000     -0.301140E-02
     15570 MEMB     125      PMPE     H17S     HGA2     0.900000E-01   1.00800           0   0.00000     -0.301140E-02
     15571 MEMB     125      PMPE     C210     CG3RC1  -0.900000E-01   12.0110           0   0.00000     -0.301140E-02
     15572 MEMB     125      PMPE     H10R     HGA1     0.900000E-01   1.00800           0   0.00000     -0.301140E-02
     15573 MEMB     125      PMPE     C211     CTL2    -0.180000       12.0110           0   0.00000     -0.301140E-02
     15574 MEMB     125      PMPE     H11R     HAL2     0.900000E-01   1.00800           0   0.00000     -0.301140E-02
     15575 MEMB     125      PMPE     H11S     HAL2     0.900000E-01   1.00800           0   0.00000     -0.301140E-02
     15576 MEMB     125      PMPE     C212     CTL2    -0.180000       12.0110           0   0.00000     -0.301140E-02
     15577 MEMB     125      PMPE     H12R     HAL2     0.900000E-01   1.00800           0   0.00000     -0.301140E-02
     15578 MEMB     125      PMPE     H12S     HAL2     0.900000E-01   1.00800           0   0.00000     -0.301140E-02
     15579 MEMB     125      PMPE     C213     CTL2    -0.180000       12.0110           0   0.00000     -0.301140E-02
     15580 MEMB     125      PMPE     H13R     HAL2     0.900000E-01   1.00800           0   0.00000     -0.301140E-02
     15581 MEMB     125      PMPE     H13S     HAL2     0.900000E-01   1.00800           0   0.00000     -0.301140E-02
     15582 MEMB     125      PMPE     C214     CTL2    -0.180000       12.0110           0   0.00000     -0.301140E-02
     15583 MEMB     125      PMPE     H14R     HAL2     0.900000E-01   1.00800           0   0.00000     -0.301140E-02
     15584 MEMB     125      PMPE     H14S     HAL2     0.900000E-01   1.00800           0   0.00000     -0.301140E-02
     15585 MEMB     125      PMPE     C215     CTL2    -0.180000       12.0110           0   0.00000     -0.301140E-02
     15586 MEMB     125      PMPE     H15R     HAL2     0.900000E-01   1.00800           0   0.00000     -0.301140E-02
     15587 MEMB     125      PMPE     H15S     HAL2     0.900000E-01   1.00800           0   0.00000     -0.301140E-02
     15588 MEMB     125      PMPE     C216     CTL3    -0.270000       12.0110           0   0.00000     -0.301140E-02
     15589 MEMB     125      PMPE     H16R     HAL3     0.900000E-01   1.00800           0   0.00000     -0.301140E-02
     15590 MEMB     125      PMPE     H16S     HAL3     0.900000E-01   1.00800           0   0.00000     -0.301140E-02
     15591 MEMB     125      PMPE     H16T     HAL3     0.900000E-01   1.00800           0   0.00000     -0.301140E-02
     15592 MEMB     125      PMPE     C33      CTL2    -0.180000       12.0110           0   0.00000     -0.301140E-02
     15593 MEMB     125      PMPE     H3X      HAL2     0.900000E-01   1.00800           0   0.00000     -0.301140E-02
     15594 MEMB     125      PMPE     H3Y      HAL2     0.900000E-01   1.00800           0   0.00000     -0.301140E-02
     15595 MEMB     125      PMPE     C34      CTL2    -0.180000       12.0110           0   0.00000     -0.301140E-02
     15596 MEMB     125      PMPE     H4X      HAL2     0.900000E-01   1.00800           0   0.00000     -0.301140E-02
     15597 MEMB     125      PMPE     H4Y      HAL2     0.900000E-01   1.00800           0   0.00000     -0.301140E-02
     15598 MEMB     125      PMPE     C35      CTL2    -0.180000       12.0110           0   0.00000     -0.301140E-02
     15599 MEMB     125      PMPE     H5X      HAL2     0.900000E-01   1.00800           0   0.00000     -0.301140E-02
     15600 MEMB     125      PMPE     H5Y      HAL2     0.900000E-01   1.00800           0   0.00000     -0.301140E-02
     15601 MEMB     125      PMPE     C36      CTL2    -0.180000       12.0110           0   0.00000     -0.301140E-02
     15602 MEMB     125      PMPE     H6X      HAL2     0.900000E-01   1.00800           0   0.00000     -0.301140E-02
     15603 MEMB     125      PMPE     H6Y      HAL2     0.900000E-01   1.00800           0   0.00000     -0.301140E-02
     15604 MEMB     125      PMPE     C37      CTL2    -0.180000       12.0110           0   0.00000     -0.301140E-02
     15605 MEMB     125      PMPE     H7X      HAL2     0.900000E-01   1.00800           0   0.00000     -0.301140E-02
     15606 MEMB     125      PMPE     H7Y      HAL2     0.900000E-01   1.00800           0   0.00000     -0.301140E-02
     15607 MEMB     125      PMPE     C38      CTL2    -0.180000       12.0110           0   0.00000     -0.301140E-02
     15608 MEMB     125      PMPE     H8X      HAL2     0.900000E-01   1.00800           0   0.00000     -0.301140E-02
     15609 MEMB     125      PMPE     H8Y      HAL2     0.900000E-01   1.00800           0   0.00000     -0.301140E-02
     15610 MEMB     125      PMPE     C39      CTL2    -0.180000       12.0110           0   0.00000     -0.301140E-02
     15611 MEMB     125      PMPE     H9X      HAL2     0.900000E-01   1.00800           0   0.00000     -0.301140E-02
     15612 MEMB     125      PMPE     H9Y      HAL2     0.900000E-01   1.00800           0   0.00000     -0.301140E-02
     15613 MEMB     125      PMPE     C310     CTL2    -0.180000       12.0110           0   0.00000     -0.301140E-02
     15614 MEMB     125      PMPE     H10X     HAL2     0.900000E-01   1.00800           0   0.00000     -0.301140E-02
     15615 MEMB     125      PMPE     H10Y     HAL2     0.900000E-01   1.00800           0   0.00000     -0.301140E-02
     15616 MEMB     125      PMPE     C311     CTL2    -0.180000       12.0110           0   0.00000     -0.301140E-02
     15617 MEMB     125      PMPE     H11X     HAL2     0.900000E-01   1.00800           0   0.00000     -0.301140E-02
     15618 MEMB     125      PMPE     H11Y     HAL2     0.900000E-01   1.00800           0   0.00000     -0.301140E-02
     15619 MEMB     125      PMPE     C312     CTL2    -0.180000       12.0110           0   0.00000     -0.301140E-02
     15620 MEMB     125      PMPE     H12X     HAL2     0.900000E-01   1.00800           0   0.00000     -0.301140E-02
     15621 MEMB     125      PMPE     H12Y     HAL2     0.900000E-01   1.00800           0   0.00000     -0.301140E-02
     15622 MEMB     125      PMPE     C313     CTL2    -0.180000       12.0110           0   0.00000     -0.301140E-02
     15623 MEMB     125      PMPE     H13X     HAL2     0.900000E-01   1.00800           0   0.00000     -0.301140E-02
     15624 MEMB     125      PMPE     H13Y     HAL2     0.900000E-01   1.00800           0   0.00000     -0.301140E-02
     15625 MEMB     125      PMPE     C314     CTL2    -0.180000       12.0110           0   0.00000     -0.301140E-02
     15626 MEMB     125      PMPE     H14X     HAL2     0.900000E-01   1.00800           0   0.00000     -0.301140E-02
     15627 MEMB     125      PMPE     H14Y     HAL2     0.900000E-01   1.00800           0   0.00000     -0.301140E-02
     15628 MEMB     125      PMPE     C315     CTL2    -0.180000       12.0110           0   0.00000     -0.301140E-02
     15629 MEMB     125      PMPE     H15X     HAL2     0.900000E-01   1.00800           0   0.00000     -0.301140E-02
     15630 MEMB     125      PMPE     H15Y     HAL2     0.900000E-01   1.00800           0   0.00000     -0.301140E-02
     15631 MEMB     125      PMPE     C316     CTL3    -0.270000       12.0110           0   0.00000     -0.301140E-02
     15632 MEMB     125      PMPE     H16X     HAL3     0.900000E-01   1.00800           0   0.00000     -0.301140E-02
     15633 MEMB     125      PMPE     H16Y     HAL3     0.900000E-01   1.00800           0   0.00000     -0.301140E-02
     15634 MEMB     125      PMPE     H16Z     HAL3     0.900000E-01   1.00800           0   0.00000     -0.301140E-02
     15635 MEMB     126      PMPE     N        NH3L    -0.300000       14.0070           0   0.00000     -0.301140E-02
     15636 MEMB     126      PMPE     HN1      HCL      0.330000       1.00800           0   0.00000     -0.301140E-02
     15637 MEMB     126      PMPE     HN2      HCL      0.330000       1.00800           0   0.00000     -0.301140E-02
     15638 MEMB     126      PMPE     HN3      HCL      0.330000       1.00800           0   0.00000     -0.301140E-02
     15639 MEMB     126      PMPE     C12      CTL2     0.130000       12.0110           0   0.00000     -0.301140E-02
     15640 MEMB     126      PMPE     H12A     HAL2     0.900000E-01   1.00800           0   0.00000     -0.301140E-02
     15641 MEMB     126      PMPE     H12B     HAL2     0.900000E-01   1.00800           0   0.00000     -0.301140E-02
     15642 MEMB     126      PMPE     C11      CTL2    -0.800000E-01   12.0110           0   0.00000     -0.301140E-02
     15643 MEMB     126      PMPE     H11A     HAL2     0.900000E-01   1.00800           0   0.00000     -0.301140E-02
     15644 MEMB     126      PMPE     H11B     HAL2     0.900000E-01   1.00800           0   0.00000     -0.301140E-02
     15645 MEMB     126      PMPE     P        PL        1.50000       30.9740           0   0.00000     -0.301140E-02
     15646 MEMB     126      PMPE     O13      O2L     -0.780000       15.9994           0   0.00000     -0.301140E-02
     15647 MEMB     126      PMPE     O14      O2L     -0.780000       15.9994           0   0.00000     -0.301140E-02
     15648 MEMB     126      PMPE     O11      OSLP    -0.570000       15.9994           0   0.00000     -0.301140E-02
     15649 MEMB     126      PMPE     O12      OSLP    -0.570000       15.9994           0   0.00000     -0.301140E-02
     15650 MEMB     126      PMPE     C1       CTL2    -0.800000E-01   12.0110           0   0.00000     -0.301140E-02
     15651 MEMB     126      PMPE     HA       HAL2     0.900000E-01   1.00800           0   0.00000     -0.301140E-02
     15652 MEMB     126      PMPE     HB       HAL2     0.900000E-01   1.00800           0   0.00000     -0.301140E-02
     15653 MEMB     126      PMPE     C2       CTL1     0.170000       12.0110           0   0.00000     -0.301140E-02
     15654 MEMB     126      PMPE     HS       HAL1     0.900000E-01   1.00800           0   0.00000     -0.301140E-02
     15655 MEMB     126      PMPE     O21      OSL     -0.490000       15.9994           0   0.00000     -0.301140E-02
     15656 MEMB     126      PMPE     C21      CL       0.900000       12.0110           0   0.00000     -0.301140E-02
     15657 MEMB     126      PMPE     O22      OBL     -0.630000       15.9994           0   0.00000     -0.301140E-02
     15658 MEMB     126      PMPE     C22      CTL2    -0.220000       12.0110           0   0.00000     -0.301140E-02
     15659 MEMB     126      PMPE     H2R      HAL2     0.900000E-01   1.00800           0   0.00000     -0.301140E-02
     15660 MEMB     126      PMPE     H2S      HAL2     0.900000E-01   1.00800           0   0.00000     -0.301140E-02
     15661 MEMB     126      PMPE     C3       CTL2     0.800000E-01   12.0110           0   0.00000     -0.301140E-02
     15662 MEMB     126      PMPE     HX       HAL2     0.900000E-01   1.00800           0   0.00000     -0.301140E-02
     15663 MEMB     126      PMPE     HY       HAL2     0.900000E-01   1.00800           0   0.00000     -0.301140E-02
     15664 MEMB     126      PMPE     O31      OSL     -0.490000       15.9994           0   0.00000     -0.301140E-02
     15665 MEMB     126      PMPE     C31      CL       0.900000       12.0110           0   0.00000     -0.301140E-02
     15666 MEMB     126      PMPE     O32      OBL     -0.630000       15.9994           0   0.00000     -0.301140E-02
     15667 MEMB     126      PMPE     C32      CTL2    -0.220000       12.0110           0   0.00000     -0.301140E-02
     15668 MEMB     126      PMPE     H2X      HAL2     0.900000E-01   1.00800           0   0.00000     -0.301140E-02
     15669 MEMB     126      PMPE     H2Y      HAL2     0.900000E-01   1.00800           0   0.00000     -0.301140E-02
     15670 MEMB     126      PMPE     C23      CTL2    -0.180000       12.0110           0   0.00000     -0.301140E-02
     15671 MEMB     126      PMPE     H3R      HAL2     0.900000E-01   1.00800           0   0.00000     -0.301140E-02
     15672 MEMB     126      PMPE     H3S      HAL2     0.900000E-01   1.00800           0   0.00000     -0.301140E-02
     15673 MEMB     126      PMPE     C24      CTL2    -0.180000       12.0110           0   0.00000     -0.301140E-02
     15674 MEMB     126      PMPE     H4R      HAL2     0.900000E-01   1.00800           0   0.00000     -0.301140E-02
     15675 MEMB     126      PMPE     H4S      HAL2     0.900000E-01   1.00800           0   0.00000     -0.301140E-02
     15676 MEMB     126      PMPE     C25      CTL2    -0.180000       12.0110           0   0.00000     -0.301140E-02
     15677 MEMB     126      PMPE     H5R      HAL2     0.900000E-01   1.00800           0   0.00000     -0.301140E-02
     15678 MEMB     126      PMPE     H5S      HAL2     0.900000E-01   1.00800           0   0.00000     -0.301140E-02
     15679 MEMB     126      PMPE     C26      CTL2    -0.180000       12.0110           0   0.00000     -0.301140E-02
     15680 MEMB     126      PMPE     H6R      HAL2     0.900000E-01   1.00800           0   0.00000     -0.301140E-02
     15681 MEMB     126      PMPE     H6S      HAL2     0.900000E-01   1.00800           0   0.00000     -0.301140E-02
     15682 MEMB     126      PMPE     C27      CTL2    -0.180000       12.0110           0   0.00000     -0.301140E-02
     15683 MEMB     126      PMPE     H7R      HAL2     0.900000E-01   1.00800           0   0.00000     -0.301140E-02
     15684 MEMB     126      PMPE     H7S      HAL2     0.900000E-01   1.00800           0   0.00000     -0.301140E-02
     15685 MEMB     126      PMPE     C28      CTL2    -0.180000       12.0110           0   0.00000     -0.301140E-02
     15686 MEMB     126      PMPE     H8R      HAL2     0.900000E-01   1.00800           0   0.00000     -0.301140E-02
     15687 MEMB     126      PMPE     H8S      HAL2     0.900000E-01   1.00800           0   0.00000     -0.301140E-02
     15688 MEMB     126      PMPE     C29      CG3RC1  -0.900000E-01   12.0110           0   0.00000     -0.301140E-02
     15689 MEMB     126      PMPE     H9R      HGA1     0.900000E-01   1.00800           0   0.00000     -0.301140E-02
     15690 MEMB     126      PMPE     C217     CG3C31  -0.180000       12.0110           0   0.00000     -0.301140E-02
     15691 MEMB     126      PMPE     H17R     HGA2     0.900000E-01   1.00800           0   0.00000     -0.301140E-02
     15692 MEMB     126      PMPE     H17S     HGA2     0.900000E-01   1.00800           0   0.00000     -0.301140E-02
     15693 MEMB     126      PMPE     C210     CG3RC1  -0.900000E-01   12.0110           0   0.00000     -0.301140E-02
     15694 MEMB     126      PMPE     H10R     HGA1     0.900000E-01   1.00800           0   0.00000     -0.301140E-02
     15695 MEMB     126      PMPE     C211     CTL2    -0.180000       12.0110           0   0.00000     -0.301140E-02
     15696 MEMB     126      PMPE     H11R     HAL2     0.900000E-01   1.00800           0   0.00000     -0.301140E-02
     15697 MEMB     126      PMPE     H11S     HAL2     0.900000E-01   1.00800           0   0.00000     -0.301140E-02
     15698 MEMB     126      PMPE     C212     CTL2    -0.180000       12.0110           0   0.00000     -0.301140E-02
     15699 MEMB     126      PMPE     H12R     HAL2     0.900000E-01   1.00800           0   0.00000     -0.301140E-02
     15700 MEMB     126      PMPE     H12S     HAL2     0.900000E-01   1.00800           0   0.00000     -0.301140E-02
     15701 MEMB     126      PMPE     C213     CTL2    -0.180000       12.0110           0   0.00000     -0.301140E-02
     15702 MEMB     126      PMPE     H13R     HAL2     0.900000E-01   1.00800           0   0.00000     -0.301140E-02
     15703 MEMB     126      PMPE     H13S     HAL2     0.900000E-01   1.00800           0   0.00000     -0.301140E-02
     15704 MEMB     126      PMPE     C214     CTL2    -0.180000       12.0110           0   0.00000     -0.301140E-02
     15705 MEMB     126      PMPE     H14R     HAL2     0.900000E-01   1.00800           0   0.00000     -0.301140E-02
     15706 MEMB     126      PMPE     H14S     HAL2     0.900000E-01   1.00800           0   0.00000     -0.301140E-02
     15707 MEMB     126      PMPE     C215     CTL2    -0.180000       12.0110           0   0.00000     -0.301140E-02
     15708 MEMB     126      PMPE     H15R     HAL2     0.900000E-01   1.00800           0   0.00000     -0.301140E-02
     15709 MEMB     126      PMPE     H15S     HAL2     0.900000E-01   1.00800           0   0.00000     -0.301140E-02
     15710 MEMB     126      PMPE     C216     CTL3    -0.270000       12.0110           0   0.00000     -0.301140E-02
     15711 MEMB     126      PMPE     H16R     HAL3     0.900000E-01   1.00800           0   0.00000     -0.301140E-02
     15712 MEMB     126      PMPE     H16S     HAL3     0.900000E-01   1.00800           0   0.00000     -0.301140E-02
     15713 MEMB     126      PMPE     H16T     HAL3     0.900000E-01   1.00800           0   0.00000     -0.301140E-02
     15714 MEMB     126      PMPE     C33      CTL2    -0.180000       12.0110           0   0.00000     -0.301140E-02
     15715 MEMB     126      PMPE     H3X      HAL2     0.900000E-01   1.00800           0   0.00000     -0.301140E-02
     15716 MEMB     126      PMPE     H3Y      HAL2     0.900000E-01   1.00800           0   0.00000     -0.301140E-02
     15717 MEMB     126      PMPE     C34      CTL2    -0.180000       12.0110           0   0.00000     -0.301140E-02
     15718 MEMB     126      PMPE     H4X      HAL2     0.900000E-01   1.00800           0   0.00000     -0.301140E-02
     15719 MEMB     126      PMPE     H4Y      HAL2     0.900000E-01   1.00800           0   0.00000     -0.301140E-02
     15720 MEMB     126      PMPE     C35      CTL2    -0.180000       12.0110           0   0.00000     -0.301140E-02
     15721 MEMB     126      PMPE     H5X      HAL2     0.900000E-01   1.00800           0   0.00000     -0.301140E-02
     15722 MEMB     126      PMPE     H5Y      HAL2     0.900000E-01   1.00800           0   0.00000     -0.301140E-02
     15723 MEMB     126      PMPE     C36      CTL2    -0.180000       12.0110           0   0.00000     -0.301140E-02
     15724 MEMB     126      PMPE     H6X      HAL2     0.900000E-01   1.00800           0   0.00000     -0.301140E-02
     15725 MEMB     126      PMPE     H6Y      HAL2     0.900000E-01   1.00800           0   0.00000     -0.301140E-02
     15726 MEMB     126      PMPE     C37      CTL2    -0.180000       12.0110           0   0.00000     -0.301140E-02
     15727 MEMB     126      PMPE     H7X      HAL2     0.900000E-01   1.00800           0   0.00000     -0.301140E-02
     15728 MEMB     126      PMPE     H7Y      HAL2     0.900000E-01   1.00800           0   0.00000     -0.301140E-02
     15729 MEMB     126      PMPE     C38      CTL2    -0.180000       12.0110           0   0.00000     -0.301140E-02
     15730 MEMB     126      PMPE     H8X      HAL2     0.900000E-01   1.00800           0   0.00000     -0.301140E-02
     15731 MEMB     126      PMPE     H8Y      HAL2     0.900000E-01   1.00800           0   0.00000     -0.301140E-02
     15732 MEMB     126      PMPE     C39      CTL2    -0.180000       12.0110           0   0.00000     -0.301140E-02
     15733 MEMB     126      PMPE     H9X      HAL2     0.900000E-01   1.00800           0   0.00000     -0.301140E-02
     15734 MEMB     126      PMPE     H9Y      HAL2     0.900000E-01   1.00800           0   0.00000     -0.301140E-02
     15735 MEMB     126      PMPE     C310     CTL2    -0.180000       12.0110           0   0.00000     -0.301140E-02
     15736 MEMB     126      PMPE     H10X     HAL2     0.900000E-01   1.00800           0   0.00000     -0.301140E-02
     15737 MEMB     126      PMPE     H10Y     HAL2     0.900000E-01   1.00800           0   0.00000     -0.301140E-02
     15738 MEMB     126      PMPE     C311     CTL2    -0.180000       12.0110           0   0.00000     -0.301140E-02
     15739 MEMB     126      PMPE     H11X     HAL2     0.900000E-01   1.00800           0   0.00000     -0.301140E-02
     15740 MEMB     126      PMPE     H11Y     HAL2     0.900000E-01   1.00800           0   0.00000     -0.301140E-02
     15741 MEMB     126      PMPE     C312     CTL2    -0.180000       12.0110           0   0.00000     -0.301140E-02
     15742 MEMB     126      PMPE     H12X     HAL2     0.900000E-01   1.00800           0   0.00000     -0.301140E-02
     15743 MEMB     126      PMPE     H12Y     HAL2     0.900000E-01   1.00800           0   0.00000     -0.301140E-02
     15744 MEMB     126      PMPE     C313     CTL2    -0.180000       12.0110           0   0.00000     -0.301140E-02
     15745 MEMB     126      PMPE     H13X     HAL2     0.900000E-01   1.00800           0   0.00000     -0.301140E-02
     15746 MEMB     126      PMPE     H13Y     HAL2     0.900000E-01   1.00800           0   0.00000     -0.301140E-02
     15747 MEMB     126      PMPE     C314     CTL2    -0.180000       12.0110           0   0.00000     -0.301140E-02
     15748 MEMB     126      PMPE     H14X     HAL2     0.900000E-01   1.00800           0   0.00000     -0.301140E-02
     15749 MEMB     126      PMPE     H14Y     HAL2     0.900000E-01   1.00800           0   0.00000     -0.301140E-02
     15750 MEMB     126      PMPE     C315     CTL2    -0.180000       12.0110           0   0.00000     -0.301140E-02
     15751 MEMB     126      PMPE     H15X     HAL2     0.900000E-01   1.00800           0   0.00000     -0.301140E-02
     15752 MEMB     126      PMPE     H15Y     HAL2     0.900000E-01   1.00800           0   0.00000     -0.301140E-02
     15753 MEMB     126      PMPE     C316     CTL3    -0.270000       12.0110           0   0.00000     -0.301140E-02
     15754 MEMB     126      PMPE     H16X     HAL3     0.900000E-01   1.00800           0   0.00000     -0.301140E-02
     15755 MEMB     126      PMPE     H16Y     HAL3     0.900000E-01   1.00800           0   0.00000     -0.301140E-02
     15756 MEMB     126      PMPE     H16Z     HAL3     0.900000E-01   1.00800           0   0.00000     -0.301140E-02
     15757 MEMB     127      QMPE     N        NH3L    -0.300000       14.0070           0   0.00000     -0.301140E-02
     15758 MEMB     127      QMPE     HN1      HCL      0.330000       1.00800           0   0.00000     -0.301140E-02
     15759 MEMB     127      QMPE     HN2      HCL      0.330000       1.00800           0   0.00000     -0.301140E-02
     15760 MEMB     127      QMPE     HN3      HCL      0.330000       1.00800           0   0.00000     -0.301140E-02
     15761 MEMB     127      QMPE     C12      CTL2     0.130000       12.0110           0   0.00000     -0.301140E-02
     15762 MEMB     127      QMPE     H12A     HAL2     0.900000E-01   1.00800           0   0.00000     -0.301140E-02
     15763 MEMB     127      QMPE     H12B     HAL2     0.900000E-01   1.00800           0   0.00000     -0.301140E-02
     15764 MEMB     127      QMPE     C11      CTL2    -0.800000E-01   12.0110           0   0.00000     -0.301140E-02
     15765 MEMB     127      QMPE     H11A     HAL2     0.900000E-01   1.00800           0   0.00000     -0.301140E-02
     15766 MEMB     127      QMPE     H11B     HAL2     0.900000E-01   1.00800           0   0.00000     -0.301140E-02
     15767 MEMB     127      QMPE     P        PL        1.50000       30.9740           0   0.00000     -0.301140E-02
     15768 MEMB     127      QMPE     O13      O2L     -0.780000       15.9994           0   0.00000     -0.301140E-02
     15769 MEMB     127      QMPE     O14      O2L     -0.780000       15.9994           0   0.00000     -0.301140E-02
     15770 MEMB     127      QMPE     O11      OSLP    -0.570000       15.9994           0   0.00000     -0.301140E-02
     15771 MEMB     127      QMPE     O12      OSLP    -0.570000       15.9994           0   0.00000     -0.301140E-02
     15772 MEMB     127      QMPE     C1       CTL2    -0.800000E-01   12.0110           0   0.00000     -0.301140E-02
     15773 MEMB     127      QMPE     HA       HAL2     0.900000E-01   1.00800           0   0.00000     -0.301140E-02
     15774 MEMB     127      QMPE     HB       HAL2     0.900000E-01   1.00800           0   0.00000     -0.301140E-02
     15775 MEMB     127      QMPE     C2       CTL1     0.170000       12.0110           0   0.00000     -0.301140E-02
     15776 MEMB     127      QMPE     HS       HAL1     0.900000E-01   1.00800           0   0.00000     -0.301140E-02
     15777 MEMB     127      QMPE     O21      OSL     -0.490000       15.9994           0   0.00000     -0.301140E-02
     15778 MEMB     127      QMPE     C21      CL       0.900000       12.0110           0   0.00000     -0.301140E-02
     15779 MEMB     127      QMPE     O22      OBL     -0.630000       15.9994           0   0.00000     -0.301140E-02
     15780 MEMB     127      QMPE     C22      CTL2    -0.220000       12.0110           0   0.00000     -0.301140E-02
     15781 MEMB     127      QMPE     H2R      HAL2     0.900000E-01   1.00800           0   0.00000     -0.301140E-02
     15782 MEMB     127      QMPE     H2S      HAL2     0.900000E-01   1.00800           0   0.00000     -0.301140E-02
     15783 MEMB     127      QMPE     C3       CTL2     0.800000E-01   12.0110           0   0.00000     -0.301140E-02
     15784 MEMB     127      QMPE     HX       HAL2     0.900000E-01   1.00800           0   0.00000     -0.301140E-02
     15785 MEMB     127      QMPE     HY       HAL2     0.900000E-01   1.00800           0   0.00000     -0.301140E-02
     15786 MEMB     127      QMPE     O31      OSL     -0.490000       15.9994           0   0.00000     -0.301140E-02
     15787 MEMB     127      QMPE     C31      CL       0.900000       12.0110           0   0.00000     -0.301140E-02
     15788 MEMB     127      QMPE     O32      OBL     -0.630000       15.9994           0   0.00000     -0.301140E-02
     15789 MEMB     127      QMPE     C32      CTL2    -0.220000       12.0110           0   0.00000     -0.301140E-02
     15790 MEMB     127      QMPE     H2X      HAL2     0.900000E-01   1.00800           0   0.00000     -0.301140E-02
     15791 MEMB     127      QMPE     H2Y      HAL2     0.900000E-01   1.00800           0   0.00000     -0.301140E-02
     15792 MEMB     127      QMPE     C23      CTL2    -0.180000       12.0110           0   0.00000     -0.301140E-02
     15793 MEMB     127      QMPE     H3R      HAL2     0.900000E-01   1.00800           0   0.00000     -0.301140E-02
     15794 MEMB     127      QMPE     H3S      HAL2     0.900000E-01   1.00800           0   0.00000     -0.301140E-02
     15795 MEMB     127      QMPE     C24      CTL2    -0.180000       12.0110           0   0.00000     -0.301140E-02
     15796 MEMB     127      QMPE     H4R      HAL2     0.900000E-01   1.00800           0   0.00000     -0.301140E-02
     15797 MEMB     127      QMPE     H4S      HAL2     0.900000E-01   1.00800           0   0.00000     -0.301140E-02
     15798 MEMB     127      QMPE     C25      CTL2    -0.180000       12.0110           0   0.00000     -0.301140E-02
     15799 MEMB     127      QMPE     H5R      HAL2     0.900000E-01   1.00800           0   0.00000     -0.301140E-02
     15800 MEMB     127      QMPE     H5S      HAL2     0.900000E-01   1.00800           0   0.00000     -0.301140E-02
     15801 MEMB     127      QMPE     C26      CTL2    -0.180000       12.0110           0   0.00000     -0.301140E-02
     15802 MEMB     127      QMPE     H6R      HAL2     0.900000E-01   1.00800           0   0.00000     -0.301140E-02
     15803 MEMB     127      QMPE     H6S      HAL2     0.900000E-01   1.00800           0   0.00000     -0.301140E-02
     15804 MEMB     127      QMPE     C27      CTL2    -0.180000       12.0110           0   0.00000     -0.301140E-02
     15805 MEMB     127      QMPE     H7R      HAL2     0.900000E-01   1.00800           0   0.00000     -0.301140E-02
     15806 MEMB     127      QMPE     H7S      HAL2     0.900000E-01   1.00800           0   0.00000     -0.301140E-02
     15807 MEMB     127      QMPE     C28      CTL2    -0.180000       12.0110           0   0.00000     -0.301140E-02
     15808 MEMB     127      QMPE     H8R      HAL2     0.900000E-01   1.00800           0   0.00000     -0.301140E-02
     15809 MEMB     127      QMPE     H8S      HAL2     0.900000E-01   1.00800           0   0.00000     -0.301140E-02
     15810 MEMB     127      QMPE     C29      CG3RC1  -0.900000E-01   12.0110           0   0.00000     -0.301140E-02
     15811 MEMB     127      QMPE     H9R      HGA1     0.900000E-01   1.00800           0   0.00000     -0.301140E-02
     15812 MEMB     127      QMPE     C217     CG3C31  -0.180000       12.0110           0   0.00000     -0.301140E-02
     15813 MEMB     127      QMPE     H17R     HGA2     0.900000E-01   1.00800           0   0.00000     -0.301140E-02
     15814 MEMB     127      QMPE     H17S     HGA2     0.900000E-01   1.00800           0   0.00000     -0.301140E-02
     15815 MEMB     127      QMPE     C210     CG3RC1  -0.900000E-01   12.0110           0   0.00000     -0.301140E-02
     15816 MEMB     127      QMPE     H10R     HGA1     0.900000E-01   1.00800           0   0.00000     -0.301140E-02
     15817 MEMB     127      QMPE     C211     CTL2    -0.180000       12.0110           0   0.00000     -0.301140E-02
     15818 MEMB     127      QMPE     H11R     HAL2     0.900000E-01   1.00800           0   0.00000     -0.301140E-02
     15819 MEMB     127      QMPE     H11S     HAL2     0.900000E-01   1.00800           0   0.00000     -0.301140E-02
     15820 MEMB     127      QMPE     C212     CTL2    -0.180000       12.0110           0   0.00000     -0.301140E-02
     15821 MEMB     127      QMPE     H12R     HAL2     0.900000E-01   1.00800           0   0.00000     -0.301140E-02
     15822 MEMB     127      QMPE     H12S     HAL2     0.900000E-01   1.00800           0   0.00000     -0.301140E-02
     15823 MEMB     127      QMPE     C213     CTL2    -0.180000       12.0110           0   0.00000     -0.301140E-02
     15824 MEMB     127      QMPE     H13R     HAL2     0.900000E-01   1.00800           0   0.00000     -0.301140E-02
     15825 MEMB     127      QMPE     H13S     HAL2     0.900000E-01   1.00800           0   0.00000     -0.301140E-02
     15826 MEMB     127      QMPE     C214     CTL2    -0.180000       12.0110           0   0.00000     -0.301140E-02
     15827 MEMB     127      QMPE     H14R     HAL2     0.900000E-01   1.00800           0   0.00000     -0.301140E-02
     15828 MEMB     127      QMPE     H14S     HAL2     0.900000E-01   1.00800           0   0.00000     -0.301140E-02
     15829 MEMB     127      QMPE     C215     CTL2    -0.180000       12.0110           0   0.00000     -0.301140E-02
     15830 MEMB     127      QMPE     H15R     HAL2     0.900000E-01   1.00800           0   0.00000     -0.301140E-02
     15831 MEMB     127      QMPE     H15S     HAL2     0.900000E-01   1.00800           0   0.00000     -0.301140E-02
     15832 MEMB     127      QMPE     C216     CTL3    -0.270000       12.0110           0   0.00000     -0.301140E-02
     15833 MEMB     127      QMPE     H16R     HAL3     0.900000E-01   1.00800           0   0.00000     -0.301140E-02
     15834 MEMB     127      QMPE     H16S     HAL3     0.900000E-01   1.00800           0   0.00000     -0.301140E-02
     15835 MEMB     127      QMPE     H16T     HAL3     0.900000E-01   1.00800           0   0.00000     -0.301140E-02
     15836 MEMB     127      QMPE     C33      CTL2    -0.180000       12.0110           0   0.00000     -0.301140E-02
     15837 MEMB     127      QMPE     H3X      HAL2     0.900000E-01   1.00800           0   0.00000     -0.301140E-02
     15838 MEMB     127      QMPE     H3Y      HAL2     0.900000E-01   1.00800           0   0.00000     -0.301140E-02
     15839 MEMB     127      QMPE     C34      CTL2    -0.180000       12.0110           0   0.00000     -0.301140E-02
     15840 MEMB     127      QMPE     H4X      HAL2     0.900000E-01   1.00800           0   0.00000     -0.301140E-02
     15841 MEMB     127      QMPE     H4Y      HAL2     0.900000E-01   1.00800           0   0.00000     -0.301140E-02
     15842 MEMB     127      QMPE     C35      CTL2    -0.180000       12.0110           0   0.00000     -0.301140E-02
     15843 MEMB     127      QMPE     H5X      HAL2     0.900000E-01   1.00800           0   0.00000     -0.301140E-02
     15844 MEMB     127      QMPE     H5Y      HAL2     0.900000E-01   1.00800           0   0.00000     -0.301140E-02
     15845 MEMB     127      QMPE     C36      CTL2    -0.180000       12.0110           0   0.00000     -0.301140E-02
     15846 MEMB     127      QMPE     H6X      HAL2     0.900000E-01   1.00800           0   0.00000     -0.301140E-02
     15847 MEMB     127      QMPE     H6Y      HAL2     0.900000E-01   1.00800           0   0.00000     -0.301140E-02
     15848 MEMB     127      QMPE     C37      CTL2    -0.180000       12.0110           0   0.00000     -0.301140E-02
     15849 MEMB     127      QMPE     H7X      HAL2     0.900000E-01   1.00800           0   0.00000     -0.301140E-02
     15850 MEMB     127      QMPE     H7Y      HAL2     0.900000E-01   1.00800           0   0.00000     -0.301140E-02
     15851 MEMB     127      QMPE     C38      CTL2    -0.180000       12.0110           0   0.00000     -0.301140E-02
     15852 MEMB     127      QMPE     H8X      HAL2     0.900000E-01   1.00800           0   0.00000     -0.301140E-02
     15853 MEMB     127      QMPE     H8Y      HAL2     0.900000E-01   1.00800           0   0.00000     -0.301140E-02
     15854 MEMB     127      QMPE     C39      CTL2    -0.180000       12.0110           0   0.00000     -0.301140E-02
     15855 MEMB     127      QMPE     H9X      HAL2     0.900000E-01   1.00800           0   0.00000     -0.301140E-02
     15856 MEMB     127      QMPE     H9Y      HAL2     0.900000E-01   1.00800           0   0.00000     -0.301140E-02
     15857 MEMB     127      QMPE     C310     CTL2    -0.180000       12.0110           0   0.00000     -0.301140E-02
     15858 MEMB     127      QMPE     H10X     HAL2     0.900000E-01   1.00800           0   0.00000     -0.301140E-02
     15859 MEMB     127      QMPE     H10Y     HAL2     0.900000E-01   1.00800           0   0.00000     -0.301140E-02
     15860 MEMB     127      QMPE     C311     CTL2    -0.180000       12.0110           0   0.00000     -0.301140E-02
     15861 MEMB     127      QMPE     H11X     HAL2     0.900000E-01   1.00800           0   0.00000     -0.301140E-02
     15862 MEMB     127      QMPE     H11Y     HAL2     0.900000E-01   1.00800           0   0.00000     -0.301140E-02
     15863 MEMB     127      QMPE     C312     CTL2    -0.180000       12.0110           0   0.00000     -0.301140E-02
     15864 MEMB     127      QMPE     H12X     HAL2     0.900000E-01   1.00800           0   0.00000     -0.301140E-02
     15865 MEMB     127      QMPE     H12Y     HAL2     0.900000E-01   1.00800           0   0.00000     -0.301140E-02
     15866 MEMB     127      QMPE     C313     CTL2    -0.180000       12.0110           0   0.00000     -0.301140E-02
     15867 MEMB     127      QMPE     H13X     HAL2     0.900000E-01   1.00800           0   0.00000     -0.301140E-02
     15868 MEMB     127      QMPE     H13Y     HAL2     0.900000E-01   1.00800           0   0.00000     -0.301140E-02
     15869 MEMB     127      QMPE     C314     CTL2    -0.180000       12.0110           0   0.00000     -0.301140E-02
     15870 MEMB     127      QMPE     H14X     HAL2     0.900000E-01   1.00800           0   0.00000     -0.301140E-02
     15871 MEMB     127      QMPE     H14Y     HAL2     0.900000E-01   1.00800           0   0.00000     -0.301140E-02
     15872 MEMB     127      QMPE     C315     CTL3    -0.270000       12.0110           0   0.00000     -0.301140E-02
     15873 MEMB     127      QMPE     H15X     HAL3     0.900000E-01   1.00800           0   0.00000     -0.301140E-02
     15874 MEMB     127      QMPE     H15Y     HAL3     0.900000E-01   1.00800           0   0.00000     -0.301140E-02
     15875 MEMB     127      QMPE     H15Z     HAL3     0.900000E-01   1.00800           0   0.00000     -0.301140E-02
     15876 MEMB     128      PYPG     C13      CTL2     0.500000E-01   12.0110           0   0.00000     -0.301140E-02
     15877 MEMB     128      PYPG     H13A     HAL2     0.900000E-01   1.00800           0   0.00000     -0.301140E-02
     15878 MEMB     128      PYPG     H13B     HAL2     0.900000E-01   1.00800           0   0.00000     -0.301140E-02
     15879 MEMB     128      PYPG     OC3      OHL     -0.660000       15.9994           0   0.00000     -0.301140E-02
     15880 MEMB     128      PYPG     HO3      HOL      0.430000       1.00800           0   0.00000     -0.301140E-02
     15881 MEMB     128      PYPG     C12      CTL1     0.140000       12.0110           0   0.00000     -0.301140E-02
     15882 MEMB     128      PYPG     H12A     HAL1     0.900000E-01   1.00800           0   0.00000     -0.301140E-02
     15883 MEMB     128      PYPG     OC2      OHL     -0.660000       15.9994           0   0.00000     -0.301140E-02
     15884 MEMB     128      PYPG     HO2      HOL      0.430000       1.00800           0   0.00000     -0.301140E-02
     15885 MEMB     128      PYPG     C11      CTL2    -0.800000E-01   12.0110           0   0.00000     -0.301140E-02
     15886 MEMB     128      PYPG     H11A     HAL2     0.900000E-01   1.00800           0   0.00000     -0.301140E-02
     15887 MEMB     128      PYPG     H11B     HAL2     0.900000E-01   1.00800           0   0.00000     -0.301140E-02
     15888 MEMB     128      PYPG     P        PL        1.50000       30.9740           0   0.00000     -0.301140E-02
     15889 MEMB     128      PYPG     O13      O2L     -0.780000       15.9994           0   0.00000     -0.301140E-02
     15890 MEMB     128      PYPG     O14      O2L     -0.780000       15.9994           0   0.00000     -0.301140E-02
     15891 MEMB     128      PYPG     O11      OSLP    -0.570000       15.9994           0   0.00000     -0.301140E-02
     15892 MEMB     128      PYPG     O12      OSLP    -0.570000       15.9994           0   0.00000     -0.301140E-02
     15893 MEMB     128      PYPG     C1       CTL2    -0.800000E-01   12.0110           0   0.00000     -0.301140E-02
     15894 MEMB     128      PYPG     HA       HAL2     0.900000E-01   1.00800           0   0.00000     -0.301140E-02
     15895 MEMB     128      PYPG     HB       HAL2     0.900000E-01   1.00800           0   0.00000     -0.301140E-02
     15896 MEMB     128      PYPG     C2       CTL1     0.170000       12.0110           0   0.00000     -0.301140E-02
     15897 MEMB     128      PYPG     HS       HAL1     0.900000E-01   1.00800           0   0.00000     -0.301140E-02
     15898 MEMB     128      PYPG     O21      OSL     -0.490000       15.9994           0   0.00000     -0.301140E-02
     15899 MEMB     128      PYPG     C21      CL       0.900000       12.0110           0   0.00000     -0.301140E-02
     15900 MEMB     128      PYPG     O22      OBL     -0.630000       15.9994           0   0.00000     -0.301140E-02
     15901 MEMB     128      PYPG     C22      CTL2    -0.220000       12.0110           0   0.00000     -0.301140E-02
     15902 MEMB     128      PYPG     H2R      HAL2     0.900000E-01   1.00800           0   0.00000     -0.301140E-02
     15903 MEMB     128      PYPG     H2S      HAL2     0.900000E-01   1.00800           0   0.00000     -0.301140E-02
     15904 MEMB     128      PYPG     C3       CTL2     0.800000E-01   12.0110           0   0.00000     -0.301140E-02
     15905 MEMB     128      PYPG     HX       HAL2     0.900000E-01   1.00800           0   0.00000     -0.301140E-02
     15906 MEMB     128      PYPG     HY       HAL2     0.900000E-01   1.00800           0   0.00000     -0.301140E-02
     15907 MEMB     128      PYPG     O31      OSL     -0.490000       15.9994           0   0.00000     -0.301140E-02
     15908 MEMB     128      PYPG     C31      CL       0.900000       12.0110           0   0.00000     -0.301140E-02
     15909 MEMB     128      PYPG     O32      OBL     -0.630000       15.9994           0   0.00000     -0.301140E-02
     15910 MEMB     128      PYPG     C32      CTL2    -0.220000       12.0110           0   0.00000     -0.301140E-02
     15911 MEMB     128      PYPG     H2X      HAL2     0.900000E-01   1.00800           0   0.00000     -0.301140E-02
     15912 MEMB     128      PYPG     H2Y      HAL2     0.900000E-01   1.00800           0   0.00000     -0.301140E-02
     15913 MEMB     128      PYPG     C23      CTL2    -0.180000       12.0110           0   0.00000     -0.301140E-02
     15914 MEMB     128      PYPG     H3R      HAL2     0.900000E-01   1.00800           0   0.00000     -0.301140E-02
     15915 MEMB     128      PYPG     H3S      HAL2     0.900000E-01   1.00800           0   0.00000     -0.301140E-02
     15916 MEMB     128      PYPG     C24      CTL2    -0.180000       12.0110           0   0.00000     -0.301140E-02
     15917 MEMB     128      PYPG     H4R      HAL2     0.900000E-01   1.00800           0   0.00000     -0.301140E-02
     15918 MEMB     128      PYPG     H4S      HAL2     0.900000E-01   1.00800           0   0.00000     -0.301140E-02
     15919 MEMB     128      PYPG     C25      CTL2    -0.180000       12.0110           0   0.00000     -0.301140E-02
     15920 MEMB     128      PYPG     H5R      HAL2     0.900000E-01   1.00800           0   0.00000     -0.301140E-02
     15921 MEMB     128      PYPG     H5S      HAL2     0.900000E-01   1.00800           0   0.00000     -0.301140E-02
     15922 MEMB     128      PYPG     C26      CTL2    -0.180000       12.0110           0   0.00000     -0.301140E-02
     15923 MEMB     128      PYPG     H6R      HAL2     0.900000E-01   1.00800           0   0.00000     -0.301140E-02
     15924 MEMB     128      PYPG     H6S      HAL2     0.900000E-01   1.00800           0   0.00000     -0.301140E-02
     15925 MEMB     128      PYPG     C27      CTL2    -0.180000       12.0110           0   0.00000     -0.301140E-02
     15926 MEMB     128      PYPG     H7R      HAL2     0.900000E-01   1.00800           0   0.00000     -0.301140E-02
     15927 MEMB     128      PYPG     H7S      HAL2     0.900000E-01   1.00800           0   0.00000     -0.301140E-02
     15928 MEMB     128      PYPG     C28      CTL2    -0.180000       12.0110           0   0.00000     -0.301140E-02
     15929 MEMB     128      PYPG     H8R      HAL2     0.900000E-01   1.00800           0   0.00000     -0.301140E-02
     15930 MEMB     128      PYPG     H8S      HAL2     0.900000E-01   1.00800           0   0.00000     -0.301140E-02
     15931 MEMB     128      PYPG     C29      CEL1    -0.150000       12.0110           0   0.00000     -0.301140E-02
     15932 MEMB     128      PYPG     H9R      HEL1     0.150000       1.00800           0   0.00000     -0.301140E-02
     15933 MEMB     128      PYPG     C210     CEL1    -0.150000       12.0110           0   0.00000     -0.301140E-02
     15934 MEMB     128      PYPG     H10R     HEL1     0.150000       1.00800           0   0.00000     -0.301140E-02
     15935 MEMB     128      PYPG     C211     CTL2    -0.180000       12.0110           0   0.00000     -0.301140E-02
     15936 MEMB     128      PYPG     H11R     HAL2     0.900000E-01   1.00800           0   0.00000     -0.301140E-02
     15937 MEMB     128      PYPG     H11S     HAL2     0.900000E-01   1.00800           0   0.00000     -0.301140E-02
     15938 MEMB     128      PYPG     C212     CTL2    -0.180000       12.0110           0   0.00000     -0.301140E-02
     15939 MEMB     128      PYPG     H12R     HAL2     0.900000E-01   1.00800           0   0.00000     -0.301140E-02
     15940 MEMB     128      PYPG     H12S     HAL2     0.900000E-01   1.00800           0   0.00000     -0.301140E-02
     15941 MEMB     128      PYPG     C213     CTL2    -0.180000       12.0110           0   0.00000     -0.301140E-02
     15942 MEMB     128      PYPG     H13R     HAL2     0.900000E-01   1.00800           0   0.00000     -0.301140E-02
     15943 MEMB     128      PYPG     H13S     HAL2     0.900000E-01   1.00800           0   0.00000     -0.301140E-02
     15944 MEMB     128      PYPG     C214     CTL2    -0.180000       12.0110           0   0.00000     -0.301140E-02
     15945 MEMB     128      PYPG     H14R     HAL2     0.900000E-01   1.00800           0   0.00000     -0.301140E-02
     15946 MEMB     128      PYPG     H14S     HAL2     0.900000E-01   1.00800           0   0.00000     -0.301140E-02
     15947 MEMB     128      PYPG     C215     CTL2    -0.180000       12.0110           0   0.00000     -0.301140E-02
     15948 MEMB     128      PYPG     H15R     HAL2     0.900000E-01   1.00800           0   0.00000     -0.301140E-02
     15949 MEMB     128      PYPG     H15S     HAL2     0.900000E-01   1.00800           0   0.00000     -0.301140E-02
     15950 MEMB     128      PYPG     C216     CTL3    -0.270000       12.0110           0   0.00000     -0.301140E-02
     15951 MEMB     128      PYPG     H16R     HAL3     0.900000E-01   1.00800           0   0.00000     -0.301140E-02
     15952 MEMB     128      PYPG     H16S     HAL3     0.900000E-01   1.00800           0   0.00000     -0.301140E-02
     15953 MEMB     128      PYPG     H16T     HAL3     0.900000E-01   1.00800           0   0.00000     -0.301140E-02
     15954 MEMB     128      PYPG     C33      CTL2    -0.180000       12.0110           0   0.00000     -0.301140E-02
     15955 MEMB     128      PYPG     H3X      HAL2     0.900000E-01   1.00800           0   0.00000     -0.301140E-02
     15956 MEMB     128      PYPG     H3Y      HAL2     0.900000E-01   1.00800           0   0.00000     -0.301140E-02
     15957 MEMB     128      PYPG     C34      CTL2    -0.180000       12.0110           0   0.00000     -0.301140E-02
     15958 MEMB     128      PYPG     H4X      HAL2     0.900000E-01   1.00800           0   0.00000     -0.301140E-02
     15959 MEMB     128      PYPG     H4Y      HAL2     0.900000E-01   1.00800           0   0.00000     -0.301140E-02
     15960 MEMB     128      PYPG     C35      CTL2    -0.180000       12.0110           0   0.00000     -0.301140E-02
     15961 MEMB     128      PYPG     H5X      HAL2     0.900000E-01   1.00800           0   0.00000     -0.301140E-02
     15962 MEMB     128      PYPG     H5Y      HAL2     0.900000E-01   1.00800           0   0.00000     -0.301140E-02
     15963 MEMB     128      PYPG     C36      CTL2    -0.180000       12.0110           0   0.00000     -0.301140E-02
     15964 MEMB     128      PYPG     H6X      HAL2     0.900000E-01   1.00800           0   0.00000     -0.301140E-02
     15965 MEMB     128      PYPG     H6Y      HAL2     0.900000E-01   1.00800           0   0.00000     -0.301140E-02
     15966 MEMB     128      PYPG     C37      CTL2    -0.180000       12.0110           0   0.00000     -0.301140E-02
     15967 MEMB     128      PYPG     H7X      HAL2     0.900000E-01   1.00800           0   0.00000     -0.301140E-02
     15968 MEMB     128      PYPG     H7Y      HAL2     0.900000E-01   1.00800           0   0.00000     -0.301140E-02
     15969 MEMB     128      PYPG     C38      CTL2    -0.180000       12.0110           0   0.00000     -0.301140E-02
     15970 MEMB     128      PYPG     H8X      HAL2     0.900000E-01   1.00800           0   0.00000     -0.301140E-02
     15971 MEMB     128      PYPG     H8Y      HAL2     0.900000E-01   1.00800           0   0.00000     -0.301140E-02
     15972 MEMB     128      PYPG     C39      CTL2    -0.180000       12.0110           0   0.00000     -0.301140E-02
     15973 MEMB     128      PYPG     H9X      HAL2     0.900000E-01   1.00800           0   0.00000     -0.301140E-02
     15974 MEMB     128      PYPG     H9Y      HAL2     0.900000E-01   1.00800           0   0.00000     -0.301140E-02
     15975 MEMB     128      PYPG     C310     CTL2    -0.180000       12.0110           0   0.00000     -0.301140E-02
     15976 MEMB     128      PYPG     H10X     HAL2     0.900000E-01   1.00800           0   0.00000     -0.301140E-02
     15977 MEMB     128      PYPG     H10Y     HAL2     0.900000E-01   1.00800           0   0.00000     -0.301140E-02
     15978 MEMB     128      PYPG     C311     CTL2    -0.180000       12.0110           0   0.00000     -0.301140E-02
     15979 MEMB     128      PYPG     H11X     HAL2     0.900000E-01   1.00800           0   0.00000     -0.301140E-02
     15980 MEMB     128      PYPG     H11Y     HAL2     0.900000E-01   1.00800           0   0.00000     -0.301140E-02
     15981 MEMB     128      PYPG     C312     CTL2    -0.180000       12.0110           0   0.00000     -0.301140E-02
     15982 MEMB     128      PYPG     H12X     HAL2     0.900000E-01   1.00800           0   0.00000     -0.301140E-02
     15983 MEMB     128      PYPG     H12Y     HAL2     0.900000E-01   1.00800           0   0.00000     -0.301140E-02
     15984 MEMB     128      PYPG     C313     CTL2    -0.180000       12.0110           0   0.00000     -0.301140E-02
     15985 MEMB     128      PYPG     H13X     HAL2     0.900000E-01   1.00800           0   0.00000     -0.301140E-02
     15986 MEMB     128      PYPG     H13Y     HAL2     0.900000E-01   1.00800           0   0.00000     -0.301140E-02
     15987 MEMB     128      PYPG     C314     CTL2    -0.180000       12.0110           0   0.00000     -0.301140E-02
     15988 MEMB     128      PYPG     H14X     HAL2     0.900000E-01   1.00800           0   0.00000     -0.301140E-02
     15989 MEMB     128      PYPG     H14Y     HAL2     0.900000E-01   1.00800           0   0.00000     -0.301140E-02
     15990 MEMB     128      PYPG     C315     CTL2    -0.180000       12.0110           0   0.00000     -0.301140E-02
     15991 MEMB     128      PYPG     H15X     HAL2     0.900000E-01   1.00800           0   0.00000     -0.301140E-02
     15992 MEMB     128      PYPG     H15Y     HAL2     0.900000E-01   1.00800           0   0.00000     -0.301140E-02
     15993 MEMB     128      PYPG     C316     CTL3    -0.270000       12.0110           0   0.00000     -0.301140E-02
     15994 MEMB     128      PYPG     H16X     HAL3     0.900000E-01   1.00800           0   0.00000     -0.301140E-02
     15995 MEMB     128      PYPG     H16Y     HAL3     0.900000E-01   1.00800           0   0.00000     -0.301140E-02
     15996 MEMB     128      PYPG     H16Z     HAL3     0.900000E-01   1.00800           0   0.00000     -0.301140E-02
     15997 MEMB     129      PYPG     C13      CTL2     0.500000E-01   12.0110           0   0.00000     -0.301140E-02
     15998 MEMB     129      PYPG     H13A     HAL2     0.900000E-01   1.00800           0   0.00000     -0.301140E-02
     15999 MEMB     129      PYPG     H13B     HAL2     0.900000E-01   1.00800           0   0.00000     -0.301140E-02
     16000 MEMB     129      PYPG     OC3      OHL     -0.660000       15.9994           0   0.00000     -0.301140E-02
     16001 MEMB     129      PYPG     HO3      HOL      0.430000       1.00800           0   0.00000     -0.301140E-02
     16002 MEMB     129      PYPG     C12      CTL1     0.140000       12.0110           0   0.00000     -0.301140E-02
     16003 MEMB     129      PYPG     H12A     HAL1     0.900000E-01   1.00800           0   0.00000     -0.301140E-02
     16004 MEMB     129      PYPG     OC2      OHL     -0.660000       15.9994           0   0.00000     -0.301140E-02
     16005 MEMB     129      PYPG     HO2      HOL      0.430000       1.00800           0   0.00000     -0.301140E-02
     16006 MEMB     129      PYPG     C11      CTL2    -0.800000E-01   12.0110           0   0.00000     -0.301140E-02
     16007 MEMB     129      PYPG     H11A     HAL2     0.900000E-01   1.00800           0   0.00000     -0.301140E-02
     16008 MEMB     129      PYPG     H11B     HAL2     0.900000E-01   1.00800           0   0.00000     -0.301140E-02
     16009 MEMB     129      PYPG     P        PL        1.50000       30.9740           0   0.00000     -0.301140E-02
     16010 MEMB     129      PYPG     O13      O2L     -0.780000       15.9994           0   0.00000     -0.301140E-02
     16011 MEMB     129      PYPG     O14      O2L     -0.780000       15.9994           0   0.00000     -0.301140E-02
     16012 MEMB     129      PYPG     O11      OSLP    -0.570000       15.9994           0   0.00000     -0.301140E-02
     16013 MEMB     129      PYPG     O12      OSLP    -0.570000       15.9994           0   0.00000     -0.301140E-02
     16014 MEMB     129      PYPG     C1       CTL2    -0.800000E-01   12.0110           0   0.00000     -0.301140E-02
     16015 MEMB     129      PYPG     HA       HAL2     0.900000E-01   1.00800           0   0.00000     -0.301140E-02
     16016 MEMB     129      PYPG     HB       HAL2     0.900000E-01   1.00800           0   0.00000     -0.301140E-02
     16017 MEMB     129      PYPG     C2       CTL1     0.170000       12.0110           0   0.00000     -0.301140E-02
     16018 MEMB     129      PYPG     HS       HAL1     0.900000E-01   1.00800           0   0.00000     -0.301140E-02
     16019 MEMB     129      PYPG     O21      OSL     -0.490000       15.9994           0   0.00000     -0.301140E-02
     16020 MEMB     129      PYPG     C21      CL       0.900000       12.0110           0   0.00000     -0.301140E-02
     16021 MEMB     129      PYPG     O22      OBL     -0.630000       15.9994           0   0.00000     -0.301140E-02
     16022 MEMB     129      PYPG     C22      CTL2    -0.220000       12.0110           0   0.00000     -0.301140E-02
     16023 MEMB     129      PYPG     H2R      HAL2     0.900000E-01   1.00800           0   0.00000     -0.301140E-02
     16024 MEMB     129      PYPG     H2S      HAL2     0.900000E-01   1.00800           0   0.00000     -0.301140E-02
     16025 MEMB     129      PYPG     C3       CTL2     0.800000E-01   12.0110           0   0.00000     -0.301140E-02
     16026 MEMB     129      PYPG     HX       HAL2     0.900000E-01   1.00800           0   0.00000     -0.301140E-02
     16027 MEMB     129      PYPG     HY       HAL2     0.900000E-01   1.00800           0   0.00000     -0.301140E-02
     16028 MEMB     129      PYPG     O31      OSL     -0.490000       15.9994           0   0.00000     -0.301140E-02
     16029 MEMB     129      PYPG     C31      CL       0.900000       12.0110           0   0.00000     -0.301140E-02
     16030 MEMB     129      PYPG     O32      OBL     -0.630000       15.9994           0   0.00000     -0.301140E-02
     16031 MEMB     129      PYPG     C32      CTL2    -0.220000       12.0110           0   0.00000     -0.301140E-02
     16032 MEMB     129      PYPG     H2X      HAL2     0.900000E-01   1.00800           0   0.00000     -0.301140E-02
     16033 MEMB     129      PYPG     H2Y      HAL2     0.900000E-01   1.00800           0   0.00000     -0.301140E-02
     16034 MEMB     129      PYPG     C23      CTL2    -0.180000       12.0110           0   0.00000     -0.301140E-02
     16035 MEMB     129      PYPG     H3R      HAL2     0.900000E-01   1.00800           0   0.00000     -0.301140E-02
     16036 MEMB     129      PYPG     H3S      HAL2     0.900000E-01   1.00800           0   0.00000     -0.301140E-02
     16037 MEMB     129      PYPG     C24      CTL2    -0.180000       12.0110           0   0.00000     -0.301140E-02
     16038 MEMB     129      PYPG     H4R      HAL2     0.900000E-01   1.00800           0   0.00000     -0.301140E-02
     16039 MEMB     129      PYPG     H4S      HAL2     0.900000E-01   1.00800           0   0.00000     -0.301140E-02
     16040 MEMB     129      PYPG     C25      CTL2    -0.180000       12.0110           0   0.00000     -0.301140E-02
     16041 MEMB     129      PYPG     H5R      HAL2     0.900000E-01   1.00800           0   0.00000     -0.301140E-02
     16042 MEMB     129      PYPG     H5S      HAL2     0.900000E-01   1.00800           0   0.00000     -0.301140E-02
     16043 MEMB     129      PYPG     C26      CTL2    -0.180000       12.0110           0   0.00000     -0.301140E-02
     16044 MEMB     129      PYPG     H6R      HAL2     0.900000E-01   1.00800           0   0.00000     -0.301140E-02
     16045 MEMB     129      PYPG     H6S      HAL2     0.900000E-01   1.00800           0   0.00000     -0.301140E-02
     16046 MEMB     129      PYPG     C27      CTL2    -0.180000       12.0110           0   0.00000     -0.301140E-02
     16047 MEMB     129      PYPG     H7R      HAL2     0.900000E-01   1.00800           0   0.00000     -0.301140E-02
     16048 MEMB     129      PYPG     H7S      HAL2     0.900000E-01   1.00800           0   0.00000     -0.301140E-02
     16049 MEMB     129      PYPG     C28      CTL2    -0.180000       12.0110           0   0.00000     -0.301140E-02
     16050 MEMB     129      PYPG     H8R      HAL2     0.900000E-01   1.00800           0   0.00000     -0.301140E-02
     16051 MEMB     129      PYPG     H8S      HAL2     0.900000E-01   1.00800           0   0.00000     -0.301140E-02
     16052 MEMB     129      PYPG     C29      CEL1    -0.150000       12.0110           0   0.00000     -0.301140E-02
     16053 MEMB     129      PYPG     H9R      HEL1     0.150000       1.00800           0   0.00000     -0.301140E-02
     16054 MEMB     129      PYPG     C210     CEL1    -0.150000       12.0110           0   0.00000     -0.301140E-02
     16055 MEMB     129      PYPG     H10R     HEL1     0.150000       1.00800           0   0.00000     -0.301140E-02
     16056 MEMB     129      PYPG     C211     CTL2    -0.180000       12.0110           0   0.00000     -0.301140E-02
     16057 MEMB     129      PYPG     H11R     HAL2     0.900000E-01   1.00800           0   0.00000     -0.301140E-02
     16058 MEMB     129      PYPG     H11S     HAL2     0.900000E-01   1.00800           0   0.00000     -0.301140E-02
     16059 MEMB     129      PYPG     C212     CTL2    -0.180000       12.0110           0   0.00000     -0.301140E-02
     16060 MEMB     129      PYPG     H12R     HAL2     0.900000E-01   1.00800           0   0.00000     -0.301140E-02
     16061 MEMB     129      PYPG     H12S     HAL2     0.900000E-01   1.00800           0   0.00000     -0.301140E-02
     16062 MEMB     129      PYPG     C213     CTL2    -0.180000       12.0110           0   0.00000     -0.301140E-02
     16063 MEMB     129      PYPG     H13R     HAL2     0.900000E-01   1.00800           0   0.00000     -0.301140E-02
     16064 MEMB     129      PYPG     H13S     HAL2     0.900000E-01   1.00800           0   0.00000     -0.301140E-02
     16065 MEMB     129      PYPG     C214     CTL2    -0.180000       12.0110           0   0.00000     -0.301140E-02
     16066 MEMB     129      PYPG     H14R     HAL2     0.900000E-01   1.00800           0   0.00000     -0.301140E-02
     16067 MEMB     129      PYPG     H14S     HAL2     0.900000E-01   1.00800           0   0.00000     -0.301140E-02
     16068 MEMB     129      PYPG     C215     CTL2    -0.180000       12.0110           0   0.00000     -0.301140E-02
     16069 MEMB     129      PYPG     H15R     HAL2     0.900000E-01   1.00800           0   0.00000     -0.301140E-02
     16070 MEMB     129      PYPG     H15S     HAL2     0.900000E-01   1.00800           0   0.00000     -0.301140E-02
     16071 MEMB     129      PYPG     C216     CTL3    -0.270000       12.0110           0   0.00000     -0.301140E-02
     16072 MEMB     129      PYPG     H16R     HAL3     0.900000E-01   1.00800           0   0.00000     -0.301140E-02
     16073 MEMB     129      PYPG     H16S     HAL3     0.900000E-01   1.00800           0   0.00000     -0.301140E-02
     16074 MEMB     129      PYPG     H16T     HAL3     0.900000E-01   1.00800           0   0.00000     -0.301140E-02
     16075 MEMB     129      PYPG     C33      CTL2    -0.180000       12.0110           0   0.00000     -0.301140E-02
     16076 MEMB     129      PYPG     H3X      HAL2     0.900000E-01   1.00800           0   0.00000     -0.301140E-02
     16077 MEMB     129      PYPG     H3Y      HAL2     0.900000E-01   1.00800           0   0.00000     -0.301140E-02
     16078 MEMB     129      PYPG     C34      CTL2    -0.180000       12.0110           0   0.00000     -0.301140E-02
     16079 MEMB     129      PYPG     H4X      HAL2     0.900000E-01   1.00800           0   0.00000     -0.301140E-02
     16080 MEMB     129      PYPG     H4Y      HAL2     0.900000E-01   1.00800           0   0.00000     -0.301140E-02
     16081 MEMB     129      PYPG     C35      CTL2    -0.180000       12.0110           0   0.00000     -0.301140E-02
     16082 MEMB     129      PYPG     H5X      HAL2     0.900000E-01   1.00800           0   0.00000     -0.301140E-02
     16083 MEMB     129      PYPG     H5Y      HAL2     0.900000E-01   1.00800           0   0.00000     -0.301140E-02
     16084 MEMB     129      PYPG     C36      CTL2    -0.180000       12.0110           0   0.00000     -0.301140E-02
     16085 MEMB     129      PYPG     H6X      HAL2     0.900000E-01   1.00800           0   0.00000     -0.301140E-02
     16086 MEMB     129      PYPG     H6Y      HAL2     0.900000E-01   1.00800           0   0.00000     -0.301140E-02
     16087 MEMB     129      PYPG     C37      CTL2    -0.180000       12.0110           0   0.00000     -0.301140E-02
     16088 MEMB     129      PYPG     H7X      HAL2     0.900000E-01   1.00800           0   0.00000     -0.301140E-02
     16089 MEMB     129      PYPG     H7Y      HAL2     0.900000E-01   1.00800           0   0.00000     -0.301140E-02
     16090 MEMB     129      PYPG     C38      CTL2    -0.180000       12.0110           0   0.00000     -0.301140E-02
     16091 MEMB     129      PYPG     H8X      HAL2     0.900000E-01   1.00800           0   0.00000     -0.301140E-02
     16092 MEMB     129      PYPG     H8Y      HAL2     0.900000E-01   1.00800           0   0.00000     -0.301140E-02
     16093 MEMB     129      PYPG     C39      CTL2    -0.180000       12.0110           0   0.00000     -0.301140E-02
     16094 MEMB     129      PYPG     H9X      HAL2     0.900000E-01   1.00800           0   0.00000     -0.301140E-02
     16095 MEMB     129      PYPG     H9Y      HAL2     0.900000E-01   1.00800           0   0.00000     -0.301140E-02
     16096 MEMB     129      PYPG     C310     CTL2    -0.180000       12.0110           0   0.00000     -0.301140E-02
     16097 MEMB     129      PYPG     H10X     HAL2     0.900000E-01   1.00800           0   0.00000     -0.301140E-02
     16098 MEMB     129      PYPG     H10Y     HAL2     0.900000E-01   1.00800           0   0.00000     -0.301140E-02
     16099 MEMB     129      PYPG     C311     CTL2    -0.180000       12.0110           0   0.00000     -0.301140E-02
     16100 MEMB     129      PYPG     H11X     HAL2     0.900000E-01   1.00800           0   0.00000     -0.301140E-02
     16101 MEMB     129      PYPG     H11Y     HAL2     0.900000E-01   1.00800           0   0.00000     -0.301140E-02
     16102 MEMB     129      PYPG     C312     CTL2    -0.180000       12.0110           0   0.00000     -0.301140E-02
     16103 MEMB     129      PYPG     H12X     HAL2     0.900000E-01   1.00800           0   0.00000     -0.301140E-02
     16104 MEMB     129      PYPG     H12Y     HAL2     0.900000E-01   1.00800           0   0.00000     -0.301140E-02
     16105 MEMB     129      PYPG     C313     CTL2    -0.180000       12.0110           0   0.00000     -0.301140E-02
     16106 MEMB     129      PYPG     H13X     HAL2     0.900000E-01   1.00800           0   0.00000     -0.301140E-02
     16107 MEMB     129      PYPG     H13Y     HAL2     0.900000E-01   1.00800           0   0.00000     -0.301140E-02
     16108 MEMB     129      PYPG     C314     CTL2    -0.180000       12.0110           0   0.00000     -0.301140E-02
     16109 MEMB     129      PYPG     H14X     HAL2     0.900000E-01   1.00800           0   0.00000     -0.301140E-02
     16110 MEMB     129      PYPG     H14Y     HAL2     0.900000E-01   1.00800           0   0.00000     -0.301140E-02
     16111 MEMB     129      PYPG     C315     CTL2    -0.180000       12.0110           0   0.00000     -0.301140E-02
     16112 MEMB     129      PYPG     H15X     HAL2     0.900000E-01   1.00800           0   0.00000     -0.301140E-02
     16113 MEMB     129      PYPG     H15Y     HAL2     0.900000E-01   1.00800           0   0.00000     -0.301140E-02
     16114 MEMB     129      PYPG     C316     CTL3    -0.270000       12.0110           0   0.00000     -0.301140E-02
     16115 MEMB     129      PYPG     H16X     HAL3     0.900000E-01   1.00800           0   0.00000     -0.301140E-02
     16116 MEMB     129      PYPG     H16Y     HAL3     0.900000E-01   1.00800           0   0.00000     -0.301140E-02
     16117 MEMB     129      PYPG     H16Z     HAL3     0.900000E-01   1.00800           0   0.00000     -0.301140E-02
     16118 MEMB     130      PMPE     N        NH3L    -0.300000       14.0070           0   0.00000     -0.301140E-02
     16119 MEMB     130      PMPE     HN1      HCL      0.330000       1.00800           0   0.00000     -0.301140E-02
     16120 MEMB     130      PMPE     HN2      HCL      0.330000       1.00800           0   0.00000     -0.301140E-02
     16121 MEMB     130      PMPE     HN3      HCL      0.330000       1.00800           0   0.00000     -0.301140E-02
     16122 MEMB     130      PMPE     C12      CTL2     0.130000       12.0110           0   0.00000     -0.301140E-02
     16123 MEMB     130      PMPE     H12A     HAL2     0.900000E-01   1.00800           0   0.00000     -0.301140E-02
     16124 MEMB     130      PMPE     H12B     HAL2     0.900000E-01   1.00800           0   0.00000     -0.301140E-02
     16125 MEMB     130      PMPE     C11      CTL2    -0.800000E-01   12.0110           0   0.00000     -0.301140E-02
     16126 MEMB     130      PMPE     H11A     HAL2     0.900000E-01   1.00800           0   0.00000     -0.301140E-02
     16127 MEMB     130      PMPE     H11B     HAL2     0.900000E-01   1.00800           0   0.00000     -0.301140E-02
     16128 MEMB     130      PMPE     P        PL        1.50000       30.9740           0   0.00000     -0.301140E-02
     16129 MEMB     130      PMPE     O13      O2L     -0.780000       15.9994           0   0.00000     -0.301140E-02
     16130 MEMB     130      PMPE     O14      O2L     -0.780000       15.9994           0   0.00000     -0.301140E-02
     16131 MEMB     130      PMPE     O11      OSLP    -0.570000       15.9994           0   0.00000     -0.301140E-02
     16132 MEMB     130      PMPE     O12      OSLP    -0.570000       15.9994           0   0.00000     -0.301140E-02
     16133 MEMB     130      PMPE     C1       CTL2    -0.800000E-01   12.0110           0   0.00000     -0.301140E-02
     16134 MEMB     130      PMPE     HA       HAL2     0.900000E-01   1.00800           0   0.00000     -0.301140E-02
     16135 MEMB     130      PMPE     HB       HAL2     0.900000E-01   1.00800           0   0.00000     -0.301140E-02
     16136 MEMB     130      PMPE     C2       CTL1     0.170000       12.0110           0   0.00000     -0.301140E-02
     16137 MEMB     130      PMPE     HS       HAL1     0.900000E-01   1.00800           0   0.00000     -0.301140E-02
     16138 MEMB     130      PMPE     O21      OSL     -0.490000       15.9994           0   0.00000     -0.301140E-02
     16139 MEMB     130      PMPE     C21      CL       0.900000       12.0110           0   0.00000     -0.301140E-02
     16140 MEMB     130      PMPE     O22      OBL     -0.630000       15.9994           0   0.00000     -0.301140E-02
     16141 MEMB     130      PMPE     C22      CTL2    -0.220000       12.0110           0   0.00000     -0.301140E-02
     16142 MEMB     130      PMPE     H2R      HAL2     0.900000E-01   1.00800           0   0.00000     -0.301140E-02
     16143 MEMB     130      PMPE     H2S      HAL2     0.900000E-01   1.00800           0   0.00000     -0.301140E-02
     16144 MEMB     130      PMPE     C3       CTL2     0.800000E-01   12.0110           0   0.00000     -0.301140E-02
     16145 MEMB     130      PMPE     HX       HAL2     0.900000E-01   1.00800           0   0.00000     -0.301140E-02
     16146 MEMB     130      PMPE     HY       HAL2     0.900000E-01   1.00800           0   0.00000     -0.301140E-02
     16147 MEMB     130      PMPE     O31      OSL     -0.490000       15.9994           0   0.00000     -0.301140E-02
     16148 MEMB     130      PMPE     C31      CL       0.900000       12.0110           0   0.00000     -0.301140E-02
     16149 MEMB     130      PMPE     O32      OBL     -0.630000       15.9994           0   0.00000     -0.301140E-02
     16150 MEMB     130      PMPE     C32      CTL2    -0.220000       12.0110           0   0.00000     -0.301140E-02
     16151 MEMB     130      PMPE     H2X      HAL2     0.900000E-01   1.00800           0   0.00000     -0.301140E-02
     16152 MEMB     130      PMPE     H2Y      HAL2     0.900000E-01   1.00800           0   0.00000     -0.301140E-02
     16153 MEMB     130      PMPE     C23      CTL2    -0.180000       12.0110           0   0.00000     -0.301140E-02
     16154 MEMB     130      PMPE     H3R      HAL2     0.900000E-01   1.00800           0   0.00000     -0.301140E-02
     16155 MEMB     130      PMPE     H3S      HAL2     0.900000E-01   1.00800           0   0.00000     -0.301140E-02
     16156 MEMB     130      PMPE     C24      CTL2    -0.180000       12.0110           0   0.00000     -0.301140E-02
     16157 MEMB     130      PMPE     H4R      HAL2     0.900000E-01   1.00800           0   0.00000     -0.301140E-02
     16158 MEMB     130      PMPE     H4S      HAL2     0.900000E-01   1.00800           0   0.00000     -0.301140E-02
     16159 MEMB     130      PMPE     C25      CTL2    -0.180000       12.0110           0   0.00000     -0.301140E-02
     16160 MEMB     130      PMPE     H5R      HAL2     0.900000E-01   1.00800           0   0.00000     -0.301140E-02
     16161 MEMB     130      PMPE     H5S      HAL2     0.900000E-01   1.00800           0   0.00000     -0.301140E-02
     16162 MEMB     130      PMPE     C26      CTL2    -0.180000       12.0110           0   0.00000     -0.301140E-02
     16163 MEMB     130      PMPE     H6R      HAL2     0.900000E-01   1.00800           0   0.00000     -0.301140E-02
     16164 MEMB     130      PMPE     H6S      HAL2     0.900000E-01   1.00800           0   0.00000     -0.301140E-02
     16165 MEMB     130      PMPE     C27      CTL2    -0.180000       12.0110           0   0.00000     -0.301140E-02
     16166 MEMB     130      PMPE     H7R      HAL2     0.900000E-01   1.00800           0   0.00000     -0.301140E-02
     16167 MEMB     130      PMPE     H7S      HAL2     0.900000E-01   1.00800           0   0.00000     -0.301140E-02
     16168 MEMB     130      PMPE     C28      CTL2    -0.180000       12.0110           0   0.00000     -0.301140E-02
     16169 MEMB     130      PMPE     H8R      HAL2     0.900000E-01   1.00800           0   0.00000     -0.301140E-02
     16170 MEMB     130      PMPE     H8S      HAL2     0.900000E-01   1.00800           0   0.00000     -0.301140E-02
     16171 MEMB     130      PMPE     C29      CG3RC1  -0.900000E-01   12.0110           0   0.00000     -0.301140E-02
     16172 MEMB     130      PMPE     H9R      HGA1     0.900000E-01   1.00800           0   0.00000     -0.301140E-02
     16173 MEMB     130      PMPE     C217     CG3C31  -0.180000       12.0110           0   0.00000     -0.301140E-02
     16174 MEMB     130      PMPE     H17R     HGA2     0.900000E-01   1.00800           0   0.00000     -0.301140E-02
     16175 MEMB     130      PMPE     H17S     HGA2     0.900000E-01   1.00800           0   0.00000     -0.301140E-02
     16176 MEMB     130      PMPE     C210     CG3RC1  -0.900000E-01   12.0110           0   0.00000     -0.301140E-02
     16177 MEMB     130      PMPE     H10R     HGA1     0.900000E-01   1.00800           0   0.00000     -0.301140E-02
     16178 MEMB     130      PMPE     C211     CTL2    -0.180000       12.0110           0   0.00000     -0.301140E-02
     16179 MEMB     130      PMPE     H11R     HAL2     0.900000E-01   1.00800           0   0.00000     -0.301140E-02
     16180 MEMB     130      PMPE     H11S     HAL2     0.900000E-01   1.00800           0   0.00000     -0.301140E-02
     16181 MEMB     130      PMPE     C212     CTL2    -0.180000       12.0110           0   0.00000     -0.301140E-02
     16182 MEMB     130      PMPE     H12R     HAL2     0.900000E-01   1.00800           0   0.00000     -0.301140E-02
     16183 MEMB     130      PMPE     H12S     HAL2     0.900000E-01   1.00800           0   0.00000     -0.301140E-02
     16184 MEMB     130      PMPE     C213     CTL2    -0.180000       12.0110           0   0.00000     -0.301140E-02
     16185 MEMB     130      PMPE     H13R     HAL2     0.900000E-01   1.00800           0   0.00000     -0.301140E-02
     16186 MEMB     130      PMPE     H13S     HAL2     0.900000E-01   1.00800           0   0.00000     -0.301140E-02
     16187 MEMB     130      PMPE     C214     CTL2    -0.180000       12.0110           0   0.00000     -0.301140E-02
     16188 MEMB     130      PMPE     H14R     HAL2     0.900000E-01   1.00800           0   0.00000     -0.301140E-02
     16189 MEMB     130      PMPE     H14S     HAL2     0.900000E-01   1.00800           0   0.00000     -0.301140E-02
     16190 MEMB     130      PMPE     C215     CTL2    -0.180000       12.0110           0   0.00000     -0.301140E-02
     16191 MEMB     130      PMPE     H15R     HAL2     0.900000E-01   1.00800           0   0.00000     -0.301140E-02
     16192 MEMB     130      PMPE     H15S     HAL2     0.900000E-01   1.00800           0   0.00000     -0.301140E-02
     16193 MEMB     130      PMPE     C216     CTL3    -0.270000       12.0110           0   0.00000     -0.301140E-02
     16194 MEMB     130      PMPE     H16R     HAL3     0.900000E-01   1.00800           0   0.00000     -0.301140E-02
     16195 MEMB     130      PMPE     H16S     HAL3     0.900000E-01   1.00800           0   0.00000     -0.301140E-02
     16196 MEMB     130      PMPE     H16T     HAL3     0.900000E-01   1.00800           0   0.00000     -0.301140E-02
     16197 MEMB     130      PMPE     C33      CTL2    -0.180000       12.0110           0   0.00000     -0.301140E-02
     16198 MEMB     130      PMPE     H3X      HAL2     0.900000E-01   1.00800           0   0.00000     -0.301140E-02
     16199 MEMB     130      PMPE     H3Y      HAL2     0.900000E-01   1.00800           0   0.00000     -0.301140E-02
     16200 MEMB     130      PMPE     C34      CTL2    -0.180000       12.0110           0   0.00000     -0.301140E-02
     16201 MEMB     130      PMPE     H4X      HAL2     0.900000E-01   1.00800           0   0.00000     -0.301140E-02
     16202 MEMB     130      PMPE     H4Y      HAL2     0.900000E-01   1.00800           0   0.00000     -0.301140E-02
     16203 MEMB     130      PMPE     C35      CTL2    -0.180000       12.0110           0   0.00000     -0.301140E-02
     16204 MEMB     130      PMPE     H5X      HAL2     0.900000E-01   1.00800           0   0.00000     -0.301140E-02
     16205 MEMB     130      PMPE     H5Y      HAL2     0.900000E-01   1.00800           0   0.00000     -0.301140E-02
     16206 MEMB     130      PMPE     C36      CTL2    -0.180000       12.0110           0   0.00000     -0.301140E-02
     16207 MEMB     130      PMPE     H6X      HAL2     0.900000E-01   1.00800           0   0.00000     -0.301140E-02
     16208 MEMB     130      PMPE     H6Y      HAL2     0.900000E-01   1.00800           0   0.00000     -0.301140E-02
     16209 MEMB     130      PMPE     C37      CTL2    -0.180000       12.0110           0   0.00000     -0.301140E-02
     16210 MEMB     130      PMPE     H7X      HAL2     0.900000E-01   1.00800           0   0.00000     -0.301140E-02
     16211 MEMB     130      PMPE     H7Y      HAL2     0.900000E-01   1.00800           0   0.00000     -0.301140E-02
     16212 MEMB     130      PMPE     C38      CTL2    -0.180000       12.0110           0   0.00000     -0.301140E-02
     16213 MEMB     130      PMPE     H8X      HAL2     0.900000E-01   1.00800           0   0.00000     -0.301140E-02
     16214 MEMB     130      PMPE     H8Y      HAL2     0.900000E-01   1.00800           0   0.00000     -0.301140E-02
     16215 MEMB     130      PMPE     C39      CTL2    -0.180000       12.0110           0   0.00000     -0.301140E-02
     16216 MEMB     130      PMPE     H9X      HAL2     0.900000E-01   1.00800           0   0.00000     -0.301140E-02
     16217 MEMB     130      PMPE     H9Y      HAL2     0.900000E-01   1.00800           0   0.00000     -0.301140E-02
     16218 MEMB     130      PMPE     C310     CTL2    -0.180000       12.0110           0   0.00000     -0.301140E-02
     16219 MEMB     130      PMPE     H10X     HAL2     0.900000E-01   1.00800           0   0.00000     -0.301140E-02
     16220 MEMB     130      PMPE     H10Y     HAL2     0.900000E-01   1.00800           0   0.00000     -0.301140E-02
     16221 MEMB     130      PMPE     C311     CTL2    -0.180000       12.0110           0   0.00000     -0.301140E-02
     16222 MEMB     130      PMPE     H11X     HAL2     0.900000E-01   1.00800           0   0.00000     -0.301140E-02
     16223 MEMB     130      PMPE     H11Y     HAL2     0.900000E-01   1.00800           0   0.00000     -0.301140E-02
     16224 MEMB     130      PMPE     C312     CTL2    -0.180000       12.0110           0   0.00000     -0.301140E-02
     16225 MEMB     130      PMPE     H12X     HAL2     0.900000E-01   1.00800           0   0.00000     -0.301140E-02
     16226 MEMB     130      PMPE     H12Y     HAL2     0.900000E-01   1.00800           0   0.00000     -0.301140E-02
     16227 MEMB     130      PMPE     C313     CTL2    -0.180000       12.0110           0   0.00000     -0.301140E-02
     16228 MEMB     130      PMPE     H13X     HAL2     0.900000E-01   1.00800           0   0.00000     -0.301140E-02
     16229 MEMB     130      PMPE     H13Y     HAL2     0.900000E-01   1.00800           0   0.00000     -0.301140E-02
     16230 MEMB     130      PMPE     C314     CTL2    -0.180000       12.0110           0   0.00000     -0.301140E-02
     16231 MEMB     130      PMPE     H14X     HAL2     0.900000E-01   1.00800           0   0.00000     -0.301140E-02
     16232 MEMB     130      PMPE     H14Y     HAL2     0.900000E-01   1.00800           0   0.00000     -0.301140E-02
     16233 MEMB     130      PMPE     C315     CTL2    -0.180000       12.0110           0   0.00000     -0.301140E-02
     16234 MEMB     130      PMPE     H15X     HAL2     0.900000E-01   1.00800           0   0.00000     -0.301140E-02
     16235 MEMB     130      PMPE     H15Y     HAL2     0.900000E-01   1.00800           0   0.00000     -0.301140E-02
     16236 MEMB     130      PMPE     C316     CTL3    -0.270000       12.0110           0   0.00000     -0.301140E-02
     16237 MEMB     130      PMPE     H16X     HAL3     0.900000E-01   1.00800           0   0.00000     -0.301140E-02
     16238 MEMB     130      PMPE     H16Y     HAL3     0.900000E-01   1.00800           0   0.00000     -0.301140E-02
     16239 MEMB     130      PMPE     H16Z     HAL3     0.900000E-01   1.00800           0   0.00000     -0.301140E-02
     16240 MEMB     131      QMPE     N        NH3L    -0.300000       14.0070           0   0.00000     -0.301140E-02
     16241 MEMB     131      QMPE     HN1      HCL      0.330000       1.00800           0   0.00000     -0.301140E-02
     16242 MEMB     131      QMPE     HN2      HCL      0.330000       1.00800           0   0.00000     -0.301140E-02
     16243 MEMB     131      QMPE     HN3      HCL      0.330000       1.00800           0   0.00000     -0.301140E-02
     16244 MEMB     131      QMPE     C12      CTL2     0.130000       12.0110           0   0.00000     -0.301140E-02
     16245 MEMB     131      QMPE     H12A     HAL2     0.900000E-01   1.00800           0   0.00000     -0.301140E-02
     16246 MEMB     131      QMPE     H12B     HAL2     0.900000E-01   1.00800           0   0.00000     -0.301140E-02
     16247 MEMB     131      QMPE     C11      CTL2    -0.800000E-01   12.0110           0   0.00000     -0.301140E-02
     16248 MEMB     131      QMPE     H11A     HAL2     0.900000E-01   1.00800           0   0.00000     -0.301140E-02
     16249 MEMB     131      QMPE     H11B     HAL2     0.900000E-01   1.00800           0   0.00000     -0.301140E-02
     16250 MEMB     131      QMPE     P        PL        1.50000       30.9740           0   0.00000     -0.301140E-02
     16251 MEMB     131      QMPE     O13      O2L     -0.780000       15.9994           0   0.00000     -0.301140E-02
     16252 MEMB     131      QMPE     O14      O2L     -0.780000       15.9994           0   0.00000     -0.301140E-02
     16253 MEMB     131      QMPE     O11      OSLP    -0.570000       15.9994           0   0.00000     -0.301140E-02
     16254 MEMB     131      QMPE     O12      OSLP    -0.570000       15.9994           0   0.00000     -0.301140E-02
     16255 MEMB     131      QMPE     C1       CTL2    -0.800000E-01   12.0110           0   0.00000     -0.301140E-02
     16256 MEMB     131      QMPE     HA       HAL2     0.900000E-01   1.00800           0   0.00000     -0.301140E-02
     16257 MEMB     131      QMPE     HB       HAL2     0.900000E-01   1.00800           0   0.00000     -0.301140E-02
     16258 MEMB     131      QMPE     C2       CTL1     0.170000       12.0110           0   0.00000     -0.301140E-02
     16259 MEMB     131      QMPE     HS       HAL1     0.900000E-01   1.00800           0   0.00000     -0.301140E-02
     16260 MEMB     131      QMPE     O21      OSL     -0.490000       15.9994           0   0.00000     -0.301140E-02
     16261 MEMB     131      QMPE     C21      CL       0.900000       12.0110           0   0.00000     -0.301140E-02
     16262 MEMB     131      QMPE     O22      OBL     -0.630000       15.9994           0   0.00000     -0.301140E-02
     16263 MEMB     131      QMPE     C22      CTL2    -0.220000       12.0110           0   0.00000     -0.301140E-02
     16264 MEMB     131      QMPE     H2R      HAL2     0.900000E-01   1.00800           0   0.00000     -0.301140E-02
     16265 MEMB     131      QMPE     H2S      HAL2     0.900000E-01   1.00800           0   0.00000     -0.301140E-02
     16266 MEMB     131      QMPE     C3       CTL2     0.800000E-01   12.0110           0   0.00000     -0.301140E-02
     16267 MEMB     131      QMPE     HX       HAL2     0.900000E-01   1.00800           0   0.00000     -0.301140E-02
     16268 MEMB     131      QMPE     HY       HAL2     0.900000E-01   1.00800           0   0.00000     -0.301140E-02
     16269 MEMB     131      QMPE     O31      OSL     -0.490000       15.9994           0   0.00000     -0.301140E-02
     16270 MEMB     131      QMPE     C31      CL       0.900000       12.0110           0   0.00000     -0.301140E-02
     16271 MEMB     131      QMPE     O32      OBL     -0.630000       15.9994           0   0.00000     -0.301140E-02
     16272 MEMB     131      QMPE     C32      CTL2    -0.220000       12.0110           0   0.00000     -0.301140E-02
     16273 MEMB     131      QMPE     H2X      HAL2     0.900000E-01   1.00800           0   0.00000     -0.301140E-02
     16274 MEMB     131      QMPE     H2Y      HAL2     0.900000E-01   1.00800           0   0.00000     -0.301140E-02
     16275 MEMB     131      QMPE     C23      CTL2    -0.180000       12.0110           0   0.00000     -0.301140E-02
     16276 MEMB     131      QMPE     H3R      HAL2     0.900000E-01   1.00800           0   0.00000     -0.301140E-02
     16277 MEMB     131      QMPE     H3S      HAL2     0.900000E-01   1.00800           0   0.00000     -0.301140E-02
     16278 MEMB     131      QMPE     C24      CTL2    -0.180000       12.0110           0   0.00000     -0.301140E-02
     16279 MEMB     131      QMPE     H4R      HAL2     0.900000E-01   1.00800           0   0.00000     -0.301140E-02
     16280 MEMB     131      QMPE     H4S      HAL2     0.900000E-01   1.00800           0   0.00000     -0.301140E-02
     16281 MEMB     131      QMPE     C25      CTL2    -0.180000       12.0110           0   0.00000     -0.301140E-02
     16282 MEMB     131      QMPE     H5R      HAL2     0.900000E-01   1.00800           0   0.00000     -0.301140E-02
     16283 MEMB     131      QMPE     H5S      HAL2     0.900000E-01   1.00800           0   0.00000     -0.301140E-02
     16284 MEMB     131      QMPE     C26      CTL2    -0.180000       12.0110           0   0.00000     -0.301140E-02
     16285 MEMB     131      QMPE     H6R      HAL2     0.900000E-01   1.00800           0   0.00000     -0.301140E-02
     16286 MEMB     131      QMPE     H6S      HAL2     0.900000E-01   1.00800           0   0.00000     -0.301140E-02
     16287 MEMB     131      QMPE     C27      CTL2    -0.180000       12.0110           0   0.00000     -0.301140E-02
     16288 MEMB     131      QMPE     H7R      HAL2     0.900000E-01   1.00800           0   0.00000     -0.301140E-02
     16289 MEMB     131      QMPE     H7S      HAL2     0.900000E-01   1.00800           0   0.00000     -0.301140E-02
     16290 MEMB     131      QMPE     C28      CTL2    -0.180000       12.0110           0   0.00000     -0.301140E-02
     16291 MEMB     131      QMPE     H8R      HAL2     0.900000E-01   1.00800           0   0.00000     -0.301140E-02
     16292 MEMB     131      QMPE     H8S      HAL2     0.900000E-01   1.00800           0   0.00000     -0.301140E-02
     16293 MEMB     131      QMPE     C29      CG3RC1  -0.900000E-01   12.0110           0   0.00000     -0.301140E-02
     16294 MEMB     131      QMPE     H9R      HGA1     0.900000E-01   1.00800           0   0.00000     -0.301140E-02
     16295 MEMB     131      QMPE     C217     CG3C31  -0.180000       12.0110           0   0.00000     -0.301140E-02
     16296 MEMB     131      QMPE     H17R     HGA2     0.900000E-01   1.00800           0   0.00000     -0.301140E-02
     16297 MEMB     131      QMPE     H17S     HGA2     0.900000E-01   1.00800           0   0.00000     -0.301140E-02
     16298 MEMB     131      QMPE     C210     CG3RC1  -0.900000E-01   12.0110           0   0.00000     -0.301140E-02
     16299 MEMB     131      QMPE     H10R     HGA1     0.900000E-01   1.00800           0   0.00000     -0.301140E-02
     16300 MEMB     131      QMPE     C211     CTL2    -0.180000       12.0110           0   0.00000     -0.301140E-02
     16301 MEMB     131      QMPE     H11R     HAL2     0.900000E-01   1.00800           0   0.00000     -0.301140E-02
     16302 MEMB     131      QMPE     H11S     HAL2     0.900000E-01   1.00800           0   0.00000     -0.301140E-02
     16303 MEMB     131      QMPE     C212     CTL2    -0.180000       12.0110           0   0.00000     -0.301140E-02
     16304 MEMB     131      QMPE     H12R     HAL2     0.900000E-01   1.00800           0   0.00000     -0.301140E-02
     16305 MEMB     131      QMPE     H12S     HAL2     0.900000E-01   1.00800           0   0.00000     -0.301140E-02
     16306 MEMB     131      QMPE     C213     CTL2    -0.180000       12.0110           0   0.00000     -0.301140E-02
     16307 MEMB     131      QMPE     H13R     HAL2     0.900000E-01   1.00800           0   0.00000     -0.301140E-02
     16308 MEMB     131      QMPE     H13S     HAL2     0.900000E-01   1.00800           0   0.00000     -0.301140E-02
     16309 MEMB     131      QMPE     C214     CTL2    -0.180000       12.0110           0   0.00000     -0.301140E-02
     16310 MEMB     131      QMPE     H14R     HAL2     0.900000E-01   1.00800           0   0.00000     -0.301140E-02
     16311 MEMB     131      QMPE     H14S     HAL2     0.900000E-01   1.00800           0   0.00000     -0.301140E-02
     16312 MEMB     131      QMPE     C215     CTL2    -0.180000       12.0110           0   0.00000     -0.301140E-02
     16313 MEMB     131      QMPE     H15R     HAL2     0.900000E-01   1.00800           0   0.00000     -0.301140E-02
     16314 MEMB     131      QMPE     H15S     HAL2     0.900000E-01   1.00800           0   0.00000     -0.301140E-02
     16315 MEMB     131      QMPE     C216     CTL3    -0.270000       12.0110           0   0.00000     -0.301140E-02
     16316 MEMB     131      QMPE     H16R     HAL3     0.900000E-01   1.00800           0   0.00000     -0.301140E-02
     16317 MEMB     131      QMPE     H16S     HAL3     0.900000E-01   1.00800           0   0.00000     -0.301140E-02
     16318 MEMB     131      QMPE     H16T     HAL3     0.900000E-01   1.00800           0   0.00000     -0.301140E-02
     16319 MEMB     131      QMPE     C33      CTL2    -0.180000       12.0110           0   0.00000     -0.301140E-02
     16320 MEMB     131      QMPE     H3X      HAL2     0.900000E-01   1.00800           0   0.00000     -0.301140E-02
     16321 MEMB     131      QMPE     H3Y      HAL2     0.900000E-01   1.00800           0   0.00000     -0.301140E-02
     16322 MEMB     131      QMPE     C34      CTL2    -0.180000       12.0110           0   0.00000     -0.301140E-02
     16323 MEMB     131      QMPE     H4X      HAL2     0.900000E-01   1.00800           0   0.00000     -0.301140E-02
     16324 MEMB     131      QMPE     H4Y      HAL2     0.900000E-01   1.00800           0   0.00000     -0.301140E-02
     16325 MEMB     131      QMPE     C35      CTL2    -0.180000       12.0110           0   0.00000     -0.301140E-02
     16326 MEMB     131      QMPE     H5X      HAL2     0.900000E-01   1.00800           0   0.00000     -0.301140E-02
     16327 MEMB     131      QMPE     H5Y      HAL2     0.900000E-01   1.00800           0   0.00000     -0.301140E-02
     16328 MEMB     131      QMPE     C36      CTL2    -0.180000       12.0110           0   0.00000     -0.301140E-02
     16329 MEMB     131      QMPE     H6X      HAL2     0.900000E-01   1.00800           0   0.00000     -0.301140E-02
     16330 MEMB     131      QMPE     H6Y      HAL2     0.900000E-01   1.00800           0   0.00000     -0.301140E-02
     16331 MEMB     131      QMPE     C37      CTL2    -0.180000       12.0110           0   0.00000     -0.301140E-02
     16332 MEMB     131      QMPE     H7X      HAL2     0.900000E-01   1.00800           0   0.00000     -0.301140E-02
     16333 MEMB     131      QMPE     H7Y      HAL2     0.900000E-01   1.00800           0   0.00000     -0.301140E-02
     16334 MEMB     131      QMPE     C38      CTL2    -0.180000       12.0110           0   0.00000     -0.301140E-02
     16335 MEMB     131      QMPE     H8X      HAL2     0.900000E-01   1.00800           0   0.00000     -0.301140E-02
     16336 MEMB     131      QMPE     H8Y      HAL2     0.900000E-01   1.00800           0   0.00000     -0.301140E-02
     16337 MEMB     131      QMPE     C39      CTL2    -0.180000       12.0110           0   0.00000     -0.301140E-02
     16338 MEMB     131      QMPE     H9X      HAL2     0.900000E-01   1.00800           0   0.00000     -0.301140E-02
     16339 MEMB     131      QMPE     H9Y      HAL2     0.900000E-01   1.00800           0   0.00000     -0.301140E-02
     16340 MEMB     131      QMPE     C310     CTL2    -0.180000       12.0110           0   0.00000     -0.301140E-02
     16341 MEMB     131      QMPE     H10X     HAL2     0.900000E-01   1.00800           0   0.00000     -0.301140E-02
     16342 MEMB     131      QMPE     H10Y     HAL2     0.900000E-01   1.00800           0   0.00000     -0.301140E-02
     16343 MEMB     131      QMPE     C311     CTL2    -0.180000       12.0110           0   0.00000     -0.301140E-02
     16344 MEMB     131      QMPE     H11X     HAL2     0.900000E-01   1.00800           0   0.00000     -0.301140E-02
     16345 MEMB     131      QMPE     H11Y     HAL2     0.900000E-01   1.00800           0   0.00000     -0.301140E-02
     16346 MEMB     131      QMPE     C312     CTL2    -0.180000       12.0110           0   0.00000     -0.301140E-02
     16347 MEMB     131      QMPE     H12X     HAL2     0.900000E-01   1.00800           0   0.00000     -0.301140E-02
     16348 MEMB     131      QMPE     H12Y     HAL2     0.900000E-01   1.00800           0   0.00000     -0.301140E-02
     16349 MEMB     131      QMPE     C313     CTL2    -0.180000       12.0110           0   0.00000     -0.301140E-02
     16350 MEMB     131      QMPE     H13X     HAL2     0.900000E-01   1.00800           0   0.00000     -0.301140E-02
     16351 MEMB     131      QMPE     H13Y     HAL2     0.900000E-01   1.00800           0   0.00000     -0.301140E-02
     16352 MEMB     131      QMPE     C314     CTL2    -0.180000       12.0110           0   0.00000     -0.301140E-02
     16353 MEMB     131      QMPE     H14X     HAL2     0.900000E-01   1.00800           0   0.00000     -0.301140E-02
     16354 MEMB     131      QMPE     H14Y     HAL2     0.900000E-01   1.00800           0   0.00000     -0.301140E-02
     16355 MEMB     131      QMPE     C315     CTL3    -0.270000       12.0110           0   0.00000     -0.301140E-02
     16356 MEMB     131      QMPE     H15X     HAL3     0.900000E-01   1.00800           0   0.00000     -0.301140E-02
     16357 MEMB     131      QMPE     H15Y     HAL3     0.900000E-01   1.00800           0   0.00000     -0.301140E-02
     16358 MEMB     131      QMPE     H15Z     HAL3     0.900000E-01   1.00800           0   0.00000     -0.301140E-02
     16359 MEMB     132      PMPE     N        NH3L    -0.300000       14.0070           0   0.00000     -0.301140E-02
     16360 MEMB     132      PMPE     HN1      HCL      0.330000       1.00800           0   0.00000     -0.301140E-02
     16361 MEMB     132      PMPE     HN2      HCL      0.330000       1.00800           0   0.00000     -0.301140E-02
     16362 MEMB     132      PMPE     HN3      HCL      0.330000       1.00800           0   0.00000     -0.301140E-02
     16363 MEMB     132      PMPE     C12      CTL2     0.130000       12.0110           0   0.00000     -0.301140E-02
     16364 MEMB     132      PMPE     H12A     HAL2     0.900000E-01   1.00800           0   0.00000     -0.301140E-02
     16365 MEMB     132      PMPE     H12B     HAL2     0.900000E-01   1.00800           0   0.00000     -0.301140E-02
     16366 MEMB     132      PMPE     C11      CTL2    -0.800000E-01   12.0110           0   0.00000     -0.301140E-02
     16367 MEMB     132      PMPE     H11A     HAL2     0.900000E-01   1.00800           0   0.00000     -0.301140E-02
     16368 MEMB     132      PMPE     H11B     HAL2     0.900000E-01   1.00800           0   0.00000     -0.301140E-02
     16369 MEMB     132      PMPE     P        PL        1.50000       30.9740           0   0.00000     -0.301140E-02
     16370 MEMB     132      PMPE     O13      O2L     -0.780000       15.9994           0   0.00000     -0.301140E-02
     16371 MEMB     132      PMPE     O14      O2L     -0.780000       15.9994           0   0.00000     -0.301140E-02
     16372 MEMB     132      PMPE     O11      OSLP    -0.570000       15.9994           0   0.00000     -0.301140E-02
     16373 MEMB     132      PMPE     O12      OSLP    -0.570000       15.9994           0   0.00000     -0.301140E-02
     16374 MEMB     132      PMPE     C1       CTL2    -0.800000E-01   12.0110           0   0.00000     -0.301140E-02
     16375 MEMB     132      PMPE     HA       HAL2     0.900000E-01   1.00800           0   0.00000     -0.301140E-02
     16376 MEMB     132      PMPE     HB       HAL2     0.900000E-01   1.00800           0   0.00000     -0.301140E-02
     16377 MEMB     132      PMPE     C2       CTL1     0.170000       12.0110           0   0.00000     -0.301140E-02
     16378 MEMB     132      PMPE     HS       HAL1     0.900000E-01   1.00800           0   0.00000     -0.301140E-02
     16379 MEMB     132      PMPE     O21      OSL     -0.490000       15.9994           0   0.00000     -0.301140E-02
     16380 MEMB     132      PMPE     C21      CL       0.900000       12.0110           0   0.00000     -0.301140E-02
     16381 MEMB     132      PMPE     O22      OBL     -0.630000       15.9994           0   0.00000     -0.301140E-02
     16382 MEMB     132      PMPE     C22      CTL2    -0.220000       12.0110           0   0.00000     -0.301140E-02
     16383 MEMB     132      PMPE     H2R      HAL2     0.900000E-01   1.00800           0   0.00000     -0.301140E-02
     16384 MEMB     132      PMPE     H2S      HAL2     0.900000E-01   1.00800           0   0.00000     -0.301140E-02
     16385 MEMB     132      PMPE     C3       CTL2     0.800000E-01   12.0110           0   0.00000     -0.301140E-02
     16386 MEMB     132      PMPE     HX       HAL2     0.900000E-01   1.00800           0   0.00000     -0.301140E-02
     16387 MEMB     132      PMPE     HY       HAL2     0.900000E-01   1.00800           0   0.00000     -0.301140E-02
     16388 MEMB     132      PMPE     O31      OSL     -0.490000       15.9994           0   0.00000     -0.301140E-02
     16389 MEMB     132      PMPE     C31      CL       0.900000       12.0110           0   0.00000     -0.301140E-02
     16390 MEMB     132      PMPE     O32      OBL     -0.630000       15.9994           0   0.00000     -0.301140E-02
     16391 MEMB     132      PMPE     C32      CTL2    -0.220000       12.0110           0   0.00000     -0.301140E-02
     16392 MEMB     132      PMPE     H2X      HAL2     0.900000E-01   1.00800           0   0.00000     -0.301140E-02
     16393 MEMB     132      PMPE     H2Y      HAL2     0.900000E-01   1.00800           0   0.00000     -0.301140E-02
     16394 MEMB     132      PMPE     C23      CTL2    -0.180000       12.0110           0   0.00000     -0.301140E-02
     16395 MEMB     132      PMPE     H3R      HAL2     0.900000E-01   1.00800           0   0.00000     -0.301140E-02
     16396 MEMB     132      PMPE     H3S      HAL2     0.900000E-01   1.00800           0   0.00000     -0.301140E-02
     16397 MEMB     132      PMPE     C24      CTL2    -0.180000       12.0110           0   0.00000     -0.301140E-02
     16398 MEMB     132      PMPE     H4R      HAL2     0.900000E-01   1.00800           0   0.00000     -0.301140E-02
     16399 MEMB     132      PMPE     H4S      HAL2     0.900000E-01   1.00800           0   0.00000     -0.301140E-02
     16400 MEMB     132      PMPE     C25      CTL2    -0.180000       12.0110           0   0.00000     -0.301140E-02
     16401 MEMB     132      PMPE     H5R      HAL2     0.900000E-01   1.00800           0   0.00000     -0.301140E-02
     16402 MEMB     132      PMPE     H5S      HAL2     0.900000E-01   1.00800           0   0.00000     -0.301140E-02
     16403 MEMB     132      PMPE     C26      CTL2    -0.180000       12.0110           0   0.00000     -0.301140E-02
     16404 MEMB     132      PMPE     H6R      HAL2     0.900000E-01   1.00800           0   0.00000     -0.301140E-02
     16405 MEMB     132      PMPE     H6S      HAL2     0.900000E-01   1.00800           0   0.00000     -0.301140E-02
     16406 MEMB     132      PMPE     C27      CTL2    -0.180000       12.0110           0   0.00000     -0.301140E-02
     16407 MEMB     132      PMPE     H7R      HAL2     0.900000E-01   1.00800           0   0.00000     -0.301140E-02
     16408 MEMB     132      PMPE     H7S      HAL2     0.900000E-01   1.00800           0   0.00000     -0.301140E-02
     16409 MEMB     132      PMPE     C28      CTL2    -0.180000       12.0110           0   0.00000     -0.301140E-02
     16410 MEMB     132      PMPE     H8R      HAL2     0.900000E-01   1.00800           0   0.00000     -0.301140E-02
     16411 MEMB     132      PMPE     H8S      HAL2     0.900000E-01   1.00800           0   0.00000     -0.301140E-02
     16412 MEMB     132      PMPE     C29      CG3RC1  -0.900000E-01   12.0110           0   0.00000     -0.301140E-02
     16413 MEMB     132      PMPE     H9R      HGA1     0.900000E-01   1.00800           0   0.00000     -0.301140E-02
     16414 MEMB     132      PMPE     C217     CG3C31  -0.180000       12.0110           0   0.00000     -0.301140E-02
     16415 MEMB     132      PMPE     H17R     HGA2     0.900000E-01   1.00800           0   0.00000     -0.301140E-02
     16416 MEMB     132      PMPE     H17S     HGA2     0.900000E-01   1.00800           0   0.00000     -0.301140E-02
     16417 MEMB     132      PMPE     C210     CG3RC1  -0.900000E-01   12.0110           0   0.00000     -0.301140E-02
     16418 MEMB     132      PMPE     H10R     HGA1     0.900000E-01   1.00800           0   0.00000     -0.301140E-02
     16419 MEMB     132      PMPE     C211     CTL2    -0.180000       12.0110           0   0.00000     -0.301140E-02
     16420 MEMB     132      PMPE     H11R     HAL2     0.900000E-01   1.00800           0   0.00000     -0.301140E-02
     16421 MEMB     132      PMPE     H11S     HAL2     0.900000E-01   1.00800           0   0.00000     -0.301140E-02
     16422 MEMB     132      PMPE     C212     CTL2    -0.180000       12.0110           0   0.00000     -0.301140E-02
     16423 MEMB     132      PMPE     H12R     HAL2     0.900000E-01   1.00800           0   0.00000     -0.301140E-02
     16424 MEMB     132      PMPE     H12S     HAL2     0.900000E-01   1.00800           0   0.00000     -0.301140E-02
     16425 MEMB     132      PMPE     C213     CTL2    -0.180000       12.0110           0   0.00000     -0.301140E-02
     16426 MEMB     132      PMPE     H13R     HAL2     0.900000E-01   1.00800           0   0.00000     -0.301140E-02
     16427 MEMB     132      PMPE     H13S     HAL2     0.900000E-01   1.00800           0   0.00000     -0.301140E-02
     16428 MEMB     132      PMPE     C214     CTL2    -0.180000       12.0110           0   0.00000     -0.301140E-02
     16429 MEMB     132      PMPE     H14R     HAL2     0.900000E-01   1.00800           0   0.00000     -0.301140E-02
     16430 MEMB     132      PMPE     H14S     HAL2     0.900000E-01   1.00800           0   0.00000     -0.301140E-02
     16431 MEMB     132      PMPE     C215     CTL2    -0.180000       12.0110           0   0.00000     -0.301140E-02
     16432 MEMB     132      PMPE     H15R     HAL2     0.900000E-01   1.00800           0   0.00000     -0.301140E-02
     16433 MEMB     132      PMPE     H15S     HAL2     0.900000E-01   1.00800           0   0.00000     -0.301140E-02
     16434 MEMB     132      PMPE     C216     CTL3    -0.270000       12.0110           0   0.00000     -0.301140E-02
     16435 MEMB     132      PMPE     H16R     HAL3     0.900000E-01   1.00800           0   0.00000     -0.301140E-02
     16436 MEMB     132      PMPE     H16S     HAL3     0.900000E-01   1.00800           0   0.00000     -0.301140E-02
     16437 MEMB     132      PMPE     H16T     HAL3     0.900000E-01   1.00800           0   0.00000     -0.301140E-02
     16438 MEMB     132      PMPE     C33      CTL2    -0.180000       12.0110           0   0.00000     -0.301140E-02
     16439 MEMB     132      PMPE     H3X      HAL2     0.900000E-01   1.00800           0   0.00000     -0.301140E-02
     16440 MEMB     132      PMPE     H3Y      HAL2     0.900000E-01   1.00800           0   0.00000     -0.301140E-02
     16441 MEMB     132      PMPE     C34      CTL2    -0.180000       12.0110           0   0.00000     -0.301140E-02
     16442 MEMB     132      PMPE     H4X      HAL2     0.900000E-01   1.00800           0   0.00000     -0.301140E-02
     16443 MEMB     132      PMPE     H4Y      HAL2     0.900000E-01   1.00800           0   0.00000     -0.301140E-02
     16444 MEMB     132      PMPE     C35      CTL2    -0.180000       12.0110           0   0.00000     -0.301140E-02
     16445 MEMB     132      PMPE     H5X      HAL2     0.900000E-01   1.00800           0   0.00000     -0.301140E-02
     16446 MEMB     132      PMPE     H5Y      HAL2     0.900000E-01   1.00800           0   0.00000     -0.301140E-02
     16447 MEMB     132      PMPE     C36      CTL2    -0.180000       12.0110           0   0.00000     -0.301140E-02
     16448 MEMB     132      PMPE     H6X      HAL2     0.900000E-01   1.00800           0   0.00000     -0.301140E-02
     16449 MEMB     132      PMPE     H6Y      HAL2     0.900000E-01   1.00800           0   0.00000     -0.301140E-02
     16450 MEMB     132      PMPE     C37      CTL2    -0.180000       12.0110           0   0.00000     -0.301140E-02
     16451 MEMB     132      PMPE     H7X      HAL2     0.900000E-01   1.00800           0   0.00000     -0.301140E-02
     16452 MEMB     132      PMPE     H7Y      HAL2     0.900000E-01   1.00800           0   0.00000     -0.301140E-02
     16453 MEMB     132      PMPE     C38      CTL2    -0.180000       12.0110           0   0.00000     -0.301140E-02
     16454 MEMB     132      PMPE     H8X      HAL2     0.900000E-01   1.00800           0   0.00000     -0.301140E-02
     16455 MEMB     132      PMPE     H8Y      HAL2     0.900000E-01   1.00800           0   0.00000     -0.301140E-02
     16456 MEMB     132      PMPE     C39      CTL2    -0.180000       12.0110           0   0.00000     -0.301140E-02
     16457 MEMB     132      PMPE     H9X      HAL2     0.900000E-01   1.00800           0   0.00000     -0.301140E-02
     16458 MEMB     132      PMPE     H9Y      HAL2     0.900000E-01   1.00800           0   0.00000     -0.301140E-02
     16459 MEMB     132      PMPE     C310     CTL2    -0.180000       12.0110           0   0.00000     -0.301140E-02
     16460 MEMB     132      PMPE     H10X     HAL2     0.900000E-01   1.00800           0   0.00000     -0.301140E-02
     16461 MEMB     132      PMPE     H10Y     HAL2     0.900000E-01   1.00800           0   0.00000     -0.301140E-02
     16462 MEMB     132      PMPE     C311     CTL2    -0.180000       12.0110           0   0.00000     -0.301140E-02
     16463 MEMB     132      PMPE     H11X     HAL2     0.900000E-01   1.00800           0   0.00000     -0.301140E-02
     16464 MEMB     132      PMPE     H11Y     HAL2     0.900000E-01   1.00800           0   0.00000     -0.301140E-02
     16465 MEMB     132      PMPE     C312     CTL2    -0.180000       12.0110           0   0.00000     -0.301140E-02
     16466 MEMB     132      PMPE     H12X     HAL2     0.900000E-01   1.00800           0   0.00000     -0.301140E-02
     16467 MEMB     132      PMPE     H12Y     HAL2     0.900000E-01   1.00800           0   0.00000     -0.301140E-02
     16468 MEMB     132      PMPE     C313     CTL2    -0.180000       12.0110           0   0.00000     -0.301140E-02
     16469 MEMB     132      PMPE     H13X     HAL2     0.900000E-01   1.00800           0   0.00000     -0.301140E-02
     16470 MEMB     132      PMPE     H13Y     HAL2     0.900000E-01   1.00800           0   0.00000     -0.301140E-02
     16471 MEMB     132      PMPE     C314     CTL2    -0.180000       12.0110           0   0.00000     -0.301140E-02
     16472 MEMB     132      PMPE     H14X     HAL2     0.900000E-01   1.00800           0   0.00000     -0.301140E-02
     16473 MEMB     132      PMPE     H14Y     HAL2     0.900000E-01   1.00800           0   0.00000     -0.301140E-02
     16474 MEMB     132      PMPE     C315     CTL2    -0.180000       12.0110           0   0.00000     -0.301140E-02
     16475 MEMB     132      PMPE     H15X     HAL2     0.900000E-01   1.00800           0   0.00000     -0.301140E-02
     16476 MEMB     132      PMPE     H15Y     HAL2     0.900000E-01   1.00800           0   0.00000     -0.301140E-02
     16477 MEMB     132      PMPE     C316     CTL3    -0.270000       12.0110           0   0.00000     -0.301140E-02
     16478 MEMB     132      PMPE     H16X     HAL3     0.900000E-01   1.00800           0   0.00000     -0.301140E-02
     16479 MEMB     132      PMPE     H16Y     HAL3     0.900000E-01   1.00800           0   0.00000     -0.301140E-02
     16480 MEMB     132      PMPE     H16Z     HAL3     0.900000E-01   1.00800           0   0.00000     -0.301140E-02
     16481 MEMB     133      QMPE     N        NH3L    -0.300000       14.0070           0   0.00000     -0.301140E-02
     16482 MEMB     133      QMPE     HN1      HCL      0.330000       1.00800           0   0.00000     -0.301140E-02
     16483 MEMB     133      QMPE     HN2      HCL      0.330000       1.00800           0   0.00000     -0.301140E-02
     16484 MEMB     133      QMPE     HN3      HCL      0.330000       1.00800           0   0.00000     -0.301140E-02
     16485 MEMB     133      QMPE     C12      CTL2     0.130000       12.0110           0   0.00000     -0.301140E-02
     16486 MEMB     133      QMPE     H12A     HAL2     0.900000E-01   1.00800           0   0.00000     -0.301140E-02
     16487 MEMB     133      QMPE     H12B     HAL2     0.900000E-01   1.00800           0   0.00000     -0.301140E-02
     16488 MEMB     133      QMPE     C11      CTL2    -0.800000E-01   12.0110           0   0.00000     -0.301140E-02
     16489 MEMB     133      QMPE     H11A     HAL2     0.900000E-01   1.00800           0   0.00000     -0.301140E-02
     16490 MEMB     133      QMPE     H11B     HAL2     0.900000E-01   1.00800           0   0.00000     -0.301140E-02
     16491 MEMB     133      QMPE     P        PL        1.50000       30.9740           0   0.00000     -0.301140E-02
     16492 MEMB     133      QMPE     O13      O2L     -0.780000       15.9994           0   0.00000     -0.301140E-02
     16493 MEMB     133      QMPE     O14      O2L     -0.780000       15.9994           0   0.00000     -0.301140E-02
     16494 MEMB     133      QMPE     O11      OSLP    -0.570000       15.9994           0   0.00000     -0.301140E-02
     16495 MEMB     133      QMPE     O12      OSLP    -0.570000       15.9994           0   0.00000     -0.301140E-02
     16496 MEMB     133      QMPE     C1       CTL2    -0.800000E-01   12.0110           0   0.00000     -0.301140E-02
     16497 MEMB     133      QMPE     HA       HAL2     0.900000E-01   1.00800           0   0.00000     -0.301140E-02
     16498 MEMB     133      QMPE     HB       HAL2     0.900000E-01   1.00800           0   0.00000     -0.301140E-02
     16499 MEMB     133      QMPE     C2       CTL1     0.170000       12.0110           0   0.00000     -0.301140E-02
     16500 MEMB     133      QMPE     HS       HAL1     0.900000E-01   1.00800           0   0.00000     -0.301140E-02
     16501 MEMB     133      QMPE     O21      OSL     -0.490000       15.9994           0   0.00000     -0.301140E-02
     16502 MEMB     133      QMPE     C21      CL       0.900000       12.0110           0   0.00000     -0.301140E-02
     16503 MEMB     133      QMPE     O22      OBL     -0.630000       15.9994           0   0.00000     -0.301140E-02
     16504 MEMB     133      QMPE     C22      CTL2    -0.220000       12.0110           0   0.00000     -0.301140E-02
     16505 MEMB     133      QMPE     H2R      HAL2     0.900000E-01   1.00800           0   0.00000     -0.301140E-02
     16506 MEMB     133      QMPE     H2S      HAL2     0.900000E-01   1.00800           0   0.00000     -0.301140E-02
     16507 MEMB     133      QMPE     C3       CTL2     0.800000E-01   12.0110           0   0.00000     -0.301140E-02
     16508 MEMB     133      QMPE     HX       HAL2     0.900000E-01   1.00800           0   0.00000     -0.301140E-02
     16509 MEMB     133      QMPE     HY       HAL2     0.900000E-01   1.00800           0   0.00000     -0.301140E-02
     16510 MEMB     133      QMPE     O31      OSL     -0.490000       15.9994           0   0.00000     -0.301140E-02
     16511 MEMB     133      QMPE     C31      CL       0.900000       12.0110           0   0.00000     -0.301140E-02
     16512 MEMB     133      QMPE     O32      OBL     -0.630000       15.9994           0   0.00000     -0.301140E-02
     16513 MEMB     133      QMPE     C32      CTL2    -0.220000       12.0110           0   0.00000     -0.301140E-02
     16514 MEMB     133      QMPE     H2X      HAL2     0.900000E-01   1.00800           0   0.00000     -0.301140E-02
     16515 MEMB     133      QMPE     H2Y      HAL2     0.900000E-01   1.00800           0   0.00000     -0.301140E-02
     16516 MEMB     133      QMPE     C23      CTL2    -0.180000       12.0110           0   0.00000     -0.301140E-02
     16517 MEMB     133      QMPE     H3R      HAL2     0.900000E-01   1.00800           0   0.00000     -0.301140E-02
     16518 MEMB     133      QMPE     H3S      HAL2     0.900000E-01   1.00800           0   0.00000     -0.301140E-02
     16519 MEMB     133      QMPE     C24      CTL2    -0.180000       12.0110           0   0.00000     -0.301140E-02
     16520 MEMB     133      QMPE     H4R      HAL2     0.900000E-01   1.00800           0   0.00000     -0.301140E-02
     16521 MEMB     133      QMPE     H4S      HAL2     0.900000E-01   1.00800           0   0.00000     -0.301140E-02
     16522 MEMB     133      QMPE     C25      CTL2    -0.180000       12.0110           0   0.00000     -0.301140E-02
     16523 MEMB     133      QMPE     H5R      HAL2     0.900000E-01   1.00800           0   0.00000     -0.301140E-02
     16524 MEMB     133      QMPE     H5S      HAL2     0.900000E-01   1.00800           0   0.00000     -0.301140E-02
     16525 MEMB     133      QMPE     C26      CTL2    -0.180000       12.0110           0   0.00000     -0.301140E-02
     16526 MEMB     133      QMPE     H6R      HAL2     0.900000E-01   1.00800           0   0.00000     -0.301140E-02
     16527 MEMB     133      QMPE     H6S      HAL2     0.900000E-01   1.00800           0   0.00000     -0.301140E-02
     16528 MEMB     133      QMPE     C27      CTL2    -0.180000       12.0110           0   0.00000     -0.301140E-02
     16529 MEMB     133      QMPE     H7R      HAL2     0.900000E-01   1.00800           0   0.00000     -0.301140E-02
     16530 MEMB     133      QMPE     H7S      HAL2     0.900000E-01   1.00800           0   0.00000     -0.301140E-02
     16531 MEMB     133      QMPE     C28      CTL2    -0.180000       12.0110           0   0.00000     -0.301140E-02
     16532 MEMB     133      QMPE     H8R      HAL2     0.900000E-01   1.00800           0   0.00000     -0.301140E-02
     16533 MEMB     133      QMPE     H8S      HAL2     0.900000E-01   1.00800           0   0.00000     -0.301140E-02
     16534 MEMB     133      QMPE     C29      CG3RC1  -0.900000E-01   12.0110           0   0.00000     -0.301140E-02
     16535 MEMB     133      QMPE     H9R      HGA1     0.900000E-01   1.00800           0   0.00000     -0.301140E-02
     16536 MEMB     133      QMPE     C217     CG3C31  -0.180000       12.0110           0   0.00000     -0.301140E-02
     16537 MEMB     133      QMPE     H17R     HGA2     0.900000E-01   1.00800           0   0.00000     -0.301140E-02
     16538 MEMB     133      QMPE     H17S     HGA2     0.900000E-01   1.00800           0   0.00000     -0.301140E-02
     16539 MEMB     133      QMPE     C210     CG3RC1  -0.900000E-01   12.0110           0   0.00000     -0.301140E-02
     16540 MEMB     133      QMPE     H10R     HGA1     0.900000E-01   1.00800           0   0.00000     -0.301140E-02
     16541 MEMB     133      QMPE     C211     CTL2    -0.180000       12.0110           0   0.00000     -0.301140E-02
     16542 MEMB     133      QMPE     H11R     HAL2     0.900000E-01   1.00800           0   0.00000     -0.301140E-02
     16543 MEMB     133      QMPE     H11S     HAL2     0.900000E-01   1.00800           0   0.00000     -0.301140E-02
     16544 MEMB     133      QMPE     C212     CTL2    -0.180000       12.0110           0   0.00000     -0.301140E-02
     16545 MEMB     133      QMPE     H12R     HAL2     0.900000E-01   1.00800           0   0.00000     -0.301140E-02
     16546 MEMB     133      QMPE     H12S     HAL2     0.900000E-01   1.00800           0   0.00000     -0.301140E-02
     16547 MEMB     133      QMPE     C213     CTL2    -0.180000       12.0110           0   0.00000     -0.301140E-02
     16548 MEMB     133      QMPE     H13R     HAL2     0.900000E-01   1.00800           0   0.00000     -0.301140E-02
     16549 MEMB     133      QMPE     H13S     HAL2     0.900000E-01   1.00800           0   0.00000     -0.301140E-02
     16550 MEMB     133      QMPE     C214     CTL2    -0.180000       12.0110           0   0.00000     -0.301140E-02
     16551 MEMB     133      QMPE     H14R     HAL2     0.900000E-01   1.00800           0   0.00000     -0.301140E-02
     16552 MEMB     133      QMPE     H14S     HAL2     0.900000E-01   1.00800           0   0.00000     -0.301140E-02
     16553 MEMB     133      QMPE     C215     CTL2    -0.180000       12.0110           0   0.00000     -0.301140E-02
     16554 MEMB     133      QMPE     H15R     HAL2     0.900000E-01   1.00800           0   0.00000     -0.301140E-02
     16555 MEMB     133      QMPE     H15S     HAL2     0.900000E-01   1.00800           0   0.00000     -0.301140E-02
     16556 MEMB     133      QMPE     C216     CTL3    -0.270000       12.0110           0   0.00000     -0.301140E-02
     16557 MEMB     133      QMPE     H16R     HAL3     0.900000E-01   1.00800           0   0.00000     -0.301140E-02
     16558 MEMB     133      QMPE     H16S     HAL3     0.900000E-01   1.00800           0   0.00000     -0.301140E-02
     16559 MEMB     133      QMPE     H16T     HAL3     0.900000E-01   1.00800           0   0.00000     -0.301140E-02
     16560 MEMB     133      QMPE     C33      CTL2    -0.180000       12.0110           0   0.00000     -0.301140E-02
     16561 MEMB     133      QMPE     H3X      HAL2     0.900000E-01   1.00800           0   0.00000     -0.301140E-02
     16562 MEMB     133      QMPE     H3Y      HAL2     0.900000E-01   1.00800           0   0.00000     -0.301140E-02
     16563 MEMB     133      QMPE     C34      CTL2    -0.180000       12.0110           0   0.00000     -0.301140E-02
     16564 MEMB     133      QMPE     H4X      HAL2     0.900000E-01   1.00800           0   0.00000     -0.301140E-02
     16565 MEMB     133      QMPE     H4Y      HAL2     0.900000E-01   1.00800           0   0.00000     -0.301140E-02
     16566 MEMB     133      QMPE     C35      CTL2    -0.180000       12.0110           0   0.00000     -0.301140E-02
     16567 MEMB     133      QMPE     H5X      HAL2     0.900000E-01   1.00800           0   0.00000     -0.301140E-02
     16568 MEMB     133      QMPE     H5Y      HAL2     0.900000E-01   1.00800           0   0.00000     -0.301140E-02
     16569 MEMB     133      QMPE     C36      CTL2    -0.180000       12.0110           0   0.00000     -0.301140E-02
     16570 MEMB     133      QMPE     H6X      HAL2     0.900000E-01   1.00800           0   0.00000     -0.301140E-02
     16571 MEMB     133      QMPE     H6Y      HAL2     0.900000E-01   1.00800           0   0.00000     -0.301140E-02
     16572 MEMB     133      QMPE     C37      CTL2    -0.180000       12.0110           0   0.00000     -0.301140E-02
     16573 MEMB     133      QMPE     H7X      HAL2     0.900000E-01   1.00800           0   0.00000     -0.301140E-02
     16574 MEMB     133      QMPE     H7Y      HAL2     0.900000E-01   1.00800           0   0.00000     -0.301140E-02
     16575 MEMB     133      QMPE     C38      CTL2    -0.180000       12.0110           0   0.00000     -0.301140E-02
     16576 MEMB     133      QMPE     H8X      HAL2     0.900000E-01   1.00800           0   0.00000     -0.301140E-02
     16577 MEMB     133      QMPE     H8Y      HAL2     0.900000E-01   1.00800           0   0.00000     -0.301140E-02
     16578 MEMB     133      QMPE     C39      CTL2    -0.180000       12.0110           0   0.00000     -0.301140E-02
     16579 MEMB     133      QMPE     H9X      HAL2     0.900000E-01   1.00800           0   0.00000     -0.301140E-02
     16580 MEMB     133      QMPE     H9Y      HAL2     0.900000E-01   1.00800           0   0.00000     -0.301140E-02
     16581 MEMB     133      QMPE     C310     CTL2    -0.180000       12.0110           0   0.00000     -0.301140E-02
     16582 MEMB     133      QMPE     H10X     HAL2     0.900000E-01   1.00800           0   0.00000     -0.301140E-02
     16583 MEMB     133      QMPE     H10Y     HAL2     0.900000E-01   1.00800           0   0.00000     -0.301140E-02
     16584 MEMB     133      QMPE     C311     CTL2    -0.180000       12.0110           0   0.00000     -0.301140E-02
     16585 MEMB     133      QMPE     H11X     HAL2     0.900000E-01   1.00800           0   0.00000     -0.301140E-02
     16586 MEMB     133      QMPE     H11Y     HAL2     0.900000E-01   1.00800           0   0.00000     -0.301140E-02
     16587 MEMB     133      QMPE     C312     CTL2    -0.180000       12.0110           0   0.00000     -0.301140E-02
     16588 MEMB     133      QMPE     H12X     HAL2     0.900000E-01   1.00800           0   0.00000     -0.301140E-02
     16589 MEMB     133      QMPE     H12Y     HAL2     0.900000E-01   1.00800           0   0.00000     -0.301140E-02
     16590 MEMB     133      QMPE     C313     CTL2    -0.180000       12.0110           0   0.00000     -0.301140E-02
     16591 MEMB     133      QMPE     H13X     HAL2     0.900000E-01   1.00800           0   0.00000     -0.301140E-02
     16592 MEMB     133      QMPE     H13Y     HAL2     0.900000E-01   1.00800           0   0.00000     -0.301140E-02
     16593 MEMB     133      QMPE     C314     CTL2    -0.180000       12.0110           0   0.00000     -0.301140E-02
     16594 MEMB     133      QMPE     H14X     HAL2     0.900000E-01   1.00800           0   0.00000     -0.301140E-02
     16595 MEMB     133      QMPE     H14Y     HAL2     0.900000E-01   1.00800           0   0.00000     -0.301140E-02
     16596 MEMB     133      QMPE     C315     CTL3    -0.270000       12.0110           0   0.00000     -0.301140E-02
     16597 MEMB     133      QMPE     H15X     HAL3     0.900000E-01   1.00800           0   0.00000     -0.301140E-02
     16598 MEMB     133      QMPE     H15Y     HAL3     0.900000E-01   1.00800           0   0.00000     -0.301140E-02
     16599 MEMB     133      QMPE     H15Z     HAL3     0.900000E-01   1.00800           0   0.00000     -0.301140E-02
     16600 MEMB     134      OYPE     N        NH3L    -0.300000       14.0070           0   0.00000     -0.301140E-02
     16601 MEMB     134      OYPE     HN1      HCL      0.330000       1.00800           0   0.00000     -0.301140E-02
     16602 MEMB     134      OYPE     HN2      HCL      0.330000       1.00800           0   0.00000     -0.301140E-02
     16603 MEMB     134      OYPE     HN3      HCL      0.330000       1.00800           0   0.00000     -0.301140E-02
     16604 MEMB     134      OYPE     C12      CTL2     0.130000       12.0110           0   0.00000     -0.301140E-02
     16605 MEMB     134      OYPE     H12A     HAL2     0.900000E-01   1.00800           0   0.00000     -0.301140E-02
     16606 MEMB     134      OYPE     H12B     HAL2     0.900000E-01   1.00800           0   0.00000     -0.301140E-02
     16607 MEMB     134      OYPE     C11      CTL2    -0.800000E-01   12.0110           0   0.00000     -0.301140E-02
     16608 MEMB     134      OYPE     H11A     HAL2     0.900000E-01   1.00800           0   0.00000     -0.301140E-02
     16609 MEMB     134      OYPE     H11B     HAL2     0.900000E-01   1.00800           0   0.00000     -0.301140E-02
     16610 MEMB     134      OYPE     P        PL        1.50000       30.9740           0   0.00000     -0.301140E-02
     16611 MEMB     134      OYPE     O13      O2L     -0.780000       15.9994           0   0.00000     -0.301140E-02
     16612 MEMB     134      OYPE     O14      O2L     -0.780000       15.9994           0   0.00000     -0.301140E-02
     16613 MEMB     134      OYPE     O11      OSLP    -0.570000       15.9994           0   0.00000     -0.301140E-02
     16614 MEMB     134      OYPE     O12      OSLP    -0.570000       15.9994           0   0.00000     -0.301140E-02
     16615 MEMB     134      OYPE     C1       CTL2    -0.800000E-01   12.0110           0   0.00000     -0.301140E-02
     16616 MEMB     134      OYPE     HA       HAL2     0.900000E-01   1.00800           0   0.00000     -0.301140E-02
     16617 MEMB     134      OYPE     HB       HAL2     0.900000E-01   1.00800           0   0.00000     -0.301140E-02
     16618 MEMB     134      OYPE     C2       CTL1     0.170000       12.0110           0   0.00000     -0.301140E-02
     16619 MEMB     134      OYPE     HS       HAL1     0.900000E-01   1.00800           0   0.00000     -0.301140E-02
     16620 MEMB     134      OYPE     O21      OSL     -0.490000       15.9994           0   0.00000     -0.301140E-02
     16621 MEMB     134      OYPE     C21      CL       0.900000       12.0110           0   0.00000     -0.301140E-02
     16622 MEMB     134      OYPE     O22      OBL     -0.630000       15.9994           0   0.00000     -0.301140E-02
     16623 MEMB     134      OYPE     C22      CTL2    -0.220000       12.0110           0   0.00000     -0.301140E-02
     16624 MEMB     134      OYPE     H2R      HAL2     0.900000E-01   1.00800           0   0.00000     -0.301140E-02
     16625 MEMB     134      OYPE     H2S      HAL2     0.900000E-01   1.00800           0   0.00000     -0.301140E-02
     16626 MEMB     134      OYPE     C3       CTL2     0.800000E-01   12.0110           0   0.00000     -0.301140E-02
     16627 MEMB     134      OYPE     HX       HAL2     0.900000E-01   1.00800           0   0.00000     -0.301140E-02
     16628 MEMB     134      OYPE     HY       HAL2     0.900000E-01   1.00800           0   0.00000     -0.301140E-02
     16629 MEMB     134      OYPE     O31      OSL     -0.490000       15.9994           0   0.00000     -0.301140E-02
     16630 MEMB     134      OYPE     C31      CL       0.900000       12.0110           0   0.00000     -0.301140E-02
     16631 MEMB     134      OYPE     O32      OBL     -0.630000       15.9994           0   0.00000     -0.301140E-02
     16632 MEMB     134      OYPE     C32      CTL2    -0.220000       12.0110           0   0.00000     -0.301140E-02
     16633 MEMB     134      OYPE     H2X      HAL2     0.900000E-01   1.00800           0   0.00000     -0.301140E-02
     16634 MEMB     134      OYPE     H2Y      HAL2     0.900000E-01   1.00800           0   0.00000     -0.301140E-02
     16635 MEMB     134      OYPE     C23      CTL2    -0.180000       12.0110           0   0.00000     -0.301140E-02
     16636 MEMB     134      OYPE     H3R      HAL2     0.900000E-01   1.00800           0   0.00000     -0.301140E-02
     16637 MEMB     134      OYPE     H3S      HAL2     0.900000E-01   1.00800           0   0.00000     -0.301140E-02
     16638 MEMB     134      OYPE     C24      CTL2    -0.180000       12.0110           0   0.00000     -0.301140E-02
     16639 MEMB     134      OYPE     H4R      HAL2     0.900000E-01   1.00800           0   0.00000     -0.301140E-02
     16640 MEMB     134      OYPE     H4S      HAL2     0.900000E-01   1.00800           0   0.00000     -0.301140E-02
     16641 MEMB     134      OYPE     C25      CTL2    -0.180000       12.0110           0   0.00000     -0.301140E-02
     16642 MEMB     134      OYPE     H5R      HAL2     0.900000E-01   1.00800           0   0.00000     -0.301140E-02
     16643 MEMB     134      OYPE     H5S      HAL2     0.900000E-01   1.00800           0   0.00000     -0.301140E-02
     16644 MEMB     134      OYPE     C26      CTL2    -0.180000       12.0110           0   0.00000     -0.301140E-02
     16645 MEMB     134      OYPE     H6R      HAL2     0.900000E-01   1.00800           0   0.00000     -0.301140E-02
     16646 MEMB     134      OYPE     H6S      HAL2     0.900000E-01   1.00800           0   0.00000     -0.301140E-02
     16647 MEMB     134      OYPE     C27      CTL2    -0.180000       12.0110           0   0.00000     -0.301140E-02
     16648 MEMB     134      OYPE     H7R      HAL2     0.900000E-01   1.00800           0   0.00000     -0.301140E-02
     16649 MEMB     134      OYPE     H7S      HAL2     0.900000E-01   1.00800           0   0.00000     -0.301140E-02
     16650 MEMB     134      OYPE     C28      CTL2    -0.180000       12.0110           0   0.00000     -0.301140E-02
     16651 MEMB     134      OYPE     H8R      HAL2     0.900000E-01   1.00800           0   0.00000     -0.301140E-02
     16652 MEMB     134      OYPE     H8S      HAL2     0.900000E-01   1.00800           0   0.00000     -0.301140E-02
     16653 MEMB     134      OYPE     C29      CEL1    -0.150000       12.0110           0   0.00000     -0.301140E-02
     16654 MEMB     134      OYPE     H9R      HEL1     0.150000       1.00800           0   0.00000     -0.301140E-02
     16655 MEMB     134      OYPE     C210     CEL1    -0.150000       12.0110           0   0.00000     -0.301140E-02
     16656 MEMB     134      OYPE     H10R     HEL1     0.150000       1.00800           0   0.00000     -0.301140E-02
     16657 MEMB     134      OYPE     C211     CTL2    -0.180000       12.0110           0   0.00000     -0.301140E-02
     16658 MEMB     134      OYPE     H11R     HAL2     0.900000E-01   1.00800           0   0.00000     -0.301140E-02
     16659 MEMB     134      OYPE     H11S     HAL2     0.900000E-01   1.00800           0   0.00000     -0.301140E-02
     16660 MEMB     134      OYPE     C212     CTL2    -0.180000       12.0110           0   0.00000     -0.301140E-02
     16661 MEMB     134      OYPE     H12R     HAL2     0.900000E-01   1.00800           0   0.00000     -0.301140E-02
     16662 MEMB     134      OYPE     H12S     HAL2     0.900000E-01   1.00800           0   0.00000     -0.301140E-02
     16663 MEMB     134      OYPE     C213     CTL2    -0.180000       12.0110           0   0.00000     -0.301140E-02
     16664 MEMB     134      OYPE     H13R     HAL2     0.900000E-01   1.00800           0   0.00000     -0.301140E-02
     16665 MEMB     134      OYPE     H13S     HAL2     0.900000E-01   1.00800           0   0.00000     -0.301140E-02
     16666 MEMB     134      OYPE     C214     CTL2    -0.180000       12.0110           0   0.00000     -0.301140E-02
     16667 MEMB     134      OYPE     H14R     HAL2     0.900000E-01   1.00800           0   0.00000     -0.301140E-02
     16668 MEMB     134      OYPE     H14S     HAL2     0.900000E-01   1.00800           0   0.00000     -0.301140E-02
     16669 MEMB     134      OYPE     C215     CTL2    -0.180000       12.0110           0   0.00000     -0.301140E-02
     16670 MEMB     134      OYPE     H15R     HAL2     0.900000E-01   1.00800           0   0.00000     -0.301140E-02
     16671 MEMB     134      OYPE     H15S     HAL2     0.900000E-01   1.00800           0   0.00000     -0.301140E-02
     16672 MEMB     134      OYPE     C216     CTL3    -0.270000       12.0110           0   0.00000     -0.301140E-02
     16673 MEMB     134      OYPE     H16R     HAL3     0.900000E-01   1.00800           0   0.00000     -0.301140E-02
     16674 MEMB     134      OYPE     H16S     HAL3     0.900000E-01   1.00800           0   0.00000     -0.301140E-02
     16675 MEMB     134      OYPE     H16T     HAL3     0.900000E-01   1.00800           0   0.00000     -0.301140E-02
     16676 MEMB     134      OYPE     C33      CTL2    -0.180000       12.0110           0   0.00000     -0.301140E-02
     16677 MEMB     134      OYPE     H3X      HAL2     0.900000E-01   1.00800           0   0.00000     -0.301140E-02
     16678 MEMB     134      OYPE     H3Y      HAL2     0.900000E-01   1.00800           0   0.00000     -0.301140E-02
     16679 MEMB     134      OYPE     C34      CTL2    -0.180000       12.0110           0   0.00000     -0.301140E-02
     16680 MEMB     134      OYPE     H4X      HAL2     0.900000E-01   1.00800           0   0.00000     -0.301140E-02
     16681 MEMB     134      OYPE     H4Y      HAL2     0.900000E-01   1.00800           0   0.00000     -0.301140E-02
     16682 MEMB     134      OYPE     C35      CTL2    -0.180000       12.0110           0   0.00000     -0.301140E-02
     16683 MEMB     134      OYPE     H5X      HAL2     0.900000E-01   1.00800           0   0.00000     -0.301140E-02
     16684 MEMB     134      OYPE     H5Y      HAL2     0.900000E-01   1.00800           0   0.00000     -0.301140E-02
     16685 MEMB     134      OYPE     C36      CTL2    -0.180000       12.0110           0   0.00000     -0.301140E-02
     16686 MEMB     134      OYPE     H6X      HAL2     0.900000E-01   1.00800           0   0.00000     -0.301140E-02
     16687 MEMB     134      OYPE     H6Y      HAL2     0.900000E-01   1.00800           0   0.00000     -0.301140E-02
     16688 MEMB     134      OYPE     C37      CTL2    -0.180000       12.0110           0   0.00000     -0.301140E-02
     16689 MEMB     134      OYPE     H7X      HAL2     0.900000E-01   1.00800           0   0.00000     -0.301140E-02
     16690 MEMB     134      OYPE     H7Y      HAL2     0.900000E-01   1.00800           0   0.00000     -0.301140E-02
     16691 MEMB     134      OYPE     C38      CTL2    -0.180000       12.0110           0   0.00000     -0.301140E-02
     16692 MEMB     134      OYPE     H8X      HAL2     0.900000E-01   1.00800           0   0.00000     -0.301140E-02
     16693 MEMB     134      OYPE     H8Y      HAL2     0.900000E-01   1.00800           0   0.00000     -0.301140E-02
     16694 MEMB     134      OYPE     C39      CEL1    -0.150000       12.0110           0   0.00000     -0.301140E-02
     16695 MEMB     134      OYPE     H9X      HEL1     0.150000       1.00800           0   0.00000     -0.301140E-02
     16696 MEMB     134      OYPE     C310     CEL1    -0.150000       12.0110           0   0.00000     -0.301140E-02
     16697 MEMB     134      OYPE     H10X     HEL1     0.150000       1.00800           0   0.00000     -0.301140E-02
     16698 MEMB     134      OYPE     C311     CTL2    -0.180000       12.0110           0   0.00000     -0.301140E-02
     16699 MEMB     134      OYPE     H11X     HAL2     0.900000E-01   1.00800           0   0.00000     -0.301140E-02
     16700 MEMB     134      OYPE     H11Y     HAL2     0.900000E-01   1.00800           0   0.00000     -0.301140E-02
     16701 MEMB     134      OYPE     C312     CTL2    -0.180000       12.0110           0   0.00000     -0.301140E-02
     16702 MEMB     134      OYPE     H12X     HAL2     0.900000E-01   1.00800           0   0.00000     -0.301140E-02
     16703 MEMB     134      OYPE     H12Y     HAL2     0.900000E-01   1.00800           0   0.00000     -0.301140E-02
     16704 MEMB     134      OYPE     C313     CTL2    -0.180000       12.0110           0   0.00000     -0.301140E-02
     16705 MEMB     134      OYPE     H13X     HAL2     0.900000E-01   1.00800           0   0.00000     -0.301140E-02
     16706 MEMB     134      OYPE     H13Y     HAL2     0.900000E-01   1.00800           0   0.00000     -0.301140E-02
     16707 MEMB     134      OYPE     C314     CTL2    -0.180000       12.0110           0   0.00000     -0.301140E-02
     16708 MEMB     134      OYPE     H14X     HAL2     0.900000E-01   1.00800           0   0.00000     -0.301140E-02
     16709 MEMB     134      OYPE     H14Y     HAL2     0.900000E-01   1.00800           0   0.00000     -0.301140E-02
     16710 MEMB     134      OYPE     C315     CTL2    -0.180000       12.0110           0   0.00000     -0.301140E-02
     16711 MEMB     134      OYPE     H15X     HAL2     0.900000E-01   1.00800           0   0.00000     -0.301140E-02
     16712 MEMB     134      OYPE     H15Y     HAL2     0.900000E-01   1.00800           0   0.00000     -0.301140E-02
     16713 MEMB     134      OYPE     C316     CTL2    -0.180000       12.0110           0   0.00000     -0.301140E-02
     16714 MEMB     134      OYPE     H16X     HAL2     0.900000E-01   1.00800           0   0.00000     -0.301140E-02
     16715 MEMB     134      OYPE     H16Y     HAL2     0.900000E-01   1.00800           0   0.00000     -0.301140E-02
     16716 MEMB     134      OYPE     C317     CTL2    -0.180000       12.0110           0   0.00000     -0.301140E-02
     16717 MEMB     134      OYPE     H17X     HAL2     0.900000E-01   1.00800           0   0.00000     -0.301140E-02
     16718 MEMB     134      OYPE     H17Y     HAL2     0.900000E-01   1.00800           0   0.00000     -0.301140E-02
     16719 MEMB     134      OYPE     C318     CTL3    -0.270000       12.0110           0   0.00000     -0.301140E-02
     16720 MEMB     134      OYPE     H18X     HAL3     0.900000E-01   1.00800           0   0.00000     -0.301140E-02
     16721 MEMB     134      OYPE     H18Y     HAL3     0.900000E-01   1.00800           0   0.00000     -0.301140E-02
     16722 MEMB     134      OYPE     H18Z     HAL3     0.900000E-01   1.00800           0   0.00000     -0.301140E-02
     16723 MEMB     135      POPE     N        NH3L    -0.300000       14.0070           0   0.00000     -0.301140E-02
     16724 MEMB     135      POPE     HN1      HCL      0.330000       1.00800           0   0.00000     -0.301140E-02
     16725 MEMB     135      POPE     HN2      HCL      0.330000       1.00800           0   0.00000     -0.301140E-02
     16726 MEMB     135      POPE     HN3      HCL      0.330000       1.00800           0   0.00000     -0.301140E-02
     16727 MEMB     135      POPE     C12      CTL2     0.130000       12.0110           0   0.00000     -0.301140E-02
     16728 MEMB     135      POPE     H12A     HAL2     0.900000E-01   1.00800           0   0.00000     -0.301140E-02
     16729 MEMB     135      POPE     H12B     HAL2     0.900000E-01   1.00800           0   0.00000     -0.301140E-02
     16730 MEMB     135      POPE     C11      CTL2    -0.800000E-01   12.0110           0   0.00000     -0.301140E-02
     16731 MEMB     135      POPE     H11A     HAL2     0.900000E-01   1.00800           0   0.00000     -0.301140E-02
     16732 MEMB     135      POPE     H11B     HAL2     0.900000E-01   1.00800           0   0.00000     -0.301140E-02
     16733 MEMB     135      POPE     P        PL        1.50000       30.9740           0   0.00000     -0.301140E-02
     16734 MEMB     135      POPE     O13      O2L     -0.780000       15.9994           0   0.00000     -0.301140E-02
     16735 MEMB     135      POPE     O14      O2L     -0.780000       15.9994           0   0.00000     -0.301140E-02
     16736 MEMB     135      POPE     O11      OSLP    -0.570000       15.9994           0   0.00000     -0.301140E-02
     16737 MEMB     135      POPE     O12      OSLP    -0.570000       15.9994           0   0.00000     -0.301140E-02
     16738 MEMB     135      POPE     C1       CTL2    -0.800000E-01   12.0110           0   0.00000     -0.301140E-02
     16739 MEMB     135      POPE     HA       HAL2     0.900000E-01   1.00800           0   0.00000     -0.301140E-02
     16740 MEMB     135      POPE     HB       HAL2     0.900000E-01   1.00800           0   0.00000     -0.301140E-02
     16741 MEMB     135      POPE     C2       CTL1     0.170000       12.0110           0   0.00000     -0.301140E-02
     16742 MEMB     135      POPE     HS       HAL1     0.900000E-01   1.00800           0   0.00000     -0.301140E-02
     16743 MEMB     135      POPE     O21      OSL     -0.490000       15.9994           0   0.00000     -0.301140E-02
     16744 MEMB     135      POPE     C21      CL       0.900000       12.0110           0   0.00000     -0.301140E-02
     16745 MEMB     135      POPE     O22      OBL     -0.630000       15.9994           0   0.00000     -0.301140E-02
     16746 MEMB     135      POPE     C22      CTL2    -0.220000       12.0110           0   0.00000     -0.301140E-02
     16747 MEMB     135      POPE     H2R      HAL2     0.900000E-01   1.00800           0   0.00000     -0.301140E-02
     16748 MEMB     135      POPE     H2S      HAL2     0.900000E-01   1.00800           0   0.00000     -0.301140E-02
     16749 MEMB     135      POPE     C3       CTL2     0.800000E-01   12.0110           0   0.00000     -0.301140E-02
     16750 MEMB     135      POPE     HX       HAL2     0.900000E-01   1.00800           0   0.00000     -0.301140E-02
     16751 MEMB     135      POPE     HY       HAL2     0.900000E-01   1.00800           0   0.00000     -0.301140E-02
     16752 MEMB     135      POPE     O31      OSL     -0.490000       15.9994           0   0.00000     -0.301140E-02
     16753 MEMB     135      POPE     C31      CL       0.900000       12.0110           0   0.00000     -0.301140E-02
     16754 MEMB     135      POPE     O32      OBL     -0.630000       15.9994           0   0.00000     -0.301140E-02
     16755 MEMB     135      POPE     C32      CTL2    -0.220000       12.0110           0   0.00000     -0.301140E-02
     16756 MEMB     135      POPE     H2X      HAL2     0.900000E-01   1.00800           0   0.00000     -0.301140E-02
     16757 MEMB     135      POPE     H2Y      HAL2     0.900000E-01   1.00800           0   0.00000     -0.301140E-02
     16758 MEMB     135      POPE     C23      CTL2    -0.180000       12.0110           0   0.00000     -0.301140E-02
     16759 MEMB     135      POPE     H3R      HAL2     0.900000E-01   1.00800           0   0.00000     -0.301140E-02
     16760 MEMB     135      POPE     H3S      HAL2     0.900000E-01   1.00800           0   0.00000     -0.301140E-02
     16761 MEMB     135      POPE     C24      CTL2    -0.180000       12.0110           0   0.00000     -0.301140E-02
     16762 MEMB     135      POPE     H4R      HAL2     0.900000E-01   1.00800           0   0.00000     -0.301140E-02
     16763 MEMB     135      POPE     H4S      HAL2     0.900000E-01   1.00800           0   0.00000     -0.301140E-02
     16764 MEMB     135      POPE     C25      CTL2    -0.180000       12.0110           0   0.00000     -0.301140E-02
     16765 MEMB     135      POPE     H5R      HAL2     0.900000E-01   1.00800           0   0.00000     -0.301140E-02
     16766 MEMB     135      POPE     H5S      HAL2     0.900000E-01   1.00800           0   0.00000     -0.301140E-02
     16767 MEMB     135      POPE     C26      CTL2    -0.180000       12.0110           0   0.00000     -0.301140E-02
     16768 MEMB     135      POPE     H6R      HAL2     0.900000E-01   1.00800           0   0.00000     -0.301140E-02
     16769 MEMB     135      POPE     H6S      HAL2     0.900000E-01   1.00800           0   0.00000     -0.301140E-02
     16770 MEMB     135      POPE     C27      CTL2    -0.180000       12.0110           0   0.00000     -0.301140E-02
     16771 MEMB     135      POPE     H7R      HAL2     0.900000E-01   1.00800           0   0.00000     -0.301140E-02
     16772 MEMB     135      POPE     H7S      HAL2     0.900000E-01   1.00800           0   0.00000     -0.301140E-02
     16773 MEMB     135      POPE     C28      CTL2    -0.180000       12.0110           0   0.00000     -0.301140E-02
     16774 MEMB     135      POPE     H8R      HAL2     0.900000E-01   1.00800           0   0.00000     -0.301140E-02
     16775 MEMB     135      POPE     H8S      HAL2     0.900000E-01   1.00800           0   0.00000     -0.301140E-02
     16776 MEMB     135      POPE     C29      CEL1    -0.150000       12.0110           0   0.00000     -0.301140E-02
     16777 MEMB     135      POPE     H91      HEL1     0.150000       1.00800           0   0.00000     -0.301140E-02
     16778 MEMB     135      POPE     C210     CEL1    -0.150000       12.0110           0   0.00000     -0.301140E-02
     16779 MEMB     135      POPE     H101     HEL1     0.150000       1.00800           0   0.00000     -0.301140E-02
     16780 MEMB     135      POPE     C211     CTL2    -0.180000       12.0110           0   0.00000     -0.301140E-02
     16781 MEMB     135      POPE     H11R     HAL2     0.900000E-01   1.00800           0   0.00000     -0.301140E-02
     16782 MEMB     135      POPE     H11S     HAL2     0.900000E-01   1.00800           0   0.00000     -0.301140E-02
     16783 MEMB     135      POPE     C212     CTL2    -0.180000       12.0110           0   0.00000     -0.301140E-02
     16784 MEMB     135      POPE     H12R     HAL2     0.900000E-01   1.00800           0   0.00000     -0.301140E-02
     16785 MEMB     135      POPE     H12S     HAL2     0.900000E-01   1.00800           0   0.00000     -0.301140E-02
     16786 MEMB     135      POPE     C213     CTL2    -0.180000       12.0110           0   0.00000     -0.301140E-02
     16787 MEMB     135      POPE     H13R     HAL2     0.900000E-01   1.00800           0   0.00000     -0.301140E-02
     16788 MEMB     135      POPE     H13S     HAL2     0.900000E-01   1.00800           0   0.00000     -0.301140E-02
     16789 MEMB     135      POPE     C214     CTL2    -0.180000       12.0110           0   0.00000     -0.301140E-02
     16790 MEMB     135      POPE     H14R     HAL2     0.900000E-01   1.00800           0   0.00000     -0.301140E-02
     16791 MEMB     135      POPE     H14S     HAL2     0.900000E-01   1.00800           0   0.00000     -0.301140E-02
     16792 MEMB     135      POPE     C215     CTL2    -0.180000       12.0110           0   0.00000     -0.301140E-02
     16793 MEMB     135      POPE     H15R     HAL2     0.900000E-01   1.00800           0   0.00000     -0.301140E-02
     16794 MEMB     135      POPE     H15S     HAL2     0.900000E-01   1.00800           0   0.00000     -0.301140E-02
     16795 MEMB     135      POPE     C216     CTL2    -0.180000       12.0110           0   0.00000     -0.301140E-02
     16796 MEMB     135      POPE     H16R     HAL2     0.900000E-01   1.00800           0   0.00000     -0.301140E-02
     16797 MEMB     135      POPE     H16S     HAL2     0.900000E-01   1.00800           0   0.00000     -0.301140E-02
     16798 MEMB     135      POPE     C217     CTL2    -0.180000       12.0110           0   0.00000     -0.301140E-02
     16799 MEMB     135      POPE     H17R     HAL2     0.900000E-01   1.00800           0   0.00000     -0.301140E-02
     16800 MEMB     135      POPE     H17S     HAL2     0.900000E-01   1.00800           0   0.00000     -0.301140E-02
     16801 MEMB     135      POPE     C218     CTL3    -0.270000       12.0110           0   0.00000     -0.301140E-02
     16802 MEMB     135      POPE     H18R     HAL3     0.900000E-01   1.00800           0   0.00000     -0.301140E-02
     16803 MEMB     135      POPE     H18S     HAL3     0.900000E-01   1.00800           0   0.00000     -0.301140E-02
     16804 MEMB     135      POPE     H18T     HAL3     0.900000E-01   1.00800           0   0.00000     -0.301140E-02
     16805 MEMB     135      POPE     C33      CTL2    -0.180000       12.0110           0   0.00000     -0.301140E-02
     16806 MEMB     135      POPE     H3X      HAL2     0.900000E-01   1.00800           0   0.00000     -0.301140E-02
     16807 MEMB     135      POPE     H3Y      HAL2     0.900000E-01   1.00800           0   0.00000     -0.301140E-02
     16808 MEMB     135      POPE     C34      CTL2    -0.180000       12.0110           0   0.00000     -0.301140E-02
     16809 MEMB     135      POPE     H4X      HAL2     0.900000E-01   1.00800           0   0.00000     -0.301140E-02
     16810 MEMB     135      POPE     H4Y      HAL2     0.900000E-01   1.00800           0   0.00000     -0.301140E-02
     16811 MEMB     135      POPE     C35      CTL2    -0.180000       12.0110           0   0.00000     -0.301140E-02
     16812 MEMB     135      POPE     H5X      HAL2     0.900000E-01   1.00800           0   0.00000     -0.301140E-02
     16813 MEMB     135      POPE     H5Y      HAL2     0.900000E-01   1.00800           0   0.00000     -0.301140E-02
     16814 MEMB     135      POPE     C36      CTL2    -0.180000       12.0110           0   0.00000     -0.301140E-02
     16815 MEMB     135      POPE     H6X      HAL2     0.900000E-01   1.00800           0   0.00000     -0.301140E-02
     16816 MEMB     135      POPE     H6Y      HAL2     0.900000E-01   1.00800           0   0.00000     -0.301140E-02
     16817 MEMB     135      POPE     C37      CTL2    -0.180000       12.0110           0   0.00000     -0.301140E-02
     16818 MEMB     135      POPE     H7X      HAL2     0.900000E-01   1.00800           0   0.00000     -0.301140E-02
     16819 MEMB     135      POPE     H7Y      HAL2     0.900000E-01   1.00800           0   0.00000     -0.301140E-02
     16820 MEMB     135      POPE     C38      CTL2    -0.180000       12.0110           0   0.00000     -0.301140E-02
     16821 MEMB     135      POPE     H8X      HAL2     0.900000E-01   1.00800           0   0.00000     -0.301140E-02
     16822 MEMB     135      POPE     H8Y      HAL2     0.900000E-01   1.00800           0   0.00000     -0.301140E-02
     16823 MEMB     135      POPE     C39      CTL2    -0.180000       12.0110           0   0.00000     -0.301140E-02
     16824 MEMB     135      POPE     H9X      HAL2     0.900000E-01   1.00800           0   0.00000     -0.301140E-02
     16825 MEMB     135      POPE     H9Y      HAL2     0.900000E-01   1.00800           0   0.00000     -0.301140E-02
     16826 MEMB     135      POPE     C310     CTL2    -0.180000       12.0110           0   0.00000     -0.301140E-02
     16827 MEMB     135      POPE     H10X     HAL2     0.900000E-01   1.00800           0   0.00000     -0.301140E-02
     16828 MEMB     135      POPE     H10Y     HAL2     0.900000E-01   1.00800           0   0.00000     -0.301140E-02
     16829 MEMB     135      POPE     C311     CTL2    -0.180000       12.0110           0   0.00000     -0.301140E-02
     16830 MEMB     135      POPE     H11X     HAL2     0.900000E-01   1.00800           0   0.00000     -0.301140E-02
     16831 MEMB     135      POPE     H11Y     HAL2     0.900000E-01   1.00800           0   0.00000     -0.301140E-02
     16832 MEMB     135      POPE     C312     CTL2    -0.180000       12.0110           0   0.00000     -0.301140E-02
     16833 MEMB     135      POPE     H12X     HAL2     0.900000E-01   1.00800           0   0.00000     -0.301140E-02
     16834 MEMB     135      POPE     H12Y     HAL2     0.900000E-01   1.00800           0   0.00000     -0.301140E-02
     16835 MEMB     135      POPE     C313     CTL2    -0.180000       12.0110           0   0.00000     -0.301140E-02
     16836 MEMB     135      POPE     H13X     HAL2     0.900000E-01   1.00800           0   0.00000     -0.301140E-02
     16837 MEMB     135      POPE     H13Y     HAL2     0.900000E-01   1.00800           0   0.00000     -0.301140E-02
     16838 MEMB     135      POPE     C314     CTL2    -0.180000       12.0110           0   0.00000     -0.301140E-02
     16839 MEMB     135      POPE     H14X     HAL2     0.900000E-01   1.00800           0   0.00000     -0.301140E-02
     16840 MEMB     135      POPE     H14Y     HAL2     0.900000E-01   1.00800           0   0.00000     -0.301140E-02
     16841 MEMB     135      POPE     C315     CTL2    -0.180000       12.0110           0   0.00000     -0.301140E-02
     16842 MEMB     135      POPE     H15X     HAL2     0.900000E-01   1.00800           0   0.00000     -0.301140E-02
     16843 MEMB     135      POPE     H15Y     HAL2     0.900000E-01   1.00800           0   0.00000     -0.301140E-02
     16844 MEMB     135      POPE     C316     CTL3    -0.270000       12.0110           0   0.00000     -0.301140E-02
     16845 MEMB     135      POPE     H16X     HAL3     0.900000E-01   1.00800           0   0.00000     -0.301140E-02
     16846 MEMB     135      POPE     H16Y     HAL3     0.900000E-01   1.00800           0   0.00000     -0.301140E-02
     16847 MEMB     135      POPE     H16Z     HAL3     0.900000E-01   1.00800           0   0.00000     -0.301140E-02
     16848 MEMB     136      OYPE     N        NH3L    -0.300000       14.0070           0   0.00000     -0.301140E-02
     16849 MEMB     136      OYPE     HN1      HCL      0.330000       1.00800           0   0.00000     -0.301140E-02
     16850 MEMB     136      OYPE     HN2      HCL      0.330000       1.00800           0   0.00000     -0.301140E-02
     16851 MEMB     136      OYPE     HN3      HCL      0.330000       1.00800           0   0.00000     -0.301140E-02
     16852 MEMB     136      OYPE     C12      CTL2     0.130000       12.0110           0   0.00000     -0.301140E-02
     16853 MEMB     136      OYPE     H12A     HAL2     0.900000E-01   1.00800           0   0.00000     -0.301140E-02
     16854 MEMB     136      OYPE     H12B     HAL2     0.900000E-01   1.00800           0   0.00000     -0.301140E-02
     16855 MEMB     136      OYPE     C11      CTL2    -0.800000E-01   12.0110           0   0.00000     -0.301140E-02
     16856 MEMB     136      OYPE     H11A     HAL2     0.900000E-01   1.00800           0   0.00000     -0.301140E-02
     16857 MEMB     136      OYPE     H11B     HAL2     0.900000E-01   1.00800           0   0.00000     -0.301140E-02
     16858 MEMB     136      OYPE     P        PL        1.50000       30.9740           0   0.00000     -0.301140E-02
     16859 MEMB     136      OYPE     O13      O2L     -0.780000       15.9994           0   0.00000     -0.301140E-02
     16860 MEMB     136      OYPE     O14      O2L     -0.780000       15.9994           0   0.00000     -0.301140E-02
     16861 MEMB     136      OYPE     O11      OSLP    -0.570000       15.9994           0   0.00000     -0.301140E-02
     16862 MEMB     136      OYPE     O12      OSLP    -0.570000       15.9994           0   0.00000     -0.301140E-02
     16863 MEMB     136      OYPE     C1       CTL2    -0.800000E-01   12.0110           0   0.00000     -0.301140E-02
     16864 MEMB     136      OYPE     HA       HAL2     0.900000E-01   1.00800           0   0.00000     -0.301140E-02
     16865 MEMB     136      OYPE     HB       HAL2     0.900000E-01   1.00800           0   0.00000     -0.301140E-02
     16866 MEMB     136      OYPE     C2       CTL1     0.170000       12.0110           0   0.00000     -0.301140E-02
     16867 MEMB     136      OYPE     HS       HAL1     0.900000E-01   1.00800           0   0.00000     -0.301140E-02
     16868 MEMB     136      OYPE     O21      OSL     -0.490000       15.9994           0   0.00000     -0.301140E-02
     16869 MEMB     136      OYPE     C21      CL       0.900000       12.0110           0   0.00000     -0.301140E-02
     16870 MEMB     136      OYPE     O22      OBL     -0.630000       15.9994           0   0.00000     -0.301140E-02
     16871 MEMB     136      OYPE     C22      CTL2    -0.220000       12.0110           0   0.00000     -0.301140E-02
     16872 MEMB     136      OYPE     H2R      HAL2     0.900000E-01   1.00800           0   0.00000     -0.301140E-02
     16873 MEMB     136      OYPE     H2S      HAL2     0.900000E-01   1.00800           0   0.00000     -0.301140E-02
     16874 MEMB     136      OYPE     C3       CTL2     0.800000E-01   12.0110           0   0.00000     -0.301140E-02
     16875 MEMB     136      OYPE     HX       HAL2     0.900000E-01   1.00800           0   0.00000     -0.301140E-02
     16876 MEMB     136      OYPE     HY       HAL2     0.900000E-01   1.00800           0   0.00000     -0.301140E-02
     16877 MEMB     136      OYPE     O31      OSL     -0.490000       15.9994           0   0.00000     -0.301140E-02
     16878 MEMB     136      OYPE     C31      CL       0.900000       12.0110           0   0.00000     -0.301140E-02
     16879 MEMB     136      OYPE     O32      OBL     -0.630000       15.9994           0   0.00000     -0.301140E-02
     16880 MEMB     136      OYPE     C32      CTL2    -0.220000       12.0110           0   0.00000     -0.301140E-02
     16881 MEMB     136      OYPE     H2X      HAL2     0.900000E-01   1.00800           0   0.00000     -0.301140E-02
     16882 MEMB     136      OYPE     H2Y      HAL2     0.900000E-01   1.00800           0   0.00000     -0.301140E-02
     16883 MEMB     136      OYPE     C23      CTL2    -0.180000       12.0110           0   0.00000     -0.301140E-02
     16884 MEMB     136      OYPE     H3R      HAL2     0.900000E-01   1.00800           0   0.00000     -0.301140E-02
     16885 MEMB     136      OYPE     H3S      HAL2     0.900000E-01   1.00800           0   0.00000     -0.301140E-02
     16886 MEMB     136      OYPE     C24      CTL2    -0.180000       12.0110           0   0.00000     -0.301140E-02
     16887 MEMB     136      OYPE     H4R      HAL2     0.900000E-01   1.00800           0   0.00000     -0.301140E-02
     16888 MEMB     136      OYPE     H4S      HAL2     0.900000E-01   1.00800           0   0.00000     -0.301140E-02
     16889 MEMB     136      OYPE     C25      CTL2    -0.180000       12.0110           0   0.00000     -0.301140E-02
     16890 MEMB     136      OYPE     H5R      HAL2     0.900000E-01   1.00800           0   0.00000     -0.301140E-02
     16891 MEMB     136      OYPE     H5S      HAL2     0.900000E-01   1.00800           0   0.00000     -0.301140E-02
     16892 MEMB     136      OYPE     C26      CTL2    -0.180000       12.0110           0   0.00000     -0.301140E-02
     16893 MEMB     136      OYPE     H6R      HAL2     0.900000E-01   1.00800           0   0.00000     -0.301140E-02
     16894 MEMB     136      OYPE     H6S      HAL2     0.900000E-01   1.00800           0   0.00000     -0.301140E-02
     16895 MEMB     136      OYPE     C27      CTL2    -0.180000       12.0110           0   0.00000     -0.301140E-02
     16896 MEMB     136      OYPE     H7R      HAL2     0.900000E-01   1.00800           0   0.00000     -0.301140E-02
     16897 MEMB     136      OYPE     H7S      HAL2     0.900000E-01   1.00800           0   0.00000     -0.301140E-02
     16898 MEMB     136      OYPE     C28      CTL2    -0.180000       12.0110           0   0.00000     -0.301140E-02
     16899 MEMB     136      OYPE     H8R      HAL2     0.900000E-01   1.00800           0   0.00000     -0.301140E-02
     16900 MEMB     136      OYPE     H8S      HAL2     0.900000E-01   1.00800           0   0.00000     -0.301140E-02
     16901 MEMB     136      OYPE     C29      CEL1    -0.150000       12.0110           0   0.00000     -0.301140E-02
     16902 MEMB     136      OYPE     H9R      HEL1     0.150000       1.00800           0   0.00000     -0.301140E-02
     16903 MEMB     136      OYPE     C210     CEL1    -0.150000       12.0110           0   0.00000     -0.301140E-02
     16904 MEMB     136      OYPE     H10R     HEL1     0.150000       1.00800           0   0.00000     -0.301140E-02
     16905 MEMB     136      OYPE     C211     CTL2    -0.180000       12.0110           0   0.00000     -0.301140E-02
     16906 MEMB     136      OYPE     H11R     HAL2     0.900000E-01   1.00800           0   0.00000     -0.301140E-02
     16907 MEMB     136      OYPE     H11S     HAL2     0.900000E-01   1.00800           0   0.00000     -0.301140E-02
     16908 MEMB     136      OYPE     C212     CTL2    -0.180000       12.0110           0   0.00000     -0.301140E-02
     16909 MEMB     136      OYPE     H12R     HAL2     0.900000E-01   1.00800           0   0.00000     -0.301140E-02
     16910 MEMB     136      OYPE     H12S     HAL2     0.900000E-01   1.00800           0   0.00000     -0.301140E-02
     16911 MEMB     136      OYPE     C213     CTL2    -0.180000       12.0110           0   0.00000     -0.301140E-02
     16912 MEMB     136      OYPE     H13R     HAL2     0.900000E-01   1.00800           0   0.00000     -0.301140E-02
     16913 MEMB     136      OYPE     H13S     HAL2     0.900000E-01   1.00800           0   0.00000     -0.301140E-02
     16914 MEMB     136      OYPE     C214     CTL2    -0.180000       12.0110           0   0.00000     -0.301140E-02
     16915 MEMB     136      OYPE     H14R     HAL2     0.900000E-01   1.00800           0   0.00000     -0.301140E-02
     16916 MEMB     136      OYPE     H14S     HAL2     0.900000E-01   1.00800           0   0.00000     -0.301140E-02
     16917 MEMB     136      OYPE     C215     CTL2    -0.180000       12.0110           0   0.00000     -0.301140E-02
     16918 MEMB     136      OYPE     H15R     HAL2     0.900000E-01   1.00800           0   0.00000     -0.301140E-02
     16919 MEMB     136      OYPE     H15S     HAL2     0.900000E-01   1.00800           0   0.00000     -0.301140E-02
     16920 MEMB     136      OYPE     C216     CTL3    -0.270000       12.0110           0   0.00000     -0.301140E-02
     16921 MEMB     136      OYPE     H16R     HAL3     0.900000E-01   1.00800           0   0.00000     -0.301140E-02
     16922 MEMB     136      OYPE     H16S     HAL3     0.900000E-01   1.00800           0   0.00000     -0.301140E-02
     16923 MEMB     136      OYPE     H16T     HAL3     0.900000E-01   1.00800           0   0.00000     -0.301140E-02
     16924 MEMB     136      OYPE     C33      CTL2    -0.180000       12.0110           0   0.00000     -0.301140E-02
     16925 MEMB     136      OYPE     H3X      HAL2     0.900000E-01   1.00800           0   0.00000     -0.301140E-02
     16926 MEMB     136      OYPE     H3Y      HAL2     0.900000E-01   1.00800           0   0.00000     -0.301140E-02
     16927 MEMB     136      OYPE     C34      CTL2    -0.180000       12.0110           0   0.00000     -0.301140E-02
     16928 MEMB     136      OYPE     H4X      HAL2     0.900000E-01   1.00800           0   0.00000     -0.301140E-02
     16929 MEMB     136      OYPE     H4Y      HAL2     0.900000E-01   1.00800           0   0.00000     -0.301140E-02
     16930 MEMB     136      OYPE     C35      CTL2    -0.180000       12.0110           0   0.00000     -0.301140E-02
     16931 MEMB     136      OYPE     H5X      HAL2     0.900000E-01   1.00800           0   0.00000     -0.301140E-02
     16932 MEMB     136      OYPE     H5Y      HAL2     0.900000E-01   1.00800           0   0.00000     -0.301140E-02
     16933 MEMB     136      OYPE     C36      CTL2    -0.180000       12.0110           0   0.00000     -0.301140E-02
     16934 MEMB     136      OYPE     H6X      HAL2     0.900000E-01   1.00800           0   0.00000     -0.301140E-02
     16935 MEMB     136      OYPE     H6Y      HAL2     0.900000E-01   1.00800           0   0.00000     -0.301140E-02
     16936 MEMB     136      OYPE     C37      CTL2    -0.180000       12.0110           0   0.00000     -0.301140E-02
     16937 MEMB     136      OYPE     H7X      HAL2     0.900000E-01   1.00800           0   0.00000     -0.301140E-02
     16938 MEMB     136      OYPE     H7Y      HAL2     0.900000E-01   1.00800           0   0.00000     -0.301140E-02
     16939 MEMB     136      OYPE     C38      CTL2    -0.180000       12.0110           0   0.00000     -0.301140E-02
     16940 MEMB     136      OYPE     H8X      HAL2     0.900000E-01   1.00800           0   0.00000     -0.301140E-02
     16941 MEMB     136      OYPE     H8Y      HAL2     0.900000E-01   1.00800           0   0.00000     -0.301140E-02
     16942 MEMB     136      OYPE     C39      CEL1    -0.150000       12.0110           0   0.00000     -0.301140E-02
     16943 MEMB     136      OYPE     H9X      HEL1     0.150000       1.00800           0   0.00000     -0.301140E-02
     16944 MEMB     136      OYPE     C310     CEL1    -0.150000       12.0110           0   0.00000     -0.301140E-02
     16945 MEMB     136      OYPE     H10X     HEL1     0.150000       1.00800           0   0.00000     -0.301140E-02
     16946 MEMB     136      OYPE     C311     CTL2    -0.180000       12.0110           0   0.00000     -0.301140E-02
     16947 MEMB     136      OYPE     H11X     HAL2     0.900000E-01   1.00800           0   0.00000     -0.301140E-02
     16948 MEMB     136      OYPE     H11Y     HAL2     0.900000E-01   1.00800           0   0.00000     -0.301140E-02
     16949 MEMB     136      OYPE     C312     CTL2    -0.180000       12.0110           0   0.00000     -0.301140E-02
     16950 MEMB     136      OYPE     H12X     HAL2     0.900000E-01   1.00800           0   0.00000     -0.301140E-02
     16951 MEMB     136      OYPE     H12Y     HAL2     0.900000E-01   1.00800           0   0.00000     -0.301140E-02
     16952 MEMB     136      OYPE     C313     CTL2    -0.180000       12.0110           0   0.00000     -0.301140E-02
     16953 MEMB     136      OYPE     H13X     HAL2     0.900000E-01   1.00800           0   0.00000     -0.301140E-02
     16954 MEMB     136      OYPE     H13Y     HAL2     0.900000E-01   1.00800           0   0.00000     -0.301140E-02
     16955 MEMB     136      OYPE     C314     CTL2    -0.180000       12.0110           0   0.00000     -0.301140E-02
     16956 MEMB     136      OYPE     H14X     HAL2     0.900000E-01   1.00800           0   0.00000     -0.301140E-02
     16957 MEMB     136      OYPE     H14Y     HAL2     0.900000E-01   1.00800           0   0.00000     -0.301140E-02
     16958 MEMB     136      OYPE     C315     CTL2    -0.180000       12.0110           0   0.00000     -0.301140E-02
     16959 MEMB     136      OYPE     H15X     HAL2     0.900000E-01   1.00800           0   0.00000     -0.301140E-02
     16960 MEMB     136      OYPE     H15Y     HAL2     0.900000E-01   1.00800           0   0.00000     -0.301140E-02
     16961 MEMB     136      OYPE     C316     CTL2    -0.180000       12.0110           0   0.00000     -0.301140E-02
     16962 MEMB     136      OYPE     H16X     HAL2     0.900000E-01   1.00800           0   0.00000     -0.301140E-02
     16963 MEMB     136      OYPE     H16Y     HAL2     0.900000E-01   1.00800           0   0.00000     -0.301140E-02
     16964 MEMB     136      OYPE     C317     CTL2    -0.180000       12.0110           0   0.00000     -0.301140E-02
     16965 MEMB     136      OYPE     H17X     HAL2     0.900000E-01   1.00800           0   0.00000     -0.301140E-02
     16966 MEMB     136      OYPE     H17Y     HAL2     0.900000E-01   1.00800           0   0.00000     -0.301140E-02
     16967 MEMB     136      OYPE     C318     CTL3    -0.270000       12.0110           0   0.00000     -0.301140E-02
     16968 MEMB     136      OYPE     H18X     HAL3     0.900000E-01   1.00800           0   0.00000     -0.301140E-02
     16969 MEMB     136      OYPE     H18Y     HAL3     0.900000E-01   1.00800           0   0.00000     -0.301140E-02
     16970 MEMB     136      OYPE     H18Z     HAL3     0.900000E-01   1.00800           0   0.00000     -0.301140E-02
     16971 MEMB     137      PMPE     N        NH3L    -0.300000       14.0070           0   0.00000     -0.301140E-02
     16972 MEMB     137      PMPE     HN1      HCL      0.330000       1.00800           0   0.00000     -0.301140E-02
     16973 MEMB     137      PMPE     HN2      HCL      0.330000       1.00800           0   0.00000     -0.301140E-02
     16974 MEMB     137      PMPE     HN3      HCL      0.330000       1.00800           0   0.00000     -0.301140E-02
     16975 MEMB     137      PMPE     C12      CTL2     0.130000       12.0110           0   0.00000     -0.301140E-02
     16976 MEMB     137      PMPE     H12A     HAL2     0.900000E-01   1.00800           0   0.00000     -0.301140E-02
     16977 MEMB     137      PMPE     H12B     HAL2     0.900000E-01   1.00800           0   0.00000     -0.301140E-02
     16978 MEMB     137      PMPE     C11      CTL2    -0.800000E-01   12.0110           0   0.00000     -0.301140E-02
     16979 MEMB     137      PMPE     H11A     HAL2     0.900000E-01   1.00800           0   0.00000     -0.301140E-02
     16980 MEMB     137      PMPE     H11B     HAL2     0.900000E-01   1.00800           0   0.00000     -0.301140E-02
     16981 MEMB     137      PMPE     P        PL        1.50000       30.9740           0   0.00000     -0.301140E-02
     16982 MEMB     137      PMPE     O13      O2L     -0.780000       15.9994           0   0.00000     -0.301140E-02
     16983 MEMB     137      PMPE     O14      O2L     -0.780000       15.9994           0   0.00000     -0.301140E-02
     16984 MEMB     137      PMPE     O11      OSLP    -0.570000       15.9994           0   0.00000     -0.301140E-02
     16985 MEMB     137      PMPE     O12      OSLP    -0.570000       15.9994           0   0.00000     -0.301140E-02
     16986 MEMB     137      PMPE     C1       CTL2    -0.800000E-01   12.0110           0   0.00000     -0.301140E-02
     16987 MEMB     137      PMPE     HA       HAL2     0.900000E-01   1.00800           0   0.00000     -0.301140E-02
     16988 MEMB     137      PMPE     HB       HAL2     0.900000E-01   1.00800           0   0.00000     -0.301140E-02
     16989 MEMB     137      PMPE     C2       CTL1     0.170000       12.0110           0   0.00000     -0.301140E-02
     16990 MEMB     137      PMPE     HS       HAL1     0.900000E-01   1.00800           0   0.00000     -0.301140E-02
     16991 MEMB     137      PMPE     O21      OSL     -0.490000       15.9994           0   0.00000     -0.301140E-02
     16992 MEMB     137      PMPE     C21      CL       0.900000       12.0110           0   0.00000     -0.301140E-02
     16993 MEMB     137      PMPE     O22      OBL     -0.630000       15.9994           0   0.00000     -0.301140E-02
     16994 MEMB     137      PMPE     C22      CTL2    -0.220000       12.0110           0   0.00000     -0.301140E-02
     16995 MEMB     137      PMPE     H2R      HAL2     0.900000E-01   1.00800           0   0.00000     -0.301140E-02
     16996 MEMB     137      PMPE     H2S      HAL2     0.900000E-01   1.00800           0   0.00000     -0.301140E-02
     16997 MEMB     137      PMPE     C3       CTL2     0.800000E-01   12.0110           0   0.00000     -0.301140E-02
     16998 MEMB     137      PMPE     HX       HAL2     0.900000E-01   1.00800           0   0.00000     -0.301140E-02
     16999 MEMB     137      PMPE     HY       HAL2     0.900000E-01   1.00800           0   0.00000     -0.301140E-02
     17000 MEMB     137      PMPE     O31      OSL     -0.490000       15.9994           0   0.00000     -0.301140E-02
     17001 MEMB     137      PMPE     C31      CL       0.900000       12.0110           0   0.00000     -0.301140E-02
     17002 MEMB     137      PMPE     O32      OBL     -0.630000       15.9994           0   0.00000     -0.301140E-02
     17003 MEMB     137      PMPE     C32      CTL2    -0.220000       12.0110           0   0.00000     -0.301140E-02
     17004 MEMB     137      PMPE     H2X      HAL2     0.900000E-01   1.00800           0   0.00000     -0.301140E-02
     17005 MEMB     137      PMPE     H2Y      HAL2     0.900000E-01   1.00800           0   0.00000     -0.301140E-02
     17006 MEMB     137      PMPE     C23      CTL2    -0.180000       12.0110           0   0.00000     -0.301140E-02
     17007 MEMB     137      PMPE     H3R      HAL2     0.900000E-01   1.00800           0   0.00000     -0.301140E-02
     17008 MEMB     137      PMPE     H3S      HAL2     0.900000E-01   1.00800           0   0.00000     -0.301140E-02
     17009 MEMB     137      PMPE     C24      CTL2    -0.180000       12.0110           0   0.00000     -0.301140E-02
     17010 MEMB     137      PMPE     H4R      HAL2     0.900000E-01   1.00800           0   0.00000     -0.301140E-02
     17011 MEMB     137      PMPE     H4S      HAL2     0.900000E-01   1.00800           0   0.00000     -0.301140E-02
     17012 MEMB     137      PMPE     C25      CTL2    -0.180000       12.0110           0   0.00000     -0.301140E-02
     17013 MEMB     137      PMPE     H5R      HAL2     0.900000E-01   1.00800           0   0.00000     -0.301140E-02
     17014 MEMB     137      PMPE     H5S      HAL2     0.900000E-01   1.00800           0   0.00000     -0.301140E-02
     17015 MEMB     137      PMPE     C26      CTL2    -0.180000       12.0110           0   0.00000     -0.301140E-02
     17016 MEMB     137      PMPE     H6R      HAL2     0.900000E-01   1.00800           0   0.00000     -0.301140E-02
     17017 MEMB     137      PMPE     H6S      HAL2     0.900000E-01   1.00800           0   0.00000     -0.301140E-02
     17018 MEMB     137      PMPE     C27      CTL2    -0.180000       12.0110           0   0.00000     -0.301140E-02
     17019 MEMB     137      PMPE     H7R      HAL2     0.900000E-01   1.00800           0   0.00000     -0.301140E-02
     17020 MEMB     137      PMPE     H7S      HAL2     0.900000E-01   1.00800           0   0.00000     -0.301140E-02
     17021 MEMB     137      PMPE     C28      CTL2    -0.180000       12.0110           0   0.00000     -0.301140E-02
     17022 MEMB     137      PMPE     H8R      HAL2     0.900000E-01   1.00800           0   0.00000     -0.301140E-02
     17023 MEMB     137      PMPE     H8S      HAL2     0.900000E-01   1.00800           0   0.00000     -0.301140E-02
     17024 MEMB     137      PMPE     C29      CG3RC1  -0.900000E-01   12.0110           0   0.00000     -0.301140E-02
     17025 MEMB     137      PMPE     H9R      HGA1     0.900000E-01   1.00800           0   0.00000     -0.301140E-02
     17026 MEMB     137      PMPE     C217     CG3C31  -0.180000       12.0110           0   0.00000     -0.301140E-02
     17027 MEMB     137      PMPE     H17R     HGA2     0.900000E-01   1.00800           0   0.00000     -0.301140E-02
     17028 MEMB     137      PMPE     H17S     HGA2     0.900000E-01   1.00800           0   0.00000     -0.301140E-02
     17029 MEMB     137      PMPE     C210     CG3RC1  -0.900000E-01   12.0110           0   0.00000     -0.301140E-02
     17030 MEMB     137      PMPE     H10R     HGA1     0.900000E-01   1.00800           0   0.00000     -0.301140E-02
     17031 MEMB     137      PMPE     C211     CTL2    -0.180000       12.0110           0   0.00000     -0.301140E-02
     17032 MEMB     137      PMPE     H11R     HAL2     0.900000E-01   1.00800           0   0.00000     -0.301140E-02
     17033 MEMB     137      PMPE     H11S     HAL2     0.900000E-01   1.00800           0   0.00000     -0.301140E-02
     17034 MEMB     137      PMPE     C212     CTL2    -0.180000       12.0110           0   0.00000     -0.301140E-02
     17035 MEMB     137      PMPE     H12R     HAL2     0.900000E-01   1.00800           0   0.00000     -0.301140E-02
     17036 MEMB     137      PMPE     H12S     HAL2     0.900000E-01   1.00800           0   0.00000     -0.301140E-02
     17037 MEMB     137      PMPE     C213     CTL2    -0.180000       12.0110           0   0.00000     -0.301140E-02
     17038 MEMB     137      PMPE     H13R     HAL2     0.900000E-01   1.00800           0   0.00000     -0.301140E-02
     17039 MEMB     137      PMPE     H13S     HAL2     0.900000E-01   1.00800           0   0.00000     -0.301140E-02
     17040 MEMB     137      PMPE     C214     CTL2    -0.180000       12.0110           0   0.00000     -0.301140E-02
     17041 MEMB     137      PMPE     H14R     HAL2     0.900000E-01   1.00800           0   0.00000     -0.301140E-02
     17042 MEMB     137      PMPE     H14S     HAL2     0.900000E-01   1.00800           0   0.00000     -0.301140E-02
     17043 MEMB     137      PMPE     C215     CTL2    -0.180000       12.0110           0   0.00000     -0.301140E-02
     17044 MEMB     137      PMPE     H15R     HAL2     0.900000E-01   1.00800           0   0.00000     -0.301140E-02
     17045 MEMB     137      PMPE     H15S     HAL2     0.900000E-01   1.00800           0   0.00000     -0.301140E-02
     17046 MEMB     137      PMPE     C216     CTL3    -0.270000       12.0110           0   0.00000     -0.301140E-02
     17047 MEMB     137      PMPE     H16R     HAL3     0.900000E-01   1.00800           0   0.00000     -0.301140E-02
     17048 MEMB     137      PMPE     H16S     HAL3     0.900000E-01   1.00800           0   0.00000     -0.301140E-02
     17049 MEMB     137      PMPE     H16T     HAL3     0.900000E-01   1.00800           0   0.00000     -0.301140E-02
     17050 MEMB     137      PMPE     C33      CTL2    -0.180000       12.0110           0   0.00000     -0.301140E-02
     17051 MEMB     137      PMPE     H3X      HAL2     0.900000E-01   1.00800           0   0.00000     -0.301140E-02
     17052 MEMB     137      PMPE     H3Y      HAL2     0.900000E-01   1.00800           0   0.00000     -0.301140E-02
     17053 MEMB     137      PMPE     C34      CTL2    -0.180000       12.0110           0   0.00000     -0.301140E-02
     17054 MEMB     137      PMPE     H4X      HAL2     0.900000E-01   1.00800           0   0.00000     -0.301140E-02
     17055 MEMB     137      PMPE     H4Y      HAL2     0.900000E-01   1.00800           0   0.00000     -0.301140E-02
     17056 MEMB     137      PMPE     C35      CTL2    -0.180000       12.0110           0   0.00000     -0.301140E-02
     17057 MEMB     137      PMPE     H5X      HAL2     0.900000E-01   1.00800           0   0.00000     -0.301140E-02
     17058 MEMB     137      PMPE     H5Y      HAL2     0.900000E-01   1.00800           0   0.00000     -0.301140E-02
     17059 MEMB     137      PMPE     C36      CTL2    -0.180000       12.0110           0   0.00000     -0.301140E-02
     17060 MEMB     137      PMPE     H6X      HAL2     0.900000E-01   1.00800           0   0.00000     -0.301140E-02
     17061 MEMB     137      PMPE     H6Y      HAL2     0.900000E-01   1.00800           0   0.00000     -0.301140E-02
     17062 MEMB     137      PMPE     C37      CTL2    -0.180000       12.0110           0   0.00000     -0.301140E-02
     17063 MEMB     137      PMPE     H7X      HAL2     0.900000E-01   1.00800           0   0.00000     -0.301140E-02
     17064 MEMB     137      PMPE     H7Y      HAL2     0.900000E-01   1.00800           0   0.00000     -0.301140E-02
     17065 MEMB     137      PMPE     C38      CTL2    -0.180000       12.0110           0   0.00000     -0.301140E-02
     17066 MEMB     137      PMPE     H8X      HAL2     0.900000E-01   1.00800           0   0.00000     -0.301140E-02
     17067 MEMB     137      PMPE     H8Y      HAL2     0.900000E-01   1.00800           0   0.00000     -0.301140E-02
     17068 MEMB     137      PMPE     C39      CTL2    -0.180000       12.0110           0   0.00000     -0.301140E-02
     17069 MEMB     137      PMPE     H9X      HAL2     0.900000E-01   1.00800           0   0.00000     -0.301140E-02
     17070 MEMB     137      PMPE     H9Y      HAL2     0.900000E-01   1.00800           0   0.00000     -0.301140E-02
     17071 MEMB     137      PMPE     C310     CTL2    -0.180000       12.0110           0   0.00000     -0.301140E-02
     17072 MEMB     137      PMPE     H10X     HAL2     0.900000E-01   1.00800           0   0.00000     -0.301140E-02
     17073 MEMB     137      PMPE     H10Y     HAL2     0.900000E-01   1.00800           0   0.00000     -0.301140E-02
     17074 MEMB     137      PMPE     C311     CTL2    -0.180000       12.0110           0   0.00000     -0.301140E-02
     17075 MEMB     137      PMPE     H11X     HAL2     0.900000E-01   1.00800           0   0.00000     -0.301140E-02
     17076 MEMB     137      PMPE     H11Y     HAL2     0.900000E-01   1.00800           0   0.00000     -0.301140E-02
     17077 MEMB     137      PMPE     C312     CTL2    -0.180000       12.0110           0   0.00000     -0.301140E-02
     17078 MEMB     137      PMPE     H12X     HAL2     0.900000E-01   1.00800           0   0.00000     -0.301140E-02
     17079 MEMB     137      PMPE     H12Y     HAL2     0.900000E-01   1.00800           0   0.00000     -0.301140E-02
     17080 MEMB     137      PMPE     C313     CTL2    -0.180000       12.0110           0   0.00000     -0.301140E-02
     17081 MEMB     137      PMPE     H13X     HAL2     0.900000E-01   1.00800           0   0.00000     -0.301140E-02
     17082 MEMB     137      PMPE     H13Y     HAL2     0.900000E-01   1.00800           0   0.00000     -0.301140E-02
     17083 MEMB     137      PMPE     C314     CTL2    -0.180000       12.0110           0   0.00000     -0.301140E-02
     17084 MEMB     137      PMPE     H14X     HAL2     0.900000E-01   1.00800           0   0.00000     -0.301140E-02
     17085 MEMB     137      PMPE     H14Y     HAL2     0.900000E-01   1.00800           0   0.00000     -0.301140E-02
     17086 MEMB     137      PMPE     C315     CTL2    -0.180000       12.0110           0   0.00000     -0.301140E-02
     17087 MEMB     137      PMPE     H15X     HAL2     0.900000E-01   1.00800           0   0.00000     -0.301140E-02
     17088 MEMB     137      PMPE     H15Y     HAL2     0.900000E-01   1.00800           0   0.00000     -0.301140E-02
     17089 MEMB     137      PMPE     C316     CTL3    -0.270000       12.0110           0   0.00000     -0.301140E-02
     17090 MEMB     137      PMPE     H16X     HAL3     0.900000E-01   1.00800           0   0.00000     -0.301140E-02
     17091 MEMB     137      PMPE     H16Y     HAL3     0.900000E-01   1.00800           0   0.00000     -0.301140E-02
     17092 MEMB     137      PMPE     H16Z     HAL3     0.900000E-01   1.00800           0   0.00000     -0.301140E-02
     17093 MEMB     138      POPE     N        NH3L    -0.300000       14.0070           0   0.00000     -0.301140E-02
     17094 MEMB     138      POPE     HN1      HCL      0.330000       1.00800           0   0.00000     -0.301140E-02
     17095 MEMB     138      POPE     HN2      HCL      0.330000       1.00800           0   0.00000     -0.301140E-02
     17096 MEMB     138      POPE     HN3      HCL      0.330000       1.00800           0   0.00000     -0.301140E-02
     17097 MEMB     138      POPE     C12      CTL2     0.130000       12.0110           0   0.00000     -0.301140E-02
     17098 MEMB     138      POPE     H12A     HAL2     0.900000E-01   1.00800           0   0.00000     -0.301140E-02
     17099 MEMB     138      POPE     H12B     HAL2     0.900000E-01   1.00800           0   0.00000     -0.301140E-02
     17100 MEMB     138      POPE     C11      CTL2    -0.800000E-01   12.0110           0   0.00000     -0.301140E-02
     17101 MEMB     138      POPE     H11A     HAL2     0.900000E-01   1.00800           0   0.00000     -0.301140E-02
     17102 MEMB     138      POPE     H11B     HAL2     0.900000E-01   1.00800           0   0.00000     -0.301140E-02
     17103 MEMB     138      POPE     P        PL        1.50000       30.9740           0   0.00000     -0.301140E-02
     17104 MEMB     138      POPE     O13      O2L     -0.780000       15.9994           0   0.00000     -0.301140E-02
     17105 MEMB     138      POPE     O14      O2L     -0.780000       15.9994           0   0.00000     -0.301140E-02
     17106 MEMB     138      POPE     O11      OSLP    -0.570000       15.9994           0   0.00000     -0.301140E-02
     17107 MEMB     138      POPE     O12      OSLP    -0.570000       15.9994           0   0.00000     -0.301140E-02
     17108 MEMB     138      POPE     C1       CTL2    -0.800000E-01   12.0110           0   0.00000     -0.301140E-02
     17109 MEMB     138      POPE     HA       HAL2     0.900000E-01   1.00800           0   0.00000     -0.301140E-02
     17110 MEMB     138      POPE     HB       HAL2     0.900000E-01   1.00800           0   0.00000     -0.301140E-02
     17111 MEMB     138      POPE     C2       CTL1     0.170000       12.0110           0   0.00000     -0.301140E-02
     17112 MEMB     138      POPE     HS       HAL1     0.900000E-01   1.00800           0   0.00000     -0.301140E-02
     17113 MEMB     138      POPE     O21      OSL     -0.490000       15.9994           0   0.00000     -0.301140E-02
     17114 MEMB     138      POPE     C21      CL       0.900000       12.0110           0   0.00000     -0.301140E-02
     17115 MEMB     138      POPE     O22      OBL     -0.630000       15.9994           0   0.00000     -0.301140E-02
     17116 MEMB     138      POPE     C22      CTL2    -0.220000       12.0110           0   0.00000     -0.301140E-02
     17117 MEMB     138      POPE     H2R      HAL2     0.900000E-01   1.00800           0   0.00000     -0.301140E-02
     17118 MEMB     138      POPE     H2S      HAL2     0.900000E-01   1.00800           0   0.00000     -0.301140E-02
     17119 MEMB     138      POPE     C3       CTL2     0.800000E-01   12.0110           0   0.00000     -0.301140E-02
     17120 MEMB     138      POPE     HX       HAL2     0.900000E-01   1.00800           0   0.00000     -0.301140E-02
     17121 MEMB     138      POPE     HY       HAL2     0.900000E-01   1.00800           0   0.00000     -0.301140E-02
     17122 MEMB     138      POPE     O31      OSL     -0.490000       15.9994           0   0.00000     -0.301140E-02
     17123 MEMB     138      POPE     C31      CL       0.900000       12.0110           0   0.00000     -0.301140E-02
     17124 MEMB     138      POPE     O32      OBL     -0.630000       15.9994           0   0.00000     -0.301140E-02
     17125 MEMB     138      POPE     C32      CTL2    -0.220000       12.0110           0   0.00000     -0.301140E-02
     17126 MEMB     138      POPE     H2X      HAL2     0.900000E-01   1.00800           0   0.00000     -0.301140E-02
     17127 MEMB     138      POPE     H2Y      HAL2     0.900000E-01   1.00800           0   0.00000     -0.301140E-02
     17128 MEMB     138      POPE     C23      CTL2    -0.180000       12.0110           0   0.00000     -0.301140E-02
     17129 MEMB     138      POPE     H3R      HAL2     0.900000E-01   1.00800           0   0.00000     -0.301140E-02
     17130 MEMB     138      POPE     H3S      HAL2     0.900000E-01   1.00800           0   0.00000     -0.301140E-02
     17131 MEMB     138      POPE     C24      CTL2    -0.180000       12.0110           0   0.00000     -0.301140E-02
     17132 MEMB     138      POPE     H4R      HAL2     0.900000E-01   1.00800           0   0.00000     -0.301140E-02
     17133 MEMB     138      POPE     H4S      HAL2     0.900000E-01   1.00800           0   0.00000     -0.301140E-02
     17134 MEMB     138      POPE     C25      CTL2    -0.180000       12.0110           0   0.00000     -0.301140E-02
     17135 MEMB     138      POPE     H5R      HAL2     0.900000E-01   1.00800           0   0.00000     -0.301140E-02
     17136 MEMB     138      POPE     H5S      HAL2     0.900000E-01   1.00800           0   0.00000     -0.301140E-02
     17137 MEMB     138      POPE     C26      CTL2    -0.180000       12.0110           0   0.00000     -0.301140E-02
     17138 MEMB     138      POPE     H6R      HAL2     0.900000E-01   1.00800           0   0.00000     -0.301140E-02
     17139 MEMB     138      POPE     H6S      HAL2     0.900000E-01   1.00800           0   0.00000     -0.301140E-02
     17140 MEMB     138      POPE     C27      CTL2    -0.180000       12.0110           0   0.00000     -0.301140E-02
     17141 MEMB     138      POPE     H7R      HAL2     0.900000E-01   1.00800           0   0.00000     -0.301140E-02
     17142 MEMB     138      POPE     H7S      HAL2     0.900000E-01   1.00800           0   0.00000     -0.301140E-02
     17143 MEMB     138      POPE     C28      CTL2    -0.180000       12.0110           0   0.00000     -0.301140E-02
     17144 MEMB     138      POPE     H8R      HAL2     0.900000E-01   1.00800           0   0.00000     -0.301140E-02
     17145 MEMB     138      POPE     H8S      HAL2     0.900000E-01   1.00800           0   0.00000     -0.301140E-02
     17146 MEMB     138      POPE     C29      CEL1    -0.150000       12.0110           0   0.00000     -0.301140E-02
     17147 MEMB     138      POPE     H91      HEL1     0.150000       1.00800           0   0.00000     -0.301140E-02
     17148 MEMB     138      POPE     C210     CEL1    -0.150000       12.0110           0   0.00000     -0.301140E-02
     17149 MEMB     138      POPE     H101     HEL1     0.150000       1.00800           0   0.00000     -0.301140E-02
     17150 MEMB     138      POPE     C211     CTL2    -0.180000       12.0110           0   0.00000     -0.301140E-02
     17151 MEMB     138      POPE     H11R     HAL2     0.900000E-01   1.00800           0   0.00000     -0.301140E-02
     17152 MEMB     138      POPE     H11S     HAL2     0.900000E-01   1.00800           0   0.00000     -0.301140E-02
     17153 MEMB     138      POPE     C212     CTL2    -0.180000       12.0110           0   0.00000     -0.301140E-02
     17154 MEMB     138      POPE     H12R     HAL2     0.900000E-01   1.00800           0   0.00000     -0.301140E-02
     17155 MEMB     138      POPE     H12S     HAL2     0.900000E-01   1.00800           0   0.00000     -0.301140E-02
     17156 MEMB     138      POPE     C213     CTL2    -0.180000       12.0110           0   0.00000     -0.301140E-02
     17157 MEMB     138      POPE     H13R     HAL2     0.900000E-01   1.00800           0   0.00000     -0.301140E-02
     17158 MEMB     138      POPE     H13S     HAL2     0.900000E-01   1.00800           0   0.00000     -0.301140E-02
     17159 MEMB     138      POPE     C214     CTL2    -0.180000       12.0110           0   0.00000     -0.301140E-02
     17160 MEMB     138      POPE     H14R     HAL2     0.900000E-01   1.00800           0   0.00000     -0.301140E-02
     17161 MEMB     138      POPE     H14S     HAL2     0.900000E-01   1.00800           0   0.00000     -0.301140E-02
     17162 MEMB     138      POPE     C215     CTL2    -0.180000       12.0110           0   0.00000     -0.301140E-02
     17163 MEMB     138      POPE     H15R     HAL2     0.900000E-01   1.00800           0   0.00000     -0.301140E-02
     17164 MEMB     138      POPE     H15S     HAL2     0.900000E-01   1.00800           0   0.00000     -0.301140E-02
     17165 MEMB     138      POPE     C216     CTL2    -0.180000       12.0110           0   0.00000     -0.301140E-02
     17166 MEMB     138      POPE     H16R     HAL2     0.900000E-01   1.00800           0   0.00000     -0.301140E-02
     17167 MEMB     138      POPE     H16S     HAL2     0.900000E-01   1.00800           0   0.00000     -0.301140E-02
     17168 MEMB     138      POPE     C217     CTL2    -0.180000       12.0110           0   0.00000     -0.301140E-02
     17169 MEMB     138      POPE     H17R     HAL2     0.900000E-01   1.00800           0   0.00000     -0.301140E-02
     17170 MEMB     138      POPE     H17S     HAL2     0.900000E-01   1.00800           0   0.00000     -0.301140E-02
     17171 MEMB     138      POPE     C218     CTL3    -0.270000       12.0110           0   0.00000     -0.301140E-02
     17172 MEMB     138      POPE     H18R     HAL3     0.900000E-01   1.00800           0   0.00000     -0.301140E-02
     17173 MEMB     138      POPE     H18S     HAL3     0.900000E-01   1.00800           0   0.00000     -0.301140E-02
     17174 MEMB     138      POPE     H18T     HAL3     0.900000E-01   1.00800           0   0.00000     -0.301140E-02
     17175 MEMB     138      POPE     C33      CTL2    -0.180000       12.0110           0   0.00000     -0.301140E-02
     17176 MEMB     138      POPE     H3X      HAL2     0.900000E-01   1.00800           0   0.00000     -0.301140E-02
     17177 MEMB     138      POPE     H3Y      HAL2     0.900000E-01   1.00800           0   0.00000     -0.301140E-02
     17178 MEMB     138      POPE     C34      CTL2    -0.180000       12.0110           0   0.00000     -0.301140E-02
     17179 MEMB     138      POPE     H4X      HAL2     0.900000E-01   1.00800           0   0.00000     -0.301140E-02
     17180 MEMB     138      POPE     H4Y      HAL2     0.900000E-01   1.00800           0   0.00000     -0.301140E-02
     17181 MEMB     138      POPE     C35      CTL2    -0.180000       12.0110           0   0.00000     -0.301140E-02
     17182 MEMB     138      POPE     H5X      HAL2     0.900000E-01   1.00800           0   0.00000     -0.301140E-02
     17183 MEMB     138      POPE     H5Y      HAL2     0.900000E-01   1.00800           0   0.00000     -0.301140E-02
     17184 MEMB     138      POPE     C36      CTL2    -0.180000       12.0110           0   0.00000     -0.301140E-02
     17185 MEMB     138      POPE     H6X      HAL2     0.900000E-01   1.00800           0   0.00000     -0.301140E-02
     17186 MEMB     138      POPE     H6Y      HAL2     0.900000E-01   1.00800           0   0.00000     -0.301140E-02
     17187 MEMB     138      POPE     C37      CTL2    -0.180000       12.0110           0   0.00000     -0.301140E-02
     17188 MEMB     138      POPE     H7X      HAL2     0.900000E-01   1.00800           0   0.00000     -0.301140E-02
     17189 MEMB     138      POPE     H7Y      HAL2     0.900000E-01   1.00800           0   0.00000     -0.301140E-02
     17190 MEMB     138      POPE     C38      CTL2    -0.180000       12.0110           0   0.00000     -0.301140E-02
     17191 MEMB     138      POPE     H8X      HAL2     0.900000E-01   1.00800           0   0.00000     -0.301140E-02
     17192 MEMB     138      POPE     H8Y      HAL2     0.900000E-01   1.00800           0   0.00000     -0.301140E-02
     17193 MEMB     138      POPE     C39      CTL2    -0.180000       12.0110           0   0.00000     -0.301140E-02
     17194 MEMB     138      POPE     H9X      HAL2     0.900000E-01   1.00800           0   0.00000     -0.301140E-02
     17195 MEMB     138      POPE     H9Y      HAL2     0.900000E-01   1.00800           0   0.00000     -0.301140E-02
     17196 MEMB     138      POPE     C310     CTL2    -0.180000       12.0110           0   0.00000     -0.301140E-02
     17197 MEMB     138      POPE     H10X     HAL2     0.900000E-01   1.00800           0   0.00000     -0.301140E-02
     17198 MEMB     138      POPE     H10Y     HAL2     0.900000E-01   1.00800           0   0.00000     -0.301140E-02
     17199 MEMB     138      POPE     C311     CTL2    -0.180000       12.0110           0   0.00000     -0.301140E-02
     17200 MEMB     138      POPE     H11X     HAL2     0.900000E-01   1.00800           0   0.00000     -0.301140E-02
     17201 MEMB     138      POPE     H11Y     HAL2     0.900000E-01   1.00800           0   0.00000     -0.301140E-02
     17202 MEMB     138      POPE     C312     CTL2    -0.180000       12.0110           0   0.00000     -0.301140E-02
     17203 MEMB     138      POPE     H12X     HAL2     0.900000E-01   1.00800           0   0.00000     -0.301140E-02
     17204 MEMB     138      POPE     H12Y     HAL2     0.900000E-01   1.00800           0   0.00000     -0.301140E-02
     17205 MEMB     138      POPE     C313     CTL2    -0.180000       12.0110           0   0.00000     -0.301140E-02
     17206 MEMB     138      POPE     H13X     HAL2     0.900000E-01   1.00800           0   0.00000     -0.301140E-02
     17207 MEMB     138      POPE     H13Y     HAL2     0.900000E-01   1.00800           0   0.00000     -0.301140E-02
     17208 MEMB     138      POPE     C314     CTL2    -0.180000       12.0110           0   0.00000     -0.301140E-02
     17209 MEMB     138      POPE     H14X     HAL2     0.900000E-01   1.00800           0   0.00000     -0.301140E-02
     17210 MEMB     138      POPE     H14Y     HAL2     0.900000E-01   1.00800           0   0.00000     -0.301140E-02
     17211 MEMB     138      POPE     C315     CTL2    -0.180000       12.0110           0   0.00000     -0.301140E-02
     17212 MEMB     138      POPE     H15X     HAL2     0.900000E-01   1.00800           0   0.00000     -0.301140E-02
     17213 MEMB     138      POPE     H15Y     HAL2     0.900000E-01   1.00800           0   0.00000     -0.301140E-02
     17214 MEMB     138      POPE     C316     CTL3    -0.270000       12.0110           0   0.00000     -0.301140E-02
     17215 MEMB     138      POPE     H16X     HAL3     0.900000E-01   1.00800           0   0.00000     -0.301140E-02
     17216 MEMB     138      POPE     H16Y     HAL3     0.900000E-01   1.00800           0   0.00000     -0.301140E-02
     17217 MEMB     138      POPE     H16Z     HAL3     0.900000E-01   1.00800           0   0.00000     -0.301140E-02
     17218 MEMB     139      PMPE     N        NH3L    -0.300000       14.0070           0   0.00000     -0.301140E-02
     17219 MEMB     139      PMPE     HN1      HCL      0.330000       1.00800           0   0.00000     -0.301140E-02
     17220 MEMB     139      PMPE     HN2      HCL      0.330000       1.00800           0   0.00000     -0.301140E-02
     17221 MEMB     139      PMPE     HN3      HCL      0.330000       1.00800           0   0.00000     -0.301140E-02
     17222 MEMB     139      PMPE     C12      CTL2     0.130000       12.0110           0   0.00000     -0.301140E-02
     17223 MEMB     139      PMPE     H12A     HAL2     0.900000E-01   1.00800           0   0.00000     -0.301140E-02
     17224 MEMB     139      PMPE     H12B     HAL2     0.900000E-01   1.00800           0   0.00000     -0.301140E-02
     17225 MEMB     139      PMPE     C11      CTL2    -0.800000E-01   12.0110           0   0.00000     -0.301140E-02
     17226 MEMB     139      PMPE     H11A     HAL2     0.900000E-01   1.00800           0   0.00000     -0.301140E-02
     17227 MEMB     139      PMPE     H11B     HAL2     0.900000E-01   1.00800           0   0.00000     -0.301140E-02
     17228 MEMB     139      PMPE     P        PL        1.50000       30.9740           0   0.00000     -0.301140E-02
     17229 MEMB     139      PMPE     O13      O2L     -0.780000       15.9994           0   0.00000     -0.301140E-02
     17230 MEMB     139      PMPE     O14      O2L     -0.780000       15.9994           0   0.00000     -0.301140E-02
     17231 MEMB     139      PMPE     O11      OSLP    -0.570000       15.9994           0   0.00000     -0.301140E-02
     17232 MEMB     139      PMPE     O12      OSLP    -0.570000       15.9994           0   0.00000     -0.301140E-02
     17233 MEMB     139      PMPE     C1       CTL2    -0.800000E-01   12.0110           0   0.00000     -0.301140E-02
     17234 MEMB     139      PMPE     HA       HAL2     0.900000E-01   1.00800           0   0.00000     -0.301140E-02
     17235 MEMB     139      PMPE     HB       HAL2     0.900000E-01   1.00800           0   0.00000     -0.301140E-02
     17236 MEMB     139      PMPE     C2       CTL1     0.170000       12.0110           0   0.00000     -0.301140E-02
     17237 MEMB     139      PMPE     HS       HAL1     0.900000E-01   1.00800           0   0.00000     -0.301140E-02
     17238 MEMB     139      PMPE     O21      OSL     -0.490000       15.9994           0   0.00000     -0.301140E-02
     17239 MEMB     139      PMPE     C21      CL       0.900000       12.0110           0   0.00000     -0.301140E-02
     17240 MEMB     139      PMPE     O22      OBL     -0.630000       15.9994           0   0.00000     -0.301140E-02
     17241 MEMB     139      PMPE     C22      CTL2    -0.220000       12.0110           0   0.00000     -0.301140E-02
     17242 MEMB     139      PMPE     H2R      HAL2     0.900000E-01   1.00800           0   0.00000     -0.301140E-02
     17243 MEMB     139      PMPE     H2S      HAL2     0.900000E-01   1.00800           0   0.00000     -0.301140E-02
     17244 MEMB     139      PMPE     C3       CTL2     0.800000E-01   12.0110           0   0.00000     -0.301140E-02
     17245 MEMB     139      PMPE     HX       HAL2     0.900000E-01   1.00800           0   0.00000     -0.301140E-02
     17246 MEMB     139      PMPE     HY       HAL2     0.900000E-01   1.00800           0   0.00000     -0.301140E-02
     17247 MEMB     139      PMPE     O31      OSL     -0.490000       15.9994           0   0.00000     -0.301140E-02
     17248 MEMB     139      PMPE     C31      CL       0.900000       12.0110           0   0.00000     -0.301140E-02
     17249 MEMB     139      PMPE     O32      OBL     -0.630000       15.9994           0   0.00000     -0.301140E-02
     17250 MEMB     139      PMPE     C32      CTL2    -0.220000       12.0110           0   0.00000     -0.301140E-02
     17251 MEMB     139      PMPE     H2X      HAL2     0.900000E-01   1.00800           0   0.00000     -0.301140E-02
     17252 MEMB     139      PMPE     H2Y      HAL2     0.900000E-01   1.00800           0   0.00000     -0.301140E-02
     17253 MEMB     139      PMPE     C23      CTL2    -0.180000       12.0110           0   0.00000     -0.301140E-02
     17254 MEMB     139      PMPE     H3R      HAL2     0.900000E-01   1.00800           0   0.00000     -0.301140E-02
     17255 MEMB     139      PMPE     H3S      HAL2     0.900000E-01   1.00800           0   0.00000     -0.301140E-02
     17256 MEMB     139      PMPE     C24      CTL2    -0.180000       12.0110           0   0.00000     -0.301140E-02
     17257 MEMB     139      PMPE     H4R      HAL2     0.900000E-01   1.00800           0   0.00000     -0.301140E-02
     17258 MEMB     139      PMPE     H4S      HAL2     0.900000E-01   1.00800           0   0.00000     -0.301140E-02
     17259 MEMB     139      PMPE     C25      CTL2    -0.180000       12.0110           0   0.00000     -0.301140E-02
     17260 MEMB     139      PMPE     H5R      HAL2     0.900000E-01   1.00800           0   0.00000     -0.301140E-02
     17261 MEMB     139      PMPE     H5S      HAL2     0.900000E-01   1.00800           0   0.00000     -0.301140E-02
     17262 MEMB     139      PMPE     C26      CTL2    -0.180000       12.0110           0   0.00000     -0.301140E-02
     17263 MEMB     139      PMPE     H6R      HAL2     0.900000E-01   1.00800           0   0.00000     -0.301140E-02
     17264 MEMB     139      PMPE     H6S      HAL2     0.900000E-01   1.00800           0   0.00000     -0.301140E-02
     17265 MEMB     139      PMPE     C27      CTL2    -0.180000       12.0110           0   0.00000     -0.301140E-02
     17266 MEMB     139      PMPE     H7R      HAL2     0.900000E-01   1.00800           0   0.00000     -0.301140E-02
     17267 MEMB     139      PMPE     H7S      HAL2     0.900000E-01   1.00800           0   0.00000     -0.301140E-02
     17268 MEMB     139      PMPE     C28      CTL2    -0.180000       12.0110           0   0.00000     -0.301140E-02
     17269 MEMB     139      PMPE     H8R      HAL2     0.900000E-01   1.00800           0   0.00000     -0.301140E-02
     17270 MEMB     139      PMPE     H8S      HAL2     0.900000E-01   1.00800           0   0.00000     -0.301140E-02
     17271 MEMB     139      PMPE     C29      CG3RC1  -0.900000E-01   12.0110           0   0.00000     -0.301140E-02
     17272 MEMB     139      PMPE     H9R      HGA1     0.900000E-01   1.00800           0   0.00000     -0.301140E-02
     17273 MEMB     139      PMPE     C217     CG3C31  -0.180000       12.0110           0   0.00000     -0.301140E-02
     17274 MEMB     139      PMPE     H17R     HGA2     0.900000E-01   1.00800           0   0.00000     -0.301140E-02
     17275 MEMB     139      PMPE     H17S     HGA2     0.900000E-01   1.00800           0   0.00000     -0.301140E-02
     17276 MEMB     139      PMPE     C210     CG3RC1  -0.900000E-01   12.0110           0   0.00000     -0.301140E-02
     17277 MEMB     139      PMPE     H10R     HGA1     0.900000E-01   1.00800           0   0.00000     -0.301140E-02
     17278 MEMB     139      PMPE     C211     CTL2    -0.180000       12.0110           0   0.00000     -0.301140E-02
     17279 MEMB     139      PMPE     H11R     HAL2     0.900000E-01   1.00800           0   0.00000     -0.301140E-02
     17280 MEMB     139      PMPE     H11S     HAL2     0.900000E-01   1.00800           0   0.00000     -0.301140E-02
     17281 MEMB     139      PMPE     C212     CTL2    -0.180000       12.0110           0   0.00000     -0.301140E-02
     17282 MEMB     139      PMPE     H12R     HAL2     0.900000E-01   1.00800           0   0.00000     -0.301140E-02
     17283 MEMB     139      PMPE     H12S     HAL2     0.900000E-01   1.00800           0   0.00000     -0.301140E-02
     17284 MEMB     139      PMPE     C213     CTL2    -0.180000       12.0110           0   0.00000     -0.301140E-02
     17285 MEMB     139      PMPE     H13R     HAL2     0.900000E-01   1.00800           0   0.00000     -0.301140E-02
     17286 MEMB     139      PMPE     H13S     HAL2     0.900000E-01   1.00800           0   0.00000     -0.301140E-02
     17287 MEMB     139      PMPE     C214     CTL2    -0.180000       12.0110           0   0.00000     -0.301140E-02
     17288 MEMB     139      PMPE     H14R     HAL2     0.900000E-01   1.00800           0   0.00000     -0.301140E-02
     17289 MEMB     139      PMPE     H14S     HAL2     0.900000E-01   1.00800           0   0.00000     -0.301140E-02
     17290 MEMB     139      PMPE     C215     CTL2    -0.180000       12.0110           0   0.00000     -0.301140E-02
     17291 MEMB     139      PMPE     H15R     HAL2     0.900000E-01   1.00800           0   0.00000     -0.301140E-02
     17292 MEMB     139      PMPE     H15S     HAL2     0.900000E-01   1.00800           0   0.00000     -0.301140E-02
     17293 MEMB     139      PMPE     C216     CTL3    -0.270000       12.0110           0   0.00000     -0.301140E-02
     17294 MEMB     139      PMPE     H16R     HAL3     0.900000E-01   1.00800           0   0.00000     -0.301140E-02
     17295 MEMB     139      PMPE     H16S     HAL3     0.900000E-01   1.00800           0   0.00000     -0.301140E-02
     17296 MEMB     139      PMPE     H16T     HAL3     0.900000E-01   1.00800           0   0.00000     -0.301140E-02
     17297 MEMB     139      PMPE     C33      CTL2    -0.180000       12.0110           0   0.00000     -0.301140E-02
     17298 MEMB     139      PMPE     H3X      HAL2     0.900000E-01   1.00800           0   0.00000     -0.301140E-02
     17299 MEMB     139      PMPE     H3Y      HAL2     0.900000E-01   1.00800           0   0.00000     -0.301140E-02
     17300 MEMB     139      PMPE     C34      CTL2    -0.180000       12.0110           0   0.00000     -0.301140E-02
     17301 MEMB     139      PMPE     H4X      HAL2     0.900000E-01   1.00800           0   0.00000     -0.301140E-02
     17302 MEMB     139      PMPE     H4Y      HAL2     0.900000E-01   1.00800           0   0.00000     -0.301140E-02
     17303 MEMB     139      PMPE     C35      CTL2    -0.180000       12.0110           0   0.00000     -0.301140E-02
     17304 MEMB     139      PMPE     H5X      HAL2     0.900000E-01   1.00800           0   0.00000     -0.301140E-02
     17305 MEMB     139      PMPE     H5Y      HAL2     0.900000E-01   1.00800           0   0.00000     -0.301140E-02
     17306 MEMB     139      PMPE     C36      CTL2    -0.180000       12.0110           0   0.00000     -0.301140E-02
     17307 MEMB     139      PMPE     H6X      HAL2     0.900000E-01   1.00800           0   0.00000     -0.301140E-02
     17308 MEMB     139      PMPE     H6Y      HAL2     0.900000E-01   1.00800           0   0.00000     -0.301140E-02
     17309 MEMB     139      PMPE     C37      CTL2    -0.180000       12.0110           0   0.00000     -0.301140E-02
     17310 MEMB     139      PMPE     H7X      HAL2     0.900000E-01   1.00800           0   0.00000     -0.301140E-02
     17311 MEMB     139      PMPE     H7Y      HAL2     0.900000E-01   1.00800           0   0.00000     -0.301140E-02
     17312 MEMB     139      PMPE     C38      CTL2    -0.180000       12.0110           0   0.00000     -0.301140E-02
     17313 MEMB     139      PMPE     H8X      HAL2     0.900000E-01   1.00800           0   0.00000     -0.301140E-02
     17314 MEMB     139      PMPE     H8Y      HAL2     0.900000E-01   1.00800           0   0.00000     -0.301140E-02
     17315 MEMB     139      PMPE     C39      CTL2    -0.180000       12.0110           0   0.00000     -0.301140E-02
     17316 MEMB     139      PMPE     H9X      HAL2     0.900000E-01   1.00800           0   0.00000     -0.301140E-02
     17317 MEMB     139      PMPE     H9Y      HAL2     0.900000E-01   1.00800           0   0.00000     -0.301140E-02
     17318 MEMB     139      PMPE     C310     CTL2    -0.180000       12.0110           0   0.00000     -0.301140E-02
     17319 MEMB     139      PMPE     H10X     HAL2     0.900000E-01   1.00800           0   0.00000     -0.301140E-02
     17320 MEMB     139      PMPE     H10Y     HAL2     0.900000E-01   1.00800           0   0.00000     -0.301140E-02
     17321 MEMB     139      PMPE     C311     CTL2    -0.180000       12.0110           0   0.00000     -0.301140E-02
     17322 MEMB     139      PMPE     H11X     HAL2     0.900000E-01   1.00800           0   0.00000     -0.301140E-02
     17323 MEMB     139      PMPE     H11Y     HAL2     0.900000E-01   1.00800           0   0.00000     -0.301140E-02
     17324 MEMB     139      PMPE     C312     CTL2    -0.180000       12.0110           0   0.00000     -0.301140E-02
     17325 MEMB     139      PMPE     H12X     HAL2     0.900000E-01   1.00800           0   0.00000     -0.301140E-02
     17326 MEMB     139      PMPE     H12Y     HAL2     0.900000E-01   1.00800           0   0.00000     -0.301140E-02
     17327 MEMB     139      PMPE     C313     CTL2    -0.180000       12.0110           0   0.00000     -0.301140E-02
     17328 MEMB     139      PMPE     H13X     HAL2     0.900000E-01   1.00800           0   0.00000     -0.301140E-02
     17329 MEMB     139      PMPE     H13Y     HAL2     0.900000E-01   1.00800           0   0.00000     -0.301140E-02
     17330 MEMB     139      PMPE     C314     CTL2    -0.180000       12.0110           0   0.00000     -0.301140E-02
     17331 MEMB     139      PMPE     H14X     HAL2     0.900000E-01   1.00800           0   0.00000     -0.301140E-02
     17332 MEMB     139      PMPE     H14Y     HAL2     0.900000E-01   1.00800           0   0.00000     -0.301140E-02
     17333 MEMB     139      PMPE     C315     CTL2    -0.180000       12.0110           0   0.00000     -0.301140E-02
     17334 MEMB     139      PMPE     H15X     HAL2     0.900000E-01   1.00800           0   0.00000     -0.301140E-02
     17335 MEMB     139      PMPE     H15Y     HAL2     0.900000E-01   1.00800           0   0.00000     -0.301140E-02
     17336 MEMB     139      PMPE     C316     CTL3    -0.270000       12.0110           0   0.00000     -0.301140E-02
     17337 MEMB     139      PMPE     H16X     HAL3     0.900000E-01   1.00800           0   0.00000     -0.301140E-02
     17338 MEMB     139      PMPE     H16Y     HAL3     0.900000E-01   1.00800           0   0.00000     -0.301140E-02
     17339 MEMB     139      PMPE     H16Z     HAL3     0.900000E-01   1.00800           0   0.00000     -0.301140E-02
     17340 MEMB     140      PMPG     C13      CTL2     0.500000E-01   12.0110           0   0.00000     -0.301140E-02
     17341 MEMB     140      PMPG     H13A     HAL2     0.900000E-01   1.00800           0   0.00000     -0.301140E-02
     17342 MEMB     140      PMPG     H13B     HAL2     0.900000E-01   1.00800           0   0.00000     -0.301140E-02
     17343 MEMB     140      PMPG     OC3      OHL     -0.660000       15.9994           0   0.00000     -0.301140E-02
     17344 MEMB     140      PMPG     HO3      HOL      0.430000       1.00800           0   0.00000     -0.301140E-02
     17345 MEMB     140      PMPG     C12      CTL1     0.140000       12.0110           0   0.00000     -0.301140E-02
     17346 MEMB     140      PMPG     H12A     HAL1     0.900000E-01   1.00800           0   0.00000     -0.301140E-02
     17347 MEMB     140      PMPG     OC2      OHL     -0.660000       15.9994           0   0.00000     -0.301140E-02
     17348 MEMB     140      PMPG     HO2      HOL      0.430000       1.00800           0   0.00000     -0.301140E-02
     17349 MEMB     140      PMPG     C11      CTL2    -0.800000E-01   12.0110           0   0.00000     -0.301140E-02
     17350 MEMB     140      PMPG     H11A     HAL2     0.900000E-01   1.00800           0   0.00000     -0.301140E-02
     17351 MEMB     140      PMPG     H11B     HAL2     0.900000E-01   1.00800           0   0.00000     -0.301140E-02
     17352 MEMB     140      PMPG     P        PL        1.50000       30.9740           0   0.00000     -0.301140E-02
     17353 MEMB     140      PMPG     O13      O2L     -0.780000       15.9994           0   0.00000     -0.301140E-02
     17354 MEMB     140      PMPG     O14      O2L     -0.780000       15.9994           0   0.00000     -0.301140E-02
     17355 MEMB     140      PMPG     O11      OSLP    -0.570000       15.9994           0   0.00000     -0.301140E-02
     17356 MEMB     140      PMPG     O12      OSLP    -0.570000       15.9994           0   0.00000     -0.301140E-02
     17357 MEMB     140      PMPG     C1       CTL2    -0.800000E-01   12.0110           0   0.00000     -0.301140E-02
     17358 MEMB     140      PMPG     HA       HAL2     0.900000E-01   1.00800           0   0.00000     -0.301140E-02
     17359 MEMB     140      PMPG     HB       HAL2     0.900000E-01   1.00800           0   0.00000     -0.301140E-02
     17360 MEMB     140      PMPG     C2       CTL1     0.170000       12.0110           0   0.00000     -0.301140E-02
     17361 MEMB     140      PMPG     HS       HAL1     0.900000E-01   1.00800           0   0.00000     -0.301140E-02
     17362 MEMB     140      PMPG     O21      OSL     -0.490000       15.9994           0   0.00000     -0.301140E-02
     17363 MEMB     140      PMPG     C21      CL       0.900000       12.0110           0   0.00000     -0.301140E-02
     17364 MEMB     140      PMPG     O22      OBL     -0.630000       15.9994           0   0.00000     -0.301140E-02
     17365 MEMB     140      PMPG     C22      CTL2    -0.220000       12.0110           0   0.00000     -0.301140E-02
     17366 MEMB     140      PMPG     H2R      HAL2     0.900000E-01   1.00800           0   0.00000     -0.301140E-02
     17367 MEMB     140      PMPG     H2S      HAL2     0.900000E-01   1.00800           0   0.00000     -0.301140E-02
     17368 MEMB     140      PMPG     C3       CTL2     0.800000E-01   12.0110           0   0.00000     -0.301140E-02
     17369 MEMB     140      PMPG     HX       HAL2     0.900000E-01   1.00800           0   0.00000     -0.301140E-02
     17370 MEMB     140      PMPG     HY       HAL2     0.900000E-01   1.00800           0   0.00000     -0.301140E-02
     17371 MEMB     140      PMPG     O31      OSL     -0.490000       15.9994           0   0.00000     -0.301140E-02
     17372 MEMB     140      PMPG     C31      CL       0.900000       12.0110           0   0.00000     -0.301140E-02
     17373 MEMB     140      PMPG     O32      OBL     -0.630000       15.9994           0   0.00000     -0.301140E-02
     17374 MEMB     140      PMPG     C32      CTL2    -0.220000       12.0110           0   0.00000     -0.301140E-02
     17375 MEMB     140      PMPG     H2X      HAL2     0.900000E-01   1.00800           0   0.00000     -0.301140E-02
     17376 MEMB     140      PMPG     H2Y      HAL2     0.900000E-01   1.00800           0   0.00000     -0.301140E-02
     17377 MEMB     140      PMPG     C23      CTL2    -0.180000       12.0110           0   0.00000     -0.301140E-02
     17378 MEMB     140      PMPG     H3R      HAL2     0.900000E-01   1.00800           0   0.00000     -0.301140E-02
     17379 MEMB     140      PMPG     H3S      HAL2     0.900000E-01   1.00800           0   0.00000     -0.301140E-02
     17380 MEMB     140      PMPG     C24      CTL2    -0.180000       12.0110           0   0.00000     -0.301140E-02
     17381 MEMB     140      PMPG     H4R      HAL2     0.900000E-01   1.00800           0   0.00000     -0.301140E-02
     17382 MEMB     140      PMPG     H4S      HAL2     0.900000E-01   1.00800           0   0.00000     -0.301140E-02
     17383 MEMB     140      PMPG     C25      CTL2    -0.180000       12.0110           0   0.00000     -0.301140E-02
     17384 MEMB     140      PMPG     H5R      HAL2     0.900000E-01   1.00800           0   0.00000     -0.301140E-02
     17385 MEMB     140      PMPG     H5S      HAL2     0.900000E-01   1.00800           0   0.00000     -0.301140E-02
     17386 MEMB     140      PMPG     C26      CTL2    -0.180000       12.0110           0   0.00000     -0.301140E-02
     17387 MEMB     140      PMPG     H6R      HAL2     0.900000E-01   1.00800           0   0.00000     -0.301140E-02
     17388 MEMB     140      PMPG     H6S      HAL2     0.900000E-01   1.00800           0   0.00000     -0.301140E-02
     17389 MEMB     140      PMPG     C27      CTL2    -0.180000       12.0110           0   0.00000     -0.301140E-02
     17390 MEMB     140      PMPG     H7R      HAL2     0.900000E-01   1.00800           0   0.00000     -0.301140E-02
     17391 MEMB     140      PMPG     H7S      HAL2     0.900000E-01   1.00800           0   0.00000     -0.301140E-02
     17392 MEMB     140      PMPG     C28      CTL2    -0.180000       12.0110           0   0.00000     -0.301140E-02
     17393 MEMB     140      PMPG     H8R      HAL2     0.900000E-01   1.00800           0   0.00000     -0.301140E-02
     17394 MEMB     140      PMPG     H8S      HAL2     0.900000E-01   1.00800           0   0.00000     -0.301140E-02
     17395 MEMB     140      PMPG     C29      CG3RC1  -0.900000E-01   12.0110           0   0.00000     -0.301140E-02
     17396 MEMB     140      PMPG     H9R      HGA1     0.900000E-01   1.00800           0   0.00000     -0.301140E-02
     17397 MEMB     140      PMPG     C217     CG3C31  -0.180000       12.0110           0   0.00000     -0.301140E-02
     17398 MEMB     140      PMPG     H17R     HGA2     0.900000E-01   1.00800           0   0.00000     -0.301140E-02
     17399 MEMB     140      PMPG     H17S     HGA2     0.900000E-01   1.00800           0   0.00000     -0.301140E-02
     17400 MEMB     140      PMPG     C210     CG3RC1  -0.900000E-01   12.0110           0   0.00000     -0.301140E-02
     17401 MEMB     140      PMPG     H10R     HGA1     0.900000E-01   1.00800           0   0.00000     -0.301140E-02
     17402 MEMB     140      PMPG     C211     CTL2    -0.180000       12.0110           0   0.00000     -0.301140E-02
     17403 MEMB     140      PMPG     H11R     HAL2     0.900000E-01   1.00800           0   0.00000     -0.301140E-02
     17404 MEMB     140      PMPG     H11S     HAL2     0.900000E-01   1.00800           0   0.00000     -0.301140E-02
     17405 MEMB     140      PMPG     C212     CTL2    -0.180000       12.0110           0   0.00000     -0.301140E-02
     17406 MEMB     140      PMPG     H12R     HAL2     0.900000E-01   1.00800           0   0.00000     -0.301140E-02
     17407 MEMB     140      PMPG     H12S     HAL2     0.900000E-01   1.00800           0   0.00000     -0.301140E-02
     17408 MEMB     140      PMPG     C213     CTL2    -0.180000       12.0110           0   0.00000     -0.301140E-02
     17409 MEMB     140      PMPG     H13R     HAL2     0.900000E-01   1.00800           0   0.00000     -0.301140E-02
     17410 MEMB     140      PMPG     H13S     HAL2     0.900000E-01   1.00800           0   0.00000     -0.301140E-02
     17411 MEMB     140      PMPG     C214     CTL2    -0.180000       12.0110           0   0.00000     -0.301140E-02
     17412 MEMB     140      PMPG     H14R     HAL2     0.900000E-01   1.00800           0   0.00000     -0.301140E-02
     17413 MEMB     140      PMPG     H14S     HAL2     0.900000E-01   1.00800           0   0.00000     -0.301140E-02
     17414 MEMB     140      PMPG     C215     CTL2    -0.180000       12.0110           0   0.00000     -0.301140E-02
     17415 MEMB     140      PMPG     H15R     HAL2     0.900000E-01   1.00800           0   0.00000     -0.301140E-02
     17416 MEMB     140      PMPG     H15S     HAL2     0.900000E-01   1.00800           0   0.00000     -0.301140E-02
     17417 MEMB     140      PMPG     C216     CTL3    -0.270000       12.0110           0   0.00000     -0.301140E-02
     17418 MEMB     140      PMPG     H16R     HAL3     0.900000E-01   1.00800           0   0.00000     -0.301140E-02
     17419 MEMB     140      PMPG     H16S     HAL3     0.900000E-01   1.00800           0   0.00000     -0.301140E-02
     17420 MEMB     140      PMPG     H16T     HAL3     0.900000E-01   1.00800           0   0.00000     -0.301140E-02
     17421 MEMB     140      PMPG     C33      CTL2    -0.180000       12.0110           0   0.00000     -0.301140E-02
     17422 MEMB     140      PMPG     H3X      HAL2     0.900000E-01   1.00800           0   0.00000     -0.301140E-02
     17423 MEMB     140      PMPG     H3Y      HAL2     0.900000E-01   1.00800           0   0.00000     -0.301140E-02
     17424 MEMB     140      PMPG     C34      CTL2    -0.180000       12.0110           0   0.00000     -0.301140E-02
     17425 MEMB     140      PMPG     H4X      HAL2     0.900000E-01   1.00800           0   0.00000     -0.301140E-02
     17426 MEMB     140      PMPG     H4Y      HAL2     0.900000E-01   1.00800           0   0.00000     -0.301140E-02
     17427 MEMB     140      PMPG     C35      CTL2    -0.180000       12.0110           0   0.00000     -0.301140E-02
     17428 MEMB     140      PMPG     H5X      HAL2     0.900000E-01   1.00800           0   0.00000     -0.301140E-02
     17429 MEMB     140      PMPG     H5Y      HAL2     0.900000E-01   1.00800           0   0.00000     -0.301140E-02
     17430 MEMB     140      PMPG     C36      CTL2    -0.180000       12.0110           0   0.00000     -0.301140E-02
     17431 MEMB     140      PMPG     H6X      HAL2     0.900000E-01   1.00800           0   0.00000     -0.301140E-02
     17432 MEMB     140      PMPG     H6Y      HAL2     0.900000E-01   1.00800           0   0.00000     -0.301140E-02
     17433 MEMB     140      PMPG     C37      CTL2    -0.180000       12.0110           0   0.00000     -0.301140E-02
     17434 MEMB     140      PMPG     H7X      HAL2     0.900000E-01   1.00800           0   0.00000     -0.301140E-02
     17435 MEMB     140      PMPG     H7Y      HAL2     0.900000E-01   1.00800           0   0.00000     -0.301140E-02
     17436 MEMB     140      PMPG     C38      CTL2    -0.180000       12.0110           0   0.00000     -0.301140E-02
     17437 MEMB     140      PMPG     H8X      HAL2     0.900000E-01   1.00800           0   0.00000     -0.301140E-02
     17438 MEMB     140      PMPG     H8Y      HAL2     0.900000E-01   1.00800           0   0.00000     -0.301140E-02
     17439 MEMB     140      PMPG     C39      CTL2    -0.180000       12.0110           0   0.00000     -0.301140E-02
     17440 MEMB     140      PMPG     H9X      HAL2     0.900000E-01   1.00800           0   0.00000     -0.301140E-02
     17441 MEMB     140      PMPG     H9Y      HAL2     0.900000E-01   1.00800           0   0.00000     -0.301140E-02
     17442 MEMB     140      PMPG     C310     CTL2    -0.180000       12.0110           0   0.00000     -0.301140E-02
     17443 MEMB     140      PMPG     H10X     HAL2     0.900000E-01   1.00800           0   0.00000     -0.301140E-02
     17444 MEMB     140      PMPG     H10Y     HAL2     0.900000E-01   1.00800           0   0.00000     -0.301140E-02
     17445 MEMB     140      PMPG     C311     CTL2    -0.180000       12.0110           0   0.00000     -0.301140E-02
     17446 MEMB     140      PMPG     H11X     HAL2     0.900000E-01   1.00800           0   0.00000     -0.301140E-02
     17447 MEMB     140      PMPG     H11Y     HAL2     0.900000E-01   1.00800           0   0.00000     -0.301140E-02
     17448 MEMB     140      PMPG     C312     CTL2    -0.180000       12.0110           0   0.00000     -0.301140E-02
     17449 MEMB     140      PMPG     H12X     HAL2     0.900000E-01   1.00800           0   0.00000     -0.301140E-02
     17450 MEMB     140      PMPG     H12Y     HAL2     0.900000E-01   1.00800           0   0.00000     -0.301140E-02
     17451 MEMB     140      PMPG     C313     CTL2    -0.180000       12.0110           0   0.00000     -0.301140E-02
     17452 MEMB     140      PMPG     H13X     HAL2     0.900000E-01   1.00800           0   0.00000     -0.301140E-02
     17453 MEMB     140      PMPG     H13Y     HAL2     0.900000E-01   1.00800           0   0.00000     -0.301140E-02
     17454 MEMB     140      PMPG     C314     CTL2    -0.180000       12.0110           0   0.00000     -0.301140E-02
     17455 MEMB     140      PMPG     H14X     HAL2     0.900000E-01   1.00800           0   0.00000     -0.301140E-02
     17456 MEMB     140      PMPG     H14Y     HAL2     0.900000E-01   1.00800           0   0.00000     -0.301140E-02
     17457 MEMB     140      PMPG     C315     CTL2    -0.180000       12.0110           0   0.00000     -0.301140E-02
     17458 MEMB     140      PMPG     H15X     HAL2     0.900000E-01   1.00800           0   0.00000     -0.301140E-02
     17459 MEMB     140      PMPG     H15Y     HAL2     0.900000E-01   1.00800           0   0.00000     -0.301140E-02
     17460 MEMB     140      PMPG     C316     CTL3    -0.270000       12.0110           0   0.00000     -0.301140E-02
     17461 MEMB     140      PMPG     H16X     HAL3     0.900000E-01   1.00800           0   0.00000     -0.301140E-02
     17462 MEMB     140      PMPG     H16Y     HAL3     0.900000E-01   1.00800           0   0.00000     -0.301140E-02
     17463 MEMB     140      PMPG     H16Z     HAL3     0.900000E-01   1.00800           0   0.00000     -0.301140E-02
     17464 MEMB     141      PMPE     N        NH3L    -0.300000       14.0070           0   0.00000     -0.301140E-02
     17465 MEMB     141      PMPE     HN1      HCL      0.330000       1.00800           0   0.00000     -0.301140E-02
     17466 MEMB     141      PMPE     HN2      HCL      0.330000       1.00800           0   0.00000     -0.301140E-02
     17467 MEMB     141      PMPE     HN3      HCL      0.330000       1.00800           0   0.00000     -0.301140E-02
     17468 MEMB     141      PMPE     C12      CTL2     0.130000       12.0110           0   0.00000     -0.301140E-02
     17469 MEMB     141      PMPE     H12A     HAL2     0.900000E-01   1.00800           0   0.00000     -0.301140E-02
     17470 MEMB     141      PMPE     H12B     HAL2     0.900000E-01   1.00800           0   0.00000     -0.301140E-02
     17471 MEMB     141      PMPE     C11      CTL2    -0.800000E-01   12.0110           0   0.00000     -0.301140E-02
     17472 MEMB     141      PMPE     H11A     HAL2     0.900000E-01   1.00800           0   0.00000     -0.301140E-02
     17473 MEMB     141      PMPE     H11B     HAL2     0.900000E-01   1.00800           0   0.00000     -0.301140E-02
     17474 MEMB     141      PMPE     P        PL        1.50000       30.9740           0   0.00000     -0.301140E-02
     17475 MEMB     141      PMPE     O13      O2L     -0.780000       15.9994           0   0.00000     -0.301140E-02
     17476 MEMB     141      PMPE     O14      O2L     -0.780000       15.9994           0   0.00000     -0.301140E-02
     17477 MEMB     141      PMPE     O11      OSLP    -0.570000       15.9994           0   0.00000     -0.301140E-02
     17478 MEMB     141      PMPE     O12      OSLP    -0.570000       15.9994           0   0.00000     -0.301140E-02
     17479 MEMB     141      PMPE     C1       CTL2    -0.800000E-01   12.0110           0   0.00000     -0.301140E-02
     17480 MEMB     141      PMPE     HA       HAL2     0.900000E-01   1.00800           0   0.00000     -0.301140E-02
     17481 MEMB     141      PMPE     HB       HAL2     0.900000E-01   1.00800           0   0.00000     -0.301140E-02
     17482 MEMB     141      PMPE     C2       CTL1     0.170000       12.0110           0   0.00000     -0.301140E-02
     17483 MEMB     141      PMPE     HS       HAL1     0.900000E-01   1.00800           0   0.00000     -0.301140E-02
     17484 MEMB     141      PMPE     O21      OSL     -0.490000       15.9994           0   0.00000     -0.301140E-02
     17485 MEMB     141      PMPE     C21      CL       0.900000       12.0110           0   0.00000     -0.301140E-02
     17486 MEMB     141      PMPE     O22      OBL     -0.630000       15.9994           0   0.00000     -0.301140E-02
     17487 MEMB     141      PMPE     C22      CTL2    -0.220000       12.0110           0   0.00000     -0.301140E-02
     17488 MEMB     141      PMPE     H2R      HAL2     0.900000E-01   1.00800           0   0.00000     -0.301140E-02
     17489 MEMB     141      PMPE     H2S      HAL2     0.900000E-01   1.00800           0   0.00000     -0.301140E-02
     17490 MEMB     141      PMPE     C3       CTL2     0.800000E-01   12.0110           0   0.00000     -0.301140E-02
     17491 MEMB     141      PMPE     HX       HAL2     0.900000E-01   1.00800           0   0.00000     -0.301140E-02
     17492 MEMB     141      PMPE     HY       HAL2     0.900000E-01   1.00800           0   0.00000     -0.301140E-02
     17493 MEMB     141      PMPE     O31      OSL     -0.490000       15.9994           0   0.00000     -0.301140E-02
     17494 MEMB     141      PMPE     C31      CL       0.900000       12.0110           0   0.00000     -0.301140E-02
     17495 MEMB     141      PMPE     O32      OBL     -0.630000       15.9994           0   0.00000     -0.301140E-02
     17496 MEMB     141      PMPE     C32      CTL2    -0.220000       12.0110           0   0.00000     -0.301140E-02
     17497 MEMB     141      PMPE     H2X      HAL2     0.900000E-01   1.00800           0   0.00000     -0.301140E-02
     17498 MEMB     141      PMPE     H2Y      HAL2     0.900000E-01   1.00800           0   0.00000     -0.301140E-02
     17499 MEMB     141      PMPE     C23      CTL2    -0.180000       12.0110           0   0.00000     -0.301140E-02
     17500 MEMB     141      PMPE     H3R      HAL2     0.900000E-01   1.00800           0   0.00000     -0.301140E-02
     17501 MEMB     141      PMPE     H3S      HAL2     0.900000E-01   1.00800           0   0.00000     -0.301140E-02
     17502 MEMB     141      PMPE     C24      CTL2    -0.180000       12.0110           0   0.00000     -0.301140E-02
     17503 MEMB     141      PMPE     H4R      HAL2     0.900000E-01   1.00800           0   0.00000     -0.301140E-02
     17504 MEMB     141      PMPE     H4S      HAL2     0.900000E-01   1.00800           0   0.00000     -0.301140E-02
     17505 MEMB     141      PMPE     C25      CTL2    -0.180000       12.0110           0   0.00000     -0.301140E-02
     17506 MEMB     141      PMPE     H5R      HAL2     0.900000E-01   1.00800           0   0.00000     -0.301140E-02
     17507 MEMB     141      PMPE     H5S      HAL2     0.900000E-01   1.00800           0   0.00000     -0.301140E-02
     17508 MEMB     141      PMPE     C26      CTL2    -0.180000       12.0110           0   0.00000     -0.301140E-02
     17509 MEMB     141      PMPE     H6R      HAL2     0.900000E-01   1.00800           0   0.00000     -0.301140E-02
     17510 MEMB     141      PMPE     H6S      HAL2     0.900000E-01   1.00800           0   0.00000     -0.301140E-02
     17511 MEMB     141      PMPE     C27      CTL2    -0.180000       12.0110           0   0.00000     -0.301140E-02
     17512 MEMB     141      PMPE     H7R      HAL2     0.900000E-01   1.00800           0   0.00000     -0.301140E-02
     17513 MEMB     141      PMPE     H7S      HAL2     0.900000E-01   1.00800           0   0.00000     -0.301140E-02
     17514 MEMB     141      PMPE     C28      CTL2    -0.180000       12.0110           0   0.00000     -0.301140E-02
     17515 MEMB     141      PMPE     H8R      HAL2     0.900000E-01   1.00800           0   0.00000     -0.301140E-02
     17516 MEMB     141      PMPE     H8S      HAL2     0.900000E-01   1.00800           0   0.00000     -0.301140E-02
     17517 MEMB     141      PMPE     C29      CG3RC1  -0.900000E-01   12.0110           0   0.00000     -0.301140E-02
     17518 MEMB     141      PMPE     H9R      HGA1     0.900000E-01   1.00800           0   0.00000     -0.301140E-02
     17519 MEMB     141      PMPE     C217     CG3C31  -0.180000       12.0110           0   0.00000     -0.301140E-02
     17520 MEMB     141      PMPE     H17R     HGA2     0.900000E-01   1.00800           0   0.00000     -0.301140E-02
     17521 MEMB     141      PMPE     H17S     HGA2     0.900000E-01   1.00800           0   0.00000     -0.301140E-02
     17522 MEMB     141      PMPE     C210     CG3RC1  -0.900000E-01   12.0110           0   0.00000     -0.301140E-02
     17523 MEMB     141      PMPE     H10R     HGA1     0.900000E-01   1.00800           0   0.00000     -0.301140E-02
     17524 MEMB     141      PMPE     C211     CTL2    -0.180000       12.0110           0   0.00000     -0.301140E-02
     17525 MEMB     141      PMPE     H11R     HAL2     0.900000E-01   1.00800           0   0.00000     -0.301140E-02
     17526 MEMB     141      PMPE     H11S     HAL2     0.900000E-01   1.00800           0   0.00000     -0.301140E-02
     17527 MEMB     141      PMPE     C212     CTL2    -0.180000       12.0110           0   0.00000     -0.301140E-02
     17528 MEMB     141      PMPE     H12R     HAL2     0.900000E-01   1.00800           0   0.00000     -0.301140E-02
     17529 MEMB     141      PMPE     H12S     HAL2     0.900000E-01   1.00800           0   0.00000     -0.301140E-02
     17530 MEMB     141      PMPE     C213     CTL2    -0.180000       12.0110           0   0.00000     -0.301140E-02
     17531 MEMB     141      PMPE     H13R     HAL2     0.900000E-01   1.00800           0   0.00000     -0.301140E-02
     17532 MEMB     141      PMPE     H13S     HAL2     0.900000E-01   1.00800           0   0.00000     -0.301140E-02
     17533 MEMB     141      PMPE     C214     CTL2    -0.180000       12.0110           0   0.00000     -0.301140E-02
     17534 MEMB     141      PMPE     H14R     HAL2     0.900000E-01   1.00800           0   0.00000     -0.301140E-02
     17535 MEMB     141      PMPE     H14S     HAL2     0.900000E-01   1.00800           0   0.00000     -0.301140E-02
     17536 MEMB     141      PMPE     C215     CTL2    -0.180000       12.0110           0   0.00000     -0.301140E-02
     17537 MEMB     141      PMPE     H15R     HAL2     0.900000E-01   1.00800           0   0.00000     -0.301140E-02
     17538 MEMB     141      PMPE     H15S     HAL2     0.900000E-01   1.00800           0   0.00000     -0.301140E-02
     17539 MEMB     141      PMPE     C216     CTL3    -0.270000       12.0110           0   0.00000     -0.301140E-02
     17540 MEMB     141      PMPE     H16R     HAL3     0.900000E-01   1.00800           0   0.00000     -0.301140E-02
     17541 MEMB     141      PMPE     H16S     HAL3     0.900000E-01   1.00800           0   0.00000     -0.301140E-02
     17542 MEMB     141      PMPE     H16T     HAL3     0.900000E-01   1.00800           0   0.00000     -0.301140E-02
     17543 MEMB     141      PMPE     C33      CTL2    -0.180000       12.0110           0   0.00000     -0.301140E-02
     17544 MEMB     141      PMPE     H3X      HAL2     0.900000E-01   1.00800           0   0.00000     -0.301140E-02
     17545 MEMB     141      PMPE     H3Y      HAL2     0.900000E-01   1.00800           0   0.00000     -0.301140E-02
     17546 MEMB     141      PMPE     C34      CTL2    -0.180000       12.0110           0   0.00000     -0.301140E-02
     17547 MEMB     141      PMPE     H4X      HAL2     0.900000E-01   1.00800           0   0.00000     -0.301140E-02
     17548 MEMB     141      PMPE     H4Y      HAL2     0.900000E-01   1.00800           0   0.00000     -0.301140E-02
     17549 MEMB     141      PMPE     C35      CTL2    -0.180000       12.0110           0   0.00000     -0.301140E-02
     17550 MEMB     141      PMPE     H5X      HAL2     0.900000E-01   1.00800           0   0.00000     -0.301140E-02
     17551 MEMB     141      PMPE     H5Y      HAL2     0.900000E-01   1.00800           0   0.00000     -0.301140E-02
     17552 MEMB     141      PMPE     C36      CTL2    -0.180000       12.0110           0   0.00000     -0.301140E-02
     17553 MEMB     141      PMPE     H6X      HAL2     0.900000E-01   1.00800           0   0.00000     -0.301140E-02
     17554 MEMB     141      PMPE     H6Y      HAL2     0.900000E-01   1.00800           0   0.00000     -0.301140E-02
     17555 MEMB     141      PMPE     C37      CTL2    -0.180000       12.0110           0   0.00000     -0.301140E-02
     17556 MEMB     141      PMPE     H7X      HAL2     0.900000E-01   1.00800           0   0.00000     -0.301140E-02
     17557 MEMB     141      PMPE     H7Y      HAL2     0.900000E-01   1.00800           0   0.00000     -0.301140E-02
     17558 MEMB     141      PMPE     C38      CTL2    -0.180000       12.0110           0   0.00000     -0.301140E-02
     17559 MEMB     141      PMPE     H8X      HAL2     0.900000E-01   1.00800           0   0.00000     -0.301140E-02
     17560 MEMB     141      PMPE     H8Y      HAL2     0.900000E-01   1.00800           0   0.00000     -0.301140E-02
     17561 MEMB     141      PMPE     C39      CTL2    -0.180000       12.0110           0   0.00000     -0.301140E-02
     17562 MEMB     141      PMPE     H9X      HAL2     0.900000E-01   1.00800           0   0.00000     -0.301140E-02
     17563 MEMB     141      PMPE     H9Y      HAL2     0.900000E-01   1.00800           0   0.00000     -0.301140E-02
     17564 MEMB     141      PMPE     C310     CTL2    -0.180000       12.0110           0   0.00000     -0.301140E-02
     17565 MEMB     141      PMPE     H10X     HAL2     0.900000E-01   1.00800           0   0.00000     -0.301140E-02
     17566 MEMB     141      PMPE     H10Y     HAL2     0.900000E-01   1.00800           0   0.00000     -0.301140E-02
     17567 MEMB     141      PMPE     C311     CTL2    -0.180000       12.0110           0   0.00000     -0.301140E-02
     17568 MEMB     141      PMPE     H11X     HAL2     0.900000E-01   1.00800           0   0.00000     -0.301140E-02
     17569 MEMB     141      PMPE     H11Y     HAL2     0.900000E-01   1.00800           0   0.00000     -0.301140E-02
     17570 MEMB     141      PMPE     C312     CTL2    -0.180000       12.0110           0   0.00000     -0.301140E-02
     17571 MEMB     141      PMPE     H12X     HAL2     0.900000E-01   1.00800           0   0.00000     -0.301140E-02
     17572 MEMB     141      PMPE     H12Y     HAL2     0.900000E-01   1.00800           0   0.00000     -0.301140E-02
     17573 MEMB     141      PMPE     C313     CTL2    -0.180000       12.0110           0   0.00000     -0.301140E-02
     17574 MEMB     141      PMPE     H13X     HAL2     0.900000E-01   1.00800           0   0.00000     -0.301140E-02
     17575 MEMB     141      PMPE     H13Y     HAL2     0.900000E-01   1.00800           0   0.00000     -0.301140E-02
     17576 MEMB     141      PMPE     C314     CTL2    -0.180000       12.0110           0   0.00000     -0.301140E-02
     17577 MEMB     141      PMPE     H14X     HAL2     0.900000E-01   1.00800           0   0.00000     -0.301140E-02
     17578 MEMB     141      PMPE     H14Y     HAL2     0.900000E-01   1.00800           0   0.00000     -0.301140E-02
     17579 MEMB     141      PMPE     C315     CTL2    -0.180000       12.0110           0   0.00000     -0.301140E-02
     17580 MEMB     141      PMPE     H15X     HAL2     0.900000E-01   1.00800           0   0.00000     -0.301140E-02
     17581 MEMB     141      PMPE     H15Y     HAL2     0.900000E-01   1.00800           0   0.00000     -0.301140E-02
     17582 MEMB     141      PMPE     C316     CTL3    -0.270000       12.0110           0   0.00000     -0.301140E-02
     17583 MEMB     141      PMPE     H16X     HAL3     0.900000E-01   1.00800           0   0.00000     -0.301140E-02
     17584 MEMB     141      PMPE     H16Y     HAL3     0.900000E-01   1.00800           0   0.00000     -0.301140E-02
     17585 MEMB     141      PMPE     H16Z     HAL3     0.900000E-01   1.00800           0   0.00000     -0.301140E-02
     17586 MEMB     142      PMPG     C13      CTL2     0.500000E-01   12.0110           0   0.00000     -0.301140E-02
     17587 MEMB     142      PMPG     H13A     HAL2     0.900000E-01   1.00800           0   0.00000     -0.301140E-02
     17588 MEMB     142      PMPG     H13B     HAL2     0.900000E-01   1.00800           0   0.00000     -0.301140E-02
     17589 MEMB     142      PMPG     OC3      OHL     -0.660000       15.9994           0   0.00000     -0.301140E-02
     17590 MEMB     142      PMPG     HO3      HOL      0.430000       1.00800           0   0.00000     -0.301140E-02
     17591 MEMB     142      PMPG     C12      CTL1     0.140000       12.0110           0   0.00000     -0.301140E-02
     17592 MEMB     142      PMPG     H12A     HAL1     0.900000E-01   1.00800           0   0.00000     -0.301140E-02
     17593 MEMB     142      PMPG     OC2      OHL     -0.660000       15.9994           0   0.00000     -0.301140E-02
     17594 MEMB     142      PMPG     HO2      HOL      0.430000       1.00800           0   0.00000     -0.301140E-02
     17595 MEMB     142      PMPG     C11      CTL2    -0.800000E-01   12.0110           0   0.00000     -0.301140E-02
     17596 MEMB     142      PMPG     H11A     HAL2     0.900000E-01   1.00800           0   0.00000     -0.301140E-02
     17597 MEMB     142      PMPG     H11B     HAL2     0.900000E-01   1.00800           0   0.00000     -0.301140E-02
     17598 MEMB     142      PMPG     P        PL        1.50000       30.9740           0   0.00000     -0.301140E-02
     17599 MEMB     142      PMPG     O13      O2L     -0.780000       15.9994           0   0.00000     -0.301140E-02
     17600 MEMB     142      PMPG     O14      O2L     -0.780000       15.9994           0   0.00000     -0.301140E-02
     17601 MEMB     142      PMPG     O11      OSLP    -0.570000       15.9994           0   0.00000     -0.301140E-02
     17602 MEMB     142      PMPG     O12      OSLP    -0.570000       15.9994           0   0.00000     -0.301140E-02
     17603 MEMB     142      PMPG     C1       CTL2    -0.800000E-01   12.0110           0   0.00000     -0.301140E-02
     17604 MEMB     142      PMPG     HA       HAL2     0.900000E-01   1.00800           0   0.00000     -0.301140E-02
     17605 MEMB     142      PMPG     HB       HAL2     0.900000E-01   1.00800           0   0.00000     -0.301140E-02
     17606 MEMB     142      PMPG     C2       CTL1     0.170000       12.0110           0   0.00000     -0.301140E-02
     17607 MEMB     142      PMPG     HS       HAL1     0.900000E-01   1.00800           0   0.00000     -0.301140E-02
     17608 MEMB     142      PMPG     O21      OSL     -0.490000       15.9994           0   0.00000     -0.301140E-02
     17609 MEMB     142      PMPG     C21      CL       0.900000       12.0110           0   0.00000     -0.301140E-02
     17610 MEMB     142      PMPG     O22      OBL     -0.630000       15.9994           0   0.00000     -0.301140E-02
     17611 MEMB     142      PMPG     C22      CTL2    -0.220000       12.0110           0   0.00000     -0.301140E-02
     17612 MEMB     142      PMPG     H2R      HAL2     0.900000E-01   1.00800           0   0.00000     -0.301140E-02
     17613 MEMB     142      PMPG     H2S      HAL2     0.900000E-01   1.00800           0   0.00000     -0.301140E-02
     17614 MEMB     142      PMPG     C3       CTL2     0.800000E-01   12.0110           0   0.00000     -0.301140E-02
     17615 MEMB     142      PMPG     HX       HAL2     0.900000E-01   1.00800           0   0.00000     -0.301140E-02
     17616 MEMB     142      PMPG     HY       HAL2     0.900000E-01   1.00800           0   0.00000     -0.301140E-02
     17617 MEMB     142      PMPG     O31      OSL     -0.490000       15.9994           0   0.00000     -0.301140E-02
     17618 MEMB     142      PMPG     C31      CL       0.900000       12.0110           0   0.00000     -0.301140E-02
     17619 MEMB     142      PMPG     O32      OBL     -0.630000       15.9994           0   0.00000     -0.301140E-02
     17620 MEMB     142      PMPG     C32      CTL2    -0.220000       12.0110           0   0.00000     -0.301140E-02
     17621 MEMB     142      PMPG     H2X      HAL2     0.900000E-01   1.00800           0   0.00000     -0.301140E-02
     17622 MEMB     142      PMPG     H2Y      HAL2     0.900000E-01   1.00800           0   0.00000     -0.301140E-02
     17623 MEMB     142      PMPG     C23      CTL2    -0.180000       12.0110           0   0.00000     -0.301140E-02
     17624 MEMB     142      PMPG     H3R      HAL2     0.900000E-01   1.00800           0   0.00000     -0.301140E-02
     17625 MEMB     142      PMPG     H3S      HAL2     0.900000E-01   1.00800           0   0.00000     -0.301140E-02
     17626 MEMB     142      PMPG     C24      CTL2    -0.180000       12.0110           0   0.00000     -0.301140E-02
     17627 MEMB     142      PMPG     H4R      HAL2     0.900000E-01   1.00800           0   0.00000     -0.301140E-02
     17628 MEMB     142      PMPG     H4S      HAL2     0.900000E-01   1.00800           0   0.00000     -0.301140E-02
     17629 MEMB     142      PMPG     C25      CTL2    -0.180000       12.0110           0   0.00000     -0.301140E-02
     17630 MEMB     142      PMPG     H5R      HAL2     0.900000E-01   1.00800           0   0.00000     -0.301140E-02
     17631 MEMB     142      PMPG     H5S      HAL2     0.900000E-01   1.00800           0   0.00000     -0.301140E-02
     17632 MEMB     142      PMPG     C26      CTL2    -0.180000       12.0110           0   0.00000     -0.301140E-02
     17633 MEMB     142      PMPG     H6R      HAL2     0.900000E-01   1.00800           0   0.00000     -0.301140E-02
     17634 MEMB     142      PMPG     H6S      HAL2     0.900000E-01   1.00800           0   0.00000     -0.301140E-02
     17635 MEMB     142      PMPG     C27      CTL2    -0.180000       12.0110           0   0.00000     -0.301140E-02
     17636 MEMB     142      PMPG     H7R      HAL2     0.900000E-01   1.00800           0   0.00000     -0.301140E-02
     17637 MEMB     142      PMPG     H7S      HAL2     0.900000E-01   1.00800           0   0.00000     -0.301140E-02
     17638 MEMB     142      PMPG     C28      CTL2    -0.180000       12.0110           0   0.00000     -0.301140E-02
     17639 MEMB     142      PMPG     H8R      HAL2     0.900000E-01   1.00800           0   0.00000     -0.301140E-02
     17640 MEMB     142      PMPG     H8S      HAL2     0.900000E-01   1.00800           0   0.00000     -0.301140E-02
     17641 MEMB     142      PMPG     C29      CG3RC1  -0.900000E-01   12.0110           0   0.00000     -0.301140E-02
     17642 MEMB     142      PMPG     H9R      HGA1     0.900000E-01   1.00800           0   0.00000     -0.301140E-02
     17643 MEMB     142      PMPG     C217     CG3C31  -0.180000       12.0110           0   0.00000     -0.301140E-02
     17644 MEMB     142      PMPG     H17R     HGA2     0.900000E-01   1.00800           0   0.00000     -0.301140E-02
     17645 MEMB     142      PMPG     H17S     HGA2     0.900000E-01   1.00800           0   0.00000     -0.301140E-02
     17646 MEMB     142      PMPG     C210     CG3RC1  -0.900000E-01   12.0110           0   0.00000     -0.301140E-02
     17647 MEMB     142      PMPG     H10R     HGA1     0.900000E-01   1.00800           0   0.00000     -0.301140E-02
     17648 MEMB     142      PMPG     C211     CTL2    -0.180000       12.0110           0   0.00000     -0.301140E-02
     17649 MEMB     142      PMPG     H11R     HAL2     0.900000E-01   1.00800           0   0.00000     -0.301140E-02
     17650 MEMB     142      PMPG     H11S     HAL2     0.900000E-01   1.00800           0   0.00000     -0.301140E-02
     17651 MEMB     142      PMPG     C212     CTL2    -0.180000       12.0110           0   0.00000     -0.301140E-02
     17652 MEMB     142      PMPG     H12R     HAL2     0.900000E-01   1.00800           0   0.00000     -0.301140E-02
     17653 MEMB     142      PMPG     H12S     HAL2     0.900000E-01   1.00800           0   0.00000     -0.301140E-02
     17654 MEMB     142      PMPG     C213     CTL2    -0.180000       12.0110           0   0.00000     -0.301140E-02
     17655 MEMB     142      PMPG     H13R     HAL2     0.900000E-01   1.00800           0   0.00000     -0.301140E-02
     17656 MEMB     142      PMPG     H13S     HAL2     0.900000E-01   1.00800           0   0.00000     -0.301140E-02
     17657 MEMB     142      PMPG     C214     CTL2    -0.180000       12.0110           0   0.00000     -0.301140E-02
     17658 MEMB     142      PMPG     H14R     HAL2     0.900000E-01   1.00800           0   0.00000     -0.301140E-02
     17659 MEMB     142      PMPG     H14S     HAL2     0.900000E-01   1.00800           0   0.00000     -0.301140E-02
     17660 MEMB     142      PMPG     C215     CTL2    -0.180000       12.0110           0   0.00000     -0.301140E-02
     17661 MEMB     142      PMPG     H15R     HAL2     0.900000E-01   1.00800           0   0.00000     -0.301140E-02
     17662 MEMB     142      PMPG     H15S     HAL2     0.900000E-01   1.00800           0   0.00000     -0.301140E-02
     17663 MEMB     142      PMPG     C216     CTL3    -0.270000       12.0110           0   0.00000     -0.301140E-02
     17664 MEMB     142      PMPG     H16R     HAL3     0.900000E-01   1.00800           0   0.00000     -0.301140E-02
     17665 MEMB     142      PMPG     H16S     HAL3     0.900000E-01   1.00800           0   0.00000     -0.301140E-02
     17666 MEMB     142      PMPG     H16T     HAL3     0.900000E-01   1.00800           0   0.00000     -0.301140E-02
     17667 MEMB     142      PMPG     C33      CTL2    -0.180000       12.0110           0   0.00000     -0.301140E-02
     17668 MEMB     142      PMPG     H3X      HAL2     0.900000E-01   1.00800           0   0.00000     -0.301140E-02
     17669 MEMB     142      PMPG     H3Y      HAL2     0.900000E-01   1.00800           0   0.00000     -0.301140E-02
     17670 MEMB     142      PMPG     C34      CTL2    -0.180000       12.0110           0   0.00000     -0.301140E-02
     17671 MEMB     142      PMPG     H4X      HAL2     0.900000E-01   1.00800           0   0.00000     -0.301140E-02
     17672 MEMB     142      PMPG     H4Y      HAL2     0.900000E-01   1.00800           0   0.00000     -0.301140E-02
     17673 MEMB     142      PMPG     C35      CTL2    -0.180000       12.0110           0   0.00000     -0.301140E-02
     17674 MEMB     142      PMPG     H5X      HAL2     0.900000E-01   1.00800           0   0.00000     -0.301140E-02
     17675 MEMB     142      PMPG     H5Y      HAL2     0.900000E-01   1.00800           0   0.00000     -0.301140E-02
     17676 MEMB     142      PMPG     C36      CTL2    -0.180000       12.0110           0   0.00000     -0.301140E-02
     17677 MEMB     142      PMPG     H6X      HAL2     0.900000E-01   1.00800           0   0.00000     -0.301140E-02
     17678 MEMB     142      PMPG     H6Y      HAL2     0.900000E-01   1.00800           0   0.00000     -0.301140E-02
     17679 MEMB     142      PMPG     C37      CTL2    -0.180000       12.0110           0   0.00000     -0.301140E-02
     17680 MEMB     142      PMPG     H7X      HAL2     0.900000E-01   1.00800           0   0.00000     -0.301140E-02
     17681 MEMB     142      PMPG     H7Y      HAL2     0.900000E-01   1.00800           0   0.00000     -0.301140E-02
     17682 MEMB     142      PMPG     C38      CTL2    -0.180000       12.0110           0   0.00000     -0.301140E-02
     17683 MEMB     142      PMPG     H8X      HAL2     0.900000E-01   1.00800           0   0.00000     -0.301140E-02
     17684 MEMB     142      PMPG     H8Y      HAL2     0.900000E-01   1.00800           0   0.00000     -0.301140E-02
     17685 MEMB     142      PMPG     C39      CTL2    -0.180000       12.0110           0   0.00000     -0.301140E-02
     17686 MEMB     142      PMPG     H9X      HAL2     0.900000E-01   1.00800           0   0.00000     -0.301140E-02
     17687 MEMB     142      PMPG     H9Y      HAL2     0.900000E-01   1.00800           0   0.00000     -0.301140E-02
     17688 MEMB     142      PMPG     C310     CTL2    -0.180000       12.0110           0   0.00000     -0.301140E-02
     17689 MEMB     142      PMPG     H10X     HAL2     0.900000E-01   1.00800           0   0.00000     -0.301140E-02
     17690 MEMB     142      PMPG     H10Y     HAL2     0.900000E-01   1.00800           0   0.00000     -0.301140E-02
     17691 MEMB     142      PMPG     C311     CTL2    -0.180000       12.0110           0   0.00000     -0.301140E-02
     17692 MEMB     142      PMPG     H11X     HAL2     0.900000E-01   1.00800           0   0.00000     -0.301140E-02
     17693 MEMB     142      PMPG     H11Y     HAL2     0.900000E-01   1.00800           0   0.00000     -0.301140E-02
     17694 MEMB     142      PMPG     C312     CTL2    -0.180000       12.0110           0   0.00000     -0.301140E-02
     17695 MEMB     142      PMPG     H12X     HAL2     0.900000E-01   1.00800           0   0.00000     -0.301140E-02
     17696 MEMB     142      PMPG     H12Y     HAL2     0.900000E-01   1.00800           0   0.00000     -0.301140E-02
     17697 MEMB     142      PMPG     C313     CTL2    -0.180000       12.0110           0   0.00000     -0.301140E-02
     17698 MEMB     142      PMPG     H13X     HAL2     0.900000E-01   1.00800           0   0.00000     -0.301140E-02
     17699 MEMB     142      PMPG     H13Y     HAL2     0.900000E-01   1.00800           0   0.00000     -0.301140E-02
     17700 MEMB     142      PMPG     C314     CTL2    -0.180000       12.0110           0   0.00000     -0.301140E-02
     17701 MEMB     142      PMPG     H14X     HAL2     0.900000E-01   1.00800           0   0.00000     -0.301140E-02
     17702 MEMB     142      PMPG     H14Y     HAL2     0.900000E-01   1.00800           0   0.00000     -0.301140E-02
     17703 MEMB     142      PMPG     C315     CTL2    -0.180000       12.0110           0   0.00000     -0.301140E-02
     17704 MEMB     142      PMPG     H15X     HAL2     0.900000E-01   1.00800           0   0.00000     -0.301140E-02
     17705 MEMB     142      PMPG     H15Y     HAL2     0.900000E-01   1.00800           0   0.00000     -0.301140E-02
     17706 MEMB     142      PMPG     C316     CTL3    -0.270000       12.0110           0   0.00000     -0.301140E-02
     17707 MEMB     142      PMPG     H16X     HAL3     0.900000E-01   1.00800           0   0.00000     -0.301140E-02
     17708 MEMB     142      PMPG     H16Y     HAL3     0.900000E-01   1.00800           0   0.00000     -0.301140E-02
     17709 MEMB     142      PMPG     H16Z     HAL3     0.900000E-01   1.00800           0   0.00000     -0.301140E-02
     17710 MEMB     143      PMPE     N        NH3L    -0.300000       14.0070           0   0.00000     -0.301140E-02
     17711 MEMB     143      PMPE     HN1      HCL      0.330000       1.00800           0   0.00000     -0.301140E-02
     17712 MEMB     143      PMPE     HN2      HCL      0.330000       1.00800           0   0.00000     -0.301140E-02
     17713 MEMB     143      PMPE     HN3      HCL      0.330000       1.00800           0   0.00000     -0.301140E-02
     17714 MEMB     143      PMPE     C12      CTL2     0.130000       12.0110           0   0.00000     -0.301140E-02
     17715 MEMB     143      PMPE     H12A     HAL2     0.900000E-01   1.00800           0   0.00000     -0.301140E-02
     17716 MEMB     143      PMPE     H12B     HAL2     0.900000E-01   1.00800           0   0.00000     -0.301140E-02
     17717 MEMB     143      PMPE     C11      CTL2    -0.800000E-01   12.0110           0   0.00000     -0.301140E-02
     17718 MEMB     143      PMPE     H11A     HAL2     0.900000E-01   1.00800           0   0.00000     -0.301140E-02
     17719 MEMB     143      PMPE     H11B     HAL2     0.900000E-01   1.00800           0   0.00000     -0.301140E-02
     17720 MEMB     143      PMPE     P        PL        1.50000       30.9740           0   0.00000     -0.301140E-02
     17721 MEMB     143      PMPE     O13      O2L     -0.780000       15.9994           0   0.00000     -0.301140E-02
     17722 MEMB     143      PMPE     O14      O2L     -0.780000       15.9994           0   0.00000     -0.301140E-02
     17723 MEMB     143      PMPE     O11      OSLP    -0.570000       15.9994           0   0.00000     -0.301140E-02
     17724 MEMB     143      PMPE     O12      OSLP    -0.570000       15.9994           0   0.00000     -0.301140E-02
     17725 MEMB     143      PMPE     C1       CTL2    -0.800000E-01   12.0110           0   0.00000     -0.301140E-02
     17726 MEMB     143      PMPE     HA       HAL2     0.900000E-01   1.00800           0   0.00000     -0.301140E-02
     17727 MEMB     143      PMPE     HB       HAL2     0.900000E-01   1.00800           0   0.00000     -0.301140E-02
     17728 MEMB     143      PMPE     C2       CTL1     0.170000       12.0110           0   0.00000     -0.301140E-02
     17729 MEMB     143      PMPE     HS       HAL1     0.900000E-01   1.00800           0   0.00000     -0.301140E-02
     17730 MEMB     143      PMPE     O21      OSL     -0.490000       15.9994           0   0.00000     -0.301140E-02
     17731 MEMB     143      PMPE     C21      CL       0.900000       12.0110           0   0.00000     -0.301140E-02
     17732 MEMB     143      PMPE     O22      OBL     -0.630000       15.9994           0   0.00000     -0.301140E-02
     17733 MEMB     143      PMPE     C22      CTL2    -0.220000       12.0110           0   0.00000     -0.301140E-02
     17734 MEMB     143      PMPE     H2R      HAL2     0.900000E-01   1.00800           0   0.00000     -0.301140E-02
     17735 MEMB     143      PMPE     H2S      HAL2     0.900000E-01   1.00800           0   0.00000     -0.301140E-02
     17736 MEMB     143      PMPE     C3       CTL2     0.800000E-01   12.0110           0   0.00000     -0.301140E-02
     17737 MEMB     143      PMPE     HX       HAL2     0.900000E-01   1.00800           0   0.00000     -0.301140E-02
     17738 MEMB     143      PMPE     HY       HAL2     0.900000E-01   1.00800           0   0.00000     -0.301140E-02
     17739 MEMB     143      PMPE     O31      OSL     -0.490000       15.9994           0   0.00000     -0.301140E-02
     17740 MEMB     143      PMPE     C31      CL       0.900000       12.0110           0   0.00000     -0.301140E-02
     17741 MEMB     143      PMPE     O32      OBL     -0.630000       15.9994           0   0.00000     -0.301140E-02
     17742 MEMB     143      PMPE     C32      CTL2    -0.220000       12.0110           0   0.00000     -0.301140E-02
     17743 MEMB     143      PMPE     H2X      HAL2     0.900000E-01   1.00800           0   0.00000     -0.301140E-02
     17744 MEMB     143      PMPE     H2Y      HAL2     0.900000E-01   1.00800           0   0.00000     -0.301140E-02
     17745 MEMB     143      PMPE     C23      CTL2    -0.180000       12.0110           0   0.00000     -0.301140E-02
     17746 MEMB     143      PMPE     H3R      HAL2     0.900000E-01   1.00800           0   0.00000     -0.301140E-02
     17747 MEMB     143      PMPE     H3S      HAL2     0.900000E-01   1.00800           0   0.00000     -0.301140E-02
     17748 MEMB     143      PMPE     C24      CTL2    -0.180000       12.0110           0   0.00000     -0.301140E-02
     17749 MEMB     143      PMPE     H4R      HAL2     0.900000E-01   1.00800           0   0.00000     -0.301140E-02
     17750 MEMB     143      PMPE     H4S      HAL2     0.900000E-01   1.00800           0   0.00000     -0.301140E-02
     17751 MEMB     143      PMPE     C25      CTL2    -0.180000       12.0110           0   0.00000     -0.301140E-02
     17752 MEMB     143      PMPE     H5R      HAL2     0.900000E-01   1.00800           0   0.00000     -0.301140E-02
     17753 MEMB     143      PMPE     H5S      HAL2     0.900000E-01   1.00800           0   0.00000     -0.301140E-02
     17754 MEMB     143      PMPE     C26      CTL2    -0.180000       12.0110           0   0.00000     -0.301140E-02
     17755 MEMB     143      PMPE     H6R      HAL2     0.900000E-01   1.00800           0   0.00000     -0.301140E-02
     17756 MEMB     143      PMPE     H6S      HAL2     0.900000E-01   1.00800           0   0.00000     -0.301140E-02
     17757 MEMB     143      PMPE     C27      CTL2    -0.180000       12.0110           0   0.00000     -0.301140E-02
     17758 MEMB     143      PMPE     H7R      HAL2     0.900000E-01   1.00800           0   0.00000     -0.301140E-02
     17759 MEMB     143      PMPE     H7S      HAL2     0.900000E-01   1.00800           0   0.00000     -0.301140E-02
     17760 MEMB     143      PMPE     C28      CTL2    -0.180000       12.0110           0   0.00000     -0.301140E-02
     17761 MEMB     143      PMPE     H8R      HAL2     0.900000E-01   1.00800           0   0.00000     -0.301140E-02
     17762 MEMB     143      PMPE     H8S      HAL2     0.900000E-01   1.00800           0   0.00000     -0.301140E-02
     17763 MEMB     143      PMPE     C29      CG3RC1  -0.900000E-01   12.0110           0   0.00000     -0.301140E-02
     17764 MEMB     143      PMPE     H9R      HGA1     0.900000E-01   1.00800           0   0.00000     -0.301140E-02
     17765 MEMB     143      PMPE     C217     CG3C31  -0.180000       12.0110           0   0.00000     -0.301140E-02
     17766 MEMB     143      PMPE     H17R     HGA2     0.900000E-01   1.00800           0   0.00000     -0.301140E-02
     17767 MEMB     143      PMPE     H17S     HGA2     0.900000E-01   1.00800           0   0.00000     -0.301140E-02
     17768 MEMB     143      PMPE     C210     CG3RC1  -0.900000E-01   12.0110           0   0.00000     -0.301140E-02
     17769 MEMB     143      PMPE     H10R     HGA1     0.900000E-01   1.00800           0   0.00000     -0.301140E-02
     17770 MEMB     143      PMPE     C211     CTL2    -0.180000       12.0110           0   0.00000     -0.301140E-02
     17771 MEMB     143      PMPE     H11R     HAL2     0.900000E-01   1.00800           0   0.00000     -0.301140E-02
     17772 MEMB     143      PMPE     H11S     HAL2     0.900000E-01   1.00800           0   0.00000     -0.301140E-02
     17773 MEMB     143      PMPE     C212     CTL2    -0.180000       12.0110           0   0.00000     -0.301140E-02
     17774 MEMB     143      PMPE     H12R     HAL2     0.900000E-01   1.00800           0   0.00000     -0.301140E-02
     17775 MEMB     143      PMPE     H12S     HAL2     0.900000E-01   1.00800           0   0.00000     -0.301140E-02
     17776 MEMB     143      PMPE     C213     CTL2    -0.180000       12.0110           0   0.00000     -0.301140E-02
     17777 MEMB     143      PMPE     H13R     HAL2     0.900000E-01   1.00800           0   0.00000     -0.301140E-02
     17778 MEMB     143      PMPE     H13S     HAL2     0.900000E-01   1.00800           0   0.00000     -0.301140E-02
     17779 MEMB     143      PMPE     C214     CTL2    -0.180000       12.0110           0   0.00000     -0.301140E-02
     17780 MEMB     143      PMPE     H14R     HAL2     0.900000E-01   1.00800           0   0.00000     -0.301140E-02
     17781 MEMB     143      PMPE     H14S     HAL2     0.900000E-01   1.00800           0   0.00000     -0.301140E-02
     17782 MEMB     143      PMPE     C215     CTL2    -0.180000       12.0110           0   0.00000     -0.301140E-02
     17783 MEMB     143      PMPE     H15R     HAL2     0.900000E-01   1.00800           0   0.00000     -0.301140E-02
     17784 MEMB     143      PMPE     H15S     HAL2     0.900000E-01   1.00800           0   0.00000     -0.301140E-02
     17785 MEMB     143      PMPE     C216     CTL3    -0.270000       12.0110           0   0.00000     -0.301140E-02
     17786 MEMB     143      PMPE     H16R     HAL3     0.900000E-01   1.00800           0   0.00000     -0.301140E-02
     17787 MEMB     143      PMPE     H16S     HAL3     0.900000E-01   1.00800           0   0.00000     -0.301140E-02
     17788 MEMB     143      PMPE     H16T     HAL3     0.900000E-01   1.00800           0   0.00000     -0.301140E-02
     17789 MEMB     143      PMPE     C33      CTL2    -0.180000       12.0110           0   0.00000     -0.301140E-02
     17790 MEMB     143      PMPE     H3X      HAL2     0.900000E-01   1.00800           0   0.00000     -0.301140E-02
     17791 MEMB     143      PMPE     H3Y      HAL2     0.900000E-01   1.00800           0   0.00000     -0.301140E-02
     17792 MEMB     143      PMPE     C34      CTL2    -0.180000       12.0110           0   0.00000     -0.301140E-02
     17793 MEMB     143      PMPE     H4X      HAL2     0.900000E-01   1.00800           0   0.00000     -0.301140E-02
     17794 MEMB     143      PMPE     H4Y      HAL2     0.900000E-01   1.00800           0   0.00000     -0.301140E-02
     17795 MEMB     143      PMPE     C35      CTL2    -0.180000       12.0110           0   0.00000     -0.301140E-02
     17796 MEMB     143      PMPE     H5X      HAL2     0.900000E-01   1.00800           0   0.00000     -0.301140E-02
     17797 MEMB     143      PMPE     H5Y      HAL2     0.900000E-01   1.00800           0   0.00000     -0.301140E-02
     17798 MEMB     143      PMPE     C36      CTL2    -0.180000       12.0110           0   0.00000     -0.301140E-02
     17799 MEMB     143      PMPE     H6X      HAL2     0.900000E-01   1.00800           0   0.00000     -0.301140E-02
     17800 MEMB     143      PMPE     H6Y      HAL2     0.900000E-01   1.00800           0   0.00000     -0.301140E-02
     17801 MEMB     143      PMPE     C37      CTL2    -0.180000       12.0110           0   0.00000     -0.301140E-02
     17802 MEMB     143      PMPE     H7X      HAL2     0.900000E-01   1.00800           0   0.00000     -0.301140E-02
     17803 MEMB     143      PMPE     H7Y      HAL2     0.900000E-01   1.00800           0   0.00000     -0.301140E-02
     17804 MEMB     143      PMPE     C38      CTL2    -0.180000       12.0110           0   0.00000     -0.301140E-02
     17805 MEMB     143      PMPE     H8X      HAL2     0.900000E-01   1.00800           0   0.00000     -0.301140E-02
     17806 MEMB     143      PMPE     H8Y      HAL2     0.900000E-01   1.00800           0   0.00000     -0.301140E-02
     17807 MEMB     143      PMPE     C39      CTL2    -0.180000       12.0110           0   0.00000     -0.301140E-02
     17808 MEMB     143      PMPE     H9X      HAL2     0.900000E-01   1.00800           0   0.00000     -0.301140E-02
     17809 MEMB     143      PMPE     H9Y      HAL2     0.900000E-01   1.00800           0   0.00000     -0.301140E-02
     17810 MEMB     143      PMPE     C310     CTL2    -0.180000       12.0110           0   0.00000     -0.301140E-02
     17811 MEMB     143      PMPE     H10X     HAL2     0.900000E-01   1.00800           0   0.00000     -0.301140E-02
     17812 MEMB     143      PMPE     H10Y     HAL2     0.900000E-01   1.00800           0   0.00000     -0.301140E-02
     17813 MEMB     143      PMPE     C311     CTL2    -0.180000       12.0110           0   0.00000     -0.301140E-02
     17814 MEMB     143      PMPE     H11X     HAL2     0.900000E-01   1.00800           0   0.00000     -0.301140E-02
     17815 MEMB     143      PMPE     H11Y     HAL2     0.900000E-01   1.00800           0   0.00000     -0.301140E-02
     17816 MEMB     143      PMPE     C312     CTL2    -0.180000       12.0110           0   0.00000     -0.301140E-02
     17817 MEMB     143      PMPE     H12X     HAL2     0.900000E-01   1.00800           0   0.00000     -0.301140E-02
     17818 MEMB     143      PMPE     H12Y     HAL2     0.900000E-01   1.00800           0   0.00000     -0.301140E-02
     17819 MEMB     143      PMPE     C313     CTL2    -0.180000       12.0110           0   0.00000     -0.301140E-02
     17820 MEMB     143      PMPE     H13X     HAL2     0.900000E-01   1.00800           0   0.00000     -0.301140E-02
     17821 MEMB     143      PMPE     H13Y     HAL2     0.900000E-01   1.00800           0   0.00000     -0.301140E-02
     17822 MEMB     143      PMPE     C314     CTL2    -0.180000       12.0110           0   0.00000     -0.301140E-02
     17823 MEMB     143      PMPE     H14X     HAL2     0.900000E-01   1.00800           0   0.00000     -0.301140E-02
     17824 MEMB     143      PMPE     H14Y     HAL2     0.900000E-01   1.00800           0   0.00000     -0.301140E-02
     17825 MEMB     143      PMPE     C315     CTL2    -0.180000       12.0110           0   0.00000     -0.301140E-02
     17826 MEMB     143      PMPE     H15X     HAL2     0.900000E-01   1.00800           0   0.00000     -0.301140E-02
     17827 MEMB     143      PMPE     H15Y     HAL2     0.900000E-01   1.00800           0   0.00000     -0.301140E-02
     17828 MEMB     143      PMPE     C316     CTL3    -0.270000       12.0110           0   0.00000     -0.301140E-02
     17829 MEMB     143      PMPE     H16X     HAL3     0.900000E-01   1.00800           0   0.00000     -0.301140E-02
     17830 MEMB     143      PMPE     H16Y     HAL3     0.900000E-01   1.00800           0   0.00000     -0.301140E-02
     17831 MEMB     143      PMPE     H16Z     HAL3     0.900000E-01   1.00800           0   0.00000     -0.301140E-02
     17832 MEMB     144      QMPE     N        NH3L    -0.300000       14.0070           0   0.00000     -0.301140E-02
     17833 MEMB     144      QMPE     HN1      HCL      0.330000       1.00800           0   0.00000     -0.301140E-02
     17834 MEMB     144      QMPE     HN2      HCL      0.330000       1.00800           0   0.00000     -0.301140E-02
     17835 MEMB     144      QMPE     HN3      HCL      0.330000       1.00800           0   0.00000     -0.301140E-02
     17836 MEMB     144      QMPE     C12      CTL2     0.130000       12.0110           0   0.00000     -0.301140E-02
     17837 MEMB     144      QMPE     H12A     HAL2     0.900000E-01   1.00800           0   0.00000     -0.301140E-02
     17838 MEMB     144      QMPE     H12B     HAL2     0.900000E-01   1.00800           0   0.00000     -0.301140E-02
     17839 MEMB     144      QMPE     C11      CTL2    -0.800000E-01   12.0110           0   0.00000     -0.301140E-02
     17840 MEMB     144      QMPE     H11A     HAL2     0.900000E-01   1.00800           0   0.00000     -0.301140E-02
     17841 MEMB     144      QMPE     H11B     HAL2     0.900000E-01   1.00800           0   0.00000     -0.301140E-02
     17842 MEMB     144      QMPE     P        PL        1.50000       30.9740           0   0.00000     -0.301140E-02
     17843 MEMB     144      QMPE     O13      O2L     -0.780000       15.9994           0   0.00000     -0.301140E-02
     17844 MEMB     144      QMPE     O14      O2L     -0.780000       15.9994           0   0.00000     -0.301140E-02
     17845 MEMB     144      QMPE     O11      OSLP    -0.570000       15.9994           0   0.00000     -0.301140E-02
     17846 MEMB     144      QMPE     O12      OSLP    -0.570000       15.9994           0   0.00000     -0.301140E-02
     17847 MEMB     144      QMPE     C1       CTL2    -0.800000E-01   12.0110           0   0.00000     -0.301140E-02
     17848 MEMB     144      QMPE     HA       HAL2     0.900000E-01   1.00800           0   0.00000     -0.301140E-02
     17849 MEMB     144      QMPE     HB       HAL2     0.900000E-01   1.00800           0   0.00000     -0.301140E-02
     17850 MEMB     144      QMPE     C2       CTL1     0.170000       12.0110           0   0.00000     -0.301140E-02
     17851 MEMB     144      QMPE     HS       HAL1     0.900000E-01   1.00800           0   0.00000     -0.301140E-02
     17852 MEMB     144      QMPE     O21      OSL     -0.490000       15.9994           0   0.00000     -0.301140E-02
     17853 MEMB     144      QMPE     C21      CL       0.900000       12.0110           0   0.00000     -0.301140E-02
     17854 MEMB     144      QMPE     O22      OBL     -0.630000       15.9994           0   0.00000     -0.301140E-02
     17855 MEMB     144      QMPE     C22      CTL2    -0.220000       12.0110           0   0.00000     -0.301140E-02
     17856 MEMB     144      QMPE     H2R      HAL2     0.900000E-01   1.00800           0   0.00000     -0.301140E-02
     17857 MEMB     144      QMPE     H2S      HAL2     0.900000E-01   1.00800           0   0.00000     -0.301140E-02
     17858 MEMB     144      QMPE     C3       CTL2     0.800000E-01   12.0110           0   0.00000     -0.301140E-02
     17859 MEMB     144      QMPE     HX       HAL2     0.900000E-01   1.00800           0   0.00000     -0.301140E-02
     17860 MEMB     144      QMPE     HY       HAL2     0.900000E-01   1.00800           0   0.00000     -0.301140E-02
     17861 MEMB     144      QMPE     O31      OSL     -0.490000       15.9994           0   0.00000     -0.301140E-02
     17862 MEMB     144      QMPE     C31      CL       0.900000       12.0110           0   0.00000     -0.301140E-02
     17863 MEMB     144      QMPE     O32      OBL     -0.630000       15.9994           0   0.00000     -0.301140E-02
     17864 MEMB     144      QMPE     C32      CTL2    -0.220000       12.0110           0   0.00000     -0.301140E-02
     17865 MEMB     144      QMPE     H2X      HAL2     0.900000E-01   1.00800           0   0.00000     -0.301140E-02
     17866 MEMB     144      QMPE     H2Y      HAL2     0.900000E-01   1.00800           0   0.00000     -0.301140E-02
     17867 MEMB     144      QMPE     C23      CTL2    -0.180000       12.0110           0   0.00000     -0.301140E-02
     17868 MEMB     144      QMPE     H3R      HAL2     0.900000E-01   1.00800           0   0.00000     -0.301140E-02
     17869 MEMB     144      QMPE     H3S      HAL2     0.900000E-01   1.00800           0   0.00000     -0.301140E-02
     17870 MEMB     144      QMPE     C24      CTL2    -0.180000       12.0110           0   0.00000     -0.301140E-02
     17871 MEMB     144      QMPE     H4R      HAL2     0.900000E-01   1.00800           0   0.00000     -0.301140E-02
     17872 MEMB     144      QMPE     H4S      HAL2     0.900000E-01   1.00800           0   0.00000     -0.301140E-02
     17873 MEMB     144      QMPE     C25      CTL2    -0.180000       12.0110           0   0.00000     -0.301140E-02
     17874 MEMB     144      QMPE     H5R      HAL2     0.900000E-01   1.00800           0   0.00000     -0.301140E-02
     17875 MEMB     144      QMPE     H5S      HAL2     0.900000E-01   1.00800           0   0.00000     -0.301140E-02
     17876 MEMB     144      QMPE     C26      CTL2    -0.180000       12.0110           0   0.00000     -0.301140E-02
     17877 MEMB     144      QMPE     H6R      HAL2     0.900000E-01   1.00800           0   0.00000     -0.301140E-02
     17878 MEMB     144      QMPE     H6S      HAL2     0.900000E-01   1.00800           0   0.00000     -0.301140E-02
     17879 MEMB     144      QMPE     C27      CTL2    -0.180000       12.0110           0   0.00000     -0.301140E-02
     17880 MEMB     144      QMPE     H7R      HAL2     0.900000E-01   1.00800           0   0.00000     -0.301140E-02
     17881 MEMB     144      QMPE     H7S      HAL2     0.900000E-01   1.00800           0   0.00000     -0.301140E-02
     17882 MEMB     144      QMPE     C28      CTL2    -0.180000       12.0110           0   0.00000     -0.301140E-02
     17883 MEMB     144      QMPE     H8R      HAL2     0.900000E-01   1.00800           0   0.00000     -0.301140E-02
     17884 MEMB     144      QMPE     H8S      HAL2     0.900000E-01   1.00800           0   0.00000     -0.301140E-02
     17885 MEMB     144      QMPE     C29      CG3RC1  -0.900000E-01   12.0110           0   0.00000     -0.301140E-02
     17886 MEMB     144      QMPE     H9R      HGA1     0.900000E-01   1.00800           0   0.00000     -0.301140E-02
     17887 MEMB     144      QMPE     C217     CG3C31  -0.180000       12.0110           0   0.00000     -0.301140E-02
     17888 MEMB     144      QMPE     H17R     HGA2     0.900000E-01   1.00800           0   0.00000     -0.301140E-02
     17889 MEMB     144      QMPE     H17S     HGA2     0.900000E-01   1.00800           0   0.00000     -0.301140E-02
     17890 MEMB     144      QMPE     C210     CG3RC1  -0.900000E-01   12.0110           0   0.00000     -0.301140E-02
     17891 MEMB     144      QMPE     H10R     HGA1     0.900000E-01   1.00800           0   0.00000     -0.301140E-02
     17892 MEMB     144      QMPE     C211     CTL2    -0.180000       12.0110           0   0.00000     -0.301140E-02
     17893 MEMB     144      QMPE     H11R     HAL2     0.900000E-01   1.00800           0   0.00000     -0.301140E-02
     17894 MEMB     144      QMPE     H11S     HAL2     0.900000E-01   1.00800           0   0.00000     -0.301140E-02
     17895 MEMB     144      QMPE     C212     CTL2    -0.180000       12.0110           0   0.00000     -0.301140E-02
     17896 MEMB     144      QMPE     H12R     HAL2     0.900000E-01   1.00800           0   0.00000     -0.301140E-02
     17897 MEMB     144      QMPE     H12S     HAL2     0.900000E-01   1.00800           0   0.00000     -0.301140E-02
     17898 MEMB     144      QMPE     C213     CTL2    -0.180000       12.0110           0   0.00000     -0.301140E-02
     17899 MEMB     144      QMPE     H13R     HAL2     0.900000E-01   1.00800           0   0.00000     -0.301140E-02
     17900 MEMB     144      QMPE     H13S     HAL2     0.900000E-01   1.00800           0   0.00000     -0.301140E-02
     17901 MEMB     144      QMPE     C214     CTL2    -0.180000       12.0110           0   0.00000     -0.301140E-02
     17902 MEMB     144      QMPE     H14R     HAL2     0.900000E-01   1.00800           0   0.00000     -0.301140E-02
     17903 MEMB     144      QMPE     H14S     HAL2     0.900000E-01   1.00800           0   0.00000     -0.301140E-02
     17904 MEMB     144      QMPE     C215     CTL2    -0.180000       12.0110           0   0.00000     -0.301140E-02
     17905 MEMB     144      QMPE     H15R     HAL2     0.900000E-01   1.00800           0   0.00000     -0.301140E-02
     17906 MEMB     144      QMPE     H15S     HAL2     0.900000E-01   1.00800           0   0.00000     -0.301140E-02
     17907 MEMB     144      QMPE     C216     CTL3    -0.270000       12.0110           0   0.00000     -0.301140E-02
     17908 MEMB     144      QMPE     H16R     HAL3     0.900000E-01   1.00800           0   0.00000     -0.301140E-02
     17909 MEMB     144      QMPE     H16S     HAL3     0.900000E-01   1.00800           0   0.00000     -0.301140E-02
     17910 MEMB     144      QMPE     H16T     HAL3     0.900000E-01   1.00800           0   0.00000     -0.301140E-02
     17911 MEMB     144      QMPE     C33      CTL2    -0.180000       12.0110           0   0.00000     -0.301140E-02
     17912 MEMB     144      QMPE     H3X      HAL2     0.900000E-01   1.00800           0   0.00000     -0.301140E-02
     17913 MEMB     144      QMPE     H3Y      HAL2     0.900000E-01   1.00800           0   0.00000     -0.301140E-02
     17914 MEMB     144      QMPE     C34      CTL2    -0.180000       12.0110           0   0.00000     -0.301140E-02
     17915 MEMB     144      QMPE     H4X      HAL2     0.900000E-01   1.00800           0   0.00000     -0.301140E-02
     17916 MEMB     144      QMPE     H4Y      HAL2     0.900000E-01   1.00800           0   0.00000     -0.301140E-02
     17917 MEMB     144      QMPE     C35      CTL2    -0.180000       12.0110           0   0.00000     -0.301140E-02
     17918 MEMB     144      QMPE     H5X      HAL2     0.900000E-01   1.00800           0   0.00000     -0.301140E-02
     17919 MEMB     144      QMPE     H5Y      HAL2     0.900000E-01   1.00800           0   0.00000     -0.301140E-02
     17920 MEMB     144      QMPE     C36      CTL2    -0.180000       12.0110           0   0.00000     -0.301140E-02
     17921 MEMB     144      QMPE     H6X      HAL2     0.900000E-01   1.00800           0   0.00000     -0.301140E-02
     17922 MEMB     144      QMPE     H6Y      HAL2     0.900000E-01   1.00800           0   0.00000     -0.301140E-02
     17923 MEMB     144      QMPE     C37      CTL2    -0.180000       12.0110           0   0.00000     -0.301140E-02
     17924 MEMB     144      QMPE     H7X      HAL2     0.900000E-01   1.00800           0   0.00000     -0.301140E-02
     17925 MEMB     144      QMPE     H7Y      HAL2     0.900000E-01   1.00800           0   0.00000     -0.301140E-02
     17926 MEMB     144      QMPE     C38      CTL2    -0.180000       12.0110           0   0.00000     -0.301140E-02
     17927 MEMB     144      QMPE     H8X      HAL2     0.900000E-01   1.00800           0   0.00000     -0.301140E-02
     17928 MEMB     144      QMPE     H8Y      HAL2     0.900000E-01   1.00800           0   0.00000     -0.301140E-02
     17929 MEMB     144      QMPE     C39      CTL2    -0.180000       12.0110           0   0.00000     -0.301140E-02
     17930 MEMB     144      QMPE     H9X      HAL2     0.900000E-01   1.00800           0   0.00000     -0.301140E-02
     17931 MEMB     144      QMPE     H9Y      HAL2     0.900000E-01   1.00800           0   0.00000     -0.301140E-02
     17932 MEMB     144      QMPE     C310     CTL2    -0.180000       12.0110           0   0.00000     -0.301140E-02
     17933 MEMB     144      QMPE     H10X     HAL2     0.900000E-01   1.00800           0   0.00000     -0.301140E-02
     17934 MEMB     144      QMPE     H10Y     HAL2     0.900000E-01   1.00800           0   0.00000     -0.301140E-02
     17935 MEMB     144      QMPE     C311     CTL2    -0.180000       12.0110           0   0.00000     -0.301140E-02
     17936 MEMB     144      QMPE     H11X     HAL2     0.900000E-01   1.00800           0   0.00000     -0.301140E-02
     17937 MEMB     144      QMPE     H11Y     HAL2     0.900000E-01   1.00800           0   0.00000     -0.301140E-02
     17938 MEMB     144      QMPE     C312     CTL2    -0.180000       12.0110           0   0.00000     -0.301140E-02
     17939 MEMB     144      QMPE     H12X     HAL2     0.900000E-01   1.00800           0   0.00000     -0.301140E-02
     17940 MEMB     144      QMPE     H12Y     HAL2     0.900000E-01   1.00800           0   0.00000     -0.301140E-02
     17941 MEMB     144      QMPE     C313     CTL2    -0.180000       12.0110           0   0.00000     -0.301140E-02
     17942 MEMB     144      QMPE     H13X     HAL2     0.900000E-01   1.00800           0   0.00000     -0.301140E-02
     17943 MEMB     144      QMPE     H13Y     HAL2     0.900000E-01   1.00800           0   0.00000     -0.301140E-02
     17944 MEMB     144      QMPE     C314     CTL2    -0.180000       12.0110           0   0.00000     -0.301140E-02
     17945 MEMB     144      QMPE     H14X     HAL2     0.900000E-01   1.00800           0   0.00000     -0.301140E-02
     17946 MEMB     144      QMPE     H14Y     HAL2     0.900000E-01   1.00800           0   0.00000     -0.301140E-02
     17947 MEMB     144      QMPE     C315     CTL3    -0.270000       12.0110           0   0.00000     -0.301140E-02
     17948 MEMB     144      QMPE     H15X     HAL3     0.900000E-01   1.00800           0   0.00000     -0.301140E-02
     17949 MEMB     144      QMPE     H15Y     HAL3     0.900000E-01   1.00800           0   0.00000     -0.301140E-02
     17950 MEMB     144      QMPE     H15Z     HAL3     0.900000E-01   1.00800           0   0.00000     -0.301140E-02
     17951 MEMB     145      QMPE     N        NH3L    -0.300000       14.0070           0   0.00000     -0.301140E-02
     17952 MEMB     145      QMPE     HN1      HCL      0.330000       1.00800           0   0.00000     -0.301140E-02
     17953 MEMB     145      QMPE     HN2      HCL      0.330000       1.00800           0   0.00000     -0.301140E-02
     17954 MEMB     145      QMPE     HN3      HCL      0.330000       1.00800           0   0.00000     -0.301140E-02
     17955 MEMB     145      QMPE     C12      CTL2     0.130000       12.0110           0   0.00000     -0.301140E-02
     17956 MEMB     145      QMPE     H12A     HAL2     0.900000E-01   1.00800           0   0.00000     -0.301140E-02
     17957 MEMB     145      QMPE     H12B     HAL2     0.900000E-01   1.00800           0   0.00000     -0.301140E-02
     17958 MEMB     145      QMPE     C11      CTL2    -0.800000E-01   12.0110           0   0.00000     -0.301140E-02
     17959 MEMB     145      QMPE     H11A     HAL2     0.900000E-01   1.00800           0   0.00000     -0.301140E-02
     17960 MEMB     145      QMPE     H11B     HAL2     0.900000E-01   1.00800           0   0.00000     -0.301140E-02
     17961 MEMB     145      QMPE     P        PL        1.50000       30.9740           0   0.00000     -0.301140E-02
     17962 MEMB     145      QMPE     O13      O2L     -0.780000       15.9994           0   0.00000     -0.301140E-02
     17963 MEMB     145      QMPE     O14      O2L     -0.780000       15.9994           0   0.00000     -0.301140E-02
     17964 MEMB     145      QMPE     O11      OSLP    -0.570000       15.9994           0   0.00000     -0.301140E-02
     17965 MEMB     145      QMPE     O12      OSLP    -0.570000       15.9994           0   0.00000     -0.301140E-02
     17966 MEMB     145      QMPE     C1       CTL2    -0.800000E-01   12.0110           0   0.00000     -0.301140E-02
     17967 MEMB     145      QMPE     HA       HAL2     0.900000E-01   1.00800           0   0.00000     -0.301140E-02
     17968 MEMB     145      QMPE     HB       HAL2     0.900000E-01   1.00800           0   0.00000     -0.301140E-02
     17969 MEMB     145      QMPE     C2       CTL1     0.170000       12.0110           0   0.00000     -0.301140E-02
     17970 MEMB     145      QMPE     HS       HAL1     0.900000E-01   1.00800           0   0.00000     -0.301140E-02
     17971 MEMB     145      QMPE     O21      OSL     -0.490000       15.9994           0   0.00000     -0.301140E-02
     17972 MEMB     145      QMPE     C21      CL       0.900000       12.0110           0   0.00000     -0.301140E-02
     17973 MEMB     145      QMPE     O22      OBL     -0.630000       15.9994           0   0.00000     -0.301140E-02
     17974 MEMB     145      QMPE     C22      CTL2    -0.220000       12.0110           0   0.00000     -0.301140E-02
     17975 MEMB     145      QMPE     H2R      HAL2     0.900000E-01   1.00800           0   0.00000     -0.301140E-02
     17976 MEMB     145      QMPE     H2S      HAL2     0.900000E-01   1.00800           0   0.00000     -0.301140E-02
     17977 MEMB     145      QMPE     C3       CTL2     0.800000E-01   12.0110           0   0.00000     -0.301140E-02
     17978 MEMB     145      QMPE     HX       HAL2     0.900000E-01   1.00800           0   0.00000     -0.301140E-02
     17979 MEMB     145      QMPE     HY       HAL2     0.900000E-01   1.00800           0   0.00000     -0.301140E-02
     17980 MEMB     145      QMPE     O31      OSL     -0.490000       15.9994           0   0.00000     -0.301140E-02
     17981 MEMB     145      QMPE     C31      CL       0.900000       12.0110           0   0.00000     -0.301140E-02
     17982 MEMB     145      QMPE     O32      OBL     -0.630000       15.9994           0   0.00000     -0.301140E-02
     17983 MEMB     145      QMPE     C32      CTL2    -0.220000       12.0110           0   0.00000     -0.301140E-02
     17984 MEMB     145      QMPE     H2X      HAL2     0.900000E-01   1.00800           0   0.00000     -0.301140E-02
     17985 MEMB     145      QMPE     H2Y      HAL2     0.900000E-01   1.00800           0   0.00000     -0.301140E-02
     17986 MEMB     145      QMPE     C23      CTL2    -0.180000       12.0110           0   0.00000     -0.301140E-02
     17987 MEMB     145      QMPE     H3R      HAL2     0.900000E-01   1.00800           0   0.00000     -0.301140E-02
     17988 MEMB     145      QMPE     H3S      HAL2     0.900000E-01   1.00800           0   0.00000     -0.301140E-02
     17989 MEMB     145      QMPE     C24      CTL2    -0.180000       12.0110           0   0.00000     -0.301140E-02
     17990 MEMB     145      QMPE     H4R      HAL2     0.900000E-01   1.00800           0   0.00000     -0.301140E-02
     17991 MEMB     145      QMPE     H4S      HAL2     0.900000E-01   1.00800           0   0.00000     -0.301140E-02
     17992 MEMB     145      QMPE     C25      CTL2    -0.180000       12.0110           0   0.00000     -0.301140E-02
     17993 MEMB     145      QMPE     H5R      HAL2     0.900000E-01   1.00800           0   0.00000     -0.301140E-02
     17994 MEMB     145      QMPE     H5S      HAL2     0.900000E-01   1.00800           0   0.00000     -0.301140E-02
     17995 MEMB     145      QMPE     C26      CTL2    -0.180000       12.0110           0   0.00000     -0.301140E-02
     17996 MEMB     145      QMPE     H6R      HAL2     0.900000E-01   1.00800           0   0.00000     -0.301140E-02
     17997 MEMB     145      QMPE     H6S      HAL2     0.900000E-01   1.00800           0   0.00000     -0.301140E-02
     17998 MEMB     145      QMPE     C27      CTL2    -0.180000       12.0110           0   0.00000     -0.301140E-02
     17999 MEMB     145      QMPE     H7R      HAL2     0.900000E-01   1.00800           0   0.00000     -0.301140E-02
     18000 MEMB     145      QMPE     H7S      HAL2     0.900000E-01   1.00800           0   0.00000     -0.301140E-02
     18001 MEMB     145      QMPE     C28      CTL2    -0.180000       12.0110           0   0.00000     -0.301140E-02
     18002 MEMB     145      QMPE     H8R      HAL2     0.900000E-01   1.00800           0   0.00000     -0.301140E-02
     18003 MEMB     145      QMPE     H8S      HAL2     0.900000E-01   1.00800           0   0.00000     -0.301140E-02
     18004 MEMB     145      QMPE     C29      CG3RC1  -0.900000E-01   12.0110           0   0.00000     -0.301140E-02
     18005 MEMB     145      QMPE     H9R      HGA1     0.900000E-01   1.00800           0   0.00000     -0.301140E-02
     18006 MEMB     145      QMPE     C217     CG3C31  -0.180000       12.0110           0   0.00000     -0.301140E-02
     18007 MEMB     145      QMPE     H17R     HGA2     0.900000E-01   1.00800           0   0.00000     -0.301140E-02
     18008 MEMB     145      QMPE     H17S     HGA2     0.900000E-01   1.00800           0   0.00000     -0.301140E-02
     18009 MEMB     145      QMPE     C210     CG3RC1  -0.900000E-01   12.0110           0   0.00000     -0.301140E-02
     18010 MEMB     145      QMPE     H10R     HGA1     0.900000E-01   1.00800           0   0.00000     -0.301140E-02
     18011 MEMB     145      QMPE     C211     CTL2    -0.180000       12.0110           0   0.00000     -0.301140E-02
     18012 MEMB     145      QMPE     H11R     HAL2     0.900000E-01   1.00800           0   0.00000     -0.301140E-02
     18013 MEMB     145      QMPE     H11S     HAL2     0.900000E-01   1.00800           0   0.00000     -0.301140E-02
     18014 MEMB     145      QMPE     C212     CTL2    -0.180000       12.0110           0   0.00000     -0.301140E-02
     18015 MEMB     145      QMPE     H12R     HAL2     0.900000E-01   1.00800           0   0.00000     -0.301140E-02
     18016 MEMB     145      QMPE     H12S     HAL2     0.900000E-01   1.00800           0   0.00000     -0.301140E-02
     18017 MEMB     145      QMPE     C213     CTL2    -0.180000       12.0110           0   0.00000     -0.301140E-02
     18018 MEMB     145      QMPE     H13R     HAL2     0.900000E-01   1.00800           0   0.00000     -0.301140E-02
     18019 MEMB     145      QMPE     H13S     HAL2     0.900000E-01   1.00800           0   0.00000     -0.301140E-02
     18020 MEMB     145      QMPE     C214     CTL2    -0.180000       12.0110           0   0.00000     -0.301140E-02
     18021 MEMB     145      QMPE     H14R     HAL2     0.900000E-01   1.00800           0   0.00000     -0.301140E-02
     18022 MEMB     145      QMPE     H14S     HAL2     0.900000E-01   1.00800           0   0.00000     -0.301140E-02
     18023 MEMB     145      QMPE     C215     CTL2    -0.180000       12.0110           0   0.00000     -0.301140E-02
     18024 MEMB     145      QMPE     H15R     HAL2     0.900000E-01   1.00800           0   0.00000     -0.301140E-02
     18025 MEMB     145      QMPE     H15S     HAL2     0.900000E-01   1.00800           0   0.00000     -0.301140E-02
     18026 MEMB     145      QMPE     C216     CTL3    -0.270000       12.0110           0   0.00000     -0.301140E-02
     18027 MEMB     145      QMPE     H16R     HAL3     0.900000E-01   1.00800           0   0.00000     -0.301140E-02
     18028 MEMB     145      QMPE     H16S     HAL3     0.900000E-01   1.00800           0   0.00000     -0.301140E-02
     18029 MEMB     145      QMPE     H16T     HAL3     0.900000E-01   1.00800           0   0.00000     -0.301140E-02
     18030 MEMB     145      QMPE     C33      CTL2    -0.180000       12.0110           0   0.00000     -0.301140E-02
     18031 MEMB     145      QMPE     H3X      HAL2     0.900000E-01   1.00800           0   0.00000     -0.301140E-02
     18032 MEMB     145      QMPE     H3Y      HAL2     0.900000E-01   1.00800           0   0.00000     -0.301140E-02
     18033 MEMB     145      QMPE     C34      CTL2    -0.180000       12.0110           0   0.00000     -0.301140E-02
     18034 MEMB     145      QMPE     H4X      HAL2     0.900000E-01   1.00800           0   0.00000     -0.301140E-02
     18035 MEMB     145      QMPE     H4Y      HAL2     0.900000E-01   1.00800           0   0.00000     -0.301140E-02
     18036 MEMB     145      QMPE     C35      CTL2    -0.180000       12.0110           0   0.00000     -0.301140E-02
     18037 MEMB     145      QMPE     H5X      HAL2     0.900000E-01   1.00800           0   0.00000     -0.301140E-02
     18038 MEMB     145      QMPE     H5Y      HAL2     0.900000E-01   1.00800           0   0.00000     -0.301140E-02
     18039 MEMB     145      QMPE     C36      CTL2    -0.180000       12.0110           0   0.00000     -0.301140E-02
     18040 MEMB     145      QMPE     H6X      HAL2     0.900000E-01   1.00800           0   0.00000     -0.301140E-02
     18041 MEMB     145      QMPE     H6Y      HAL2     0.900000E-01   1.00800           0   0.00000     -0.301140E-02
     18042 MEMB     145      QMPE     C37      CTL2    -0.180000       12.0110           0   0.00000     -0.301140E-02
     18043 MEMB     145      QMPE     H7X      HAL2     0.900000E-01   1.00800           0   0.00000     -0.301140E-02
     18044 MEMB     145      QMPE     H7Y      HAL2     0.900000E-01   1.00800           0   0.00000     -0.301140E-02
     18045 MEMB     145      QMPE     C38      CTL2    -0.180000       12.0110           0   0.00000     -0.301140E-02
     18046 MEMB     145      QMPE     H8X      HAL2     0.900000E-01   1.00800           0   0.00000     -0.301140E-02
     18047 MEMB     145      QMPE     H8Y      HAL2     0.900000E-01   1.00800           0   0.00000     -0.301140E-02
     18048 MEMB     145      QMPE     C39      CTL2    -0.180000       12.0110           0   0.00000     -0.301140E-02
     18049 MEMB     145      QMPE     H9X      HAL2     0.900000E-01   1.00800           0   0.00000     -0.301140E-02
     18050 MEMB     145      QMPE     H9Y      HAL2     0.900000E-01   1.00800           0   0.00000     -0.301140E-02
     18051 MEMB     145      QMPE     C310     CTL2    -0.180000       12.0110           0   0.00000     -0.301140E-02
     18052 MEMB     145      QMPE     H10X     HAL2     0.900000E-01   1.00800           0   0.00000     -0.301140E-02
     18053 MEMB     145      QMPE     H10Y     HAL2     0.900000E-01   1.00800           0   0.00000     -0.301140E-02
     18054 MEMB     145      QMPE     C311     CTL2    -0.180000       12.0110           0   0.00000     -0.301140E-02
     18055 MEMB     145      QMPE     H11X     HAL2     0.900000E-01   1.00800           0   0.00000     -0.301140E-02
     18056 MEMB     145      QMPE     H11Y     HAL2     0.900000E-01   1.00800           0   0.00000     -0.301140E-02
     18057 MEMB     145      QMPE     C312     CTL2    -0.180000       12.0110           0   0.00000     -0.301140E-02
     18058 MEMB     145      QMPE     H12X     HAL2     0.900000E-01   1.00800           0   0.00000     -0.301140E-02
     18059 MEMB     145      QMPE     H12Y     HAL2     0.900000E-01   1.00800           0   0.00000     -0.301140E-02
     18060 MEMB     145      QMPE     C313     CTL2    -0.180000       12.0110           0   0.00000     -0.301140E-02
     18061 MEMB     145      QMPE     H13X     HAL2     0.900000E-01   1.00800           0   0.00000     -0.301140E-02
     18062 MEMB     145      QMPE     H13Y     HAL2     0.900000E-01   1.00800           0   0.00000     -0.301140E-02
     18063 MEMB     145      QMPE     C314     CTL2    -0.180000       12.0110           0   0.00000     -0.301140E-02
     18064 MEMB     145      QMPE     H14X     HAL2     0.900000E-01   1.00800           0   0.00000     -0.301140E-02
     18065 MEMB     145      QMPE     H14Y     HAL2     0.900000E-01   1.00800           0   0.00000     -0.301140E-02
     18066 MEMB     145      QMPE     C315     CTL3    -0.270000       12.0110           0   0.00000     -0.301140E-02
     18067 MEMB     145      QMPE     H15X     HAL3     0.900000E-01   1.00800           0   0.00000     -0.301140E-02
     18068 MEMB     145      QMPE     H15Y     HAL3     0.900000E-01   1.00800           0   0.00000     -0.301140E-02
     18069 MEMB     145      QMPE     H15Z     HAL3     0.900000E-01   1.00800           0   0.00000     -0.301140E-02
     18070 MEMB     146      PMPE     N        NH3L    -0.300000       14.0070           0   0.00000     -0.301140E-02
     18071 MEMB     146      PMPE     HN1      HCL      0.330000       1.00800           0   0.00000     -0.301140E-02
     18072 MEMB     146      PMPE     HN2      HCL      0.330000       1.00800           0   0.00000     -0.301140E-02
     18073 MEMB     146      PMPE     HN3      HCL      0.330000       1.00800           0   0.00000     -0.301140E-02
     18074 MEMB     146      PMPE     C12      CTL2     0.130000       12.0110           0   0.00000     -0.301140E-02
     18075 MEMB     146      PMPE     H12A     HAL2     0.900000E-01   1.00800           0   0.00000     -0.301140E-02
     18076 MEMB     146      PMPE     H12B     HAL2     0.900000E-01   1.00800           0   0.00000     -0.301140E-02
     18077 MEMB     146      PMPE     C11      CTL2    -0.800000E-01   12.0110           0   0.00000     -0.301140E-02
     18078 MEMB     146      PMPE     H11A     HAL2     0.900000E-01   1.00800           0   0.00000     -0.301140E-02
     18079 MEMB     146      PMPE     H11B     HAL2     0.900000E-01   1.00800           0   0.00000     -0.301140E-02
     18080 MEMB     146      PMPE     P        PL        1.50000       30.9740           0   0.00000     -0.301140E-02
     18081 MEMB     146      PMPE     O13      O2L     -0.780000       15.9994           0   0.00000     -0.301140E-02
     18082 MEMB     146      PMPE     O14      O2L     -0.780000       15.9994           0   0.00000     -0.301140E-02
     18083 MEMB     146      PMPE     O11      OSLP    -0.570000       15.9994           0   0.00000     -0.301140E-02
     18084 MEMB     146      PMPE     O12      OSLP    -0.570000       15.9994           0   0.00000     -0.301140E-02
     18085 MEMB     146      PMPE     C1       CTL2    -0.800000E-01   12.0110           0   0.00000     -0.301140E-02
     18086 MEMB     146      PMPE     HA       HAL2     0.900000E-01   1.00800           0   0.00000     -0.301140E-02
     18087 MEMB     146      PMPE     HB       HAL2     0.900000E-01   1.00800           0   0.00000     -0.301140E-02
     18088 MEMB     146      PMPE     C2       CTL1     0.170000       12.0110           0   0.00000     -0.301140E-02
     18089 MEMB     146      PMPE     HS       HAL1     0.900000E-01   1.00800           0   0.00000     -0.301140E-02
     18090 MEMB     146      PMPE     O21      OSL     -0.490000       15.9994           0   0.00000     -0.301140E-02
     18091 MEMB     146      PMPE     C21      CL       0.900000       12.0110           0   0.00000     -0.301140E-02
     18092 MEMB     146      PMPE     O22      OBL     -0.630000       15.9994           0   0.00000     -0.301140E-02
     18093 MEMB     146      PMPE     C22      CTL2    -0.220000       12.0110           0   0.00000     -0.301140E-02
     18094 MEMB     146      PMPE     H2R      HAL2     0.900000E-01   1.00800           0   0.00000     -0.301140E-02
     18095 MEMB     146      PMPE     H2S      HAL2     0.900000E-01   1.00800           0   0.00000     -0.301140E-02
     18096 MEMB     146      PMPE     C3       CTL2     0.800000E-01   12.0110           0   0.00000     -0.301140E-02
     18097 MEMB     146      PMPE     HX       HAL2     0.900000E-01   1.00800           0   0.00000     -0.301140E-02
     18098 MEMB     146      PMPE     HY       HAL2     0.900000E-01   1.00800           0   0.00000     -0.301140E-02
     18099 MEMB     146      PMPE     O31      OSL     -0.490000       15.9994           0   0.00000     -0.301140E-02
     18100 MEMB     146      PMPE     C31      CL       0.900000       12.0110           0   0.00000     -0.301140E-02
     18101 MEMB     146      PMPE     O32      OBL     -0.630000       15.9994           0   0.00000     -0.301140E-02
     18102 MEMB     146      PMPE     C32      CTL2    -0.220000       12.0110           0   0.00000     -0.301140E-02
     18103 MEMB     146      PMPE     H2X      HAL2     0.900000E-01   1.00800           0   0.00000     -0.301140E-02
     18104 MEMB     146      PMPE     H2Y      HAL2     0.900000E-01   1.00800           0   0.00000     -0.301140E-02
     18105 MEMB     146      PMPE     C23      CTL2    -0.180000       12.0110           0   0.00000     -0.301140E-02
     18106 MEMB     146      PMPE     H3R      HAL2     0.900000E-01   1.00800           0   0.00000     -0.301140E-02
     18107 MEMB     146      PMPE     H3S      HAL2     0.900000E-01   1.00800           0   0.00000     -0.301140E-02
     18108 MEMB     146      PMPE     C24      CTL2    -0.180000       12.0110           0   0.00000     -0.301140E-02
     18109 MEMB     146      PMPE     H4R      HAL2     0.900000E-01   1.00800           0   0.00000     -0.301140E-02
     18110 MEMB     146      PMPE     H4S      HAL2     0.900000E-01   1.00800           0   0.00000     -0.301140E-02
     18111 MEMB     146      PMPE     C25      CTL2    -0.180000       12.0110           0   0.00000     -0.301140E-02
     18112 MEMB     146      PMPE     H5R      HAL2     0.900000E-01   1.00800           0   0.00000     -0.301140E-02
     18113 MEMB     146      PMPE     H5S      HAL2     0.900000E-01   1.00800           0   0.00000     -0.301140E-02
     18114 MEMB     146      PMPE     C26      CTL2    -0.180000       12.0110           0   0.00000     -0.301140E-02
     18115 MEMB     146      PMPE     H6R      HAL2     0.900000E-01   1.00800           0   0.00000     -0.301140E-02
     18116 MEMB     146      PMPE     H6S      HAL2     0.900000E-01   1.00800           0   0.00000     -0.301140E-02
     18117 MEMB     146      PMPE     C27      CTL2    -0.180000       12.0110           0   0.00000     -0.301140E-02
     18118 MEMB     146      PMPE     H7R      HAL2     0.900000E-01   1.00800           0   0.00000     -0.301140E-02
     18119 MEMB     146      PMPE     H7S      HAL2     0.900000E-01   1.00800           0   0.00000     -0.301140E-02
     18120 MEMB     146      PMPE     C28      CTL2    -0.180000       12.0110           0   0.00000     -0.301140E-02
     18121 MEMB     146      PMPE     H8R      HAL2     0.900000E-01   1.00800           0   0.00000     -0.301140E-02
     18122 MEMB     146      PMPE     H8S      HAL2     0.900000E-01   1.00800           0   0.00000     -0.301140E-02
     18123 MEMB     146      PMPE     C29      CG3RC1  -0.900000E-01   12.0110           0   0.00000     -0.301140E-02
     18124 MEMB     146      PMPE     H9R      HGA1     0.900000E-01   1.00800           0   0.00000     -0.301140E-02
     18125 MEMB     146      PMPE     C217     CG3C31  -0.180000       12.0110           0   0.00000     -0.301140E-02
     18126 MEMB     146      PMPE     H17R     HGA2     0.900000E-01   1.00800           0   0.00000     -0.301140E-02
     18127 MEMB     146      PMPE     H17S     HGA2     0.900000E-01   1.00800           0   0.00000     -0.301140E-02
     18128 MEMB     146      PMPE     C210     CG3RC1  -0.900000E-01   12.0110           0   0.00000     -0.301140E-02
     18129 MEMB     146      PMPE     H10R     HGA1     0.900000E-01   1.00800           0   0.00000     -0.301140E-02
     18130 MEMB     146      PMPE     C211     CTL2    -0.180000       12.0110           0   0.00000     -0.301140E-02
     18131 MEMB     146      PMPE     H11R     HAL2     0.900000E-01   1.00800           0   0.00000     -0.301140E-02
     18132 MEMB     146      PMPE     H11S     HAL2     0.900000E-01   1.00800           0   0.00000     -0.301140E-02
     18133 MEMB     146      PMPE     C212     CTL2    -0.180000       12.0110           0   0.00000     -0.301140E-02
     18134 MEMB     146      PMPE     H12R     HAL2     0.900000E-01   1.00800           0   0.00000     -0.301140E-02
     18135 MEMB     146      PMPE     H12S     HAL2     0.900000E-01   1.00800           0   0.00000     -0.301140E-02
     18136 MEMB     146      PMPE     C213     CTL2    -0.180000       12.0110           0   0.00000     -0.301140E-02
     18137 MEMB     146      PMPE     H13R     HAL2     0.900000E-01   1.00800           0   0.00000     -0.301140E-02
     18138 MEMB     146      PMPE     H13S     HAL2     0.900000E-01   1.00800           0   0.00000     -0.301140E-02
     18139 MEMB     146      PMPE     C214     CTL2    -0.180000       12.0110           0   0.00000     -0.301140E-02
     18140 MEMB     146      PMPE     H14R     HAL2     0.900000E-01   1.00800           0   0.00000     -0.301140E-02
     18141 MEMB     146      PMPE     H14S     HAL2     0.900000E-01   1.00800           0   0.00000     -0.301140E-02
     18142 MEMB     146      PMPE     C215     CTL2    -0.180000       12.0110           0   0.00000     -0.301140E-02
     18143 MEMB     146      PMPE     H15R     HAL2     0.900000E-01   1.00800           0   0.00000     -0.301140E-02
     18144 MEMB     146      PMPE     H15S     HAL2     0.900000E-01   1.00800           0   0.00000     -0.301140E-02
     18145 MEMB     146      PMPE     C216     CTL3    -0.270000       12.0110           0   0.00000     -0.301140E-02
     18146 MEMB     146      PMPE     H16R     HAL3     0.900000E-01   1.00800           0   0.00000     -0.301140E-02
     18147 MEMB     146      PMPE     H16S     HAL3     0.900000E-01   1.00800           0   0.00000     -0.301140E-02
     18148 MEMB     146      PMPE     H16T     HAL3     0.900000E-01   1.00800           0   0.00000     -0.301140E-02
     18149 MEMB     146      PMPE     C33      CTL2    -0.180000       12.0110           0   0.00000     -0.301140E-02
     18150 MEMB     146      PMPE     H3X      HAL2     0.900000E-01   1.00800           0   0.00000     -0.301140E-02
     18151 MEMB     146      PMPE     H3Y      HAL2     0.900000E-01   1.00800           0   0.00000     -0.301140E-02
     18152 MEMB     146      PMPE     C34      CTL2    -0.180000       12.0110           0   0.00000     -0.301140E-02
     18153 MEMB     146      PMPE     H4X      HAL2     0.900000E-01   1.00800           0   0.00000     -0.301140E-02
     18154 MEMB     146      PMPE     H4Y      HAL2     0.900000E-01   1.00800           0   0.00000     -0.301140E-02
     18155 MEMB     146      PMPE     C35      CTL2    -0.180000       12.0110           0   0.00000     -0.301140E-02
     18156 MEMB     146      PMPE     H5X      HAL2     0.900000E-01   1.00800           0   0.00000     -0.301140E-02
     18157 MEMB     146      PMPE     H5Y      HAL2     0.900000E-01   1.00800           0   0.00000     -0.301140E-02
     18158 MEMB     146      PMPE     C36      CTL2    -0.180000       12.0110           0   0.00000     -0.301140E-02
     18159 MEMB     146      PMPE     H6X      HAL2     0.900000E-01   1.00800           0   0.00000     -0.301140E-02
     18160 MEMB     146      PMPE     H6Y      HAL2     0.900000E-01   1.00800           0   0.00000     -0.301140E-02
     18161 MEMB     146      PMPE     C37      CTL2    -0.180000       12.0110           0   0.00000     -0.301140E-02
     18162 MEMB     146      PMPE     H7X      HAL2     0.900000E-01   1.00800           0   0.00000     -0.301140E-02
     18163 MEMB     146      PMPE     H7Y      HAL2     0.900000E-01   1.00800           0   0.00000     -0.301140E-02
     18164 MEMB     146      PMPE     C38      CTL2    -0.180000       12.0110           0   0.00000     -0.301140E-02
     18165 MEMB     146      PMPE     H8X      HAL2     0.900000E-01   1.00800           0   0.00000     -0.301140E-02
     18166 MEMB     146      PMPE     H8Y      HAL2     0.900000E-01   1.00800           0   0.00000     -0.301140E-02
     18167 MEMB     146      PMPE     C39      CTL2    -0.180000       12.0110           0   0.00000     -0.301140E-02
     18168 MEMB     146      PMPE     H9X      HAL2     0.900000E-01   1.00800           0   0.00000     -0.301140E-02
     18169 MEMB     146      PMPE     H9Y      HAL2     0.900000E-01   1.00800           0   0.00000     -0.301140E-02
     18170 MEMB     146      PMPE     C310     CTL2    -0.180000       12.0110           0   0.00000     -0.301140E-02
     18171 MEMB     146      PMPE     H10X     HAL2     0.900000E-01   1.00800           0   0.00000     -0.301140E-02
     18172 MEMB     146      PMPE     H10Y     HAL2     0.900000E-01   1.00800           0   0.00000     -0.301140E-02
     18173 MEMB     146      PMPE     C311     CTL2    -0.180000       12.0110           0   0.00000     -0.301140E-02
     18174 MEMB     146      PMPE     H11X     HAL2     0.900000E-01   1.00800           0   0.00000     -0.301140E-02
     18175 MEMB     146      PMPE     H11Y     HAL2     0.900000E-01   1.00800           0   0.00000     -0.301140E-02
     18176 MEMB     146      PMPE     C312     CTL2    -0.180000       12.0110           0   0.00000     -0.301140E-02
     18177 MEMB     146      PMPE     H12X     HAL2     0.900000E-01   1.00800           0   0.00000     -0.301140E-02
     18178 MEMB     146      PMPE     H12Y     HAL2     0.900000E-01   1.00800           0   0.00000     -0.301140E-02
     18179 MEMB     146      PMPE     C313     CTL2    -0.180000       12.0110           0   0.00000     -0.301140E-02
     18180 MEMB     146      PMPE     H13X     HAL2     0.900000E-01   1.00800           0   0.00000     -0.301140E-02
     18181 MEMB     146      PMPE     H13Y     HAL2     0.900000E-01   1.00800           0   0.00000     -0.301140E-02
     18182 MEMB     146      PMPE     C314     CTL2    -0.180000       12.0110           0   0.00000     -0.301140E-02
     18183 MEMB     146      PMPE     H14X     HAL2     0.900000E-01   1.00800           0   0.00000     -0.301140E-02
     18184 MEMB     146      PMPE     H14Y     HAL2     0.900000E-01   1.00800           0   0.00000     -0.301140E-02
     18185 MEMB     146      PMPE     C315     CTL2    -0.180000       12.0110           0   0.00000     -0.301140E-02
     18186 MEMB     146      PMPE     H15X     HAL2     0.900000E-01   1.00800           0   0.00000     -0.301140E-02
     18187 MEMB     146      PMPE     H15Y     HAL2     0.900000E-01   1.00800           0   0.00000     -0.301140E-02
     18188 MEMB     146      PMPE     C316     CTL3    -0.270000       12.0110           0   0.00000     -0.301140E-02
     18189 MEMB     146      PMPE     H16X     HAL3     0.900000E-01   1.00800           0   0.00000     -0.301140E-02
     18190 MEMB     146      PMPE     H16Y     HAL3     0.900000E-01   1.00800           0   0.00000     -0.301140E-02
     18191 MEMB     146      PMPE     H16Z     HAL3     0.900000E-01   1.00800           0   0.00000     -0.301140E-02
     18192 MEMB     147      PMPE     N        NH3L    -0.300000       14.0070           0   0.00000     -0.301140E-02
     18193 MEMB     147      PMPE     HN1      HCL      0.330000       1.00800           0   0.00000     -0.301140E-02
     18194 MEMB     147      PMPE     HN2      HCL      0.330000       1.00800           0   0.00000     -0.301140E-02
     18195 MEMB     147      PMPE     HN3      HCL      0.330000       1.00800           0   0.00000     -0.301140E-02
     18196 MEMB     147      PMPE     C12      CTL2     0.130000       12.0110           0   0.00000     -0.301140E-02
     18197 MEMB     147      PMPE     H12A     HAL2     0.900000E-01   1.00800           0   0.00000     -0.301140E-02
     18198 MEMB     147      PMPE     H12B     HAL2     0.900000E-01   1.00800           0   0.00000     -0.301140E-02
     18199 MEMB     147      PMPE     C11      CTL2    -0.800000E-01   12.0110           0   0.00000     -0.301140E-02
     18200 MEMB     147      PMPE     H11A     HAL2     0.900000E-01   1.00800           0   0.00000     -0.301140E-02
     18201 MEMB     147      PMPE     H11B     HAL2     0.900000E-01   1.00800           0   0.00000     -0.301140E-02
     18202 MEMB     147      PMPE     P        PL        1.50000       30.9740           0   0.00000     -0.301140E-02
     18203 MEMB     147      PMPE     O13      O2L     -0.780000       15.9994           0   0.00000     -0.301140E-02
     18204 MEMB     147      PMPE     O14      O2L     -0.780000       15.9994           0   0.00000     -0.301140E-02
     18205 MEMB     147      PMPE     O11      OSLP    -0.570000       15.9994           0   0.00000     -0.301140E-02
     18206 MEMB     147      PMPE     O12      OSLP    -0.570000       15.9994           0   0.00000     -0.301140E-02
     18207 MEMB     147      PMPE     C1       CTL2    -0.800000E-01   12.0110           0   0.00000     -0.301140E-02
     18208 MEMB     147      PMPE     HA       HAL2     0.900000E-01   1.00800           0   0.00000     -0.301140E-02
     18209 MEMB     147      PMPE     HB       HAL2     0.900000E-01   1.00800           0   0.00000     -0.301140E-02
     18210 MEMB     147      PMPE     C2       CTL1     0.170000       12.0110           0   0.00000     -0.301140E-02
     18211 MEMB     147      PMPE     HS       HAL1     0.900000E-01   1.00800           0   0.00000     -0.301140E-02
     18212 MEMB     147      PMPE     O21      OSL     -0.490000       15.9994           0   0.00000     -0.301140E-02
     18213 MEMB     147      PMPE     C21      CL       0.900000       12.0110           0   0.00000     -0.301140E-02
     18214 MEMB     147      PMPE     O22      OBL     -0.630000       15.9994           0   0.00000     -0.301140E-02
     18215 MEMB     147      PMPE     C22      CTL2    -0.220000       12.0110           0   0.00000     -0.301140E-02
     18216 MEMB     147      PMPE     H2R      HAL2     0.900000E-01   1.00800           0   0.00000     -0.301140E-02
     18217 MEMB     147      PMPE     H2S      HAL2     0.900000E-01   1.00800           0   0.00000     -0.301140E-02
     18218 MEMB     147      PMPE     C3       CTL2     0.800000E-01   12.0110           0   0.00000     -0.301140E-02
     18219 MEMB     147      PMPE     HX       HAL2     0.900000E-01   1.00800           0   0.00000     -0.301140E-02
     18220 MEMB     147      PMPE     HY       HAL2     0.900000E-01   1.00800           0   0.00000     -0.301140E-02
     18221 MEMB     147      PMPE     O31      OSL     -0.490000       15.9994           0   0.00000     -0.301140E-02
     18222 MEMB     147      PMPE     C31      CL       0.900000       12.0110           0   0.00000     -0.301140E-02
     18223 MEMB     147      PMPE     O32      OBL     -0.630000       15.9994           0   0.00000     -0.301140E-02
     18224 MEMB     147      PMPE     C32      CTL2    -0.220000       12.0110           0   0.00000     -0.301140E-02
     18225 MEMB     147      PMPE     H2X      HAL2     0.900000E-01   1.00800           0   0.00000     -0.301140E-02
     18226 MEMB     147      PMPE     H2Y      HAL2     0.900000E-01   1.00800           0   0.00000     -0.301140E-02
     18227 MEMB     147      PMPE     C23      CTL2    -0.180000       12.0110           0   0.00000     -0.301140E-02
     18228 MEMB     147      PMPE     H3R      HAL2     0.900000E-01   1.00800           0   0.00000     -0.301140E-02
     18229 MEMB     147      PMPE     H3S      HAL2     0.900000E-01   1.00800           0   0.00000     -0.301140E-02
     18230 MEMB     147      PMPE     C24      CTL2    -0.180000       12.0110           0   0.00000     -0.301140E-02
     18231 MEMB     147      PMPE     H4R      HAL2     0.900000E-01   1.00800           0   0.00000     -0.301140E-02
     18232 MEMB     147      PMPE     H4S      HAL2     0.900000E-01   1.00800           0   0.00000     -0.301140E-02
     18233 MEMB     147      PMPE     C25      CTL2    -0.180000       12.0110           0   0.00000     -0.301140E-02
     18234 MEMB     147      PMPE     H5R      HAL2     0.900000E-01   1.00800           0   0.00000     -0.301140E-02
     18235 MEMB     147      PMPE     H5S      HAL2     0.900000E-01   1.00800           0   0.00000     -0.301140E-02
     18236 MEMB     147      PMPE     C26      CTL2    -0.180000       12.0110           0   0.00000     -0.301140E-02
     18237 MEMB     147      PMPE     H6R      HAL2     0.900000E-01   1.00800           0   0.00000     -0.301140E-02
     18238 MEMB     147      PMPE     H6S      HAL2     0.900000E-01   1.00800           0   0.00000     -0.301140E-02
     18239 MEMB     147      PMPE     C27      CTL2    -0.180000       12.0110           0   0.00000     -0.301140E-02
     18240 MEMB     147      PMPE     H7R      HAL2     0.900000E-01   1.00800           0   0.00000     -0.301140E-02
     18241 MEMB     147      PMPE     H7S      HAL2     0.900000E-01   1.00800           0   0.00000     -0.301140E-02
     18242 MEMB     147      PMPE     C28      CTL2    -0.180000       12.0110           0   0.00000     -0.301140E-02
     18243 MEMB     147      PMPE     H8R      HAL2     0.900000E-01   1.00800           0   0.00000     -0.301140E-02
     18244 MEMB     147      PMPE     H8S      HAL2     0.900000E-01   1.00800           0   0.00000     -0.301140E-02
     18245 MEMB     147      PMPE     C29      CG3RC1  -0.900000E-01   12.0110           0   0.00000     -0.301140E-02
     18246 MEMB     147      PMPE     H9R      HGA1     0.900000E-01   1.00800           0   0.00000     -0.301140E-02
     18247 MEMB     147      PMPE     C217     CG3C31  -0.180000       12.0110           0   0.00000     -0.301140E-02
     18248 MEMB     147      PMPE     H17R     HGA2     0.900000E-01   1.00800           0   0.00000     -0.301140E-02
     18249 MEMB     147      PMPE     H17S     HGA2     0.900000E-01   1.00800           0   0.00000     -0.301140E-02
     18250 MEMB     147      PMPE     C210     CG3RC1  -0.900000E-01   12.0110           0   0.00000     -0.301140E-02
     18251 MEMB     147      PMPE     H10R     HGA1     0.900000E-01   1.00800           0   0.00000     -0.301140E-02
     18252 MEMB     147      PMPE     C211     CTL2    -0.180000       12.0110           0   0.00000     -0.301140E-02
     18253 MEMB     147      PMPE     H11R     HAL2     0.900000E-01   1.00800           0   0.00000     -0.301140E-02
     18254 MEMB     147      PMPE     H11S     HAL2     0.900000E-01   1.00800           0   0.00000     -0.301140E-02
     18255 MEMB     147      PMPE     C212     CTL2    -0.180000       12.0110           0   0.00000     -0.301140E-02
     18256 MEMB     147      PMPE     H12R     HAL2     0.900000E-01   1.00800           0   0.00000     -0.301140E-02
     18257 MEMB     147      PMPE     H12S     HAL2     0.900000E-01   1.00800           0   0.00000     -0.301140E-02
     18258 MEMB     147      PMPE     C213     CTL2    -0.180000       12.0110           0   0.00000     -0.301140E-02
     18259 MEMB     147      PMPE     H13R     HAL2     0.900000E-01   1.00800           0   0.00000     -0.301140E-02
     18260 MEMB     147      PMPE     H13S     HAL2     0.900000E-01   1.00800           0   0.00000     -0.301140E-02
     18261 MEMB     147      PMPE     C214     CTL2    -0.180000       12.0110           0   0.00000     -0.301140E-02
     18262 MEMB     147      PMPE     H14R     HAL2     0.900000E-01   1.00800           0   0.00000     -0.301140E-02
     18263 MEMB     147      PMPE     H14S     HAL2     0.900000E-01   1.00800           0   0.00000     -0.301140E-02
     18264 MEMB     147      PMPE     C215     CTL2    -0.180000       12.0110           0   0.00000     -0.301140E-02
     18265 MEMB     147      PMPE     H15R     HAL2     0.900000E-01   1.00800           0   0.00000     -0.301140E-02
     18266 MEMB     147      PMPE     H15S     HAL2     0.900000E-01   1.00800           0   0.00000     -0.301140E-02
     18267 MEMB     147      PMPE     C216     CTL3    -0.270000       12.0110           0   0.00000     -0.301140E-02
     18268 MEMB     147      PMPE     H16R     HAL3     0.900000E-01   1.00800           0   0.00000     -0.301140E-02
     18269 MEMB     147      PMPE     H16S     HAL3     0.900000E-01   1.00800           0   0.00000     -0.301140E-02
     18270 MEMB     147      PMPE     H16T     HAL3     0.900000E-01   1.00800           0   0.00000     -0.301140E-02
     18271 MEMB     147      PMPE     C33      CTL2    -0.180000       12.0110           0   0.00000     -0.301140E-02
     18272 MEMB     147      PMPE     H3X      HAL2     0.900000E-01   1.00800           0   0.00000     -0.301140E-02
     18273 MEMB     147      PMPE     H3Y      HAL2     0.900000E-01   1.00800           0   0.00000     -0.301140E-02
     18274 MEMB     147      PMPE     C34      CTL2    -0.180000       12.0110           0   0.00000     -0.301140E-02
     18275 MEMB     147      PMPE     H4X      HAL2     0.900000E-01   1.00800           0   0.00000     -0.301140E-02
     18276 MEMB     147      PMPE     H4Y      HAL2     0.900000E-01   1.00800           0   0.00000     -0.301140E-02
     18277 MEMB     147      PMPE     C35      CTL2    -0.180000       12.0110           0   0.00000     -0.301140E-02
     18278 MEMB     147      PMPE     H5X      HAL2     0.900000E-01   1.00800           0   0.00000     -0.301140E-02
     18279 MEMB     147      PMPE     H5Y      HAL2     0.900000E-01   1.00800           0   0.00000     -0.301140E-02
     18280 MEMB     147      PMPE     C36      CTL2    -0.180000       12.0110           0   0.00000     -0.301140E-02
     18281 MEMB     147      PMPE     H6X      HAL2     0.900000E-01   1.00800           0   0.00000     -0.301140E-02
     18282 MEMB     147      PMPE     H6Y      HAL2     0.900000E-01   1.00800           0   0.00000     -0.301140E-02
     18283 MEMB     147      PMPE     C37      CTL2    -0.180000       12.0110           0   0.00000     -0.301140E-02
     18284 MEMB     147      PMPE     H7X      HAL2     0.900000E-01   1.00800           0   0.00000     -0.301140E-02
     18285 MEMB     147      PMPE     H7Y      HAL2     0.900000E-01   1.00800           0   0.00000     -0.301140E-02
     18286 MEMB     147      PMPE     C38      CTL2    -0.180000       12.0110           0   0.00000     -0.301140E-02
     18287 MEMB     147      PMPE     H8X      HAL2     0.900000E-01   1.00800           0   0.00000     -0.301140E-02
     18288 MEMB     147      PMPE     H8Y      HAL2     0.900000E-01   1.00800           0   0.00000     -0.301140E-02
     18289 MEMB     147      PMPE     C39      CTL2    -0.180000       12.0110           0   0.00000     -0.301140E-02
     18290 MEMB     147      PMPE     H9X      HAL2     0.900000E-01   1.00800           0   0.00000     -0.301140E-02
     18291 MEMB     147      PMPE     H9Y      HAL2     0.900000E-01   1.00800           0   0.00000     -0.301140E-02
     18292 MEMB     147      PMPE     C310     CTL2    -0.180000       12.0110           0   0.00000     -0.301140E-02
     18293 MEMB     147      PMPE     H10X     HAL2     0.900000E-01   1.00800           0   0.00000     -0.301140E-02
     18294 MEMB     147      PMPE     H10Y     HAL2     0.900000E-01   1.00800           0   0.00000     -0.301140E-02
     18295 MEMB     147      PMPE     C311     CTL2    -0.180000       12.0110           0   0.00000     -0.301140E-02
     18296 MEMB     147      PMPE     H11X     HAL2     0.900000E-01   1.00800           0   0.00000     -0.301140E-02
     18297 MEMB     147      PMPE     H11Y     HAL2     0.900000E-01   1.00800           0   0.00000     -0.301140E-02
     18298 MEMB     147      PMPE     C312     CTL2    -0.180000       12.0110           0   0.00000     -0.301140E-02
     18299 MEMB     147      PMPE     H12X     HAL2     0.900000E-01   1.00800           0   0.00000     -0.301140E-02
     18300 MEMB     147      PMPE     H12Y     HAL2     0.900000E-01   1.00800           0   0.00000     -0.301140E-02
     18301 MEMB     147      PMPE     C313     CTL2    -0.180000       12.0110           0   0.00000     -0.301140E-02
     18302 MEMB     147      PMPE     H13X     HAL2     0.900000E-01   1.00800           0   0.00000     -0.301140E-02
     18303 MEMB     147      PMPE     H13Y     HAL2     0.900000E-01   1.00800           0   0.00000     -0.301140E-02
     18304 MEMB     147      PMPE     C314     CTL2    -0.180000       12.0110           0   0.00000     -0.301140E-02
     18305 MEMB     147      PMPE     H14X     HAL2     0.900000E-01   1.00800           0   0.00000     -0.301140E-02
     18306 MEMB     147      PMPE     H14Y     HAL2     0.900000E-01   1.00800           0   0.00000     -0.301140E-02
     18307 MEMB     147      PMPE     C315     CTL2    -0.180000       12.0110           0   0.00000     -0.301140E-02
     18308 MEMB     147      PMPE     H15X     HAL2     0.900000E-01   1.00800           0   0.00000     -0.301140E-02
     18309 MEMB     147      PMPE     H15Y     HAL2     0.900000E-01   1.00800           0   0.00000     -0.301140E-02
     18310 MEMB     147      PMPE     C316     CTL3    -0.270000       12.0110           0   0.00000     -0.301140E-02
     18311 MEMB     147      PMPE     H16X     HAL3     0.900000E-01   1.00800           0   0.00000     -0.301140E-02
     18312 MEMB     147      PMPE     H16Y     HAL3     0.900000E-01   1.00800           0   0.00000     -0.301140E-02
     18313 MEMB     147      PMPE     H16Z     HAL3     0.900000E-01   1.00800           0   0.00000     -0.301140E-02
     18314 MEMB     148      PMPE     N        NH3L    -0.300000       14.0070           0   0.00000     -0.301140E-02
     18315 MEMB     148      PMPE     HN1      HCL      0.330000       1.00800           0   0.00000     -0.301140E-02
     18316 MEMB     148      PMPE     HN2      HCL      0.330000       1.00800           0   0.00000     -0.301140E-02
     18317 MEMB     148      PMPE     HN3      HCL      0.330000       1.00800           0   0.00000     -0.301140E-02
     18318 MEMB     148      PMPE     C12      CTL2     0.130000       12.0110           0   0.00000     -0.301140E-02
     18319 MEMB     148      PMPE     H12A     HAL2     0.900000E-01   1.00800           0   0.00000     -0.301140E-02
     18320 MEMB     148      PMPE     H12B     HAL2     0.900000E-01   1.00800           0   0.00000     -0.301140E-02
     18321 MEMB     148      PMPE     C11      CTL2    -0.800000E-01   12.0110           0   0.00000     -0.301140E-02
     18322 MEMB     148      PMPE     H11A     HAL2     0.900000E-01   1.00800           0   0.00000     -0.301140E-02
     18323 MEMB     148      PMPE     H11B     HAL2     0.900000E-01   1.00800           0   0.00000     -0.301140E-02
     18324 MEMB     148      PMPE     P        PL        1.50000       30.9740           0   0.00000     -0.301140E-02
     18325 MEMB     148      PMPE     O13      O2L     -0.780000       15.9994           0   0.00000     -0.301140E-02
     18326 MEMB     148      PMPE     O14      O2L     -0.780000       15.9994           0   0.00000     -0.301140E-02
     18327 MEMB     148      PMPE     O11      OSLP    -0.570000       15.9994           0   0.00000     -0.301140E-02
     18328 MEMB     148      PMPE     O12      OSLP    -0.570000       15.9994           0   0.00000     -0.301140E-02
     18329 MEMB     148      PMPE     C1       CTL2    -0.800000E-01   12.0110           0   0.00000     -0.301140E-02
     18330 MEMB     148      PMPE     HA       HAL2     0.900000E-01   1.00800           0   0.00000     -0.301140E-02
     18331 MEMB     148      PMPE     HB       HAL2     0.900000E-01   1.00800           0   0.00000     -0.301140E-02
     18332 MEMB     148      PMPE     C2       CTL1     0.170000       12.0110           0   0.00000     -0.301140E-02
     18333 MEMB     148      PMPE     HS       HAL1     0.900000E-01   1.00800           0   0.00000     -0.301140E-02
     18334 MEMB     148      PMPE     O21      OSL     -0.490000       15.9994           0   0.00000     -0.301140E-02
     18335 MEMB     148      PMPE     C21      CL       0.900000       12.0110           0   0.00000     -0.301140E-02
     18336 MEMB     148      PMPE     O22      OBL     -0.630000       15.9994           0   0.00000     -0.301140E-02
     18337 MEMB     148      PMPE     C22      CTL2    -0.220000       12.0110           0   0.00000     -0.301140E-02
     18338 MEMB     148      PMPE     H2R      HAL2     0.900000E-01   1.00800           0   0.00000     -0.301140E-02
     18339 MEMB     148      PMPE     H2S      HAL2     0.900000E-01   1.00800           0   0.00000     -0.301140E-02
     18340 MEMB     148      PMPE     C3       CTL2     0.800000E-01   12.0110           0   0.00000     -0.301140E-02
     18341 MEMB     148      PMPE     HX       HAL2     0.900000E-01   1.00800           0   0.00000     -0.301140E-02
     18342 MEMB     148      PMPE     HY       HAL2     0.900000E-01   1.00800           0   0.00000     -0.301140E-02
     18343 MEMB     148      PMPE     O31      OSL     -0.490000       15.9994           0   0.00000     -0.301140E-02
     18344 MEMB     148      PMPE     C31      CL       0.900000       12.0110           0   0.00000     -0.301140E-02
     18345 MEMB     148      PMPE     O32      OBL     -0.630000       15.9994           0   0.00000     -0.301140E-02
     18346 MEMB     148      PMPE     C32      CTL2    -0.220000       12.0110           0   0.00000     -0.301140E-02
     18347 MEMB     148      PMPE     H2X      HAL2     0.900000E-01   1.00800           0   0.00000     -0.301140E-02
     18348 MEMB     148      PMPE     H2Y      HAL2     0.900000E-01   1.00800           0   0.00000     -0.301140E-02
     18349 MEMB     148      PMPE     C23      CTL2    -0.180000       12.0110           0   0.00000     -0.301140E-02
     18350 MEMB     148      PMPE     H3R      HAL2     0.900000E-01   1.00800           0   0.00000     -0.301140E-02
     18351 MEMB     148      PMPE     H3S      HAL2     0.900000E-01   1.00800           0   0.00000     -0.301140E-02
     18352 MEMB     148      PMPE     C24      CTL2    -0.180000       12.0110           0   0.00000     -0.301140E-02
     18353 MEMB     148      PMPE     H4R      HAL2     0.900000E-01   1.00800           0   0.00000     -0.301140E-02
     18354 MEMB     148      PMPE     H4S      HAL2     0.900000E-01   1.00800           0   0.00000     -0.301140E-02
     18355 MEMB     148      PMPE     C25      CTL2    -0.180000       12.0110           0   0.00000     -0.301140E-02
     18356 MEMB     148      PMPE     H5R      HAL2     0.900000E-01   1.00800           0   0.00000     -0.301140E-02
     18357 MEMB     148      PMPE     H5S      HAL2     0.900000E-01   1.00800           0   0.00000     -0.301140E-02
     18358 MEMB     148      PMPE     C26      CTL2    -0.180000       12.0110           0   0.00000     -0.301140E-02
     18359 MEMB     148      PMPE     H6R      HAL2     0.900000E-01   1.00800           0   0.00000     -0.301140E-02
     18360 MEMB     148      PMPE     H6S      HAL2     0.900000E-01   1.00800           0   0.00000     -0.301140E-02
     18361 MEMB     148      PMPE     C27      CTL2    -0.180000       12.0110           0   0.00000     -0.301140E-02
     18362 MEMB     148      PMPE     H7R      HAL2     0.900000E-01   1.00800           0   0.00000     -0.301140E-02
     18363 MEMB     148      PMPE     H7S      HAL2     0.900000E-01   1.00800           0   0.00000     -0.301140E-02
     18364 MEMB     148      PMPE     C28      CTL2    -0.180000       12.0110           0   0.00000     -0.301140E-02
     18365 MEMB     148      PMPE     H8R      HAL2     0.900000E-01   1.00800           0   0.00000     -0.301140E-02
     18366 MEMB     148      PMPE     H8S      HAL2     0.900000E-01   1.00800           0   0.00000     -0.301140E-02
     18367 MEMB     148      PMPE     C29      CG3RC1  -0.900000E-01   12.0110           0   0.00000     -0.301140E-02
     18368 MEMB     148      PMPE     H9R      HGA1     0.900000E-01   1.00800           0   0.00000     -0.301140E-02
     18369 MEMB     148      PMPE     C217     CG3C31  -0.180000       12.0110           0   0.00000     -0.301140E-02
     18370 MEMB     148      PMPE     H17R     HGA2     0.900000E-01   1.00800           0   0.00000     -0.301140E-02
     18371 MEMB     148      PMPE     H17S     HGA2     0.900000E-01   1.00800           0   0.00000     -0.301140E-02
     18372 MEMB     148      PMPE     C210     CG3RC1  -0.900000E-01   12.0110           0   0.00000     -0.301140E-02
     18373 MEMB     148      PMPE     H10R     HGA1     0.900000E-01   1.00800           0   0.00000     -0.301140E-02
     18374 MEMB     148      PMPE     C211     CTL2    -0.180000       12.0110           0   0.00000     -0.301140E-02
     18375 MEMB     148      PMPE     H11R     HAL2     0.900000E-01   1.00800           0   0.00000     -0.301140E-02
     18376 MEMB     148      PMPE     H11S     HAL2     0.900000E-01   1.00800           0   0.00000     -0.301140E-02
     18377 MEMB     148      PMPE     C212     CTL2    -0.180000       12.0110           0   0.00000     -0.301140E-02
     18378 MEMB     148      PMPE     H12R     HAL2     0.900000E-01   1.00800           0   0.00000     -0.301140E-02
     18379 MEMB     148      PMPE     H12S     HAL2     0.900000E-01   1.00800           0   0.00000     -0.301140E-02
     18380 MEMB     148      PMPE     C213     CTL2    -0.180000       12.0110           0   0.00000     -0.301140E-02
     18381 MEMB     148      PMPE     H13R     HAL2     0.900000E-01   1.00800           0   0.00000     -0.301140E-02
     18382 MEMB     148      PMPE     H13S     HAL2     0.900000E-01   1.00800           0   0.00000     -0.301140E-02
     18383 MEMB     148      PMPE     C214     CTL2    -0.180000       12.0110           0   0.00000     -0.301140E-02
     18384 MEMB     148      PMPE     H14R     HAL2     0.900000E-01   1.00800           0   0.00000     -0.301140E-02
     18385 MEMB     148      PMPE     H14S     HAL2     0.900000E-01   1.00800           0   0.00000     -0.301140E-02
     18386 MEMB     148      PMPE     C215     CTL2    -0.180000       12.0110           0   0.00000     -0.301140E-02
     18387 MEMB     148      PMPE     H15R     HAL2     0.900000E-01   1.00800           0   0.00000     -0.301140E-02
     18388 MEMB     148      PMPE     H15S     HAL2     0.900000E-01   1.00800           0   0.00000     -0.301140E-02
     18389 MEMB     148      PMPE     C216     CTL3    -0.270000       12.0110           0   0.00000     -0.301140E-02
     18390 MEMB     148      PMPE     H16R     HAL3     0.900000E-01   1.00800           0   0.00000     -0.301140E-02
     18391 MEMB     148      PMPE     H16S     HAL3     0.900000E-01   1.00800           0   0.00000     -0.301140E-02
     18392 MEMB     148      PMPE     H16T     HAL3     0.900000E-01   1.00800           0   0.00000     -0.301140E-02
     18393 MEMB     148      PMPE     C33      CTL2    -0.180000       12.0110           0   0.00000     -0.301140E-02
     18394 MEMB     148      PMPE     H3X      HAL2     0.900000E-01   1.00800           0   0.00000     -0.301140E-02
     18395 MEMB     148      PMPE     H3Y      HAL2     0.900000E-01   1.00800           0   0.00000     -0.301140E-02
     18396 MEMB     148      PMPE     C34      CTL2    -0.180000       12.0110           0   0.00000     -0.301140E-02
     18397 MEMB     148      PMPE     H4X      HAL2     0.900000E-01   1.00800           0   0.00000     -0.301140E-02
     18398 MEMB     148      PMPE     H4Y      HAL2     0.900000E-01   1.00800           0   0.00000     -0.301140E-02
     18399 MEMB     148      PMPE     C35      CTL2    -0.180000       12.0110           0   0.00000     -0.301140E-02
     18400 MEMB     148      PMPE     H5X      HAL2     0.900000E-01   1.00800           0   0.00000     -0.301140E-02
     18401 MEMB     148      PMPE     H5Y      HAL2     0.900000E-01   1.00800           0   0.00000     -0.301140E-02
     18402 MEMB     148      PMPE     C36      CTL2    -0.180000       12.0110           0   0.00000     -0.301140E-02
     18403 MEMB     148      PMPE     H6X      HAL2     0.900000E-01   1.00800           0   0.00000     -0.301140E-02
     18404 MEMB     148      PMPE     H6Y      HAL2     0.900000E-01   1.00800           0   0.00000     -0.301140E-02
     18405 MEMB     148      PMPE     C37      CTL2    -0.180000       12.0110           0   0.00000     -0.301140E-02
     18406 MEMB     148      PMPE     H7X      HAL2     0.900000E-01   1.00800           0   0.00000     -0.301140E-02
     18407 MEMB     148      PMPE     H7Y      HAL2     0.900000E-01   1.00800           0   0.00000     -0.301140E-02
     18408 MEMB     148      PMPE     C38      CTL2    -0.180000       12.0110           0   0.00000     -0.301140E-02
     18409 MEMB     148      PMPE     H8X      HAL2     0.900000E-01   1.00800           0   0.00000     -0.301140E-02
     18410 MEMB     148      PMPE     H8Y      HAL2     0.900000E-01   1.00800           0   0.00000     -0.301140E-02
     18411 MEMB     148      PMPE     C39      CTL2    -0.180000       12.0110           0   0.00000     -0.301140E-02
     18412 MEMB     148      PMPE     H9X      HAL2     0.900000E-01   1.00800           0   0.00000     -0.301140E-02
     18413 MEMB     148      PMPE     H9Y      HAL2     0.900000E-01   1.00800           0   0.00000     -0.301140E-02
     18414 MEMB     148      PMPE     C310     CTL2    -0.180000       12.0110           0   0.00000     -0.301140E-02
     18415 MEMB     148      PMPE     H10X     HAL2     0.900000E-01   1.00800           0   0.00000     -0.301140E-02
     18416 MEMB     148      PMPE     H10Y     HAL2     0.900000E-01   1.00800           0   0.00000     -0.301140E-02
     18417 MEMB     148      PMPE     C311     CTL2    -0.180000       12.0110           0   0.00000     -0.301140E-02
     18418 MEMB     148      PMPE     H11X     HAL2     0.900000E-01   1.00800           0   0.00000     -0.301140E-02
     18419 MEMB     148      PMPE     H11Y     HAL2     0.900000E-01   1.00800           0   0.00000     -0.301140E-02
     18420 MEMB     148      PMPE     C312     CTL2    -0.180000       12.0110           0   0.00000     -0.301140E-02
     18421 MEMB     148      PMPE     H12X     HAL2     0.900000E-01   1.00800           0   0.00000     -0.301140E-02
     18422 MEMB     148      PMPE     H12Y     HAL2     0.900000E-01   1.00800           0   0.00000     -0.301140E-02
     18423 MEMB     148      PMPE     C313     CTL2    -0.180000       12.0110           0   0.00000     -0.301140E-02
     18424 MEMB     148      PMPE     H13X     HAL2     0.900000E-01   1.00800           0   0.00000     -0.301140E-02
     18425 MEMB     148      PMPE     H13Y     HAL2     0.900000E-01   1.00800           0   0.00000     -0.301140E-02
     18426 MEMB     148      PMPE     C314     CTL2    -0.180000       12.0110           0   0.00000     -0.301140E-02
     18427 MEMB     148      PMPE     H14X     HAL2     0.900000E-01   1.00800           0   0.00000     -0.301140E-02
     18428 MEMB     148      PMPE     H14Y     HAL2     0.900000E-01   1.00800           0   0.00000     -0.301140E-02
     18429 MEMB     148      PMPE     C315     CTL2    -0.180000       12.0110           0   0.00000     -0.301140E-02
     18430 MEMB     148      PMPE     H15X     HAL2     0.900000E-01   1.00800           0   0.00000     -0.301140E-02
     18431 MEMB     148      PMPE     H15Y     HAL2     0.900000E-01   1.00800           0   0.00000     -0.301140E-02
     18432 MEMB     148      PMPE     C316     CTL3    -0.270000       12.0110           0   0.00000     -0.301140E-02
     18433 MEMB     148      PMPE     H16X     HAL3     0.900000E-01   1.00800           0   0.00000     -0.301140E-02
     18434 MEMB     148      PMPE     H16Y     HAL3     0.900000E-01   1.00800           0   0.00000     -0.301140E-02
     18435 MEMB     148      PMPE     H16Z     HAL3     0.900000E-01   1.00800           0   0.00000     -0.301140E-02
     18436 MEMB     149      PYPG     C13      CTL2     0.500000E-01   12.0110           0   0.00000     -0.301140E-02
     18437 MEMB     149      PYPG     H13A     HAL2     0.900000E-01   1.00800           0   0.00000     -0.301140E-02
     18438 MEMB     149      PYPG     H13B     HAL2     0.900000E-01   1.00800           0   0.00000     -0.301140E-02
     18439 MEMB     149      PYPG     OC3      OHL     -0.660000       15.9994           0   0.00000     -0.301140E-02
     18440 MEMB     149      PYPG     HO3      HOL      0.430000       1.00800           0   0.00000     -0.301140E-02
     18441 MEMB     149      PYPG     C12      CTL1     0.140000       12.0110           0   0.00000     -0.301140E-02
     18442 MEMB     149      PYPG     H12A     HAL1     0.900000E-01   1.00800           0   0.00000     -0.301140E-02
     18443 MEMB     149      PYPG     OC2      OHL     -0.660000       15.9994           0   0.00000     -0.301140E-02
     18444 MEMB     149      PYPG     HO2      HOL      0.430000       1.00800           0   0.00000     -0.301140E-02
     18445 MEMB     149      PYPG     C11      CTL2    -0.800000E-01   12.0110           0   0.00000     -0.301140E-02
     18446 MEMB     149      PYPG     H11A     HAL2     0.900000E-01   1.00800           0   0.00000     -0.301140E-02
     18447 MEMB     149      PYPG     H11B     HAL2     0.900000E-01   1.00800           0   0.00000     -0.301140E-02
     18448 MEMB     149      PYPG     P        PL        1.50000       30.9740           0   0.00000     -0.301140E-02
     18449 MEMB     149      PYPG     O13      O2L     -0.780000       15.9994           0   0.00000     -0.301140E-02
     18450 MEMB     149      PYPG     O14      O2L     -0.780000       15.9994           0   0.00000     -0.301140E-02
     18451 MEMB     149      PYPG     O11      OSLP    -0.570000       15.9994           0   0.00000     -0.301140E-02
     18452 MEMB     149      PYPG     O12      OSLP    -0.570000       15.9994           0   0.00000     -0.301140E-02
     18453 MEMB     149      PYPG     C1       CTL2    -0.800000E-01   12.0110           0   0.00000     -0.301140E-02
     18454 MEMB     149      PYPG     HA       HAL2     0.900000E-01   1.00800           0   0.00000     -0.301140E-02
     18455 MEMB     149      PYPG     HB       HAL2     0.900000E-01   1.00800           0   0.00000     -0.301140E-02
     18456 MEMB     149      PYPG     C2       CTL1     0.170000       12.0110           0   0.00000     -0.301140E-02
     18457 MEMB     149      PYPG     HS       HAL1     0.900000E-01   1.00800           0   0.00000     -0.301140E-02
     18458 MEMB     149      PYPG     O21      OSL     -0.490000       15.9994           0   0.00000     -0.301140E-02
     18459 MEMB     149      PYPG     C21      CL       0.900000       12.0110           0   0.00000     -0.301140E-02
     18460 MEMB     149      PYPG     O22      OBL     -0.630000       15.9994           0   0.00000     -0.301140E-02
     18461 MEMB     149      PYPG     C22      CTL2    -0.220000       12.0110           0   0.00000     -0.301140E-02
     18462 MEMB     149      PYPG     H2R      HAL2     0.900000E-01   1.00800           0   0.00000     -0.301140E-02
     18463 MEMB     149      PYPG     H2S      HAL2     0.900000E-01   1.00800           0   0.00000     -0.301140E-02
     18464 MEMB     149      PYPG     C3       CTL2     0.800000E-01   12.0110           0   0.00000     -0.301140E-02
     18465 MEMB     149      PYPG     HX       HAL2     0.900000E-01   1.00800           0   0.00000     -0.301140E-02
     18466 MEMB     149      PYPG     HY       HAL2     0.900000E-01   1.00800           0   0.00000     -0.301140E-02
     18467 MEMB     149      PYPG     O31      OSL     -0.490000       15.9994           0   0.00000     -0.301140E-02
     18468 MEMB     149      PYPG     C31      CL       0.900000       12.0110           0   0.00000     -0.301140E-02
     18469 MEMB     149      PYPG     O32      OBL     -0.630000       15.9994           0   0.00000     -0.301140E-02
     18470 MEMB     149      PYPG     C32      CTL2    -0.220000       12.0110           0   0.00000     -0.301140E-02
     18471 MEMB     149      PYPG     H2X      HAL2     0.900000E-01   1.00800           0   0.00000     -0.301140E-02
     18472 MEMB     149      PYPG     H2Y      HAL2     0.900000E-01   1.00800           0   0.00000     -0.301140E-02
     18473 MEMB     149      PYPG     C23      CTL2    -0.180000       12.0110           0   0.00000     -0.301140E-02
     18474 MEMB     149      PYPG     H3R      HAL2     0.900000E-01   1.00800           0   0.00000     -0.301140E-02
     18475 MEMB     149      PYPG     H3S      HAL2     0.900000E-01   1.00800           0   0.00000     -0.301140E-02
     18476 MEMB     149      PYPG     C24      CTL2    -0.180000       12.0110           0   0.00000     -0.301140E-02
     18477 MEMB     149      PYPG     H4R      HAL2     0.900000E-01   1.00800           0   0.00000     -0.301140E-02
     18478 MEMB     149      PYPG     H4S      HAL2     0.900000E-01   1.00800           0   0.00000     -0.301140E-02
     18479 MEMB     149      PYPG     C25      CTL2    -0.180000       12.0110           0   0.00000     -0.301140E-02
     18480 MEMB     149      PYPG     H5R      HAL2     0.900000E-01   1.00800           0   0.00000     -0.301140E-02
     18481 MEMB     149      PYPG     H5S      HAL2     0.900000E-01   1.00800           0   0.00000     -0.301140E-02
     18482 MEMB     149      PYPG     C26      CTL2    -0.180000       12.0110           0   0.00000     -0.301140E-02
     18483 MEMB     149      PYPG     H6R      HAL2     0.900000E-01   1.00800           0   0.00000     -0.301140E-02
     18484 MEMB     149      PYPG     H6S      HAL2     0.900000E-01   1.00800           0   0.00000     -0.301140E-02
     18485 MEMB     149      PYPG     C27      CTL2    -0.180000       12.0110           0   0.00000     -0.301140E-02
     18486 MEMB     149      PYPG     H7R      HAL2     0.900000E-01   1.00800           0   0.00000     -0.301140E-02
     18487 MEMB     149      PYPG     H7S      HAL2     0.900000E-01   1.00800           0   0.00000     -0.301140E-02
     18488 MEMB     149      PYPG     C28      CTL2    -0.180000       12.0110           0   0.00000     -0.301140E-02
     18489 MEMB     149      PYPG     H8R      HAL2     0.900000E-01   1.00800           0   0.00000     -0.301140E-02
     18490 MEMB     149      PYPG     H8S      HAL2     0.900000E-01   1.00800           0   0.00000     -0.301140E-02
     18491 MEMB     149      PYPG     C29      CEL1    -0.150000       12.0110           0   0.00000     -0.301140E-02
     18492 MEMB     149      PYPG     H9R      HEL1     0.150000       1.00800           0   0.00000     -0.301140E-02
     18493 MEMB     149      PYPG     C210     CEL1    -0.150000       12.0110           0   0.00000     -0.301140E-02
     18494 MEMB     149      PYPG     H10R     HEL1     0.150000       1.00800           0   0.00000     -0.301140E-02
     18495 MEMB     149      PYPG     C211     CTL2    -0.180000       12.0110           0   0.00000     -0.301140E-02
     18496 MEMB     149      PYPG     H11R     HAL2     0.900000E-01   1.00800           0   0.00000     -0.301140E-02
     18497 MEMB     149      PYPG     H11S     HAL2     0.900000E-01   1.00800           0   0.00000     -0.301140E-02
     18498 MEMB     149      PYPG     C212     CTL2    -0.180000       12.0110           0   0.00000     -0.301140E-02
     18499 MEMB     149      PYPG     H12R     HAL2     0.900000E-01   1.00800           0   0.00000     -0.301140E-02
     18500 MEMB     149      PYPG     H12S     HAL2     0.900000E-01   1.00800           0   0.00000     -0.301140E-02
     18501 MEMB     149      PYPG     C213     CTL2    -0.180000       12.0110           0   0.00000     -0.301140E-02
     18502 MEMB     149      PYPG     H13R     HAL2     0.900000E-01   1.00800           0   0.00000     -0.301140E-02
     18503 MEMB     149      PYPG     H13S     HAL2     0.900000E-01   1.00800           0   0.00000     -0.301140E-02
     18504 MEMB     149      PYPG     C214     CTL2    -0.180000       12.0110           0   0.00000     -0.301140E-02
     18505 MEMB     149      PYPG     H14R     HAL2     0.900000E-01   1.00800           0   0.00000     -0.301140E-02
     18506 MEMB     149      PYPG     H14S     HAL2     0.900000E-01   1.00800           0   0.00000     -0.301140E-02
     18507 MEMB     149      PYPG     C215     CTL2    -0.180000       12.0110           0   0.00000     -0.301140E-02
     18508 MEMB     149      PYPG     H15R     HAL2     0.900000E-01   1.00800           0   0.00000     -0.301140E-02
     18509 MEMB     149      PYPG     H15S     HAL2     0.900000E-01   1.00800           0   0.00000     -0.301140E-02
     18510 MEMB     149      PYPG     C216     CTL3    -0.270000       12.0110           0   0.00000     -0.301140E-02
     18511 MEMB     149      PYPG     H16R     HAL3     0.900000E-01   1.00800           0   0.00000     -0.301140E-02
     18512 MEMB     149      PYPG     H16S     HAL3     0.900000E-01   1.00800           0   0.00000     -0.301140E-02
     18513 MEMB     149      PYPG     H16T     HAL3     0.900000E-01   1.00800           0   0.00000     -0.301140E-02
     18514 MEMB     149      PYPG     C33      CTL2    -0.180000       12.0110           0   0.00000     -0.301140E-02
     18515 MEMB     149      PYPG     H3X      HAL2     0.900000E-01   1.00800           0   0.00000     -0.301140E-02
     18516 MEMB     149      PYPG     H3Y      HAL2     0.900000E-01   1.00800           0   0.00000     -0.301140E-02
     18517 MEMB     149      PYPG     C34      CTL2    -0.180000       12.0110           0   0.00000     -0.301140E-02
     18518 MEMB     149      PYPG     H4X      HAL2     0.900000E-01   1.00800           0   0.00000     -0.301140E-02
     18519 MEMB     149      PYPG     H4Y      HAL2     0.900000E-01   1.00800           0   0.00000     -0.301140E-02
     18520 MEMB     149      PYPG     C35      CTL2    -0.180000       12.0110           0   0.00000     -0.301140E-02
     18521 MEMB     149      PYPG     H5X      HAL2     0.900000E-01   1.00800           0   0.00000     -0.301140E-02
     18522 MEMB     149      PYPG     H5Y      HAL2     0.900000E-01   1.00800           0   0.00000     -0.301140E-02
     18523 MEMB     149      PYPG     C36      CTL2    -0.180000       12.0110           0   0.00000     -0.301140E-02
     18524 MEMB     149      PYPG     H6X      HAL2     0.900000E-01   1.00800           0   0.00000     -0.301140E-02
     18525 MEMB     149      PYPG     H6Y      HAL2     0.900000E-01   1.00800           0   0.00000     -0.301140E-02
     18526 MEMB     149      PYPG     C37      CTL2    -0.180000       12.0110           0   0.00000     -0.301140E-02
     18527 MEMB     149      PYPG     H7X      HAL2     0.900000E-01   1.00800           0   0.00000     -0.301140E-02
     18528 MEMB     149      PYPG     H7Y      HAL2     0.900000E-01   1.00800           0   0.00000     -0.301140E-02
     18529 MEMB     149      PYPG     C38      CTL2    -0.180000       12.0110           0   0.00000     -0.301140E-02
     18530 MEMB     149      PYPG     H8X      HAL2     0.900000E-01   1.00800           0   0.00000     -0.301140E-02
     18531 MEMB     149      PYPG     H8Y      HAL2     0.900000E-01   1.00800           0   0.00000     -0.301140E-02
     18532 MEMB     149      PYPG     C39      CTL2    -0.180000       12.0110           0   0.00000     -0.301140E-02
     18533 MEMB     149      PYPG     H9X      HAL2     0.900000E-01   1.00800           0   0.00000     -0.301140E-02
     18534 MEMB     149      PYPG     H9Y      HAL2     0.900000E-01   1.00800           0   0.00000     -0.301140E-02
     18535 MEMB     149      PYPG     C310     CTL2    -0.180000       12.0110           0   0.00000     -0.301140E-02
     18536 MEMB     149      PYPG     H10X     HAL2     0.900000E-01   1.00800           0   0.00000     -0.301140E-02
     18537 MEMB     149      PYPG     H10Y     HAL2     0.900000E-01   1.00800           0   0.00000     -0.301140E-02
     18538 MEMB     149      PYPG     C311     CTL2    -0.180000       12.0110           0   0.00000     -0.301140E-02
     18539 MEMB     149      PYPG     H11X     HAL2     0.900000E-01   1.00800           0   0.00000     -0.301140E-02
     18540 MEMB     149      PYPG     H11Y     HAL2     0.900000E-01   1.00800           0   0.00000     -0.301140E-02
     18541 MEMB     149      PYPG     C312     CTL2    -0.180000       12.0110           0   0.00000     -0.301140E-02
     18542 MEMB     149      PYPG     H12X     HAL2     0.900000E-01   1.00800           0   0.00000     -0.301140E-02
     18543 MEMB     149      PYPG     H12Y     HAL2     0.900000E-01   1.00800           0   0.00000     -0.301140E-02
     18544 MEMB     149      PYPG     C313     CTL2    -0.180000       12.0110           0   0.00000     -0.301140E-02
     18545 MEMB     149      PYPG     H13X     HAL2     0.900000E-01   1.00800           0   0.00000     -0.301140E-02
     18546 MEMB     149      PYPG     H13Y     HAL2     0.900000E-01   1.00800           0   0.00000     -0.301140E-02
     18547 MEMB     149      PYPG     C314     CTL2    -0.180000       12.0110           0   0.00000     -0.301140E-02
     18548 MEMB     149      PYPG     H14X     HAL2     0.900000E-01   1.00800           0   0.00000     -0.301140E-02
     18549 MEMB     149      PYPG     H14Y     HAL2     0.900000E-01   1.00800           0   0.00000     -0.301140E-02
     18550 MEMB     149      PYPG     C315     CTL2    -0.180000       12.0110           0   0.00000     -0.301140E-02
     18551 MEMB     149      PYPG     H15X     HAL2     0.900000E-01   1.00800           0   0.00000     -0.301140E-02
     18552 MEMB     149      PYPG     H15Y     HAL2     0.900000E-01   1.00800           0   0.00000     -0.301140E-02
     18553 MEMB     149      PYPG     C316     CTL3    -0.270000       12.0110           0   0.00000     -0.301140E-02
     18554 MEMB     149      PYPG     H16X     HAL3     0.900000E-01   1.00800           0   0.00000     -0.301140E-02
     18555 MEMB     149      PYPG     H16Y     HAL3     0.900000E-01   1.00800           0   0.00000     -0.301140E-02
     18556 MEMB     149      PYPG     H16Z     HAL3     0.900000E-01   1.00800           0   0.00000     -0.301140E-02
     18557 MEMB     150      POPE     N        NH3L    -0.300000       14.0070           0   0.00000     -0.301140E-02
     18558 MEMB     150      POPE     HN1      HCL      0.330000       1.00800           0   0.00000     -0.301140E-02
     18559 MEMB     150      POPE     HN2      HCL      0.330000       1.00800           0   0.00000     -0.301140E-02
     18560 MEMB     150      POPE     HN3      HCL      0.330000       1.00800           0   0.00000     -0.301140E-02
     18561 MEMB     150      POPE     C12      CTL2     0.130000       12.0110           0   0.00000     -0.301140E-02
     18562 MEMB     150      POPE     H12A     HAL2     0.900000E-01   1.00800           0   0.00000     -0.301140E-02
     18563 MEMB     150      POPE     H12B     HAL2     0.900000E-01   1.00800           0   0.00000     -0.301140E-02
     18564 MEMB     150      POPE     C11      CTL2    -0.800000E-01   12.0110           0   0.00000     -0.301140E-02
     18565 MEMB     150      POPE     H11A     HAL2     0.900000E-01   1.00800           0   0.00000     -0.301140E-02
     18566 MEMB     150      POPE     H11B     HAL2     0.900000E-01   1.00800           0   0.00000     -0.301140E-02
     18567 MEMB     150      POPE     P        PL        1.50000       30.9740           0   0.00000     -0.301140E-02
     18568 MEMB     150      POPE     O13      O2L     -0.780000       15.9994           0   0.00000     -0.301140E-02
     18569 MEMB     150      POPE     O14      O2L     -0.780000       15.9994           0   0.00000     -0.301140E-02
     18570 MEMB     150      POPE     O11      OSLP    -0.570000       15.9994           0   0.00000     -0.301140E-02
     18571 MEMB     150      POPE     O12      OSLP    -0.570000       15.9994           0   0.00000     -0.301140E-02
     18572 MEMB     150      POPE     C1       CTL2    -0.800000E-01   12.0110           0   0.00000     -0.301140E-02
     18573 MEMB     150      POPE     HA       HAL2     0.900000E-01   1.00800           0   0.00000     -0.301140E-02
     18574 MEMB     150      POPE     HB       HAL2     0.900000E-01   1.00800           0   0.00000     -0.301140E-02
     18575 MEMB     150      POPE     C2       CTL1     0.170000       12.0110           0   0.00000     -0.301140E-02
     18576 MEMB     150      POPE     HS       HAL1     0.900000E-01   1.00800           0   0.00000     -0.301140E-02
     18577 MEMB     150      POPE     O21      OSL     -0.490000       15.9994           0   0.00000     -0.301140E-02
     18578 MEMB     150      POPE     C21      CL       0.900000       12.0110           0   0.00000     -0.301140E-02
     18579 MEMB     150      POPE     O22      OBL     -0.630000       15.9994           0   0.00000     -0.301140E-02
     18580 MEMB     150      POPE     C22      CTL2    -0.220000       12.0110           0   0.00000     -0.301140E-02
     18581 MEMB     150      POPE     H2R      HAL2     0.900000E-01   1.00800           0   0.00000     -0.301140E-02
     18582 MEMB     150      POPE     H2S      HAL2     0.900000E-01   1.00800           0   0.00000     -0.301140E-02
     18583 MEMB     150      POPE     C3       CTL2     0.800000E-01   12.0110           0   0.00000     -0.301140E-02
     18584 MEMB     150      POPE     HX       HAL2     0.900000E-01   1.00800           0   0.00000     -0.301140E-02
     18585 MEMB     150      POPE     HY       HAL2     0.900000E-01   1.00800           0   0.00000     -0.301140E-02
     18586 MEMB     150      POPE     O31      OSL     -0.490000       15.9994           0   0.00000     -0.301140E-02
     18587 MEMB     150      POPE     C31      CL       0.900000       12.0110           0   0.00000     -0.301140E-02
     18588 MEMB     150      POPE     O32      OBL     -0.630000       15.9994           0   0.00000     -0.301140E-02
     18589 MEMB     150      POPE     C32      CTL2    -0.220000       12.0110           0   0.00000     -0.301140E-02
     18590 MEMB     150      POPE     H2X      HAL2     0.900000E-01   1.00800           0   0.00000     -0.301140E-02
     18591 MEMB     150      POPE     H2Y      HAL2     0.900000E-01   1.00800           0   0.00000     -0.301140E-02
     18592 MEMB     150      POPE     C23      CTL2    -0.180000       12.0110           0   0.00000     -0.301140E-02
     18593 MEMB     150      POPE     H3R      HAL2     0.900000E-01   1.00800           0   0.00000     -0.301140E-02
     18594 MEMB     150      POPE     H3S      HAL2     0.900000E-01   1.00800           0   0.00000     -0.301140E-02
     18595 MEMB     150      POPE     C24      CTL2    -0.180000       12.0110           0   0.00000     -0.301140E-02
     18596 MEMB     150      POPE     H4R      HAL2     0.900000E-01   1.00800           0   0.00000     -0.301140E-02
     18597 MEMB     150      POPE     H4S      HAL2     0.900000E-01   1.00800           0   0.00000     -0.301140E-02
     18598 MEMB     150      POPE     C25      CTL2    -0.180000       12.0110           0   0.00000     -0.301140E-02
     18599 MEMB     150      POPE     H5R      HAL2     0.900000E-01   1.00800           0   0.00000     -0.301140E-02
     18600 MEMB     150      POPE     H5S      HAL2     0.900000E-01   1.00800           0   0.00000     -0.301140E-02
     18601 MEMB     150      POPE     C26      CTL2    -0.180000       12.0110           0   0.00000     -0.301140E-02
     18602 MEMB     150      POPE     H6R      HAL2     0.900000E-01   1.00800           0   0.00000     -0.301140E-02
     18603 MEMB     150      POPE     H6S      HAL2     0.900000E-01   1.00800           0   0.00000     -0.301140E-02
     18604 MEMB     150      POPE     C27      CTL2    -0.180000       12.0110           0   0.00000     -0.301140E-02
     18605 MEMB     150      POPE     H7R      HAL2     0.900000E-01   1.00800           0   0.00000     -0.301140E-02
     18606 MEMB     150      POPE     H7S      HAL2     0.900000E-01   1.00800           0   0.00000     -0.301140E-02
     18607 MEMB     150      POPE     C28      CTL2    -0.180000       12.0110           0   0.00000     -0.301140E-02
     18608 MEMB     150      POPE     H8R      HAL2     0.900000E-01   1.00800           0   0.00000     -0.301140E-02
     18609 MEMB     150      POPE     H8S      HAL2     0.900000E-01   1.00800           0   0.00000     -0.301140E-02
     18610 MEMB     150      POPE     C29      CEL1    -0.150000       12.0110           0   0.00000     -0.301140E-02
     18611 MEMB     150      POPE     H91      HEL1     0.150000       1.00800           0   0.00000     -0.301140E-02
     18612 MEMB     150      POPE     C210     CEL1    -0.150000       12.0110           0   0.00000     -0.301140E-02
     18613 MEMB     150      POPE     H101     HEL1     0.150000       1.00800           0   0.00000     -0.301140E-02
     18614 MEMB     150      POPE     C211     CTL2    -0.180000       12.0110           0   0.00000     -0.301140E-02
     18615 MEMB     150      POPE     H11R     HAL2     0.900000E-01   1.00800           0   0.00000     -0.301140E-02
     18616 MEMB     150      POPE     H11S     HAL2     0.900000E-01   1.00800           0   0.00000     -0.301140E-02
     18617 MEMB     150      POPE     C212     CTL2    -0.180000       12.0110           0   0.00000     -0.301140E-02
     18618 MEMB     150      POPE     H12R     HAL2     0.900000E-01   1.00800           0   0.00000     -0.301140E-02
     18619 MEMB     150      POPE     H12S     HAL2     0.900000E-01   1.00800           0   0.00000     -0.301140E-02
     18620 MEMB     150      POPE     C213     CTL2    -0.180000       12.0110           0   0.00000     -0.301140E-02
     18621 MEMB     150      POPE     H13R     HAL2     0.900000E-01   1.00800           0   0.00000     -0.301140E-02
     18622 MEMB     150      POPE     H13S     HAL2     0.900000E-01   1.00800           0   0.00000     -0.301140E-02
     18623 MEMB     150      POPE     C214     CTL2    -0.180000       12.0110           0   0.00000     -0.301140E-02
     18624 MEMB     150      POPE     H14R     HAL2     0.900000E-01   1.00800           0   0.00000     -0.301140E-02
     18625 MEMB     150      POPE     H14S     HAL2     0.900000E-01   1.00800           0   0.00000     -0.301140E-02
     18626 MEMB     150      POPE     C215     CTL2    -0.180000       12.0110           0   0.00000     -0.301140E-02
     18627 MEMB     150      POPE     H15R     HAL2     0.900000E-01   1.00800           0   0.00000     -0.301140E-02
     18628 MEMB     150      POPE     H15S     HAL2     0.900000E-01   1.00800           0   0.00000     -0.301140E-02
     18629 MEMB     150      POPE     C216     CTL2    -0.180000       12.0110           0   0.00000     -0.301140E-02
     18630 MEMB     150      POPE     H16R     HAL2     0.900000E-01   1.00800           0   0.00000     -0.301140E-02
     18631 MEMB     150      POPE     H16S     HAL2     0.900000E-01   1.00800           0   0.00000     -0.301140E-02
     18632 MEMB     150      POPE     C217     CTL2    -0.180000       12.0110           0   0.00000     -0.301140E-02
     18633 MEMB     150      POPE     H17R     HAL2     0.900000E-01   1.00800           0   0.00000     -0.301140E-02
     18634 MEMB     150      POPE     H17S     HAL2     0.900000E-01   1.00800           0   0.00000     -0.301140E-02
     18635 MEMB     150      POPE     C218     CTL3    -0.270000       12.0110           0   0.00000     -0.301140E-02
     18636 MEMB     150      POPE     H18R     HAL3     0.900000E-01   1.00800           0   0.00000     -0.301140E-02
     18637 MEMB     150      POPE     H18S     HAL3     0.900000E-01   1.00800           0   0.00000     -0.301140E-02
     18638 MEMB     150      POPE     H18T     HAL3     0.900000E-01   1.00800           0   0.00000     -0.301140E-02
     18639 MEMB     150      POPE     C33      CTL2    -0.180000       12.0110           0   0.00000     -0.301140E-02
     18640 MEMB     150      POPE     H3X      HAL2     0.900000E-01   1.00800           0   0.00000     -0.301140E-02
     18641 MEMB     150      POPE     H3Y      HAL2     0.900000E-01   1.00800           0   0.00000     -0.301140E-02
     18642 MEMB     150      POPE     C34      CTL2    -0.180000       12.0110           0   0.00000     -0.301140E-02
     18643 MEMB     150      POPE     H4X      HAL2     0.900000E-01   1.00800           0   0.00000     -0.301140E-02
     18644 MEMB     150      POPE     H4Y      HAL2     0.900000E-01   1.00800           0   0.00000     -0.301140E-02
     18645 MEMB     150      POPE     C35      CTL2    -0.180000       12.0110           0   0.00000     -0.301140E-02
     18646 MEMB     150      POPE     H5X      HAL2     0.900000E-01   1.00800           0   0.00000     -0.301140E-02
     18647 MEMB     150      POPE     H5Y      HAL2     0.900000E-01   1.00800           0   0.00000     -0.301140E-02
     18648 MEMB     150      POPE     C36      CTL2    -0.180000       12.0110           0   0.00000     -0.301140E-02
     18649 MEMB     150      POPE     H6X      HAL2     0.900000E-01   1.00800           0   0.00000     -0.301140E-02
     18650 MEMB     150      POPE     H6Y      HAL2     0.900000E-01   1.00800           0   0.00000     -0.301140E-02
     18651 MEMB     150      POPE     C37      CTL2    -0.180000       12.0110           0   0.00000     -0.301140E-02
     18652 MEMB     150      POPE     H7X      HAL2     0.900000E-01   1.00800           0   0.00000     -0.301140E-02
     18653 MEMB     150      POPE     H7Y      HAL2     0.900000E-01   1.00800           0   0.00000     -0.301140E-02
     18654 MEMB     150      POPE     C38      CTL2    -0.180000       12.0110           0   0.00000     -0.301140E-02
     18655 MEMB     150      POPE     H8X      HAL2     0.900000E-01   1.00800           0   0.00000     -0.301140E-02
     18656 MEMB     150      POPE     H8Y      HAL2     0.900000E-01   1.00800           0   0.00000     -0.301140E-02
     18657 MEMB     150      POPE     C39      CTL2    -0.180000       12.0110           0   0.00000     -0.301140E-02
     18658 MEMB     150      POPE     H9X      HAL2     0.900000E-01   1.00800           0   0.00000     -0.301140E-02
     18659 MEMB     150      POPE     H9Y      HAL2     0.900000E-01   1.00800           0   0.00000     -0.301140E-02
     18660 MEMB     150      POPE     C310     CTL2    -0.180000       12.0110           0   0.00000     -0.301140E-02
     18661 MEMB     150      POPE     H10X     HAL2     0.900000E-01   1.00800           0   0.00000     -0.301140E-02
     18662 MEMB     150      POPE     H10Y     HAL2     0.900000E-01   1.00800           0   0.00000     -0.301140E-02
     18663 MEMB     150      POPE     C311     CTL2    -0.180000       12.0110           0   0.00000     -0.301140E-02
     18664 MEMB     150      POPE     H11X     HAL2     0.900000E-01   1.00800           0   0.00000     -0.301140E-02
     18665 MEMB     150      POPE     H11Y     HAL2     0.900000E-01   1.00800           0   0.00000     -0.301140E-02
     18666 MEMB     150      POPE     C312     CTL2    -0.180000       12.0110           0   0.00000     -0.301140E-02
     18667 MEMB     150      POPE     H12X     HAL2     0.900000E-01   1.00800           0   0.00000     -0.301140E-02
     18668 MEMB     150      POPE     H12Y     HAL2     0.900000E-01   1.00800           0   0.00000     -0.301140E-02
     18669 MEMB     150      POPE     C313     CTL2    -0.180000       12.0110           0   0.00000     -0.301140E-02
     18670 MEMB     150      POPE     H13X     HAL2     0.900000E-01   1.00800           0   0.00000     -0.301140E-02
     18671 MEMB     150      POPE     H13Y     HAL2     0.900000E-01   1.00800           0   0.00000     -0.301140E-02
     18672 MEMB     150      POPE     C314     CTL2    -0.180000       12.0110           0   0.00000     -0.301140E-02
     18673 MEMB     150      POPE     H14X     HAL2     0.900000E-01   1.00800           0   0.00000     -0.301140E-02
     18674 MEMB     150      POPE     H14Y     HAL2     0.900000E-01   1.00800           0   0.00000     -0.301140E-02
     18675 MEMB     150      POPE     C315     CTL2    -0.180000       12.0110           0   0.00000     -0.301140E-02
     18676 MEMB     150      POPE     H15X     HAL2     0.900000E-01   1.00800           0   0.00000     -0.301140E-02
     18677 MEMB     150      POPE     H15Y     HAL2     0.900000E-01   1.00800           0   0.00000     -0.301140E-02
     18678 MEMB     150      POPE     C316     CTL3    -0.270000       12.0110           0   0.00000     -0.301140E-02
     18679 MEMB     150      POPE     H16X     HAL3     0.900000E-01   1.00800           0   0.00000     -0.301140E-02
     18680 MEMB     150      POPE     H16Y     HAL3     0.900000E-01   1.00800           0   0.00000     -0.301140E-02
     18681 MEMB     150      POPE     H16Z     HAL3     0.900000E-01   1.00800           0   0.00000     -0.301140E-02
     18682 MEMB     151      PMPE     N        NH3L    -0.300000       14.0070           0   0.00000     -0.301140E-02
     18683 MEMB     151      PMPE     HN1      HCL      0.330000       1.00800           0   0.00000     -0.301140E-02
     18684 MEMB     151      PMPE     HN2      HCL      0.330000       1.00800           0   0.00000     -0.301140E-02
     18685 MEMB     151      PMPE     HN3      HCL      0.330000       1.00800           0   0.00000     -0.301140E-02
     18686 MEMB     151      PMPE     C12      CTL2     0.130000       12.0110           0   0.00000     -0.301140E-02
     18687 MEMB     151      PMPE     H12A     HAL2     0.900000E-01   1.00800           0   0.00000     -0.301140E-02
     18688 MEMB     151      PMPE     H12B     HAL2     0.900000E-01   1.00800           0   0.00000     -0.301140E-02
     18689 MEMB     151      PMPE     C11      CTL2    -0.800000E-01   12.0110           0   0.00000     -0.301140E-02
     18690 MEMB     151      PMPE     H11A     HAL2     0.900000E-01   1.00800           0   0.00000     -0.301140E-02
     18691 MEMB     151      PMPE     H11B     HAL2     0.900000E-01   1.00800           0   0.00000     -0.301140E-02
     18692 MEMB     151      PMPE     P        PL        1.50000       30.9740           0   0.00000     -0.301140E-02
     18693 MEMB     151      PMPE     O13      O2L     -0.780000       15.9994           0   0.00000     -0.301140E-02
     18694 MEMB     151      PMPE     O14      O2L     -0.780000       15.9994           0   0.00000     -0.301140E-02
     18695 MEMB     151      PMPE     O11      OSLP    -0.570000       15.9994           0   0.00000     -0.301140E-02
     18696 MEMB     151      PMPE     O12      OSLP    -0.570000       15.9994           0   0.00000     -0.301140E-02
     18697 MEMB     151      PMPE     C1       CTL2    -0.800000E-01   12.0110           0   0.00000     -0.301140E-02
     18698 MEMB     151      PMPE     HA       HAL2     0.900000E-01   1.00800           0   0.00000     -0.301140E-02
     18699 MEMB     151      PMPE     HB       HAL2     0.900000E-01   1.00800           0   0.00000     -0.301140E-02
     18700 MEMB     151      PMPE     C2       CTL1     0.170000       12.0110           0   0.00000     -0.301140E-02
     18701 MEMB     151      PMPE     HS       HAL1     0.900000E-01   1.00800           0   0.00000     -0.301140E-02
     18702 MEMB     151      PMPE     O21      OSL     -0.490000       15.9994           0   0.00000     -0.301140E-02
     18703 MEMB     151      PMPE     C21      CL       0.900000       12.0110           0   0.00000     -0.301140E-02
     18704 MEMB     151      PMPE     O22      OBL     -0.630000       15.9994           0   0.00000     -0.301140E-02
     18705 MEMB     151      PMPE     C22      CTL2    -0.220000       12.0110           0   0.00000     -0.301140E-02
     18706 MEMB     151      PMPE     H2R      HAL2     0.900000E-01   1.00800           0   0.00000     -0.301140E-02
     18707 MEMB     151      PMPE     H2S      HAL2     0.900000E-01   1.00800           0   0.00000     -0.301140E-02
     18708 MEMB     151      PMPE     C3       CTL2     0.800000E-01   12.0110           0   0.00000     -0.301140E-02
     18709 MEMB     151      PMPE     HX       HAL2     0.900000E-01   1.00800           0   0.00000     -0.301140E-02
     18710 MEMB     151      PMPE     HY       HAL2     0.900000E-01   1.00800           0   0.00000     -0.301140E-02
     18711 MEMB     151      PMPE     O31      OSL     -0.490000       15.9994           0   0.00000     -0.301140E-02
     18712 MEMB     151      PMPE     C31      CL       0.900000       12.0110           0   0.00000     -0.301140E-02
     18713 MEMB     151      PMPE     O32      OBL     -0.630000       15.9994           0   0.00000     -0.301140E-02
     18714 MEMB     151      PMPE     C32      CTL2    -0.220000       12.0110           0   0.00000     -0.301140E-02
     18715 MEMB     151      PMPE     H2X      HAL2     0.900000E-01   1.00800           0   0.00000     -0.301140E-02
     18716 MEMB     151      PMPE     H2Y      HAL2     0.900000E-01   1.00800           0   0.00000     -0.301140E-02
     18717 MEMB     151      PMPE     C23      CTL2    -0.180000       12.0110           0   0.00000     -0.301140E-02
     18718 MEMB     151      PMPE     H3R      HAL2     0.900000E-01   1.00800           0   0.00000     -0.301140E-02
     18719 MEMB     151      PMPE     H3S      HAL2     0.900000E-01   1.00800           0   0.00000     -0.301140E-02
     18720 MEMB     151      PMPE     C24      CTL2    -0.180000       12.0110           0   0.00000     -0.301140E-02
     18721 MEMB     151      PMPE     H4R      HAL2     0.900000E-01   1.00800           0   0.00000     -0.301140E-02
     18722 MEMB     151      PMPE     H4S      HAL2     0.900000E-01   1.00800           0   0.00000     -0.301140E-02
     18723 MEMB     151      PMPE     C25      CTL2    -0.180000       12.0110           0   0.00000     -0.301140E-02
     18724 MEMB     151      PMPE     H5R      HAL2     0.900000E-01   1.00800           0   0.00000     -0.301140E-02
     18725 MEMB     151      PMPE     H5S      HAL2     0.900000E-01   1.00800           0   0.00000     -0.301140E-02
     18726 MEMB     151      PMPE     C26      CTL2    -0.180000       12.0110           0   0.00000     -0.301140E-02
     18727 MEMB     151      PMPE     H6R      HAL2     0.900000E-01   1.00800           0   0.00000     -0.301140E-02
     18728 MEMB     151      PMPE     H6S      HAL2     0.900000E-01   1.00800           0   0.00000     -0.301140E-02
     18729 MEMB     151      PMPE     C27      CTL2    -0.180000       12.0110           0   0.00000     -0.301140E-02
     18730 MEMB     151      PMPE     H7R      HAL2     0.900000E-01   1.00800           0   0.00000     -0.301140E-02
     18731 MEMB     151      PMPE     H7S      HAL2     0.900000E-01   1.00800           0   0.00000     -0.301140E-02
     18732 MEMB     151      PMPE     C28      CTL2    -0.180000       12.0110           0   0.00000     -0.301140E-02
     18733 MEMB     151      PMPE     H8R      HAL2     0.900000E-01   1.00800           0   0.00000     -0.301140E-02
     18734 MEMB     151      PMPE     H8S      HAL2     0.900000E-01   1.00800           0   0.00000     -0.301140E-02
     18735 MEMB     151      PMPE     C29      CG3RC1  -0.900000E-01   12.0110           0   0.00000     -0.301140E-02
     18736 MEMB     151      PMPE     H9R      HGA1     0.900000E-01   1.00800           0   0.00000     -0.301140E-02
     18737 MEMB     151      PMPE     C217     CG3C31  -0.180000       12.0110           0   0.00000     -0.301140E-02
     18738 MEMB     151      PMPE     H17R     HGA2     0.900000E-01   1.00800           0   0.00000     -0.301140E-02
     18739 MEMB     151      PMPE     H17S     HGA2     0.900000E-01   1.00800           0   0.00000     -0.301140E-02
     18740 MEMB     151      PMPE     C210     CG3RC1  -0.900000E-01   12.0110           0   0.00000     -0.301140E-02
     18741 MEMB     151      PMPE     H10R     HGA1     0.900000E-01   1.00800           0   0.00000     -0.301140E-02
     18742 MEMB     151      PMPE     C211     CTL2    -0.180000       12.0110           0   0.00000     -0.301140E-02
     18743 MEMB     151      PMPE     H11R     HAL2     0.900000E-01   1.00800           0   0.00000     -0.301140E-02
     18744 MEMB     151      PMPE     H11S     HAL2     0.900000E-01   1.00800           0   0.00000     -0.301140E-02
     18745 MEMB     151      PMPE     C212     CTL2    -0.180000       12.0110           0   0.00000     -0.301140E-02
     18746 MEMB     151      PMPE     H12R     HAL2     0.900000E-01   1.00800           0   0.00000     -0.301140E-02
     18747 MEMB     151      PMPE     H12S     HAL2     0.900000E-01   1.00800           0   0.00000     -0.301140E-02
     18748 MEMB     151      PMPE     C213     CTL2    -0.180000       12.0110           0   0.00000     -0.301140E-02
     18749 MEMB     151      PMPE     H13R     HAL2     0.900000E-01   1.00800           0   0.00000     -0.301140E-02
     18750 MEMB     151      PMPE     H13S     HAL2     0.900000E-01   1.00800           0   0.00000     -0.301140E-02
     18751 MEMB     151      PMPE     C214     CTL2    -0.180000       12.0110           0   0.00000     -0.301140E-02
     18752 MEMB     151      PMPE     H14R     HAL2     0.900000E-01   1.00800           0   0.00000     -0.301140E-02
     18753 MEMB     151      PMPE     H14S     HAL2     0.900000E-01   1.00800           0   0.00000     -0.301140E-02
     18754 MEMB     151      PMPE     C215     CTL2    -0.180000       12.0110           0   0.00000     -0.301140E-02
     18755 MEMB     151      PMPE     H15R     HAL2     0.900000E-01   1.00800           0   0.00000     -0.301140E-02
     18756 MEMB     151      PMPE     H15S     HAL2     0.900000E-01   1.00800           0   0.00000     -0.301140E-02
     18757 MEMB     151      PMPE     C216     CTL3    -0.270000       12.0110           0   0.00000     -0.301140E-02
     18758 MEMB     151      PMPE     H16R     HAL3     0.900000E-01   1.00800           0   0.00000     -0.301140E-02
     18759 MEMB     151      PMPE     H16S     HAL3     0.900000E-01   1.00800           0   0.00000     -0.301140E-02
     18760 MEMB     151      PMPE     H16T     HAL3     0.900000E-01   1.00800           0   0.00000     -0.301140E-02
     18761 MEMB     151      PMPE     C33      CTL2    -0.180000       12.0110           0   0.00000     -0.301140E-02
     18762 MEMB     151      PMPE     H3X      HAL2     0.900000E-01   1.00800           0   0.00000     -0.301140E-02
     18763 MEMB     151      PMPE     H3Y      HAL2     0.900000E-01   1.00800           0   0.00000     -0.301140E-02
     18764 MEMB     151      PMPE     C34      CTL2    -0.180000       12.0110           0   0.00000     -0.301140E-02
     18765 MEMB     151      PMPE     H4X      HAL2     0.900000E-01   1.00800           0   0.00000     -0.301140E-02
     18766 MEMB     151      PMPE     H4Y      HAL2     0.900000E-01   1.00800           0   0.00000     -0.301140E-02
     18767 MEMB     151      PMPE     C35      CTL2    -0.180000       12.0110           0   0.00000     -0.301140E-02
     18768 MEMB     151      PMPE     H5X      HAL2     0.900000E-01   1.00800           0   0.00000     -0.301140E-02
     18769 MEMB     151      PMPE     H5Y      HAL2     0.900000E-01   1.00800           0   0.00000     -0.301140E-02
     18770 MEMB     151      PMPE     C36      CTL2    -0.180000       12.0110           0   0.00000     -0.301140E-02
     18771 MEMB     151      PMPE     H6X      HAL2     0.900000E-01   1.00800           0   0.00000     -0.301140E-02
     18772 MEMB     151      PMPE     H6Y      HAL2     0.900000E-01   1.00800           0   0.00000     -0.301140E-02
     18773 MEMB     151      PMPE     C37      CTL2    -0.180000       12.0110           0   0.00000     -0.301140E-02
     18774 MEMB     151      PMPE     H7X      HAL2     0.900000E-01   1.00800           0   0.00000     -0.301140E-02
     18775 MEMB     151      PMPE     H7Y      HAL2     0.900000E-01   1.00800           0   0.00000     -0.301140E-02
     18776 MEMB     151      PMPE     C38      CTL2    -0.180000       12.0110           0   0.00000     -0.301140E-02
     18777 MEMB     151      PMPE     H8X      HAL2     0.900000E-01   1.00800           0   0.00000     -0.301140E-02
     18778 MEMB     151      PMPE     H8Y      HAL2     0.900000E-01   1.00800           0   0.00000     -0.301140E-02
     18779 MEMB     151      PMPE     C39      CTL2    -0.180000       12.0110           0   0.00000     -0.301140E-02
     18780 MEMB     151      PMPE     H9X      HAL2     0.900000E-01   1.00800           0   0.00000     -0.301140E-02
     18781 MEMB     151      PMPE     H9Y      HAL2     0.900000E-01   1.00800           0   0.00000     -0.301140E-02
     18782 MEMB     151      PMPE     C310     CTL2    -0.180000       12.0110           0   0.00000     -0.301140E-02
     18783 MEMB     151      PMPE     H10X     HAL2     0.900000E-01   1.00800           0   0.00000     -0.301140E-02
     18784 MEMB     151      PMPE     H10Y     HAL2     0.900000E-01   1.00800           0   0.00000     -0.301140E-02
     18785 MEMB     151      PMPE     C311     CTL2    -0.180000       12.0110           0   0.00000     -0.301140E-02
     18786 MEMB     151      PMPE     H11X     HAL2     0.900000E-01   1.00800           0   0.00000     -0.301140E-02
     18787 MEMB     151      PMPE     H11Y     HAL2     0.900000E-01   1.00800           0   0.00000     -0.301140E-02
     18788 MEMB     151      PMPE     C312     CTL2    -0.180000       12.0110           0   0.00000     -0.301140E-02
     18789 MEMB     151      PMPE     H12X     HAL2     0.900000E-01   1.00800           0   0.00000     -0.301140E-02
     18790 MEMB     151      PMPE     H12Y     HAL2     0.900000E-01   1.00800           0   0.00000     -0.301140E-02
     18791 MEMB     151      PMPE     C313     CTL2    -0.180000       12.0110           0   0.00000     -0.301140E-02
     18792 MEMB     151      PMPE     H13X     HAL2     0.900000E-01   1.00800           0   0.00000     -0.301140E-02
     18793 MEMB     151      PMPE     H13Y     HAL2     0.900000E-01   1.00800           0   0.00000     -0.301140E-02
     18794 MEMB     151      PMPE     C314     CTL2    -0.180000       12.0110           0   0.00000     -0.301140E-02
     18795 MEMB     151      PMPE     H14X     HAL2     0.900000E-01   1.00800           0   0.00000     -0.301140E-02
     18796 MEMB     151      PMPE     H14Y     HAL2     0.900000E-01   1.00800           0   0.00000     -0.301140E-02
     18797 MEMB     151      PMPE     C315     CTL2    -0.180000       12.0110           0   0.00000     -0.301140E-02
     18798 MEMB     151      PMPE     H15X     HAL2     0.900000E-01   1.00800           0   0.00000     -0.301140E-02
     18799 MEMB     151      PMPE     H15Y     HAL2     0.900000E-01   1.00800           0   0.00000     -0.301140E-02
     18800 MEMB     151      PMPE     C316     CTL3    -0.270000       12.0110           0   0.00000     -0.301140E-02
     18801 MEMB     151      PMPE     H16X     HAL3     0.900000E-01   1.00800           0   0.00000     -0.301140E-02
     18802 MEMB     151      PMPE     H16Y     HAL3     0.900000E-01   1.00800           0   0.00000     -0.301140E-02
     18803 MEMB     151      PMPE     H16Z     HAL3     0.900000E-01   1.00800           0   0.00000     -0.301140E-02
     18804 MEMB     152      QMPE     N        NH3L    -0.300000       14.0070           0   0.00000     -0.301140E-02
     18805 MEMB     152      QMPE     HN1      HCL      0.330000       1.00800           0   0.00000     -0.301140E-02
     18806 MEMB     152      QMPE     HN2      HCL      0.330000       1.00800           0   0.00000     -0.301140E-02
     18807 MEMB     152      QMPE     HN3      HCL      0.330000       1.00800           0   0.00000     -0.301140E-02
     18808 MEMB     152      QMPE     C12      CTL2     0.130000       12.0110           0   0.00000     -0.301140E-02
     18809 MEMB     152      QMPE     H12A     HAL2     0.900000E-01   1.00800           0   0.00000     -0.301140E-02
     18810 MEMB     152      QMPE     H12B     HAL2     0.900000E-01   1.00800           0   0.00000     -0.301140E-02
     18811 MEMB     152      QMPE     C11      CTL2    -0.800000E-01   12.0110           0   0.00000     -0.301140E-02
     18812 MEMB     152      QMPE     H11A     HAL2     0.900000E-01   1.00800           0   0.00000     -0.301140E-02
     18813 MEMB     152      QMPE     H11B     HAL2     0.900000E-01   1.00800           0   0.00000     -0.301140E-02
     18814 MEMB     152      QMPE     P        PL        1.50000       30.9740           0   0.00000     -0.301140E-02
     18815 MEMB     152      QMPE     O13      O2L     -0.780000       15.9994           0   0.00000     -0.301140E-02
     18816 MEMB     152      QMPE     O14      O2L     -0.780000       15.9994           0   0.00000     -0.301140E-02
     18817 MEMB     152      QMPE     O11      OSLP    -0.570000       15.9994           0   0.00000     -0.301140E-02
     18818 MEMB     152      QMPE     O12      OSLP    -0.570000       15.9994           0   0.00000     -0.301140E-02
     18819 MEMB     152      QMPE     C1       CTL2    -0.800000E-01   12.0110           0   0.00000     -0.301140E-02
     18820 MEMB     152      QMPE     HA       HAL2     0.900000E-01   1.00800           0   0.00000     -0.301140E-02
     18821 MEMB     152      QMPE     HB       HAL2     0.900000E-01   1.00800           0   0.00000     -0.301140E-02
     18822 MEMB     152      QMPE     C2       CTL1     0.170000       12.0110           0   0.00000     -0.301140E-02
     18823 MEMB     152      QMPE     HS       HAL1     0.900000E-01   1.00800           0   0.00000     -0.301140E-02
     18824 MEMB     152      QMPE     O21      OSL     -0.490000       15.9994           0   0.00000     -0.301140E-02
     18825 MEMB     152      QMPE     C21      CL       0.900000       12.0110           0   0.00000     -0.301140E-02
     18826 MEMB     152      QMPE     O22      OBL     -0.630000       15.9994           0   0.00000     -0.301140E-02
     18827 MEMB     152      QMPE     C22      CTL2    -0.220000       12.0110           0   0.00000     -0.301140E-02
     18828 MEMB     152      QMPE     H2R      HAL2     0.900000E-01   1.00800           0   0.00000     -0.301140E-02
     18829 MEMB     152      QMPE     H2S      HAL2     0.900000E-01   1.00800           0   0.00000     -0.301140E-02
     18830 MEMB     152      QMPE     C3       CTL2     0.800000E-01   12.0110           0   0.00000     -0.301140E-02
     18831 MEMB     152      QMPE     HX       HAL2     0.900000E-01   1.00800           0   0.00000     -0.301140E-02
     18832 MEMB     152      QMPE     HY       HAL2     0.900000E-01   1.00800           0   0.00000     -0.301140E-02
     18833 MEMB     152      QMPE     O31      OSL     -0.490000       15.9994           0   0.00000     -0.301140E-02
     18834 MEMB     152      QMPE     C31      CL       0.900000       12.0110           0   0.00000     -0.301140E-02
     18835 MEMB     152      QMPE     O32      OBL     -0.630000       15.9994           0   0.00000     -0.301140E-02
     18836 MEMB     152      QMPE     C32      CTL2    -0.220000       12.0110           0   0.00000     -0.301140E-02
     18837 MEMB     152      QMPE     H2X      HAL2     0.900000E-01   1.00800           0   0.00000     -0.301140E-02
     18838 MEMB     152      QMPE     H2Y      HAL2     0.900000E-01   1.00800           0   0.00000     -0.301140E-02
     18839 MEMB     152      QMPE     C23      CTL2    -0.180000       12.0110           0   0.00000     -0.301140E-02
     18840 MEMB     152      QMPE     H3R      HAL2     0.900000E-01   1.00800           0   0.00000     -0.301140E-02
     18841 MEMB     152      QMPE     H3S      HAL2     0.900000E-01   1.00800           0   0.00000     -0.301140E-02
     18842 MEMB     152      QMPE     C24      CTL2    -0.180000       12.0110           0   0.00000     -0.301140E-02
     18843 MEMB     152      QMPE     H4R      HAL2     0.900000E-01   1.00800           0   0.00000     -0.301140E-02
     18844 MEMB     152      QMPE     H4S      HAL2     0.900000E-01   1.00800           0   0.00000     -0.301140E-02
     18845 MEMB     152      QMPE     C25      CTL2    -0.180000       12.0110           0   0.00000     -0.301140E-02
     18846 MEMB     152      QMPE     H5R      HAL2     0.900000E-01   1.00800           0   0.00000     -0.301140E-02
     18847 MEMB     152      QMPE     H5S      HAL2     0.900000E-01   1.00800           0   0.00000     -0.301140E-02
     18848 MEMB     152      QMPE     C26      CTL2    -0.180000       12.0110           0   0.00000     -0.301140E-02
     18849 MEMB     152      QMPE     H6R      HAL2     0.900000E-01   1.00800           0   0.00000     -0.301140E-02
     18850 MEMB     152      QMPE     H6S      HAL2     0.900000E-01   1.00800           0   0.00000     -0.301140E-02
     18851 MEMB     152      QMPE     C27      CTL2    -0.180000       12.0110           0   0.00000     -0.301140E-02
     18852 MEMB     152      QMPE     H7R      HAL2     0.900000E-01   1.00800           0   0.00000     -0.301140E-02
     18853 MEMB     152      QMPE     H7S      HAL2     0.900000E-01   1.00800           0   0.00000     -0.301140E-02
     18854 MEMB     152      QMPE     C28      CTL2    -0.180000       12.0110           0   0.00000     -0.301140E-02
     18855 MEMB     152      QMPE     H8R      HAL2     0.900000E-01   1.00800           0   0.00000     -0.301140E-02
     18856 MEMB     152      QMPE     H8S      HAL2     0.900000E-01   1.00800           0   0.00000     -0.301140E-02
     18857 MEMB     152      QMPE     C29      CG3RC1  -0.900000E-01   12.0110           0   0.00000     -0.301140E-02
     18858 MEMB     152      QMPE     H9R      HGA1     0.900000E-01   1.00800           0   0.00000     -0.301140E-02
     18859 MEMB     152      QMPE     C217     CG3C31  -0.180000       12.0110           0   0.00000     -0.301140E-02
     18860 MEMB     152      QMPE     H17R     HGA2     0.900000E-01   1.00800           0   0.00000     -0.301140E-02
     18861 MEMB     152      QMPE     H17S     HGA2     0.900000E-01   1.00800           0   0.00000     -0.301140E-02
     18862 MEMB     152      QMPE     C210     CG3RC1  -0.900000E-01   12.0110           0   0.00000     -0.301140E-02
     18863 MEMB     152      QMPE     H10R     HGA1     0.900000E-01   1.00800           0   0.00000     -0.301140E-02
     18864 MEMB     152      QMPE     C211     CTL2    -0.180000       12.0110           0   0.00000     -0.301140E-02
     18865 MEMB     152      QMPE     H11R     HAL2     0.900000E-01   1.00800           0   0.00000     -0.301140E-02
     18866 MEMB     152      QMPE     H11S     HAL2     0.900000E-01   1.00800           0   0.00000     -0.301140E-02
     18867 MEMB     152      QMPE     C212     CTL2    -0.180000       12.0110           0   0.00000     -0.301140E-02
     18868 MEMB     152      QMPE     H12R     HAL2     0.900000E-01   1.00800           0   0.00000     -0.301140E-02
     18869 MEMB     152      QMPE     H12S     HAL2     0.900000E-01   1.00800           0   0.00000     -0.301140E-02
     18870 MEMB     152      QMPE     C213     CTL2    -0.180000       12.0110           0   0.00000     -0.301140E-02
     18871 MEMB     152      QMPE     H13R     HAL2     0.900000E-01   1.00800           0   0.00000     -0.301140E-02
     18872 MEMB     152      QMPE     H13S     HAL2     0.900000E-01   1.00800           0   0.00000     -0.301140E-02
     18873 MEMB     152      QMPE     C214     CTL2    -0.180000       12.0110           0   0.00000     -0.301140E-02
     18874 MEMB     152      QMPE     H14R     HAL2     0.900000E-01   1.00800           0   0.00000     -0.301140E-02
     18875 MEMB     152      QMPE     H14S     HAL2     0.900000E-01   1.00800           0   0.00000     -0.301140E-02
     18876 MEMB     152      QMPE     C215     CTL2    -0.180000       12.0110           0   0.00000     -0.301140E-02
     18877 MEMB     152      QMPE     H15R     HAL2     0.900000E-01   1.00800           0   0.00000     -0.301140E-02
     18878 MEMB     152      QMPE     H15S     HAL2     0.900000E-01   1.00800           0   0.00000     -0.301140E-02
     18879 MEMB     152      QMPE     C216     CTL3    -0.270000       12.0110           0   0.00000     -0.301140E-02
     18880 MEMB     152      QMPE     H16R     HAL3     0.900000E-01   1.00800           0   0.00000     -0.301140E-02
     18881 MEMB     152      QMPE     H16S     HAL3     0.900000E-01   1.00800           0   0.00000     -0.301140E-02
     18882 MEMB     152      QMPE     H16T     HAL3     0.900000E-01   1.00800           0   0.00000     -0.301140E-02
     18883 MEMB     152      QMPE     C33      CTL2    -0.180000       12.0110           0   0.00000     -0.301140E-02
     18884 MEMB     152      QMPE     H3X      HAL2     0.900000E-01   1.00800           0   0.00000     -0.301140E-02
     18885 MEMB     152      QMPE     H3Y      HAL2     0.900000E-01   1.00800           0   0.00000     -0.301140E-02
     18886 MEMB     152      QMPE     C34      CTL2    -0.180000       12.0110           0   0.00000     -0.301140E-02
     18887 MEMB     152      QMPE     H4X      HAL2     0.900000E-01   1.00800           0   0.00000     -0.301140E-02
     18888 MEMB     152      QMPE     H4Y      HAL2     0.900000E-01   1.00800           0   0.00000     -0.301140E-02
     18889 MEMB     152      QMPE     C35      CTL2    -0.180000       12.0110           0   0.00000     -0.301140E-02
     18890 MEMB     152      QMPE     H5X      HAL2     0.900000E-01   1.00800           0   0.00000     -0.301140E-02
     18891 MEMB     152      QMPE     H5Y      HAL2     0.900000E-01   1.00800           0   0.00000     -0.301140E-02
     18892 MEMB     152      QMPE     C36      CTL2    -0.180000       12.0110           0   0.00000     -0.301140E-02
     18893 MEMB     152      QMPE     H6X      HAL2     0.900000E-01   1.00800           0   0.00000     -0.301140E-02
     18894 MEMB     152      QMPE     H6Y      HAL2     0.900000E-01   1.00800           0   0.00000     -0.301140E-02
     18895 MEMB     152      QMPE     C37      CTL2    -0.180000       12.0110           0   0.00000     -0.301140E-02
     18896 MEMB     152      QMPE     H7X      HAL2     0.900000E-01   1.00800           0   0.00000     -0.301140E-02
     18897 MEMB     152      QMPE     H7Y      HAL2     0.900000E-01   1.00800           0   0.00000     -0.301140E-02
     18898 MEMB     152      QMPE     C38      CTL2    -0.180000       12.0110           0   0.00000     -0.301140E-02
     18899 MEMB     152      QMPE     H8X      HAL2     0.900000E-01   1.00800           0   0.00000     -0.301140E-02
     18900 MEMB     152      QMPE     H8Y      HAL2     0.900000E-01   1.00800           0   0.00000     -0.301140E-02
     18901 MEMB     152      QMPE     C39      CTL2    -0.180000       12.0110           0   0.00000     -0.301140E-02
     18902 MEMB     152      QMPE     H9X      HAL2     0.900000E-01   1.00800           0   0.00000     -0.301140E-02
     18903 MEMB     152      QMPE     H9Y      HAL2     0.900000E-01   1.00800           0   0.00000     -0.301140E-02
     18904 MEMB     152      QMPE     C310     CTL2    -0.180000       12.0110           0   0.00000     -0.301140E-02
     18905 MEMB     152      QMPE     H10X     HAL2     0.900000E-01   1.00800           0   0.00000     -0.301140E-02
     18906 MEMB     152      QMPE     H10Y     HAL2     0.900000E-01   1.00800           0   0.00000     -0.301140E-02
     18907 MEMB     152      QMPE     C311     CTL2    -0.180000       12.0110           0   0.00000     -0.301140E-02
     18908 MEMB     152      QMPE     H11X     HAL2     0.900000E-01   1.00800           0   0.00000     -0.301140E-02
     18909 MEMB     152      QMPE     H11Y     HAL2     0.900000E-01   1.00800           0   0.00000     -0.301140E-02
     18910 MEMB     152      QMPE     C312     CTL2    -0.180000       12.0110           0   0.00000     -0.301140E-02
     18911 MEMB     152      QMPE     H12X     HAL2     0.900000E-01   1.00800           0   0.00000     -0.301140E-02
     18912 MEMB     152      QMPE     H12Y     HAL2     0.900000E-01   1.00800           0   0.00000     -0.301140E-02
     18913 MEMB     152      QMPE     C313     CTL2    -0.180000       12.0110           0   0.00000     -0.301140E-02
     18914 MEMB     152      QMPE     H13X     HAL2     0.900000E-01   1.00800           0   0.00000     -0.301140E-02
     18915 MEMB     152      QMPE     H13Y     HAL2     0.900000E-01   1.00800           0   0.00000     -0.301140E-02
     18916 MEMB     152      QMPE     C314     CTL2    -0.180000       12.0110           0   0.00000     -0.301140E-02
     18917 MEMB     152      QMPE     H14X     HAL2     0.900000E-01   1.00800           0   0.00000     -0.301140E-02
     18918 MEMB     152      QMPE     H14Y     HAL2     0.900000E-01   1.00800           0   0.00000     -0.301140E-02
     18919 MEMB     152      QMPE     C315     CTL3    -0.270000       12.0110           0   0.00000     -0.301140E-02
     18920 MEMB     152      QMPE     H15X     HAL3     0.900000E-01   1.00800           0   0.00000     -0.301140E-02
     18921 MEMB     152      QMPE     H15Y     HAL3     0.900000E-01   1.00800           0   0.00000     -0.301140E-02
     18922 MEMB     152      QMPE     H15Z     HAL3     0.900000E-01   1.00800           0   0.00000     -0.301140E-02
     18923 MEMB     153      PMPE     N        NH3L    -0.300000       14.0070           0   0.00000     -0.301140E-02
     18924 MEMB     153      PMPE     HN1      HCL      0.330000       1.00800           0   0.00000     -0.301140E-02
     18925 MEMB     153      PMPE     HN2      HCL      0.330000       1.00800           0   0.00000     -0.301140E-02
     18926 MEMB     153      PMPE     HN3      HCL      0.330000       1.00800           0   0.00000     -0.301140E-02
     18927 MEMB     153      PMPE     C12      CTL2     0.130000       12.0110           0   0.00000     -0.301140E-02
     18928 MEMB     153      PMPE     H12A     HAL2     0.900000E-01   1.00800           0   0.00000     -0.301140E-02
     18929 MEMB     153      PMPE     H12B     HAL2     0.900000E-01   1.00800           0   0.00000     -0.301140E-02
     18930 MEMB     153      PMPE     C11      CTL2    -0.800000E-01   12.0110           0   0.00000     -0.301140E-02
     18931 MEMB     153      PMPE     H11A     HAL2     0.900000E-01   1.00800           0   0.00000     -0.301140E-02
     18932 MEMB     153      PMPE     H11B     HAL2     0.900000E-01   1.00800           0   0.00000     -0.301140E-02
     18933 MEMB     153      PMPE     P        PL        1.50000       30.9740           0   0.00000     -0.301140E-02
     18934 MEMB     153      PMPE     O13      O2L     -0.780000       15.9994           0   0.00000     -0.301140E-02
     18935 MEMB     153      PMPE     O14      O2L     -0.780000       15.9994           0   0.00000     -0.301140E-02
     18936 MEMB     153      PMPE     O11      OSLP    -0.570000       15.9994           0   0.00000     -0.301140E-02
     18937 MEMB     153      PMPE     O12      OSLP    -0.570000       15.9994           0   0.00000     -0.301140E-02
     18938 MEMB     153      PMPE     C1       CTL2    -0.800000E-01   12.0110           0   0.00000     -0.301140E-02
     18939 MEMB     153      PMPE     HA       HAL2     0.900000E-01   1.00800           0   0.00000     -0.301140E-02
     18940 MEMB     153      PMPE     HB       HAL2     0.900000E-01   1.00800           0   0.00000     -0.301140E-02
     18941 MEMB     153      PMPE     C2       CTL1     0.170000       12.0110           0   0.00000     -0.301140E-02
     18942 MEMB     153      PMPE     HS       HAL1     0.900000E-01   1.00800           0   0.00000     -0.301140E-02
     18943 MEMB     153      PMPE     O21      OSL     -0.490000       15.9994           0   0.00000     -0.301140E-02
     18944 MEMB     153      PMPE     C21      CL       0.900000       12.0110           0   0.00000     -0.301140E-02
     18945 MEMB     153      PMPE     O22      OBL     -0.630000       15.9994           0   0.00000     -0.301140E-02
     18946 MEMB     153      PMPE     C22      CTL2    -0.220000       12.0110           0   0.00000     -0.301140E-02
     18947 MEMB     153      PMPE     H2R      HAL2     0.900000E-01   1.00800           0   0.00000     -0.301140E-02
     18948 MEMB     153      PMPE     H2S      HAL2     0.900000E-01   1.00800           0   0.00000     -0.301140E-02
     18949 MEMB     153      PMPE     C3       CTL2     0.800000E-01   12.0110           0   0.00000     -0.301140E-02
     18950 MEMB     153      PMPE     HX       HAL2     0.900000E-01   1.00800           0   0.00000     -0.301140E-02
     18951 MEMB     153      PMPE     HY       HAL2     0.900000E-01   1.00800           0   0.00000     -0.301140E-02
     18952 MEMB     153      PMPE     O31      OSL     -0.490000       15.9994           0   0.00000     -0.301140E-02
     18953 MEMB     153      PMPE     C31      CL       0.900000       12.0110           0   0.00000     -0.301140E-02
     18954 MEMB     153      PMPE     O32      OBL     -0.630000       15.9994           0   0.00000     -0.301140E-02
     18955 MEMB     153      PMPE     C32      CTL2    -0.220000       12.0110           0   0.00000     -0.301140E-02
     18956 MEMB     153      PMPE     H2X      HAL2     0.900000E-01   1.00800           0   0.00000     -0.301140E-02
     18957 MEMB     153      PMPE     H2Y      HAL2     0.900000E-01   1.00800           0   0.00000     -0.301140E-02
     18958 MEMB     153      PMPE     C23      CTL2    -0.180000       12.0110           0   0.00000     -0.301140E-02
     18959 MEMB     153      PMPE     H3R      HAL2     0.900000E-01   1.00800           0   0.00000     -0.301140E-02
     18960 MEMB     153      PMPE     H3S      HAL2     0.900000E-01   1.00800           0   0.00000     -0.301140E-02
     18961 MEMB     153      PMPE     C24      CTL2    -0.180000       12.0110           0   0.00000     -0.301140E-02
     18962 MEMB     153      PMPE     H4R      HAL2     0.900000E-01   1.00800           0   0.00000     -0.301140E-02
     18963 MEMB     153      PMPE     H4S      HAL2     0.900000E-01   1.00800           0   0.00000     -0.301140E-02
     18964 MEMB     153      PMPE     C25      CTL2    -0.180000       12.0110           0   0.00000     -0.301140E-02
     18965 MEMB     153      PMPE     H5R      HAL2     0.900000E-01   1.00800           0   0.00000     -0.301140E-02
     18966 MEMB     153      PMPE     H5S      HAL2     0.900000E-01   1.00800           0   0.00000     -0.301140E-02
     18967 MEMB     153      PMPE     C26      CTL2    -0.180000       12.0110           0   0.00000     -0.301140E-02
     18968 MEMB     153      PMPE     H6R      HAL2     0.900000E-01   1.00800           0   0.00000     -0.301140E-02
     18969 MEMB     153      PMPE     H6S      HAL2     0.900000E-01   1.00800           0   0.00000     -0.301140E-02
     18970 MEMB     153      PMPE     C27      CTL2    -0.180000       12.0110           0   0.00000     -0.301140E-02
     18971 MEMB     153      PMPE     H7R      HAL2     0.900000E-01   1.00800           0   0.00000     -0.301140E-02
     18972 MEMB     153      PMPE     H7S      HAL2     0.900000E-01   1.00800           0   0.00000     -0.301140E-02
     18973 MEMB     153      PMPE     C28      CTL2    -0.180000       12.0110           0   0.00000     -0.301140E-02
     18974 MEMB     153      PMPE     H8R      HAL2     0.900000E-01   1.00800           0   0.00000     -0.301140E-02
     18975 MEMB     153      PMPE     H8S      HAL2     0.900000E-01   1.00800           0   0.00000     -0.301140E-02
     18976 MEMB     153      PMPE     C29      CG3RC1  -0.900000E-01   12.0110           0   0.00000     -0.301140E-02
     18977 MEMB     153      PMPE     H9R      HGA1     0.900000E-01   1.00800           0   0.00000     -0.301140E-02
     18978 MEMB     153      PMPE     C217     CG3C31  -0.180000       12.0110           0   0.00000     -0.301140E-02
     18979 MEMB     153      PMPE     H17R     HGA2     0.900000E-01   1.00800           0   0.00000     -0.301140E-02
     18980 MEMB     153      PMPE     H17S     HGA2     0.900000E-01   1.00800           0   0.00000     -0.301140E-02
     18981 MEMB     153      PMPE     C210     CG3RC1  -0.900000E-01   12.0110           0   0.00000     -0.301140E-02
     18982 MEMB     153      PMPE     H10R     HGA1     0.900000E-01   1.00800           0   0.00000     -0.301140E-02
     18983 MEMB     153      PMPE     C211     CTL2    -0.180000       12.0110           0   0.00000     -0.301140E-02
     18984 MEMB     153      PMPE     H11R     HAL2     0.900000E-01   1.00800           0   0.00000     -0.301140E-02
     18985 MEMB     153      PMPE     H11S     HAL2     0.900000E-01   1.00800           0   0.00000     -0.301140E-02
     18986 MEMB     153      PMPE     C212     CTL2    -0.180000       12.0110           0   0.00000     -0.301140E-02
     18987 MEMB     153      PMPE     H12R     HAL2     0.900000E-01   1.00800           0   0.00000     -0.301140E-02
     18988 MEMB     153      PMPE     H12S     HAL2     0.900000E-01   1.00800           0   0.00000     -0.301140E-02
     18989 MEMB     153      PMPE     C213     CTL2    -0.180000       12.0110           0   0.00000     -0.301140E-02
     18990 MEMB     153      PMPE     H13R     HAL2     0.900000E-01   1.00800           0   0.00000     -0.301140E-02
     18991 MEMB     153      PMPE     H13S     HAL2     0.900000E-01   1.00800           0   0.00000     -0.301140E-02
     18992 MEMB     153      PMPE     C214     CTL2    -0.180000       12.0110           0   0.00000     -0.301140E-02
     18993 MEMB     153      PMPE     H14R     HAL2     0.900000E-01   1.00800           0   0.00000     -0.301140E-02
     18994 MEMB     153      PMPE     H14S     HAL2     0.900000E-01   1.00800           0   0.00000     -0.301140E-02
     18995 MEMB     153      PMPE     C215     CTL2    -0.180000       12.0110           0   0.00000     -0.301140E-02
     18996 MEMB     153      PMPE     H15R     HAL2     0.900000E-01   1.00800           0   0.00000     -0.301140E-02
     18997 MEMB     153      PMPE     H15S     HAL2     0.900000E-01   1.00800           0   0.00000     -0.301140E-02
     18998 MEMB     153      PMPE     C216     CTL3    -0.270000       12.0110           0   0.00000     -0.301140E-02
     18999 MEMB     153      PMPE     H16R     HAL3     0.900000E-01   1.00800           0   0.00000     -0.301140E-02
     19000 MEMB     153      PMPE     H16S     HAL3     0.900000E-01   1.00800           0   0.00000     -0.301140E-02
     19001 MEMB     153      PMPE     H16T     HAL3     0.900000E-01   1.00800           0   0.00000     -0.301140E-02
     19002 MEMB     153      PMPE     C33      CTL2    -0.180000       12.0110           0   0.00000     -0.301140E-02
     19003 MEMB     153      PMPE     H3X      HAL2     0.900000E-01   1.00800           0   0.00000     -0.301140E-02
     19004 MEMB     153      PMPE     H3Y      HAL2     0.900000E-01   1.00800           0   0.00000     -0.301140E-02
     19005 MEMB     153      PMPE     C34      CTL2    -0.180000       12.0110           0   0.00000     -0.301140E-02
     19006 MEMB     153      PMPE     H4X      HAL2     0.900000E-01   1.00800           0   0.00000     -0.301140E-02
     19007 MEMB     153      PMPE     H4Y      HAL2     0.900000E-01   1.00800           0   0.00000     -0.301140E-02
     19008 MEMB     153      PMPE     C35      CTL2    -0.180000       12.0110           0   0.00000     -0.301140E-02
     19009 MEMB     153      PMPE     H5X      HAL2     0.900000E-01   1.00800           0   0.00000     -0.301140E-02
     19010 MEMB     153      PMPE     H5Y      HAL2     0.900000E-01   1.00800           0   0.00000     -0.301140E-02
     19011 MEMB     153      PMPE     C36      CTL2    -0.180000       12.0110           0   0.00000     -0.301140E-02
     19012 MEMB     153      PMPE     H6X      HAL2     0.900000E-01   1.00800           0   0.00000     -0.301140E-02
     19013 MEMB     153      PMPE     H6Y      HAL2     0.900000E-01   1.00800           0   0.00000     -0.301140E-02
     19014 MEMB     153      PMPE     C37      CTL2    -0.180000       12.0110           0   0.00000     -0.301140E-02
     19015 MEMB     153      PMPE     H7X      HAL2     0.900000E-01   1.00800           0   0.00000     -0.301140E-02
     19016 MEMB     153      PMPE     H7Y      HAL2     0.900000E-01   1.00800           0   0.00000     -0.301140E-02
     19017 MEMB     153      PMPE     C38      CTL2    -0.180000       12.0110           0   0.00000     -0.301140E-02
     19018 MEMB     153      PMPE     H8X      HAL2     0.900000E-01   1.00800           0   0.00000     -0.301140E-02
     19019 MEMB     153      PMPE     H8Y      HAL2     0.900000E-01   1.00800           0   0.00000     -0.301140E-02
     19020 MEMB     153      PMPE     C39      CTL2    -0.180000       12.0110           0   0.00000     -0.301140E-02
     19021 MEMB     153      PMPE     H9X      HAL2     0.900000E-01   1.00800           0   0.00000     -0.301140E-02
     19022 MEMB     153      PMPE     H9Y      HAL2     0.900000E-01   1.00800           0   0.00000     -0.301140E-02
     19023 MEMB     153      PMPE     C310     CTL2    -0.180000       12.0110           0   0.00000     -0.301140E-02
     19024 MEMB     153      PMPE     H10X     HAL2     0.900000E-01   1.00800           0   0.00000     -0.301140E-02
     19025 MEMB     153      PMPE     H10Y     HAL2     0.900000E-01   1.00800           0   0.00000     -0.301140E-02
     19026 MEMB     153      PMPE     C311     CTL2    -0.180000       12.0110           0   0.00000     -0.301140E-02
     19027 MEMB     153      PMPE     H11X     HAL2     0.900000E-01   1.00800           0   0.00000     -0.301140E-02
     19028 MEMB     153      PMPE     H11Y     HAL2     0.900000E-01   1.00800           0   0.00000     -0.301140E-02
     19029 MEMB     153      PMPE     C312     CTL2    -0.180000       12.0110           0   0.00000     -0.301140E-02
     19030 MEMB     153      PMPE     H12X     HAL2     0.900000E-01   1.00800           0   0.00000     -0.301140E-02
     19031 MEMB     153      PMPE     H12Y     HAL2     0.900000E-01   1.00800           0   0.00000     -0.301140E-02
     19032 MEMB     153      PMPE     C313     CTL2    -0.180000       12.0110           0   0.00000     -0.301140E-02
     19033 MEMB     153      PMPE     H13X     HAL2     0.900000E-01   1.00800           0   0.00000     -0.301140E-02
     19034 MEMB     153      PMPE     H13Y     HAL2     0.900000E-01   1.00800           0   0.00000     -0.301140E-02
     19035 MEMB     153      PMPE     C314     CTL2    -0.180000       12.0110           0   0.00000     -0.301140E-02
     19036 MEMB     153      PMPE     H14X     HAL2     0.900000E-01   1.00800           0   0.00000     -0.301140E-02
     19037 MEMB     153      PMPE     H14Y     HAL2     0.900000E-01   1.00800           0   0.00000     -0.301140E-02
     19038 MEMB     153      PMPE     C315     CTL2    -0.180000       12.0110           0   0.00000     -0.301140E-02
     19039 MEMB     153      PMPE     H15X     HAL2     0.900000E-01   1.00800           0   0.00000     -0.301140E-02
     19040 MEMB     153      PMPE     H15Y     HAL2     0.900000E-01   1.00800           0   0.00000     -0.301140E-02
     19041 MEMB     153      PMPE     C316     CTL3    -0.270000       12.0110           0   0.00000     -0.301140E-02
     19042 MEMB     153      PMPE     H16X     HAL3     0.900000E-01   1.00800           0   0.00000     -0.301140E-02
     19043 MEMB     153      PMPE     H16Y     HAL3     0.900000E-01   1.00800           0   0.00000     -0.301140E-02
     19044 MEMB     153      PMPE     H16Z     HAL3     0.900000E-01   1.00800           0   0.00000     -0.301140E-02
     19045 MEMB     154      PMPE     N        NH3L    -0.300000       14.0070           0   0.00000     -0.301140E-02
     19046 MEMB     154      PMPE     HN1      HCL      0.330000       1.00800           0   0.00000     -0.301140E-02
     19047 MEMB     154      PMPE     HN2      HCL      0.330000       1.00800           0   0.00000     -0.301140E-02
     19048 MEMB     154      PMPE     HN3      HCL      0.330000       1.00800           0   0.00000     -0.301140E-02
     19049 MEMB     154      PMPE     C12      CTL2     0.130000       12.0110           0   0.00000     -0.301140E-02
     19050 MEMB     154      PMPE     H12A     HAL2     0.900000E-01   1.00800           0   0.00000     -0.301140E-02
     19051 MEMB     154      PMPE     H12B     HAL2     0.900000E-01   1.00800           0   0.00000     -0.301140E-02
     19052 MEMB     154      PMPE     C11      CTL2    -0.800000E-01   12.0110           0   0.00000     -0.301140E-02
     19053 MEMB     154      PMPE     H11A     HAL2     0.900000E-01   1.00800           0   0.00000     -0.301140E-02
     19054 MEMB     154      PMPE     H11B     HAL2     0.900000E-01   1.00800           0   0.00000     -0.301140E-02
     19055 MEMB     154      PMPE     P        PL        1.50000       30.9740           0   0.00000     -0.301140E-02
     19056 MEMB     154      PMPE     O13      O2L     -0.780000       15.9994           0   0.00000     -0.301140E-02
     19057 MEMB     154      PMPE     O14      O2L     -0.780000       15.9994           0   0.00000     -0.301140E-02
     19058 MEMB     154      PMPE     O11      OSLP    -0.570000       15.9994           0   0.00000     -0.301140E-02
     19059 MEMB     154      PMPE     O12      OSLP    -0.570000       15.9994           0   0.00000     -0.301140E-02
     19060 MEMB     154      PMPE     C1       CTL2    -0.800000E-01   12.0110           0   0.00000     -0.301140E-02
     19061 MEMB     154      PMPE     HA       HAL2     0.900000E-01   1.00800           0   0.00000     -0.301140E-02
     19062 MEMB     154      PMPE     HB       HAL2     0.900000E-01   1.00800           0   0.00000     -0.301140E-02
     19063 MEMB     154      PMPE     C2       CTL1     0.170000       12.0110           0   0.00000     -0.301140E-02
     19064 MEMB     154      PMPE     HS       HAL1     0.900000E-01   1.00800           0   0.00000     -0.301140E-02
     19065 MEMB     154      PMPE     O21      OSL     -0.490000       15.9994           0   0.00000     -0.301140E-02
     19066 MEMB     154      PMPE     C21      CL       0.900000       12.0110           0   0.00000     -0.301140E-02
     19067 MEMB     154      PMPE     O22      OBL     -0.630000       15.9994           0   0.00000     -0.301140E-02
     19068 MEMB     154      PMPE     C22      CTL2    -0.220000       12.0110           0   0.00000     -0.301140E-02
     19069 MEMB     154      PMPE     H2R      HAL2     0.900000E-01   1.00800           0   0.00000     -0.301140E-02
     19070 MEMB     154      PMPE     H2S      HAL2     0.900000E-01   1.00800           0   0.00000     -0.301140E-02
     19071 MEMB     154      PMPE     C3       CTL2     0.800000E-01   12.0110           0   0.00000     -0.301140E-02
     19072 MEMB     154      PMPE     HX       HAL2     0.900000E-01   1.00800           0   0.00000     -0.301140E-02
     19073 MEMB     154      PMPE     HY       HAL2     0.900000E-01   1.00800           0   0.00000     -0.301140E-02
     19074 MEMB     154      PMPE     O31      OSL     -0.490000       15.9994           0   0.00000     -0.301140E-02
     19075 MEMB     154      PMPE     C31      CL       0.900000       12.0110           0   0.00000     -0.301140E-02
     19076 MEMB     154      PMPE     O32      OBL     -0.630000       15.9994           0   0.00000     -0.301140E-02
     19077 MEMB     154      PMPE     C32      CTL2    -0.220000       12.0110           0   0.00000     -0.301140E-02
     19078 MEMB     154      PMPE     H2X      HAL2     0.900000E-01   1.00800           0   0.00000     -0.301140E-02
     19079 MEMB     154      PMPE     H2Y      HAL2     0.900000E-01   1.00800           0   0.00000     -0.301140E-02
     19080 MEMB     154      PMPE     C23      CTL2    -0.180000       12.0110           0   0.00000     -0.301140E-02
     19081 MEMB     154      PMPE     H3R      HAL2     0.900000E-01   1.00800           0   0.00000     -0.301140E-02
     19082 MEMB     154      PMPE     H3S      HAL2     0.900000E-01   1.00800           0   0.00000     -0.301140E-02
     19083 MEMB     154      PMPE     C24      CTL2    -0.180000       12.0110           0   0.00000     -0.301140E-02
     19084 MEMB     154      PMPE     H4R      HAL2     0.900000E-01   1.00800           0   0.00000     -0.301140E-02
     19085 MEMB     154      PMPE     H4S      HAL2     0.900000E-01   1.00800           0   0.00000     -0.301140E-02
     19086 MEMB     154      PMPE     C25      CTL2    -0.180000       12.0110           0   0.00000     -0.301140E-02
     19087 MEMB     154      PMPE     H5R      HAL2     0.900000E-01   1.00800           0   0.00000     -0.301140E-02
     19088 MEMB     154      PMPE     H5S      HAL2     0.900000E-01   1.00800           0   0.00000     -0.301140E-02
     19089 MEMB     154      PMPE     C26      CTL2    -0.180000       12.0110           0   0.00000     -0.301140E-02
     19090 MEMB     154      PMPE     H6R      HAL2     0.900000E-01   1.00800           0   0.00000     -0.301140E-02
     19091 MEMB     154      PMPE     H6S      HAL2     0.900000E-01   1.00800           0   0.00000     -0.301140E-02
     19092 MEMB     154      PMPE     C27      CTL2    -0.180000       12.0110           0   0.00000     -0.301140E-02
     19093 MEMB     154      PMPE     H7R      HAL2     0.900000E-01   1.00800           0   0.00000     -0.301140E-02
     19094 MEMB     154      PMPE     H7S      HAL2     0.900000E-01   1.00800           0   0.00000     -0.301140E-02
     19095 MEMB     154      PMPE     C28      CTL2    -0.180000       12.0110           0   0.00000     -0.301140E-02
     19096 MEMB     154      PMPE     H8R      HAL2     0.900000E-01   1.00800           0   0.00000     -0.301140E-02
     19097 MEMB     154      PMPE     H8S      HAL2     0.900000E-01   1.00800           0   0.00000     -0.301140E-02
     19098 MEMB     154      PMPE     C29      CG3RC1  -0.900000E-01   12.0110           0   0.00000     -0.301140E-02
     19099 MEMB     154      PMPE     H9R      HGA1     0.900000E-01   1.00800           0   0.00000     -0.301140E-02
     19100 MEMB     154      PMPE     C217     CG3C31  -0.180000       12.0110           0   0.00000     -0.301140E-02
     19101 MEMB     154      PMPE     H17R     HGA2     0.900000E-01   1.00800           0   0.00000     -0.301140E-02
     19102 MEMB     154      PMPE     H17S     HGA2     0.900000E-01   1.00800           0   0.00000     -0.301140E-02
     19103 MEMB     154      PMPE     C210     CG3RC1  -0.900000E-01   12.0110           0   0.00000     -0.301140E-02
     19104 MEMB     154      PMPE     H10R     HGA1     0.900000E-01   1.00800           0   0.00000     -0.301140E-02
     19105 MEMB     154      PMPE     C211     CTL2    -0.180000       12.0110           0   0.00000     -0.301140E-02
     19106 MEMB     154      PMPE     H11R     HAL2     0.900000E-01   1.00800           0   0.00000     -0.301140E-02
     19107 MEMB     154      PMPE     H11S     HAL2     0.900000E-01   1.00800           0   0.00000     -0.301140E-02
     19108 MEMB     154      PMPE     C212     CTL2    -0.180000       12.0110           0   0.00000     -0.301140E-02
     19109 MEMB     154      PMPE     H12R     HAL2     0.900000E-01   1.00800           0   0.00000     -0.301140E-02
     19110 MEMB     154      PMPE     H12S     HAL2     0.900000E-01   1.00800           0   0.00000     -0.301140E-02
     19111 MEMB     154      PMPE     C213     CTL2    -0.180000       12.0110           0   0.00000     -0.301140E-02
     19112 MEMB     154      PMPE     H13R     HAL2     0.900000E-01   1.00800           0   0.00000     -0.301140E-02
     19113 MEMB     154      PMPE     H13S     HAL2     0.900000E-01   1.00800           0   0.00000     -0.301140E-02
     19114 MEMB     154      PMPE     C214     CTL2    -0.180000       12.0110           0   0.00000     -0.301140E-02
     19115 MEMB     154      PMPE     H14R     HAL2     0.900000E-01   1.00800           0   0.00000     -0.301140E-02
     19116 MEMB     154      PMPE     H14S     HAL2     0.900000E-01   1.00800           0   0.00000     -0.301140E-02
     19117 MEMB     154      PMPE     C215     CTL2    -0.180000       12.0110           0   0.00000     -0.301140E-02
     19118 MEMB     154      PMPE     H15R     HAL2     0.900000E-01   1.00800           0   0.00000     -0.301140E-02
     19119 MEMB     154      PMPE     H15S     HAL2     0.900000E-01   1.00800           0   0.00000     -0.301140E-02
     19120 MEMB     154      PMPE     C216     CTL3    -0.270000       12.0110           0   0.00000     -0.301140E-02
     19121 MEMB     154      PMPE     H16R     HAL3     0.900000E-01   1.00800           0   0.00000     -0.301140E-02
     19122 MEMB     154      PMPE     H16S     HAL3     0.900000E-01   1.00800           0   0.00000     -0.301140E-02
     19123 MEMB     154      PMPE     H16T     HAL3     0.900000E-01   1.00800           0   0.00000     -0.301140E-02
     19124 MEMB     154      PMPE     C33      CTL2    -0.180000       12.0110           0   0.00000     -0.301140E-02
     19125 MEMB     154      PMPE     H3X      HAL2     0.900000E-01   1.00800           0   0.00000     -0.301140E-02
     19126 MEMB     154      PMPE     H3Y      HAL2     0.900000E-01   1.00800           0   0.00000     -0.301140E-02
     19127 MEMB     154      PMPE     C34      CTL2    -0.180000       12.0110           0   0.00000     -0.301140E-02
     19128 MEMB     154      PMPE     H4X      HAL2     0.900000E-01   1.00800           0   0.00000     -0.301140E-02
     19129 MEMB     154      PMPE     H4Y      HAL2     0.900000E-01   1.00800           0   0.00000     -0.301140E-02
     19130 MEMB     154      PMPE     C35      CTL2    -0.180000       12.0110           0   0.00000     -0.301140E-02
     19131 MEMB     154      PMPE     H5X      HAL2     0.900000E-01   1.00800           0   0.00000     -0.301140E-02
     19132 MEMB     154      PMPE     H5Y      HAL2     0.900000E-01   1.00800           0   0.00000     -0.301140E-02
     19133 MEMB     154      PMPE     C36      CTL2    -0.180000       12.0110           0   0.00000     -0.301140E-02
     19134 MEMB     154      PMPE     H6X      HAL2     0.900000E-01   1.00800           0   0.00000     -0.301140E-02
     19135 MEMB     154      PMPE     H6Y      HAL2     0.900000E-01   1.00800           0   0.00000     -0.301140E-02
     19136 MEMB     154      PMPE     C37      CTL2    -0.180000       12.0110           0   0.00000     -0.301140E-02
     19137 MEMB     154      PMPE     H7X      HAL2     0.900000E-01   1.00800           0   0.00000     -0.301140E-02
     19138 MEMB     154      PMPE     H7Y      HAL2     0.900000E-01   1.00800           0   0.00000     -0.301140E-02
     19139 MEMB     154      PMPE     C38      CTL2    -0.180000       12.0110           0   0.00000     -0.301140E-02
     19140 MEMB     154      PMPE     H8X      HAL2     0.900000E-01   1.00800           0   0.00000     -0.301140E-02
     19141 MEMB     154      PMPE     H8Y      HAL2     0.900000E-01   1.00800           0   0.00000     -0.301140E-02
     19142 MEMB     154      PMPE     C39      CTL2    -0.180000       12.0110           0   0.00000     -0.301140E-02
     19143 MEMB     154      PMPE     H9X      HAL2     0.900000E-01   1.00800           0   0.00000     -0.301140E-02
     19144 MEMB     154      PMPE     H9Y      HAL2     0.900000E-01   1.00800           0   0.00000     -0.301140E-02
     19145 MEMB     154      PMPE     C310     CTL2    -0.180000       12.0110           0   0.00000     -0.301140E-02
     19146 MEMB     154      PMPE     H10X     HAL2     0.900000E-01   1.00800           0   0.00000     -0.301140E-02
     19147 MEMB     154      PMPE     H10Y     HAL2     0.900000E-01   1.00800           0   0.00000     -0.301140E-02
     19148 MEMB     154      PMPE     C311     CTL2    -0.180000       12.0110           0   0.00000     -0.301140E-02
     19149 MEMB     154      PMPE     H11X     HAL2     0.900000E-01   1.00800           0   0.00000     -0.301140E-02
     19150 MEMB     154      PMPE     H11Y     HAL2     0.900000E-01   1.00800           0   0.00000     -0.301140E-02
     19151 MEMB     154      PMPE     C312     CTL2    -0.180000       12.0110           0   0.00000     -0.301140E-02
     19152 MEMB     154      PMPE     H12X     HAL2     0.900000E-01   1.00800           0   0.00000     -0.301140E-02
     19153 MEMB     154      PMPE     H12Y     HAL2     0.900000E-01   1.00800           0   0.00000     -0.301140E-02
     19154 MEMB     154      PMPE     C313     CTL2    -0.180000       12.0110           0   0.00000     -0.301140E-02
     19155 MEMB     154      PMPE     H13X     HAL2     0.900000E-01   1.00800           0   0.00000     -0.301140E-02
     19156 MEMB     154      PMPE     H13Y     HAL2     0.900000E-01   1.00800           0   0.00000     -0.301140E-02
     19157 MEMB     154      PMPE     C314     CTL2    -0.180000       12.0110           0   0.00000     -0.301140E-02
     19158 MEMB     154      PMPE     H14X     HAL2     0.900000E-01   1.00800           0   0.00000     -0.301140E-02
     19159 MEMB     154      PMPE     H14Y     HAL2     0.900000E-01   1.00800           0   0.00000     -0.301140E-02
     19160 MEMB     154      PMPE     C315     CTL2    -0.180000       12.0110           0   0.00000     -0.301140E-02
     19161 MEMB     154      PMPE     H15X     HAL2     0.900000E-01   1.00800           0   0.00000     -0.301140E-02
     19162 MEMB     154      PMPE     H15Y     HAL2     0.900000E-01   1.00800           0   0.00000     -0.301140E-02
     19163 MEMB     154      PMPE     C316     CTL3    -0.270000       12.0110           0   0.00000     -0.301140E-02
     19164 MEMB     154      PMPE     H16X     HAL3     0.900000E-01   1.00800           0   0.00000     -0.301140E-02
     19165 MEMB     154      PMPE     H16Y     HAL3     0.900000E-01   1.00800           0   0.00000     -0.301140E-02
     19166 MEMB     154      PMPE     H16Z     HAL3     0.900000E-01   1.00800           0   0.00000     -0.301140E-02
     19167 MEMB     155      PYPG     C13      CTL2     0.500000E-01   12.0110           0   0.00000     -0.301140E-02
     19168 MEMB     155      PYPG     H13A     HAL2     0.900000E-01   1.00800           0   0.00000     -0.301140E-02
     19169 MEMB     155      PYPG     H13B     HAL2     0.900000E-01   1.00800           0   0.00000     -0.301140E-02
     19170 MEMB     155      PYPG     OC3      OHL     -0.660000       15.9994           0   0.00000     -0.301140E-02
     19171 MEMB     155      PYPG     HO3      HOL      0.430000       1.00800           0   0.00000     -0.301140E-02
     19172 MEMB     155      PYPG     C12      CTL1     0.140000       12.0110           0   0.00000     -0.301140E-02
     19173 MEMB     155      PYPG     H12A     HAL1     0.900000E-01   1.00800           0   0.00000     -0.301140E-02
     19174 MEMB     155      PYPG     OC2      OHL     -0.660000       15.9994           0   0.00000     -0.301140E-02
     19175 MEMB     155      PYPG     HO2      HOL      0.430000       1.00800           0   0.00000     -0.301140E-02
     19176 MEMB     155      PYPG     C11      CTL2    -0.800000E-01   12.0110           0   0.00000     -0.301140E-02
     19177 MEMB     155      PYPG     H11A     HAL2     0.900000E-01   1.00800           0   0.00000     -0.301140E-02
     19178 MEMB     155      PYPG     H11B     HAL2     0.900000E-01   1.00800           0   0.00000     -0.301140E-02
     19179 MEMB     155      PYPG     P        PL        1.50000       30.9740           0   0.00000     -0.301140E-02
     19180 MEMB     155      PYPG     O13      O2L     -0.780000       15.9994           0   0.00000     -0.301140E-02
     19181 MEMB     155      PYPG     O14      O2L     -0.780000       15.9994           0   0.00000     -0.301140E-02
     19182 MEMB     155      PYPG     O11      OSLP    -0.570000       15.9994           0   0.00000     -0.301140E-02
     19183 MEMB     155      PYPG     O12      OSLP    -0.570000       15.9994           0   0.00000     -0.301140E-02
     19184 MEMB     155      PYPG     C1       CTL2    -0.800000E-01   12.0110           0   0.00000     -0.301140E-02
     19185 MEMB     155      PYPG     HA       HAL2     0.900000E-01   1.00800           0   0.00000     -0.301140E-02
     19186 MEMB     155      PYPG     HB       HAL2     0.900000E-01   1.00800           0   0.00000     -0.301140E-02
     19187 MEMB     155      PYPG     C2       CTL1     0.170000       12.0110           0   0.00000     -0.301140E-02
     19188 MEMB     155      PYPG     HS       HAL1     0.900000E-01   1.00800           0   0.00000     -0.301140E-02
     19189 MEMB     155      PYPG     O21      OSL     -0.490000       15.9994           0   0.00000     -0.301140E-02
     19190 MEMB     155      PYPG     C21      CL       0.900000       12.0110           0   0.00000     -0.301140E-02
     19191 MEMB     155      PYPG     O22      OBL     -0.630000       15.9994           0   0.00000     -0.301140E-02
     19192 MEMB     155      PYPG     C22      CTL2    -0.220000       12.0110           0   0.00000     -0.301140E-02
     19193 MEMB     155      PYPG     H2R      HAL2     0.900000E-01   1.00800           0   0.00000     -0.301140E-02
     19194 MEMB     155      PYPG     H2S      HAL2     0.900000E-01   1.00800           0   0.00000     -0.301140E-02
     19195 MEMB     155      PYPG     C3       CTL2     0.800000E-01   12.0110           0   0.00000     -0.301140E-02
     19196 MEMB     155      PYPG     HX       HAL2     0.900000E-01   1.00800           0   0.00000     -0.301140E-02
     19197 MEMB     155      PYPG     HY       HAL2     0.900000E-01   1.00800           0   0.00000     -0.301140E-02
     19198 MEMB     155      PYPG     O31      OSL     -0.490000       15.9994           0   0.00000     -0.301140E-02
     19199 MEMB     155      PYPG     C31      CL       0.900000       12.0110           0   0.00000     -0.301140E-02
     19200 MEMB     155      PYPG     O32      OBL     -0.630000       15.9994           0   0.00000     -0.301140E-02
     19201 MEMB     155      PYPG     C32      CTL2    -0.220000       12.0110           0   0.00000     -0.301140E-02
     19202 MEMB     155      PYPG     H2X      HAL2     0.900000E-01   1.00800           0   0.00000     -0.301140E-02
     19203 MEMB     155      PYPG     H2Y      HAL2     0.900000E-01   1.00800           0   0.00000     -0.301140E-02
     19204 MEMB     155      PYPG     C23      CTL2    -0.180000       12.0110           0   0.00000     -0.301140E-02
     19205 MEMB     155      PYPG     H3R      HAL2     0.900000E-01   1.00800           0   0.00000     -0.301140E-02
     19206 MEMB     155      PYPG     H3S      HAL2     0.900000E-01   1.00800           0   0.00000     -0.301140E-02
     19207 MEMB     155      PYPG     C24      CTL2    -0.180000       12.0110           0   0.00000     -0.301140E-02
     19208 MEMB     155      PYPG     H4R      HAL2     0.900000E-01   1.00800           0   0.00000     -0.301140E-02
     19209 MEMB     155      PYPG     H4S      HAL2     0.900000E-01   1.00800           0   0.00000     -0.301140E-02
     19210 MEMB     155      PYPG     C25      CTL2    -0.180000       12.0110           0   0.00000     -0.301140E-02
     19211 MEMB     155      PYPG     H5R      HAL2     0.900000E-01   1.00800           0   0.00000     -0.301140E-02
     19212 MEMB     155      PYPG     H5S      HAL2     0.900000E-01   1.00800           0   0.00000     -0.301140E-02
     19213 MEMB     155      PYPG     C26      CTL2    -0.180000       12.0110           0   0.00000     -0.301140E-02
     19214 MEMB     155      PYPG     H6R      HAL2     0.900000E-01   1.00800           0   0.00000     -0.301140E-02
     19215 MEMB     155      PYPG     H6S      HAL2     0.900000E-01   1.00800           0   0.00000     -0.301140E-02
     19216 MEMB     155      PYPG     C27      CTL2    -0.180000       12.0110           0   0.00000     -0.301140E-02
     19217 MEMB     155      PYPG     H7R      HAL2     0.900000E-01   1.00800           0   0.00000     -0.301140E-02
     19218 MEMB     155      PYPG     H7S      HAL2     0.900000E-01   1.00800           0   0.00000     -0.301140E-02
     19219 MEMB     155      PYPG     C28      CTL2    -0.180000       12.0110           0   0.00000     -0.301140E-02
     19220 MEMB     155      PYPG     H8R      HAL2     0.900000E-01   1.00800           0   0.00000     -0.301140E-02
     19221 MEMB     155      PYPG     H8S      HAL2     0.900000E-01   1.00800           0   0.00000     -0.301140E-02
     19222 MEMB     155      PYPG     C29      CEL1    -0.150000       12.0110           0   0.00000     -0.301140E-02
     19223 MEMB     155      PYPG     H9R      HEL1     0.150000       1.00800           0   0.00000     -0.301140E-02
     19224 MEMB     155      PYPG     C210     CEL1    -0.150000       12.0110           0   0.00000     -0.301140E-02
     19225 MEMB     155      PYPG     H10R     HEL1     0.150000       1.00800           0   0.00000     -0.301140E-02
     19226 MEMB     155      PYPG     C211     CTL2    -0.180000       12.0110           0   0.00000     -0.301140E-02
     19227 MEMB     155      PYPG     H11R     HAL2     0.900000E-01   1.00800           0   0.00000     -0.301140E-02
     19228 MEMB     155      PYPG     H11S     HAL2     0.900000E-01   1.00800           0   0.00000     -0.301140E-02
     19229 MEMB     155      PYPG     C212     CTL2    -0.180000       12.0110           0   0.00000     -0.301140E-02
     19230 MEMB     155      PYPG     H12R     HAL2     0.900000E-01   1.00800           0   0.00000     -0.301140E-02
     19231 MEMB     155      PYPG     H12S     HAL2     0.900000E-01   1.00800           0   0.00000     -0.301140E-02
     19232 MEMB     155      PYPG     C213     CTL2    -0.180000       12.0110           0   0.00000     -0.301140E-02
     19233 MEMB     155      PYPG     H13R     HAL2     0.900000E-01   1.00800           0   0.00000     -0.301140E-02
     19234 MEMB     155      PYPG     H13S     HAL2     0.900000E-01   1.00800           0   0.00000     -0.301140E-02
     19235 MEMB     155      PYPG     C214     CTL2    -0.180000       12.0110           0   0.00000     -0.301140E-02
     19236 MEMB     155      PYPG     H14R     HAL2     0.900000E-01   1.00800           0   0.00000     -0.301140E-02
     19237 MEMB     155      PYPG     H14S     HAL2     0.900000E-01   1.00800           0   0.00000     -0.301140E-02
     19238 MEMB     155      PYPG     C215     CTL2    -0.180000       12.0110           0   0.00000     -0.301140E-02
     19239 MEMB     155      PYPG     H15R     HAL2     0.900000E-01   1.00800           0   0.00000     -0.301140E-02
     19240 MEMB     155      PYPG     H15S     HAL2     0.900000E-01   1.00800           0   0.00000     -0.301140E-02
     19241 MEMB     155      PYPG     C216     CTL3    -0.270000       12.0110           0   0.00000     -0.301140E-02
     19242 MEMB     155      PYPG     H16R     HAL3     0.900000E-01   1.00800           0   0.00000     -0.301140E-02
     19243 MEMB     155      PYPG     H16S     HAL3     0.900000E-01   1.00800           0   0.00000     -0.301140E-02
     19244 MEMB     155      PYPG     H16T     HAL3     0.900000E-01   1.00800           0   0.00000     -0.301140E-02
     19245 MEMB     155      PYPG     C33      CTL2    -0.180000       12.0110           0   0.00000     -0.301140E-02
     19246 MEMB     155      PYPG     H3X      HAL2     0.900000E-01   1.00800           0   0.00000     -0.301140E-02
     19247 MEMB     155      PYPG     H3Y      HAL2     0.900000E-01   1.00800           0   0.00000     -0.301140E-02
     19248 MEMB     155      PYPG     C34      CTL2    -0.180000       12.0110           0   0.00000     -0.301140E-02
     19249 MEMB     155      PYPG     H4X      HAL2     0.900000E-01   1.00800           0   0.00000     -0.301140E-02
     19250 MEMB     155      PYPG     H4Y      HAL2     0.900000E-01   1.00800           0   0.00000     -0.301140E-02
     19251 MEMB     155      PYPG     C35      CTL2    -0.180000       12.0110           0   0.00000     -0.301140E-02
     19252 MEMB     155      PYPG     H5X      HAL2     0.900000E-01   1.00800           0   0.00000     -0.301140E-02
     19253 MEMB     155      PYPG     H5Y      HAL2     0.900000E-01   1.00800           0   0.00000     -0.301140E-02
     19254 MEMB     155      PYPG     C36      CTL2    -0.180000       12.0110           0   0.00000     -0.301140E-02
     19255 MEMB     155      PYPG     H6X      HAL2     0.900000E-01   1.00800           0   0.00000     -0.301140E-02
     19256 MEMB     155      PYPG     H6Y      HAL2     0.900000E-01   1.00800           0   0.00000     -0.301140E-02
     19257 MEMB     155      PYPG     C37      CTL2    -0.180000       12.0110           0   0.00000     -0.301140E-02
     19258 MEMB     155      PYPG     H7X      HAL2     0.900000E-01   1.00800           0   0.00000     -0.301140E-02
     19259 MEMB     155      PYPG     H7Y      HAL2     0.900000E-01   1.00800           0   0.00000     -0.301140E-02
     19260 MEMB     155      PYPG     C38      CTL2    -0.180000       12.0110           0   0.00000     -0.301140E-02
     19261 MEMB     155      PYPG     H8X      HAL2     0.900000E-01   1.00800           0   0.00000     -0.301140E-02
     19262 MEMB     155      PYPG     H8Y      HAL2     0.900000E-01   1.00800           0   0.00000     -0.301140E-02
     19263 MEMB     155      PYPG     C39      CTL2    -0.180000       12.0110           0   0.00000     -0.301140E-02
     19264 MEMB     155      PYPG     H9X      HAL2     0.900000E-01   1.00800           0   0.00000     -0.301140E-02
     19265 MEMB     155      PYPG     H9Y      HAL2     0.900000E-01   1.00800           0   0.00000     -0.301140E-02
     19266 MEMB     155      PYPG     C310     CTL2    -0.180000       12.0110           0   0.00000     -0.301140E-02
     19267 MEMB     155      PYPG     H10X     HAL2     0.900000E-01   1.00800           0   0.00000     -0.301140E-02
     19268 MEMB     155      PYPG     H10Y     HAL2     0.900000E-01   1.00800           0   0.00000     -0.301140E-02
     19269 MEMB     155      PYPG     C311     CTL2    -0.180000       12.0110           0   0.00000     -0.301140E-02
     19270 MEMB     155      PYPG     H11X     HAL2     0.900000E-01   1.00800           0   0.00000     -0.301140E-02
     19271 MEMB     155      PYPG     H11Y     HAL2     0.900000E-01   1.00800           0   0.00000     -0.301140E-02
     19272 MEMB     155      PYPG     C312     CTL2    -0.180000       12.0110           0   0.00000     -0.301140E-02
     19273 MEMB     155      PYPG     H12X     HAL2     0.900000E-01   1.00800           0   0.00000     -0.301140E-02
     19274 MEMB     155      PYPG     H12Y     HAL2     0.900000E-01   1.00800           0   0.00000     -0.301140E-02
     19275 MEMB     155      PYPG     C313     CTL2    -0.180000       12.0110           0   0.00000     -0.301140E-02
     19276 MEMB     155      PYPG     H13X     HAL2     0.900000E-01   1.00800           0   0.00000     -0.301140E-02
     19277 MEMB     155      PYPG     H13Y     HAL2     0.900000E-01   1.00800           0   0.00000     -0.301140E-02
     19278 MEMB     155      PYPG     C314     CTL2    -0.180000       12.0110           0   0.00000     -0.301140E-02
     19279 MEMB     155      PYPG     H14X     HAL2     0.900000E-01   1.00800           0   0.00000     -0.301140E-02
     19280 MEMB     155      PYPG     H14Y     HAL2     0.900000E-01   1.00800           0   0.00000     -0.301140E-02
     19281 MEMB     155      PYPG     C315     CTL2    -0.180000       12.0110           0   0.00000     -0.301140E-02
     19282 MEMB     155      PYPG     H15X     HAL2     0.900000E-01   1.00800           0   0.00000     -0.301140E-02
     19283 MEMB     155      PYPG     H15Y     HAL2     0.900000E-01   1.00800           0   0.00000     -0.301140E-02
     19284 MEMB     155      PYPG     C316     CTL3    -0.270000       12.0110           0   0.00000     -0.301140E-02
     19285 MEMB     155      PYPG     H16X     HAL3     0.900000E-01   1.00800           0   0.00000     -0.301140E-02
     19286 MEMB     155      PYPG     H16Y     HAL3     0.900000E-01   1.00800           0   0.00000     -0.301140E-02
     19287 MEMB     155      PYPG     H16Z     HAL3     0.900000E-01   1.00800           0   0.00000     -0.301140E-02
     19288 MEMB     156      PMPE     N        NH3L    -0.300000       14.0070           0   0.00000     -0.301140E-02
     19289 MEMB     156      PMPE     HN1      HCL      0.330000       1.00800           0   0.00000     -0.301140E-02
     19290 MEMB     156      PMPE     HN2      HCL      0.330000       1.00800           0   0.00000     -0.301140E-02
     19291 MEMB     156      PMPE     HN3      HCL      0.330000       1.00800           0   0.00000     -0.301140E-02
     19292 MEMB     156      PMPE     C12      CTL2     0.130000       12.0110           0   0.00000     -0.301140E-02
     19293 MEMB     156      PMPE     H12A     HAL2     0.900000E-01   1.00800           0   0.00000     -0.301140E-02
     19294 MEMB     156      PMPE     H12B     HAL2     0.900000E-01   1.00800           0   0.00000     -0.301140E-02
     19295 MEMB     156      PMPE     C11      CTL2    -0.800000E-01   12.0110           0   0.00000     -0.301140E-02
     19296 MEMB     156      PMPE     H11A     HAL2     0.900000E-01   1.00800           0   0.00000     -0.301140E-02
     19297 MEMB     156      PMPE     H11B     HAL2     0.900000E-01   1.00800           0   0.00000     -0.301140E-02
     19298 MEMB     156      PMPE     P        PL        1.50000       30.9740           0   0.00000     -0.301140E-02
     19299 MEMB     156      PMPE     O13      O2L     -0.780000       15.9994           0   0.00000     -0.301140E-02
     19300 MEMB     156      PMPE     O14      O2L     -0.780000       15.9994           0   0.00000     -0.301140E-02
     19301 MEMB     156      PMPE     O11      OSLP    -0.570000       15.9994           0   0.00000     -0.301140E-02
     19302 MEMB     156      PMPE     O12      OSLP    -0.570000       15.9994           0   0.00000     -0.301140E-02
     19303 MEMB     156      PMPE     C1       CTL2    -0.800000E-01   12.0110           0   0.00000     -0.301140E-02
     19304 MEMB     156      PMPE     HA       HAL2     0.900000E-01   1.00800           0   0.00000     -0.301140E-02
     19305 MEMB     156      PMPE     HB       HAL2     0.900000E-01   1.00800           0   0.00000     -0.301140E-02
     19306 MEMB     156      PMPE     C2       CTL1     0.170000       12.0110           0   0.00000     -0.301140E-02
     19307 MEMB     156      PMPE     HS       HAL1     0.900000E-01   1.00800           0   0.00000     -0.301140E-02
     19308 MEMB     156      PMPE     O21      OSL     -0.490000       15.9994           0   0.00000     -0.301140E-02
     19309 MEMB     156      PMPE     C21      CL       0.900000       12.0110           0   0.00000     -0.301140E-02
     19310 MEMB     156      PMPE     O22      OBL     -0.630000       15.9994           0   0.00000     -0.301140E-02
     19311 MEMB     156      PMPE     C22      CTL2    -0.220000       12.0110           0   0.00000     -0.301140E-02
     19312 MEMB     156      PMPE     H2R      HAL2     0.900000E-01   1.00800           0   0.00000     -0.301140E-02
     19313 MEMB     156      PMPE     H2S      HAL2     0.900000E-01   1.00800           0   0.00000     -0.301140E-02
     19314 MEMB     156      PMPE     C3       CTL2     0.800000E-01   12.0110           0   0.00000     -0.301140E-02
     19315 MEMB     156      PMPE     HX       HAL2     0.900000E-01   1.00800           0   0.00000     -0.301140E-02
     19316 MEMB     156      PMPE     HY       HAL2     0.900000E-01   1.00800           0   0.00000     -0.301140E-02
     19317 MEMB     156      PMPE     O31      OSL     -0.490000       15.9994           0   0.00000     -0.301140E-02
     19318 MEMB     156      PMPE     C31      CL       0.900000       12.0110           0   0.00000     -0.301140E-02
     19319 MEMB     156      PMPE     O32      OBL     -0.630000       15.9994           0   0.00000     -0.301140E-02
     19320 MEMB     156      PMPE     C32      CTL2    -0.220000       12.0110           0   0.00000     -0.301140E-02
     19321 MEMB     156      PMPE     H2X      HAL2     0.900000E-01   1.00800           0   0.00000     -0.301140E-02
     19322 MEMB     156      PMPE     H2Y      HAL2     0.900000E-01   1.00800           0   0.00000     -0.301140E-02
     19323 MEMB     156      PMPE     C23      CTL2    -0.180000       12.0110           0   0.00000     -0.301140E-02
     19324 MEMB     156      PMPE     H3R      HAL2     0.900000E-01   1.00800           0   0.00000     -0.301140E-02
     19325 MEMB     156      PMPE     H3S      HAL2     0.900000E-01   1.00800           0   0.00000     -0.301140E-02
     19326 MEMB     156      PMPE     C24      CTL2    -0.180000       12.0110           0   0.00000     -0.301140E-02
     19327 MEMB     156      PMPE     H4R      HAL2     0.900000E-01   1.00800           0   0.00000     -0.301140E-02
     19328 MEMB     156      PMPE     H4S      HAL2     0.900000E-01   1.00800           0   0.00000     -0.301140E-02
     19329 MEMB     156      PMPE     C25      CTL2    -0.180000       12.0110           0   0.00000     -0.301140E-02
     19330 MEMB     156      PMPE     H5R      HAL2     0.900000E-01   1.00800           0   0.00000     -0.301140E-02
     19331 MEMB     156      PMPE     H5S      HAL2     0.900000E-01   1.00800           0   0.00000     -0.301140E-02
     19332 MEMB     156      PMPE     C26      CTL2    -0.180000       12.0110           0   0.00000     -0.301140E-02
     19333 MEMB     156      PMPE     H6R      HAL2     0.900000E-01   1.00800           0   0.00000     -0.301140E-02
     19334 MEMB     156      PMPE     H6S      HAL2     0.900000E-01   1.00800           0   0.00000     -0.301140E-02
     19335 MEMB     156      PMPE     C27      CTL2    -0.180000       12.0110           0   0.00000     -0.301140E-02
     19336 MEMB     156      PMPE     H7R      HAL2     0.900000E-01   1.00800           0   0.00000     -0.301140E-02
     19337 MEMB     156      PMPE     H7S      HAL2     0.900000E-01   1.00800           0   0.00000     -0.301140E-02
     19338 MEMB     156      PMPE     C28      CTL2    -0.180000       12.0110           0   0.00000     -0.301140E-02
     19339 MEMB     156      PMPE     H8R      HAL2     0.900000E-01   1.00800           0   0.00000     -0.301140E-02
     19340 MEMB     156      PMPE     H8S      HAL2     0.900000E-01   1.00800           0   0.00000     -0.301140E-02
     19341 MEMB     156      PMPE     C29      CG3RC1  -0.900000E-01   12.0110           0   0.00000     -0.301140E-02
     19342 MEMB     156      PMPE     H9R      HGA1     0.900000E-01   1.00800           0   0.00000     -0.301140E-02
     19343 MEMB     156      PMPE     C217     CG3C31  -0.180000       12.0110           0   0.00000     -0.301140E-02
     19344 MEMB     156      PMPE     H17R     HGA2     0.900000E-01   1.00800           0   0.00000     -0.301140E-02
     19345 MEMB     156      PMPE     H17S     HGA2     0.900000E-01   1.00800           0   0.00000     -0.301140E-02
     19346 MEMB     156      PMPE     C210     CG3RC1  -0.900000E-01   12.0110           0   0.00000     -0.301140E-02
     19347 MEMB     156      PMPE     H10R     HGA1     0.900000E-01   1.00800           0   0.00000     -0.301140E-02
     19348 MEMB     156      PMPE     C211     CTL2    -0.180000       12.0110           0   0.00000     -0.301140E-02
     19349 MEMB     156      PMPE     H11R     HAL2     0.900000E-01   1.00800           0   0.00000     -0.301140E-02
     19350 MEMB     156      PMPE     H11S     HAL2     0.900000E-01   1.00800           0   0.00000     -0.301140E-02
     19351 MEMB     156      PMPE     C212     CTL2    -0.180000       12.0110           0   0.00000     -0.301140E-02
     19352 MEMB     156      PMPE     H12R     HAL2     0.900000E-01   1.00800           0   0.00000     -0.301140E-02
     19353 MEMB     156      PMPE     H12S     HAL2     0.900000E-01   1.00800           0   0.00000     -0.301140E-02
     19354 MEMB     156      PMPE     C213     CTL2    -0.180000       12.0110           0   0.00000     -0.301140E-02
     19355 MEMB     156      PMPE     H13R     HAL2     0.900000E-01   1.00800           0   0.00000     -0.301140E-02
     19356 MEMB     156      PMPE     H13S     HAL2     0.900000E-01   1.00800           0   0.00000     -0.301140E-02
     19357 MEMB     156      PMPE     C214     CTL2    -0.180000       12.0110           0   0.00000     -0.301140E-02
     19358 MEMB     156      PMPE     H14R     HAL2     0.900000E-01   1.00800           0   0.00000     -0.301140E-02
     19359 MEMB     156      PMPE     H14S     HAL2     0.900000E-01   1.00800           0   0.00000     -0.301140E-02
     19360 MEMB     156      PMPE     C215     CTL2    -0.180000       12.0110           0   0.00000     -0.301140E-02
     19361 MEMB     156      PMPE     H15R     HAL2     0.900000E-01   1.00800           0   0.00000     -0.301140E-02
     19362 MEMB     156      PMPE     H15S     HAL2     0.900000E-01   1.00800           0   0.00000     -0.301140E-02
     19363 MEMB     156      PMPE     C216     CTL3    -0.270000       12.0110           0   0.00000     -0.301140E-02
     19364 MEMB     156      PMPE     H16R     HAL3     0.900000E-01   1.00800           0   0.00000     -0.301140E-02
     19365 MEMB     156      PMPE     H16S     HAL3     0.900000E-01   1.00800           0   0.00000     -0.301140E-02
     19366 MEMB     156      PMPE     H16T     HAL3     0.900000E-01   1.00800           0   0.00000     -0.301140E-02
     19367 MEMB     156      PMPE     C33      CTL2    -0.180000       12.0110           0   0.00000     -0.301140E-02
     19368 MEMB     156      PMPE     H3X      HAL2     0.900000E-01   1.00800           0   0.00000     -0.301140E-02
     19369 MEMB     156      PMPE     H3Y      HAL2     0.900000E-01   1.00800           0   0.00000     -0.301140E-02
     19370 MEMB     156      PMPE     C34      CTL2    -0.180000       12.0110           0   0.00000     -0.301140E-02
     19371 MEMB     156      PMPE     H4X      HAL2     0.900000E-01   1.00800           0   0.00000     -0.301140E-02
     19372 MEMB     156      PMPE     H4Y      HAL2     0.900000E-01   1.00800           0   0.00000     -0.301140E-02
     19373 MEMB     156      PMPE     C35      CTL2    -0.180000       12.0110           0   0.00000     -0.301140E-02
     19374 MEMB     156      PMPE     H5X      HAL2     0.900000E-01   1.00800           0   0.00000     -0.301140E-02
     19375 MEMB     156      PMPE     H5Y      HAL2     0.900000E-01   1.00800           0   0.00000     -0.301140E-02
     19376 MEMB     156      PMPE     C36      CTL2    -0.180000       12.0110           0   0.00000     -0.301140E-02
     19377 MEMB     156      PMPE     H6X      HAL2     0.900000E-01   1.00800           0   0.00000     -0.301140E-02
     19378 MEMB     156      PMPE     H6Y      HAL2     0.900000E-01   1.00800           0   0.00000     -0.301140E-02
     19379 MEMB     156      PMPE     C37      CTL2    -0.180000       12.0110           0   0.00000     -0.301140E-02
     19380 MEMB     156      PMPE     H7X      HAL2     0.900000E-01   1.00800           0   0.00000     -0.301140E-02
     19381 MEMB     156      PMPE     H7Y      HAL2     0.900000E-01   1.00800           0   0.00000     -0.301140E-02
     19382 MEMB     156      PMPE     C38      CTL2    -0.180000       12.0110           0   0.00000     -0.301140E-02
     19383 MEMB     156      PMPE     H8X      HAL2     0.900000E-01   1.00800           0   0.00000     -0.301140E-02
     19384 MEMB     156      PMPE     H8Y      HAL2     0.900000E-01   1.00800           0   0.00000     -0.301140E-02
     19385 MEMB     156      PMPE     C39      CTL2    -0.180000       12.0110           0   0.00000     -0.301140E-02
     19386 MEMB     156      PMPE     H9X      HAL2     0.900000E-01   1.00800           0   0.00000     -0.301140E-02
     19387 MEMB     156      PMPE     H9Y      HAL2     0.900000E-01   1.00800           0   0.00000     -0.301140E-02
     19388 MEMB     156      PMPE     C310     CTL2    -0.180000       12.0110           0   0.00000     -0.301140E-02
     19389 MEMB     156      PMPE     H10X     HAL2     0.900000E-01   1.00800           0   0.00000     -0.301140E-02
     19390 MEMB     156      PMPE     H10Y     HAL2     0.900000E-01   1.00800           0   0.00000     -0.301140E-02
     19391 MEMB     156      PMPE     C311     CTL2    -0.180000       12.0110           0   0.00000     -0.301140E-02
     19392 MEMB     156      PMPE     H11X     HAL2     0.900000E-01   1.00800           0   0.00000     -0.301140E-02
     19393 MEMB     156      PMPE     H11Y     HAL2     0.900000E-01   1.00800           0   0.00000     -0.301140E-02
     19394 MEMB     156      PMPE     C312     CTL2    -0.180000       12.0110           0   0.00000     -0.301140E-02
     19395 MEMB     156      PMPE     H12X     HAL2     0.900000E-01   1.00800           0   0.00000     -0.301140E-02
     19396 MEMB     156      PMPE     H12Y     HAL2     0.900000E-01   1.00800           0   0.00000     -0.301140E-02
     19397 MEMB     156      PMPE     C313     CTL2    -0.180000       12.0110           0   0.00000     -0.301140E-02
     19398 MEMB     156      PMPE     H13X     HAL2     0.900000E-01   1.00800           0   0.00000     -0.301140E-02
     19399 MEMB     156      PMPE     H13Y     HAL2     0.900000E-01   1.00800           0   0.00000     -0.301140E-02
     19400 MEMB     156      PMPE     C314     CTL2    -0.180000       12.0110           0   0.00000     -0.301140E-02
     19401 MEMB     156      PMPE     H14X     HAL2     0.900000E-01   1.00800           0   0.00000     -0.301140E-02
     19402 MEMB     156      PMPE     H14Y     HAL2     0.900000E-01   1.00800           0   0.00000     -0.301140E-02
     19403 MEMB     156      PMPE     C315     CTL2    -0.180000       12.0110           0   0.00000     -0.301140E-02
     19404 MEMB     156      PMPE     H15X     HAL2     0.900000E-01   1.00800           0   0.00000     -0.301140E-02
     19405 MEMB     156      PMPE     H15Y     HAL2     0.900000E-01   1.00800           0   0.00000     -0.301140E-02
     19406 MEMB     156      PMPE     C316     CTL3    -0.270000       12.0110           0   0.00000     -0.301140E-02
     19407 MEMB     156      PMPE     H16X     HAL3     0.900000E-01   1.00800           0   0.00000     -0.301140E-02
     19408 MEMB     156      PMPE     H16Y     HAL3     0.900000E-01   1.00800           0   0.00000     -0.301140E-02
     19409 MEMB     156      PMPE     H16Z     HAL3     0.900000E-01   1.00800           0   0.00000     -0.301140E-02
     19410 MEMB     157      PMPE     N        NH3L    -0.300000       14.0070           0   0.00000     -0.301140E-02
     19411 MEMB     157      PMPE     HN1      HCL      0.330000       1.00800           0   0.00000     -0.301140E-02
     19412 MEMB     157      PMPE     HN2      HCL      0.330000       1.00800           0   0.00000     -0.301140E-02
     19413 MEMB     157      PMPE     HN3      HCL      0.330000       1.00800           0   0.00000     -0.301140E-02
     19414 MEMB     157      PMPE     C12      CTL2     0.130000       12.0110           0   0.00000     -0.301140E-02
     19415 MEMB     157      PMPE     H12A     HAL2     0.900000E-01   1.00800           0   0.00000     -0.301140E-02
     19416 MEMB     157      PMPE     H12B     HAL2     0.900000E-01   1.00800           0   0.00000     -0.301140E-02
     19417 MEMB     157      PMPE     C11      CTL2    -0.800000E-01   12.0110           0   0.00000     -0.301140E-02
     19418 MEMB     157      PMPE     H11A     HAL2     0.900000E-01   1.00800           0   0.00000     -0.301140E-02
     19419 MEMB     157      PMPE     H11B     HAL2     0.900000E-01   1.00800           0   0.00000     -0.301140E-02
     19420 MEMB     157      PMPE     P        PL        1.50000       30.9740           0   0.00000     -0.301140E-02
     19421 MEMB     157      PMPE     O13      O2L     -0.780000       15.9994           0   0.00000     -0.301140E-02
     19422 MEMB     157      PMPE     O14      O2L     -0.780000       15.9994           0   0.00000     -0.301140E-02
     19423 MEMB     157      PMPE     O11      OSLP    -0.570000       15.9994           0   0.00000     -0.301140E-02
     19424 MEMB     157      PMPE     O12      OSLP    -0.570000       15.9994           0   0.00000     -0.301140E-02
     19425 MEMB     157      PMPE     C1       CTL2    -0.800000E-01   12.0110           0   0.00000     -0.301140E-02
     19426 MEMB     157      PMPE     HA       HAL2     0.900000E-01   1.00800           0   0.00000     -0.301140E-02
     19427 MEMB     157      PMPE     HB       HAL2     0.900000E-01   1.00800           0   0.00000     -0.301140E-02
     19428 MEMB     157      PMPE     C2       CTL1     0.170000       12.0110           0   0.00000     -0.301140E-02
     19429 MEMB     157      PMPE     HS       HAL1     0.900000E-01   1.00800           0   0.00000     -0.301140E-02
     19430 MEMB     157      PMPE     O21      OSL     -0.490000       15.9994           0   0.00000     -0.301140E-02
     19431 MEMB     157      PMPE     C21      CL       0.900000       12.0110           0   0.00000     -0.301140E-02
     19432 MEMB     157      PMPE     O22      OBL     -0.630000       15.9994           0   0.00000     -0.301140E-02
     19433 MEMB     157      PMPE     C22      CTL2    -0.220000       12.0110           0   0.00000     -0.301140E-02
     19434 MEMB     157      PMPE     H2R      HAL2     0.900000E-01   1.00800           0   0.00000     -0.301140E-02
     19435 MEMB     157      PMPE     H2S      HAL2     0.900000E-01   1.00800           0   0.00000     -0.301140E-02
     19436 MEMB     157      PMPE     C3       CTL2     0.800000E-01   12.0110           0   0.00000     -0.301140E-02
     19437 MEMB     157      PMPE     HX       HAL2     0.900000E-01   1.00800           0   0.00000     -0.301140E-02
     19438 MEMB     157      PMPE     HY       HAL2     0.900000E-01   1.00800           0   0.00000     -0.301140E-02
     19439 MEMB     157      PMPE     O31      OSL     -0.490000       15.9994           0   0.00000     -0.301140E-02
     19440 MEMB     157      PMPE     C31      CL       0.900000       12.0110           0   0.00000     -0.301140E-02
     19441 MEMB     157      PMPE     O32      OBL     -0.630000       15.9994           0   0.00000     -0.301140E-02
     19442 MEMB     157      PMPE     C32      CTL2    -0.220000       12.0110           0   0.00000     -0.301140E-02
     19443 MEMB     157      PMPE     H2X      HAL2     0.900000E-01   1.00800           0   0.00000     -0.301140E-02
     19444 MEMB     157      PMPE     H2Y      HAL2     0.900000E-01   1.00800           0   0.00000     -0.301140E-02
     19445 MEMB     157      PMPE     C23      CTL2    -0.180000       12.0110           0   0.00000     -0.301140E-02
     19446 MEMB     157      PMPE     H3R      HAL2     0.900000E-01   1.00800           0   0.00000     -0.301140E-02
     19447 MEMB     157      PMPE     H3S      HAL2     0.900000E-01   1.00800           0   0.00000     -0.301140E-02
     19448 MEMB     157      PMPE     C24      CTL2    -0.180000       12.0110           0   0.00000     -0.301140E-02
     19449 MEMB     157      PMPE     H4R      HAL2     0.900000E-01   1.00800           0   0.00000     -0.301140E-02
     19450 MEMB     157      PMPE     H4S      HAL2     0.900000E-01   1.00800           0   0.00000     -0.301140E-02
     19451 MEMB     157      PMPE     C25      CTL2    -0.180000       12.0110           0   0.00000     -0.301140E-02
     19452 MEMB     157      PMPE     H5R      HAL2     0.900000E-01   1.00800           0   0.00000     -0.301140E-02
     19453 MEMB     157      PMPE     H5S      HAL2     0.900000E-01   1.00800           0   0.00000     -0.301140E-02
     19454 MEMB     157      PMPE     C26      CTL2    -0.180000       12.0110           0   0.00000     -0.301140E-02
     19455 MEMB     157      PMPE     H6R      HAL2     0.900000E-01   1.00800           0   0.00000     -0.301140E-02
     19456 MEMB     157      PMPE     H6S      HAL2     0.900000E-01   1.00800           0   0.00000     -0.301140E-02
     19457 MEMB     157      PMPE     C27      CTL2    -0.180000       12.0110           0   0.00000     -0.301140E-02
     19458 MEMB     157      PMPE     H7R      HAL2     0.900000E-01   1.00800           0   0.00000     -0.301140E-02
     19459 MEMB     157      PMPE     H7S      HAL2     0.900000E-01   1.00800           0   0.00000     -0.301140E-02
     19460 MEMB     157      PMPE     C28      CTL2    -0.180000       12.0110           0   0.00000     -0.301140E-02
     19461 MEMB     157      PMPE     H8R      HAL2     0.900000E-01   1.00800           0   0.00000     -0.301140E-02
     19462 MEMB     157      PMPE     H8S      HAL2     0.900000E-01   1.00800           0   0.00000     -0.301140E-02
     19463 MEMB     157      PMPE     C29      CG3RC1  -0.900000E-01   12.0110           0   0.00000     -0.301140E-02
     19464 MEMB     157      PMPE     H9R      HGA1     0.900000E-01   1.00800           0   0.00000     -0.301140E-02
     19465 MEMB     157      PMPE     C217     CG3C31  -0.180000       12.0110           0   0.00000     -0.301140E-02
     19466 MEMB     157      PMPE     H17R     HGA2     0.900000E-01   1.00800           0   0.00000     -0.301140E-02
     19467 MEMB     157      PMPE     H17S     HGA2     0.900000E-01   1.00800           0   0.00000     -0.301140E-02
     19468 MEMB     157      PMPE     C210     CG3RC1  -0.900000E-01   12.0110           0   0.00000     -0.301140E-02
     19469 MEMB     157      PMPE     H10R     HGA1     0.900000E-01   1.00800           0   0.00000     -0.301140E-02
     19470 MEMB     157      PMPE     C211     CTL2    -0.180000       12.0110           0   0.00000     -0.301140E-02
     19471 MEMB     157      PMPE     H11R     HAL2     0.900000E-01   1.00800           0   0.00000     -0.301140E-02
     19472 MEMB     157      PMPE     H11S     HAL2     0.900000E-01   1.00800           0   0.00000     -0.301140E-02
     19473 MEMB     157      PMPE     C212     CTL2    -0.180000       12.0110           0   0.00000     -0.301140E-02
     19474 MEMB     157      PMPE     H12R     HAL2     0.900000E-01   1.00800           0   0.00000     -0.301140E-02
     19475 MEMB     157      PMPE     H12S     HAL2     0.900000E-01   1.00800           0   0.00000     -0.301140E-02
     19476 MEMB     157      PMPE     C213     CTL2    -0.180000       12.0110           0   0.00000     -0.301140E-02
     19477 MEMB     157      PMPE     H13R     HAL2     0.900000E-01   1.00800           0   0.00000     -0.301140E-02
     19478 MEMB     157      PMPE     H13S     HAL2     0.900000E-01   1.00800           0   0.00000     -0.301140E-02
     19479 MEMB     157      PMPE     C214     CTL2    -0.180000       12.0110           0   0.00000     -0.301140E-02
     19480 MEMB     157      PMPE     H14R     HAL2     0.900000E-01   1.00800           0   0.00000     -0.301140E-02
     19481 MEMB     157      PMPE     H14S     HAL2     0.900000E-01   1.00800           0   0.00000     -0.301140E-02
     19482 MEMB     157      PMPE     C215     CTL2    -0.180000       12.0110           0   0.00000     -0.301140E-02
     19483 MEMB     157      PMPE     H15R     HAL2     0.900000E-01   1.00800           0   0.00000     -0.301140E-02
     19484 MEMB     157      PMPE     H15S     HAL2     0.900000E-01   1.00800           0   0.00000     -0.301140E-02
     19485 MEMB     157      PMPE     C216     CTL3    -0.270000       12.0110           0   0.00000     -0.301140E-02
     19486 MEMB     157      PMPE     H16R     HAL3     0.900000E-01   1.00800           0   0.00000     -0.301140E-02
     19487 MEMB     157      PMPE     H16S     HAL3     0.900000E-01   1.00800           0   0.00000     -0.301140E-02
     19488 MEMB     157      PMPE     H16T     HAL3     0.900000E-01   1.00800           0   0.00000     -0.301140E-02
     19489 MEMB     157      PMPE     C33      CTL2    -0.180000       12.0110           0   0.00000     -0.301140E-02
     19490 MEMB     157      PMPE     H3X      HAL2     0.900000E-01   1.00800           0   0.00000     -0.301140E-02
     19491 MEMB     157      PMPE     H3Y      HAL2     0.900000E-01   1.00800           0   0.00000     -0.301140E-02
     19492 MEMB     157      PMPE     C34      CTL2    -0.180000       12.0110           0   0.00000     -0.301140E-02
     19493 MEMB     157      PMPE     H4X      HAL2     0.900000E-01   1.00800           0   0.00000     -0.301140E-02
     19494 MEMB     157      PMPE     H4Y      HAL2     0.900000E-01   1.00800           0   0.00000     -0.301140E-02
     19495 MEMB     157      PMPE     C35      CTL2    -0.180000       12.0110           0   0.00000     -0.301140E-02
     19496 MEMB     157      PMPE     H5X      HAL2     0.900000E-01   1.00800           0   0.00000     -0.301140E-02
     19497 MEMB     157      PMPE     H5Y      HAL2     0.900000E-01   1.00800           0   0.00000     -0.301140E-02
     19498 MEMB     157      PMPE     C36      CTL2    -0.180000       12.0110           0   0.00000     -0.301140E-02
     19499 MEMB     157      PMPE     H6X      HAL2     0.900000E-01   1.00800           0   0.00000     -0.301140E-02
     19500 MEMB     157      PMPE     H6Y      HAL2     0.900000E-01   1.00800           0   0.00000     -0.301140E-02
     19501 MEMB     157      PMPE     C37      CTL2    -0.180000       12.0110           0   0.00000     -0.301140E-02
     19502 MEMB     157      PMPE     H7X      HAL2     0.900000E-01   1.00800           0   0.00000     -0.301140E-02
     19503 MEMB     157      PMPE     H7Y      HAL2     0.900000E-01   1.00800           0   0.00000     -0.301140E-02
     19504 MEMB     157      PMPE     C38      CTL2    -0.180000       12.0110           0   0.00000     -0.301140E-02
     19505 MEMB     157      PMPE     H8X      HAL2     0.900000E-01   1.00800           0   0.00000     -0.301140E-02
     19506 MEMB     157      PMPE     H8Y      HAL2     0.900000E-01   1.00800           0   0.00000     -0.301140E-02
     19507 MEMB     157      PMPE     C39      CTL2    -0.180000       12.0110           0   0.00000     -0.301140E-02
     19508 MEMB     157      PMPE     H9X      HAL2     0.900000E-01   1.00800           0   0.00000     -0.301140E-02
     19509 MEMB     157      PMPE     H9Y      HAL2     0.900000E-01   1.00800           0   0.00000     -0.301140E-02
     19510 MEMB     157      PMPE     C310     CTL2    -0.180000       12.0110           0   0.00000     -0.301140E-02
     19511 MEMB     157      PMPE     H10X     HAL2     0.900000E-01   1.00800           0   0.00000     -0.301140E-02
     19512 MEMB     157      PMPE     H10Y     HAL2     0.900000E-01   1.00800           0   0.00000     -0.301140E-02
     19513 MEMB     157      PMPE     C311     CTL2    -0.180000       12.0110           0   0.00000     -0.301140E-02
     19514 MEMB     157      PMPE     H11X     HAL2     0.900000E-01   1.00800           0   0.00000     -0.301140E-02
     19515 MEMB     157      PMPE     H11Y     HAL2     0.900000E-01   1.00800           0   0.00000     -0.301140E-02
     19516 MEMB     157      PMPE     C312     CTL2    -0.180000       12.0110           0   0.00000     -0.301140E-02
     19517 MEMB     157      PMPE     H12X     HAL2     0.900000E-01   1.00800           0   0.00000     -0.301140E-02
     19518 MEMB     157      PMPE     H12Y     HAL2     0.900000E-01   1.00800           0   0.00000     -0.301140E-02
     19519 MEMB     157      PMPE     C313     CTL2    -0.180000       12.0110           0   0.00000     -0.301140E-02
     19520 MEMB     157      PMPE     H13X     HAL2     0.900000E-01   1.00800           0   0.00000     -0.301140E-02
     19521 MEMB     157      PMPE     H13Y     HAL2     0.900000E-01   1.00800           0   0.00000     -0.301140E-02
     19522 MEMB     157      PMPE     C314     CTL2    -0.180000       12.0110           0   0.00000     -0.301140E-02
     19523 MEMB     157      PMPE     H14X     HAL2     0.900000E-01   1.00800           0   0.00000     -0.301140E-02
     19524 MEMB     157      PMPE     H14Y     HAL2     0.900000E-01   1.00800           0   0.00000     -0.301140E-02
     19525 MEMB     157      PMPE     C315     CTL2    -0.180000       12.0110           0   0.00000     -0.301140E-02
     19526 MEMB     157      PMPE     H15X     HAL2     0.900000E-01   1.00800           0   0.00000     -0.301140E-02
     19527 MEMB     157      PMPE     H15Y     HAL2     0.900000E-01   1.00800           0   0.00000     -0.301140E-02
     19528 MEMB     157      PMPE     C316     CTL3    -0.270000       12.0110           0   0.00000     -0.301140E-02
     19529 MEMB     157      PMPE     H16X     HAL3     0.900000E-01   1.00800           0   0.00000     -0.301140E-02
     19530 MEMB     157      PMPE     H16Y     HAL3     0.900000E-01   1.00800           0   0.00000     -0.301140E-02
     19531 MEMB     157      PMPE     H16Z     HAL3     0.900000E-01   1.00800           0   0.00000     -0.301140E-02
     19532 MEMB     158      PMPE     N        NH3L    -0.300000       14.0070           0   0.00000     -0.301140E-02
     19533 MEMB     158      PMPE     HN1      HCL      0.330000       1.00800           0   0.00000     -0.301140E-02
     19534 MEMB     158      PMPE     HN2      HCL      0.330000       1.00800           0   0.00000     -0.301140E-02
     19535 MEMB     158      PMPE     HN3      HCL      0.330000       1.00800           0   0.00000     -0.301140E-02
     19536 MEMB     158      PMPE     C12      CTL2     0.130000       12.0110           0   0.00000     -0.301140E-02
     19537 MEMB     158      PMPE     H12A     HAL2     0.900000E-01   1.00800           0   0.00000     -0.301140E-02
     19538 MEMB     158      PMPE     H12B     HAL2     0.900000E-01   1.00800           0   0.00000     -0.301140E-02
     19539 MEMB     158      PMPE     C11      CTL2    -0.800000E-01   12.0110           0   0.00000     -0.301140E-02
     19540 MEMB     158      PMPE     H11A     HAL2     0.900000E-01   1.00800           0   0.00000     -0.301140E-02
     19541 MEMB     158      PMPE     H11B     HAL2     0.900000E-01   1.00800           0   0.00000     -0.301140E-02
     19542 MEMB     158      PMPE     P        PL        1.50000       30.9740           0   0.00000     -0.301140E-02
     19543 MEMB     158      PMPE     O13      O2L     -0.780000       15.9994           0   0.00000     -0.301140E-02
     19544 MEMB     158      PMPE     O14      O2L     -0.780000       15.9994           0   0.00000     -0.301140E-02
     19545 MEMB     158      PMPE     O11      OSLP    -0.570000       15.9994           0   0.00000     -0.301140E-02
     19546 MEMB     158      PMPE     O12      OSLP    -0.570000       15.9994           0   0.00000     -0.301140E-02
     19547 MEMB     158      PMPE     C1       CTL2    -0.800000E-01   12.0110           0   0.00000     -0.301140E-02
     19548 MEMB     158      PMPE     HA       HAL2     0.900000E-01   1.00800           0   0.00000     -0.301140E-02
     19549 MEMB     158      PMPE     HB       HAL2     0.900000E-01   1.00800           0   0.00000     -0.301140E-02
     19550 MEMB     158      PMPE     C2       CTL1     0.170000       12.0110           0   0.00000     -0.301140E-02
     19551 MEMB     158      PMPE     HS       HAL1     0.900000E-01   1.00800           0   0.00000     -0.301140E-02
     19552 MEMB     158      PMPE     O21      OSL     -0.490000       15.9994           0   0.00000     -0.301140E-02
     19553 MEMB     158      PMPE     C21      CL       0.900000       12.0110           0   0.00000     -0.301140E-02
     19554 MEMB     158      PMPE     O22      OBL     -0.630000       15.9994           0   0.00000     -0.301140E-02
     19555 MEMB     158      PMPE     C22      CTL2    -0.220000       12.0110           0   0.00000     -0.301140E-02
     19556 MEMB     158      PMPE     H2R      HAL2     0.900000E-01   1.00800           0   0.00000     -0.301140E-02
     19557 MEMB     158      PMPE     H2S      HAL2     0.900000E-01   1.00800           0   0.00000     -0.301140E-02
     19558 MEMB     158      PMPE     C3       CTL2     0.800000E-01   12.0110           0   0.00000     -0.301140E-02
     19559 MEMB     158      PMPE     HX       HAL2     0.900000E-01   1.00800           0   0.00000     -0.301140E-02
     19560 MEMB     158      PMPE     HY       HAL2     0.900000E-01   1.00800           0   0.00000     -0.301140E-02
     19561 MEMB     158      PMPE     O31      OSL     -0.490000       15.9994           0   0.00000     -0.301140E-02
     19562 MEMB     158      PMPE     C31      CL       0.900000       12.0110           0   0.00000     -0.301140E-02
     19563 MEMB     158      PMPE     O32      OBL     -0.630000       15.9994           0   0.00000     -0.301140E-02
     19564 MEMB     158      PMPE     C32      CTL2    -0.220000       12.0110           0   0.00000     -0.301140E-02
     19565 MEMB     158      PMPE     H2X      HAL2     0.900000E-01   1.00800           0   0.00000     -0.301140E-02
     19566 MEMB     158      PMPE     H2Y      HAL2     0.900000E-01   1.00800           0   0.00000     -0.301140E-02
     19567 MEMB     158      PMPE     C23      CTL2    -0.180000       12.0110           0   0.00000     -0.301140E-02
     19568 MEMB     158      PMPE     H3R      HAL2     0.900000E-01   1.00800           0   0.00000     -0.301140E-02
     19569 MEMB     158      PMPE     H3S      HAL2     0.900000E-01   1.00800           0   0.00000     -0.301140E-02
     19570 MEMB     158      PMPE     C24      CTL2    -0.180000       12.0110           0   0.00000     -0.301140E-02
     19571 MEMB     158      PMPE     H4R      HAL2     0.900000E-01   1.00800           0   0.00000     -0.301140E-02
     19572 MEMB     158      PMPE     H4S      HAL2     0.900000E-01   1.00800           0   0.00000     -0.301140E-02
     19573 MEMB     158      PMPE     C25      CTL2    -0.180000       12.0110           0   0.00000     -0.301140E-02
     19574 MEMB     158      PMPE     H5R      HAL2     0.900000E-01   1.00800           0   0.00000     -0.301140E-02
     19575 MEMB     158      PMPE     H5S      HAL2     0.900000E-01   1.00800           0   0.00000     -0.301140E-02
     19576 MEMB     158      PMPE     C26      CTL2    -0.180000       12.0110           0   0.00000     -0.301140E-02
     19577 MEMB     158      PMPE     H6R      HAL2     0.900000E-01   1.00800           0   0.00000     -0.301140E-02
     19578 MEMB     158      PMPE     H6S      HAL2     0.900000E-01   1.00800           0   0.00000     -0.301140E-02
     19579 MEMB     158      PMPE     C27      CTL2    -0.180000       12.0110           0   0.00000     -0.301140E-02
     19580 MEMB     158      PMPE     H7R      HAL2     0.900000E-01   1.00800           0   0.00000     -0.301140E-02
     19581 MEMB     158      PMPE     H7S      HAL2     0.900000E-01   1.00800           0   0.00000     -0.301140E-02
     19582 MEMB     158      PMPE     C28      CTL2    -0.180000       12.0110           0   0.00000     -0.301140E-02
     19583 MEMB     158      PMPE     H8R      HAL2     0.900000E-01   1.00800           0   0.00000     -0.301140E-02
     19584 MEMB     158      PMPE     H8S      HAL2     0.900000E-01   1.00800           0   0.00000     -0.301140E-02
     19585 MEMB     158      PMPE     C29      CG3RC1  -0.900000E-01   12.0110           0   0.00000     -0.301140E-02
     19586 MEMB     158      PMPE     H9R      HGA1     0.900000E-01   1.00800           0   0.00000     -0.301140E-02
     19587 MEMB     158      PMPE     C217     CG3C31  -0.180000       12.0110           0   0.00000     -0.301140E-02
     19588 MEMB     158      PMPE     H17R     HGA2     0.900000E-01   1.00800           0   0.00000     -0.301140E-02
     19589 MEMB     158      PMPE     H17S     HGA2     0.900000E-01   1.00800           0   0.00000     -0.301140E-02
     19590 MEMB     158      PMPE     C210     CG3RC1  -0.900000E-01   12.0110           0   0.00000     -0.301140E-02
     19591 MEMB     158      PMPE     H10R     HGA1     0.900000E-01   1.00800           0   0.00000     -0.301140E-02
     19592 MEMB     158      PMPE     C211     CTL2    -0.180000       12.0110           0   0.00000     -0.301140E-02
     19593 MEMB     158      PMPE     H11R     HAL2     0.900000E-01   1.00800           0   0.00000     -0.301140E-02
     19594 MEMB     158      PMPE     H11S     HAL2     0.900000E-01   1.00800           0   0.00000     -0.301140E-02
     19595 MEMB     158      PMPE     C212     CTL2    -0.180000       12.0110           0   0.00000     -0.301140E-02
     19596 MEMB     158      PMPE     H12R     HAL2     0.900000E-01   1.00800           0   0.00000     -0.301140E-02
     19597 MEMB     158      PMPE     H12S     HAL2     0.900000E-01   1.00800           0   0.00000     -0.301140E-02
     19598 MEMB     158      PMPE     C213     CTL2    -0.180000       12.0110           0   0.00000     -0.301140E-02
     19599 MEMB     158      PMPE     H13R     HAL2     0.900000E-01   1.00800           0   0.00000     -0.301140E-02
     19600 MEMB     158      PMPE     H13S     HAL2     0.900000E-01   1.00800           0   0.00000     -0.301140E-02
     19601 MEMB     158      PMPE     C214     CTL2    -0.180000       12.0110           0   0.00000     -0.301140E-02
     19602 MEMB     158      PMPE     H14R     HAL2     0.900000E-01   1.00800           0   0.00000     -0.301140E-02
     19603 MEMB     158      PMPE     H14S     HAL2     0.900000E-01   1.00800           0   0.00000     -0.301140E-02
     19604 MEMB     158      PMPE     C215     CTL2    -0.180000       12.0110           0   0.00000     -0.301140E-02
     19605 MEMB     158      PMPE     H15R     HAL2     0.900000E-01   1.00800           0   0.00000     -0.301140E-02
     19606 MEMB     158      PMPE     H15S     HAL2     0.900000E-01   1.00800           0   0.00000     -0.301140E-02
     19607 MEMB     158      PMPE     C216     CTL3    -0.270000       12.0110           0   0.00000     -0.301140E-02
     19608 MEMB     158      PMPE     H16R     HAL3     0.900000E-01   1.00800           0   0.00000     -0.301140E-02
     19609 MEMB     158      PMPE     H16S     HAL3     0.900000E-01   1.00800           0   0.00000     -0.301140E-02
     19610 MEMB     158      PMPE     H16T     HAL3     0.900000E-01   1.00800           0   0.00000     -0.301140E-02
     19611 MEMB     158      PMPE     C33      CTL2    -0.180000       12.0110           0   0.00000     -0.301140E-02
     19612 MEMB     158      PMPE     H3X      HAL2     0.900000E-01   1.00800           0   0.00000     -0.301140E-02
     19613 MEMB     158      PMPE     H3Y      HAL2     0.900000E-01   1.00800           0   0.00000     -0.301140E-02
     19614 MEMB     158      PMPE     C34      CTL2    -0.180000       12.0110           0   0.00000     -0.301140E-02
     19615 MEMB     158      PMPE     H4X      HAL2     0.900000E-01   1.00800           0   0.00000     -0.301140E-02
     19616 MEMB     158      PMPE     H4Y      HAL2     0.900000E-01   1.00800           0   0.00000     -0.301140E-02
     19617 MEMB     158      PMPE     C35      CTL2    -0.180000       12.0110           0   0.00000     -0.301140E-02
     19618 MEMB     158      PMPE     H5X      HAL2     0.900000E-01   1.00800           0   0.00000     -0.301140E-02
     19619 MEMB     158      PMPE     H5Y      HAL2     0.900000E-01   1.00800           0   0.00000     -0.301140E-02
     19620 MEMB     158      PMPE     C36      CTL2    -0.180000       12.0110           0   0.00000     -0.301140E-02
     19621 MEMB     158      PMPE     H6X      HAL2     0.900000E-01   1.00800           0   0.00000     -0.301140E-02
     19622 MEMB     158      PMPE     H6Y      HAL2     0.900000E-01   1.00800           0   0.00000     -0.301140E-02
     19623 MEMB     158      PMPE     C37      CTL2    -0.180000       12.0110           0   0.00000     -0.301140E-02
     19624 MEMB     158      PMPE     H7X      HAL2     0.900000E-01   1.00800           0   0.00000     -0.301140E-02
     19625 MEMB     158      PMPE     H7Y      HAL2     0.900000E-01   1.00800           0   0.00000     -0.301140E-02
     19626 MEMB     158      PMPE     C38      CTL2    -0.180000       12.0110           0   0.00000     -0.301140E-02
     19627 MEMB     158      PMPE     H8X      HAL2     0.900000E-01   1.00800           0   0.00000     -0.301140E-02
     19628 MEMB     158      PMPE     H8Y      HAL2     0.900000E-01   1.00800           0   0.00000     -0.301140E-02
     19629 MEMB     158      PMPE     C39      CTL2    -0.180000       12.0110           0   0.00000     -0.301140E-02
     19630 MEMB     158      PMPE     H9X      HAL2     0.900000E-01   1.00800           0   0.00000     -0.301140E-02
     19631 MEMB     158      PMPE     H9Y      HAL2     0.900000E-01   1.00800           0   0.00000     -0.301140E-02
     19632 MEMB     158      PMPE     C310     CTL2    -0.180000       12.0110           0   0.00000     -0.301140E-02
     19633 MEMB     158      PMPE     H10X     HAL2     0.900000E-01   1.00800           0   0.00000     -0.301140E-02
     19634 MEMB     158      PMPE     H10Y     HAL2     0.900000E-01   1.00800           0   0.00000     -0.301140E-02
     19635 MEMB     158      PMPE     C311     CTL2    -0.180000       12.0110           0   0.00000     -0.301140E-02
     19636 MEMB     158      PMPE     H11X     HAL2     0.900000E-01   1.00800           0   0.00000     -0.301140E-02
     19637 MEMB     158      PMPE     H11Y     HAL2     0.900000E-01   1.00800           0   0.00000     -0.301140E-02
     19638 MEMB     158      PMPE     C312     CTL2    -0.180000       12.0110           0   0.00000     -0.301140E-02
     19639 MEMB     158      PMPE     H12X     HAL2     0.900000E-01   1.00800           0   0.00000     -0.301140E-02
     19640 MEMB     158      PMPE     H12Y     HAL2     0.900000E-01   1.00800           0   0.00000     -0.301140E-02
     19641 MEMB     158      PMPE     C313     CTL2    -0.180000       12.0110           0   0.00000     -0.301140E-02
     19642 MEMB     158      PMPE     H13X     HAL2     0.900000E-01   1.00800           0   0.00000     -0.301140E-02
     19643 MEMB     158      PMPE     H13Y     HAL2     0.900000E-01   1.00800           0   0.00000     -0.301140E-02
     19644 MEMB     158      PMPE     C314     CTL2    -0.180000       12.0110           0   0.00000     -0.301140E-02
     19645 MEMB     158      PMPE     H14X     HAL2     0.900000E-01   1.00800           0   0.00000     -0.301140E-02
     19646 MEMB     158      PMPE     H14Y     HAL2     0.900000E-01   1.00800           0   0.00000     -0.301140E-02
     19647 MEMB     158      PMPE     C315     CTL2    -0.180000       12.0110           0   0.00000     -0.301140E-02
     19648 MEMB     158      PMPE     H15X     HAL2     0.900000E-01   1.00800           0   0.00000     -0.301140E-02
     19649 MEMB     158      PMPE     H15Y     HAL2     0.900000E-01   1.00800           0   0.00000     -0.301140E-02
     19650 MEMB     158      PMPE     C316     CTL3    -0.270000       12.0110           0   0.00000     -0.301140E-02
     19651 MEMB     158      PMPE     H16X     HAL3     0.900000E-01   1.00800           0   0.00000     -0.301140E-02
     19652 MEMB     158      PMPE     H16Y     HAL3     0.900000E-01   1.00800           0   0.00000     -0.301140E-02
     19653 MEMB     158      PMPE     H16Z     HAL3     0.900000E-01   1.00800           0   0.00000     -0.301140E-02
     19654 MEMB     159      PMPG     C13      CTL2     0.500000E-01   12.0110           0   0.00000     -0.301140E-02
     19655 MEMB     159      PMPG     H13A     HAL2     0.900000E-01   1.00800           0   0.00000     -0.301140E-02
     19656 MEMB     159      PMPG     H13B     HAL2     0.900000E-01   1.00800           0   0.00000     -0.301140E-02
     19657 MEMB     159      PMPG     OC3      OHL     -0.660000       15.9994           0   0.00000     -0.301140E-02
     19658 MEMB     159      PMPG     HO3      HOL      0.430000       1.00800           0   0.00000     -0.301140E-02
     19659 MEMB     159      PMPG     C12      CTL1     0.140000       12.0110           0   0.00000     -0.301140E-02
     19660 MEMB     159      PMPG     H12A     HAL1     0.900000E-01   1.00800           0   0.00000     -0.301140E-02
     19661 MEMB     159      PMPG     OC2      OHL     -0.660000       15.9994           0   0.00000     -0.301140E-02
     19662 MEMB     159      PMPG     HO2      HOL      0.430000       1.00800           0   0.00000     -0.301140E-02
     19663 MEMB     159      PMPG     C11      CTL2    -0.800000E-01   12.0110           0   0.00000     -0.301140E-02
     19664 MEMB     159      PMPG     H11A     HAL2     0.900000E-01   1.00800           0   0.00000     -0.301140E-02
     19665 MEMB     159      PMPG     H11B     HAL2     0.900000E-01   1.00800           0   0.00000     -0.301140E-02
     19666 MEMB     159      PMPG     P        PL        1.50000       30.9740           0   0.00000     -0.301140E-02
     19667 MEMB     159      PMPG     O13      O2L     -0.780000       15.9994           0   0.00000     -0.301140E-02
     19668 MEMB     159      PMPG     O14      O2L     -0.780000       15.9994           0   0.00000     -0.301140E-02
     19669 MEMB     159      PMPG     O11      OSLP    -0.570000       15.9994           0   0.00000     -0.301140E-02
     19670 MEMB     159      PMPG     O12      OSLP    -0.570000       15.9994           0   0.00000     -0.301140E-02
     19671 MEMB     159      PMPG     C1       CTL2    -0.800000E-01   12.0110           0   0.00000     -0.301140E-02
     19672 MEMB     159      PMPG     HA       HAL2     0.900000E-01   1.00800           0   0.00000     -0.301140E-02
     19673 MEMB     159      PMPG     HB       HAL2     0.900000E-01   1.00800           0   0.00000     -0.301140E-02
     19674 MEMB     159      PMPG     C2       CTL1     0.170000       12.0110           0   0.00000     -0.301140E-02
     19675 MEMB     159      PMPG     HS       HAL1     0.900000E-01   1.00800           0   0.00000     -0.301140E-02
     19676 MEMB     159      PMPG     O21      OSL     -0.490000       15.9994           0   0.00000     -0.301140E-02
     19677 MEMB     159      PMPG     C21      CL       0.900000       12.0110           0   0.00000     -0.301140E-02
     19678 MEMB     159      PMPG     O22      OBL     -0.630000       15.9994           0   0.00000     -0.301140E-02
     19679 MEMB     159      PMPG     C22      CTL2    -0.220000       12.0110           0   0.00000     -0.301140E-02
     19680 MEMB     159      PMPG     H2R      HAL2     0.900000E-01   1.00800           0   0.00000     -0.301140E-02
     19681 MEMB     159      PMPG     H2S      HAL2     0.900000E-01   1.00800           0   0.00000     -0.301140E-02
     19682 MEMB     159      PMPG     C3       CTL2     0.800000E-01   12.0110           0   0.00000     -0.301140E-02
     19683 MEMB     159      PMPG     HX       HAL2     0.900000E-01   1.00800           0   0.00000     -0.301140E-02
     19684 MEMB     159      PMPG     HY       HAL2     0.900000E-01   1.00800           0   0.00000     -0.301140E-02
     19685 MEMB     159      PMPG     O31      OSL     -0.490000       15.9994           0   0.00000     -0.301140E-02
     19686 MEMB     159      PMPG     C31      CL       0.900000       12.0110           0   0.00000     -0.301140E-02
     19687 MEMB     159      PMPG     O32      OBL     -0.630000       15.9994           0   0.00000     -0.301140E-02
     19688 MEMB     159      PMPG     C32      CTL2    -0.220000       12.0110           0   0.00000     -0.301140E-02
     19689 MEMB     159      PMPG     H2X      HAL2     0.900000E-01   1.00800           0   0.00000     -0.301140E-02
     19690 MEMB     159      PMPG     H2Y      HAL2     0.900000E-01   1.00800           0   0.00000     -0.301140E-02
     19691 MEMB     159      PMPG     C23      CTL2    -0.180000       12.0110           0   0.00000     -0.301140E-02
     19692 MEMB     159      PMPG     H3R      HAL2     0.900000E-01   1.00800           0   0.00000     -0.301140E-02
     19693 MEMB     159      PMPG     H3S      HAL2     0.900000E-01   1.00800           0   0.00000     -0.301140E-02
     19694 MEMB     159      PMPG     C24      CTL2    -0.180000       12.0110           0   0.00000     -0.301140E-02
     19695 MEMB     159      PMPG     H4R      HAL2     0.900000E-01   1.00800           0   0.00000     -0.301140E-02
     19696 MEMB     159      PMPG     H4S      HAL2     0.900000E-01   1.00800           0   0.00000     -0.301140E-02
     19697 MEMB     159      PMPG     C25      CTL2    -0.180000       12.0110           0   0.00000     -0.301140E-02
     19698 MEMB     159      PMPG     H5R      HAL2     0.900000E-01   1.00800           0   0.00000     -0.301140E-02
     19699 MEMB     159      PMPG     H5S      HAL2     0.900000E-01   1.00800           0   0.00000     -0.301140E-02
     19700 MEMB     159      PMPG     C26      CTL2    -0.180000       12.0110           0   0.00000     -0.301140E-02
     19701 MEMB     159      PMPG     H6R      HAL2     0.900000E-01   1.00800           0   0.00000     -0.301140E-02
     19702 MEMB     159      PMPG     H6S      HAL2     0.900000E-01   1.00800           0   0.00000     -0.301140E-02
     19703 MEMB     159      PMPG     C27      CTL2    -0.180000       12.0110           0   0.00000     -0.301140E-02
     19704 MEMB     159      PMPG     H7R      HAL2     0.900000E-01   1.00800           0   0.00000     -0.301140E-02
     19705 MEMB     159      PMPG     H7S      HAL2     0.900000E-01   1.00800           0   0.00000     -0.301140E-02
     19706 MEMB     159      PMPG     C28      CTL2    -0.180000       12.0110           0   0.00000     -0.301140E-02
     19707 MEMB     159      PMPG     H8R      HAL2     0.900000E-01   1.00800           0   0.00000     -0.301140E-02
     19708 MEMB     159      PMPG     H8S      HAL2     0.900000E-01   1.00800           0   0.00000     -0.301140E-02
     19709 MEMB     159      PMPG     C29      CG3RC1  -0.900000E-01   12.0110           0   0.00000     -0.301140E-02
     19710 MEMB     159      PMPG     H9R      HGA1     0.900000E-01   1.00800           0   0.00000     -0.301140E-02
     19711 MEMB     159      PMPG     C217     CG3C31  -0.180000       12.0110           0   0.00000     -0.301140E-02
     19712 MEMB     159      PMPG     H17R     HGA2     0.900000E-01   1.00800           0   0.00000     -0.301140E-02
     19713 MEMB     159      PMPG     H17S     HGA2     0.900000E-01   1.00800           0   0.00000     -0.301140E-02
     19714 MEMB     159      PMPG     C210     CG3RC1  -0.900000E-01   12.0110           0   0.00000     -0.301140E-02
     19715 MEMB     159      PMPG     H10R     HGA1     0.900000E-01   1.00800           0   0.00000     -0.301140E-02
     19716 MEMB     159      PMPG     C211     CTL2    -0.180000       12.0110           0   0.00000     -0.301140E-02
     19717 MEMB     159      PMPG     H11R     HAL2     0.900000E-01   1.00800           0   0.00000     -0.301140E-02
     19718 MEMB     159      PMPG     H11S     HAL2     0.900000E-01   1.00800           0   0.00000     -0.301140E-02
     19719 MEMB     159      PMPG     C212     CTL2    -0.180000       12.0110           0   0.00000     -0.301140E-02
     19720 MEMB     159      PMPG     H12R     HAL2     0.900000E-01   1.00800           0   0.00000     -0.301140E-02
     19721 MEMB     159      PMPG     H12S     HAL2     0.900000E-01   1.00800           0   0.00000     -0.301140E-02
     19722 MEMB     159      PMPG     C213     CTL2    -0.180000       12.0110           0   0.00000     -0.301140E-02
     19723 MEMB     159      PMPG     H13R     HAL2     0.900000E-01   1.00800           0   0.00000     -0.301140E-02
     19724 MEMB     159      PMPG     H13S     HAL2     0.900000E-01   1.00800           0   0.00000     -0.301140E-02
     19725 MEMB     159      PMPG     C214     CTL2    -0.180000       12.0110           0   0.00000     -0.301140E-02
     19726 MEMB     159      PMPG     H14R     HAL2     0.900000E-01   1.00800           0   0.00000     -0.301140E-02
     19727 MEMB     159      PMPG     H14S     HAL2     0.900000E-01   1.00800           0   0.00000     -0.301140E-02
     19728 MEMB     159      PMPG     C215     CTL2    -0.180000       12.0110           0   0.00000     -0.301140E-02
     19729 MEMB     159      PMPG     H15R     HAL2     0.900000E-01   1.00800           0   0.00000     -0.301140E-02
     19730 MEMB     159      PMPG     H15S     HAL2     0.900000E-01   1.00800           0   0.00000     -0.301140E-02
     19731 MEMB     159      PMPG     C216     CTL3    -0.270000       12.0110           0   0.00000     -0.301140E-02
     19732 MEMB     159      PMPG     H16R     HAL3     0.900000E-01   1.00800           0   0.00000     -0.301140E-02
     19733 MEMB     159      PMPG     H16S     HAL3     0.900000E-01   1.00800           0   0.00000     -0.301140E-02
     19734 MEMB     159      PMPG     H16T     HAL3     0.900000E-01   1.00800           0   0.00000     -0.301140E-02
     19735 MEMB     159      PMPG     C33      CTL2    -0.180000       12.0110           0   0.00000     -0.301140E-02
     19736 MEMB     159      PMPG     H3X      HAL2     0.900000E-01   1.00800           0   0.00000     -0.301140E-02
     19737 MEMB     159      PMPG     H3Y      HAL2     0.900000E-01   1.00800           0   0.00000     -0.301140E-02
     19738 MEMB     159      PMPG     C34      CTL2    -0.180000       12.0110           0   0.00000     -0.301140E-02
     19739 MEMB     159      PMPG     H4X      HAL2     0.900000E-01   1.00800           0   0.00000     -0.301140E-02
     19740 MEMB     159      PMPG     H4Y      HAL2     0.900000E-01   1.00800           0   0.00000     -0.301140E-02
     19741 MEMB     159      PMPG     C35      CTL2    -0.180000       12.0110           0   0.00000     -0.301140E-02
     19742 MEMB     159      PMPG     H5X      HAL2     0.900000E-01   1.00800           0   0.00000     -0.301140E-02
     19743 MEMB     159      PMPG     H5Y      HAL2     0.900000E-01   1.00800           0   0.00000     -0.301140E-02
     19744 MEMB     159      PMPG     C36      CTL2    -0.180000       12.0110           0   0.00000     -0.301140E-02
     19745 MEMB     159      PMPG     H6X      HAL2     0.900000E-01   1.00800           0   0.00000     -0.301140E-02
     19746 MEMB     159      PMPG     H6Y      HAL2     0.900000E-01   1.00800           0   0.00000     -0.301140E-02
     19747 MEMB     159      PMPG     C37      CTL2    -0.180000       12.0110           0   0.00000     -0.301140E-02
     19748 MEMB     159      PMPG     H7X      HAL2     0.900000E-01   1.00800           0   0.00000     -0.301140E-02
     19749 MEMB     159      PMPG     H7Y      HAL2     0.900000E-01   1.00800           0   0.00000     -0.301140E-02
     19750 MEMB     159      PMPG     C38      CTL2    -0.180000       12.0110           0   0.00000     -0.301140E-02
     19751 MEMB     159      PMPG     H8X      HAL2     0.900000E-01   1.00800           0   0.00000     -0.301140E-02
     19752 MEMB     159      PMPG     H8Y      HAL2     0.900000E-01   1.00800           0   0.00000     -0.301140E-02
     19753 MEMB     159      PMPG     C39      CTL2    -0.180000       12.0110           0   0.00000     -0.301140E-02
     19754 MEMB     159      PMPG     H9X      HAL2     0.900000E-01   1.00800           0   0.00000     -0.301140E-02
     19755 MEMB     159      PMPG     H9Y      HAL2     0.900000E-01   1.00800           0   0.00000     -0.301140E-02
     19756 MEMB     159      PMPG     C310     CTL2    -0.180000       12.0110           0   0.00000     -0.301140E-02
     19757 MEMB     159      PMPG     H10X     HAL2     0.900000E-01   1.00800           0   0.00000     -0.301140E-02
     19758 MEMB     159      PMPG     H10Y     HAL2     0.900000E-01   1.00800           0   0.00000     -0.301140E-02
     19759 MEMB     159      PMPG     C311     CTL2    -0.180000       12.0110           0   0.00000     -0.301140E-02
     19760 MEMB     159      PMPG     H11X     HAL2     0.900000E-01   1.00800           0   0.00000     -0.301140E-02
     19761 MEMB     159      PMPG     H11Y     HAL2     0.900000E-01   1.00800           0   0.00000     -0.301140E-02
     19762 MEMB     159      PMPG     C312     CTL2    -0.180000       12.0110           0   0.00000     -0.301140E-02
     19763 MEMB     159      PMPG     H12X     HAL2     0.900000E-01   1.00800           0   0.00000     -0.301140E-02
     19764 MEMB     159      PMPG     H12Y     HAL2     0.900000E-01   1.00800           0   0.00000     -0.301140E-02
     19765 MEMB     159      PMPG     C313     CTL2    -0.180000       12.0110           0   0.00000     -0.301140E-02
     19766 MEMB     159      PMPG     H13X     HAL2     0.900000E-01   1.00800           0   0.00000     -0.301140E-02
     19767 MEMB     159      PMPG     H13Y     HAL2     0.900000E-01   1.00800           0   0.00000     -0.301140E-02
     19768 MEMB     159      PMPG     C314     CTL2    -0.180000       12.0110           0   0.00000     -0.301140E-02
     19769 MEMB     159      PMPG     H14X     HAL2     0.900000E-01   1.00800           0   0.00000     -0.301140E-02
     19770 MEMB     159      PMPG     H14Y     HAL2     0.900000E-01   1.00800           0   0.00000     -0.301140E-02
     19771 MEMB     159      PMPG     C315     CTL2    -0.180000       12.0110           0   0.00000     -0.301140E-02
     19772 MEMB     159      PMPG     H15X     HAL2     0.900000E-01   1.00800           0   0.00000     -0.301140E-02
     19773 MEMB     159      PMPG     H15Y     HAL2     0.900000E-01   1.00800           0   0.00000     -0.301140E-02
     19774 MEMB     159      PMPG     C316     CTL3    -0.270000       12.0110           0   0.00000     -0.301140E-02
     19775 MEMB     159      PMPG     H16X     HAL3     0.900000E-01   1.00800           0   0.00000     -0.301140E-02
     19776 MEMB     159      PMPG     H16Y     HAL3     0.900000E-01   1.00800           0   0.00000     -0.301140E-02
     19777 MEMB     159      PMPG     H16Z     HAL3     0.900000E-01   1.00800           0   0.00000     -0.301140E-02
     19778 MEMB     160      OYPE     N        NH3L    -0.300000       14.0070           0   0.00000     -0.301140E-02
     19779 MEMB     160      OYPE     HN1      HCL      0.330000       1.00800           0   0.00000     -0.301140E-02
     19780 MEMB     160      OYPE     HN2      HCL      0.330000       1.00800           0   0.00000     -0.301140E-02
     19781 MEMB     160      OYPE     HN3      HCL      0.330000       1.00800           0   0.00000     -0.301140E-02
     19782 MEMB     160      OYPE     C12      CTL2     0.130000       12.0110           0   0.00000     -0.301140E-02
     19783 MEMB     160      OYPE     H12A     HAL2     0.900000E-01   1.00800           0   0.00000     -0.301140E-02
     19784 MEMB     160      OYPE     H12B     HAL2     0.900000E-01   1.00800           0   0.00000     -0.301140E-02
     19785 MEMB     160      OYPE     C11      CTL2    -0.800000E-01   12.0110           0   0.00000     -0.301140E-02
     19786 MEMB     160      OYPE     H11A     HAL2     0.900000E-01   1.00800           0   0.00000     -0.301140E-02
     19787 MEMB     160      OYPE     H11B     HAL2     0.900000E-01   1.00800           0   0.00000     -0.301140E-02
     19788 MEMB     160      OYPE     P        PL        1.50000       30.9740           0   0.00000     -0.301140E-02
     19789 MEMB     160      OYPE     O13      O2L     -0.780000       15.9994           0   0.00000     -0.301140E-02
     19790 MEMB     160      OYPE     O14      O2L     -0.780000       15.9994           0   0.00000     -0.301140E-02
     19791 MEMB     160      OYPE     O11      OSLP    -0.570000       15.9994           0   0.00000     -0.301140E-02
     19792 MEMB     160      OYPE     O12      OSLP    -0.570000       15.9994           0   0.00000     -0.301140E-02
     19793 MEMB     160      OYPE     C1       CTL2    -0.800000E-01   12.0110           0   0.00000     -0.301140E-02
     19794 MEMB     160      OYPE     HA       HAL2     0.900000E-01   1.00800           0   0.00000     -0.301140E-02
     19795 MEMB     160      OYPE     HB       HAL2     0.900000E-01   1.00800           0   0.00000     -0.301140E-02
     19796 MEMB     160      OYPE     C2       CTL1     0.170000       12.0110           0   0.00000     -0.301140E-02
     19797 MEMB     160      OYPE     HS       HAL1     0.900000E-01   1.00800           0   0.00000     -0.301140E-02
     19798 MEMB     160      OYPE     O21      OSL     -0.490000       15.9994           0   0.00000     -0.301140E-02
     19799 MEMB     160      OYPE     C21      CL       0.900000       12.0110           0   0.00000     -0.301140E-02
     19800 MEMB     160      OYPE     O22      OBL     -0.630000       15.9994           0   0.00000     -0.301140E-02
     19801 MEMB     160      OYPE     C22      CTL2    -0.220000       12.0110           0   0.00000     -0.301140E-02
     19802 MEMB     160      OYPE     H2R      HAL2     0.900000E-01   1.00800           0   0.00000     -0.301140E-02
     19803 MEMB     160      OYPE     H2S      HAL2     0.900000E-01   1.00800           0   0.00000     -0.301140E-02
     19804 MEMB     160      OYPE     C3       CTL2     0.800000E-01   12.0110           0   0.00000     -0.301140E-02
     19805 MEMB     160      OYPE     HX       HAL2     0.900000E-01   1.00800           0   0.00000     -0.301140E-02
     19806 MEMB     160      OYPE     HY       HAL2     0.900000E-01   1.00800           0   0.00000     -0.301140E-02
     19807 MEMB     160      OYPE     O31      OSL     -0.490000       15.9994           0   0.00000     -0.301140E-02
     19808 MEMB     160      OYPE     C31      CL       0.900000       12.0110           0   0.00000     -0.301140E-02
     19809 MEMB     160      OYPE     O32      OBL     -0.630000       15.9994           0   0.00000     -0.301140E-02
     19810 MEMB     160      OYPE     C32      CTL2    -0.220000       12.0110           0   0.00000     -0.301140E-02
     19811 MEMB     160      OYPE     H2X      HAL2     0.900000E-01   1.00800           0   0.00000     -0.301140E-02
     19812 MEMB     160      OYPE     H2Y      HAL2     0.900000E-01   1.00800           0   0.00000     -0.301140E-02
     19813 MEMB     160      OYPE     C23      CTL2    -0.180000       12.0110           0   0.00000     -0.301140E-02
     19814 MEMB     160      OYPE     H3R      HAL2     0.900000E-01   1.00800           0   0.00000     -0.301140E-02
     19815 MEMB     160      OYPE     H3S      HAL2     0.900000E-01   1.00800           0   0.00000     -0.301140E-02
     19816 MEMB     160      OYPE     C24      CTL2    -0.180000       12.0110           0   0.00000     -0.301140E-02
     19817 MEMB     160      OYPE     H4R      HAL2     0.900000E-01   1.00800           0   0.00000     -0.301140E-02
     19818 MEMB     160      OYPE     H4S      HAL2     0.900000E-01   1.00800           0   0.00000     -0.301140E-02
     19819 MEMB     160      OYPE     C25      CTL2    -0.180000       12.0110           0   0.00000     -0.301140E-02
     19820 MEMB     160      OYPE     H5R      HAL2     0.900000E-01   1.00800           0   0.00000     -0.301140E-02
     19821 MEMB     160      OYPE     H5S      HAL2     0.900000E-01   1.00800           0   0.00000     -0.301140E-02
     19822 MEMB     160      OYPE     C26      CTL2    -0.180000       12.0110           0   0.00000     -0.301140E-02
     19823 MEMB     160      OYPE     H6R      HAL2     0.900000E-01   1.00800           0   0.00000     -0.301140E-02
     19824 MEMB     160      OYPE     H6S      HAL2     0.900000E-01   1.00800           0   0.00000     -0.301140E-02
     19825 MEMB     160      OYPE     C27      CTL2    -0.180000       12.0110           0   0.00000     -0.301140E-02
     19826 MEMB     160      OYPE     H7R      HAL2     0.900000E-01   1.00800           0   0.00000     -0.301140E-02
     19827 MEMB     160      OYPE     H7S      HAL2     0.900000E-01   1.00800           0   0.00000     -0.301140E-02
     19828 MEMB     160      OYPE     C28      CTL2    -0.180000       12.0110           0   0.00000     -0.301140E-02
     19829 MEMB     160      OYPE     H8R      HAL2     0.900000E-01   1.00800           0   0.00000     -0.301140E-02
     19830 MEMB     160      OYPE     H8S      HAL2     0.900000E-01   1.00800           0   0.00000     -0.301140E-02
     19831 MEMB     160      OYPE     C29      CEL1    -0.150000       12.0110           0   0.00000     -0.301140E-02
     19832 MEMB     160      OYPE     H9R      HEL1     0.150000       1.00800           0   0.00000     -0.301140E-02
     19833 MEMB     160      OYPE     C210     CEL1    -0.150000       12.0110           0   0.00000     -0.301140E-02
     19834 MEMB     160      OYPE     H10R     HEL1     0.150000       1.00800           0   0.00000     -0.301140E-02
     19835 MEMB     160      OYPE     C211     CTL2    -0.180000       12.0110           0   0.00000     -0.301140E-02
     19836 MEMB     160      OYPE     H11R     HAL2     0.900000E-01   1.00800           0   0.00000     -0.301140E-02
     19837 MEMB     160      OYPE     H11S     HAL2     0.900000E-01   1.00800           0   0.00000     -0.301140E-02
     19838 MEMB     160      OYPE     C212     CTL2    -0.180000       12.0110           0   0.00000     -0.301140E-02
     19839 MEMB     160      OYPE     H12R     HAL2     0.900000E-01   1.00800           0   0.00000     -0.301140E-02
     19840 MEMB     160      OYPE     H12S     HAL2     0.900000E-01   1.00800           0   0.00000     -0.301140E-02
     19841 MEMB     160      OYPE     C213     CTL2    -0.180000       12.0110           0   0.00000     -0.301140E-02
     19842 MEMB     160      OYPE     H13R     HAL2     0.900000E-01   1.00800           0   0.00000     -0.301140E-02
     19843 MEMB     160      OYPE     H13S     HAL2     0.900000E-01   1.00800           0   0.00000     -0.301140E-02
     19844 MEMB     160      OYPE     C214     CTL2    -0.180000       12.0110           0   0.00000     -0.301140E-02
     19845 MEMB     160      OYPE     H14R     HAL2     0.900000E-01   1.00800           0   0.00000     -0.301140E-02
     19846 MEMB     160      OYPE     H14S     HAL2     0.900000E-01   1.00800           0   0.00000     -0.301140E-02
     19847 MEMB     160      OYPE     C215     CTL2    -0.180000       12.0110           0   0.00000     -0.301140E-02
     19848 MEMB     160      OYPE     H15R     HAL2     0.900000E-01   1.00800           0   0.00000     -0.301140E-02
     19849 MEMB     160      OYPE     H15S     HAL2     0.900000E-01   1.00800           0   0.00000     -0.301140E-02
     19850 MEMB     160      OYPE     C216     CTL3    -0.270000       12.0110           0   0.00000     -0.301140E-02
     19851 MEMB     160      OYPE     H16R     HAL3     0.900000E-01   1.00800           0   0.00000     -0.301140E-02
     19852 MEMB     160      OYPE     H16S     HAL3     0.900000E-01   1.00800           0   0.00000     -0.301140E-02
     19853 MEMB     160      OYPE     H16T     HAL3     0.900000E-01   1.00800           0   0.00000     -0.301140E-02
     19854 MEMB     160      OYPE     C33      CTL2    -0.180000       12.0110           0   0.00000     -0.301140E-02
     19855 MEMB     160      OYPE     H3X      HAL2     0.900000E-01   1.00800           0   0.00000     -0.301140E-02
     19856 MEMB     160      OYPE     H3Y      HAL2     0.900000E-01   1.00800           0   0.00000     -0.301140E-02
     19857 MEMB     160      OYPE     C34      CTL2    -0.180000       12.0110           0   0.00000     -0.301140E-02
     19858 MEMB     160      OYPE     H4X      HAL2     0.900000E-01   1.00800           0   0.00000     -0.301140E-02
     19859 MEMB     160      OYPE     H4Y      HAL2     0.900000E-01   1.00800           0   0.00000     -0.301140E-02
     19860 MEMB     160      OYPE     C35      CTL2    -0.180000       12.0110           0   0.00000     -0.301140E-02
     19861 MEMB     160      OYPE     H5X      HAL2     0.900000E-01   1.00800           0   0.00000     -0.301140E-02
     19862 MEMB     160      OYPE     H5Y      HAL2     0.900000E-01   1.00800           0   0.00000     -0.301140E-02
     19863 MEMB     160      OYPE     C36      CTL2    -0.180000       12.0110           0   0.00000     -0.301140E-02
     19864 MEMB     160      OYPE     H6X      HAL2     0.900000E-01   1.00800           0   0.00000     -0.301140E-02
     19865 MEMB     160      OYPE     H6Y      HAL2     0.900000E-01   1.00800           0   0.00000     -0.301140E-02
     19866 MEMB     160      OYPE     C37      CTL2    -0.180000       12.0110           0   0.00000     -0.301140E-02
     19867 MEMB     160      OYPE     H7X      HAL2     0.900000E-01   1.00800           0   0.00000     -0.301140E-02
     19868 MEMB     160      OYPE     H7Y      HAL2     0.900000E-01   1.00800           0   0.00000     -0.301140E-02
     19869 MEMB     160      OYPE     C38      CTL2    -0.180000       12.0110           0   0.00000     -0.301140E-02
     19870 MEMB     160      OYPE     H8X      HAL2     0.900000E-01   1.00800           0   0.00000     -0.301140E-02
     19871 MEMB     160      OYPE     H8Y      HAL2     0.900000E-01   1.00800           0   0.00000     -0.301140E-02
     19872 MEMB     160      OYPE     C39      CEL1    -0.150000       12.0110           0   0.00000     -0.301140E-02
     19873 MEMB     160      OYPE     H9X      HEL1     0.150000       1.00800           0   0.00000     -0.301140E-02
     19874 MEMB     160      OYPE     C310     CEL1    -0.150000       12.0110           0   0.00000     -0.301140E-02
     19875 MEMB     160      OYPE     H10X     HEL1     0.150000       1.00800           0   0.00000     -0.301140E-02
     19876 MEMB     160      OYPE     C311     CTL2    -0.180000       12.0110           0   0.00000     -0.301140E-02
     19877 MEMB     160      OYPE     H11X     HAL2     0.900000E-01   1.00800           0   0.00000     -0.301140E-02
     19878 MEMB     160      OYPE     H11Y     HAL2     0.900000E-01   1.00800           0   0.00000     -0.301140E-02
     19879 MEMB     160      OYPE     C312     CTL2    -0.180000       12.0110           0   0.00000     -0.301140E-02
     19880 MEMB     160      OYPE     H12X     HAL2     0.900000E-01   1.00800           0   0.00000     -0.301140E-02
     19881 MEMB     160      OYPE     H12Y     HAL2     0.900000E-01   1.00800           0   0.00000     -0.301140E-02
     19882 MEMB     160      OYPE     C313     CTL2    -0.180000       12.0110           0   0.00000     -0.301140E-02
     19883 MEMB     160      OYPE     H13X     HAL2     0.900000E-01   1.00800           0   0.00000     -0.301140E-02
     19884 MEMB     160      OYPE     H13Y     HAL2     0.900000E-01   1.00800           0   0.00000     -0.301140E-02
     19885 MEMB     160      OYPE     C314     CTL2    -0.180000       12.0110           0   0.00000     -0.301140E-02
     19886 MEMB     160      OYPE     H14X     HAL2     0.900000E-01   1.00800           0   0.00000     -0.301140E-02
     19887 MEMB     160      OYPE     H14Y     HAL2     0.900000E-01   1.00800           0   0.00000     -0.301140E-02
     19888 MEMB     160      OYPE     C315     CTL2    -0.180000       12.0110           0   0.00000     -0.301140E-02
     19889 MEMB     160      OYPE     H15X     HAL2     0.900000E-01   1.00800           0   0.00000     -0.301140E-02
     19890 MEMB     160      OYPE     H15Y     HAL2     0.900000E-01   1.00800           0   0.00000     -0.301140E-02
     19891 MEMB     160      OYPE     C316     CTL2    -0.180000       12.0110           0   0.00000     -0.301140E-02
     19892 MEMB     160      OYPE     H16X     HAL2     0.900000E-01   1.00800           0   0.00000     -0.301140E-02
     19893 MEMB     160      OYPE     H16Y     HAL2     0.900000E-01   1.00800           0   0.00000     -0.301140E-02
     19894 MEMB     160      OYPE     C317     CTL2    -0.180000       12.0110           0   0.00000     -0.301140E-02
     19895 MEMB     160      OYPE     H17X     HAL2     0.900000E-01   1.00800           0   0.00000     -0.301140E-02
     19896 MEMB     160      OYPE     H17Y     HAL2     0.900000E-01   1.00800           0   0.00000     -0.301140E-02
     19897 MEMB     160      OYPE     C318     CTL3    -0.270000       12.0110           0   0.00000     -0.301140E-02
     19898 MEMB     160      OYPE     H18X     HAL3     0.900000E-01   1.00800           0   0.00000     -0.301140E-02
     19899 MEMB     160      OYPE     H18Y     HAL3     0.900000E-01   1.00800           0   0.00000     -0.301140E-02
     19900 MEMB     160      OYPE     H18Z     HAL3     0.900000E-01   1.00800           0   0.00000     -0.301140E-02
     19901 MEMB     161      PMPE     N        NH3L    -0.300000       14.0070           0   0.00000     -0.301140E-02
     19902 MEMB     161      PMPE     HN1      HCL      0.330000       1.00800           0   0.00000     -0.301140E-02
     19903 MEMB     161      PMPE     HN2      HCL      0.330000       1.00800           0   0.00000     -0.301140E-02
     19904 MEMB     161      PMPE     HN3      HCL      0.330000       1.00800           0   0.00000     -0.301140E-02
     19905 MEMB     161      PMPE     C12      CTL2     0.130000       12.0110           0   0.00000     -0.301140E-02
     19906 MEMB     161      PMPE     H12A     HAL2     0.900000E-01   1.00800           0   0.00000     -0.301140E-02
     19907 MEMB     161      PMPE     H12B     HAL2     0.900000E-01   1.00800           0   0.00000     -0.301140E-02
     19908 MEMB     161      PMPE     C11      CTL2    -0.800000E-01   12.0110           0   0.00000     -0.301140E-02
     19909 MEMB     161      PMPE     H11A     HAL2     0.900000E-01   1.00800           0   0.00000     -0.301140E-02
     19910 MEMB     161      PMPE     H11B     HAL2     0.900000E-01   1.00800           0   0.00000     -0.301140E-02
     19911 MEMB     161      PMPE     P        PL        1.50000       30.9740           0   0.00000     -0.301140E-02
     19912 MEMB     161      PMPE     O13      O2L     -0.780000       15.9994           0   0.00000     -0.301140E-02
     19913 MEMB     161      PMPE     O14      O2L     -0.780000       15.9994           0   0.00000     -0.301140E-02
     19914 MEMB     161      PMPE     O11      OSLP    -0.570000       15.9994           0   0.00000     -0.301140E-02
     19915 MEMB     161      PMPE     O12      OSLP    -0.570000       15.9994           0   0.00000     -0.301140E-02
     19916 MEMB     161      PMPE     C1       CTL2    -0.800000E-01   12.0110           0   0.00000     -0.301140E-02
     19917 MEMB     161      PMPE     HA       HAL2     0.900000E-01   1.00800           0   0.00000     -0.301140E-02
     19918 MEMB     161      PMPE     HB       HAL2     0.900000E-01   1.00800           0   0.00000     -0.301140E-02
     19919 MEMB     161      PMPE     C2       CTL1     0.170000       12.0110           0   0.00000     -0.301140E-02
     19920 MEMB     161      PMPE     HS       HAL1     0.900000E-01   1.00800           0   0.00000     -0.301140E-02
     19921 MEMB     161      PMPE     O21      OSL     -0.490000       15.9994           0   0.00000     -0.301140E-02
     19922 MEMB     161      PMPE     C21      CL       0.900000       12.0110           0   0.00000     -0.301140E-02
     19923 MEMB     161      PMPE     O22      OBL     -0.630000       15.9994           0   0.00000     -0.301140E-02
     19924 MEMB     161      PMPE     C22      CTL2    -0.220000       12.0110           0   0.00000     -0.301140E-02
     19925 MEMB     161      PMPE     H2R      HAL2     0.900000E-01   1.00800           0   0.00000     -0.301140E-02
     19926 MEMB     161      PMPE     H2S      HAL2     0.900000E-01   1.00800           0   0.00000     -0.301140E-02
     19927 MEMB     161      PMPE     C3       CTL2     0.800000E-01   12.0110           0   0.00000     -0.301140E-02
     19928 MEMB     161      PMPE     HX       HAL2     0.900000E-01   1.00800           0   0.00000     -0.301140E-02
     19929 MEMB     161      PMPE     HY       HAL2     0.900000E-01   1.00800           0   0.00000     -0.301140E-02
     19930 MEMB     161      PMPE     O31      OSL     -0.490000       15.9994           0   0.00000     -0.301140E-02
     19931 MEMB     161      PMPE     C31      CL       0.900000       12.0110           0   0.00000     -0.301140E-02
     19932 MEMB     161      PMPE     O32      OBL     -0.630000       15.9994           0   0.00000     -0.301140E-02
     19933 MEMB     161      PMPE     C32      CTL2    -0.220000       12.0110           0   0.00000     -0.301140E-02
     19934 MEMB     161      PMPE     H2X      HAL2     0.900000E-01   1.00800           0   0.00000     -0.301140E-02
     19935 MEMB     161      PMPE     H2Y      HAL2     0.900000E-01   1.00800           0   0.00000     -0.301140E-02
     19936 MEMB     161      PMPE     C23      CTL2    -0.180000       12.0110           0   0.00000     -0.301140E-02
     19937 MEMB     161      PMPE     H3R      HAL2     0.900000E-01   1.00800           0   0.00000     -0.301140E-02
     19938 MEMB     161      PMPE     H3S      HAL2     0.900000E-01   1.00800           0   0.00000     -0.301140E-02
     19939 MEMB     161      PMPE     C24      CTL2    -0.180000       12.0110           0   0.00000     -0.301140E-02
     19940 MEMB     161      PMPE     H4R      HAL2     0.900000E-01   1.00800           0   0.00000     -0.301140E-02
     19941 MEMB     161      PMPE     H4S      HAL2     0.900000E-01   1.00800           0   0.00000     -0.301140E-02
     19942 MEMB     161      PMPE     C25      CTL2    -0.180000       12.0110           0   0.00000     -0.301140E-02
     19943 MEMB     161      PMPE     H5R      HAL2     0.900000E-01   1.00800           0   0.00000     -0.301140E-02
     19944 MEMB     161      PMPE     H5S      HAL2     0.900000E-01   1.00800           0   0.00000     -0.301140E-02
     19945 MEMB     161      PMPE     C26      CTL2    -0.180000       12.0110           0   0.00000     -0.301140E-02
     19946 MEMB     161      PMPE     H6R      HAL2     0.900000E-01   1.00800           0   0.00000     -0.301140E-02
     19947 MEMB     161      PMPE     H6S      HAL2     0.900000E-01   1.00800           0   0.00000     -0.301140E-02
     19948 MEMB     161      PMPE     C27      CTL2    -0.180000       12.0110           0   0.00000     -0.301140E-02
     19949 MEMB     161      PMPE     H7R      HAL2     0.900000E-01   1.00800           0   0.00000     -0.301140E-02
     19950 MEMB     161      PMPE     H7S      HAL2     0.900000E-01   1.00800           0   0.00000     -0.301140E-02
     19951 MEMB     161      PMPE     C28      CTL2    -0.180000       12.0110           0   0.00000     -0.301140E-02
     19952 MEMB     161      PMPE     H8R      HAL2     0.900000E-01   1.00800           0   0.00000     -0.301140E-02
     19953 MEMB     161      PMPE     H8S      HAL2     0.900000E-01   1.00800           0   0.00000     -0.301140E-02
     19954 MEMB     161      PMPE     C29      CG3RC1  -0.900000E-01   12.0110           0   0.00000     -0.301140E-02
     19955 MEMB     161      PMPE     H9R      HGA1     0.900000E-01   1.00800           0   0.00000     -0.301140E-02
     19956 MEMB     161      PMPE     C217     CG3C31  -0.180000       12.0110           0   0.00000     -0.301140E-02
     19957 MEMB     161      PMPE     H17R     HGA2     0.900000E-01   1.00800           0   0.00000     -0.301140E-02
     19958 MEMB     161      PMPE     H17S     HGA2     0.900000E-01   1.00800           0   0.00000     -0.301140E-02
     19959 MEMB     161      PMPE     C210     CG3RC1  -0.900000E-01   12.0110           0   0.00000     -0.301140E-02
     19960 MEMB     161      PMPE     H10R     HGA1     0.900000E-01   1.00800           0   0.00000     -0.301140E-02
     19961 MEMB     161      PMPE     C211     CTL2    -0.180000       12.0110           0   0.00000     -0.301140E-02
     19962 MEMB     161      PMPE     H11R     HAL2     0.900000E-01   1.00800           0   0.00000     -0.301140E-02
     19963 MEMB     161      PMPE     H11S     HAL2     0.900000E-01   1.00800           0   0.00000     -0.301140E-02
     19964 MEMB     161      PMPE     C212     CTL2    -0.180000       12.0110           0   0.00000     -0.301140E-02
     19965 MEMB     161      PMPE     H12R     HAL2     0.900000E-01   1.00800           0   0.00000     -0.301140E-02
     19966 MEMB     161      PMPE     H12S     HAL2     0.900000E-01   1.00800           0   0.00000     -0.301140E-02
     19967 MEMB     161      PMPE     C213     CTL2    -0.180000       12.0110           0   0.00000     -0.301140E-02
     19968 MEMB     161      PMPE     H13R     HAL2     0.900000E-01   1.00800           0   0.00000     -0.301140E-02
     19969 MEMB     161      PMPE     H13S     HAL2     0.900000E-01   1.00800           0   0.00000     -0.301140E-02
     19970 MEMB     161      PMPE     C214     CTL2    -0.180000       12.0110           0   0.00000     -0.301140E-02
     19971 MEMB     161      PMPE     H14R     HAL2     0.900000E-01   1.00800           0   0.00000     -0.301140E-02
     19972 MEMB     161      PMPE     H14S     HAL2     0.900000E-01   1.00800           0   0.00000     -0.301140E-02
     19973 MEMB     161      PMPE     C215     CTL2    -0.180000       12.0110           0   0.00000     -0.301140E-02
     19974 MEMB     161      PMPE     H15R     HAL2     0.900000E-01   1.00800           0   0.00000     -0.301140E-02
     19975 MEMB     161      PMPE     H15S     HAL2     0.900000E-01   1.00800           0   0.00000     -0.301140E-02
     19976 MEMB     161      PMPE     C216     CTL3    -0.270000       12.0110           0   0.00000     -0.301140E-02
     19977 MEMB     161      PMPE     H16R     HAL3     0.900000E-01   1.00800           0   0.00000     -0.301140E-02
     19978 MEMB     161      PMPE     H16S     HAL3     0.900000E-01   1.00800           0   0.00000     -0.301140E-02
     19979 MEMB     161      PMPE     H16T     HAL3     0.900000E-01   1.00800           0   0.00000     -0.301140E-02
     19980 MEMB     161      PMPE     C33      CTL2    -0.180000       12.0110           0   0.00000     -0.301140E-02
     19981 MEMB     161      PMPE     H3X      HAL2     0.900000E-01   1.00800           0   0.00000     -0.301140E-02
     19982 MEMB     161      PMPE     H3Y      HAL2     0.900000E-01   1.00800           0   0.00000     -0.301140E-02
     19983 MEMB     161      PMPE     C34      CTL2    -0.180000       12.0110           0   0.00000     -0.301140E-02
     19984 MEMB     161      PMPE     H4X      HAL2     0.900000E-01   1.00800           0   0.00000     -0.301140E-02
     19985 MEMB     161      PMPE     H4Y      HAL2     0.900000E-01   1.00800           0   0.00000     -0.301140E-02
     19986 MEMB     161      PMPE     C35      CTL2    -0.180000       12.0110           0   0.00000     -0.301140E-02
     19987 MEMB     161      PMPE     H5X      HAL2     0.900000E-01   1.00800           0   0.00000     -0.301140E-02
     19988 MEMB     161      PMPE     H5Y      HAL2     0.900000E-01   1.00800           0   0.00000     -0.301140E-02
     19989 MEMB     161      PMPE     C36      CTL2    -0.180000       12.0110           0   0.00000     -0.301140E-02
     19990 MEMB     161      PMPE     H6X      HAL2     0.900000E-01   1.00800           0   0.00000     -0.301140E-02
     19991 MEMB     161      PMPE     H6Y      HAL2     0.900000E-01   1.00800           0   0.00000     -0.301140E-02
     19992 MEMB     161      PMPE     C37      CTL2    -0.180000       12.0110           0   0.00000     -0.301140E-02
     19993 MEMB     161      PMPE     H7X      HAL2     0.900000E-01   1.00800           0   0.00000     -0.301140E-02
     19994 MEMB     161      PMPE     H7Y      HAL2     0.900000E-01   1.00800           0   0.00000     -0.301140E-02
     19995 MEMB     161      PMPE     C38      CTL2    -0.180000       12.0110           0   0.00000     -0.301140E-02
     19996 MEMB     161      PMPE     H8X      HAL2     0.900000E-01   1.00800           0   0.00000     -0.301140E-02
     19997 MEMB     161      PMPE     H8Y      HAL2     0.900000E-01   1.00800           0   0.00000     -0.301140E-02
     19998 MEMB     161      PMPE     C39      CTL2    -0.180000       12.0110           0   0.00000     -0.301140E-02
     19999 MEMB     161      PMPE     H9X      HAL2     0.900000E-01   1.00800           0   0.00000     -0.301140E-02
     20000 MEMB     161      PMPE     H9Y      HAL2     0.900000E-01   1.00800           0   0.00000     -0.301140E-02
     20001 MEMB     161      PMPE     C310     CTL2    -0.180000       12.0110           0   0.00000     -0.301140E-02
     20002 MEMB     161      PMPE     H10X     HAL2     0.900000E-01   1.00800           0   0.00000     -0.301140E-02
     20003 MEMB     161      PMPE     H10Y     HAL2     0.900000E-01   1.00800           0   0.00000     -0.301140E-02
     20004 MEMB     161      PMPE     C311     CTL2    -0.180000       12.0110           0   0.00000     -0.301140E-02
     20005 MEMB     161      PMPE     H11X     HAL2     0.900000E-01   1.00800           0   0.00000     -0.301140E-02
     20006 MEMB     161      PMPE     H11Y     HAL2     0.900000E-01   1.00800           0   0.00000     -0.301140E-02
     20007 MEMB     161      PMPE     C312     CTL2    -0.180000       12.0110           0   0.00000     -0.301140E-02
     20008 MEMB     161      PMPE     H12X     HAL2     0.900000E-01   1.00800           0   0.00000     -0.301140E-02
     20009 MEMB     161      PMPE     H12Y     HAL2     0.900000E-01   1.00800           0   0.00000     -0.301140E-02
     20010 MEMB     161      PMPE     C313     CTL2    -0.180000       12.0110           0   0.00000     -0.301140E-02
     20011 MEMB     161      PMPE     H13X     HAL2     0.900000E-01   1.00800           0   0.00000     -0.301140E-02
     20012 MEMB     161      PMPE     H13Y     HAL2     0.900000E-01   1.00800           0   0.00000     -0.301140E-02
     20013 MEMB     161      PMPE     C314     CTL2    -0.180000       12.0110           0   0.00000     -0.301140E-02
     20014 MEMB     161      PMPE     H14X     HAL2     0.900000E-01   1.00800           0   0.00000     -0.301140E-02
     20015 MEMB     161      PMPE     H14Y     HAL2     0.900000E-01   1.00800           0   0.00000     -0.301140E-02
     20016 MEMB     161      PMPE     C315     CTL2    -0.180000       12.0110           0   0.00000     -0.301140E-02
     20017 MEMB     161      PMPE     H15X     HAL2     0.900000E-01   1.00800           0   0.00000     -0.301140E-02
     20018 MEMB     161      PMPE     H15Y     HAL2     0.900000E-01   1.00800           0   0.00000     -0.301140E-02
     20019 MEMB     161      PMPE     C316     CTL3    -0.270000       12.0110           0   0.00000     -0.301140E-02
     20020 MEMB     161      PMPE     H16X     HAL3     0.900000E-01   1.00800           0   0.00000     -0.301140E-02
     20021 MEMB     161      PMPE     H16Y     HAL3     0.900000E-01   1.00800           0   0.00000     -0.301140E-02
     20022 MEMB     161      PMPE     H16Z     HAL3     0.900000E-01   1.00800           0   0.00000     -0.301140E-02
     20023 MEMB     162      QMPE     N        NH3L    -0.300000       14.0070           0   0.00000     -0.301140E-02
     20024 MEMB     162      QMPE     HN1      HCL      0.330000       1.00800           0   0.00000     -0.301140E-02
     20025 MEMB     162      QMPE     HN2      HCL      0.330000       1.00800           0   0.00000     -0.301140E-02
     20026 MEMB     162      QMPE     HN3      HCL      0.330000       1.00800           0   0.00000     -0.301140E-02
     20027 MEMB     162      QMPE     C12      CTL2     0.130000       12.0110           0   0.00000     -0.301140E-02
     20028 MEMB     162      QMPE     H12A     HAL2     0.900000E-01   1.00800           0   0.00000     -0.301140E-02
     20029 MEMB     162      QMPE     H12B     HAL2     0.900000E-01   1.00800           0   0.00000     -0.301140E-02
     20030 MEMB     162      QMPE     C11      CTL2    -0.800000E-01   12.0110           0   0.00000     -0.301140E-02
     20031 MEMB     162      QMPE     H11A     HAL2     0.900000E-01   1.00800           0   0.00000     -0.301140E-02
     20032 MEMB     162      QMPE     H11B     HAL2     0.900000E-01   1.00800           0   0.00000     -0.301140E-02
     20033 MEMB     162      QMPE     P        PL        1.50000       30.9740           0   0.00000     -0.301140E-02
     20034 MEMB     162      QMPE     O13      O2L     -0.780000       15.9994           0   0.00000     -0.301140E-02
     20035 MEMB     162      QMPE     O14      O2L     -0.780000       15.9994           0   0.00000     -0.301140E-02
     20036 MEMB     162      QMPE     O11      OSLP    -0.570000       15.9994           0   0.00000     -0.301140E-02
     20037 MEMB     162      QMPE     O12      OSLP    -0.570000       15.9994           0   0.00000     -0.301140E-02
     20038 MEMB     162      QMPE     C1       CTL2    -0.800000E-01   12.0110           0   0.00000     -0.301140E-02
     20039 MEMB     162      QMPE     HA       HAL2     0.900000E-01   1.00800           0   0.00000     -0.301140E-02
     20040 MEMB     162      QMPE     HB       HAL2     0.900000E-01   1.00800           0   0.00000     -0.301140E-02
     20041 MEMB     162      QMPE     C2       CTL1     0.170000       12.0110           0   0.00000     -0.301140E-02
     20042 MEMB     162      QMPE     HS       HAL1     0.900000E-01   1.00800           0   0.00000     -0.301140E-02
     20043 MEMB     162      QMPE     O21      OSL     -0.490000       15.9994           0   0.00000     -0.301140E-02
     20044 MEMB     162      QMPE     C21      CL       0.900000       12.0110           0   0.00000     -0.301140E-02
     20045 MEMB     162      QMPE     O22      OBL     -0.630000       15.9994           0   0.00000     -0.301140E-02
     20046 MEMB     162      QMPE     C22      CTL2    -0.220000       12.0110           0   0.00000     -0.301140E-02
     20047 MEMB     162      QMPE     H2R      HAL2     0.900000E-01   1.00800           0   0.00000     -0.301140E-02
     20048 MEMB     162      QMPE     H2S      HAL2     0.900000E-01   1.00800           0   0.00000     -0.301140E-02
     20049 MEMB     162      QMPE     C3       CTL2     0.800000E-01   12.0110           0   0.00000     -0.301140E-02
     20050 MEMB     162      QMPE     HX       HAL2     0.900000E-01   1.00800           0   0.00000     -0.301140E-02
     20051 MEMB     162      QMPE     HY       HAL2     0.900000E-01   1.00800           0   0.00000     -0.301140E-02
     20052 MEMB     162      QMPE     O31      OSL     -0.490000       15.9994           0   0.00000     -0.301140E-02
     20053 MEMB     162      QMPE     C31      CL       0.900000       12.0110           0   0.00000     -0.301140E-02
     20054 MEMB     162      QMPE     O32      OBL     -0.630000       15.9994           0   0.00000     -0.301140E-02
     20055 MEMB     162      QMPE     C32      CTL2    -0.220000       12.0110           0   0.00000     -0.301140E-02
     20056 MEMB     162      QMPE     H2X      HAL2     0.900000E-01   1.00800           0   0.00000     -0.301140E-02
     20057 MEMB     162      QMPE     H2Y      HAL2     0.900000E-01   1.00800           0   0.00000     -0.301140E-02
     20058 MEMB     162      QMPE     C23      CTL2    -0.180000       12.0110           0   0.00000     -0.301140E-02
     20059 MEMB     162      QMPE     H3R      HAL2     0.900000E-01   1.00800           0   0.00000     -0.301140E-02
     20060 MEMB     162      QMPE     H3S      HAL2     0.900000E-01   1.00800           0   0.00000     -0.301140E-02
     20061 MEMB     162      QMPE     C24      CTL2    -0.180000       12.0110           0   0.00000     -0.301140E-02
     20062 MEMB     162      QMPE     H4R      HAL2     0.900000E-01   1.00800           0   0.00000     -0.301140E-02
     20063 MEMB     162      QMPE     H4S      HAL2     0.900000E-01   1.00800           0   0.00000     -0.301140E-02
     20064 MEMB     162      QMPE     C25      CTL2    -0.180000       12.0110           0   0.00000     -0.301140E-02
     20065 MEMB     162      QMPE     H5R      HAL2     0.900000E-01   1.00800           0   0.00000     -0.301140E-02
     20066 MEMB     162      QMPE     H5S      HAL2     0.900000E-01   1.00800           0   0.00000     -0.301140E-02
     20067 MEMB     162      QMPE     C26      CTL2    -0.180000       12.0110           0   0.00000     -0.301140E-02
     20068 MEMB     162      QMPE     H6R      HAL2     0.900000E-01   1.00800           0   0.00000     -0.301140E-02
     20069 MEMB     162      QMPE     H6S      HAL2     0.900000E-01   1.00800           0   0.00000     -0.301140E-02
     20070 MEMB     162      QMPE     C27      CTL2    -0.180000       12.0110           0   0.00000     -0.301140E-02
     20071 MEMB     162      QMPE     H7R      HAL2     0.900000E-01   1.00800           0   0.00000     -0.301140E-02
     20072 MEMB     162      QMPE     H7S      HAL2     0.900000E-01   1.00800           0   0.00000     -0.301140E-02
     20073 MEMB     162      QMPE     C28      CTL2    -0.180000       12.0110           0   0.00000     -0.301140E-02
     20074 MEMB     162      QMPE     H8R      HAL2     0.900000E-01   1.00800           0   0.00000     -0.301140E-02
     20075 MEMB     162      QMPE     H8S      HAL2     0.900000E-01   1.00800           0   0.00000     -0.301140E-02
     20076 MEMB     162      QMPE     C29      CG3RC1  -0.900000E-01   12.0110           0   0.00000     -0.301140E-02
     20077 MEMB     162      QMPE     H9R      HGA1     0.900000E-01   1.00800           0   0.00000     -0.301140E-02
     20078 MEMB     162      QMPE     C217     CG3C31  -0.180000       12.0110           0   0.00000     -0.301140E-02
     20079 MEMB     162      QMPE     H17R     HGA2     0.900000E-01   1.00800           0   0.00000     -0.301140E-02
     20080 MEMB     162      QMPE     H17S     HGA2     0.900000E-01   1.00800           0   0.00000     -0.301140E-02
     20081 MEMB     162      QMPE     C210     CG3RC1  -0.900000E-01   12.0110           0   0.00000     -0.301140E-02
     20082 MEMB     162      QMPE     H10R     HGA1     0.900000E-01   1.00800           0   0.00000     -0.301140E-02
     20083 MEMB     162      QMPE     C211     CTL2    -0.180000       12.0110           0   0.00000     -0.301140E-02
     20084 MEMB     162      QMPE     H11R     HAL2     0.900000E-01   1.00800           0   0.00000     -0.301140E-02
     20085 MEMB     162      QMPE     H11S     HAL2     0.900000E-01   1.00800           0   0.00000     -0.301140E-02
     20086 MEMB     162      QMPE     C212     CTL2    -0.180000       12.0110           0   0.00000     -0.301140E-02
     20087 MEMB     162      QMPE     H12R     HAL2     0.900000E-01   1.00800           0   0.00000     -0.301140E-02
     20088 MEMB     162      QMPE     H12S     HAL2     0.900000E-01   1.00800           0   0.00000     -0.301140E-02
     20089 MEMB     162      QMPE     C213     CTL2    -0.180000       12.0110           0   0.00000     -0.301140E-02
     20090 MEMB     162      QMPE     H13R     HAL2     0.900000E-01   1.00800           0   0.00000     -0.301140E-02
     20091 MEMB     162      QMPE     H13S     HAL2     0.900000E-01   1.00800           0   0.00000     -0.301140E-02
     20092 MEMB     162      QMPE     C214     CTL2    -0.180000       12.0110           0   0.00000     -0.301140E-02
     20093 MEMB     162      QMPE     H14R     HAL2     0.900000E-01   1.00800           0   0.00000     -0.301140E-02
     20094 MEMB     162      QMPE     H14S     HAL2     0.900000E-01   1.00800           0   0.00000     -0.301140E-02
     20095 MEMB     162      QMPE     C215     CTL2    -0.180000       12.0110           0   0.00000     -0.301140E-02
     20096 MEMB     162      QMPE     H15R     HAL2     0.900000E-01   1.00800           0   0.00000     -0.301140E-02
     20097 MEMB     162      QMPE     H15S     HAL2     0.900000E-01   1.00800           0   0.00000     -0.301140E-02
     20098 MEMB     162      QMPE     C216     CTL3    -0.270000       12.0110           0   0.00000     -0.301140E-02
     20099 MEMB     162      QMPE     H16R     HAL3     0.900000E-01   1.00800           0   0.00000     -0.301140E-02
     20100 MEMB     162      QMPE     H16S     HAL3     0.900000E-01   1.00800           0   0.00000     -0.301140E-02
     20101 MEMB     162      QMPE     H16T     HAL3     0.900000E-01   1.00800           0   0.00000     -0.301140E-02
     20102 MEMB     162      QMPE     C33      CTL2    -0.180000       12.0110           0   0.00000     -0.301140E-02
     20103 MEMB     162      QMPE     H3X      HAL2     0.900000E-01   1.00800           0   0.00000     -0.301140E-02
     20104 MEMB     162      QMPE     H3Y      HAL2     0.900000E-01   1.00800           0   0.00000     -0.301140E-02
     20105 MEMB     162      QMPE     C34      CTL2    -0.180000       12.0110           0   0.00000     -0.301140E-02
     20106 MEMB     162      QMPE     H4X      HAL2     0.900000E-01   1.00800           0   0.00000     -0.301140E-02
     20107 MEMB     162      QMPE     H4Y      HAL2     0.900000E-01   1.00800           0   0.00000     -0.301140E-02
     20108 MEMB     162      QMPE     C35      CTL2    -0.180000       12.0110           0   0.00000     -0.301140E-02
     20109 MEMB     162      QMPE     H5X      HAL2     0.900000E-01   1.00800           0   0.00000     -0.301140E-02
     20110 MEMB     162      QMPE     H5Y      HAL2     0.900000E-01   1.00800           0   0.00000     -0.301140E-02
     20111 MEMB     162      QMPE     C36      CTL2    -0.180000       12.0110           0   0.00000     -0.301140E-02
     20112 MEMB     162      QMPE     H6X      HAL2     0.900000E-01   1.00800           0   0.00000     -0.301140E-02
     20113 MEMB     162      QMPE     H6Y      HAL2     0.900000E-01   1.00800           0   0.00000     -0.301140E-02
     20114 MEMB     162      QMPE     C37      CTL2    -0.180000       12.0110           0   0.00000     -0.301140E-02
     20115 MEMB     162      QMPE     H7X      HAL2     0.900000E-01   1.00800           0   0.00000     -0.301140E-02
     20116 MEMB     162      QMPE     H7Y      HAL2     0.900000E-01   1.00800           0   0.00000     -0.301140E-02
     20117 MEMB     162      QMPE     C38      CTL2    -0.180000       12.0110           0   0.00000     -0.301140E-02
     20118 MEMB     162      QMPE     H8X      HAL2     0.900000E-01   1.00800           0   0.00000     -0.301140E-02
     20119 MEMB     162      QMPE     H8Y      HAL2     0.900000E-01   1.00800           0   0.00000     -0.301140E-02
     20120 MEMB     162      QMPE     C39      CTL2    -0.180000       12.0110           0   0.00000     -0.301140E-02
     20121 MEMB     162      QMPE     H9X      HAL2     0.900000E-01   1.00800           0   0.00000     -0.301140E-02
     20122 MEMB     162      QMPE     H9Y      HAL2     0.900000E-01   1.00800           0   0.00000     -0.301140E-02
     20123 MEMB     162      QMPE     C310     CTL2    -0.180000       12.0110           0   0.00000     -0.301140E-02
     20124 MEMB     162      QMPE     H10X     HAL2     0.900000E-01   1.00800           0   0.00000     -0.301140E-02
     20125 MEMB     162      QMPE     H10Y     HAL2     0.900000E-01   1.00800           0   0.00000     -0.301140E-02
     20126 MEMB     162      QMPE     C311     CTL2    -0.180000       12.0110           0   0.00000     -0.301140E-02
     20127 MEMB     162      QMPE     H11X     HAL2     0.900000E-01   1.00800           0   0.00000     -0.301140E-02
     20128 MEMB     162      QMPE     H11Y     HAL2     0.900000E-01   1.00800           0   0.00000     -0.301140E-02
     20129 MEMB     162      QMPE     C312     CTL2    -0.180000       12.0110           0   0.00000     -0.301140E-02
     20130 MEMB     162      QMPE     H12X     HAL2     0.900000E-01   1.00800           0   0.00000     -0.301140E-02
     20131 MEMB     162      QMPE     H12Y     HAL2     0.900000E-01   1.00800           0   0.00000     -0.301140E-02
     20132 MEMB     162      QMPE     C313     CTL2    -0.180000       12.0110           0   0.00000     -0.301140E-02
     20133 MEMB     162      QMPE     H13X     HAL2     0.900000E-01   1.00800           0   0.00000     -0.301140E-02
     20134 MEMB     162      QMPE     H13Y     HAL2     0.900000E-01   1.00800           0   0.00000     -0.301140E-02
     20135 MEMB     162      QMPE     C314     CTL2    -0.180000       12.0110           0   0.00000     -0.301140E-02
     20136 MEMB     162      QMPE     H14X     HAL2     0.900000E-01   1.00800           0   0.00000     -0.301140E-02
     20137 MEMB     162      QMPE     H14Y     HAL2     0.900000E-01   1.00800           0   0.00000     -0.301140E-02
     20138 MEMB     162      QMPE     C315     CTL3    -0.270000       12.0110           0   0.00000     -0.301140E-02
     20139 MEMB     162      QMPE     H15X     HAL3     0.900000E-01   1.00800           0   0.00000     -0.301140E-02
     20140 MEMB     162      QMPE     H15Y     HAL3     0.900000E-01   1.00800           0   0.00000     -0.301140E-02
     20141 MEMB     162      QMPE     H15Z     HAL3     0.900000E-01   1.00800           0   0.00000     -0.301140E-02
     20142 MEMB     163      PYPG     C13      CTL2     0.500000E-01   12.0110           0   0.00000     -0.301140E-02
     20143 MEMB     163      PYPG     H13A     HAL2     0.900000E-01   1.00800           0   0.00000     -0.301140E-02
     20144 MEMB     163      PYPG     H13B     HAL2     0.900000E-01   1.00800           0   0.00000     -0.301140E-02
     20145 MEMB     163      PYPG     OC3      OHL     -0.660000       15.9994           0   0.00000     -0.301140E-02
     20146 MEMB     163      PYPG     HO3      HOL      0.430000       1.00800           0   0.00000     -0.301140E-02
     20147 MEMB     163      PYPG     C12      CTL1     0.140000       12.0110           0   0.00000     -0.301140E-02
     20148 MEMB     163      PYPG     H12A     HAL1     0.900000E-01   1.00800           0   0.00000     -0.301140E-02
     20149 MEMB     163      PYPG     OC2      OHL     -0.660000       15.9994           0   0.00000     -0.301140E-02
     20150 MEMB     163      PYPG     HO2      HOL      0.430000       1.00800           0   0.00000     -0.301140E-02
     20151 MEMB     163      PYPG     C11      CTL2    -0.800000E-01   12.0110           0   0.00000     -0.301140E-02
     20152 MEMB     163      PYPG     H11A     HAL2     0.900000E-01   1.00800           0   0.00000     -0.301140E-02
     20153 MEMB     163      PYPG     H11B     HAL2     0.900000E-01   1.00800           0   0.00000     -0.301140E-02
     20154 MEMB     163      PYPG     P        PL        1.50000       30.9740           0   0.00000     -0.301140E-02
     20155 MEMB     163      PYPG     O13      O2L     -0.780000       15.9994           0   0.00000     -0.301140E-02
     20156 MEMB     163      PYPG     O14      O2L     -0.780000       15.9994           0   0.00000     -0.301140E-02
     20157 MEMB     163      PYPG     O11      OSLP    -0.570000       15.9994           0   0.00000     -0.301140E-02
     20158 MEMB     163      PYPG     O12      OSLP    -0.570000       15.9994           0   0.00000     -0.301140E-02
     20159 MEMB     163      PYPG     C1       CTL2    -0.800000E-01   12.0110           0   0.00000     -0.301140E-02
     20160 MEMB     163      PYPG     HA       HAL2     0.900000E-01   1.00800           0   0.00000     -0.301140E-02
     20161 MEMB     163      PYPG     HB       HAL2     0.900000E-01   1.00800           0   0.00000     -0.301140E-02
     20162 MEMB     163      PYPG     C2       CTL1     0.170000       12.0110           0   0.00000     -0.301140E-02
     20163 MEMB     163      PYPG     HS       HAL1     0.900000E-01   1.00800           0   0.00000     -0.301140E-02
     20164 MEMB     163      PYPG     O21      OSL     -0.490000       15.9994           0   0.00000     -0.301140E-02
     20165 MEMB     163      PYPG     C21      CL       0.900000       12.0110           0   0.00000     -0.301140E-02
     20166 MEMB     163      PYPG     O22      OBL     -0.630000       15.9994           0   0.00000     -0.301140E-02
     20167 MEMB     163      PYPG     C22      CTL2    -0.220000       12.0110           0   0.00000     -0.301140E-02
     20168 MEMB     163      PYPG     H2R      HAL2     0.900000E-01   1.00800           0   0.00000     -0.301140E-02
     20169 MEMB     163      PYPG     H2S      HAL2     0.900000E-01   1.00800           0   0.00000     -0.301140E-02
     20170 MEMB     163      PYPG     C3       CTL2     0.800000E-01   12.0110           0   0.00000     -0.301140E-02
     20171 MEMB     163      PYPG     HX       HAL2     0.900000E-01   1.00800           0   0.00000     -0.301140E-02
     20172 MEMB     163      PYPG     HY       HAL2     0.900000E-01   1.00800           0   0.00000     -0.301140E-02
     20173 MEMB     163      PYPG     O31      OSL     -0.490000       15.9994           0   0.00000     -0.301140E-02
     20174 MEMB     163      PYPG     C31      CL       0.900000       12.0110           0   0.00000     -0.301140E-02
     20175 MEMB     163      PYPG     O32      OBL     -0.630000       15.9994           0   0.00000     -0.301140E-02
     20176 MEMB     163      PYPG     C32      CTL2    -0.220000       12.0110           0   0.00000     -0.301140E-02
     20177 MEMB     163      PYPG     H2X      HAL2     0.900000E-01   1.00800           0   0.00000     -0.301140E-02
     20178 MEMB     163      PYPG     H2Y      HAL2     0.900000E-01   1.00800           0   0.00000     -0.301140E-02
     20179 MEMB     163      PYPG     C23      CTL2    -0.180000       12.0110           0   0.00000     -0.301140E-02
     20180 MEMB     163      PYPG     H3R      HAL2     0.900000E-01   1.00800           0   0.00000     -0.301140E-02
     20181 MEMB     163      PYPG     H3S      HAL2     0.900000E-01   1.00800           0   0.00000     -0.301140E-02
     20182 MEMB     163      PYPG     C24      CTL2    -0.180000       12.0110           0   0.00000     -0.301140E-02
     20183 MEMB     163      PYPG     H4R      HAL2     0.900000E-01   1.00800           0   0.00000     -0.301140E-02
     20184 MEMB     163      PYPG     H4S      HAL2     0.900000E-01   1.00800           0   0.00000     -0.301140E-02
     20185 MEMB     163      PYPG     C25      CTL2    -0.180000       12.0110           0   0.00000     -0.301140E-02
     20186 MEMB     163      PYPG     H5R      HAL2     0.900000E-01   1.00800           0   0.00000     -0.301140E-02
     20187 MEMB     163      PYPG     H5S      HAL2     0.900000E-01   1.00800           0   0.00000     -0.301140E-02
     20188 MEMB     163      PYPG     C26      CTL2    -0.180000       12.0110           0   0.00000     -0.301140E-02
     20189 MEMB     163      PYPG     H6R      HAL2     0.900000E-01   1.00800           0   0.00000     -0.301140E-02
     20190 MEMB     163      PYPG     H6S      HAL2     0.900000E-01   1.00800           0   0.00000     -0.301140E-02
     20191 MEMB     163      PYPG     C27      CTL2    -0.180000       12.0110           0   0.00000     -0.301140E-02
     20192 MEMB     163      PYPG     H7R      HAL2     0.900000E-01   1.00800           0   0.00000     -0.301140E-02
     20193 MEMB     163      PYPG     H7S      HAL2     0.900000E-01   1.00800           0   0.00000     -0.301140E-02
     20194 MEMB     163      PYPG     C28      CTL2    -0.180000       12.0110           0   0.00000     -0.301140E-02
     20195 MEMB     163      PYPG     H8R      HAL2     0.900000E-01   1.00800           0   0.00000     -0.301140E-02
     20196 MEMB     163      PYPG     H8S      HAL2     0.900000E-01   1.00800           0   0.00000     -0.301140E-02
     20197 MEMB     163      PYPG     C29      CEL1    -0.150000       12.0110           0   0.00000     -0.301140E-02
     20198 MEMB     163      PYPG     H9R      HEL1     0.150000       1.00800           0   0.00000     -0.301140E-02
     20199 MEMB     163      PYPG     C210     CEL1    -0.150000       12.0110           0   0.00000     -0.301140E-02
     20200 MEMB     163      PYPG     H10R     HEL1     0.150000       1.00800           0   0.00000     -0.301140E-02
     20201 MEMB     163      PYPG     C211     CTL2    -0.180000       12.0110           0   0.00000     -0.301140E-02
     20202 MEMB     163      PYPG     H11R     HAL2     0.900000E-01   1.00800           0   0.00000     -0.301140E-02
     20203 MEMB     163      PYPG     H11S     HAL2     0.900000E-01   1.00800           0   0.00000     -0.301140E-02
     20204 MEMB     163      PYPG     C212     CTL2    -0.180000       12.0110           0   0.00000     -0.301140E-02
     20205 MEMB     163      PYPG     H12R     HAL2     0.900000E-01   1.00800           0   0.00000     -0.301140E-02
     20206 MEMB     163      PYPG     H12S     HAL2     0.900000E-01   1.00800           0   0.00000     -0.301140E-02
     20207 MEMB     163      PYPG     C213     CTL2    -0.180000       12.0110           0   0.00000     -0.301140E-02
     20208 MEMB     163      PYPG     H13R     HAL2     0.900000E-01   1.00800           0   0.00000     -0.301140E-02
     20209 MEMB     163      PYPG     H13S     HAL2     0.900000E-01   1.00800           0   0.00000     -0.301140E-02
     20210 MEMB     163      PYPG     C214     CTL2    -0.180000       12.0110           0   0.00000     -0.301140E-02
     20211 MEMB     163      PYPG     H14R     HAL2     0.900000E-01   1.00800           0   0.00000     -0.301140E-02
     20212 MEMB     163      PYPG     H14S     HAL2     0.900000E-01   1.00800           0   0.00000     -0.301140E-02
     20213 MEMB     163      PYPG     C215     CTL2    -0.180000       12.0110           0   0.00000     -0.301140E-02
     20214 MEMB     163      PYPG     H15R     HAL2     0.900000E-01   1.00800           0   0.00000     -0.301140E-02
     20215 MEMB     163      PYPG     H15S     HAL2     0.900000E-01   1.00800           0   0.00000     -0.301140E-02
     20216 MEMB     163      PYPG     C216     CTL3    -0.270000       12.0110           0   0.00000     -0.301140E-02
     20217 MEMB     163      PYPG     H16R     HAL3     0.900000E-01   1.00800           0   0.00000     -0.301140E-02
     20218 MEMB     163      PYPG     H16S     HAL3     0.900000E-01   1.00800           0   0.00000     -0.301140E-02
     20219 MEMB     163      PYPG     H16T     HAL3     0.900000E-01   1.00800           0   0.00000     -0.301140E-02
     20220 MEMB     163      PYPG     C33      CTL2    -0.180000       12.0110           0   0.00000     -0.301140E-02
     20221 MEMB     163      PYPG     H3X      HAL2     0.900000E-01   1.00800           0   0.00000     -0.301140E-02
     20222 MEMB     163      PYPG     H3Y      HAL2     0.900000E-01   1.00800           0   0.00000     -0.301140E-02
     20223 MEMB     163      PYPG     C34      CTL2    -0.180000       12.0110           0   0.00000     -0.301140E-02
     20224 MEMB     163      PYPG     H4X      HAL2     0.900000E-01   1.00800           0   0.00000     -0.301140E-02
     20225 MEMB     163      PYPG     H4Y      HAL2     0.900000E-01   1.00800           0   0.00000     -0.301140E-02
     20226 MEMB     163      PYPG     C35      CTL2    -0.180000       12.0110           0   0.00000     -0.301140E-02
     20227 MEMB     163      PYPG     H5X      HAL2     0.900000E-01   1.00800           0   0.00000     -0.301140E-02
     20228 MEMB     163      PYPG     H5Y      HAL2     0.900000E-01   1.00800           0   0.00000     -0.301140E-02
     20229 MEMB     163      PYPG     C36      CTL2    -0.180000       12.0110           0   0.00000     -0.301140E-02
     20230 MEMB     163      PYPG     H6X      HAL2     0.900000E-01   1.00800           0   0.00000     -0.301140E-02
     20231 MEMB     163      PYPG     H6Y      HAL2     0.900000E-01   1.00800           0   0.00000     -0.301140E-02
     20232 MEMB     163      PYPG     C37      CTL2    -0.180000       12.0110           0   0.00000     -0.301140E-02
     20233 MEMB     163      PYPG     H7X      HAL2     0.900000E-01   1.00800           0   0.00000     -0.301140E-02
     20234 MEMB     163      PYPG     H7Y      HAL2     0.900000E-01   1.00800           0   0.00000     -0.301140E-02
     20235 MEMB     163      PYPG     C38      CTL2    -0.180000       12.0110           0   0.00000     -0.301140E-02
     20236 MEMB     163      PYPG     H8X      HAL2     0.900000E-01   1.00800           0   0.00000     -0.301140E-02
     20237 MEMB     163      PYPG     H8Y      HAL2     0.900000E-01   1.00800           0   0.00000     -0.301140E-02
     20238 MEMB     163      PYPG     C39      CTL2    -0.180000       12.0110           0   0.00000     -0.301140E-02
     20239 MEMB     163      PYPG     H9X      HAL2     0.900000E-01   1.00800           0   0.00000     -0.301140E-02
     20240 MEMB     163      PYPG     H9Y      HAL2     0.900000E-01   1.00800           0   0.00000     -0.301140E-02
     20241 MEMB     163      PYPG     C310     CTL2    -0.180000       12.0110           0   0.00000     -0.301140E-02
     20242 MEMB     163      PYPG     H10X     HAL2     0.900000E-01   1.00800           0   0.00000     -0.301140E-02
     20243 MEMB     163      PYPG     H10Y     HAL2     0.900000E-01   1.00800           0   0.00000     -0.301140E-02
     20244 MEMB     163      PYPG     C311     CTL2    -0.180000       12.0110           0   0.00000     -0.301140E-02
     20245 MEMB     163      PYPG     H11X     HAL2     0.900000E-01   1.00800           0   0.00000     -0.301140E-02
     20246 MEMB     163      PYPG     H11Y     HAL2     0.900000E-01   1.00800           0   0.00000     -0.301140E-02
     20247 MEMB     163      PYPG     C312     CTL2    -0.180000       12.0110           0   0.00000     -0.301140E-02
     20248 MEMB     163      PYPG     H12X     HAL2     0.900000E-01   1.00800           0   0.00000     -0.301140E-02
     20249 MEMB     163      PYPG     H12Y     HAL2     0.900000E-01   1.00800           0   0.00000     -0.301140E-02
     20250 MEMB     163      PYPG     C313     CTL2    -0.180000       12.0110           0   0.00000     -0.301140E-02
     20251 MEMB     163      PYPG     H13X     HAL2     0.900000E-01   1.00800           0   0.00000     -0.301140E-02
     20252 MEMB     163      PYPG     H13Y     HAL2     0.900000E-01   1.00800           0   0.00000     -0.301140E-02
     20253 MEMB     163      PYPG     C314     CTL2    -0.180000       12.0110           0   0.00000     -0.301140E-02
     20254 MEMB     163      PYPG     H14X     HAL2     0.900000E-01   1.00800           0   0.00000     -0.301140E-02
     20255 MEMB     163      PYPG     H14Y     HAL2     0.900000E-01   1.00800           0   0.00000     -0.301140E-02
     20256 MEMB     163      PYPG     C315     CTL2    -0.180000       12.0110           0   0.00000     -0.301140E-02
     20257 MEMB     163      PYPG     H15X     HAL2     0.900000E-01   1.00800           0   0.00000     -0.301140E-02
     20258 MEMB     163      PYPG     H15Y     HAL2     0.900000E-01   1.00800           0   0.00000     -0.301140E-02
     20259 MEMB     163      PYPG     C316     CTL3    -0.270000       12.0110           0   0.00000     -0.301140E-02
     20260 MEMB     163      PYPG     H16X     HAL3     0.900000E-01   1.00800           0   0.00000     -0.301140E-02
     20261 MEMB     163      PYPG     H16Y     HAL3     0.900000E-01   1.00800           0   0.00000     -0.301140E-02
     20262 MEMB     163      PYPG     H16Z     HAL3     0.900000E-01   1.00800           0   0.00000     -0.301140E-02
     20263 MEMB     164      PMPG     C13      CTL2     0.500000E-01   12.0110           0   0.00000     -0.301140E-02
     20264 MEMB     164      PMPG     H13A     HAL2     0.900000E-01   1.00800           0   0.00000     -0.301140E-02
     20265 MEMB     164      PMPG     H13B     HAL2     0.900000E-01   1.00800           0   0.00000     -0.301140E-02
     20266 MEMB     164      PMPG     OC3      OHL     -0.660000       15.9994           0   0.00000     -0.301140E-02
     20267 MEMB     164      PMPG     HO3      HOL      0.430000       1.00800           0   0.00000     -0.301140E-02
     20268 MEMB     164      PMPG     C12      CTL1     0.140000       12.0110           0   0.00000     -0.301140E-02
     20269 MEMB     164      PMPG     H12A     HAL1     0.900000E-01   1.00800           0   0.00000     -0.301140E-02
     20270 MEMB     164      PMPG     OC2      OHL     -0.660000       15.9994           0   0.00000     -0.301140E-02
     20271 MEMB     164      PMPG     HO2      HOL      0.430000       1.00800           0   0.00000     -0.301140E-02
     20272 MEMB     164      PMPG     C11      CTL2    -0.800000E-01   12.0110           0   0.00000     -0.301140E-02
     20273 MEMB     164      PMPG     H11A     HAL2     0.900000E-01   1.00800           0   0.00000     -0.301140E-02
     20274 MEMB     164      PMPG     H11B     HAL2     0.900000E-01   1.00800           0   0.00000     -0.301140E-02
     20275 MEMB     164      PMPG     P        PL        1.50000       30.9740           0   0.00000     -0.301140E-02
     20276 MEMB     164      PMPG     O13      O2L     -0.780000       15.9994           0   0.00000     -0.301140E-02
     20277 MEMB     164      PMPG     O14      O2L     -0.780000       15.9994           0   0.00000     -0.301140E-02
     20278 MEMB     164      PMPG     O11      OSLP    -0.570000       15.9994           0   0.00000     -0.301140E-02
     20279 MEMB     164      PMPG     O12      OSLP    -0.570000       15.9994           0   0.00000     -0.301140E-02
     20280 MEMB     164      PMPG     C1       CTL2    -0.800000E-01   12.0110           0   0.00000     -0.301140E-02
     20281 MEMB     164      PMPG     HA       HAL2     0.900000E-01   1.00800           0   0.00000     -0.301140E-02
     20282 MEMB     164      PMPG     HB       HAL2     0.900000E-01   1.00800           0   0.00000     -0.301140E-02
     20283 MEMB     164      PMPG     C2       CTL1     0.170000       12.0110           0   0.00000     -0.301140E-02
     20284 MEMB     164      PMPG     HS       HAL1     0.900000E-01   1.00800           0   0.00000     -0.301140E-02
     20285 MEMB     164      PMPG     O21      OSL     -0.490000       15.9994           0   0.00000     -0.301140E-02
     20286 MEMB     164      PMPG     C21      CL       0.900000       12.0110           0   0.00000     -0.301140E-02
     20287 MEMB     164      PMPG     O22      OBL     -0.630000       15.9994           0   0.00000     -0.301140E-02
     20288 MEMB     164      PMPG     C22      CTL2    -0.220000       12.0110           0   0.00000     -0.301140E-02
     20289 MEMB     164      PMPG     H2R      HAL2     0.900000E-01   1.00800           0   0.00000     -0.301140E-02
     20290 MEMB     164      PMPG     H2S      HAL2     0.900000E-01   1.00800           0   0.00000     -0.301140E-02
     20291 MEMB     164      PMPG     C3       CTL2     0.800000E-01   12.0110           0   0.00000     -0.301140E-02
     20292 MEMB     164      PMPG     HX       HAL2     0.900000E-01   1.00800           0   0.00000     -0.301140E-02
     20293 MEMB     164      PMPG     HY       HAL2     0.900000E-01   1.00800           0   0.00000     -0.301140E-02
     20294 MEMB     164      PMPG     O31      OSL     -0.490000       15.9994           0   0.00000     -0.301140E-02
     20295 MEMB     164      PMPG     C31      CL       0.900000       12.0110           0   0.00000     -0.301140E-02
     20296 MEMB     164      PMPG     O32      OBL     -0.630000       15.9994           0   0.00000     -0.301140E-02
     20297 MEMB     164      PMPG     C32      CTL2    -0.220000       12.0110           0   0.00000     -0.301140E-02
     20298 MEMB     164      PMPG     H2X      HAL2     0.900000E-01   1.00800           0   0.00000     -0.301140E-02
     20299 MEMB     164      PMPG     H2Y      HAL2     0.900000E-01   1.00800           0   0.00000     -0.301140E-02
     20300 MEMB     164      PMPG     C23      CTL2    -0.180000       12.0110           0   0.00000     -0.301140E-02
     20301 MEMB     164      PMPG     H3R      HAL2     0.900000E-01   1.00800           0   0.00000     -0.301140E-02
     20302 MEMB     164      PMPG     H3S      HAL2     0.900000E-01   1.00800           0   0.00000     -0.301140E-02
     20303 MEMB     164      PMPG     C24      CTL2    -0.180000       12.0110           0   0.00000     -0.301140E-02
     20304 MEMB     164      PMPG     H4R      HAL2     0.900000E-01   1.00800           0   0.00000     -0.301140E-02
     20305 MEMB     164      PMPG     H4S      HAL2     0.900000E-01   1.00800           0   0.00000     -0.301140E-02
     20306 MEMB     164      PMPG     C25      CTL2    -0.180000       12.0110           0   0.00000     -0.301140E-02
     20307 MEMB     164      PMPG     H5R      HAL2     0.900000E-01   1.00800           0   0.00000     -0.301140E-02
     20308 MEMB     164      PMPG     H5S      HAL2     0.900000E-01   1.00800           0   0.00000     -0.301140E-02
     20309 MEMB     164      PMPG     C26      CTL2    -0.180000       12.0110           0   0.00000     -0.301140E-02
     20310 MEMB     164      PMPG     H6R      HAL2     0.900000E-01   1.00800           0   0.00000     -0.301140E-02
     20311 MEMB     164      PMPG     H6S      HAL2     0.900000E-01   1.00800           0   0.00000     -0.301140E-02
     20312 MEMB     164      PMPG     C27      CTL2    -0.180000       12.0110           0   0.00000     -0.301140E-02
     20313 MEMB     164      PMPG     H7R      HAL2     0.900000E-01   1.00800           0   0.00000     -0.301140E-02
     20314 MEMB     164      PMPG     H7S      HAL2     0.900000E-01   1.00800           0   0.00000     -0.301140E-02
     20315 MEMB     164      PMPG     C28      CTL2    -0.180000       12.0110           0   0.00000     -0.301140E-02
     20316 MEMB     164      PMPG     H8R      HAL2     0.900000E-01   1.00800           0   0.00000     -0.301140E-02
     20317 MEMB     164      PMPG     H8S      HAL2     0.900000E-01   1.00800           0   0.00000     -0.301140E-02
     20318 MEMB     164      PMPG     C29      CG3RC1  -0.900000E-01   12.0110           0   0.00000     -0.301140E-02
     20319 MEMB     164      PMPG     H9R      HGA1     0.900000E-01   1.00800           0   0.00000     -0.301140E-02
     20320 MEMB     164      PMPG     C217     CG3C31  -0.180000       12.0110           0   0.00000     -0.301140E-02
     20321 MEMB     164      PMPG     H17R     HGA2     0.900000E-01   1.00800           0   0.00000     -0.301140E-02
     20322 MEMB     164      PMPG     H17S     HGA2     0.900000E-01   1.00800           0   0.00000     -0.301140E-02
     20323 MEMB     164      PMPG     C210     CG3RC1  -0.900000E-01   12.0110           0   0.00000     -0.301140E-02
     20324 MEMB     164      PMPG     H10R     HGA1     0.900000E-01   1.00800           0   0.00000     -0.301140E-02
     20325 MEMB     164      PMPG     C211     CTL2    -0.180000       12.0110           0   0.00000     -0.301140E-02
     20326 MEMB     164      PMPG     H11R     HAL2     0.900000E-01   1.00800           0   0.00000     -0.301140E-02
     20327 MEMB     164      PMPG     H11S     HAL2     0.900000E-01   1.00800           0   0.00000     -0.301140E-02
     20328 MEMB     164      PMPG     C212     CTL2    -0.180000       12.0110           0   0.00000     -0.301140E-02
     20329 MEMB     164      PMPG     H12R     HAL2     0.900000E-01   1.00800           0   0.00000     -0.301140E-02
     20330 MEMB     164      PMPG     H12S     HAL2     0.900000E-01   1.00800           0   0.00000     -0.301140E-02
     20331 MEMB     164      PMPG     C213     CTL2    -0.180000       12.0110           0   0.00000     -0.301140E-02
     20332 MEMB     164      PMPG     H13R     HAL2     0.900000E-01   1.00800           0   0.00000     -0.301140E-02
     20333 MEMB     164      PMPG     H13S     HAL2     0.900000E-01   1.00800           0   0.00000     -0.301140E-02
     20334 MEMB     164      PMPG     C214     CTL2    -0.180000       12.0110           0   0.00000     -0.301140E-02
     20335 MEMB     164      PMPG     H14R     HAL2     0.900000E-01   1.00800           0   0.00000     -0.301140E-02
     20336 MEMB     164      PMPG     H14S     HAL2     0.900000E-01   1.00800           0   0.00000     -0.301140E-02
     20337 MEMB     164      PMPG     C215     CTL2    -0.180000       12.0110           0   0.00000     -0.301140E-02
     20338 MEMB     164      PMPG     H15R     HAL2     0.900000E-01   1.00800           0   0.00000     -0.301140E-02
     20339 MEMB     164      PMPG     H15S     HAL2     0.900000E-01   1.00800           0   0.00000     -0.301140E-02
     20340 MEMB     164      PMPG     C216     CTL3    -0.270000       12.0110           0   0.00000     -0.301140E-02
     20341 MEMB     164      PMPG     H16R     HAL3     0.900000E-01   1.00800           0   0.00000     -0.301140E-02
     20342 MEMB     164      PMPG     H16S     HAL3     0.900000E-01   1.00800           0   0.00000     -0.301140E-02
     20343 MEMB     164      PMPG     H16T     HAL3     0.900000E-01   1.00800           0   0.00000     -0.301140E-02
     20344 MEMB     164      PMPG     C33      CTL2    -0.180000       12.0110           0   0.00000     -0.301140E-02
     20345 MEMB     164      PMPG     H3X      HAL2     0.900000E-01   1.00800           0   0.00000     -0.301140E-02
     20346 MEMB     164      PMPG     H3Y      HAL2     0.900000E-01   1.00800           0   0.00000     -0.301140E-02
     20347 MEMB     164      PMPG     C34      CTL2    -0.180000       12.0110           0   0.00000     -0.301140E-02
     20348 MEMB     164      PMPG     H4X      HAL2     0.900000E-01   1.00800           0   0.00000     -0.301140E-02
     20349 MEMB     164      PMPG     H4Y      HAL2     0.900000E-01   1.00800           0   0.00000     -0.301140E-02
     20350 MEMB     164      PMPG     C35      CTL2    -0.180000       12.0110           0   0.00000     -0.301140E-02
     20351 MEMB     164      PMPG     H5X      HAL2     0.900000E-01   1.00800           0   0.00000     -0.301140E-02
     20352 MEMB     164      PMPG     H5Y      HAL2     0.900000E-01   1.00800           0   0.00000     -0.301140E-02
     20353 MEMB     164      PMPG     C36      CTL2    -0.180000       12.0110           0   0.00000     -0.301140E-02
     20354 MEMB     164      PMPG     H6X      HAL2     0.900000E-01   1.00800           0   0.00000     -0.301140E-02
     20355 MEMB     164      PMPG     H6Y      HAL2     0.900000E-01   1.00800           0   0.00000     -0.301140E-02
     20356 MEMB     164      PMPG     C37      CTL2    -0.180000       12.0110           0   0.00000     -0.301140E-02
     20357 MEMB     164      PMPG     H7X      HAL2     0.900000E-01   1.00800           0   0.00000     -0.301140E-02
     20358 MEMB     164      PMPG     H7Y      HAL2     0.900000E-01   1.00800           0   0.00000     -0.301140E-02
     20359 MEMB     164      PMPG     C38      CTL2    -0.180000       12.0110           0   0.00000     -0.301140E-02
     20360 MEMB     164      PMPG     H8X      HAL2     0.900000E-01   1.00800           0   0.00000     -0.301140E-02
     20361 MEMB     164      PMPG     H8Y      HAL2     0.900000E-01   1.00800           0   0.00000     -0.301140E-02
     20362 MEMB     164      PMPG     C39      CTL2    -0.180000       12.0110           0   0.00000     -0.301140E-02
     20363 MEMB     164      PMPG     H9X      HAL2     0.900000E-01   1.00800           0   0.00000     -0.301140E-02
     20364 MEMB     164      PMPG     H9Y      HAL2     0.900000E-01   1.00800           0   0.00000     -0.301140E-02
     20365 MEMB     164      PMPG     C310     CTL2    -0.180000       12.0110           0   0.00000     -0.301140E-02
     20366 MEMB     164      PMPG     H10X     HAL2     0.900000E-01   1.00800           0   0.00000     -0.301140E-02
     20367 MEMB     164      PMPG     H10Y     HAL2     0.900000E-01   1.00800           0   0.00000     -0.301140E-02
     20368 MEMB     164      PMPG     C311     CTL2    -0.180000       12.0110           0   0.00000     -0.301140E-02
     20369 MEMB     164      PMPG     H11X     HAL2     0.900000E-01   1.00800           0   0.00000     -0.301140E-02
     20370 MEMB     164      PMPG     H11Y     HAL2     0.900000E-01   1.00800           0   0.00000     -0.301140E-02
     20371 MEMB     164      PMPG     C312     CTL2    -0.180000       12.0110           0   0.00000     -0.301140E-02
     20372 MEMB     164      PMPG     H12X     HAL2     0.900000E-01   1.00800           0   0.00000     -0.301140E-02
     20373 MEMB     164      PMPG     H12Y     HAL2     0.900000E-01   1.00800           0   0.00000     -0.301140E-02
     20374 MEMB     164      PMPG     C313     CTL2    -0.180000       12.0110           0   0.00000     -0.301140E-02
     20375 MEMB     164      PMPG     H13X     HAL2     0.900000E-01   1.00800           0   0.00000     -0.301140E-02
     20376 MEMB     164      PMPG     H13Y     HAL2     0.900000E-01   1.00800           0   0.00000     -0.301140E-02
     20377 MEMB     164      PMPG     C314     CTL2    -0.180000       12.0110           0   0.00000     -0.301140E-02
     20378 MEMB     164      PMPG     H14X     HAL2     0.900000E-01   1.00800           0   0.00000     -0.301140E-02
     20379 MEMB     164      PMPG     H14Y     HAL2     0.900000E-01   1.00800           0   0.00000     -0.301140E-02
     20380 MEMB     164      PMPG     C315     CTL2    -0.180000       12.0110           0   0.00000     -0.301140E-02
     20381 MEMB     164      PMPG     H15X     HAL2     0.900000E-01   1.00800           0   0.00000     -0.301140E-02
     20382 MEMB     164      PMPG     H15Y     HAL2     0.900000E-01   1.00800           0   0.00000     -0.301140E-02
     20383 MEMB     164      PMPG     C316     CTL3    -0.270000       12.0110           0   0.00000     -0.301140E-02
     20384 MEMB     164      PMPG     H16X     HAL3     0.900000E-01   1.00800           0   0.00000     -0.301140E-02
     20385 MEMB     164      PMPG     H16Y     HAL3     0.900000E-01   1.00800           0   0.00000     -0.301140E-02
     20386 MEMB     164      PMPG     H16Z     HAL3     0.900000E-01   1.00800           0   0.00000     -0.301140E-02
     20387 MEMB     165      OYPE     N        NH3L    -0.300000       14.0070           0   0.00000     -0.301140E-02
     20388 MEMB     165      OYPE     HN1      HCL      0.330000       1.00800           0   0.00000     -0.301140E-02
     20389 MEMB     165      OYPE     HN2      HCL      0.330000       1.00800           0   0.00000     -0.301140E-02
     20390 MEMB     165      OYPE     HN3      HCL      0.330000       1.00800           0   0.00000     -0.301140E-02
     20391 MEMB     165      OYPE     C12      CTL2     0.130000       12.0110           0   0.00000     -0.301140E-02
     20392 MEMB     165      OYPE     H12A     HAL2     0.900000E-01   1.00800           0   0.00000     -0.301140E-02
     20393 MEMB     165      OYPE     H12B     HAL2     0.900000E-01   1.00800           0   0.00000     -0.301140E-02
     20394 MEMB     165      OYPE     C11      CTL2    -0.800000E-01   12.0110           0   0.00000     -0.301140E-02
     20395 MEMB     165      OYPE     H11A     HAL2     0.900000E-01   1.00800           0   0.00000     -0.301140E-02
     20396 MEMB     165      OYPE     H11B     HAL2     0.900000E-01   1.00800           0   0.00000     -0.301140E-02
     20397 MEMB     165      OYPE     P        PL        1.50000       30.9740           0   0.00000     -0.301140E-02
     20398 MEMB     165      OYPE     O13      O2L     -0.780000       15.9994           0   0.00000     -0.301140E-02
     20399 MEMB     165      OYPE     O14      O2L     -0.780000       15.9994           0   0.00000     -0.301140E-02
     20400 MEMB     165      OYPE     O11      OSLP    -0.570000       15.9994           0   0.00000     -0.301140E-02
     20401 MEMB     165      OYPE     O12      OSLP    -0.570000       15.9994           0   0.00000     -0.301140E-02
     20402 MEMB     165      OYPE     C1       CTL2    -0.800000E-01   12.0110           0   0.00000     -0.301140E-02
     20403 MEMB     165      OYPE     HA       HAL2     0.900000E-01   1.00800           0   0.00000     -0.301140E-02
     20404 MEMB     165      OYPE     HB       HAL2     0.900000E-01   1.00800           0   0.00000     -0.301140E-02
     20405 MEMB     165      OYPE     C2       CTL1     0.170000       12.0110           0   0.00000     -0.301140E-02
     20406 MEMB     165      OYPE     HS       HAL1     0.900000E-01   1.00800           0   0.00000     -0.301140E-02
     20407 MEMB     165      OYPE     O21      OSL     -0.490000       15.9994           0   0.00000     -0.301140E-02
     20408 MEMB     165      OYPE     C21      CL       0.900000       12.0110           0   0.00000     -0.301140E-02
     20409 MEMB     165      OYPE     O22      OBL     -0.630000       15.9994           0   0.00000     -0.301140E-02
     20410 MEMB     165      OYPE     C22      CTL2    -0.220000       12.0110           0   0.00000     -0.301140E-02
     20411 MEMB     165      OYPE     H2R      HAL2     0.900000E-01   1.00800           0   0.00000     -0.301140E-02
     20412 MEMB     165      OYPE     H2S      HAL2     0.900000E-01   1.00800           0   0.00000     -0.301140E-02
     20413 MEMB     165      OYPE     C3       CTL2     0.800000E-01   12.0110           0   0.00000     -0.301140E-02
     20414 MEMB     165      OYPE     HX       HAL2     0.900000E-01   1.00800           0   0.00000     -0.301140E-02
     20415 MEMB     165      OYPE     HY       HAL2     0.900000E-01   1.00800           0   0.00000     -0.301140E-02
     20416 MEMB     165      OYPE     O31      OSL     -0.490000       15.9994           0   0.00000     -0.301140E-02
     20417 MEMB     165      OYPE     C31      CL       0.900000       12.0110           0   0.00000     -0.301140E-02
     20418 MEMB     165      OYPE     O32      OBL     -0.630000       15.9994           0   0.00000     -0.301140E-02
     20419 MEMB     165      OYPE     C32      CTL2    -0.220000       12.0110           0   0.00000     -0.301140E-02
     20420 MEMB     165      OYPE     H2X      HAL2     0.900000E-01   1.00800           0   0.00000     -0.301140E-02
     20421 MEMB     165      OYPE     H2Y      HAL2     0.900000E-01   1.00800           0   0.00000     -0.301140E-02
     20422 MEMB     165      OYPE     C23      CTL2    -0.180000       12.0110           0   0.00000     -0.301140E-02
     20423 MEMB     165      OYPE     H3R      HAL2     0.900000E-01   1.00800           0   0.00000     -0.301140E-02
     20424 MEMB     165      OYPE     H3S      HAL2     0.900000E-01   1.00800           0   0.00000     -0.301140E-02
     20425 MEMB     165      OYPE     C24      CTL2    -0.180000       12.0110           0   0.00000     -0.301140E-02
     20426 MEMB     165      OYPE     H4R      HAL2     0.900000E-01   1.00800           0   0.00000     -0.301140E-02
     20427 MEMB     165      OYPE     H4S      HAL2     0.900000E-01   1.00800           0   0.00000     -0.301140E-02
     20428 MEMB     165      OYPE     C25      CTL2    -0.180000       12.0110           0   0.00000     -0.301140E-02
     20429 MEMB     165      OYPE     H5R      HAL2     0.900000E-01   1.00800           0   0.00000     -0.301140E-02
     20430 MEMB     165      OYPE     H5S      HAL2     0.900000E-01   1.00800           0   0.00000     -0.301140E-02
     20431 MEMB     165      OYPE     C26      CTL2    -0.180000       12.0110           0   0.00000     -0.301140E-02
     20432 MEMB     165      OYPE     H6R      HAL2     0.900000E-01   1.00800           0   0.00000     -0.301140E-02
     20433 MEMB     165      OYPE     H6S      HAL2     0.900000E-01   1.00800           0   0.00000     -0.301140E-02
     20434 MEMB     165      OYPE     C27      CTL2    -0.180000       12.0110           0   0.00000     -0.301140E-02
     20435 MEMB     165      OYPE     H7R      HAL2     0.900000E-01   1.00800           0   0.00000     -0.301140E-02
     20436 MEMB     165      OYPE     H7S      HAL2     0.900000E-01   1.00800           0   0.00000     -0.301140E-02
     20437 MEMB     165      OYPE     C28      CTL2    -0.180000       12.0110           0   0.00000     -0.301140E-02
     20438 MEMB     165      OYPE     H8R      HAL2     0.900000E-01   1.00800           0   0.00000     -0.301140E-02
     20439 MEMB     165      OYPE     H8S      HAL2     0.900000E-01   1.00800           0   0.00000     -0.301140E-02
     20440 MEMB     165      OYPE     C29      CEL1    -0.150000       12.0110           0   0.00000     -0.301140E-02
     20441 MEMB     165      OYPE     H9R      HEL1     0.150000       1.00800           0   0.00000     -0.301140E-02
     20442 MEMB     165      OYPE     C210     CEL1    -0.150000       12.0110           0   0.00000     -0.301140E-02
     20443 MEMB     165      OYPE     H10R     HEL1     0.150000       1.00800           0   0.00000     -0.301140E-02
     20444 MEMB     165      OYPE     C211     CTL2    -0.180000       12.0110           0   0.00000     -0.301140E-02
     20445 MEMB     165      OYPE     H11R     HAL2     0.900000E-01   1.00800           0   0.00000     -0.301140E-02
     20446 MEMB     165      OYPE     H11S     HAL2     0.900000E-01   1.00800           0   0.00000     -0.301140E-02
     20447 MEMB     165      OYPE     C212     CTL2    -0.180000       12.0110           0   0.00000     -0.301140E-02
     20448 MEMB     165      OYPE     H12R     HAL2     0.900000E-01   1.00800           0   0.00000     -0.301140E-02
     20449 MEMB     165      OYPE     H12S     HAL2     0.900000E-01   1.00800           0   0.00000     -0.301140E-02
     20450 MEMB     165      OYPE     C213     CTL2    -0.180000       12.0110           0   0.00000     -0.301140E-02
     20451 MEMB     165      OYPE     H13R     HAL2     0.900000E-01   1.00800           0   0.00000     -0.301140E-02
     20452 MEMB     165      OYPE     H13S     HAL2     0.900000E-01   1.00800           0   0.00000     -0.301140E-02
     20453 MEMB     165      OYPE     C214     CTL2    -0.180000       12.0110           0   0.00000     -0.301140E-02
     20454 MEMB     165      OYPE     H14R     HAL2     0.900000E-01   1.00800           0   0.00000     -0.301140E-02
     20455 MEMB     165      OYPE     H14S     HAL2     0.900000E-01   1.00800           0   0.00000     -0.301140E-02
     20456 MEMB     165      OYPE     C215     CTL2    -0.180000       12.0110           0   0.00000     -0.301140E-02
     20457 MEMB     165      OYPE     H15R     HAL2     0.900000E-01   1.00800           0   0.00000     -0.301140E-02
     20458 MEMB     165      OYPE     H15S     HAL2     0.900000E-01   1.00800           0   0.00000     -0.301140E-02
     20459 MEMB     165      OYPE     C216     CTL3    -0.270000       12.0110           0   0.00000     -0.301140E-02
     20460 MEMB     165      OYPE     H16R     HAL3     0.900000E-01   1.00800           0   0.00000     -0.301140E-02
     20461 MEMB     165      OYPE     H16S     HAL3     0.900000E-01   1.00800           0   0.00000     -0.301140E-02
     20462 MEMB     165      OYPE     H16T     HAL3     0.900000E-01   1.00800           0   0.00000     -0.301140E-02
     20463 MEMB     165      OYPE     C33      CTL2    -0.180000       12.0110           0   0.00000     -0.301140E-02
     20464 MEMB     165      OYPE     H3X      HAL2     0.900000E-01   1.00800           0   0.00000     -0.301140E-02
     20465 MEMB     165      OYPE     H3Y      HAL2     0.900000E-01   1.00800           0   0.00000     -0.301140E-02
     20466 MEMB     165      OYPE     C34      CTL2    -0.180000       12.0110           0   0.00000     -0.301140E-02
     20467 MEMB     165      OYPE     H4X      HAL2     0.900000E-01   1.00800           0   0.00000     -0.301140E-02
     20468 MEMB     165      OYPE     H4Y      HAL2     0.900000E-01   1.00800           0   0.00000     -0.301140E-02
     20469 MEMB     165      OYPE     C35      CTL2    -0.180000       12.0110           0   0.00000     -0.301140E-02
     20470 MEMB     165      OYPE     H5X      HAL2     0.900000E-01   1.00800           0   0.00000     -0.301140E-02
     20471 MEMB     165      OYPE     H5Y      HAL2     0.900000E-01   1.00800           0   0.00000     -0.301140E-02
     20472 MEMB     165      OYPE     C36      CTL2    -0.180000       12.0110           0   0.00000     -0.301140E-02
     20473 MEMB     165      OYPE     H6X      HAL2     0.900000E-01   1.00800           0   0.00000     -0.301140E-02
     20474 MEMB     165      OYPE     H6Y      HAL2     0.900000E-01   1.00800           0   0.00000     -0.301140E-02
     20475 MEMB     165      OYPE     C37      CTL2    -0.180000       12.0110           0   0.00000     -0.301140E-02
     20476 MEMB     165      OYPE     H7X      HAL2     0.900000E-01   1.00800           0   0.00000     -0.301140E-02
     20477 MEMB     165      OYPE     H7Y      HAL2     0.900000E-01   1.00800           0   0.00000     -0.301140E-02
     20478 MEMB     165      OYPE     C38      CTL2    -0.180000       12.0110           0   0.00000     -0.301140E-02
     20479 MEMB     165      OYPE     H8X      HAL2     0.900000E-01   1.00800           0   0.00000     -0.301140E-02
     20480 MEMB     165      OYPE     H8Y      HAL2     0.900000E-01   1.00800           0   0.00000     -0.301140E-02
     20481 MEMB     165      OYPE     C39      CEL1    -0.150000       12.0110           0   0.00000     -0.301140E-02
     20482 MEMB     165      OYPE     H9X      HEL1     0.150000       1.00800           0   0.00000     -0.301140E-02
     20483 MEMB     165      OYPE     C310     CEL1    -0.150000       12.0110           0   0.00000     -0.301140E-02
     20484 MEMB     165      OYPE     H10X     HEL1     0.150000       1.00800           0   0.00000     -0.301140E-02
     20485 MEMB     165      OYPE     C311     CTL2    -0.180000       12.0110           0   0.00000     -0.301140E-02
     20486 MEMB     165      OYPE     H11X     HAL2     0.900000E-01   1.00800           0   0.00000     -0.301140E-02
     20487 MEMB     165      OYPE     H11Y     HAL2     0.900000E-01   1.00800           0   0.00000     -0.301140E-02
     20488 MEMB     165      OYPE     C312     CTL2    -0.180000       12.0110           0   0.00000     -0.301140E-02
     20489 MEMB     165      OYPE     H12X     HAL2     0.900000E-01   1.00800           0   0.00000     -0.301140E-02
     20490 MEMB     165      OYPE     H12Y     HAL2     0.900000E-01   1.00800           0   0.00000     -0.301140E-02
     20491 MEMB     165      OYPE     C313     CTL2    -0.180000       12.0110           0   0.00000     -0.301140E-02
     20492 MEMB     165      OYPE     H13X     HAL2     0.900000E-01   1.00800           0   0.00000     -0.301140E-02
     20493 MEMB     165      OYPE     H13Y     HAL2     0.900000E-01   1.00800           0   0.00000     -0.301140E-02
     20494 MEMB     165      OYPE     C314     CTL2    -0.180000       12.0110           0   0.00000     -0.301140E-02
     20495 MEMB     165      OYPE     H14X     HAL2     0.900000E-01   1.00800           0   0.00000     -0.301140E-02
     20496 MEMB     165      OYPE     H14Y     HAL2     0.900000E-01   1.00800           0   0.00000     -0.301140E-02
     20497 MEMB     165      OYPE     C315     CTL2    -0.180000       12.0110           0   0.00000     -0.301140E-02
     20498 MEMB     165      OYPE     H15X     HAL2     0.900000E-01   1.00800           0   0.00000     -0.301140E-02
     20499 MEMB     165      OYPE     H15Y     HAL2     0.900000E-01   1.00800           0   0.00000     -0.301140E-02
     20500 MEMB     165      OYPE     C316     CTL2    -0.180000       12.0110           0   0.00000     -0.301140E-02
     20501 MEMB     165      OYPE     H16X     HAL2     0.900000E-01   1.00800           0   0.00000     -0.301140E-02
     20502 MEMB     165      OYPE     H16Y     HAL2     0.900000E-01   1.00800           0   0.00000     -0.301140E-02
     20503 MEMB     165      OYPE     C317     CTL2    -0.180000       12.0110           0   0.00000     -0.301140E-02
     20504 MEMB     165      OYPE     H17X     HAL2     0.900000E-01   1.00800           0   0.00000     -0.301140E-02
     20505 MEMB     165      OYPE     H17Y     HAL2     0.900000E-01   1.00800           0   0.00000     -0.301140E-02
     20506 MEMB     165      OYPE     C318     CTL3    -0.270000       12.0110           0   0.00000     -0.301140E-02
     20507 MEMB     165      OYPE     H18X     HAL3     0.900000E-01   1.00800           0   0.00000     -0.301140E-02
     20508 MEMB     165      OYPE     H18Y     HAL3     0.900000E-01   1.00800           0   0.00000     -0.301140E-02
     20509 MEMB     165      OYPE     H18Z     HAL3     0.900000E-01   1.00800           0   0.00000     -0.301140E-02
     20510 MEMB     166      PMPE     N        NH3L    -0.300000       14.0070           0   0.00000     -0.301140E-02
     20511 MEMB     166      PMPE     HN1      HCL      0.330000       1.00800           0   0.00000     -0.301140E-02
     20512 MEMB     166      PMPE     HN2      HCL      0.330000       1.00800           0   0.00000     -0.301140E-02
     20513 MEMB     166      PMPE     HN3      HCL      0.330000       1.00800           0   0.00000     -0.301140E-02
     20514 MEMB     166      PMPE     C12      CTL2     0.130000       12.0110           0   0.00000     -0.301140E-02
     20515 MEMB     166      PMPE     H12A     HAL2     0.900000E-01   1.00800           0   0.00000     -0.301140E-02
     20516 MEMB     166      PMPE     H12B     HAL2     0.900000E-01   1.00800           0   0.00000     -0.301140E-02
     20517 MEMB     166      PMPE     C11      CTL2    -0.800000E-01   12.0110           0   0.00000     -0.301140E-02
     20518 MEMB     166      PMPE     H11A     HAL2     0.900000E-01   1.00800           0   0.00000     -0.301140E-02
     20519 MEMB     166      PMPE     H11B     HAL2     0.900000E-01   1.00800           0   0.00000     -0.301140E-02
     20520 MEMB     166      PMPE     P        PL        1.50000       30.9740           0   0.00000     -0.301140E-02
     20521 MEMB     166      PMPE     O13      O2L     -0.780000       15.9994           0   0.00000     -0.301140E-02
     20522 MEMB     166      PMPE     O14      O2L     -0.780000       15.9994           0   0.00000     -0.301140E-02
     20523 MEMB     166      PMPE     O11      OSLP    -0.570000       15.9994           0   0.00000     -0.301140E-02
     20524 MEMB     166      PMPE     O12      OSLP    -0.570000       15.9994           0   0.00000     -0.301140E-02
     20525 MEMB     166      PMPE     C1       CTL2    -0.800000E-01   12.0110           0   0.00000     -0.301140E-02
     20526 MEMB     166      PMPE     HA       HAL2     0.900000E-01   1.00800           0   0.00000     -0.301140E-02
     20527 MEMB     166      PMPE     HB       HAL2     0.900000E-01   1.00800           0   0.00000     -0.301140E-02
     20528 MEMB     166      PMPE     C2       CTL1     0.170000       12.0110           0   0.00000     -0.301140E-02
     20529 MEMB     166      PMPE     HS       HAL1     0.900000E-01   1.00800           0   0.00000     -0.301140E-02
     20530 MEMB     166      PMPE     O21      OSL     -0.490000       15.9994           0   0.00000     -0.301140E-02
     20531 MEMB     166      PMPE     C21      CL       0.900000       12.0110           0   0.00000     -0.301140E-02
     20532 MEMB     166      PMPE     O22      OBL     -0.630000       15.9994           0   0.00000     -0.301140E-02
     20533 MEMB     166      PMPE     C22      CTL2    -0.220000       12.0110           0   0.00000     -0.301140E-02
     20534 MEMB     166      PMPE     H2R      HAL2     0.900000E-01   1.00800           0   0.00000     -0.301140E-02
     20535 MEMB     166      PMPE     H2S      HAL2     0.900000E-01   1.00800           0   0.00000     -0.301140E-02
     20536 MEMB     166      PMPE     C3       CTL2     0.800000E-01   12.0110           0   0.00000     -0.301140E-02
     20537 MEMB     166      PMPE     HX       HAL2     0.900000E-01   1.00800           0   0.00000     -0.301140E-02
     20538 MEMB     166      PMPE     HY       HAL2     0.900000E-01   1.00800           0   0.00000     -0.301140E-02
     20539 MEMB     166      PMPE     O31      OSL     -0.490000       15.9994           0   0.00000     -0.301140E-02
     20540 MEMB     166      PMPE     C31      CL       0.900000       12.0110           0   0.00000     -0.301140E-02
     20541 MEMB     166      PMPE     O32      OBL     -0.630000       15.9994           0   0.00000     -0.301140E-02
     20542 MEMB     166      PMPE     C32      CTL2    -0.220000       12.0110           0   0.00000     -0.301140E-02
     20543 MEMB     166      PMPE     H2X      HAL2     0.900000E-01   1.00800           0   0.00000     -0.301140E-02
     20544 MEMB     166      PMPE     H2Y      HAL2     0.900000E-01   1.00800           0   0.00000     -0.301140E-02
     20545 MEMB     166      PMPE     C23      CTL2    -0.180000       12.0110           0   0.00000     -0.301140E-02
     20546 MEMB     166      PMPE     H3R      HAL2     0.900000E-01   1.00800           0   0.00000     -0.301140E-02
     20547 MEMB     166      PMPE     H3S      HAL2     0.900000E-01   1.00800           0   0.00000     -0.301140E-02
     20548 MEMB     166      PMPE     C24      CTL2    -0.180000       12.0110           0   0.00000     -0.301140E-02
     20549 MEMB     166      PMPE     H4R      HAL2     0.900000E-01   1.00800           0   0.00000     -0.301140E-02
     20550 MEMB     166      PMPE     H4S      HAL2     0.900000E-01   1.00800           0   0.00000     -0.301140E-02
     20551 MEMB     166      PMPE     C25      CTL2    -0.180000       12.0110           0   0.00000     -0.301140E-02
     20552 MEMB     166      PMPE     H5R      HAL2     0.900000E-01   1.00800           0   0.00000     -0.301140E-02
     20553 MEMB     166      PMPE     H5S      HAL2     0.900000E-01   1.00800           0   0.00000     -0.301140E-02
     20554 MEMB     166      PMPE     C26      CTL2    -0.180000       12.0110           0   0.00000     -0.301140E-02
     20555 MEMB     166      PMPE     H6R      HAL2     0.900000E-01   1.00800           0   0.00000     -0.301140E-02
     20556 MEMB     166      PMPE     H6S      HAL2     0.900000E-01   1.00800           0   0.00000     -0.301140E-02
     20557 MEMB     166      PMPE     C27      CTL2    -0.180000       12.0110           0   0.00000     -0.301140E-02
     20558 MEMB     166      PMPE     H7R      HAL2     0.900000E-01   1.00800           0   0.00000     -0.301140E-02
     20559 MEMB     166      PMPE     H7S      HAL2     0.900000E-01   1.00800           0   0.00000     -0.301140E-02
     20560 MEMB     166      PMPE     C28      CTL2    -0.180000       12.0110           0   0.00000     -0.301140E-02
     20561 MEMB     166      PMPE     H8R      HAL2     0.900000E-01   1.00800           0   0.00000     -0.301140E-02
     20562 MEMB     166      PMPE     H8S      HAL2     0.900000E-01   1.00800           0   0.00000     -0.301140E-02
     20563 MEMB     166      PMPE     C29      CG3RC1  -0.900000E-01   12.0110           0   0.00000     -0.301140E-02
     20564 MEMB     166      PMPE     H9R      HGA1     0.900000E-01   1.00800           0   0.00000     -0.301140E-02
     20565 MEMB     166      PMPE     C217     CG3C31  -0.180000       12.0110           0   0.00000     -0.301140E-02
     20566 MEMB     166      PMPE     H17R     HGA2     0.900000E-01   1.00800           0   0.00000     -0.301140E-02
     20567 MEMB     166      PMPE     H17S     HGA2     0.900000E-01   1.00800           0   0.00000     -0.301140E-02
     20568 MEMB     166      PMPE     C210     CG3RC1  -0.900000E-01   12.0110           0   0.00000     -0.301140E-02
     20569 MEMB     166      PMPE     H10R     HGA1     0.900000E-01   1.00800           0   0.00000     -0.301140E-02
     20570 MEMB     166      PMPE     C211     CTL2    -0.180000       12.0110           0   0.00000     -0.301140E-02
     20571 MEMB     166      PMPE     H11R     HAL2     0.900000E-01   1.00800           0   0.00000     -0.301140E-02
     20572 MEMB     166      PMPE     H11S     HAL2     0.900000E-01   1.00800           0   0.00000     -0.301140E-02
     20573 MEMB     166      PMPE     C212     CTL2    -0.180000       12.0110           0   0.00000     -0.301140E-02
     20574 MEMB     166      PMPE     H12R     HAL2     0.900000E-01   1.00800           0   0.00000     -0.301140E-02
     20575 MEMB     166      PMPE     H12S     HAL2     0.900000E-01   1.00800           0   0.00000     -0.301140E-02
     20576 MEMB     166      PMPE     C213     CTL2    -0.180000       12.0110           0   0.00000     -0.301140E-02
     20577 MEMB     166      PMPE     H13R     HAL2     0.900000E-01   1.00800           0   0.00000     -0.301140E-02
     20578 MEMB     166      PMPE     H13S     HAL2     0.900000E-01   1.00800           0   0.00000     -0.301140E-02
     20579 MEMB     166      PMPE     C214     CTL2    -0.180000       12.0110           0   0.00000     -0.301140E-02
     20580 MEMB     166      PMPE     H14R     HAL2     0.900000E-01   1.00800           0   0.00000     -0.301140E-02
     20581 MEMB     166      PMPE     H14S     HAL2     0.900000E-01   1.00800           0   0.00000     -0.301140E-02
     20582 MEMB     166      PMPE     C215     CTL2    -0.180000       12.0110           0   0.00000     -0.301140E-02
     20583 MEMB     166      PMPE     H15R     HAL2     0.900000E-01   1.00800           0   0.00000     -0.301140E-02
     20584 MEMB     166      PMPE     H15S     HAL2     0.900000E-01   1.00800           0   0.00000     -0.301140E-02
     20585 MEMB     166      PMPE     C216     CTL3    -0.270000       12.0110           0   0.00000     -0.301140E-02
     20586 MEMB     166      PMPE     H16R     HAL3     0.900000E-01   1.00800           0   0.00000     -0.301140E-02
     20587 MEMB     166      PMPE     H16S     HAL3     0.900000E-01   1.00800           0   0.00000     -0.301140E-02
     20588 MEMB     166      PMPE     H16T     HAL3     0.900000E-01   1.00800           0   0.00000     -0.301140E-02
     20589 MEMB     166      PMPE     C33      CTL2    -0.180000       12.0110           0   0.00000     -0.301140E-02
     20590 MEMB     166      PMPE     H3X      HAL2     0.900000E-01   1.00800           0   0.00000     -0.301140E-02
     20591 MEMB     166      PMPE     H3Y      HAL2     0.900000E-01   1.00800           0   0.00000     -0.301140E-02
     20592 MEMB     166      PMPE     C34      CTL2    -0.180000       12.0110           0   0.00000     -0.301140E-02
     20593 MEMB     166      PMPE     H4X      HAL2     0.900000E-01   1.00800           0   0.00000     -0.301140E-02
     20594 MEMB     166      PMPE     H4Y      HAL2     0.900000E-01   1.00800           0   0.00000     -0.301140E-02
     20595 MEMB     166      PMPE     C35      CTL2    -0.180000       12.0110           0   0.00000     -0.301140E-02
     20596 MEMB     166      PMPE     H5X      HAL2     0.900000E-01   1.00800           0   0.00000     -0.301140E-02
     20597 MEMB     166      PMPE     H5Y      HAL2     0.900000E-01   1.00800           0   0.00000     -0.301140E-02
     20598 MEMB     166      PMPE     C36      CTL2    -0.180000       12.0110           0   0.00000     -0.301140E-02
     20599 MEMB     166      PMPE     H6X      HAL2     0.900000E-01   1.00800           0   0.00000     -0.301140E-02
     20600 MEMB     166      PMPE     H6Y      HAL2     0.900000E-01   1.00800           0   0.00000     -0.301140E-02
     20601 MEMB     166      PMPE     C37      CTL2    -0.180000       12.0110           0   0.00000     -0.301140E-02
     20602 MEMB     166      PMPE     H7X      HAL2     0.900000E-01   1.00800           0   0.00000     -0.301140E-02
     20603 MEMB     166      PMPE     H7Y      HAL2     0.900000E-01   1.00800           0   0.00000     -0.301140E-02
     20604 MEMB     166      PMPE     C38      CTL2    -0.180000       12.0110           0   0.00000     -0.301140E-02
     20605 MEMB     166      PMPE     H8X      HAL2     0.900000E-01   1.00800           0   0.00000     -0.301140E-02
     20606 MEMB     166      PMPE     H8Y      HAL2     0.900000E-01   1.00800           0   0.00000     -0.301140E-02
     20607 MEMB     166      PMPE     C39      CTL2    -0.180000       12.0110           0   0.00000     -0.301140E-02
     20608 MEMB     166      PMPE     H9X      HAL2     0.900000E-01   1.00800           0   0.00000     -0.301140E-02
     20609 MEMB     166      PMPE     H9Y      HAL2     0.900000E-01   1.00800           0   0.00000     -0.301140E-02
     20610 MEMB     166      PMPE     C310     CTL2    -0.180000       12.0110           0   0.00000     -0.301140E-02
     20611 MEMB     166      PMPE     H10X     HAL2     0.900000E-01   1.00800           0   0.00000     -0.301140E-02
     20612 MEMB     166      PMPE     H10Y     HAL2     0.900000E-01   1.00800           0   0.00000     -0.301140E-02
     20613 MEMB     166      PMPE     C311     CTL2    -0.180000       12.0110           0   0.00000     -0.301140E-02
     20614 MEMB     166      PMPE     H11X     HAL2     0.900000E-01   1.00800           0   0.00000     -0.301140E-02
     20615 MEMB     166      PMPE     H11Y     HAL2     0.900000E-01   1.00800           0   0.00000     -0.301140E-02
     20616 MEMB     166      PMPE     C312     CTL2    -0.180000       12.0110           0   0.00000     -0.301140E-02
     20617 MEMB     166      PMPE     H12X     HAL2     0.900000E-01   1.00800           0   0.00000     -0.301140E-02
     20618 MEMB     166      PMPE     H12Y     HAL2     0.900000E-01   1.00800           0   0.00000     -0.301140E-02
     20619 MEMB     166      PMPE     C313     CTL2    -0.180000       12.0110           0   0.00000     -0.301140E-02
     20620 MEMB     166      PMPE     H13X     HAL2     0.900000E-01   1.00800           0   0.00000     -0.301140E-02
     20621 MEMB     166      PMPE     H13Y     HAL2     0.900000E-01   1.00800           0   0.00000     -0.301140E-02
     20622 MEMB     166      PMPE     C314     CTL2    -0.180000       12.0110           0   0.00000     -0.301140E-02
     20623 MEMB     166      PMPE     H14X     HAL2     0.900000E-01   1.00800           0   0.00000     -0.301140E-02
     20624 MEMB     166      PMPE     H14Y     HAL2     0.900000E-01   1.00800           0   0.00000     -0.301140E-02
     20625 MEMB     166      PMPE     C315     CTL2    -0.180000       12.0110           0   0.00000     -0.301140E-02
     20626 MEMB     166      PMPE     H15X     HAL2     0.900000E-01   1.00800           0   0.00000     -0.301140E-02
     20627 MEMB     166      PMPE     H15Y     HAL2     0.900000E-01   1.00800           0   0.00000     -0.301140E-02
     20628 MEMB     166      PMPE     C316     CTL3    -0.270000       12.0110           0   0.00000     -0.301140E-02
     20629 MEMB     166      PMPE     H16X     HAL3     0.900000E-01   1.00800           0   0.00000     -0.301140E-02
     20630 MEMB     166      PMPE     H16Y     HAL3     0.900000E-01   1.00800           0   0.00000     -0.301140E-02
     20631 MEMB     166      PMPE     H16Z     HAL3     0.900000E-01   1.00800           0   0.00000     -0.301140E-02
     20632 MEMB     167      PMPE     N        NH3L    -0.300000       14.0070           0   0.00000     -0.301140E-02
     20633 MEMB     167      PMPE     HN1      HCL      0.330000       1.00800           0   0.00000     -0.301140E-02
     20634 MEMB     167      PMPE     HN2      HCL      0.330000       1.00800           0   0.00000     -0.301140E-02
     20635 MEMB     167      PMPE     HN3      HCL      0.330000       1.00800           0   0.00000     -0.301140E-02
     20636 MEMB     167      PMPE     C12      CTL2     0.130000       12.0110           0   0.00000     -0.301140E-02
     20637 MEMB     167      PMPE     H12A     HAL2     0.900000E-01   1.00800           0   0.00000     -0.301140E-02
     20638 MEMB     167      PMPE     H12B     HAL2     0.900000E-01   1.00800           0   0.00000     -0.301140E-02
     20639 MEMB     167      PMPE     C11      CTL2    -0.800000E-01   12.0110           0   0.00000     -0.301140E-02
     20640 MEMB     167      PMPE     H11A     HAL2     0.900000E-01   1.00800           0   0.00000     -0.301140E-02
     20641 MEMB     167      PMPE     H11B     HAL2     0.900000E-01   1.00800           0   0.00000     -0.301140E-02
     20642 MEMB     167      PMPE     P        PL        1.50000       30.9740           0   0.00000     -0.301140E-02
     20643 MEMB     167      PMPE     O13      O2L     -0.780000       15.9994           0   0.00000     -0.301140E-02
     20644 MEMB     167      PMPE     O14      O2L     -0.780000       15.9994           0   0.00000     -0.301140E-02
     20645 MEMB     167      PMPE     O11      OSLP    -0.570000       15.9994           0   0.00000     -0.301140E-02
     20646 MEMB     167      PMPE     O12      OSLP    -0.570000       15.9994           0   0.00000     -0.301140E-02
     20647 MEMB     167      PMPE     C1       CTL2    -0.800000E-01   12.0110           0   0.00000     -0.301140E-02
     20648 MEMB     167      PMPE     HA       HAL2     0.900000E-01   1.00800           0   0.00000     -0.301140E-02
     20649 MEMB     167      PMPE     HB       HAL2     0.900000E-01   1.00800           0   0.00000     -0.301140E-02
     20650 MEMB     167      PMPE     C2       CTL1     0.170000       12.0110           0   0.00000     -0.301140E-02
     20651 MEMB     167      PMPE     HS       HAL1     0.900000E-01   1.00800           0   0.00000     -0.301140E-02
     20652 MEMB     167      PMPE     O21      OSL     -0.490000       15.9994           0   0.00000     -0.301140E-02
     20653 MEMB     167      PMPE     C21      CL       0.900000       12.0110           0   0.00000     -0.301140E-02
     20654 MEMB     167      PMPE     O22      OBL     -0.630000       15.9994           0   0.00000     -0.301140E-02
     20655 MEMB     167      PMPE     C22      CTL2    -0.220000       12.0110           0   0.00000     -0.301140E-02
     20656 MEMB     167      PMPE     H2R      HAL2     0.900000E-01   1.00800           0   0.00000     -0.301140E-02
     20657 MEMB     167      PMPE     H2S      HAL2     0.900000E-01   1.00800           0   0.00000     -0.301140E-02
     20658 MEMB     167      PMPE     C3       CTL2     0.800000E-01   12.0110           0   0.00000     -0.301140E-02
     20659 MEMB     167      PMPE     HX       HAL2     0.900000E-01   1.00800           0   0.00000     -0.301140E-02
     20660 MEMB     167      PMPE     HY       HAL2     0.900000E-01   1.00800           0   0.00000     -0.301140E-02
     20661 MEMB     167      PMPE     O31      OSL     -0.490000       15.9994           0   0.00000     -0.301140E-02
     20662 MEMB     167      PMPE     C31      CL       0.900000       12.0110           0   0.00000     -0.301140E-02
     20663 MEMB     167      PMPE     O32      OBL     -0.630000       15.9994           0   0.00000     -0.301140E-02
     20664 MEMB     167      PMPE     C32      CTL2    -0.220000       12.0110           0   0.00000     -0.301140E-02
     20665 MEMB     167      PMPE     H2X      HAL2     0.900000E-01   1.00800           0   0.00000     -0.301140E-02
     20666 MEMB     167      PMPE     H2Y      HAL2     0.900000E-01   1.00800           0   0.00000     -0.301140E-02
     20667 MEMB     167      PMPE     C23      CTL2    -0.180000       12.0110           0   0.00000     -0.301140E-02
     20668 MEMB     167      PMPE     H3R      HAL2     0.900000E-01   1.00800           0   0.00000     -0.301140E-02
     20669 MEMB     167      PMPE     H3S      HAL2     0.900000E-01   1.00800           0   0.00000     -0.301140E-02
     20670 MEMB     167      PMPE     C24      CTL2    -0.180000       12.0110           0   0.00000     -0.301140E-02
     20671 MEMB     167      PMPE     H4R      HAL2     0.900000E-01   1.00800           0   0.00000     -0.301140E-02
     20672 MEMB     167      PMPE     H4S      HAL2     0.900000E-01   1.00800           0   0.00000     -0.301140E-02
     20673 MEMB     167      PMPE     C25      CTL2    -0.180000       12.0110           0   0.00000     -0.301140E-02
     20674 MEMB     167      PMPE     H5R      HAL2     0.900000E-01   1.00800           0   0.00000     -0.301140E-02
     20675 MEMB     167      PMPE     H5S      HAL2     0.900000E-01   1.00800           0   0.00000     -0.301140E-02
     20676 MEMB     167      PMPE     C26      CTL2    -0.180000       12.0110           0   0.00000     -0.301140E-02
     20677 MEMB     167      PMPE     H6R      HAL2     0.900000E-01   1.00800           0   0.00000     -0.301140E-02
     20678 MEMB     167      PMPE     H6S      HAL2     0.900000E-01   1.00800           0   0.00000     -0.301140E-02
     20679 MEMB     167      PMPE     C27      CTL2    -0.180000       12.0110           0   0.00000     -0.301140E-02
     20680 MEMB     167      PMPE     H7R      HAL2     0.900000E-01   1.00800           0   0.00000     -0.301140E-02
     20681 MEMB     167      PMPE     H7S      HAL2     0.900000E-01   1.00800           0   0.00000     -0.301140E-02
     20682 MEMB     167      PMPE     C28      CTL2    -0.180000       12.0110           0   0.00000     -0.301140E-02
     20683 MEMB     167      PMPE     H8R      HAL2     0.900000E-01   1.00800           0   0.00000     -0.301140E-02
     20684 MEMB     167      PMPE     H8S      HAL2     0.900000E-01   1.00800           0   0.00000     -0.301140E-02
     20685 MEMB     167      PMPE     C29      CG3RC1  -0.900000E-01   12.0110           0   0.00000     -0.301140E-02
     20686 MEMB     167      PMPE     H9R      HGA1     0.900000E-01   1.00800           0   0.00000     -0.301140E-02
     20687 MEMB     167      PMPE     C217     CG3C31  -0.180000       12.0110           0   0.00000     -0.301140E-02
     20688 MEMB     167      PMPE     H17R     HGA2     0.900000E-01   1.00800           0   0.00000     -0.301140E-02
     20689 MEMB     167      PMPE     H17S     HGA2     0.900000E-01   1.00800           0   0.00000     -0.301140E-02
     20690 MEMB     167      PMPE     C210     CG3RC1  -0.900000E-01   12.0110           0   0.00000     -0.301140E-02
     20691 MEMB     167      PMPE     H10R     HGA1     0.900000E-01   1.00800           0   0.00000     -0.301140E-02
     20692 MEMB     167      PMPE     C211     CTL2    -0.180000       12.0110           0   0.00000     -0.301140E-02
     20693 MEMB     167      PMPE     H11R     HAL2     0.900000E-01   1.00800           0   0.00000     -0.301140E-02
     20694 MEMB     167      PMPE     H11S     HAL2     0.900000E-01   1.00800           0   0.00000     -0.301140E-02
     20695 MEMB     167      PMPE     C212     CTL2    -0.180000       12.0110           0   0.00000     -0.301140E-02
     20696 MEMB     167      PMPE     H12R     HAL2     0.900000E-01   1.00800           0   0.00000     -0.301140E-02
     20697 MEMB     167      PMPE     H12S     HAL2     0.900000E-01   1.00800           0   0.00000     -0.301140E-02
     20698 MEMB     167      PMPE     C213     CTL2    -0.180000       12.0110           0   0.00000     -0.301140E-02
     20699 MEMB     167      PMPE     H13R     HAL2     0.900000E-01   1.00800           0   0.00000     -0.301140E-02
     20700 MEMB     167      PMPE     H13S     HAL2     0.900000E-01   1.00800           0   0.00000     -0.301140E-02
     20701 MEMB     167      PMPE     C214     CTL2    -0.180000       12.0110           0   0.00000     -0.301140E-02
     20702 MEMB     167      PMPE     H14R     HAL2     0.900000E-01   1.00800           0   0.00000     -0.301140E-02
     20703 MEMB     167      PMPE     H14S     HAL2     0.900000E-01   1.00800           0   0.00000     -0.301140E-02
     20704 MEMB     167      PMPE     C215     CTL2    -0.180000       12.0110           0   0.00000     -0.301140E-02
     20705 MEMB     167      PMPE     H15R     HAL2     0.900000E-01   1.00800           0   0.00000     -0.301140E-02
     20706 MEMB     167      PMPE     H15S     HAL2     0.900000E-01   1.00800           0   0.00000     -0.301140E-02
     20707 MEMB     167      PMPE     C216     CTL3    -0.270000       12.0110           0   0.00000     -0.301140E-02
     20708 MEMB     167      PMPE     H16R     HAL3     0.900000E-01   1.00800           0   0.00000     -0.301140E-02
     20709 MEMB     167      PMPE     H16S     HAL3     0.900000E-01   1.00800           0   0.00000     -0.301140E-02
     20710 MEMB     167      PMPE     H16T     HAL3     0.900000E-01   1.00800           0   0.00000     -0.301140E-02
     20711 MEMB     167      PMPE     C33      CTL2    -0.180000       12.0110           0   0.00000     -0.301140E-02
     20712 MEMB     167      PMPE     H3X      HAL2     0.900000E-01   1.00800           0   0.00000     -0.301140E-02
     20713 MEMB     167      PMPE     H3Y      HAL2     0.900000E-01   1.00800           0   0.00000     -0.301140E-02
     20714 MEMB     167      PMPE     C34      CTL2    -0.180000       12.0110           0   0.00000     -0.301140E-02
     20715 MEMB     167      PMPE     H4X      HAL2     0.900000E-01   1.00800           0   0.00000     -0.301140E-02
     20716 MEMB     167      PMPE     H4Y      HAL2     0.900000E-01   1.00800           0   0.00000     -0.301140E-02
     20717 MEMB     167      PMPE     C35      CTL2    -0.180000       12.0110           0   0.00000     -0.301140E-02
     20718 MEMB     167      PMPE     H5X      HAL2     0.900000E-01   1.00800           0   0.00000     -0.301140E-02
     20719 MEMB     167      PMPE     H5Y      HAL2     0.900000E-01   1.00800           0   0.00000     -0.301140E-02
     20720 MEMB     167      PMPE     C36      CTL2    -0.180000       12.0110           0   0.00000     -0.301140E-02
     20721 MEMB     167      PMPE     H6X      HAL2     0.900000E-01   1.00800           0   0.00000     -0.301140E-02
     20722 MEMB     167      PMPE     H6Y      HAL2     0.900000E-01   1.00800           0   0.00000     -0.301140E-02
     20723 MEMB     167      PMPE     C37      CTL2    -0.180000       12.0110           0   0.00000     -0.301140E-02
     20724 MEMB     167      PMPE     H7X      HAL2     0.900000E-01   1.00800           0   0.00000     -0.301140E-02
     20725 MEMB     167      PMPE     H7Y      HAL2     0.900000E-01   1.00800           0   0.00000     -0.301140E-02
     20726 MEMB     167      PMPE     C38      CTL2    -0.180000       12.0110           0   0.00000     -0.301140E-02
     20727 MEMB     167      PMPE     H8X      HAL2     0.900000E-01   1.00800           0   0.00000     -0.301140E-02
     20728 MEMB     167      PMPE     H8Y      HAL2     0.900000E-01   1.00800           0   0.00000     -0.301140E-02
     20729 MEMB     167      PMPE     C39      CTL2    -0.180000       12.0110           0   0.00000     -0.301140E-02
     20730 MEMB     167      PMPE     H9X      HAL2     0.900000E-01   1.00800           0   0.00000     -0.301140E-02
     20731 MEMB     167      PMPE     H9Y      HAL2     0.900000E-01   1.00800           0   0.00000     -0.301140E-02
     20732 MEMB     167      PMPE     C310     CTL2    -0.180000       12.0110           0   0.00000     -0.301140E-02
     20733 MEMB     167      PMPE     H10X     HAL2     0.900000E-01   1.00800           0   0.00000     -0.301140E-02
     20734 MEMB     167      PMPE     H10Y     HAL2     0.900000E-01   1.00800           0   0.00000     -0.301140E-02
     20735 MEMB     167      PMPE     C311     CTL2    -0.180000       12.0110           0   0.00000     -0.301140E-02
     20736 MEMB     167      PMPE     H11X     HAL2     0.900000E-01   1.00800           0   0.00000     -0.301140E-02
     20737 MEMB     167      PMPE     H11Y     HAL2     0.900000E-01   1.00800           0   0.00000     -0.301140E-02
     20738 MEMB     167      PMPE     C312     CTL2    -0.180000       12.0110           0   0.00000     -0.301140E-02
     20739 MEMB     167      PMPE     H12X     HAL2     0.900000E-01   1.00800           0   0.00000     -0.301140E-02
     20740 MEMB     167      PMPE     H12Y     HAL2     0.900000E-01   1.00800           0   0.00000     -0.301140E-02
     20741 MEMB     167      PMPE     C313     CTL2    -0.180000       12.0110           0   0.00000     -0.301140E-02
     20742 MEMB     167      PMPE     H13X     HAL2     0.900000E-01   1.00800           0   0.00000     -0.301140E-02
     20743 MEMB     167      PMPE     H13Y     HAL2     0.900000E-01   1.00800           0   0.00000     -0.301140E-02
     20744 MEMB     167      PMPE     C314     CTL2    -0.180000       12.0110           0   0.00000     -0.301140E-02
     20745 MEMB     167      PMPE     H14X     HAL2     0.900000E-01   1.00800           0   0.00000     -0.301140E-02
     20746 MEMB     167      PMPE     H14Y     HAL2     0.900000E-01   1.00800           0   0.00000     -0.301140E-02
     20747 MEMB     167      PMPE     C315     CTL2    -0.180000       12.0110           0   0.00000     -0.301140E-02
     20748 MEMB     167      PMPE     H15X     HAL2     0.900000E-01   1.00800           0   0.00000     -0.301140E-02
     20749 MEMB     167      PMPE     H15Y     HAL2     0.900000E-01   1.00800           0   0.00000     -0.301140E-02
     20750 MEMB     167      PMPE     C316     CTL3    -0.270000       12.0110           0   0.00000     -0.301140E-02
     20751 MEMB     167      PMPE     H16X     HAL3     0.900000E-01   1.00800           0   0.00000     -0.301140E-02
     20752 MEMB     167      PMPE     H16Y     HAL3     0.900000E-01   1.00800           0   0.00000     -0.301140E-02
     20753 MEMB     167      PMPE     H16Z     HAL3     0.900000E-01   1.00800           0   0.00000     -0.301140E-02
     20754 MEMB     168      PMPE     N        NH3L    -0.300000       14.0070           0   0.00000     -0.301140E-02
     20755 MEMB     168      PMPE     HN1      HCL      0.330000       1.00800           0   0.00000     -0.301140E-02
     20756 MEMB     168      PMPE     HN2      HCL      0.330000       1.00800           0   0.00000     -0.301140E-02
     20757 MEMB     168      PMPE     HN3      HCL      0.330000       1.00800           0   0.00000     -0.301140E-02
     20758 MEMB     168      PMPE     C12      CTL2     0.130000       12.0110           0   0.00000     -0.301140E-02
     20759 MEMB     168      PMPE     H12A     HAL2     0.900000E-01   1.00800           0   0.00000     -0.301140E-02
     20760 MEMB     168      PMPE     H12B     HAL2     0.900000E-01   1.00800           0   0.00000     -0.301140E-02
     20761 MEMB     168      PMPE     C11      CTL2    -0.800000E-01   12.0110           0   0.00000     -0.301140E-02
     20762 MEMB     168      PMPE     H11A     HAL2     0.900000E-01   1.00800           0   0.00000     -0.301140E-02
     20763 MEMB     168      PMPE     H11B     HAL2     0.900000E-01   1.00800           0   0.00000     -0.301140E-02
     20764 MEMB     168      PMPE     P        PL        1.50000       30.9740           0   0.00000     -0.301140E-02
     20765 MEMB     168      PMPE     O13      O2L     -0.780000       15.9994           0   0.00000     -0.301140E-02
     20766 MEMB     168      PMPE     O14      O2L     -0.780000       15.9994           0   0.00000     -0.301140E-02
     20767 MEMB     168      PMPE     O11      OSLP    -0.570000       15.9994           0   0.00000     -0.301140E-02
     20768 MEMB     168      PMPE     O12      OSLP    -0.570000       15.9994           0   0.00000     -0.301140E-02
     20769 MEMB     168      PMPE     C1       CTL2    -0.800000E-01   12.0110           0   0.00000     -0.301140E-02
     20770 MEMB     168      PMPE     HA       HAL2     0.900000E-01   1.00800           0   0.00000     -0.301140E-02
     20771 MEMB     168      PMPE     HB       HAL2     0.900000E-01   1.00800           0   0.00000     -0.301140E-02
     20772 MEMB     168      PMPE     C2       CTL1     0.170000       12.0110           0   0.00000     -0.301140E-02
     20773 MEMB     168      PMPE     HS       HAL1     0.900000E-01   1.00800           0   0.00000     -0.301140E-02
     20774 MEMB     168      PMPE     O21      OSL     -0.490000       15.9994           0   0.00000     -0.301140E-02
     20775 MEMB     168      PMPE     C21      CL       0.900000       12.0110           0   0.00000     -0.301140E-02
     20776 MEMB     168      PMPE     O22      OBL     -0.630000       15.9994           0   0.00000     -0.301140E-02
     20777 MEMB     168      PMPE     C22      CTL2    -0.220000       12.0110           0   0.00000     -0.301140E-02
     20778 MEMB     168      PMPE     H2R      HAL2     0.900000E-01   1.00800           0   0.00000     -0.301140E-02
     20779 MEMB     168      PMPE     H2S      HAL2     0.900000E-01   1.00800           0   0.00000     -0.301140E-02
     20780 MEMB     168      PMPE     C3       CTL2     0.800000E-01   12.0110           0   0.00000     -0.301140E-02
     20781 MEMB     168      PMPE     HX       HAL2     0.900000E-01   1.00800           0   0.00000     -0.301140E-02
     20782 MEMB     168      PMPE     HY       HAL2     0.900000E-01   1.00800           0   0.00000     -0.301140E-02
     20783 MEMB     168      PMPE     O31      OSL     -0.490000       15.9994           0   0.00000     -0.301140E-02
     20784 MEMB     168      PMPE     C31      CL       0.900000       12.0110           0   0.00000     -0.301140E-02
     20785 MEMB     168      PMPE     O32      OBL     -0.630000       15.9994           0   0.00000     -0.301140E-02
     20786 MEMB     168      PMPE     C32      CTL2    -0.220000       12.0110           0   0.00000     -0.301140E-02
     20787 MEMB     168      PMPE     H2X      HAL2     0.900000E-01   1.00800           0   0.00000     -0.301140E-02
     20788 MEMB     168      PMPE     H2Y      HAL2     0.900000E-01   1.00800           0   0.00000     -0.301140E-02
     20789 MEMB     168      PMPE     C23      CTL2    -0.180000       12.0110           0   0.00000     -0.301140E-02
     20790 MEMB     168      PMPE     H3R      HAL2     0.900000E-01   1.00800           0   0.00000     -0.301140E-02
     20791 MEMB     168      PMPE     H3S      HAL2     0.900000E-01   1.00800           0   0.00000     -0.301140E-02
     20792 MEMB     168      PMPE     C24      CTL2    -0.180000       12.0110           0   0.00000     -0.301140E-02
     20793 MEMB     168      PMPE     H4R      HAL2     0.900000E-01   1.00800           0   0.00000     -0.301140E-02
     20794 MEMB     168      PMPE     H4S      HAL2     0.900000E-01   1.00800           0   0.00000     -0.301140E-02
     20795 MEMB     168      PMPE     C25      CTL2    -0.180000       12.0110           0   0.00000     -0.301140E-02
     20796 MEMB     168      PMPE     H5R      HAL2     0.900000E-01   1.00800           0   0.00000     -0.301140E-02
     20797 MEMB     168      PMPE     H5S      HAL2     0.900000E-01   1.00800           0   0.00000     -0.301140E-02
     20798 MEMB     168      PMPE     C26      CTL2    -0.180000       12.0110           0   0.00000     -0.301140E-02
     20799 MEMB     168      PMPE     H6R      HAL2     0.900000E-01   1.00800           0   0.00000     -0.301140E-02
     20800 MEMB     168      PMPE     H6S      HAL2     0.900000E-01   1.00800           0   0.00000     -0.301140E-02
     20801 MEMB     168      PMPE     C27      CTL2    -0.180000       12.0110           0   0.00000     -0.301140E-02
     20802 MEMB     168      PMPE     H7R      HAL2     0.900000E-01   1.00800           0   0.00000     -0.301140E-02
     20803 MEMB     168      PMPE     H7S      HAL2     0.900000E-01   1.00800           0   0.00000     -0.301140E-02
     20804 MEMB     168      PMPE     C28      CTL2    -0.180000       12.0110           0   0.00000     -0.301140E-02
     20805 MEMB     168      PMPE     H8R      HAL2     0.900000E-01   1.00800           0   0.00000     -0.301140E-02
     20806 MEMB     168      PMPE     H8S      HAL2     0.900000E-01   1.00800           0   0.00000     -0.301140E-02
     20807 MEMB     168      PMPE     C29      CG3RC1  -0.900000E-01   12.0110           0   0.00000     -0.301140E-02
     20808 MEMB     168      PMPE     H9R      HGA1     0.900000E-01   1.00800           0   0.00000     -0.301140E-02
     20809 MEMB     168      PMPE     C217     CG3C31  -0.180000       12.0110           0   0.00000     -0.301140E-02
     20810 MEMB     168      PMPE     H17R     HGA2     0.900000E-01   1.00800           0   0.00000     -0.301140E-02
     20811 MEMB     168      PMPE     H17S     HGA2     0.900000E-01   1.00800           0   0.00000     -0.301140E-02
     20812 MEMB     168      PMPE     C210     CG3RC1  -0.900000E-01   12.0110           0   0.00000     -0.301140E-02
     20813 MEMB     168      PMPE     H10R     HGA1     0.900000E-01   1.00800           0   0.00000     -0.301140E-02
     20814 MEMB     168      PMPE     C211     CTL2    -0.180000       12.0110           0   0.00000     -0.301140E-02
     20815 MEMB     168      PMPE     H11R     HAL2     0.900000E-01   1.00800           0   0.00000     -0.301140E-02
     20816 MEMB     168      PMPE     H11S     HAL2     0.900000E-01   1.00800           0   0.00000     -0.301140E-02
     20817 MEMB     168      PMPE     C212     CTL2    -0.180000       12.0110           0   0.00000     -0.301140E-02
     20818 MEMB     168      PMPE     H12R     HAL2     0.900000E-01   1.00800           0   0.00000     -0.301140E-02
     20819 MEMB     168      PMPE     H12S     HAL2     0.900000E-01   1.00800           0   0.00000     -0.301140E-02
     20820 MEMB     168      PMPE     C213     CTL2    -0.180000       12.0110           0   0.00000     -0.301140E-02
     20821 MEMB     168      PMPE     H13R     HAL2     0.900000E-01   1.00800           0   0.00000     -0.301140E-02
     20822 MEMB     168      PMPE     H13S     HAL2     0.900000E-01   1.00800           0   0.00000     -0.301140E-02
     20823 MEMB     168      PMPE     C214     CTL2    -0.180000       12.0110           0   0.00000     -0.301140E-02
     20824 MEMB     168      PMPE     H14R     HAL2     0.900000E-01   1.00800           0   0.00000     -0.301140E-02
     20825 MEMB     168      PMPE     H14S     HAL2     0.900000E-01   1.00800           0   0.00000     -0.301140E-02
     20826 MEMB     168      PMPE     C215     CTL2    -0.180000       12.0110           0   0.00000     -0.301140E-02
     20827 MEMB     168      PMPE     H15R     HAL2     0.900000E-01   1.00800           0   0.00000     -0.301140E-02
     20828 MEMB     168      PMPE     H15S     HAL2     0.900000E-01   1.00800           0   0.00000     -0.301140E-02
     20829 MEMB     168      PMPE     C216     CTL3    -0.270000       12.0110           0   0.00000     -0.301140E-02
     20830 MEMB     168      PMPE     H16R     HAL3     0.900000E-01   1.00800           0   0.00000     -0.301140E-02
     20831 MEMB     168      PMPE     H16S     HAL3     0.900000E-01   1.00800           0   0.00000     -0.301140E-02
     20832 MEMB     168      PMPE     H16T     HAL3     0.900000E-01   1.00800           0   0.00000     -0.301140E-02
     20833 MEMB     168      PMPE     C33      CTL2    -0.180000       12.0110           0   0.00000     -0.301140E-02
     20834 MEMB     168      PMPE     H3X      HAL2     0.900000E-01   1.00800           0   0.00000     -0.301140E-02
     20835 MEMB     168      PMPE     H3Y      HAL2     0.900000E-01   1.00800           0   0.00000     -0.301140E-02
     20836 MEMB     168      PMPE     C34      CTL2    -0.180000       12.0110           0   0.00000     -0.301140E-02
     20837 MEMB     168      PMPE     H4X      HAL2     0.900000E-01   1.00800           0   0.00000     -0.301140E-02
     20838 MEMB     168      PMPE     H4Y      HAL2     0.900000E-01   1.00800           0   0.00000     -0.301140E-02
     20839 MEMB     168      PMPE     C35      CTL2    -0.180000       12.0110           0   0.00000     -0.301140E-02
     20840 MEMB     168      PMPE     H5X      HAL2     0.900000E-01   1.00800           0   0.00000     -0.301140E-02
     20841 MEMB     168      PMPE     H5Y      HAL2     0.900000E-01   1.00800           0   0.00000     -0.301140E-02
     20842 MEMB     168      PMPE     C36      CTL2    -0.180000       12.0110           0   0.00000     -0.301140E-02
     20843 MEMB     168      PMPE     H6X      HAL2     0.900000E-01   1.00800           0   0.00000     -0.301140E-02
     20844 MEMB     168      PMPE     H6Y      HAL2     0.900000E-01   1.00800           0   0.00000     -0.301140E-02
     20845 MEMB     168      PMPE     C37      CTL2    -0.180000       12.0110           0   0.00000     -0.301140E-02
     20846 MEMB     168      PMPE     H7X      HAL2     0.900000E-01   1.00800           0   0.00000     -0.301140E-02
     20847 MEMB     168      PMPE     H7Y      HAL2     0.900000E-01   1.00800           0   0.00000     -0.301140E-02
     20848 MEMB     168      PMPE     C38      CTL2    -0.180000       12.0110           0   0.00000     -0.301140E-02
     20849 MEMB     168      PMPE     H8X      HAL2     0.900000E-01   1.00800           0   0.00000     -0.301140E-02
     20850 MEMB     168      PMPE     H8Y      HAL2     0.900000E-01   1.00800           0   0.00000     -0.301140E-02
     20851 MEMB     168      PMPE     C39      CTL2    -0.180000       12.0110           0   0.00000     -0.301140E-02
     20852 MEMB     168      PMPE     H9X      HAL2     0.900000E-01   1.00800           0   0.00000     -0.301140E-02
     20853 MEMB     168      PMPE     H9Y      HAL2     0.900000E-01   1.00800           0   0.00000     -0.301140E-02
     20854 MEMB     168      PMPE     C310     CTL2    -0.180000       12.0110           0   0.00000     -0.301140E-02
     20855 MEMB     168      PMPE     H10X     HAL2     0.900000E-01   1.00800           0   0.00000     -0.301140E-02
     20856 MEMB     168      PMPE     H10Y     HAL2     0.900000E-01   1.00800           0   0.00000     -0.301140E-02
     20857 MEMB     168      PMPE     C311     CTL2    -0.180000       12.0110           0   0.00000     -0.301140E-02
     20858 MEMB     168      PMPE     H11X     HAL2     0.900000E-01   1.00800           0   0.00000     -0.301140E-02
     20859 MEMB     168      PMPE     H11Y     HAL2     0.900000E-01   1.00800           0   0.00000     -0.301140E-02
     20860 MEMB     168      PMPE     C312     CTL2    -0.180000       12.0110           0   0.00000     -0.301140E-02
     20861 MEMB     168      PMPE     H12X     HAL2     0.900000E-01   1.00800           0   0.00000     -0.301140E-02
     20862 MEMB     168      PMPE     H12Y     HAL2     0.900000E-01   1.00800           0   0.00000     -0.301140E-02
     20863 MEMB     168      PMPE     C313     CTL2    -0.180000       12.0110           0   0.00000     -0.301140E-02
     20864 MEMB     168      PMPE     H13X     HAL2     0.900000E-01   1.00800           0   0.00000     -0.301140E-02
     20865 MEMB     168      PMPE     H13Y     HAL2     0.900000E-01   1.00800           0   0.00000     -0.301140E-02
     20866 MEMB     168      PMPE     C314     CTL2    -0.180000       12.0110           0   0.00000     -0.301140E-02
     20867 MEMB     168      PMPE     H14X     HAL2     0.900000E-01   1.00800           0   0.00000     -0.301140E-02
     20868 MEMB     168      PMPE     H14Y     HAL2     0.900000E-01   1.00800           0   0.00000     -0.301140E-02
     20869 MEMB     168      PMPE     C315     CTL2    -0.180000       12.0110           0   0.00000     -0.301140E-02
     20870 MEMB     168      PMPE     H15X     HAL2     0.900000E-01   1.00800           0   0.00000     -0.301140E-02
     20871 MEMB     168      PMPE     H15Y     HAL2     0.900000E-01   1.00800           0   0.00000     -0.301140E-02
     20872 MEMB     168      PMPE     C316     CTL3    -0.270000       12.0110           0   0.00000     -0.301140E-02
     20873 MEMB     168      PMPE     H16X     HAL3     0.900000E-01   1.00800           0   0.00000     -0.301140E-02
     20874 MEMB     168      PMPE     H16Y     HAL3     0.900000E-01   1.00800           0   0.00000     -0.301140E-02
     20875 MEMB     168      PMPE     H16Z     HAL3     0.900000E-01   1.00800           0   0.00000     -0.301140E-02
     20876 MEMB     169      POPE     N        NH3L    -0.300000       14.0070           0   0.00000     -0.301140E-02
     20877 MEMB     169      POPE     HN1      HCL      0.330000       1.00800           0   0.00000     -0.301140E-02
     20878 MEMB     169      POPE     HN2      HCL      0.330000       1.00800           0   0.00000     -0.301140E-02
     20879 MEMB     169      POPE     HN3      HCL      0.330000       1.00800           0   0.00000     -0.301140E-02
     20880 MEMB     169      POPE     C12      CTL2     0.130000       12.0110           0   0.00000     -0.301140E-02
     20881 MEMB     169      POPE     H12A     HAL2     0.900000E-01   1.00800           0   0.00000     -0.301140E-02
     20882 MEMB     169      POPE     H12B     HAL2     0.900000E-01   1.00800           0   0.00000     -0.301140E-02
     20883 MEMB     169      POPE     C11      CTL2    -0.800000E-01   12.0110           0   0.00000     -0.301140E-02
     20884 MEMB     169      POPE     H11A     HAL2     0.900000E-01   1.00800           0   0.00000     -0.301140E-02
     20885 MEMB     169      POPE     H11B     HAL2     0.900000E-01   1.00800           0   0.00000     -0.301140E-02
     20886 MEMB     169      POPE     P        PL        1.50000       30.9740           0   0.00000     -0.301140E-02
     20887 MEMB     169      POPE     O13      O2L     -0.780000       15.9994           0   0.00000     -0.301140E-02
     20888 MEMB     169      POPE     O14      O2L     -0.780000       15.9994           0   0.00000     -0.301140E-02
     20889 MEMB     169      POPE     O11      OSLP    -0.570000       15.9994           0   0.00000     -0.301140E-02
     20890 MEMB     169      POPE     O12      OSLP    -0.570000       15.9994           0   0.00000     -0.301140E-02
     20891 MEMB     169      POPE     C1       CTL2    -0.800000E-01   12.0110           0   0.00000     -0.301140E-02
     20892 MEMB     169      POPE     HA       HAL2     0.900000E-01   1.00800           0   0.00000     -0.301140E-02
     20893 MEMB     169      POPE     HB       HAL2     0.900000E-01   1.00800           0   0.00000     -0.301140E-02
     20894 MEMB     169      POPE     C2       CTL1     0.170000       12.0110           0   0.00000     -0.301140E-02
     20895 MEMB     169      POPE     HS       HAL1     0.900000E-01   1.00800           0   0.00000     -0.301140E-02
     20896 MEMB     169      POPE     O21      OSL     -0.490000       15.9994           0   0.00000     -0.301140E-02
     20897 MEMB     169      POPE     C21      CL       0.900000       12.0110           0   0.00000     -0.301140E-02
     20898 MEMB     169      POPE     O22      OBL     -0.630000       15.9994           0   0.00000     -0.301140E-02
     20899 MEMB     169      POPE     C22      CTL2    -0.220000       12.0110           0   0.00000     -0.301140E-02
     20900 MEMB     169      POPE     H2R      HAL2     0.900000E-01   1.00800           0   0.00000     -0.301140E-02
     20901 MEMB     169      POPE     H2S      HAL2     0.900000E-01   1.00800           0   0.00000     -0.301140E-02
     20902 MEMB     169      POPE     C3       CTL2     0.800000E-01   12.0110           0   0.00000     -0.301140E-02
     20903 MEMB     169      POPE     HX       HAL2     0.900000E-01   1.00800           0   0.00000     -0.301140E-02
     20904 MEMB     169      POPE     HY       HAL2     0.900000E-01   1.00800           0   0.00000     -0.301140E-02
     20905 MEMB     169      POPE     O31      OSL     -0.490000       15.9994           0   0.00000     -0.301140E-02
     20906 MEMB     169      POPE     C31      CL       0.900000       12.0110           0   0.00000     -0.301140E-02
     20907 MEMB     169      POPE     O32      OBL     -0.630000       15.9994           0   0.00000     -0.301140E-02
     20908 MEMB     169      POPE     C32      CTL2    -0.220000       12.0110           0   0.00000     -0.301140E-02
     20909 MEMB     169      POPE     H2X      HAL2     0.900000E-01   1.00800           0   0.00000     -0.301140E-02
     20910 MEMB     169      POPE     H2Y      HAL2     0.900000E-01   1.00800           0   0.00000     -0.301140E-02
     20911 MEMB     169      POPE     C23      CTL2    -0.180000       12.0110           0   0.00000     -0.301140E-02
     20912 MEMB     169      POPE     H3R      HAL2     0.900000E-01   1.00800           0   0.00000     -0.301140E-02
     20913 MEMB     169      POPE     H3S      HAL2     0.900000E-01   1.00800           0   0.00000     -0.301140E-02
     20914 MEMB     169      POPE     C24      CTL2    -0.180000       12.0110           0   0.00000     -0.301140E-02
     20915 MEMB     169      POPE     H4R      HAL2     0.900000E-01   1.00800           0   0.00000     -0.301140E-02
     20916 MEMB     169      POPE     H4S      HAL2     0.900000E-01   1.00800           0   0.00000     -0.301140E-02
     20917 MEMB     169      POPE     C25      CTL2    -0.180000       12.0110           0   0.00000     -0.301140E-02
     20918 MEMB     169      POPE     H5R      HAL2     0.900000E-01   1.00800           0   0.00000     -0.301140E-02
     20919 MEMB     169      POPE     H5S      HAL2     0.900000E-01   1.00800           0   0.00000     -0.301140E-02
     20920 MEMB     169      POPE     C26      CTL2    -0.180000       12.0110           0   0.00000     -0.301140E-02
     20921 MEMB     169      POPE     H6R      HAL2     0.900000E-01   1.00800           0   0.00000     -0.301140E-02
     20922 MEMB     169      POPE     H6S      HAL2     0.900000E-01   1.00800           0   0.00000     -0.301140E-02
     20923 MEMB     169      POPE     C27      CTL2    -0.180000       12.0110           0   0.00000     -0.301140E-02
     20924 MEMB     169      POPE     H7R      HAL2     0.900000E-01   1.00800           0   0.00000     -0.301140E-02
     20925 MEMB     169      POPE     H7S      HAL2     0.900000E-01   1.00800           0   0.00000     -0.301140E-02
     20926 MEMB     169      POPE     C28      CTL2    -0.180000       12.0110           0   0.00000     -0.301140E-02
     20927 MEMB     169      POPE     H8R      HAL2     0.900000E-01   1.00800           0   0.00000     -0.301140E-02
     20928 MEMB     169      POPE     H8S      HAL2     0.900000E-01   1.00800           0   0.00000     -0.301140E-02
     20929 MEMB     169      POPE     C29      CEL1    -0.150000       12.0110           0   0.00000     -0.301140E-02
     20930 MEMB     169      POPE     H91      HEL1     0.150000       1.00800           0   0.00000     -0.301140E-02
     20931 MEMB     169      POPE     C210     CEL1    -0.150000       12.0110           0   0.00000     -0.301140E-02
     20932 MEMB     169      POPE     H101     HEL1     0.150000       1.00800           0   0.00000     -0.301140E-02
     20933 MEMB     169      POPE     C211     CTL2    -0.180000       12.0110           0   0.00000     -0.301140E-02
     20934 MEMB     169      POPE     H11R     HAL2     0.900000E-01   1.00800           0   0.00000     -0.301140E-02
     20935 MEMB     169      POPE     H11S     HAL2     0.900000E-01   1.00800           0   0.00000     -0.301140E-02
     20936 MEMB     169      POPE     C212     CTL2    -0.180000       12.0110           0   0.00000     -0.301140E-02
     20937 MEMB     169      POPE     H12R     HAL2     0.900000E-01   1.00800           0   0.00000     -0.301140E-02
     20938 MEMB     169      POPE     H12S     HAL2     0.900000E-01   1.00800           0   0.00000     -0.301140E-02
     20939 MEMB     169      POPE     C213     CTL2    -0.180000       12.0110           0   0.00000     -0.301140E-02
     20940 MEMB     169      POPE     H13R     HAL2     0.900000E-01   1.00800           0   0.00000     -0.301140E-02
     20941 MEMB     169      POPE     H13S     HAL2     0.900000E-01   1.00800           0   0.00000     -0.301140E-02
     20942 MEMB     169      POPE     C214     CTL2    -0.180000       12.0110           0   0.00000     -0.301140E-02
     20943 MEMB     169      POPE     H14R     HAL2     0.900000E-01   1.00800           0   0.00000     -0.301140E-02
     20944 MEMB     169      POPE     H14S     HAL2     0.900000E-01   1.00800           0   0.00000     -0.301140E-02
     20945 MEMB     169      POPE     C215     CTL2    -0.180000       12.0110           0   0.00000     -0.301140E-02
     20946 MEMB     169      POPE     H15R     HAL2     0.900000E-01   1.00800           0   0.00000     -0.301140E-02
     20947 MEMB     169      POPE     H15S     HAL2     0.900000E-01   1.00800           0   0.00000     -0.301140E-02
     20948 MEMB     169      POPE     C216     CTL2    -0.180000       12.0110           0   0.00000     -0.301140E-02
     20949 MEMB     169      POPE     H16R     HAL2     0.900000E-01   1.00800           0   0.00000     -0.301140E-02
     20950 MEMB     169      POPE     H16S     HAL2     0.900000E-01   1.00800           0   0.00000     -0.301140E-02
     20951 MEMB     169      POPE     C217     CTL2    -0.180000       12.0110           0   0.00000     -0.301140E-02
     20952 MEMB     169      POPE     H17R     HAL2     0.900000E-01   1.00800           0   0.00000     -0.301140E-02
     20953 MEMB     169      POPE     H17S     HAL2     0.900000E-01   1.00800           0   0.00000     -0.301140E-02
     20954 MEMB     169      POPE     C218     CTL3    -0.270000       12.0110           0   0.00000     -0.301140E-02
     20955 MEMB     169      POPE     H18R     HAL3     0.900000E-01   1.00800           0   0.00000     -0.301140E-02
     20956 MEMB     169      POPE     H18S     HAL3     0.900000E-01   1.00800           0   0.00000     -0.301140E-02
     20957 MEMB     169      POPE     H18T     HAL3     0.900000E-01   1.00800           0   0.00000     -0.301140E-02
     20958 MEMB     169      POPE     C33      CTL2    -0.180000       12.0110           0   0.00000     -0.301140E-02
     20959 MEMB     169      POPE     H3X      HAL2     0.900000E-01   1.00800           0   0.00000     -0.301140E-02
     20960 MEMB     169      POPE     H3Y      HAL2     0.900000E-01   1.00800           0   0.00000     -0.301140E-02
     20961 MEMB     169      POPE     C34      CTL2    -0.180000       12.0110           0   0.00000     -0.301140E-02
     20962 MEMB     169      POPE     H4X      HAL2     0.900000E-01   1.00800           0   0.00000     -0.301140E-02
     20963 MEMB     169      POPE     H4Y      HAL2     0.900000E-01   1.00800           0   0.00000     -0.301140E-02
     20964 MEMB     169      POPE     C35      CTL2    -0.180000       12.0110           0   0.00000     -0.301140E-02
     20965 MEMB     169      POPE     H5X      HAL2     0.900000E-01   1.00800           0   0.00000     -0.301140E-02
     20966 MEMB     169      POPE     H5Y      HAL2     0.900000E-01   1.00800           0   0.00000     -0.301140E-02
     20967 MEMB     169      POPE     C36      CTL2    -0.180000       12.0110           0   0.00000     -0.301140E-02
     20968 MEMB     169      POPE     H6X      HAL2     0.900000E-01   1.00800           0   0.00000     -0.301140E-02
     20969 MEMB     169      POPE     H6Y      HAL2     0.900000E-01   1.00800           0   0.00000     -0.301140E-02
     20970 MEMB     169      POPE     C37      CTL2    -0.180000       12.0110           0   0.00000     -0.301140E-02
     20971 MEMB     169      POPE     H7X      HAL2     0.900000E-01   1.00800           0   0.00000     -0.301140E-02
     20972 MEMB     169      POPE     H7Y      HAL2     0.900000E-01   1.00800           0   0.00000     -0.301140E-02
     20973 MEMB     169      POPE     C38      CTL2    -0.180000       12.0110           0   0.00000     -0.301140E-02
     20974 MEMB     169      POPE     H8X      HAL2     0.900000E-01   1.00800           0   0.00000     -0.301140E-02
     20975 MEMB     169      POPE     H8Y      HAL2     0.900000E-01   1.00800           0   0.00000     -0.301140E-02
     20976 MEMB     169      POPE     C39      CTL2    -0.180000       12.0110           0   0.00000     -0.301140E-02
     20977 MEMB     169      POPE     H9X      HAL2     0.900000E-01   1.00800           0   0.00000     -0.301140E-02
     20978 MEMB     169      POPE     H9Y      HAL2     0.900000E-01   1.00800           0   0.00000     -0.301140E-02
     20979 MEMB     169      POPE     C310     CTL2    -0.180000       12.0110           0   0.00000     -0.301140E-02
     20980 MEMB     169      POPE     H10X     HAL2     0.900000E-01   1.00800           0   0.00000     -0.301140E-02
     20981 MEMB     169      POPE     H10Y     HAL2     0.900000E-01   1.00800           0   0.00000     -0.301140E-02
     20982 MEMB     169      POPE     C311     CTL2    -0.180000       12.0110           0   0.00000     -0.301140E-02
     20983 MEMB     169      POPE     H11X     HAL2     0.900000E-01   1.00800           0   0.00000     -0.301140E-02
     20984 MEMB     169      POPE     H11Y     HAL2     0.900000E-01   1.00800           0   0.00000     -0.301140E-02
     20985 MEMB     169      POPE     C312     CTL2    -0.180000       12.0110           0   0.00000     -0.301140E-02
     20986 MEMB     169      POPE     H12X     HAL2     0.900000E-01   1.00800           0   0.00000     -0.301140E-02
     20987 MEMB     169      POPE     H12Y     HAL2     0.900000E-01   1.00800           0   0.00000     -0.301140E-02
     20988 MEMB     169      POPE     C313     CTL2    -0.180000       12.0110           0   0.00000     -0.301140E-02
     20989 MEMB     169      POPE     H13X     HAL2     0.900000E-01   1.00800           0   0.00000     -0.301140E-02
     20990 MEMB     169      POPE     H13Y     HAL2     0.900000E-01   1.00800           0   0.00000     -0.301140E-02
     20991 MEMB     169      POPE     C314     CTL2    -0.180000       12.0110           0   0.00000     -0.301140E-02
     20992 MEMB     169      POPE     H14X     HAL2     0.900000E-01   1.00800           0   0.00000     -0.301140E-02
     20993 MEMB     169      POPE     H14Y     HAL2     0.900000E-01   1.00800           0   0.00000     -0.301140E-02
     20994 MEMB     169      POPE     C315     CTL2    -0.180000       12.0110           0   0.00000     -0.301140E-02
     20995 MEMB     169      POPE     H15X     HAL2     0.900000E-01   1.00800           0   0.00000     -0.301140E-02
     20996 MEMB     169      POPE     H15Y     HAL2     0.900000E-01   1.00800           0   0.00000     -0.301140E-02
     20997 MEMB     169      POPE     C316     CTL3    -0.270000       12.0110           0   0.00000     -0.301140E-02
     20998 MEMB     169      POPE     H16X     HAL3     0.900000E-01   1.00800           0   0.00000     -0.301140E-02
     20999 MEMB     169      POPE     H16Y     HAL3     0.900000E-01   1.00800           0   0.00000     -0.301140E-02
     21000 MEMB     169      POPE     H16Z     HAL3     0.900000E-01   1.00800           0   0.00000     -0.301140E-02
     21001 MEMB     170      POPE     N        NH3L    -0.300000       14.0070           0   0.00000     -0.301140E-02
     21002 MEMB     170      POPE     HN1      HCL      0.330000       1.00800           0   0.00000     -0.301140E-02
     21003 MEMB     170      POPE     HN2      HCL      0.330000       1.00800           0   0.00000     -0.301140E-02
     21004 MEMB     170      POPE     HN3      HCL      0.330000       1.00800           0   0.00000     -0.301140E-02
     21005 MEMB     170      POPE     C12      CTL2     0.130000       12.0110           0   0.00000     -0.301140E-02
     21006 MEMB     170      POPE     H12A     HAL2     0.900000E-01   1.00800           0   0.00000     -0.301140E-02
     21007 MEMB     170      POPE     H12B     HAL2     0.900000E-01   1.00800           0   0.00000     -0.301140E-02
     21008 MEMB     170      POPE     C11      CTL2    -0.800000E-01   12.0110           0   0.00000     -0.301140E-02
     21009 MEMB     170      POPE     H11A     HAL2     0.900000E-01   1.00800           0   0.00000     -0.301140E-02
     21010 MEMB     170      POPE     H11B     HAL2     0.900000E-01   1.00800           0   0.00000     -0.301140E-02
     21011 MEMB     170      POPE     P        PL        1.50000       30.9740           0   0.00000     -0.301140E-02
     21012 MEMB     170      POPE     O13      O2L     -0.780000       15.9994           0   0.00000     -0.301140E-02
     21013 MEMB     170      POPE     O14      O2L     -0.780000       15.9994           0   0.00000     -0.301140E-02
     21014 MEMB     170      POPE     O11      OSLP    -0.570000       15.9994           0   0.00000     -0.301140E-02
     21015 MEMB     170      POPE     O12      OSLP    -0.570000       15.9994           0   0.00000     -0.301140E-02
     21016 MEMB     170      POPE     C1       CTL2    -0.800000E-01   12.0110           0   0.00000     -0.301140E-02
     21017 MEMB     170      POPE     HA       HAL2     0.900000E-01   1.00800           0   0.00000     -0.301140E-02
     21018 MEMB     170      POPE     HB       HAL2     0.900000E-01   1.00800           0   0.00000     -0.301140E-02
     21019 MEMB     170      POPE     C2       CTL1     0.170000       12.0110           0   0.00000     -0.301140E-02
     21020 MEMB     170      POPE     HS       HAL1     0.900000E-01   1.00800           0   0.00000     -0.301140E-02
     21021 MEMB     170      POPE     O21      OSL     -0.490000       15.9994           0   0.00000     -0.301140E-02
     21022 MEMB     170      POPE     C21      CL       0.900000       12.0110           0   0.00000     -0.301140E-02
     21023 MEMB     170      POPE     O22      OBL     -0.630000       15.9994           0   0.00000     -0.301140E-02
     21024 MEMB     170      POPE     C22      CTL2    -0.220000       12.0110           0   0.00000     -0.301140E-02
     21025 MEMB     170      POPE     H2R      HAL2     0.900000E-01   1.00800           0   0.00000     -0.301140E-02
     21026 MEMB     170      POPE     H2S      HAL2     0.900000E-01   1.00800           0   0.00000     -0.301140E-02
     21027 MEMB     170      POPE     C3       CTL2     0.800000E-01   12.0110           0   0.00000     -0.301140E-02
     21028 MEMB     170      POPE     HX       HAL2     0.900000E-01   1.00800           0   0.00000     -0.301140E-02
     21029 MEMB     170      POPE     HY       HAL2     0.900000E-01   1.00800           0   0.00000     -0.301140E-02
     21030 MEMB     170      POPE     O31      OSL     -0.490000       15.9994           0   0.00000     -0.301140E-02
     21031 MEMB     170      POPE     C31      CL       0.900000       12.0110           0   0.00000     -0.301140E-02
     21032 MEMB     170      POPE     O32      OBL     -0.630000       15.9994           0   0.00000     -0.301140E-02
     21033 MEMB     170      POPE     C32      CTL2    -0.220000       12.0110           0   0.00000     -0.301140E-02
     21034 MEMB     170      POPE     H2X      HAL2     0.900000E-01   1.00800           0   0.00000     -0.301140E-02
     21035 MEMB     170      POPE     H2Y      HAL2     0.900000E-01   1.00800           0   0.00000     -0.301140E-02
     21036 MEMB     170      POPE     C23      CTL2    -0.180000       12.0110           0   0.00000     -0.301140E-02
     21037 MEMB     170      POPE     H3R      HAL2     0.900000E-01   1.00800           0   0.00000     -0.301140E-02
     21038 MEMB     170      POPE     H3S      HAL2     0.900000E-01   1.00800           0   0.00000     -0.301140E-02
     21039 MEMB     170      POPE     C24      CTL2    -0.180000       12.0110           0   0.00000     -0.301140E-02
     21040 MEMB     170      POPE     H4R      HAL2     0.900000E-01   1.00800           0   0.00000     -0.301140E-02
     21041 MEMB     170      POPE     H4S      HAL2     0.900000E-01   1.00800           0   0.00000     -0.301140E-02
     21042 MEMB     170      POPE     C25      CTL2    -0.180000       12.0110           0   0.00000     -0.301140E-02
     21043 MEMB     170      POPE     H5R      HAL2     0.900000E-01   1.00800           0   0.00000     -0.301140E-02
     21044 MEMB     170      POPE     H5S      HAL2     0.900000E-01   1.00800           0   0.00000     -0.301140E-02
     21045 MEMB     170      POPE     C26      CTL2    -0.180000       12.0110           0   0.00000     -0.301140E-02
     21046 MEMB     170      POPE     H6R      HAL2     0.900000E-01   1.00800           0   0.00000     -0.301140E-02
     21047 MEMB     170      POPE     H6S      HAL2     0.900000E-01   1.00800           0   0.00000     -0.301140E-02
     21048 MEMB     170      POPE     C27      CTL2    -0.180000       12.0110           0   0.00000     -0.301140E-02
     21049 MEMB     170      POPE     H7R      HAL2     0.900000E-01   1.00800           0   0.00000     -0.301140E-02
     21050 MEMB     170      POPE     H7S      HAL2     0.900000E-01   1.00800           0   0.00000     -0.301140E-02
     21051 MEMB     170      POPE     C28      CTL2    -0.180000       12.0110           0   0.00000     -0.301140E-02
     21052 MEMB     170      POPE     H8R      HAL2     0.900000E-01   1.00800           0   0.00000     -0.301140E-02
     21053 MEMB     170      POPE     H8S      HAL2     0.900000E-01   1.00800           0   0.00000     -0.301140E-02
     21054 MEMB     170      POPE     C29      CEL1    -0.150000       12.0110           0   0.00000     -0.301140E-02
     21055 MEMB     170      POPE     H91      HEL1     0.150000       1.00800           0   0.00000     -0.301140E-02
     21056 MEMB     170      POPE     C210     CEL1    -0.150000       12.0110           0   0.00000     -0.301140E-02
     21057 MEMB     170      POPE     H101     HEL1     0.150000       1.00800           0   0.00000     -0.301140E-02
     21058 MEMB     170      POPE     C211     CTL2    -0.180000       12.0110           0   0.00000     -0.301140E-02
     21059 MEMB     170      POPE     H11R     HAL2     0.900000E-01   1.00800           0   0.00000     -0.301140E-02
     21060 MEMB     170      POPE     H11S     HAL2     0.900000E-01   1.00800           0   0.00000     -0.301140E-02
     21061 MEMB     170      POPE     C212     CTL2    -0.180000       12.0110           0   0.00000     -0.301140E-02
     21062 MEMB     170      POPE     H12R     HAL2     0.900000E-01   1.00800           0   0.00000     -0.301140E-02
     21063 MEMB     170      POPE     H12S     HAL2     0.900000E-01   1.00800           0   0.00000     -0.301140E-02
     21064 MEMB     170      POPE     C213     CTL2    -0.180000       12.0110           0   0.00000     -0.301140E-02
     21065 MEMB     170      POPE     H13R     HAL2     0.900000E-01   1.00800           0   0.00000     -0.301140E-02
     21066 MEMB     170      POPE     H13S     HAL2     0.900000E-01   1.00800           0   0.00000     -0.301140E-02
     21067 MEMB     170      POPE     C214     CTL2    -0.180000       12.0110           0   0.00000     -0.301140E-02
     21068 MEMB     170      POPE     H14R     HAL2     0.900000E-01   1.00800           0   0.00000     -0.301140E-02
     21069 MEMB     170      POPE     H14S     HAL2     0.900000E-01   1.00800           0   0.00000     -0.301140E-02
     21070 MEMB     170      POPE     C215     CTL2    -0.180000       12.0110           0   0.00000     -0.301140E-02
     21071 MEMB     170      POPE     H15R     HAL2     0.900000E-01   1.00800           0   0.00000     -0.301140E-02
     21072 MEMB     170      POPE     H15S     HAL2     0.900000E-01   1.00800           0   0.00000     -0.301140E-02
     21073 MEMB     170      POPE     C216     CTL2    -0.180000       12.0110           0   0.00000     -0.301140E-02
     21074 MEMB     170      POPE     H16R     HAL2     0.900000E-01   1.00800           0   0.00000     -0.301140E-02
     21075 MEMB     170      POPE     H16S     HAL2     0.900000E-01   1.00800           0   0.00000     -0.301140E-02
     21076 MEMB     170      POPE     C217     CTL2    -0.180000       12.0110           0   0.00000     -0.301140E-02
     21077 MEMB     170      POPE     H17R     HAL2     0.900000E-01   1.00800           0   0.00000     -0.301140E-02
     21078 MEMB     170      POPE     H17S     HAL2     0.900000E-01   1.00800           0   0.00000     -0.301140E-02
     21079 MEMB     170      POPE     C218     CTL3    -0.270000       12.0110           0   0.00000     -0.301140E-02
     21080 MEMB     170      POPE     H18R     HAL3     0.900000E-01   1.00800           0   0.00000     -0.301140E-02
     21081 MEMB     170      POPE     H18S     HAL3     0.900000E-01   1.00800           0   0.00000     -0.301140E-02
     21082 MEMB     170      POPE     H18T     HAL3     0.900000E-01   1.00800           0   0.00000     -0.301140E-02
     21083 MEMB     170      POPE     C33      CTL2    -0.180000       12.0110           0   0.00000     -0.301140E-02
     21084 MEMB     170      POPE     H3X      HAL2     0.900000E-01   1.00800           0   0.00000     -0.301140E-02
     21085 MEMB     170      POPE     H3Y      HAL2     0.900000E-01   1.00800           0   0.00000     -0.301140E-02
     21086 MEMB     170      POPE     C34      CTL2    -0.180000       12.0110           0   0.00000     -0.301140E-02
     21087 MEMB     170      POPE     H4X      HAL2     0.900000E-01   1.00800           0   0.00000     -0.301140E-02
     21088 MEMB     170      POPE     H4Y      HAL2     0.900000E-01   1.00800           0   0.00000     -0.301140E-02
     21089 MEMB     170      POPE     C35      CTL2    -0.180000       12.0110           0   0.00000     -0.301140E-02
     21090 MEMB     170      POPE     H5X      HAL2     0.900000E-01   1.00800           0   0.00000     -0.301140E-02
     21091 MEMB     170      POPE     H5Y      HAL2     0.900000E-01   1.00800           0   0.00000     -0.301140E-02
     21092 MEMB     170      POPE     C36      CTL2    -0.180000       12.0110           0   0.00000     -0.301140E-02
     21093 MEMB     170      POPE     H6X      HAL2     0.900000E-01   1.00800           0   0.00000     -0.301140E-02
     21094 MEMB     170      POPE     H6Y      HAL2     0.900000E-01   1.00800           0   0.00000     -0.301140E-02
     21095 MEMB     170      POPE     C37      CTL2    -0.180000       12.0110           0   0.00000     -0.301140E-02
     21096 MEMB     170      POPE     H7X      HAL2     0.900000E-01   1.00800           0   0.00000     -0.301140E-02
     21097 MEMB     170      POPE     H7Y      HAL2     0.900000E-01   1.00800           0   0.00000     -0.301140E-02
     21098 MEMB     170      POPE     C38      CTL2    -0.180000       12.0110           0   0.00000     -0.301140E-02
     21099 MEMB     170      POPE     H8X      HAL2     0.900000E-01   1.00800           0   0.00000     -0.301140E-02
     21100 MEMB     170      POPE     H8Y      HAL2     0.900000E-01   1.00800           0   0.00000     -0.301140E-02
     21101 MEMB     170      POPE     C39      CTL2    -0.180000       12.0110           0   0.00000     -0.301140E-02
     21102 MEMB     170      POPE     H9X      HAL2     0.900000E-01   1.00800           0   0.00000     -0.301140E-02
     21103 MEMB     170      POPE     H9Y      HAL2     0.900000E-01   1.00800           0   0.00000     -0.301140E-02
     21104 MEMB     170      POPE     C310     CTL2    -0.180000       12.0110           0   0.00000     -0.301140E-02
     21105 MEMB     170      POPE     H10X     HAL2     0.900000E-01   1.00800           0   0.00000     -0.301140E-02
     21106 MEMB     170      POPE     H10Y     HAL2     0.900000E-01   1.00800           0   0.00000     -0.301140E-02
     21107 MEMB     170      POPE     C311     CTL2    -0.180000       12.0110           0   0.00000     -0.301140E-02
     21108 MEMB     170      POPE     H11X     HAL2     0.900000E-01   1.00800           0   0.00000     -0.301140E-02
     21109 MEMB     170      POPE     H11Y     HAL2     0.900000E-01   1.00800           0   0.00000     -0.301140E-02
     21110 MEMB     170      POPE     C312     CTL2    -0.180000       12.0110           0   0.00000     -0.301140E-02
     21111 MEMB     170      POPE     H12X     HAL2     0.900000E-01   1.00800           0   0.00000     -0.301140E-02
     21112 MEMB     170      POPE     H12Y     HAL2     0.900000E-01   1.00800           0   0.00000     -0.301140E-02
     21113 MEMB     170      POPE     C313     CTL2    -0.180000       12.0110           0   0.00000     -0.301140E-02
     21114 MEMB     170      POPE     H13X     HAL2     0.900000E-01   1.00800           0   0.00000     -0.301140E-02
     21115 MEMB     170      POPE     H13Y     HAL2     0.900000E-01   1.00800           0   0.00000     -0.301140E-02
     21116 MEMB     170      POPE     C314     CTL2    -0.180000       12.0110           0   0.00000     -0.301140E-02
     21117 MEMB     170      POPE     H14X     HAL2     0.900000E-01   1.00800           0   0.00000     -0.301140E-02
     21118 MEMB     170      POPE     H14Y     HAL2     0.900000E-01   1.00800           0   0.00000     -0.301140E-02
     21119 MEMB     170      POPE     C315     CTL2    -0.180000       12.0110           0   0.00000     -0.301140E-02
     21120 MEMB     170      POPE     H15X     HAL2     0.900000E-01   1.00800           0   0.00000     -0.301140E-02
     21121 MEMB     170      POPE     H15Y     HAL2     0.900000E-01   1.00800           0   0.00000     -0.301140E-02
     21122 MEMB     170      POPE     C316     CTL3    -0.270000       12.0110           0   0.00000     -0.301140E-02
     21123 MEMB     170      POPE     H16X     HAL3     0.900000E-01   1.00800           0   0.00000     -0.301140E-02
     21124 MEMB     170      POPE     H16Y     HAL3     0.900000E-01   1.00800           0   0.00000     -0.301140E-02
     21125 MEMB     170      POPE     H16Z     HAL3     0.900000E-01   1.00800           0   0.00000     -0.301140E-02
     21126 MEMB     171      PYPG     C13      CTL2     0.500000E-01   12.0110           0   0.00000     -0.301140E-02
     21127 MEMB     171      PYPG     H13A     HAL2     0.900000E-01   1.00800           0   0.00000     -0.301140E-02
     21128 MEMB     171      PYPG     H13B     HAL2     0.900000E-01   1.00800           0   0.00000     -0.301140E-02
     21129 MEMB     171      PYPG     OC3      OHL     -0.660000       15.9994           0   0.00000     -0.301140E-02
     21130 MEMB     171      PYPG     HO3      HOL      0.430000       1.00800           0   0.00000     -0.301140E-02
     21131 MEMB     171      PYPG     C12      CTL1     0.140000       12.0110           0   0.00000     -0.301140E-02
     21132 MEMB     171      PYPG     H12A     HAL1     0.900000E-01   1.00800           0   0.00000     -0.301140E-02
     21133 MEMB     171      PYPG     OC2      OHL     -0.660000       15.9994           0   0.00000     -0.301140E-02
     21134 MEMB     171      PYPG     HO2      HOL      0.430000       1.00800           0   0.00000     -0.301140E-02
     21135 MEMB     171      PYPG     C11      CTL2    -0.800000E-01   12.0110           0   0.00000     -0.301140E-02
     21136 MEMB     171      PYPG     H11A     HAL2     0.900000E-01   1.00800           0   0.00000     -0.301140E-02
     21137 MEMB     171      PYPG     H11B     HAL2     0.900000E-01   1.00800           0   0.00000     -0.301140E-02
     21138 MEMB     171      PYPG     P        PL        1.50000       30.9740           0   0.00000     -0.301140E-02
     21139 MEMB     171      PYPG     O13      O2L     -0.780000       15.9994           0   0.00000     -0.301140E-02
     21140 MEMB     171      PYPG     O14      O2L     -0.780000       15.9994           0   0.00000     -0.301140E-02
     21141 MEMB     171      PYPG     O11      OSLP    -0.570000       15.9994           0   0.00000     -0.301140E-02
     21142 MEMB     171      PYPG     O12      OSLP    -0.570000       15.9994           0   0.00000     -0.301140E-02
     21143 MEMB     171      PYPG     C1       CTL2    -0.800000E-01   12.0110           0   0.00000     -0.301140E-02
     21144 MEMB     171      PYPG     HA       HAL2     0.900000E-01   1.00800           0   0.00000     -0.301140E-02
     21145 MEMB     171      PYPG     HB       HAL2     0.900000E-01   1.00800           0   0.00000     -0.301140E-02
     21146 MEMB     171      PYPG     C2       CTL1     0.170000       12.0110           0   0.00000     -0.301140E-02
     21147 MEMB     171      PYPG     HS       HAL1     0.900000E-01   1.00800           0   0.00000     -0.301140E-02
     21148 MEMB     171      PYPG     O21      OSL     -0.490000       15.9994           0   0.00000     -0.301140E-02
     21149 MEMB     171      PYPG     C21      CL       0.900000       12.0110           0   0.00000     -0.301140E-02
     21150 MEMB     171      PYPG     O22      OBL     -0.630000       15.9994           0   0.00000     -0.301140E-02
     21151 MEMB     171      PYPG     C22      CTL2    -0.220000       12.0110           0   0.00000     -0.301140E-02
     21152 MEMB     171      PYPG     H2R      HAL2     0.900000E-01   1.00800           0   0.00000     -0.301140E-02
     21153 MEMB     171      PYPG     H2S      HAL2     0.900000E-01   1.00800           0   0.00000     -0.301140E-02
     21154 MEMB     171      PYPG     C3       CTL2     0.800000E-01   12.0110           0   0.00000     -0.301140E-02
     21155 MEMB     171      PYPG     HX       HAL2     0.900000E-01   1.00800           0   0.00000     -0.301140E-02
     21156 MEMB     171      PYPG     HY       HAL2     0.900000E-01   1.00800           0   0.00000     -0.301140E-02
     21157 MEMB     171      PYPG     O31      OSL     -0.490000       15.9994           0   0.00000     -0.301140E-02
     21158 MEMB     171      PYPG     C31      CL       0.900000       12.0110           0   0.00000     -0.301140E-02
     21159 MEMB     171      PYPG     O32      OBL     -0.630000       15.9994           0   0.00000     -0.301140E-02
     21160 MEMB     171      PYPG     C32      CTL2    -0.220000       12.0110           0   0.00000     -0.301140E-02
     21161 MEMB     171      PYPG     H2X      HAL2     0.900000E-01   1.00800           0   0.00000     -0.301140E-02
     21162 MEMB     171      PYPG     H2Y      HAL2     0.900000E-01   1.00800           0   0.00000     -0.301140E-02
     21163 MEMB     171      PYPG     C23      CTL2    -0.180000       12.0110           0   0.00000     -0.301140E-02
     21164 MEMB     171      PYPG     H3R      HAL2     0.900000E-01   1.00800           0   0.00000     -0.301140E-02
     21165 MEMB     171      PYPG     H3S      HAL2     0.900000E-01   1.00800           0   0.00000     -0.301140E-02
     21166 MEMB     171      PYPG     C24      CTL2    -0.180000       12.0110           0   0.00000     -0.301140E-02
     21167 MEMB     171      PYPG     H4R      HAL2     0.900000E-01   1.00800           0   0.00000     -0.301140E-02
     21168 MEMB     171      PYPG     H4S      HAL2     0.900000E-01   1.00800           0   0.00000     -0.301140E-02
     21169 MEMB     171      PYPG     C25      CTL2    -0.180000       12.0110           0   0.00000     -0.301140E-02
     21170 MEMB     171      PYPG     H5R      HAL2     0.900000E-01   1.00800           0   0.00000     -0.301140E-02
     21171 MEMB     171      PYPG     H5S      HAL2     0.900000E-01   1.00800           0   0.00000     -0.301140E-02
     21172 MEMB     171      PYPG     C26      CTL2    -0.180000       12.0110           0   0.00000     -0.301140E-02
     21173 MEMB     171      PYPG     H6R      HAL2     0.900000E-01   1.00800           0   0.00000     -0.301140E-02
     21174 MEMB     171      PYPG     H6S      HAL2     0.900000E-01   1.00800           0   0.00000     -0.301140E-02
     21175 MEMB     171      PYPG     C27      CTL2    -0.180000       12.0110           0   0.00000     -0.301140E-02
     21176 MEMB     171      PYPG     H7R      HAL2     0.900000E-01   1.00800           0   0.00000     -0.301140E-02
     21177 MEMB     171      PYPG     H7S      HAL2     0.900000E-01   1.00800           0   0.00000     -0.301140E-02
     21178 MEMB     171      PYPG     C28      CTL2    -0.180000       12.0110           0   0.00000     -0.301140E-02
     21179 MEMB     171      PYPG     H8R      HAL2     0.900000E-01   1.00800           0   0.00000     -0.301140E-02
     21180 MEMB     171      PYPG     H8S      HAL2     0.900000E-01   1.00800           0   0.00000     -0.301140E-02
     21181 MEMB     171      PYPG     C29      CEL1    -0.150000       12.0110           0   0.00000     -0.301140E-02
     21182 MEMB     171      PYPG     H9R      HEL1     0.150000       1.00800           0   0.00000     -0.301140E-02
     21183 MEMB     171      PYPG     C210     CEL1    -0.150000       12.0110           0   0.00000     -0.301140E-02
     21184 MEMB     171      PYPG     H10R     HEL1     0.150000       1.00800           0   0.00000     -0.301140E-02
     21185 MEMB     171      PYPG     C211     CTL2    -0.180000       12.0110           0   0.00000     -0.301140E-02
     21186 MEMB     171      PYPG     H11R     HAL2     0.900000E-01   1.00800           0   0.00000     -0.301140E-02
     21187 MEMB     171      PYPG     H11S     HAL2     0.900000E-01   1.00800           0   0.00000     -0.301140E-02
     21188 MEMB     171      PYPG     C212     CTL2    -0.180000       12.0110           0   0.00000     -0.301140E-02
     21189 MEMB     171      PYPG     H12R     HAL2     0.900000E-01   1.00800           0   0.00000     -0.301140E-02
     21190 MEMB     171      PYPG     H12S     HAL2     0.900000E-01   1.00800           0   0.00000     -0.301140E-02
     21191 MEMB     171      PYPG     C213     CTL2    -0.180000       12.0110           0   0.00000     -0.301140E-02
     21192 MEMB     171      PYPG     H13R     HAL2     0.900000E-01   1.00800           0   0.00000     -0.301140E-02
     21193 MEMB     171      PYPG     H13S     HAL2     0.900000E-01   1.00800           0   0.00000     -0.301140E-02
     21194 MEMB     171      PYPG     C214     CTL2    -0.180000       12.0110           0   0.00000     -0.301140E-02
     21195 MEMB     171      PYPG     H14R     HAL2     0.900000E-01   1.00800           0   0.00000     -0.301140E-02
     21196 MEMB     171      PYPG     H14S     HAL2     0.900000E-01   1.00800           0   0.00000     -0.301140E-02
     21197 MEMB     171      PYPG     C215     CTL2    -0.180000       12.0110           0   0.00000     -0.301140E-02
     21198 MEMB     171      PYPG     H15R     HAL2     0.900000E-01   1.00800           0   0.00000     -0.301140E-02
     21199 MEMB     171      PYPG     H15S     HAL2     0.900000E-01   1.00800           0   0.00000     -0.301140E-02
     21200 MEMB     171      PYPG     C216     CTL3    -0.270000       12.0110           0   0.00000     -0.301140E-02
     21201 MEMB     171      PYPG     H16R     HAL3     0.900000E-01   1.00800           0   0.00000     -0.301140E-02
     21202 MEMB     171      PYPG     H16S     HAL3     0.900000E-01   1.00800           0   0.00000     -0.301140E-02
     21203 MEMB     171      PYPG     H16T     HAL3     0.900000E-01   1.00800           0   0.00000     -0.301140E-02
     21204 MEMB     171      PYPG     C33      CTL2    -0.180000       12.0110           0   0.00000     -0.301140E-02
     21205 MEMB     171      PYPG     H3X      HAL2     0.900000E-01   1.00800           0   0.00000     -0.301140E-02
     21206 MEMB     171      PYPG     H3Y      HAL2     0.900000E-01   1.00800           0   0.00000     -0.301140E-02
     21207 MEMB     171      PYPG     C34      CTL2    -0.180000       12.0110           0   0.00000     -0.301140E-02
     21208 MEMB     171      PYPG     H4X      HAL2     0.900000E-01   1.00800           0   0.00000     -0.301140E-02
     21209 MEMB     171      PYPG     H4Y      HAL2     0.900000E-01   1.00800           0   0.00000     -0.301140E-02
     21210 MEMB     171      PYPG     C35      CTL2    -0.180000       12.0110           0   0.00000     -0.301140E-02
     21211 MEMB     171      PYPG     H5X      HAL2     0.900000E-01   1.00800           0   0.00000     -0.301140E-02
     21212 MEMB     171      PYPG     H5Y      HAL2     0.900000E-01   1.00800           0   0.00000     -0.301140E-02
     21213 MEMB     171      PYPG     C36      CTL2    -0.180000       12.0110           0   0.00000     -0.301140E-02
     21214 MEMB     171      PYPG     H6X      HAL2     0.900000E-01   1.00800           0   0.00000     -0.301140E-02
     21215 MEMB     171      PYPG     H6Y      HAL2     0.900000E-01   1.00800           0   0.00000     -0.301140E-02
     21216 MEMB     171      PYPG     C37      CTL2    -0.180000       12.0110           0   0.00000     -0.301140E-02
     21217 MEMB     171      PYPG     H7X      HAL2     0.900000E-01   1.00800           0   0.00000     -0.301140E-02
     21218 MEMB     171      PYPG     H7Y      HAL2     0.900000E-01   1.00800           0   0.00000     -0.301140E-02
     21219 MEMB     171      PYPG     C38      CTL2    -0.180000       12.0110           0   0.00000     -0.301140E-02
     21220 MEMB     171      PYPG     H8X      HAL2     0.900000E-01   1.00800           0   0.00000     -0.301140E-02
     21221 MEMB     171      PYPG     H8Y      HAL2     0.900000E-01   1.00800           0   0.00000     -0.301140E-02
     21222 MEMB     171      PYPG     C39      CTL2    -0.180000       12.0110           0   0.00000     -0.301140E-02
     21223 MEMB     171      PYPG     H9X      HAL2     0.900000E-01   1.00800           0   0.00000     -0.301140E-02
     21224 MEMB     171      PYPG     H9Y      HAL2     0.900000E-01   1.00800           0   0.00000     -0.301140E-02
     21225 MEMB     171      PYPG     C310     CTL2    -0.180000       12.0110           0   0.00000     -0.301140E-02
     21226 MEMB     171      PYPG     H10X     HAL2     0.900000E-01   1.00800           0   0.00000     -0.301140E-02
     21227 MEMB     171      PYPG     H10Y     HAL2     0.900000E-01   1.00800           0   0.00000     -0.301140E-02
     21228 MEMB     171      PYPG     C311     CTL2    -0.180000       12.0110           0   0.00000     -0.301140E-02
     21229 MEMB     171      PYPG     H11X     HAL2     0.900000E-01   1.00800           0   0.00000     -0.301140E-02
     21230 MEMB     171      PYPG     H11Y     HAL2     0.900000E-01   1.00800           0   0.00000     -0.301140E-02
     21231 MEMB     171      PYPG     C312     CTL2    -0.180000       12.0110           0   0.00000     -0.301140E-02
     21232 MEMB     171      PYPG     H12X     HAL2     0.900000E-01   1.00800           0   0.00000     -0.301140E-02
     21233 MEMB     171      PYPG     H12Y     HAL2     0.900000E-01   1.00800           0   0.00000     -0.301140E-02
     21234 MEMB     171      PYPG     C313     CTL2    -0.180000       12.0110           0   0.00000     -0.301140E-02
     21235 MEMB     171      PYPG     H13X     HAL2     0.900000E-01   1.00800           0   0.00000     -0.301140E-02
     21236 MEMB     171      PYPG     H13Y     HAL2     0.900000E-01   1.00800           0   0.00000     -0.301140E-02
     21237 MEMB     171      PYPG     C314     CTL2    -0.180000       12.0110           0   0.00000     -0.301140E-02
     21238 MEMB     171      PYPG     H14X     HAL2     0.900000E-01   1.00800           0   0.00000     -0.301140E-02
     21239 MEMB     171      PYPG     H14Y     HAL2     0.900000E-01   1.00800           0   0.00000     -0.301140E-02
     21240 MEMB     171      PYPG     C315     CTL2    -0.180000       12.0110           0   0.00000     -0.301140E-02
     21241 MEMB     171      PYPG     H15X     HAL2     0.900000E-01   1.00800           0   0.00000     -0.301140E-02
     21242 MEMB     171      PYPG     H15Y     HAL2     0.900000E-01   1.00800           0   0.00000     -0.301140E-02
     21243 MEMB     171      PYPG     C316     CTL3    -0.270000       12.0110           0   0.00000     -0.301140E-02
     21244 MEMB     171      PYPG     H16X     HAL3     0.900000E-01   1.00800           0   0.00000     -0.301140E-02
     21245 MEMB     171      PYPG     H16Y     HAL3     0.900000E-01   1.00800           0   0.00000     -0.301140E-02
     21246 MEMB     171      PYPG     H16Z     HAL3     0.900000E-01   1.00800           0   0.00000     -0.301140E-02
     21247 MEMB     172      PMPE     N        NH3L    -0.300000       14.0070           0   0.00000     -0.301140E-02
     21248 MEMB     172      PMPE     HN1      HCL      0.330000       1.00800           0   0.00000     -0.301140E-02
     21249 MEMB     172      PMPE     HN2      HCL      0.330000       1.00800           0   0.00000     -0.301140E-02
     21250 MEMB     172      PMPE     HN3      HCL      0.330000       1.00800           0   0.00000     -0.301140E-02
     21251 MEMB     172      PMPE     C12      CTL2     0.130000       12.0110           0   0.00000     -0.301140E-02
     21252 MEMB     172      PMPE     H12A     HAL2     0.900000E-01   1.00800           0   0.00000     -0.301140E-02
     21253 MEMB     172      PMPE     H12B     HAL2     0.900000E-01   1.00800           0   0.00000     -0.301140E-02
     21254 MEMB     172      PMPE     C11      CTL2    -0.800000E-01   12.0110           0   0.00000     -0.301140E-02
     21255 MEMB     172      PMPE     H11A     HAL2     0.900000E-01   1.00800           0   0.00000     -0.301140E-02
     21256 MEMB     172      PMPE     H11B     HAL2     0.900000E-01   1.00800           0   0.00000     -0.301140E-02
     21257 MEMB     172      PMPE     P        PL        1.50000       30.9740           0   0.00000     -0.301140E-02
     21258 MEMB     172      PMPE     O13      O2L     -0.780000       15.9994           0   0.00000     -0.301140E-02
     21259 MEMB     172      PMPE     O14      O2L     -0.780000       15.9994           0   0.00000     -0.301140E-02
     21260 MEMB     172      PMPE     O11      OSLP    -0.570000       15.9994           0   0.00000     -0.301140E-02
     21261 MEMB     172      PMPE     O12      OSLP    -0.570000       15.9994           0   0.00000     -0.301140E-02
     21262 MEMB     172      PMPE     C1       CTL2    -0.800000E-01   12.0110           0   0.00000     -0.301140E-02
     21263 MEMB     172      PMPE     HA       HAL2     0.900000E-01   1.00800           0   0.00000     -0.301140E-02
     21264 MEMB     172      PMPE     HB       HAL2     0.900000E-01   1.00800           0   0.00000     -0.301140E-02
     21265 MEMB     172      PMPE     C2       CTL1     0.170000       12.0110           0   0.00000     -0.301140E-02
     21266 MEMB     172      PMPE     HS       HAL1     0.900000E-01   1.00800           0   0.00000     -0.301140E-02
     21267 MEMB     172      PMPE     O21      OSL     -0.490000       15.9994           0   0.00000     -0.301140E-02
     21268 MEMB     172      PMPE     C21      CL       0.900000       12.0110           0   0.00000     -0.301140E-02
     21269 MEMB     172      PMPE     O22      OBL     -0.630000       15.9994           0   0.00000     -0.301140E-02
     21270 MEMB     172      PMPE     C22      CTL2    -0.220000       12.0110           0   0.00000     -0.301140E-02
     21271 MEMB     172      PMPE     H2R      HAL2     0.900000E-01   1.00800           0   0.00000     -0.301140E-02
     21272 MEMB     172      PMPE     H2S      HAL2     0.900000E-01   1.00800           0   0.00000     -0.301140E-02
     21273 MEMB     172      PMPE     C3       CTL2     0.800000E-01   12.0110           0   0.00000     -0.301140E-02
     21274 MEMB     172      PMPE     HX       HAL2     0.900000E-01   1.00800           0   0.00000     -0.301140E-02
     21275 MEMB     172      PMPE     HY       HAL2     0.900000E-01   1.00800           0   0.00000     -0.301140E-02
     21276 MEMB     172      PMPE     O31      OSL     -0.490000       15.9994           0   0.00000     -0.301140E-02
     21277 MEMB     172      PMPE     C31      CL       0.900000       12.0110           0   0.00000     -0.301140E-02
     21278 MEMB     172      PMPE     O32      OBL     -0.630000       15.9994           0   0.00000     -0.301140E-02
     21279 MEMB     172      PMPE     C32      CTL2    -0.220000       12.0110           0   0.00000     -0.301140E-02
     21280 MEMB     172      PMPE     H2X      HAL2     0.900000E-01   1.00800           0   0.00000     -0.301140E-02
     21281 MEMB     172      PMPE     H2Y      HAL2     0.900000E-01   1.00800           0   0.00000     -0.301140E-02
     21282 MEMB     172      PMPE     C23      CTL2    -0.180000       12.0110           0   0.00000     -0.301140E-02
     21283 MEMB     172      PMPE     H3R      HAL2     0.900000E-01   1.00800           0   0.00000     -0.301140E-02
     21284 MEMB     172      PMPE     H3S      HAL2     0.900000E-01   1.00800           0   0.00000     -0.301140E-02
     21285 MEMB     172      PMPE     C24      CTL2    -0.180000       12.0110           0   0.00000     -0.301140E-02
     21286 MEMB     172      PMPE     H4R      HAL2     0.900000E-01   1.00800           0   0.00000     -0.301140E-02
     21287 MEMB     172      PMPE     H4S      HAL2     0.900000E-01   1.00800           0   0.00000     -0.301140E-02
     21288 MEMB     172      PMPE     C25      CTL2    -0.180000       12.0110           0   0.00000     -0.301140E-02
     21289 MEMB     172      PMPE     H5R      HAL2     0.900000E-01   1.00800           0   0.00000     -0.301140E-02
     21290 MEMB     172      PMPE     H5S      HAL2     0.900000E-01   1.00800           0   0.00000     -0.301140E-02
     21291 MEMB     172      PMPE     C26      CTL2    -0.180000       12.0110           0   0.00000     -0.301140E-02
     21292 MEMB     172      PMPE     H6R      HAL2     0.900000E-01   1.00800           0   0.00000     -0.301140E-02
     21293 MEMB     172      PMPE     H6S      HAL2     0.900000E-01   1.00800           0   0.00000     -0.301140E-02
     21294 MEMB     172      PMPE     C27      CTL2    -0.180000       12.0110           0   0.00000     -0.301140E-02
     21295 MEMB     172      PMPE     H7R      HAL2     0.900000E-01   1.00800           0   0.00000     -0.301140E-02
     21296 MEMB     172      PMPE     H7S      HAL2     0.900000E-01   1.00800           0   0.00000     -0.301140E-02
     21297 MEMB     172      PMPE     C28      CTL2    -0.180000       12.0110           0   0.00000     -0.301140E-02
     21298 MEMB     172      PMPE     H8R      HAL2     0.900000E-01   1.00800           0   0.00000     -0.301140E-02
     21299 MEMB     172      PMPE     H8S      HAL2     0.900000E-01   1.00800           0   0.00000     -0.301140E-02
     21300 MEMB     172      PMPE     C29      CG3RC1  -0.900000E-01   12.0110           0   0.00000     -0.301140E-02
     21301 MEMB     172      PMPE     H9R      HGA1     0.900000E-01   1.00800           0   0.00000     -0.301140E-02
     21302 MEMB     172      PMPE     C217     CG3C31  -0.180000       12.0110           0   0.00000     -0.301140E-02
     21303 MEMB     172      PMPE     H17R     HGA2     0.900000E-01   1.00800           0   0.00000     -0.301140E-02
     21304 MEMB     172      PMPE     H17S     HGA2     0.900000E-01   1.00800           0   0.00000     -0.301140E-02
     21305 MEMB     172      PMPE     C210     CG3RC1  -0.900000E-01   12.0110           0   0.00000     -0.301140E-02
     21306 MEMB     172      PMPE     H10R     HGA1     0.900000E-01   1.00800           0   0.00000     -0.301140E-02
     21307 MEMB     172      PMPE     C211     CTL2    -0.180000       12.0110           0   0.00000     -0.301140E-02
     21308 MEMB     172      PMPE     H11R     HAL2     0.900000E-01   1.00800           0   0.00000     -0.301140E-02
     21309 MEMB     172      PMPE     H11S     HAL2     0.900000E-01   1.00800           0   0.00000     -0.301140E-02
     21310 MEMB     172      PMPE     C212     CTL2    -0.180000       12.0110           0   0.00000     -0.301140E-02
     21311 MEMB     172      PMPE     H12R     HAL2     0.900000E-01   1.00800           0   0.00000     -0.301140E-02
     21312 MEMB     172      PMPE     H12S     HAL2     0.900000E-01   1.00800           0   0.00000     -0.301140E-02
     21313 MEMB     172      PMPE     C213     CTL2    -0.180000       12.0110           0   0.00000     -0.301140E-02
     21314 MEMB     172      PMPE     H13R     HAL2     0.900000E-01   1.00800           0   0.00000     -0.301140E-02
     21315 MEMB     172      PMPE     H13S     HAL2     0.900000E-01   1.00800           0   0.00000     -0.301140E-02
     21316 MEMB     172      PMPE     C214     CTL2    -0.180000       12.0110           0   0.00000     -0.301140E-02
     21317 MEMB     172      PMPE     H14R     HAL2     0.900000E-01   1.00800           0   0.00000     -0.301140E-02
     21318 MEMB     172      PMPE     H14S     HAL2     0.900000E-01   1.00800           0   0.00000     -0.301140E-02
     21319 MEMB     172      PMPE     C215     CTL2    -0.180000       12.0110           0   0.00000     -0.301140E-02
     21320 MEMB     172      PMPE     H15R     HAL2     0.900000E-01   1.00800           0   0.00000     -0.301140E-02
     21321 MEMB     172      PMPE     H15S     HAL2     0.900000E-01   1.00800           0   0.00000     -0.301140E-02
     21322 MEMB     172      PMPE     C216     CTL3    -0.270000       12.0110           0   0.00000     -0.301140E-02
     21323 MEMB     172      PMPE     H16R     HAL3     0.900000E-01   1.00800           0   0.00000     -0.301140E-02
     21324 MEMB     172      PMPE     H16S     HAL3     0.900000E-01   1.00800           0   0.00000     -0.301140E-02
     21325 MEMB     172      PMPE     H16T     HAL3     0.900000E-01   1.00800           0   0.00000     -0.301140E-02
     21326 MEMB     172      PMPE     C33      CTL2    -0.180000       12.0110           0   0.00000     -0.301140E-02
     21327 MEMB     172      PMPE     H3X      HAL2     0.900000E-01   1.00800           0   0.00000     -0.301140E-02
     21328 MEMB     172      PMPE     H3Y      HAL2     0.900000E-01   1.00800           0   0.00000     -0.301140E-02
     21329 MEMB     172      PMPE     C34      CTL2    -0.180000       12.0110           0   0.00000     -0.301140E-02
     21330 MEMB     172      PMPE     H4X      HAL2     0.900000E-01   1.00800           0   0.00000     -0.301140E-02
     21331 MEMB     172      PMPE     H4Y      HAL2     0.900000E-01   1.00800           0   0.00000     -0.301140E-02
     21332 MEMB     172      PMPE     C35      CTL2    -0.180000       12.0110           0   0.00000     -0.301140E-02
     21333 MEMB     172      PMPE     H5X      HAL2     0.900000E-01   1.00800           0   0.00000     -0.301140E-02
     21334 MEMB     172      PMPE     H5Y      HAL2     0.900000E-01   1.00800           0   0.00000     -0.301140E-02
     21335 MEMB     172      PMPE     C36      CTL2    -0.180000       12.0110           0   0.00000     -0.301140E-02
     21336 MEMB     172      PMPE     H6X      HAL2     0.900000E-01   1.00800           0   0.00000     -0.301140E-02
     21337 MEMB     172      PMPE     H6Y      HAL2     0.900000E-01   1.00800           0   0.00000     -0.301140E-02
     21338 MEMB     172      PMPE     C37      CTL2    -0.180000       12.0110           0   0.00000     -0.301140E-02
     21339 MEMB     172      PMPE     H7X      HAL2     0.900000E-01   1.00800           0   0.00000     -0.301140E-02
     21340 MEMB     172      PMPE     H7Y      HAL2     0.900000E-01   1.00800           0   0.00000     -0.301140E-02
     21341 MEMB     172      PMPE     C38      CTL2    -0.180000       12.0110           0   0.00000     -0.301140E-02
     21342 MEMB     172      PMPE     H8X      HAL2     0.900000E-01   1.00800           0   0.00000     -0.301140E-02
     21343 MEMB     172      PMPE     H8Y      HAL2     0.900000E-01   1.00800           0   0.00000     -0.301140E-02
     21344 MEMB     172      PMPE     C39      CTL2    -0.180000       12.0110           0   0.00000     -0.301140E-02
     21345 MEMB     172      PMPE     H9X      HAL2     0.900000E-01   1.00800           0   0.00000     -0.301140E-02
     21346 MEMB     172      PMPE     H9Y      HAL2     0.900000E-01   1.00800           0   0.00000     -0.301140E-02
     21347 MEMB     172      PMPE     C310     CTL2    -0.180000       12.0110           0   0.00000     -0.301140E-02
     21348 MEMB     172      PMPE     H10X     HAL2     0.900000E-01   1.00800           0   0.00000     -0.301140E-02
     21349 MEMB     172      PMPE     H10Y     HAL2     0.900000E-01   1.00800           0   0.00000     -0.301140E-02
     21350 MEMB     172      PMPE     C311     CTL2    -0.180000       12.0110           0   0.00000     -0.301140E-02
     21351 MEMB     172      PMPE     H11X     HAL2     0.900000E-01   1.00800           0   0.00000     -0.301140E-02
     21352 MEMB     172      PMPE     H11Y     HAL2     0.900000E-01   1.00800           0   0.00000     -0.301140E-02
     21353 MEMB     172      PMPE     C312     CTL2    -0.180000       12.0110           0   0.00000     -0.301140E-02
     21354 MEMB     172      PMPE     H12X     HAL2     0.900000E-01   1.00800           0   0.00000     -0.301140E-02
     21355 MEMB     172      PMPE     H12Y     HAL2     0.900000E-01   1.00800           0   0.00000     -0.301140E-02
     21356 MEMB     172      PMPE     C313     CTL2    -0.180000       12.0110           0   0.00000     -0.301140E-02
     21357 MEMB     172      PMPE     H13X     HAL2     0.900000E-01   1.00800           0   0.00000     -0.301140E-02
     21358 MEMB     172      PMPE     H13Y     HAL2     0.900000E-01   1.00800           0   0.00000     -0.301140E-02
     21359 MEMB     172      PMPE     C314     CTL2    -0.180000       12.0110           0   0.00000     -0.301140E-02
     21360 MEMB     172      PMPE     H14X     HAL2     0.900000E-01   1.00800           0   0.00000     -0.301140E-02
     21361 MEMB     172      PMPE     H14Y     HAL2     0.900000E-01   1.00800           0   0.00000     -0.301140E-02
     21362 MEMB     172      PMPE     C315     CTL2    -0.180000       12.0110           0   0.00000     -0.301140E-02
     21363 MEMB     172      PMPE     H15X     HAL2     0.900000E-01   1.00800           0   0.00000     -0.301140E-02
     21364 MEMB     172      PMPE     H15Y     HAL2     0.900000E-01   1.00800           0   0.00000     -0.301140E-02
     21365 MEMB     172      PMPE     C316     CTL3    -0.270000       12.0110           0   0.00000     -0.301140E-02
     21366 MEMB     172      PMPE     H16X     HAL3     0.900000E-01   1.00800           0   0.00000     -0.301140E-02
     21367 MEMB     172      PMPE     H16Y     HAL3     0.900000E-01   1.00800           0   0.00000     -0.301140E-02
     21368 MEMB     172      PMPE     H16Z     HAL3     0.900000E-01   1.00800           0   0.00000     -0.301140E-02
     21369 MEMB     173      PMPE     N        NH3L    -0.300000       14.0070           0   0.00000     -0.301140E-02
     21370 MEMB     173      PMPE     HN1      HCL      0.330000       1.00800           0   0.00000     -0.301140E-02
     21371 MEMB     173      PMPE     HN2      HCL      0.330000       1.00800           0   0.00000     -0.301140E-02
     21372 MEMB     173      PMPE     HN3      HCL      0.330000       1.00800           0   0.00000     -0.301140E-02
     21373 MEMB     173      PMPE     C12      CTL2     0.130000       12.0110           0   0.00000     -0.301140E-02
     21374 MEMB     173      PMPE     H12A     HAL2     0.900000E-01   1.00800           0   0.00000     -0.301140E-02
     21375 MEMB     173      PMPE     H12B     HAL2     0.900000E-01   1.00800           0   0.00000     -0.301140E-02
     21376 MEMB     173      PMPE     C11      CTL2    -0.800000E-01   12.0110           0   0.00000     -0.301140E-02
     21377 MEMB     173      PMPE     H11A     HAL2     0.900000E-01   1.00800           0   0.00000     -0.301140E-02
     21378 MEMB     173      PMPE     H11B     HAL2     0.900000E-01   1.00800           0   0.00000     -0.301140E-02
     21379 MEMB     173      PMPE     P        PL        1.50000       30.9740           0   0.00000     -0.301140E-02
     21380 MEMB     173      PMPE     O13      O2L     -0.780000       15.9994           0   0.00000     -0.301140E-02
     21381 MEMB     173      PMPE     O14      O2L     -0.780000       15.9994           0   0.00000     -0.301140E-02
     21382 MEMB     173      PMPE     O11      OSLP    -0.570000       15.9994           0   0.00000     -0.301140E-02
     21383 MEMB     173      PMPE     O12      OSLP    -0.570000       15.9994           0   0.00000     -0.301140E-02
     21384 MEMB     173      PMPE     C1       CTL2    -0.800000E-01   12.0110           0   0.00000     -0.301140E-02
     21385 MEMB     173      PMPE     HA       HAL2     0.900000E-01   1.00800           0   0.00000     -0.301140E-02
     21386 MEMB     173      PMPE     HB       HAL2     0.900000E-01   1.00800           0   0.00000     -0.301140E-02
     21387 MEMB     173      PMPE     C2       CTL1     0.170000       12.0110           0   0.00000     -0.301140E-02
     21388 MEMB     173      PMPE     HS       HAL1     0.900000E-01   1.00800           0   0.00000     -0.301140E-02
     21389 MEMB     173      PMPE     O21      OSL     -0.490000       15.9994           0   0.00000     -0.301140E-02
     21390 MEMB     173      PMPE     C21      CL       0.900000       12.0110           0   0.00000     -0.301140E-02
     21391 MEMB     173      PMPE     O22      OBL     -0.630000       15.9994           0   0.00000     -0.301140E-02
     21392 MEMB     173      PMPE     C22      CTL2    -0.220000       12.0110           0   0.00000     -0.301140E-02
     21393 MEMB     173      PMPE     H2R      HAL2     0.900000E-01   1.00800           0   0.00000     -0.301140E-02
     21394 MEMB     173      PMPE     H2S      HAL2     0.900000E-01   1.00800           0   0.00000     -0.301140E-02
     21395 MEMB     173      PMPE     C3       CTL2     0.800000E-01   12.0110           0   0.00000     -0.301140E-02
     21396 MEMB     173      PMPE     HX       HAL2     0.900000E-01   1.00800           0   0.00000     -0.301140E-02
     21397 MEMB     173      PMPE     HY       HAL2     0.900000E-01   1.00800           0   0.00000     -0.301140E-02
     21398 MEMB     173      PMPE     O31      OSL     -0.490000       15.9994           0   0.00000     -0.301140E-02
     21399 MEMB     173      PMPE     C31      CL       0.900000       12.0110           0   0.00000     -0.301140E-02
     21400 MEMB     173      PMPE     O32      OBL     -0.630000       15.9994           0   0.00000     -0.301140E-02
     21401 MEMB     173      PMPE     C32      CTL2    -0.220000       12.0110           0   0.00000     -0.301140E-02
     21402 MEMB     173      PMPE     H2X      HAL2     0.900000E-01   1.00800           0   0.00000     -0.301140E-02
     21403 MEMB     173      PMPE     H2Y      HAL2     0.900000E-01   1.00800           0   0.00000     -0.301140E-02
     21404 MEMB     173      PMPE     C23      CTL2    -0.180000       12.0110           0   0.00000     -0.301140E-02
     21405 MEMB     173      PMPE     H3R      HAL2     0.900000E-01   1.00800           0   0.00000     -0.301140E-02
     21406 MEMB     173      PMPE     H3S      HAL2     0.900000E-01   1.00800           0   0.00000     -0.301140E-02
     21407 MEMB     173      PMPE     C24      CTL2    -0.180000       12.0110           0   0.00000     -0.301140E-02
     21408 MEMB     173      PMPE     H4R      HAL2     0.900000E-01   1.00800           0   0.00000     -0.301140E-02
     21409 MEMB     173      PMPE     H4S      HAL2     0.900000E-01   1.00800           0   0.00000     -0.301140E-02
     21410 MEMB     173      PMPE     C25      CTL2    -0.180000       12.0110           0   0.00000     -0.301140E-02
     21411 MEMB     173      PMPE     H5R      HAL2     0.900000E-01   1.00800           0   0.00000     -0.301140E-02
     21412 MEMB     173      PMPE     H5S      HAL2     0.900000E-01   1.00800           0   0.00000     -0.301140E-02
     21413 MEMB     173      PMPE     C26      CTL2    -0.180000       12.0110           0   0.00000     -0.301140E-02
     21414 MEMB     173      PMPE     H6R      HAL2     0.900000E-01   1.00800           0   0.00000     -0.301140E-02
     21415 MEMB     173      PMPE     H6S      HAL2     0.900000E-01   1.00800           0   0.00000     -0.301140E-02
     21416 MEMB     173      PMPE     C27      CTL2    -0.180000       12.0110           0   0.00000     -0.301140E-02
     21417 MEMB     173      PMPE     H7R      HAL2     0.900000E-01   1.00800           0   0.00000     -0.301140E-02
     21418 MEMB     173      PMPE     H7S      HAL2     0.900000E-01   1.00800           0   0.00000     -0.301140E-02
     21419 MEMB     173      PMPE     C28      CTL2    -0.180000       12.0110           0   0.00000     -0.301140E-02
     21420 MEMB     173      PMPE     H8R      HAL2     0.900000E-01   1.00800           0   0.00000     -0.301140E-02
     21421 MEMB     173      PMPE     H8S      HAL2     0.900000E-01   1.00800           0   0.00000     -0.301140E-02
     21422 MEMB     173      PMPE     C29      CG3RC1  -0.900000E-01   12.0110           0   0.00000     -0.301140E-02
     21423 MEMB     173      PMPE     H9R      HGA1     0.900000E-01   1.00800           0   0.00000     -0.301140E-02
     21424 MEMB     173      PMPE     C217     CG3C31  -0.180000       12.0110           0   0.00000     -0.301140E-02
     21425 MEMB     173      PMPE     H17R     HGA2     0.900000E-01   1.00800           0   0.00000     -0.301140E-02
     21426 MEMB     173      PMPE     H17S     HGA2     0.900000E-01   1.00800           0   0.00000     -0.301140E-02
     21427 MEMB     173      PMPE     C210     CG3RC1  -0.900000E-01   12.0110           0   0.00000     -0.301140E-02
     21428 MEMB     173      PMPE     H10R     HGA1     0.900000E-01   1.00800           0   0.00000     -0.301140E-02
     21429 MEMB     173      PMPE     C211     CTL2    -0.180000       12.0110           0   0.00000     -0.301140E-02
     21430 MEMB     173      PMPE     H11R     HAL2     0.900000E-01   1.00800           0   0.00000     -0.301140E-02
     21431 MEMB     173      PMPE     H11S     HAL2     0.900000E-01   1.00800           0   0.00000     -0.301140E-02
     21432 MEMB     173      PMPE     C212     CTL2    -0.180000       12.0110           0   0.00000     -0.301140E-02
     21433 MEMB     173      PMPE     H12R     HAL2     0.900000E-01   1.00800           0   0.00000     -0.301140E-02
     21434 MEMB     173      PMPE     H12S     HAL2     0.900000E-01   1.00800           0   0.00000     -0.301140E-02
     21435 MEMB     173      PMPE     C213     CTL2    -0.180000       12.0110           0   0.00000     -0.301140E-02
     21436 MEMB     173      PMPE     H13R     HAL2     0.900000E-01   1.00800           0   0.00000     -0.301140E-02
     21437 MEMB     173      PMPE     H13S     HAL2     0.900000E-01   1.00800           0   0.00000     -0.301140E-02
     21438 MEMB     173      PMPE     C214     CTL2    -0.180000       12.0110           0   0.00000     -0.301140E-02
     21439 MEMB     173      PMPE     H14R     HAL2     0.900000E-01   1.00800           0   0.00000     -0.301140E-02
     21440 MEMB     173      PMPE     H14S     HAL2     0.900000E-01   1.00800           0   0.00000     -0.301140E-02
     21441 MEMB     173      PMPE     C215     CTL2    -0.180000       12.0110           0   0.00000     -0.301140E-02
     21442 MEMB     173      PMPE     H15R     HAL2     0.900000E-01   1.00800           0   0.00000     -0.301140E-02
     21443 MEMB     173      PMPE     H15S     HAL2     0.900000E-01   1.00800           0   0.00000     -0.301140E-02
     21444 MEMB     173      PMPE     C216     CTL3    -0.270000       12.0110           0   0.00000     -0.301140E-02
     21445 MEMB     173      PMPE     H16R     HAL3     0.900000E-01   1.00800           0   0.00000     -0.301140E-02
     21446 MEMB     173      PMPE     H16S     HAL3     0.900000E-01   1.00800           0   0.00000     -0.301140E-02
     21447 MEMB     173      PMPE     H16T     HAL3     0.900000E-01   1.00800           0   0.00000     -0.301140E-02
     21448 MEMB     173      PMPE     C33      CTL2    -0.180000       12.0110           0   0.00000     -0.301140E-02
     21449 MEMB     173      PMPE     H3X      HAL2     0.900000E-01   1.00800           0   0.00000     -0.301140E-02
     21450 MEMB     173      PMPE     H3Y      HAL2     0.900000E-01   1.00800           0   0.00000     -0.301140E-02
     21451 MEMB     173      PMPE     C34      CTL2    -0.180000       12.0110           0   0.00000     -0.301140E-02
     21452 MEMB     173      PMPE     H4X      HAL2     0.900000E-01   1.00800           0   0.00000     -0.301140E-02
     21453 MEMB     173      PMPE     H4Y      HAL2     0.900000E-01   1.00800           0   0.00000     -0.301140E-02
     21454 MEMB     173      PMPE     C35      CTL2    -0.180000       12.0110           0   0.00000     -0.301140E-02
     21455 MEMB     173      PMPE     H5X      HAL2     0.900000E-01   1.00800           0   0.00000     -0.301140E-02
     21456 MEMB     173      PMPE     H5Y      HAL2     0.900000E-01   1.00800           0   0.00000     -0.301140E-02
     21457 MEMB     173      PMPE     C36      CTL2    -0.180000       12.0110           0   0.00000     -0.301140E-02
     21458 MEMB     173      PMPE     H6X      HAL2     0.900000E-01   1.00800           0   0.00000     -0.301140E-02
     21459 MEMB     173      PMPE     H6Y      HAL2     0.900000E-01   1.00800           0   0.00000     -0.301140E-02
     21460 MEMB     173      PMPE     C37      CTL2    -0.180000       12.0110           0   0.00000     -0.301140E-02
     21461 MEMB     173      PMPE     H7X      HAL2     0.900000E-01   1.00800           0   0.00000     -0.301140E-02
     21462 MEMB     173      PMPE     H7Y      HAL2     0.900000E-01   1.00800           0   0.00000     -0.301140E-02
     21463 MEMB     173      PMPE     C38      CTL2    -0.180000       12.0110           0   0.00000     -0.301140E-02
     21464 MEMB     173      PMPE     H8X      HAL2     0.900000E-01   1.00800           0   0.00000     -0.301140E-02
     21465 MEMB     173      PMPE     H8Y      HAL2     0.900000E-01   1.00800           0   0.00000     -0.301140E-02
     21466 MEMB     173      PMPE     C39      CTL2    -0.180000       12.0110           0   0.00000     -0.301140E-02
     21467 MEMB     173      PMPE     H9X      HAL2     0.900000E-01   1.00800           0   0.00000     -0.301140E-02
     21468 MEMB     173      PMPE     H9Y      HAL2     0.900000E-01   1.00800           0   0.00000     -0.301140E-02
     21469 MEMB     173      PMPE     C310     CTL2    -0.180000       12.0110           0   0.00000     -0.301140E-02
     21470 MEMB     173      PMPE     H10X     HAL2     0.900000E-01   1.00800           0   0.00000     -0.301140E-02
     21471 MEMB     173      PMPE     H10Y     HAL2     0.900000E-01   1.00800           0   0.00000     -0.301140E-02
     21472 MEMB     173      PMPE     C311     CTL2    -0.180000       12.0110           0   0.00000     -0.301140E-02
     21473 MEMB     173      PMPE     H11X     HAL2     0.900000E-01   1.00800           0   0.00000     -0.301140E-02
     21474 MEMB     173      PMPE     H11Y     HAL2     0.900000E-01   1.00800           0   0.00000     -0.301140E-02
     21475 MEMB     173      PMPE     C312     CTL2    -0.180000       12.0110           0   0.00000     -0.301140E-02
     21476 MEMB     173      PMPE     H12X     HAL2     0.900000E-01   1.00800           0   0.00000     -0.301140E-02
     21477 MEMB     173      PMPE     H12Y     HAL2     0.900000E-01   1.00800           0   0.00000     -0.301140E-02
     21478 MEMB     173      PMPE     C313     CTL2    -0.180000       12.0110           0   0.00000     -0.301140E-02
     21479 MEMB     173      PMPE     H13X     HAL2     0.900000E-01   1.00800           0   0.00000     -0.301140E-02
     21480 MEMB     173      PMPE     H13Y     HAL2     0.900000E-01   1.00800           0   0.00000     -0.301140E-02
     21481 MEMB     173      PMPE     C314     CTL2    -0.180000       12.0110           0   0.00000     -0.301140E-02
     21482 MEMB     173      PMPE     H14X     HAL2     0.900000E-01   1.00800           0   0.00000     -0.301140E-02
     21483 MEMB     173      PMPE     H14Y     HAL2     0.900000E-01   1.00800           0   0.00000     -0.301140E-02
     21484 MEMB     173      PMPE     C315     CTL2    -0.180000       12.0110           0   0.00000     -0.301140E-02
     21485 MEMB     173      PMPE     H15X     HAL2     0.900000E-01   1.00800           0   0.00000     -0.301140E-02
     21486 MEMB     173      PMPE     H15Y     HAL2     0.900000E-01   1.00800           0   0.00000     -0.301140E-02
     21487 MEMB     173      PMPE     C316     CTL3    -0.270000       12.0110           0   0.00000     -0.301140E-02
     21488 MEMB     173      PMPE     H16X     HAL3     0.900000E-01   1.00800           0   0.00000     -0.301140E-02
     21489 MEMB     173      PMPE     H16Y     HAL3     0.900000E-01   1.00800           0   0.00000     -0.301140E-02
     21490 MEMB     173      PMPE     H16Z     HAL3     0.900000E-01   1.00800           0   0.00000     -0.301140E-02
     21491 MEMB     174      POPE     N        NH3L    -0.300000       14.0070           0   0.00000     -0.301140E-02
     21492 MEMB     174      POPE     HN1      HCL      0.330000       1.00800           0   0.00000     -0.301140E-02
     21493 MEMB     174      POPE     HN2      HCL      0.330000       1.00800           0   0.00000     -0.301140E-02
     21494 MEMB     174      POPE     HN3      HCL      0.330000       1.00800           0   0.00000     -0.301140E-02
     21495 MEMB     174      POPE     C12      CTL2     0.130000       12.0110           0   0.00000     -0.301140E-02
     21496 MEMB     174      POPE     H12A     HAL2     0.900000E-01   1.00800           0   0.00000     -0.301140E-02
     21497 MEMB     174      POPE     H12B     HAL2     0.900000E-01   1.00800           0   0.00000     -0.301140E-02
     21498 MEMB     174      POPE     C11      CTL2    -0.800000E-01   12.0110           0   0.00000     -0.301140E-02
     21499 MEMB     174      POPE     H11A     HAL2     0.900000E-01   1.00800           0   0.00000     -0.301140E-02
     21500 MEMB     174      POPE     H11B     HAL2     0.900000E-01   1.00800           0   0.00000     -0.301140E-02
     21501 MEMB     174      POPE     P        PL        1.50000       30.9740           0   0.00000     -0.301140E-02
     21502 MEMB     174      POPE     O13      O2L     -0.780000       15.9994           0   0.00000     -0.301140E-02
     21503 MEMB     174      POPE     O14      O2L     -0.780000       15.9994           0   0.00000     -0.301140E-02
     21504 MEMB     174      POPE     O11      OSLP    -0.570000       15.9994           0   0.00000     -0.301140E-02
     21505 MEMB     174      POPE     O12      OSLP    -0.570000       15.9994           0   0.00000     -0.301140E-02
     21506 MEMB     174      POPE     C1       CTL2    -0.800000E-01   12.0110           0   0.00000     -0.301140E-02
     21507 MEMB     174      POPE     HA       HAL2     0.900000E-01   1.00800           0   0.00000     -0.301140E-02
     21508 MEMB     174      POPE     HB       HAL2     0.900000E-01   1.00800           0   0.00000     -0.301140E-02
     21509 MEMB     174      POPE     C2       CTL1     0.170000       12.0110           0   0.00000     -0.301140E-02
     21510 MEMB     174      POPE     HS       HAL1     0.900000E-01   1.00800           0   0.00000     -0.301140E-02
     21511 MEMB     174      POPE     O21      OSL     -0.490000       15.9994           0   0.00000     -0.301140E-02
     21512 MEMB     174      POPE     C21      CL       0.900000       12.0110           0   0.00000     -0.301140E-02
     21513 MEMB     174      POPE     O22      OBL     -0.630000       15.9994           0   0.00000     -0.301140E-02
     21514 MEMB     174      POPE     C22      CTL2    -0.220000       12.0110           0   0.00000     -0.301140E-02
     21515 MEMB     174      POPE     H2R      HAL2     0.900000E-01   1.00800           0   0.00000     -0.301140E-02
     21516 MEMB     174      POPE     H2S      HAL2     0.900000E-01   1.00800           0   0.00000     -0.301140E-02
     21517 MEMB     174      POPE     C3       CTL2     0.800000E-01   12.0110           0   0.00000     -0.301140E-02
     21518 MEMB     174      POPE     HX       HAL2     0.900000E-01   1.00800           0   0.00000     -0.301140E-02
     21519 MEMB     174      POPE     HY       HAL2     0.900000E-01   1.00800           0   0.00000     -0.301140E-02
     21520 MEMB     174      POPE     O31      OSL     -0.490000       15.9994           0   0.00000     -0.301140E-02
     21521 MEMB     174      POPE     C31      CL       0.900000       12.0110           0   0.00000     -0.301140E-02
     21522 MEMB     174      POPE     O32      OBL     -0.630000       15.9994           0   0.00000     -0.301140E-02
     21523 MEMB     174      POPE     C32      CTL2    -0.220000       12.0110           0   0.00000     -0.301140E-02
     21524 MEMB     174      POPE     H2X      HAL2     0.900000E-01   1.00800           0   0.00000     -0.301140E-02
     21525 MEMB     174      POPE     H2Y      HAL2     0.900000E-01   1.00800           0   0.00000     -0.301140E-02
     21526 MEMB     174      POPE     C23      CTL2    -0.180000       12.0110           0   0.00000     -0.301140E-02
     21527 MEMB     174      POPE     H3R      HAL2     0.900000E-01   1.00800           0   0.00000     -0.301140E-02
     21528 MEMB     174      POPE     H3S      HAL2     0.900000E-01   1.00800           0   0.00000     -0.301140E-02
     21529 MEMB     174      POPE     C24      CTL2    -0.180000       12.0110           0   0.00000     -0.301140E-02
     21530 MEMB     174      POPE     H4R      HAL2     0.900000E-01   1.00800           0   0.00000     -0.301140E-02
     21531 MEMB     174      POPE     H4S      HAL2     0.900000E-01   1.00800           0   0.00000     -0.301140E-02
     21532 MEMB     174      POPE     C25      CTL2    -0.180000       12.0110           0   0.00000     -0.301140E-02
     21533 MEMB     174      POPE     H5R      HAL2     0.900000E-01   1.00800           0   0.00000     -0.301140E-02
     21534 MEMB     174      POPE     H5S      HAL2     0.900000E-01   1.00800           0   0.00000     -0.301140E-02
     21535 MEMB     174      POPE     C26      CTL2    -0.180000       12.0110           0   0.00000     -0.301140E-02
     21536 MEMB     174      POPE     H6R      HAL2     0.900000E-01   1.00800           0   0.00000     -0.301140E-02
     21537 MEMB     174      POPE     H6S      HAL2     0.900000E-01   1.00800           0   0.00000     -0.301140E-02
     21538 MEMB     174      POPE     C27      CTL2    -0.180000       12.0110           0   0.00000     -0.301140E-02
     21539 MEMB     174      POPE     H7R      HAL2     0.900000E-01   1.00800           0   0.00000     -0.301140E-02
     21540 MEMB     174      POPE     H7S      HAL2     0.900000E-01   1.00800           0   0.00000     -0.301140E-02
     21541 MEMB     174      POPE     C28      CTL2    -0.180000       12.0110           0   0.00000     -0.301140E-02
     21542 MEMB     174      POPE     H8R      HAL2     0.900000E-01   1.00800           0   0.00000     -0.301140E-02
     21543 MEMB     174      POPE     H8S      HAL2     0.900000E-01   1.00800           0   0.00000     -0.301140E-02
     21544 MEMB     174      POPE     C29      CEL1    -0.150000       12.0110           0   0.00000     -0.301140E-02
     21545 MEMB     174      POPE     H91      HEL1     0.150000       1.00800           0   0.00000     -0.301140E-02
     21546 MEMB     174      POPE     C210     CEL1    -0.150000       12.0110           0   0.00000     -0.301140E-02
     21547 MEMB     174      POPE     H101     HEL1     0.150000       1.00800           0   0.00000     -0.301140E-02
     21548 MEMB     174      POPE     C211     CTL2    -0.180000       12.0110           0   0.00000     -0.301140E-02
     21549 MEMB     174      POPE     H11R     HAL2     0.900000E-01   1.00800           0   0.00000     -0.301140E-02
     21550 MEMB     174      POPE     H11S     HAL2     0.900000E-01   1.00800           0   0.00000     -0.301140E-02
     21551 MEMB     174      POPE     C212     CTL2    -0.180000       12.0110           0   0.00000     -0.301140E-02
     21552 MEMB     174      POPE     H12R     HAL2     0.900000E-01   1.00800           0   0.00000     -0.301140E-02
     21553 MEMB     174      POPE     H12S     HAL2     0.900000E-01   1.00800           0   0.00000     -0.301140E-02
     21554 MEMB     174      POPE     C213     CTL2    -0.180000       12.0110           0   0.00000     -0.301140E-02
     21555 MEMB     174      POPE     H13R     HAL2     0.900000E-01   1.00800           0   0.00000     -0.301140E-02
     21556 MEMB     174      POPE     H13S     HAL2     0.900000E-01   1.00800           0   0.00000     -0.301140E-02
     21557 MEMB     174      POPE     C214     CTL2    -0.180000       12.0110           0   0.00000     -0.301140E-02
     21558 MEMB     174      POPE     H14R     HAL2     0.900000E-01   1.00800           0   0.00000     -0.301140E-02
     21559 MEMB     174      POPE     H14S     HAL2     0.900000E-01   1.00800           0   0.00000     -0.301140E-02
     21560 MEMB     174      POPE     C215     CTL2    -0.180000       12.0110           0   0.00000     -0.301140E-02
     21561 MEMB     174      POPE     H15R     HAL2     0.900000E-01   1.00800           0   0.00000     -0.301140E-02
     21562 MEMB     174      POPE     H15S     HAL2     0.900000E-01   1.00800           0   0.00000     -0.301140E-02
     21563 MEMB     174      POPE     C216     CTL2    -0.180000       12.0110           0   0.00000     -0.301140E-02
     21564 MEMB     174      POPE     H16R     HAL2     0.900000E-01   1.00800           0   0.00000     -0.301140E-02
     21565 MEMB     174      POPE     H16S     HAL2     0.900000E-01   1.00800           0   0.00000     -0.301140E-02
     21566 MEMB     174      POPE     C217     CTL2    -0.180000       12.0110           0   0.00000     -0.301140E-02
     21567 MEMB     174      POPE     H17R     HAL2     0.900000E-01   1.00800           0   0.00000     -0.301140E-02
     21568 MEMB     174      POPE     H17S     HAL2     0.900000E-01   1.00800           0   0.00000     -0.301140E-02
     21569 MEMB     174      POPE     C218     CTL3    -0.270000       12.0110           0   0.00000     -0.301140E-02
     21570 MEMB     174      POPE     H18R     HAL3     0.900000E-01   1.00800           0   0.00000     -0.301140E-02
     21571 MEMB     174      POPE     H18S     HAL3     0.900000E-01   1.00800           0   0.00000     -0.301140E-02
     21572 MEMB     174      POPE     H18T     HAL3     0.900000E-01   1.00800           0   0.00000     -0.301140E-02
     21573 MEMB     174      POPE     C33      CTL2    -0.180000       12.0110           0   0.00000     -0.301140E-02
     21574 MEMB     174      POPE     H3X      HAL2     0.900000E-01   1.00800           0   0.00000     -0.301140E-02
     21575 MEMB     174      POPE     H3Y      HAL2     0.900000E-01   1.00800           0   0.00000     -0.301140E-02
     21576 MEMB     174      POPE     C34      CTL2    -0.180000       12.0110           0   0.00000     -0.301140E-02
     21577 MEMB     174      POPE     H4X      HAL2     0.900000E-01   1.00800           0   0.00000     -0.301140E-02
     21578 MEMB     174      POPE     H4Y      HAL2     0.900000E-01   1.00800           0   0.00000     -0.301140E-02
     21579 MEMB     174      POPE     C35      CTL2    -0.180000       12.0110           0   0.00000     -0.301140E-02
     21580 MEMB     174      POPE     H5X      HAL2     0.900000E-01   1.00800           0   0.00000     -0.301140E-02
     21581 MEMB     174      POPE     H5Y      HAL2     0.900000E-01   1.00800           0   0.00000     -0.301140E-02
     21582 MEMB     174      POPE     C36      CTL2    -0.180000       12.0110           0   0.00000     -0.301140E-02
     21583 MEMB     174      POPE     H6X      HAL2     0.900000E-01   1.00800           0   0.00000     -0.301140E-02
     21584 MEMB     174      POPE     H6Y      HAL2     0.900000E-01   1.00800           0   0.00000     -0.301140E-02
     21585 MEMB     174      POPE     C37      CTL2    -0.180000       12.0110           0   0.00000     -0.301140E-02
     21586 MEMB     174      POPE     H7X      HAL2     0.900000E-01   1.00800           0   0.00000     -0.301140E-02
     21587 MEMB     174      POPE     H7Y      HAL2     0.900000E-01   1.00800           0   0.00000     -0.301140E-02
     21588 MEMB     174      POPE     C38      CTL2    -0.180000       12.0110           0   0.00000     -0.301140E-02
     21589 MEMB     174      POPE     H8X      HAL2     0.900000E-01   1.00800           0   0.00000     -0.301140E-02
     21590 MEMB     174      POPE     H8Y      HAL2     0.900000E-01   1.00800           0   0.00000     -0.301140E-02
     21591 MEMB     174      POPE     C39      CTL2    -0.180000       12.0110           0   0.00000     -0.301140E-02
     21592 MEMB     174      POPE     H9X      HAL2     0.900000E-01   1.00800           0   0.00000     -0.301140E-02
     21593 MEMB     174      POPE     H9Y      HAL2     0.900000E-01   1.00800           0   0.00000     -0.301140E-02
     21594 MEMB     174      POPE     C310     CTL2    -0.180000       12.0110           0   0.00000     -0.301140E-02
     21595 MEMB     174      POPE     H10X     HAL2     0.900000E-01   1.00800           0   0.00000     -0.301140E-02
     21596 MEMB     174      POPE     H10Y     HAL2     0.900000E-01   1.00800           0   0.00000     -0.301140E-02
     21597 MEMB     174      POPE     C311     CTL2    -0.180000       12.0110           0   0.00000     -0.301140E-02
     21598 MEMB     174      POPE     H11X     HAL2     0.900000E-01   1.00800           0   0.00000     -0.301140E-02
     21599 MEMB     174      POPE     H11Y     HAL2     0.900000E-01   1.00800           0   0.00000     -0.301140E-02
     21600 MEMB     174      POPE     C312     CTL2    -0.180000       12.0110           0   0.00000     -0.301140E-02
     21601 MEMB     174      POPE     H12X     HAL2     0.900000E-01   1.00800           0   0.00000     -0.301140E-02
     21602 MEMB     174      POPE     H12Y     HAL2     0.900000E-01   1.00800           0   0.00000     -0.301140E-02
     21603 MEMB     174      POPE     C313     CTL2    -0.180000       12.0110           0   0.00000     -0.301140E-02
     21604 MEMB     174      POPE     H13X     HAL2     0.900000E-01   1.00800           0   0.00000     -0.301140E-02
     21605 MEMB     174      POPE     H13Y     HAL2     0.900000E-01   1.00800           0   0.00000     -0.301140E-02
     21606 MEMB     174      POPE     C314     CTL2    -0.180000       12.0110           0   0.00000     -0.301140E-02
     21607 MEMB     174      POPE     H14X     HAL2     0.900000E-01   1.00800           0   0.00000     -0.301140E-02
     21608 MEMB     174      POPE     H14Y     HAL2     0.900000E-01   1.00800           0   0.00000     -0.301140E-02
     21609 MEMB     174      POPE     C315     CTL2    -0.180000       12.0110           0   0.00000     -0.301140E-02
     21610 MEMB     174      POPE     H15X     HAL2     0.900000E-01   1.00800           0   0.00000     -0.301140E-02
     21611 MEMB     174      POPE     H15Y     HAL2     0.900000E-01   1.00800           0   0.00000     -0.301140E-02
     21612 MEMB     174      POPE     C316     CTL3    -0.270000       12.0110           0   0.00000     -0.301140E-02
     21613 MEMB     174      POPE     H16X     HAL3     0.900000E-01   1.00800           0   0.00000     -0.301140E-02
     21614 MEMB     174      POPE     H16Y     HAL3     0.900000E-01   1.00800           0   0.00000     -0.301140E-02
     21615 MEMB     174      POPE     H16Z     HAL3     0.900000E-01   1.00800           0   0.00000     -0.301140E-02
     21616 MEMB     175      POPE     N        NH3L    -0.300000       14.0070           0   0.00000     -0.301140E-02
     21617 MEMB     175      POPE     HN1      HCL      0.330000       1.00800           0   0.00000     -0.301140E-02
     21618 MEMB     175      POPE     HN2      HCL      0.330000       1.00800           0   0.00000     -0.301140E-02
     21619 MEMB     175      POPE     HN3      HCL      0.330000       1.00800           0   0.00000     -0.301140E-02
     21620 MEMB     175      POPE     C12      CTL2     0.130000       12.0110           0   0.00000     -0.301140E-02
     21621 MEMB     175      POPE     H12A     HAL2     0.900000E-01   1.00800           0   0.00000     -0.301140E-02
     21622 MEMB     175      POPE     H12B     HAL2     0.900000E-01   1.00800           0   0.00000     -0.301140E-02
     21623 MEMB     175      POPE     C11      CTL2    -0.800000E-01   12.0110           0   0.00000     -0.301140E-02
     21624 MEMB     175      POPE     H11A     HAL2     0.900000E-01   1.00800           0   0.00000     -0.301140E-02
     21625 MEMB     175      POPE     H11B     HAL2     0.900000E-01   1.00800           0   0.00000     -0.301140E-02
     21626 MEMB     175      POPE     P        PL        1.50000       30.9740           0   0.00000     -0.301140E-02
     21627 MEMB     175      POPE     O13      O2L     -0.780000       15.9994           0   0.00000     -0.301140E-02
     21628 MEMB     175      POPE     O14      O2L     -0.780000       15.9994           0   0.00000     -0.301140E-02
     21629 MEMB     175      POPE     O11      OSLP    -0.570000       15.9994           0   0.00000     -0.301140E-02
     21630 MEMB     175      POPE     O12      OSLP    -0.570000       15.9994           0   0.00000     -0.301140E-02
     21631 MEMB     175      POPE     C1       CTL2    -0.800000E-01   12.0110           0   0.00000     -0.301140E-02
     21632 MEMB     175      POPE     HA       HAL2     0.900000E-01   1.00800           0   0.00000     -0.301140E-02
     21633 MEMB     175      POPE     HB       HAL2     0.900000E-01   1.00800           0   0.00000     -0.301140E-02
     21634 MEMB     175      POPE     C2       CTL1     0.170000       12.0110           0   0.00000     -0.301140E-02
     21635 MEMB     175      POPE     HS       HAL1     0.900000E-01   1.00800           0   0.00000     -0.301140E-02
     21636 MEMB     175      POPE     O21      OSL     -0.490000       15.9994           0   0.00000     -0.301140E-02
     21637 MEMB     175      POPE     C21      CL       0.900000       12.0110           0   0.00000     -0.301140E-02
     21638 MEMB     175      POPE     O22      OBL     -0.630000       15.9994           0   0.00000     -0.301140E-02
     21639 MEMB     175      POPE     C22      CTL2    -0.220000       12.0110           0   0.00000     -0.301140E-02
     21640 MEMB     175      POPE     H2R      HAL2     0.900000E-01   1.00800           0   0.00000     -0.301140E-02
     21641 MEMB     175      POPE     H2S      HAL2     0.900000E-01   1.00800           0   0.00000     -0.301140E-02
     21642 MEMB     175      POPE     C3       CTL2     0.800000E-01   12.0110           0   0.00000     -0.301140E-02
     21643 MEMB     175      POPE     HX       HAL2     0.900000E-01   1.00800           0   0.00000     -0.301140E-02
     21644 MEMB     175      POPE     HY       HAL2     0.900000E-01   1.00800           0   0.00000     -0.301140E-02
     21645 MEMB     175      POPE     O31      OSL     -0.490000       15.9994           0   0.00000     -0.301140E-02
     21646 MEMB     175      POPE     C31      CL       0.900000       12.0110           0   0.00000     -0.301140E-02
     21647 MEMB     175      POPE     O32      OBL     -0.630000       15.9994           0   0.00000     -0.301140E-02
     21648 MEMB     175      POPE     C32      CTL2    -0.220000       12.0110           0   0.00000     -0.301140E-02
     21649 MEMB     175      POPE     H2X      HAL2     0.900000E-01   1.00800           0   0.00000     -0.301140E-02
     21650 MEMB     175      POPE     H2Y      HAL2     0.900000E-01   1.00800           0   0.00000     -0.301140E-02
     21651 MEMB     175      POPE     C23      CTL2    -0.180000       12.0110           0   0.00000     -0.301140E-02
     21652 MEMB     175      POPE     H3R      HAL2     0.900000E-01   1.00800           0   0.00000     -0.301140E-02
     21653 MEMB     175      POPE     H3S      HAL2     0.900000E-01   1.00800           0   0.00000     -0.301140E-02
     21654 MEMB     175      POPE     C24      CTL2    -0.180000       12.0110           0   0.00000     -0.301140E-02
     21655 MEMB     175      POPE     H4R      HAL2     0.900000E-01   1.00800           0   0.00000     -0.301140E-02
     21656 MEMB     175      POPE     H4S      HAL2     0.900000E-01   1.00800           0   0.00000     -0.301140E-02
     21657 MEMB     175      POPE     C25      CTL2    -0.180000       12.0110           0   0.00000     -0.301140E-02
     21658 MEMB     175      POPE     H5R      HAL2     0.900000E-01   1.00800           0   0.00000     -0.301140E-02
     21659 MEMB     175      POPE     H5S      HAL2     0.900000E-01   1.00800           0   0.00000     -0.301140E-02
     21660 MEMB     175      POPE     C26      CTL2    -0.180000       12.0110           0   0.00000     -0.301140E-02
     21661 MEMB     175      POPE     H6R      HAL2     0.900000E-01   1.00800           0   0.00000     -0.301140E-02
     21662 MEMB     175      POPE     H6S      HAL2     0.900000E-01   1.00800           0   0.00000     -0.301140E-02
     21663 MEMB     175      POPE     C27      CTL2    -0.180000       12.0110           0   0.00000     -0.301140E-02
     21664 MEMB     175      POPE     H7R      HAL2     0.900000E-01   1.00800           0   0.00000     -0.301140E-02
     21665 MEMB     175      POPE     H7S      HAL2     0.900000E-01   1.00800           0   0.00000     -0.301140E-02
     21666 MEMB     175      POPE     C28      CTL2    -0.180000       12.0110           0   0.00000     -0.301140E-02
     21667 MEMB     175      POPE     H8R      HAL2     0.900000E-01   1.00800           0   0.00000     -0.301140E-02
     21668 MEMB     175      POPE     H8S      HAL2     0.900000E-01   1.00800           0   0.00000     -0.301140E-02
     21669 MEMB     175      POPE     C29      CEL1    -0.150000       12.0110           0   0.00000     -0.301140E-02
     21670 MEMB     175      POPE     H91      HEL1     0.150000       1.00800           0   0.00000     -0.301140E-02
     21671 MEMB     175      POPE     C210     CEL1    -0.150000       12.0110           0   0.00000     -0.301140E-02
     21672 MEMB     175      POPE     H101     HEL1     0.150000       1.00800           0   0.00000     -0.301140E-02
     21673 MEMB     175      POPE     C211     CTL2    -0.180000       12.0110           0   0.00000     -0.301140E-02
     21674 MEMB     175      POPE     H11R     HAL2     0.900000E-01   1.00800           0   0.00000     -0.301140E-02
     21675 MEMB     175      POPE     H11S     HAL2     0.900000E-01   1.00800           0   0.00000     -0.301140E-02
     21676 MEMB     175      POPE     C212     CTL2    -0.180000       12.0110           0   0.00000     -0.301140E-02
     21677 MEMB     175      POPE     H12R     HAL2     0.900000E-01   1.00800           0   0.00000     -0.301140E-02
     21678 MEMB     175      POPE     H12S     HAL2     0.900000E-01   1.00800           0   0.00000     -0.301140E-02
     21679 MEMB     175      POPE     C213     CTL2    -0.180000       12.0110           0   0.00000     -0.301140E-02
     21680 MEMB     175      POPE     H13R     HAL2     0.900000E-01   1.00800           0   0.00000     -0.301140E-02
     21681 MEMB     175      POPE     H13S     HAL2     0.900000E-01   1.00800           0   0.00000     -0.301140E-02
     21682 MEMB     175      POPE     C214     CTL2    -0.180000       12.0110           0   0.00000     -0.301140E-02
     21683 MEMB     175      POPE     H14R     HAL2     0.900000E-01   1.00800           0   0.00000     -0.301140E-02
     21684 MEMB     175      POPE     H14S     HAL2     0.900000E-01   1.00800           0   0.00000     -0.301140E-02
     21685 MEMB     175      POPE     C215     CTL2    -0.180000       12.0110           0   0.00000     -0.301140E-02
     21686 MEMB     175      POPE     H15R     HAL2     0.900000E-01   1.00800           0   0.00000     -0.301140E-02
     21687 MEMB     175      POPE     H15S     HAL2     0.900000E-01   1.00800           0   0.00000     -0.301140E-02
     21688 MEMB     175      POPE     C216     CTL2    -0.180000       12.0110           0   0.00000     -0.301140E-02
     21689 MEMB     175      POPE     H16R     HAL2     0.900000E-01   1.00800           0   0.00000     -0.301140E-02
     21690 MEMB     175      POPE     H16S     HAL2     0.900000E-01   1.00800           0   0.00000     -0.301140E-02
     21691 MEMB     175      POPE     C217     CTL2    -0.180000       12.0110           0   0.00000     -0.301140E-02
     21692 MEMB     175      POPE     H17R     HAL2     0.900000E-01   1.00800           0   0.00000     -0.301140E-02
     21693 MEMB     175      POPE     H17S     HAL2     0.900000E-01   1.00800           0   0.00000     -0.301140E-02
     21694 MEMB     175      POPE     C218     CTL3    -0.270000       12.0110           0   0.00000     -0.301140E-02
     21695 MEMB     175      POPE     H18R     HAL3     0.900000E-01   1.00800           0   0.00000     -0.301140E-02
     21696 MEMB     175      POPE     H18S     HAL3     0.900000E-01   1.00800           0   0.00000     -0.301140E-02
     21697 MEMB     175      POPE     H18T     HAL3     0.900000E-01   1.00800           0   0.00000     -0.301140E-02
     21698 MEMB     175      POPE     C33      CTL2    -0.180000       12.0110           0   0.00000     -0.301140E-02
     21699 MEMB     175      POPE     H3X      HAL2     0.900000E-01   1.00800           0   0.00000     -0.301140E-02
     21700 MEMB     175      POPE     H3Y      HAL2     0.900000E-01   1.00800           0   0.00000     -0.301140E-02
     21701 MEMB     175      POPE     C34      CTL2    -0.180000       12.0110           0   0.00000     -0.301140E-02
     21702 MEMB     175      POPE     H4X      HAL2     0.900000E-01   1.00800           0   0.00000     -0.301140E-02
     21703 MEMB     175      POPE     H4Y      HAL2     0.900000E-01   1.00800           0   0.00000     -0.301140E-02
     21704 MEMB     175      POPE     C35      CTL2    -0.180000       12.0110           0   0.00000     -0.301140E-02
     21705 MEMB     175      POPE     H5X      HAL2     0.900000E-01   1.00800           0   0.00000     -0.301140E-02
     21706 MEMB     175      POPE     H5Y      HAL2     0.900000E-01   1.00800           0   0.00000     -0.301140E-02
     21707 MEMB     175      POPE     C36      CTL2    -0.180000       12.0110           0   0.00000     -0.301140E-02
     21708 MEMB     175      POPE     H6X      HAL2     0.900000E-01   1.00800           0   0.00000     -0.301140E-02
     21709 MEMB     175      POPE     H6Y      HAL2     0.900000E-01   1.00800           0   0.00000     -0.301140E-02
     21710 MEMB     175      POPE     C37      CTL2    -0.180000       12.0110           0   0.00000     -0.301140E-02
     21711 MEMB     175      POPE     H7X      HAL2     0.900000E-01   1.00800           0   0.00000     -0.301140E-02
     21712 MEMB     175      POPE     H7Y      HAL2     0.900000E-01   1.00800           0   0.00000     -0.301140E-02
     21713 MEMB     175      POPE     C38      CTL2    -0.180000       12.0110           0   0.00000     -0.301140E-02
     21714 MEMB     175      POPE     H8X      HAL2     0.900000E-01   1.00800           0   0.00000     -0.301140E-02
     21715 MEMB     175      POPE     H8Y      HAL2     0.900000E-01   1.00800           0   0.00000     -0.301140E-02
     21716 MEMB     175      POPE     C39      CTL2    -0.180000       12.0110           0   0.00000     -0.301140E-02
     21717 MEMB     175      POPE     H9X      HAL2     0.900000E-01   1.00800           0   0.00000     -0.301140E-02
     21718 MEMB     175      POPE     H9Y      HAL2     0.900000E-01   1.00800           0   0.00000     -0.301140E-02
     21719 MEMB     175      POPE     C310     CTL2    -0.180000       12.0110           0   0.00000     -0.301140E-02
     21720 MEMB     175      POPE     H10X     HAL2     0.900000E-01   1.00800           0   0.00000     -0.301140E-02
     21721 MEMB     175      POPE     H10Y     HAL2     0.900000E-01   1.00800           0   0.00000     -0.301140E-02
     21722 MEMB     175      POPE     C311     CTL2    -0.180000       12.0110           0   0.00000     -0.301140E-02
     21723 MEMB     175      POPE     H11X     HAL2     0.900000E-01   1.00800           0   0.00000     -0.301140E-02
     21724 MEMB     175      POPE     H11Y     HAL2     0.900000E-01   1.00800           0   0.00000     -0.301140E-02
     21725 MEMB     175      POPE     C312     CTL2    -0.180000       12.0110           0   0.00000     -0.301140E-02
     21726 MEMB     175      POPE     H12X     HAL2     0.900000E-01   1.00800           0   0.00000     -0.301140E-02
     21727 MEMB     175      POPE     H12Y     HAL2     0.900000E-01   1.00800           0   0.00000     -0.301140E-02
     21728 MEMB     175      POPE     C313     CTL2    -0.180000       12.0110           0   0.00000     -0.301140E-02
     21729 MEMB     175      POPE     H13X     HAL2     0.900000E-01   1.00800           0   0.00000     -0.301140E-02
     21730 MEMB     175      POPE     H13Y     HAL2     0.900000E-01   1.00800           0   0.00000     -0.301140E-02
     21731 MEMB     175      POPE     C314     CTL2    -0.180000       12.0110           0   0.00000     -0.301140E-02
     21732 MEMB     175      POPE     H14X     HAL2     0.900000E-01   1.00800           0   0.00000     -0.301140E-02
     21733 MEMB     175      POPE     H14Y     HAL2     0.900000E-01   1.00800           0   0.00000     -0.301140E-02
     21734 MEMB     175      POPE     C315     CTL2    -0.180000       12.0110           0   0.00000     -0.301140E-02
     21735 MEMB     175      POPE     H15X     HAL2     0.900000E-01   1.00800           0   0.00000     -0.301140E-02
     21736 MEMB     175      POPE     H15Y     HAL2     0.900000E-01   1.00800           0   0.00000     -0.301140E-02
     21737 MEMB     175      POPE     C316     CTL3    -0.270000       12.0110           0   0.00000     -0.301140E-02
     21738 MEMB     175      POPE     H16X     HAL3     0.900000E-01   1.00800           0   0.00000     -0.301140E-02
     21739 MEMB     175      POPE     H16Y     HAL3     0.900000E-01   1.00800           0   0.00000     -0.301140E-02
     21740 MEMB     175      POPE     H16Z     HAL3     0.900000E-01   1.00800           0   0.00000     -0.301140E-02
     21741 MEMB     176      PMPE     N        NH3L    -0.300000       14.0070           0   0.00000     -0.301140E-02
     21742 MEMB     176      PMPE     HN1      HCL      0.330000       1.00800           0   0.00000     -0.301140E-02
     21743 MEMB     176      PMPE     HN2      HCL      0.330000       1.00800           0   0.00000     -0.301140E-02
     21744 MEMB     176      PMPE     HN3      HCL      0.330000       1.00800           0   0.00000     -0.301140E-02
     21745 MEMB     176      PMPE     C12      CTL2     0.130000       12.0110           0   0.00000     -0.301140E-02
     21746 MEMB     176      PMPE     H12A     HAL2     0.900000E-01   1.00800           0   0.00000     -0.301140E-02
     21747 MEMB     176      PMPE     H12B     HAL2     0.900000E-01   1.00800           0   0.00000     -0.301140E-02
     21748 MEMB     176      PMPE     C11      CTL2    -0.800000E-01   12.0110           0   0.00000     -0.301140E-02
     21749 MEMB     176      PMPE     H11A     HAL2     0.900000E-01   1.00800           0   0.00000     -0.301140E-02
     21750 MEMB     176      PMPE     H11B     HAL2     0.900000E-01   1.00800           0   0.00000     -0.301140E-02
     21751 MEMB     176      PMPE     P        PL        1.50000       30.9740           0   0.00000     -0.301140E-02
     21752 MEMB     176      PMPE     O13      O2L     -0.780000       15.9994           0   0.00000     -0.301140E-02
     21753 MEMB     176      PMPE     O14      O2L     -0.780000       15.9994           0   0.00000     -0.301140E-02
     21754 MEMB     176      PMPE     O11      OSLP    -0.570000       15.9994           0   0.00000     -0.301140E-02
     21755 MEMB     176      PMPE     O12      OSLP    -0.570000       15.9994           0   0.00000     -0.301140E-02
     21756 MEMB     176      PMPE     C1       CTL2    -0.800000E-01   12.0110           0   0.00000     -0.301140E-02
     21757 MEMB     176      PMPE     HA       HAL2     0.900000E-01   1.00800           0   0.00000     -0.301140E-02
     21758 MEMB     176      PMPE     HB       HAL2     0.900000E-01   1.00800           0   0.00000     -0.301140E-02
     21759 MEMB     176      PMPE     C2       CTL1     0.170000       12.0110           0   0.00000     -0.301140E-02
     21760 MEMB     176      PMPE     HS       HAL1     0.900000E-01   1.00800           0   0.00000     -0.301140E-02
     21761 MEMB     176      PMPE     O21      OSL     -0.490000       15.9994           0   0.00000     -0.301140E-02
     21762 MEMB     176      PMPE     C21      CL       0.900000       12.0110           0   0.00000     -0.301140E-02
     21763 MEMB     176      PMPE     O22      OBL     -0.630000       15.9994           0   0.00000     -0.301140E-02
     21764 MEMB     176      PMPE     C22      CTL2    -0.220000       12.0110           0   0.00000     -0.301140E-02
     21765 MEMB     176      PMPE     H2R      HAL2     0.900000E-01   1.00800           0   0.00000     -0.301140E-02
     21766 MEMB     176      PMPE     H2S      HAL2     0.900000E-01   1.00800           0   0.00000     -0.301140E-02
     21767 MEMB     176      PMPE     C3       CTL2     0.800000E-01   12.0110           0   0.00000     -0.301140E-02
     21768 MEMB     176      PMPE     HX       HAL2     0.900000E-01   1.00800           0   0.00000     -0.301140E-02
     21769 MEMB     176      PMPE     HY       HAL2     0.900000E-01   1.00800           0   0.00000     -0.301140E-02
     21770 MEMB     176      PMPE     O31      OSL     -0.490000       15.9994           0   0.00000     -0.301140E-02
     21771 MEMB     176      PMPE     C31      CL       0.900000       12.0110           0   0.00000     -0.301140E-02
     21772 MEMB     176      PMPE     O32      OBL     -0.630000       15.9994           0   0.00000     -0.301140E-02
     21773 MEMB     176      PMPE     C32      CTL2    -0.220000       12.0110           0   0.00000     -0.301140E-02
     21774 MEMB     176      PMPE     H2X      HAL2     0.900000E-01   1.00800           0   0.00000     -0.301140E-02
     21775 MEMB     176      PMPE     H2Y      HAL2     0.900000E-01   1.00800           0   0.00000     -0.301140E-02
     21776 MEMB     176      PMPE     C23      CTL2    -0.180000       12.0110           0   0.00000     -0.301140E-02
     21777 MEMB     176      PMPE     H3R      HAL2     0.900000E-01   1.00800           0   0.00000     -0.301140E-02
     21778 MEMB     176      PMPE     H3S      HAL2     0.900000E-01   1.00800           0   0.00000     -0.301140E-02
     21779 MEMB     176      PMPE     C24      CTL2    -0.180000       12.0110           0   0.00000     -0.301140E-02
     21780 MEMB     176      PMPE     H4R      HAL2     0.900000E-01   1.00800           0   0.00000     -0.301140E-02
     21781 MEMB     176      PMPE     H4S      HAL2     0.900000E-01   1.00800           0   0.00000     -0.301140E-02
     21782 MEMB     176      PMPE     C25      CTL2    -0.180000       12.0110           0   0.00000     -0.301140E-02
     21783 MEMB     176      PMPE     H5R      HAL2     0.900000E-01   1.00800           0   0.00000     -0.301140E-02
     21784 MEMB     176      PMPE     H5S      HAL2     0.900000E-01   1.00800           0   0.00000     -0.301140E-02
     21785 MEMB     176      PMPE     C26      CTL2    -0.180000       12.0110           0   0.00000     -0.301140E-02
     21786 MEMB     176      PMPE     H6R      HAL2     0.900000E-01   1.00800           0   0.00000     -0.301140E-02
     21787 MEMB     176      PMPE     H6S      HAL2     0.900000E-01   1.00800           0   0.00000     -0.301140E-02
     21788 MEMB     176      PMPE     C27      CTL2    -0.180000       12.0110           0   0.00000     -0.301140E-02
     21789 MEMB     176      PMPE     H7R      HAL2     0.900000E-01   1.00800           0   0.00000     -0.301140E-02
     21790 MEMB     176      PMPE     H7S      HAL2     0.900000E-01   1.00800           0   0.00000     -0.301140E-02
     21791 MEMB     176      PMPE     C28      CTL2    -0.180000       12.0110           0   0.00000     -0.301140E-02
     21792 MEMB     176      PMPE     H8R      HAL2     0.900000E-01   1.00800           0   0.00000     -0.301140E-02
     21793 MEMB     176      PMPE     H8S      HAL2     0.900000E-01   1.00800           0   0.00000     -0.301140E-02
     21794 MEMB     176      PMPE     C29      CG3RC1  -0.900000E-01   12.0110           0   0.00000     -0.301140E-02
     21795 MEMB     176      PMPE     H9R      HGA1     0.900000E-01   1.00800           0   0.00000     -0.301140E-02
     21796 MEMB     176      PMPE     C217     CG3C31  -0.180000       12.0110           0   0.00000     -0.301140E-02
     21797 MEMB     176      PMPE     H17R     HGA2     0.900000E-01   1.00800           0   0.00000     -0.301140E-02
     21798 MEMB     176      PMPE     H17S     HGA2     0.900000E-01   1.00800           0   0.00000     -0.301140E-02
     21799 MEMB     176      PMPE     C210     CG3RC1  -0.900000E-01   12.0110           0   0.00000     -0.301140E-02
     21800 MEMB     176      PMPE     H10R     HGA1     0.900000E-01   1.00800           0   0.00000     -0.301140E-02
     21801 MEMB     176      PMPE     C211     CTL2    -0.180000       12.0110           0   0.00000     -0.301140E-02
     21802 MEMB     176      PMPE     H11R     HAL2     0.900000E-01   1.00800           0   0.00000     -0.301140E-02
     21803 MEMB     176      PMPE     H11S     HAL2     0.900000E-01   1.00800           0   0.00000     -0.301140E-02
     21804 MEMB     176      PMPE     C212     CTL2    -0.180000       12.0110           0   0.00000     -0.301140E-02
     21805 MEMB     176      PMPE     H12R     HAL2     0.900000E-01   1.00800           0   0.00000     -0.301140E-02
     21806 MEMB     176      PMPE     H12S     HAL2     0.900000E-01   1.00800           0   0.00000     -0.301140E-02
     21807 MEMB     176      PMPE     C213     CTL2    -0.180000       12.0110           0   0.00000     -0.301140E-02
     21808 MEMB     176      PMPE     H13R     HAL2     0.900000E-01   1.00800           0   0.00000     -0.301140E-02
     21809 MEMB     176      PMPE     H13S     HAL2     0.900000E-01   1.00800           0   0.00000     -0.301140E-02
     21810 MEMB     176      PMPE     C214     CTL2    -0.180000       12.0110           0   0.00000     -0.301140E-02
     21811 MEMB     176      PMPE     H14R     HAL2     0.900000E-01   1.00800           0   0.00000     -0.301140E-02
     21812 MEMB     176      PMPE     H14S     HAL2     0.900000E-01   1.00800           0   0.00000     -0.301140E-02
     21813 MEMB     176      PMPE     C215     CTL2    -0.180000       12.0110           0   0.00000     -0.301140E-02
     21814 MEMB     176      PMPE     H15R     HAL2     0.900000E-01   1.00800           0   0.00000     -0.301140E-02
     21815 MEMB     176      PMPE     H15S     HAL2     0.900000E-01   1.00800           0   0.00000     -0.301140E-02
     21816 MEMB     176      PMPE     C216     CTL3    -0.270000       12.0110           0   0.00000     -0.301140E-02
     21817 MEMB     176      PMPE     H16R     HAL3     0.900000E-01   1.00800           0   0.00000     -0.301140E-02
     21818 MEMB     176      PMPE     H16S     HAL3     0.900000E-01   1.00800           0   0.00000     -0.301140E-02
     21819 MEMB     176      PMPE     H16T     HAL3     0.900000E-01   1.00800           0   0.00000     -0.301140E-02
     21820 MEMB     176      PMPE     C33      CTL2    -0.180000       12.0110           0   0.00000     -0.301140E-02
     21821 MEMB     176      PMPE     H3X      HAL2     0.900000E-01   1.00800           0   0.00000     -0.301140E-02
     21822 MEMB     176      PMPE     H3Y      HAL2     0.900000E-01   1.00800           0   0.00000     -0.301140E-02
     21823 MEMB     176      PMPE     C34      CTL2    -0.180000       12.0110           0   0.00000     -0.301140E-02
     21824 MEMB     176      PMPE     H4X      HAL2     0.900000E-01   1.00800           0   0.00000     -0.301140E-02
     21825 MEMB     176      PMPE     H4Y      HAL2     0.900000E-01   1.00800           0   0.00000     -0.301140E-02
     21826 MEMB     176      PMPE     C35      CTL2    -0.180000       12.0110           0   0.00000     -0.301140E-02
     21827 MEMB     176      PMPE     H5X      HAL2     0.900000E-01   1.00800           0   0.00000     -0.301140E-02
     21828 MEMB     176      PMPE     H5Y      HAL2     0.900000E-01   1.00800           0   0.00000     -0.301140E-02
     21829 MEMB     176      PMPE     C36      CTL2    -0.180000       12.0110           0   0.00000     -0.301140E-02
     21830 MEMB     176      PMPE     H6X      HAL2     0.900000E-01   1.00800           0   0.00000     -0.301140E-02
     21831 MEMB     176      PMPE     H6Y      HAL2     0.900000E-01   1.00800           0   0.00000     -0.301140E-02
     21832 MEMB     176      PMPE     C37      CTL2    -0.180000       12.0110           0   0.00000     -0.301140E-02
     21833 MEMB     176      PMPE     H7X      HAL2     0.900000E-01   1.00800           0   0.00000     -0.301140E-02
     21834 MEMB     176      PMPE     H7Y      HAL2     0.900000E-01   1.00800           0   0.00000     -0.301140E-02
     21835 MEMB     176      PMPE     C38      CTL2    -0.180000       12.0110           0   0.00000     -0.301140E-02
     21836 MEMB     176      PMPE     H8X      HAL2     0.900000E-01   1.00800           0   0.00000     -0.301140E-02
     21837 MEMB     176      PMPE     H8Y      HAL2     0.900000E-01   1.00800           0   0.00000     -0.301140E-02
     21838 MEMB     176      PMPE     C39      CTL2    -0.180000       12.0110           0   0.00000     -0.301140E-02
     21839 MEMB     176      PMPE     H9X      HAL2     0.900000E-01   1.00800           0   0.00000     -0.301140E-02
     21840 MEMB     176      PMPE     H9Y      HAL2     0.900000E-01   1.00800           0   0.00000     -0.301140E-02
     21841 MEMB     176      PMPE     C310     CTL2    -0.180000       12.0110           0   0.00000     -0.301140E-02
     21842 MEMB     176      PMPE     H10X     HAL2     0.900000E-01   1.00800           0   0.00000     -0.301140E-02
     21843 MEMB     176      PMPE     H10Y     HAL2     0.900000E-01   1.00800           0   0.00000     -0.301140E-02
     21844 MEMB     176      PMPE     C311     CTL2    -0.180000       12.0110           0   0.00000     -0.301140E-02
     21845 MEMB     176      PMPE     H11X     HAL2     0.900000E-01   1.00800           0   0.00000     -0.301140E-02
     21846 MEMB     176      PMPE     H11Y     HAL2     0.900000E-01   1.00800           0   0.00000     -0.301140E-02
     21847 MEMB     176      PMPE     C312     CTL2    -0.180000       12.0110           0   0.00000     -0.301140E-02
     21848 MEMB     176      PMPE     H12X     HAL2     0.900000E-01   1.00800           0   0.00000     -0.301140E-02
     21849 MEMB     176      PMPE     H12Y     HAL2     0.900000E-01   1.00800           0   0.00000     -0.301140E-02
     21850 MEMB     176      PMPE     C313     CTL2    -0.180000       12.0110           0   0.00000     -0.301140E-02
     21851 MEMB     176      PMPE     H13X     HAL2     0.900000E-01   1.00800           0   0.00000     -0.301140E-02
     21852 MEMB     176      PMPE     H13Y     HAL2     0.900000E-01   1.00800           0   0.00000     -0.301140E-02
     21853 MEMB     176      PMPE     C314     CTL2    -0.180000       12.0110           0   0.00000     -0.301140E-02
     21854 MEMB     176      PMPE     H14X     HAL2     0.900000E-01   1.00800           0   0.00000     -0.301140E-02
     21855 MEMB     176      PMPE     H14Y     HAL2     0.900000E-01   1.00800           0   0.00000     -0.301140E-02
     21856 MEMB     176      PMPE     C315     CTL2    -0.180000       12.0110           0   0.00000     -0.301140E-02
     21857 MEMB     176      PMPE     H15X     HAL2     0.900000E-01   1.00800           0   0.00000     -0.301140E-02
     21858 MEMB     176      PMPE     H15Y     HAL2     0.900000E-01   1.00800           0   0.00000     -0.301140E-02
     21859 MEMB     176      PMPE     C316     CTL3    -0.270000       12.0110           0   0.00000     -0.301140E-02
     21860 MEMB     176      PMPE     H16X     HAL3     0.900000E-01   1.00800           0   0.00000     -0.301140E-02
     21861 MEMB     176      PMPE     H16Y     HAL3     0.900000E-01   1.00800           0   0.00000     -0.301140E-02
     21862 MEMB     176      PMPE     H16Z     HAL3     0.900000E-01   1.00800           0   0.00000     -0.301140E-02
     21863 MEMB     177      OYPE     N        NH3L    -0.300000       14.0070           0   0.00000     -0.301140E-02
     21864 MEMB     177      OYPE     HN1      HCL      0.330000       1.00800           0   0.00000     -0.301140E-02
     21865 MEMB     177      OYPE     HN2      HCL      0.330000       1.00800           0   0.00000     -0.301140E-02
     21866 MEMB     177      OYPE     HN3      HCL      0.330000       1.00800           0   0.00000     -0.301140E-02
     21867 MEMB     177      OYPE     C12      CTL2     0.130000       12.0110           0   0.00000     -0.301140E-02
     21868 MEMB     177      OYPE     H12A     HAL2     0.900000E-01   1.00800           0   0.00000     -0.301140E-02
     21869 MEMB     177      OYPE     H12B     HAL2     0.900000E-01   1.00800           0   0.00000     -0.301140E-02
     21870 MEMB     177      OYPE     C11      CTL2    -0.800000E-01   12.0110           0   0.00000     -0.301140E-02
     21871 MEMB     177      OYPE     H11A     HAL2     0.900000E-01   1.00800           0   0.00000     -0.301140E-02
     21872 MEMB     177      OYPE     H11B     HAL2     0.900000E-01   1.00800           0   0.00000     -0.301140E-02
     21873 MEMB     177      OYPE     P        PL        1.50000       30.9740           0   0.00000     -0.301140E-02
     21874 MEMB     177      OYPE     O13      O2L     -0.780000       15.9994           0   0.00000     -0.301140E-02
     21875 MEMB     177      OYPE     O14      O2L     -0.780000       15.9994           0   0.00000     -0.301140E-02
     21876 MEMB     177      OYPE     O11      OSLP    -0.570000       15.9994           0   0.00000     -0.301140E-02
     21877 MEMB     177      OYPE     O12      OSLP    -0.570000       15.9994           0   0.00000     -0.301140E-02
     21878 MEMB     177      OYPE     C1       CTL2    -0.800000E-01   12.0110           0   0.00000     -0.301140E-02
     21879 MEMB     177      OYPE     HA       HAL2     0.900000E-01   1.00800           0   0.00000     -0.301140E-02
     21880 MEMB     177      OYPE     HB       HAL2     0.900000E-01   1.00800           0   0.00000     -0.301140E-02
     21881 MEMB     177      OYPE     C2       CTL1     0.170000       12.0110           0   0.00000     -0.301140E-02
     21882 MEMB     177      OYPE     HS       HAL1     0.900000E-01   1.00800           0   0.00000     -0.301140E-02
     21883 MEMB     177      OYPE     O21      OSL     -0.490000       15.9994           0   0.00000     -0.301140E-02
     21884 MEMB     177      OYPE     C21      CL       0.900000       12.0110           0   0.00000     -0.301140E-02
     21885 MEMB     177      OYPE     O22      OBL     -0.630000       15.9994           0   0.00000     -0.301140E-02
     21886 MEMB     177      OYPE     C22      CTL2    -0.220000       12.0110           0   0.00000     -0.301140E-02
     21887 MEMB     177      OYPE     H2R      HAL2     0.900000E-01   1.00800           0   0.00000     -0.301140E-02
     21888 MEMB     177      OYPE     H2S      HAL2     0.900000E-01   1.00800           0   0.00000     -0.301140E-02
     21889 MEMB     177      OYPE     C3       CTL2     0.800000E-01   12.0110           0   0.00000     -0.301140E-02
     21890 MEMB     177      OYPE     HX       HAL2     0.900000E-01   1.00800           0   0.00000     -0.301140E-02
     21891 MEMB     177      OYPE     HY       HAL2     0.900000E-01   1.00800           0   0.00000     -0.301140E-02
     21892 MEMB     177      OYPE     O31      OSL     -0.490000       15.9994           0   0.00000     -0.301140E-02
     21893 MEMB     177      OYPE     C31      CL       0.900000       12.0110           0   0.00000     -0.301140E-02
     21894 MEMB     177      OYPE     O32      OBL     -0.630000       15.9994           0   0.00000     -0.301140E-02
     21895 MEMB     177      OYPE     C32      CTL2    -0.220000       12.0110           0   0.00000     -0.301140E-02
     21896 MEMB     177      OYPE     H2X      HAL2     0.900000E-01   1.00800           0   0.00000     -0.301140E-02
     21897 MEMB     177      OYPE     H2Y      HAL2     0.900000E-01   1.00800           0   0.00000     -0.301140E-02
     21898 MEMB     177      OYPE     C23      CTL2    -0.180000       12.0110           0   0.00000     -0.301140E-02
     21899 MEMB     177      OYPE     H3R      HAL2     0.900000E-01   1.00800           0   0.00000     -0.301140E-02
     21900 MEMB     177      OYPE     H3S      HAL2     0.900000E-01   1.00800           0   0.00000     -0.301140E-02
     21901 MEMB     177      OYPE     C24      CTL2    -0.180000       12.0110           0   0.00000     -0.301140E-02
     21902 MEMB     177      OYPE     H4R      HAL2     0.900000E-01   1.00800           0   0.00000     -0.301140E-02
     21903 MEMB     177      OYPE     H4S      HAL2     0.900000E-01   1.00800           0   0.00000     -0.301140E-02
     21904 MEMB     177      OYPE     C25      CTL2    -0.180000       12.0110           0   0.00000     -0.301140E-02
     21905 MEMB     177      OYPE     H5R      HAL2     0.900000E-01   1.00800           0   0.00000     -0.301140E-02
     21906 MEMB     177      OYPE     H5S      HAL2     0.900000E-01   1.00800           0   0.00000     -0.301140E-02
     21907 MEMB     177      OYPE     C26      CTL2    -0.180000       12.0110           0   0.00000     -0.301140E-02
     21908 MEMB     177      OYPE     H6R      HAL2     0.900000E-01   1.00800           0   0.00000     -0.301140E-02
     21909 MEMB     177      OYPE     H6S      HAL2     0.900000E-01   1.00800           0   0.00000     -0.301140E-02
     21910 MEMB     177      OYPE     C27      CTL2    -0.180000       12.0110           0   0.00000     -0.301140E-02
     21911 MEMB     177      OYPE     H7R      HAL2     0.900000E-01   1.00800           0   0.00000     -0.301140E-02
     21912 MEMB     177      OYPE     H7S      HAL2     0.900000E-01   1.00800           0   0.00000     -0.301140E-02
     21913 MEMB     177      OYPE     C28      CTL2    -0.180000       12.0110           0   0.00000     -0.301140E-02
     21914 MEMB     177      OYPE     H8R      HAL2     0.900000E-01   1.00800           0   0.00000     -0.301140E-02
     21915 MEMB     177      OYPE     H8S      HAL2     0.900000E-01   1.00800           0   0.00000     -0.301140E-02
     21916 MEMB     177      OYPE     C29      CEL1    -0.150000       12.0110           0   0.00000     -0.301140E-02
     21917 MEMB     177      OYPE     H9R      HEL1     0.150000       1.00800           0   0.00000     -0.301140E-02
     21918 MEMB     177      OYPE     C210     CEL1    -0.150000       12.0110           0   0.00000     -0.301140E-02
     21919 MEMB     177      OYPE     H10R     HEL1     0.150000       1.00800           0   0.00000     -0.301140E-02
     21920 MEMB     177      OYPE     C211     CTL2    -0.180000       12.0110           0   0.00000     -0.301140E-02
     21921 MEMB     177      OYPE     H11R     HAL2     0.900000E-01   1.00800           0   0.00000     -0.301140E-02
     21922 MEMB     177      OYPE     H11S     HAL2     0.900000E-01   1.00800           0   0.00000     -0.301140E-02
     21923 MEMB     177      OYPE     C212     CTL2    -0.180000       12.0110           0   0.00000     -0.301140E-02
     21924 MEMB     177      OYPE     H12R     HAL2     0.900000E-01   1.00800           0   0.00000     -0.301140E-02
     21925 MEMB     177      OYPE     H12S     HAL2     0.900000E-01   1.00800           0   0.00000     -0.301140E-02
     21926 MEMB     177      OYPE     C213     CTL2    -0.180000       12.0110           0   0.00000     -0.301140E-02
     21927 MEMB     177      OYPE     H13R     HAL2     0.900000E-01   1.00800           0   0.00000     -0.301140E-02
     21928 MEMB     177      OYPE     H13S     HAL2     0.900000E-01   1.00800           0   0.00000     -0.301140E-02
     21929 MEMB     177      OYPE     C214     CTL2    -0.180000       12.0110           0   0.00000     -0.301140E-02
     21930 MEMB     177      OYPE     H14R     HAL2     0.900000E-01   1.00800           0   0.00000     -0.301140E-02
     21931 MEMB     177      OYPE     H14S     HAL2     0.900000E-01   1.00800           0   0.00000     -0.301140E-02
     21932 MEMB     177      OYPE     C215     CTL2    -0.180000       12.0110           0   0.00000     -0.301140E-02
     21933 MEMB     177      OYPE     H15R     HAL2     0.900000E-01   1.00800           0   0.00000     -0.301140E-02
     21934 MEMB     177      OYPE     H15S     HAL2     0.900000E-01   1.00800           0   0.00000     -0.301140E-02
     21935 MEMB     177      OYPE     C216     CTL3    -0.270000       12.0110           0   0.00000     -0.301140E-02
     21936 MEMB     177      OYPE     H16R     HAL3     0.900000E-01   1.00800           0   0.00000     -0.301140E-02
     21937 MEMB     177      OYPE     H16S     HAL3     0.900000E-01   1.00800           0   0.00000     -0.301140E-02
     21938 MEMB     177      OYPE     H16T     HAL3     0.900000E-01   1.00800           0   0.00000     -0.301140E-02
     21939 MEMB     177      OYPE     C33      CTL2    -0.180000       12.0110           0   0.00000     -0.301140E-02
     21940 MEMB     177      OYPE     H3X      HAL2     0.900000E-01   1.00800           0   0.00000     -0.301140E-02
     21941 MEMB     177      OYPE     H3Y      HAL2     0.900000E-01   1.00800           0   0.00000     -0.301140E-02
     21942 MEMB     177      OYPE     C34      CTL2    -0.180000       12.0110           0   0.00000     -0.301140E-02
     21943 MEMB     177      OYPE     H4X      HAL2     0.900000E-01   1.00800           0   0.00000     -0.301140E-02
     21944 MEMB     177      OYPE     H4Y      HAL2     0.900000E-01   1.00800           0   0.00000     -0.301140E-02
     21945 MEMB     177      OYPE     C35      CTL2    -0.180000       12.0110           0   0.00000     -0.301140E-02
     21946 MEMB     177      OYPE     H5X      HAL2     0.900000E-01   1.00800           0   0.00000     -0.301140E-02
     21947 MEMB     177      OYPE     H5Y      HAL2     0.900000E-01   1.00800           0   0.00000     -0.301140E-02
     21948 MEMB     177      OYPE     C36      CTL2    -0.180000       12.0110           0   0.00000     -0.301140E-02
     21949 MEMB     177      OYPE     H6X      HAL2     0.900000E-01   1.00800           0   0.00000     -0.301140E-02
     21950 MEMB     177      OYPE     H6Y      HAL2     0.900000E-01   1.00800           0   0.00000     -0.301140E-02
     21951 MEMB     177      OYPE     C37      CTL2    -0.180000       12.0110           0   0.00000     -0.301140E-02
     21952 MEMB     177      OYPE     H7X      HAL2     0.900000E-01   1.00800           0   0.00000     -0.301140E-02
     21953 MEMB     177      OYPE     H7Y      HAL2     0.900000E-01   1.00800           0   0.00000     -0.301140E-02
     21954 MEMB     177      OYPE     C38      CTL2    -0.180000       12.0110           0   0.00000     -0.301140E-02
     21955 MEMB     177      OYPE     H8X      HAL2     0.900000E-01   1.00800           0   0.00000     -0.301140E-02
     21956 MEMB     177      OYPE     H8Y      HAL2     0.900000E-01   1.00800           0   0.00000     -0.301140E-02
     21957 MEMB     177      OYPE     C39      CEL1    -0.150000       12.0110           0   0.00000     -0.301140E-02
     21958 MEMB     177      OYPE     H9X      HEL1     0.150000       1.00800           0   0.00000     -0.301140E-02
     21959 MEMB     177      OYPE     C310     CEL1    -0.150000       12.0110           0   0.00000     -0.301140E-02
     21960 MEMB     177      OYPE     H10X     HEL1     0.150000       1.00800           0   0.00000     -0.301140E-02
     21961 MEMB     177      OYPE     C311     CTL2    -0.180000       12.0110           0   0.00000     -0.301140E-02
     21962 MEMB     177      OYPE     H11X     HAL2     0.900000E-01   1.00800           0   0.00000     -0.301140E-02
     21963 MEMB     177      OYPE     H11Y     HAL2     0.900000E-01   1.00800           0   0.00000     -0.301140E-02
     21964 MEMB     177      OYPE     C312     CTL2    -0.180000       12.0110           0   0.00000     -0.301140E-02
     21965 MEMB     177      OYPE     H12X     HAL2     0.900000E-01   1.00800           0   0.00000     -0.301140E-02
     21966 MEMB     177      OYPE     H12Y     HAL2     0.900000E-01   1.00800           0   0.00000     -0.301140E-02
     21967 MEMB     177      OYPE     C313     CTL2    -0.180000       12.0110           0   0.00000     -0.301140E-02
     21968 MEMB     177      OYPE     H13X     HAL2     0.900000E-01   1.00800           0   0.00000     -0.301140E-02
     21969 MEMB     177      OYPE     H13Y     HAL2     0.900000E-01   1.00800           0   0.00000     -0.301140E-02
     21970 MEMB     177      OYPE     C314     CTL2    -0.180000       12.0110           0   0.00000     -0.301140E-02
     21971 MEMB     177      OYPE     H14X     HAL2     0.900000E-01   1.00800           0   0.00000     -0.301140E-02
     21972 MEMB     177      OYPE     H14Y     HAL2     0.900000E-01   1.00800           0   0.00000     -0.301140E-02
     21973 MEMB     177      OYPE     C315     CTL2    -0.180000       12.0110           0   0.00000     -0.301140E-02
     21974 MEMB     177      OYPE     H15X     HAL2     0.900000E-01   1.00800           0   0.00000     -0.301140E-02
     21975 MEMB     177      OYPE     H15Y     HAL2     0.900000E-01   1.00800           0   0.00000     -0.301140E-02
     21976 MEMB     177      OYPE     C316     CTL2    -0.180000       12.0110           0   0.00000     -0.301140E-02
     21977 MEMB     177      OYPE     H16X     HAL2     0.900000E-01   1.00800           0   0.00000     -0.301140E-02
     21978 MEMB     177      OYPE     H16Y     HAL2     0.900000E-01   1.00800           0   0.00000     -0.301140E-02
     21979 MEMB     177      OYPE     C317     CTL2    -0.180000       12.0110           0   0.00000     -0.301140E-02
     21980 MEMB     177      OYPE     H17X     HAL2     0.900000E-01   1.00800           0   0.00000     -0.301140E-02
     21981 MEMB     177      OYPE     H17Y     HAL2     0.900000E-01   1.00800           0   0.00000     -0.301140E-02
     21982 MEMB     177      OYPE     C318     CTL3    -0.270000       12.0110           0   0.00000     -0.301140E-02
     21983 MEMB     177      OYPE     H18X     HAL3     0.900000E-01   1.00800           0   0.00000     -0.301140E-02
     21984 MEMB     177      OYPE     H18Y     HAL3     0.900000E-01   1.00800           0   0.00000     -0.301140E-02
     21985 MEMB     177      OYPE     H18Z     HAL3     0.900000E-01   1.00800           0   0.00000     -0.301140E-02
     21986 MEMB     178      PMPG     C13      CTL2     0.500000E-01   12.0110           0   0.00000     -0.301140E-02
     21987 MEMB     178      PMPG     H13A     HAL2     0.900000E-01   1.00800           0   0.00000     -0.301140E-02
     21988 MEMB     178      PMPG     H13B     HAL2     0.900000E-01   1.00800           0   0.00000     -0.301140E-02
     21989 MEMB     178      PMPG     OC3      OHL     -0.660000       15.9994           0   0.00000     -0.301140E-02
     21990 MEMB     178      PMPG     HO3      HOL      0.430000       1.00800           0   0.00000     -0.301140E-02
     21991 MEMB     178      PMPG     C12      CTL1     0.140000       12.0110           0   0.00000     -0.301140E-02
     21992 MEMB     178      PMPG     H12A     HAL1     0.900000E-01   1.00800           0   0.00000     -0.301140E-02
     21993 MEMB     178      PMPG     OC2      OHL     -0.660000       15.9994           0   0.00000     -0.301140E-02
     21994 MEMB     178      PMPG     HO2      HOL      0.430000       1.00800           0   0.00000     -0.301140E-02
     21995 MEMB     178      PMPG     C11      CTL2    -0.800000E-01   12.0110           0   0.00000     -0.301140E-02
     21996 MEMB     178      PMPG     H11A     HAL2     0.900000E-01   1.00800           0   0.00000     -0.301140E-02
     21997 MEMB     178      PMPG     H11B     HAL2     0.900000E-01   1.00800           0   0.00000     -0.301140E-02
     21998 MEMB     178      PMPG     P        PL        1.50000       30.9740           0   0.00000     -0.301140E-02
     21999 MEMB     178      PMPG     O13      O2L     -0.780000       15.9994           0   0.00000     -0.301140E-02
     22000 MEMB     178      PMPG     O14      O2L     -0.780000       15.9994           0   0.00000     -0.301140E-02
     22001 MEMB     178      PMPG     O11      OSLP    -0.570000       15.9994           0   0.00000     -0.301140E-02
     22002 MEMB     178      PMPG     O12      OSLP    -0.570000       15.9994           0   0.00000     -0.301140E-02
     22003 MEMB     178      PMPG     C1       CTL2    -0.800000E-01   12.0110           0   0.00000     -0.301140E-02
     22004 MEMB     178      PMPG     HA       HAL2     0.900000E-01   1.00800           0   0.00000     -0.301140E-02
     22005 MEMB     178      PMPG     HB       HAL2     0.900000E-01   1.00800           0   0.00000     -0.301140E-02
     22006 MEMB     178      PMPG     C2       CTL1     0.170000       12.0110           0   0.00000     -0.301140E-02
     22007 MEMB     178      PMPG     HS       HAL1     0.900000E-01   1.00800           0   0.00000     -0.301140E-02
     22008 MEMB     178      PMPG     O21      OSL     -0.490000       15.9994           0   0.00000     -0.301140E-02
     22009 MEMB     178      PMPG     C21      CL       0.900000       12.0110           0   0.00000     -0.301140E-02
     22010 MEMB     178      PMPG     O22      OBL     -0.630000       15.9994           0   0.00000     -0.301140E-02
     22011 MEMB     178      PMPG     C22      CTL2    -0.220000       12.0110           0   0.00000     -0.301140E-02
     22012 MEMB     178      PMPG     H2R      HAL2     0.900000E-01   1.00800           0   0.00000     -0.301140E-02
     22013 MEMB     178      PMPG     H2S      HAL2     0.900000E-01   1.00800           0   0.00000     -0.301140E-02
     22014 MEMB     178      PMPG     C3       CTL2     0.800000E-01   12.0110           0   0.00000     -0.301140E-02
     22015 MEMB     178      PMPG     HX       HAL2     0.900000E-01   1.00800           0   0.00000     -0.301140E-02
     22016 MEMB     178      PMPG     HY       HAL2     0.900000E-01   1.00800           0   0.00000     -0.301140E-02
     22017 MEMB     178      PMPG     O31      OSL     -0.490000       15.9994           0   0.00000     -0.301140E-02
     22018 MEMB     178      PMPG     C31      CL       0.900000       12.0110           0   0.00000     -0.301140E-02
     22019 MEMB     178      PMPG     O32      OBL     -0.630000       15.9994           0   0.00000     -0.301140E-02
     22020 MEMB     178      PMPG     C32      CTL2    -0.220000       12.0110           0   0.00000     -0.301140E-02
     22021 MEMB     178      PMPG     H2X      HAL2     0.900000E-01   1.00800           0   0.00000     -0.301140E-02
     22022 MEMB     178      PMPG     H2Y      HAL2     0.900000E-01   1.00800           0   0.00000     -0.301140E-02
     22023 MEMB     178      PMPG     C23      CTL2    -0.180000       12.0110           0   0.00000     -0.301140E-02
     22024 MEMB     178      PMPG     H3R      HAL2     0.900000E-01   1.00800           0   0.00000     -0.301140E-02
     22025 MEMB     178      PMPG     H3S      HAL2     0.900000E-01   1.00800           0   0.00000     -0.301140E-02
     22026 MEMB     178      PMPG     C24      CTL2    -0.180000       12.0110           0   0.00000     -0.301140E-02
     22027 MEMB     178      PMPG     H4R      HAL2     0.900000E-01   1.00800           0   0.00000     -0.301140E-02
     22028 MEMB     178      PMPG     H4S      HAL2     0.900000E-01   1.00800           0   0.00000     -0.301140E-02
     22029 MEMB     178      PMPG     C25      CTL2    -0.180000       12.0110           0   0.00000     -0.301140E-02
     22030 MEMB     178      PMPG     H5R      HAL2     0.900000E-01   1.00800           0   0.00000     -0.301140E-02
     22031 MEMB     178      PMPG     H5S      HAL2     0.900000E-01   1.00800           0   0.00000     -0.301140E-02
     22032 MEMB     178      PMPG     C26      CTL2    -0.180000       12.0110           0   0.00000     -0.301140E-02
     22033 MEMB     178      PMPG     H6R      HAL2     0.900000E-01   1.00800           0   0.00000     -0.301140E-02
     22034 MEMB     178      PMPG     H6S      HAL2     0.900000E-01   1.00800           0   0.00000     -0.301140E-02
     22035 MEMB     178      PMPG     C27      CTL2    -0.180000       12.0110           0   0.00000     -0.301140E-02
     22036 MEMB     178      PMPG     H7R      HAL2     0.900000E-01   1.00800           0   0.00000     -0.301140E-02
     22037 MEMB     178      PMPG     H7S      HAL2     0.900000E-01   1.00800           0   0.00000     -0.301140E-02
     22038 MEMB     178      PMPG     C28      CTL2    -0.180000       12.0110           0   0.00000     -0.301140E-02
     22039 MEMB     178      PMPG     H8R      HAL2     0.900000E-01   1.00800           0   0.00000     -0.301140E-02
     22040 MEMB     178      PMPG     H8S      HAL2     0.900000E-01   1.00800           0   0.00000     -0.301140E-02
     22041 MEMB     178      PMPG     C29      CG3RC1  -0.900000E-01   12.0110           0   0.00000     -0.301140E-02
     22042 MEMB     178      PMPG     H9R      HGA1     0.900000E-01   1.00800           0   0.00000     -0.301140E-02
     22043 MEMB     178      PMPG     C217     CG3C31  -0.180000       12.0110           0   0.00000     -0.301140E-02
     22044 MEMB     178      PMPG     H17R     HGA2     0.900000E-01   1.00800           0   0.00000     -0.301140E-02
     22045 MEMB     178      PMPG     H17S     HGA2     0.900000E-01   1.00800           0   0.00000     -0.301140E-02
     22046 MEMB     178      PMPG     C210     CG3RC1  -0.900000E-01   12.0110           0   0.00000     -0.301140E-02
     22047 MEMB     178      PMPG     H10R     HGA1     0.900000E-01   1.00800           0   0.00000     -0.301140E-02
     22048 MEMB     178      PMPG     C211     CTL2    -0.180000       12.0110           0   0.00000     -0.301140E-02
     22049 MEMB     178      PMPG     H11R     HAL2     0.900000E-01   1.00800           0   0.00000     -0.301140E-02
     22050 MEMB     178      PMPG     H11S     HAL2     0.900000E-01   1.00800           0   0.00000     -0.301140E-02
     22051 MEMB     178      PMPG     C212     CTL2    -0.180000       12.0110           0   0.00000     -0.301140E-02
     22052 MEMB     178      PMPG     H12R     HAL2     0.900000E-01   1.00800           0   0.00000     -0.301140E-02
     22053 MEMB     178      PMPG     H12S     HAL2     0.900000E-01   1.00800           0   0.00000     -0.301140E-02
     22054 MEMB     178      PMPG     C213     CTL2    -0.180000       12.0110           0   0.00000     -0.301140E-02
     22055 MEMB     178      PMPG     H13R     HAL2     0.900000E-01   1.00800           0   0.00000     -0.301140E-02
     22056 MEMB     178      PMPG     H13S     HAL2     0.900000E-01   1.00800           0   0.00000     -0.301140E-02
     22057 MEMB     178      PMPG     C214     CTL2    -0.180000       12.0110           0   0.00000     -0.301140E-02
     22058 MEMB     178      PMPG     H14R     HAL2     0.900000E-01   1.00800           0   0.00000     -0.301140E-02
     22059 MEMB     178      PMPG     H14S     HAL2     0.900000E-01   1.00800           0   0.00000     -0.301140E-02
     22060 MEMB     178      PMPG     C215     CTL2    -0.180000       12.0110           0   0.00000     -0.301140E-02
     22061 MEMB     178      PMPG     H15R     HAL2     0.900000E-01   1.00800           0   0.00000     -0.301140E-02
     22062 MEMB     178      PMPG     H15S     HAL2     0.900000E-01   1.00800           0   0.00000     -0.301140E-02
     22063 MEMB     178      PMPG     C216     CTL3    -0.270000       12.0110           0   0.00000     -0.301140E-02
     22064 MEMB     178      PMPG     H16R     HAL3     0.900000E-01   1.00800           0   0.00000     -0.301140E-02
     22065 MEMB     178      PMPG     H16S     HAL3     0.900000E-01   1.00800           0   0.00000     -0.301140E-02
     22066 MEMB     178      PMPG     H16T     HAL3     0.900000E-01   1.00800           0   0.00000     -0.301140E-02
     22067 MEMB     178      PMPG     C33      CTL2    -0.180000       12.0110           0   0.00000     -0.301140E-02
     22068 MEMB     178      PMPG     H3X      HAL2     0.900000E-01   1.00800           0   0.00000     -0.301140E-02
     22069 MEMB     178      PMPG     H3Y      HAL2     0.900000E-01   1.00800           0   0.00000     -0.301140E-02
     22070 MEMB     178      PMPG     C34      CTL2    -0.180000       12.0110           0   0.00000     -0.301140E-02
     22071 MEMB     178      PMPG     H4X      HAL2     0.900000E-01   1.00800           0   0.00000     -0.301140E-02
     22072 MEMB     178      PMPG     H4Y      HAL2     0.900000E-01   1.00800           0   0.00000     -0.301140E-02
     22073 MEMB     178      PMPG     C35      CTL2    -0.180000       12.0110           0   0.00000     -0.301140E-02
     22074 MEMB     178      PMPG     H5X      HAL2     0.900000E-01   1.00800           0   0.00000     -0.301140E-02
     22075 MEMB     178      PMPG     H5Y      HAL2     0.900000E-01   1.00800           0   0.00000     -0.301140E-02
     22076 MEMB     178      PMPG     C36      CTL2    -0.180000       12.0110           0   0.00000     -0.301140E-02
     22077 MEMB     178      PMPG     H6X      HAL2     0.900000E-01   1.00800           0   0.00000     -0.301140E-02
     22078 MEMB     178      PMPG     H6Y      HAL2     0.900000E-01   1.00800           0   0.00000     -0.301140E-02
     22079 MEMB     178      PMPG     C37      CTL2    -0.180000       12.0110           0   0.00000     -0.301140E-02
     22080 MEMB     178      PMPG     H7X      HAL2     0.900000E-01   1.00800           0   0.00000     -0.301140E-02
     22081 MEMB     178      PMPG     H7Y      HAL2     0.900000E-01   1.00800           0   0.00000     -0.301140E-02
     22082 MEMB     178      PMPG     C38      CTL2    -0.180000       12.0110           0   0.00000     -0.301140E-02
     22083 MEMB     178      PMPG     H8X      HAL2     0.900000E-01   1.00800           0   0.00000     -0.301140E-02
     22084 MEMB     178      PMPG     H8Y      HAL2     0.900000E-01   1.00800           0   0.00000     -0.301140E-02
     22085 MEMB     178      PMPG     C39      CTL2    -0.180000       12.0110           0   0.00000     -0.301140E-02
     22086 MEMB     178      PMPG     H9X      HAL2     0.900000E-01   1.00800           0   0.00000     -0.301140E-02
     22087 MEMB     178      PMPG     H9Y      HAL2     0.900000E-01   1.00800           0   0.00000     -0.301140E-02
     22088 MEMB     178      PMPG     C310     CTL2    -0.180000       12.0110           0   0.00000     -0.301140E-02
     22089 MEMB     178      PMPG     H10X     HAL2     0.900000E-01   1.00800           0   0.00000     -0.301140E-02
     22090 MEMB     178      PMPG     H10Y     HAL2     0.900000E-01   1.00800           0   0.00000     -0.301140E-02
     22091 MEMB     178      PMPG     C311     CTL2    -0.180000       12.0110           0   0.00000     -0.301140E-02
     22092 MEMB     178      PMPG     H11X     HAL2     0.900000E-01   1.00800           0   0.00000     -0.301140E-02
     22093 MEMB     178      PMPG     H11Y     HAL2     0.900000E-01   1.00800           0   0.00000     -0.301140E-02
     22094 MEMB     178      PMPG     C312     CTL2    -0.180000       12.0110           0   0.00000     -0.301140E-02
     22095 MEMB     178      PMPG     H12X     HAL2     0.900000E-01   1.00800           0   0.00000     -0.301140E-02
     22096 MEMB     178      PMPG     H12Y     HAL2     0.900000E-01   1.00800           0   0.00000     -0.301140E-02
     22097 MEMB     178      PMPG     C313     CTL2    -0.180000       12.0110           0   0.00000     -0.301140E-02
     22098 MEMB     178      PMPG     H13X     HAL2     0.900000E-01   1.00800           0   0.00000     -0.301140E-02
     22099 MEMB     178      PMPG     H13Y     HAL2     0.900000E-01   1.00800           0   0.00000     -0.301140E-02
     22100 MEMB     178      PMPG     C314     CTL2    -0.180000       12.0110           0   0.00000     -0.301140E-02
     22101 MEMB     178      PMPG     H14X     HAL2     0.900000E-01   1.00800           0   0.00000     -0.301140E-02
     22102 MEMB     178      PMPG     H14Y     HAL2     0.900000E-01   1.00800           0   0.00000     -0.301140E-02
     22103 MEMB     178      PMPG     C315     CTL2    -0.180000       12.0110           0   0.00000     -0.301140E-02
     22104 MEMB     178      PMPG     H15X     HAL2     0.900000E-01   1.00800           0   0.00000     -0.301140E-02
     22105 MEMB     178      PMPG     H15Y     HAL2     0.900000E-01   1.00800           0   0.00000     -0.301140E-02
     22106 MEMB     178      PMPG     C316     CTL3    -0.270000       12.0110           0   0.00000     -0.301140E-02
     22107 MEMB     178      PMPG     H16X     HAL3     0.900000E-01   1.00800           0   0.00000     -0.301140E-02
     22108 MEMB     178      PMPG     H16Y     HAL3     0.900000E-01   1.00800           0   0.00000     -0.301140E-02
     22109 MEMB     178      PMPG     H16Z     HAL3     0.900000E-01   1.00800           0   0.00000     -0.301140E-02
     22110 MEMB     179      PMPE     N        NH3L    -0.300000       14.0070           0   0.00000     -0.301140E-02
     22111 MEMB     179      PMPE     HN1      HCL      0.330000       1.00800           0   0.00000     -0.301140E-02
     22112 MEMB     179      PMPE     HN2      HCL      0.330000       1.00800           0   0.00000     -0.301140E-02
     22113 MEMB     179      PMPE     HN3      HCL      0.330000       1.00800           0   0.00000     -0.301140E-02
     22114 MEMB     179      PMPE     C12      CTL2     0.130000       12.0110           0   0.00000     -0.301140E-02
     22115 MEMB     179      PMPE     H12A     HAL2     0.900000E-01   1.00800           0   0.00000     -0.301140E-02
     22116 MEMB     179      PMPE     H12B     HAL2     0.900000E-01   1.00800           0   0.00000     -0.301140E-02
     22117 MEMB     179      PMPE     C11      CTL2    -0.800000E-01   12.0110           0   0.00000     -0.301140E-02
     22118 MEMB     179      PMPE     H11A     HAL2     0.900000E-01   1.00800           0   0.00000     -0.301140E-02
     22119 MEMB     179      PMPE     H11B     HAL2     0.900000E-01   1.00800           0   0.00000     -0.301140E-02
     22120 MEMB     179      PMPE     P        PL        1.50000       30.9740           0   0.00000     -0.301140E-02
     22121 MEMB     179      PMPE     O13      O2L     -0.780000       15.9994           0   0.00000     -0.301140E-02
     22122 MEMB     179      PMPE     O14      O2L     -0.780000       15.9994           0   0.00000     -0.301140E-02
     22123 MEMB     179      PMPE     O11      OSLP    -0.570000       15.9994           0   0.00000     -0.301140E-02
     22124 MEMB     179      PMPE     O12      OSLP    -0.570000       15.9994           0   0.00000     -0.301140E-02
     22125 MEMB     179      PMPE     C1       CTL2    -0.800000E-01   12.0110           0   0.00000     -0.301140E-02
     22126 MEMB     179      PMPE     HA       HAL2     0.900000E-01   1.00800           0   0.00000     -0.301140E-02
     22127 MEMB     179      PMPE     HB       HAL2     0.900000E-01   1.00800           0   0.00000     -0.301140E-02
     22128 MEMB     179      PMPE     C2       CTL1     0.170000       12.0110           0   0.00000     -0.301140E-02
     22129 MEMB     179      PMPE     HS       HAL1     0.900000E-01   1.00800           0   0.00000     -0.301140E-02
     22130 MEMB     179      PMPE     O21      OSL     -0.490000       15.9994           0   0.00000     -0.301140E-02
     22131 MEMB     179      PMPE     C21      CL       0.900000       12.0110           0   0.00000     -0.301140E-02
     22132 MEMB     179      PMPE     O22      OBL     -0.630000       15.9994           0   0.00000     -0.301140E-02
     22133 MEMB     179      PMPE     C22      CTL2    -0.220000       12.0110           0   0.00000     -0.301140E-02
     22134 MEMB     179      PMPE     H2R      HAL2     0.900000E-01   1.00800           0   0.00000     -0.301140E-02
     22135 MEMB     179      PMPE     H2S      HAL2     0.900000E-01   1.00800           0   0.00000     -0.301140E-02
     22136 MEMB     179      PMPE     C3       CTL2     0.800000E-01   12.0110           0   0.00000     -0.301140E-02
     22137 MEMB     179      PMPE     HX       HAL2     0.900000E-01   1.00800           0   0.00000     -0.301140E-02
     22138 MEMB     179      PMPE     HY       HAL2     0.900000E-01   1.00800           0   0.00000     -0.301140E-02
     22139 MEMB     179      PMPE     O31      OSL     -0.490000       15.9994           0   0.00000     -0.301140E-02
     22140 MEMB     179      PMPE     C31      CL       0.900000       12.0110           0   0.00000     -0.301140E-02
     22141 MEMB     179      PMPE     O32      OBL     -0.630000       15.9994           0   0.00000     -0.301140E-02
     22142 MEMB     179      PMPE     C32      CTL2    -0.220000       12.0110           0   0.00000     -0.301140E-02
     22143 MEMB     179      PMPE     H2X      HAL2     0.900000E-01   1.00800           0   0.00000     -0.301140E-02
     22144 MEMB     179      PMPE     H2Y      HAL2     0.900000E-01   1.00800           0   0.00000     -0.301140E-02
     22145 MEMB     179      PMPE     C23      CTL2    -0.180000       12.0110           0   0.00000     -0.301140E-02
     22146 MEMB     179      PMPE     H3R      HAL2     0.900000E-01   1.00800           0   0.00000     -0.301140E-02
     22147 MEMB     179      PMPE     H3S      HAL2     0.900000E-01   1.00800           0   0.00000     -0.301140E-02
     22148 MEMB     179      PMPE     C24      CTL2    -0.180000       12.0110           0   0.00000     -0.301140E-02
     22149 MEMB     179      PMPE     H4R      HAL2     0.900000E-01   1.00800           0   0.00000     -0.301140E-02
     22150 MEMB     179      PMPE     H4S      HAL2     0.900000E-01   1.00800           0   0.00000     -0.301140E-02
     22151 MEMB     179      PMPE     C25      CTL2    -0.180000       12.0110           0   0.00000     -0.301140E-02
     22152 MEMB     179      PMPE     H5R      HAL2     0.900000E-01   1.00800           0   0.00000     -0.301140E-02
     22153 MEMB     179      PMPE     H5S      HAL2     0.900000E-01   1.00800           0   0.00000     -0.301140E-02
     22154 MEMB     179      PMPE     C26      CTL2    -0.180000       12.0110           0   0.00000     -0.301140E-02
     22155 MEMB     179      PMPE     H6R      HAL2     0.900000E-01   1.00800           0   0.00000     -0.301140E-02
     22156 MEMB     179      PMPE     H6S      HAL2     0.900000E-01   1.00800           0   0.00000     -0.301140E-02
     22157 MEMB     179      PMPE     C27      CTL2    -0.180000       12.0110           0   0.00000     -0.301140E-02
     22158 MEMB     179      PMPE     H7R      HAL2     0.900000E-01   1.00800           0   0.00000     -0.301140E-02
     22159 MEMB     179      PMPE     H7S      HAL2     0.900000E-01   1.00800           0   0.00000     -0.301140E-02
     22160 MEMB     179      PMPE     C28      CTL2    -0.180000       12.0110           0   0.00000     -0.301140E-02
     22161 MEMB     179      PMPE     H8R      HAL2     0.900000E-01   1.00800           0   0.00000     -0.301140E-02
     22162 MEMB     179      PMPE     H8S      HAL2     0.900000E-01   1.00800           0   0.00000     -0.301140E-02
     22163 MEMB     179      PMPE     C29      CG3RC1  -0.900000E-01   12.0110           0   0.00000     -0.301140E-02
     22164 MEMB     179      PMPE     H9R      HGA1     0.900000E-01   1.00800           0   0.00000     -0.301140E-02
     22165 MEMB     179      PMPE     C217     CG3C31  -0.180000       12.0110           0   0.00000     -0.301140E-02
     22166 MEMB     179      PMPE     H17R     HGA2     0.900000E-01   1.00800           0   0.00000     -0.301140E-02
     22167 MEMB     179      PMPE     H17S     HGA2     0.900000E-01   1.00800           0   0.00000     -0.301140E-02
     22168 MEMB     179      PMPE     C210     CG3RC1  -0.900000E-01   12.0110           0   0.00000     -0.301140E-02
     22169 MEMB     179      PMPE     H10R     HGA1     0.900000E-01   1.00800           0   0.00000     -0.301140E-02
     22170 MEMB     179      PMPE     C211     CTL2    -0.180000       12.0110           0   0.00000     -0.301140E-02
     22171 MEMB     179      PMPE     H11R     HAL2     0.900000E-01   1.00800           0   0.00000     -0.301140E-02
     22172 MEMB     179      PMPE     H11S     HAL2     0.900000E-01   1.00800           0   0.00000     -0.301140E-02
     22173 MEMB     179      PMPE     C212     CTL2    -0.180000       12.0110           0   0.00000     -0.301140E-02
     22174 MEMB     179      PMPE     H12R     HAL2     0.900000E-01   1.00800           0   0.00000     -0.301140E-02
     22175 MEMB     179      PMPE     H12S     HAL2     0.900000E-01   1.00800           0   0.00000     -0.301140E-02
     22176 MEMB     179      PMPE     C213     CTL2    -0.180000       12.0110           0   0.00000     -0.301140E-02
     22177 MEMB     179      PMPE     H13R     HAL2     0.900000E-01   1.00800           0   0.00000     -0.301140E-02
     22178 MEMB     179      PMPE     H13S     HAL2     0.900000E-01   1.00800           0   0.00000     -0.301140E-02
     22179 MEMB     179      PMPE     C214     CTL2    -0.180000       12.0110           0   0.00000     -0.301140E-02
     22180 MEMB     179      PMPE     H14R     HAL2     0.900000E-01   1.00800           0   0.00000     -0.301140E-02
     22181 MEMB     179      PMPE     H14S     HAL2     0.900000E-01   1.00800           0   0.00000     -0.301140E-02
     22182 MEMB     179      PMPE     C215     CTL2    -0.180000       12.0110           0   0.00000     -0.301140E-02
     22183 MEMB     179      PMPE     H15R     HAL2     0.900000E-01   1.00800           0   0.00000     -0.301140E-02
     22184 MEMB     179      PMPE     H15S     HAL2     0.900000E-01   1.00800           0   0.00000     -0.301140E-02
     22185 MEMB     179      PMPE     C216     CTL3    -0.270000       12.0110           0   0.00000     -0.301140E-02
     22186 MEMB     179      PMPE     H16R     HAL3     0.900000E-01   1.00800           0   0.00000     -0.301140E-02
     22187 MEMB     179      PMPE     H16S     HAL3     0.900000E-01   1.00800           0   0.00000     -0.301140E-02
     22188 MEMB     179      PMPE     H16T     HAL3     0.900000E-01   1.00800           0   0.00000     -0.301140E-02
     22189 MEMB     179      PMPE     C33      CTL2    -0.180000       12.0110           0   0.00000     -0.301140E-02
     22190 MEMB     179      PMPE     H3X      HAL2     0.900000E-01   1.00800           0   0.00000     -0.301140E-02
     22191 MEMB     179      PMPE     H3Y      HAL2     0.900000E-01   1.00800           0   0.00000     -0.301140E-02
     22192 MEMB     179      PMPE     C34      CTL2    -0.180000       12.0110           0   0.00000     -0.301140E-02
     22193 MEMB     179      PMPE     H4X      HAL2     0.900000E-01   1.00800           0   0.00000     -0.301140E-02
     22194 MEMB     179      PMPE     H4Y      HAL2     0.900000E-01   1.00800           0   0.00000     -0.301140E-02
     22195 MEMB     179      PMPE     C35      CTL2    -0.180000       12.0110           0   0.00000     -0.301140E-02
     22196 MEMB     179      PMPE     H5X      HAL2     0.900000E-01   1.00800           0   0.00000     -0.301140E-02
     22197 MEMB     179      PMPE     H5Y      HAL2     0.900000E-01   1.00800           0   0.00000     -0.301140E-02
     22198 MEMB     179      PMPE     C36      CTL2    -0.180000       12.0110           0   0.00000     -0.301140E-02
     22199 MEMB     179      PMPE     H6X      HAL2     0.900000E-01   1.00800           0   0.00000     -0.301140E-02
     22200 MEMB     179      PMPE     H6Y      HAL2     0.900000E-01   1.00800           0   0.00000     -0.301140E-02
     22201 MEMB     179      PMPE     C37      CTL2    -0.180000       12.0110           0   0.00000     -0.301140E-02
     22202 MEMB     179      PMPE     H7X      HAL2     0.900000E-01   1.00800           0   0.00000     -0.301140E-02
     22203 MEMB     179      PMPE     H7Y      HAL2     0.900000E-01   1.00800           0   0.00000     -0.301140E-02
     22204 MEMB     179      PMPE     C38      CTL2    -0.180000       12.0110           0   0.00000     -0.301140E-02
     22205 MEMB     179      PMPE     H8X      HAL2     0.900000E-01   1.00800           0   0.00000     -0.301140E-02
     22206 MEMB     179      PMPE     H8Y      HAL2     0.900000E-01   1.00800           0   0.00000     -0.301140E-02
     22207 MEMB     179      PMPE     C39      CTL2    -0.180000       12.0110           0   0.00000     -0.301140E-02
     22208 MEMB     179      PMPE     H9X      HAL2     0.900000E-01   1.00800           0   0.00000     -0.301140E-02
     22209 MEMB     179      PMPE     H9Y      HAL2     0.900000E-01   1.00800           0   0.00000     -0.301140E-02
     22210 MEMB     179      PMPE     C310     CTL2    -0.180000       12.0110           0   0.00000     -0.301140E-02
     22211 MEMB     179      PMPE     H10X     HAL2     0.900000E-01   1.00800           0   0.00000     -0.301140E-02
     22212 MEMB     179      PMPE     H10Y     HAL2     0.900000E-01   1.00800           0   0.00000     -0.301140E-02
     22213 MEMB     179      PMPE     C311     CTL2    -0.180000       12.0110           0   0.00000     -0.301140E-02
     22214 MEMB     179      PMPE     H11X     HAL2     0.900000E-01   1.00800           0   0.00000     -0.301140E-02
     22215 MEMB     179      PMPE     H11Y     HAL2     0.900000E-01   1.00800           0   0.00000     -0.301140E-02
     22216 MEMB     179      PMPE     C312     CTL2    -0.180000       12.0110           0   0.00000     -0.301140E-02
     22217 MEMB     179      PMPE     H12X     HAL2     0.900000E-01   1.00800           0   0.00000     -0.301140E-02
     22218 MEMB     179      PMPE     H12Y     HAL2     0.900000E-01   1.00800           0   0.00000     -0.301140E-02
     22219 MEMB     179      PMPE     C313     CTL2    -0.180000       12.0110           0   0.00000     -0.301140E-02
     22220 MEMB     179      PMPE     H13X     HAL2     0.900000E-01   1.00800           0   0.00000     -0.301140E-02
     22221 MEMB     179      PMPE     H13Y     HAL2     0.900000E-01   1.00800           0   0.00000     -0.301140E-02
     22222 MEMB     179      PMPE     C314     CTL2    -0.180000       12.0110           0   0.00000     -0.301140E-02
     22223 MEMB     179      PMPE     H14X     HAL2     0.900000E-01   1.00800           0   0.00000     -0.301140E-02
     22224 MEMB     179      PMPE     H14Y     HAL2     0.900000E-01   1.00800           0   0.00000     -0.301140E-02
     22225 MEMB     179      PMPE     C315     CTL2    -0.180000       12.0110           0   0.00000     -0.301140E-02
     22226 MEMB     179      PMPE     H15X     HAL2     0.900000E-01   1.00800           0   0.00000     -0.301140E-02
     22227 MEMB     179      PMPE     H15Y     HAL2     0.900000E-01   1.00800           0   0.00000     -0.301140E-02
     22228 MEMB     179      PMPE     C316     CTL3    -0.270000       12.0110           0   0.00000     -0.301140E-02
     22229 MEMB     179      PMPE     H16X     HAL3     0.900000E-01   1.00800           0   0.00000     -0.301140E-02
     22230 MEMB     179      PMPE     H16Y     HAL3     0.900000E-01   1.00800           0   0.00000     -0.301140E-02
     22231 MEMB     179      PMPE     H16Z     HAL3     0.900000E-01   1.00800           0   0.00000     -0.301140E-02
     22232 MEMB     180      PMPE     N        NH3L    -0.300000       14.0070           0   0.00000     -0.301140E-02
     22233 MEMB     180      PMPE     HN1      HCL      0.330000       1.00800           0   0.00000     -0.301140E-02
     22234 MEMB     180      PMPE     HN2      HCL      0.330000       1.00800           0   0.00000     -0.301140E-02
     22235 MEMB     180      PMPE     HN3      HCL      0.330000       1.00800           0   0.00000     -0.301140E-02
     22236 MEMB     180      PMPE     C12      CTL2     0.130000       12.0110           0   0.00000     -0.301140E-02
     22237 MEMB     180      PMPE     H12A     HAL2     0.900000E-01   1.00800           0   0.00000     -0.301140E-02
     22238 MEMB     180      PMPE     H12B     HAL2     0.900000E-01   1.00800           0   0.00000     -0.301140E-02
     22239 MEMB     180      PMPE     C11      CTL2    -0.800000E-01   12.0110           0   0.00000     -0.301140E-02
     22240 MEMB     180      PMPE     H11A     HAL2     0.900000E-01   1.00800           0   0.00000     -0.301140E-02
     22241 MEMB     180      PMPE     H11B     HAL2     0.900000E-01   1.00800           0   0.00000     -0.301140E-02
     22242 MEMB     180      PMPE     P        PL        1.50000       30.9740           0   0.00000     -0.301140E-02
     22243 MEMB     180      PMPE     O13      O2L     -0.780000       15.9994           0   0.00000     -0.301140E-02
     22244 MEMB     180      PMPE     O14      O2L     -0.780000       15.9994           0   0.00000     -0.301140E-02
     22245 MEMB     180      PMPE     O11      OSLP    -0.570000       15.9994           0   0.00000     -0.301140E-02
     22246 MEMB     180      PMPE     O12      OSLP    -0.570000       15.9994           0   0.00000     -0.301140E-02
     22247 MEMB     180      PMPE     C1       CTL2    -0.800000E-01   12.0110           0   0.00000     -0.301140E-02
     22248 MEMB     180      PMPE     HA       HAL2     0.900000E-01   1.00800           0   0.00000     -0.301140E-02
     22249 MEMB     180      PMPE     HB       HAL2     0.900000E-01   1.00800           0   0.00000     -0.301140E-02
     22250 MEMB     180      PMPE     C2       CTL1     0.170000       12.0110           0   0.00000     -0.301140E-02
     22251 MEMB     180      PMPE     HS       HAL1     0.900000E-01   1.00800           0   0.00000     -0.301140E-02
     22252 MEMB     180      PMPE     O21      OSL     -0.490000       15.9994           0   0.00000     -0.301140E-02
     22253 MEMB     180      PMPE     C21      CL       0.900000       12.0110           0   0.00000     -0.301140E-02
     22254 MEMB     180      PMPE     O22      OBL     -0.630000       15.9994           0   0.00000     -0.301140E-02
     22255 MEMB     180      PMPE     C22      CTL2    -0.220000       12.0110           0   0.00000     -0.301140E-02
     22256 MEMB     180      PMPE     H2R      HAL2     0.900000E-01   1.00800           0   0.00000     -0.301140E-02
     22257 MEMB     180      PMPE     H2S      HAL2     0.900000E-01   1.00800           0   0.00000     -0.301140E-02
     22258 MEMB     180      PMPE     C3       CTL2     0.800000E-01   12.0110           0   0.00000     -0.301140E-02
     22259 MEMB     180      PMPE     HX       HAL2     0.900000E-01   1.00800           0   0.00000     -0.301140E-02
     22260 MEMB     180      PMPE     HY       HAL2     0.900000E-01   1.00800           0   0.00000     -0.301140E-02
     22261 MEMB     180      PMPE     O31      OSL     -0.490000       15.9994           0   0.00000     -0.301140E-02
     22262 MEMB     180      PMPE     C31      CL       0.900000       12.0110           0   0.00000     -0.301140E-02
     22263 MEMB     180      PMPE     O32      OBL     -0.630000       15.9994           0   0.00000     -0.301140E-02
     22264 MEMB     180      PMPE     C32      CTL2    -0.220000       12.0110           0   0.00000     -0.301140E-02
     22265 MEMB     180      PMPE     H2X      HAL2     0.900000E-01   1.00800           0   0.00000     -0.301140E-02
     22266 MEMB     180      PMPE     H2Y      HAL2     0.900000E-01   1.00800           0   0.00000     -0.301140E-02
     22267 MEMB     180      PMPE     C23      CTL2    -0.180000       12.0110           0   0.00000     -0.301140E-02
     22268 MEMB     180      PMPE     H3R      HAL2     0.900000E-01   1.00800           0   0.00000     -0.301140E-02
     22269 MEMB     180      PMPE     H3S      HAL2     0.900000E-01   1.00800           0   0.00000     -0.301140E-02
     22270 MEMB     180      PMPE     C24      CTL2    -0.180000       12.0110           0   0.00000     -0.301140E-02
     22271 MEMB     180      PMPE     H4R      HAL2     0.900000E-01   1.00800           0   0.00000     -0.301140E-02
     22272 MEMB     180      PMPE     H4S      HAL2     0.900000E-01   1.00800           0   0.00000     -0.301140E-02
     22273 MEMB     180      PMPE     C25      CTL2    -0.180000       12.0110           0   0.00000     -0.301140E-02
     22274 MEMB     180      PMPE     H5R      HAL2     0.900000E-01   1.00800           0   0.00000     -0.301140E-02
     22275 MEMB     180      PMPE     H5S      HAL2     0.900000E-01   1.00800           0   0.00000     -0.301140E-02
     22276 MEMB     180      PMPE     C26      CTL2    -0.180000       12.0110           0   0.00000     -0.301140E-02
     22277 MEMB     180      PMPE     H6R      HAL2     0.900000E-01   1.00800           0   0.00000     -0.301140E-02
     22278 MEMB     180      PMPE     H6S      HAL2     0.900000E-01   1.00800           0   0.00000     -0.301140E-02
     22279 MEMB     180      PMPE     C27      CTL2    -0.180000       12.0110           0   0.00000     -0.301140E-02
     22280 MEMB     180      PMPE     H7R      HAL2     0.900000E-01   1.00800           0   0.00000     -0.301140E-02
     22281 MEMB     180      PMPE     H7S      HAL2     0.900000E-01   1.00800           0   0.00000     -0.301140E-02
     22282 MEMB     180      PMPE     C28      CTL2    -0.180000       12.0110           0   0.00000     -0.301140E-02
     22283 MEMB     180      PMPE     H8R      HAL2     0.900000E-01   1.00800           0   0.00000     -0.301140E-02
     22284 MEMB     180      PMPE     H8S      HAL2     0.900000E-01   1.00800           0   0.00000     -0.301140E-02
     22285 MEMB     180      PMPE     C29      CG3RC1  -0.900000E-01   12.0110           0   0.00000     -0.301140E-02
     22286 MEMB     180      PMPE     H9R      HGA1     0.900000E-01   1.00800           0   0.00000     -0.301140E-02
     22287 MEMB     180      PMPE     C217     CG3C31  -0.180000       12.0110           0   0.00000     -0.301140E-02
     22288 MEMB     180      PMPE     H17R     HGA2     0.900000E-01   1.00800           0   0.00000     -0.301140E-02
     22289 MEMB     180      PMPE     H17S     HGA2     0.900000E-01   1.00800           0   0.00000     -0.301140E-02
     22290 MEMB     180      PMPE     C210     CG3RC1  -0.900000E-01   12.0110           0   0.00000     -0.301140E-02
     22291 MEMB     180      PMPE     H10R     HGA1     0.900000E-01   1.00800           0   0.00000     -0.301140E-02
     22292 MEMB     180      PMPE     C211     CTL2    -0.180000       12.0110           0   0.00000     -0.301140E-02
     22293 MEMB     180      PMPE     H11R     HAL2     0.900000E-01   1.00800           0   0.00000     -0.301140E-02
     22294 MEMB     180      PMPE     H11S     HAL2     0.900000E-01   1.00800           0   0.00000     -0.301140E-02
     22295 MEMB     180      PMPE     C212     CTL2    -0.180000       12.0110           0   0.00000     -0.301140E-02
     22296 MEMB     180      PMPE     H12R     HAL2     0.900000E-01   1.00800           0   0.00000     -0.301140E-02
     22297 MEMB     180      PMPE     H12S     HAL2     0.900000E-01   1.00800           0   0.00000     -0.301140E-02
     22298 MEMB     180      PMPE     C213     CTL2    -0.180000       12.0110           0   0.00000     -0.301140E-02
     22299 MEMB     180      PMPE     H13R     HAL2     0.900000E-01   1.00800           0   0.00000     -0.301140E-02
     22300 MEMB     180      PMPE     H13S     HAL2     0.900000E-01   1.00800           0   0.00000     -0.301140E-02
     22301 MEMB     180      PMPE     C214     CTL2    -0.180000       12.0110           0   0.00000     -0.301140E-02
     22302 MEMB     180      PMPE     H14R     HAL2     0.900000E-01   1.00800           0   0.00000     -0.301140E-02
     22303 MEMB     180      PMPE     H14S     HAL2     0.900000E-01   1.00800           0   0.00000     -0.301140E-02
     22304 MEMB     180      PMPE     C215     CTL2    -0.180000       12.0110           0   0.00000     -0.301140E-02
     22305 MEMB     180      PMPE     H15R     HAL2     0.900000E-01   1.00800           0   0.00000     -0.301140E-02
     22306 MEMB     180      PMPE     H15S     HAL2     0.900000E-01   1.00800           0   0.00000     -0.301140E-02
     22307 MEMB     180      PMPE     C216     CTL3    -0.270000       12.0110           0   0.00000     -0.301140E-02
     22308 MEMB     180      PMPE     H16R     HAL3     0.900000E-01   1.00800           0   0.00000     -0.301140E-02
     22309 MEMB     180      PMPE     H16S     HAL3     0.900000E-01   1.00800           0   0.00000     -0.301140E-02
     22310 MEMB     180      PMPE     H16T     HAL3     0.900000E-01   1.00800           0   0.00000     -0.301140E-02
     22311 MEMB     180      PMPE     C33      CTL2    -0.180000       12.0110           0   0.00000     -0.301140E-02
     22312 MEMB     180      PMPE     H3X      HAL2     0.900000E-01   1.00800           0   0.00000     -0.301140E-02
     22313 MEMB     180      PMPE     H3Y      HAL2     0.900000E-01   1.00800           0   0.00000     -0.301140E-02
     22314 MEMB     180      PMPE     C34      CTL2    -0.180000       12.0110           0   0.00000     -0.301140E-02
     22315 MEMB     180      PMPE     H4X      HAL2     0.900000E-01   1.00800           0   0.00000     -0.301140E-02
     22316 MEMB     180      PMPE     H4Y      HAL2     0.900000E-01   1.00800           0   0.00000     -0.301140E-02
     22317 MEMB     180      PMPE     C35      CTL2    -0.180000       12.0110           0   0.00000     -0.301140E-02
     22318 MEMB     180      PMPE     H5X      HAL2     0.900000E-01   1.00800           0   0.00000     -0.301140E-02
     22319 MEMB     180      PMPE     H5Y      HAL2     0.900000E-01   1.00800           0   0.00000     -0.301140E-02
     22320 MEMB     180      PMPE     C36      CTL2    -0.180000       12.0110           0   0.00000     -0.301140E-02
     22321 MEMB     180      PMPE     H6X      HAL2     0.900000E-01   1.00800           0   0.00000     -0.301140E-02
     22322 MEMB     180      PMPE     H6Y      HAL2     0.900000E-01   1.00800           0   0.00000     -0.301140E-02
     22323 MEMB     180      PMPE     C37      CTL2    -0.180000       12.0110           0   0.00000     -0.301140E-02
     22324 MEMB     180      PMPE     H7X      HAL2     0.900000E-01   1.00800           0   0.00000     -0.301140E-02
     22325 MEMB     180      PMPE     H7Y      HAL2     0.900000E-01   1.00800           0   0.00000     -0.301140E-02
     22326 MEMB     180      PMPE     C38      CTL2    -0.180000       12.0110           0   0.00000     -0.301140E-02
     22327 MEMB     180      PMPE     H8X      HAL2     0.900000E-01   1.00800           0   0.00000     -0.301140E-02
     22328 MEMB     180      PMPE     H8Y      HAL2     0.900000E-01   1.00800           0   0.00000     -0.301140E-02
     22329 MEMB     180      PMPE     C39      CTL2    -0.180000       12.0110           0   0.00000     -0.301140E-02
     22330 MEMB     180      PMPE     H9X      HAL2     0.900000E-01   1.00800           0   0.00000     -0.301140E-02
     22331 MEMB     180      PMPE     H9Y      HAL2     0.900000E-01   1.00800           0   0.00000     -0.301140E-02
     22332 MEMB     180      PMPE     C310     CTL2    -0.180000       12.0110           0   0.00000     -0.301140E-02
     22333 MEMB     180      PMPE     H10X     HAL2     0.900000E-01   1.00800           0   0.00000     -0.301140E-02
     22334 MEMB     180      PMPE     H10Y     HAL2     0.900000E-01   1.00800           0   0.00000     -0.301140E-02
     22335 MEMB     180      PMPE     C311     CTL2    -0.180000       12.0110           0   0.00000     -0.301140E-02
     22336 MEMB     180      PMPE     H11X     HAL2     0.900000E-01   1.00800           0   0.00000     -0.301140E-02
     22337 MEMB     180      PMPE     H11Y     HAL2     0.900000E-01   1.00800           0   0.00000     -0.301140E-02
     22338 MEMB     180      PMPE     C312     CTL2    -0.180000       12.0110           0   0.00000     -0.301140E-02
     22339 MEMB     180      PMPE     H12X     HAL2     0.900000E-01   1.00800           0   0.00000     -0.301140E-02
     22340 MEMB     180      PMPE     H12Y     HAL2     0.900000E-01   1.00800           0   0.00000     -0.301140E-02
     22341 MEMB     180      PMPE     C313     CTL2    -0.180000       12.0110           0   0.00000     -0.301140E-02
     22342 MEMB     180      PMPE     H13X     HAL2     0.900000E-01   1.00800           0   0.00000     -0.301140E-02
     22343 MEMB     180      PMPE     H13Y     HAL2     0.900000E-01   1.00800           0   0.00000     -0.301140E-02
     22344 MEMB     180      PMPE     C314     CTL2    -0.180000       12.0110           0   0.00000     -0.301140E-02
     22345 MEMB     180      PMPE     H14X     HAL2     0.900000E-01   1.00800           0   0.00000     -0.301140E-02
     22346 MEMB     180      PMPE     H14Y     HAL2     0.900000E-01   1.00800           0   0.00000     -0.301140E-02
     22347 MEMB     180      PMPE     C315     CTL2    -0.180000       12.0110           0   0.00000     -0.301140E-02
     22348 MEMB     180      PMPE     H15X     HAL2     0.900000E-01   1.00800           0   0.00000     -0.301140E-02
     22349 MEMB     180      PMPE     H15Y     HAL2     0.900000E-01   1.00800           0   0.00000     -0.301140E-02
     22350 MEMB     180      PMPE     C316     CTL3    -0.270000       12.0110           0   0.00000     -0.301140E-02
     22351 MEMB     180      PMPE     H16X     HAL3     0.900000E-01   1.00800           0   0.00000     -0.301140E-02
     22352 MEMB     180      PMPE     H16Y     HAL3     0.900000E-01   1.00800           0   0.00000     -0.301140E-02
     22353 MEMB     180      PMPE     H16Z     HAL3     0.900000E-01   1.00800           0   0.00000     -0.301140E-02
     22354 MEMB     181      PYPG     C13      CTL2     0.500000E-01   12.0110           0   0.00000     -0.301140E-02
     22355 MEMB     181      PYPG     H13A     HAL2     0.900000E-01   1.00800           0   0.00000     -0.301140E-02
     22356 MEMB     181      PYPG     H13B     HAL2     0.900000E-01   1.00800           0   0.00000     -0.301140E-02
     22357 MEMB     181      PYPG     OC3      OHL     -0.660000       15.9994           0   0.00000     -0.301140E-02
     22358 MEMB     181      PYPG     HO3      HOL      0.430000       1.00800           0   0.00000     -0.301140E-02
     22359 MEMB     181      PYPG     C12      CTL1     0.140000       12.0110           0   0.00000     -0.301140E-02
     22360 MEMB     181      PYPG     H12A     HAL1     0.900000E-01   1.00800           0   0.00000     -0.301140E-02
     22361 MEMB     181      PYPG     OC2      OHL     -0.660000       15.9994           0   0.00000     -0.301140E-02
     22362 MEMB     181      PYPG     HO2      HOL      0.430000       1.00800           0   0.00000     -0.301140E-02
     22363 MEMB     181      PYPG     C11      CTL2    -0.800000E-01   12.0110           0   0.00000     -0.301140E-02
     22364 MEMB     181      PYPG     H11A     HAL2     0.900000E-01   1.00800           0   0.00000     -0.301140E-02
     22365 MEMB     181      PYPG     H11B     HAL2     0.900000E-01   1.00800           0   0.00000     -0.301140E-02
     22366 MEMB     181      PYPG     P        PL        1.50000       30.9740           0   0.00000     -0.301140E-02
     22367 MEMB     181      PYPG     O13      O2L     -0.780000       15.9994           0   0.00000     -0.301140E-02
     22368 MEMB     181      PYPG     O14      O2L     -0.780000       15.9994           0   0.00000     -0.301140E-02
     22369 MEMB     181      PYPG     O11      OSLP    -0.570000       15.9994           0   0.00000     -0.301140E-02
     22370 MEMB     181      PYPG     O12      OSLP    -0.570000       15.9994           0   0.00000     -0.301140E-02
     22371 MEMB     181      PYPG     C1       CTL2    -0.800000E-01   12.0110           0   0.00000     -0.301140E-02
     22372 MEMB     181      PYPG     HA       HAL2     0.900000E-01   1.00800           0   0.00000     -0.301140E-02
     22373 MEMB     181      PYPG     HB       HAL2     0.900000E-01   1.00800           0   0.00000     -0.301140E-02
     22374 MEMB     181      PYPG     C2       CTL1     0.170000       12.0110           0   0.00000     -0.301140E-02
     22375 MEMB     181      PYPG     HS       HAL1     0.900000E-01   1.00800           0   0.00000     -0.301140E-02
     22376 MEMB     181      PYPG     O21      OSL     -0.490000       15.9994           0   0.00000     -0.301140E-02
     22377 MEMB     181      PYPG     C21      CL       0.900000       12.0110           0   0.00000     -0.301140E-02
     22378 MEMB     181      PYPG     O22      OBL     -0.630000       15.9994           0   0.00000     -0.301140E-02
     22379 MEMB     181      PYPG     C22      CTL2    -0.220000       12.0110           0   0.00000     -0.301140E-02
     22380 MEMB     181      PYPG     H2R      HAL2     0.900000E-01   1.00800           0   0.00000     -0.301140E-02
     22381 MEMB     181      PYPG     H2S      HAL2     0.900000E-01   1.00800           0   0.00000     -0.301140E-02
     22382 MEMB     181      PYPG     C3       CTL2     0.800000E-01   12.0110           0   0.00000     -0.301140E-02
     22383 MEMB     181      PYPG     HX       HAL2     0.900000E-01   1.00800           0   0.00000     -0.301140E-02
     22384 MEMB     181      PYPG     HY       HAL2     0.900000E-01   1.00800           0   0.00000     -0.301140E-02
     22385 MEMB     181      PYPG     O31      OSL     -0.490000       15.9994           0   0.00000     -0.301140E-02
     22386 MEMB     181      PYPG     C31      CL       0.900000       12.0110           0   0.00000     -0.301140E-02
     22387 MEMB     181      PYPG     O32      OBL     -0.630000       15.9994           0   0.00000     -0.301140E-02
     22388 MEMB     181      PYPG     C32      CTL2    -0.220000       12.0110           0   0.00000     -0.301140E-02
     22389 MEMB     181      PYPG     H2X      HAL2     0.900000E-01   1.00800           0   0.00000     -0.301140E-02
     22390 MEMB     181      PYPG     H2Y      HAL2     0.900000E-01   1.00800           0   0.00000     -0.301140E-02
     22391 MEMB     181      PYPG     C23      CTL2    -0.180000       12.0110           0   0.00000     -0.301140E-02
     22392 MEMB     181      PYPG     H3R      HAL2     0.900000E-01   1.00800           0   0.00000     -0.301140E-02
     22393 MEMB     181      PYPG     H3S      HAL2     0.900000E-01   1.00800           0   0.00000     -0.301140E-02
     22394 MEMB     181      PYPG     C24      CTL2    -0.180000       12.0110           0   0.00000     -0.301140E-02
     22395 MEMB     181      PYPG     H4R      HAL2     0.900000E-01   1.00800           0   0.00000     -0.301140E-02
     22396 MEMB     181      PYPG     H4S      HAL2     0.900000E-01   1.00800           0   0.00000     -0.301140E-02
     22397 MEMB     181      PYPG     C25      CTL2    -0.180000       12.0110           0   0.00000     -0.301140E-02
     22398 MEMB     181      PYPG     H5R      HAL2     0.900000E-01   1.00800           0   0.00000     -0.301140E-02
     22399 MEMB     181      PYPG     H5S      HAL2     0.900000E-01   1.00800           0   0.00000     -0.301140E-02
     22400 MEMB     181      PYPG     C26      CTL2    -0.180000       12.0110           0   0.00000     -0.301140E-02
     22401 MEMB     181      PYPG     H6R      HAL2     0.900000E-01   1.00800           0   0.00000     -0.301140E-02
     22402 MEMB     181      PYPG     H6S      HAL2     0.900000E-01   1.00800           0   0.00000     -0.301140E-02
     22403 MEMB     181      PYPG     C27      CTL2    -0.180000       12.0110           0   0.00000     -0.301140E-02
     22404 MEMB     181      PYPG     H7R      HAL2     0.900000E-01   1.00800           0   0.00000     -0.301140E-02
     22405 MEMB     181      PYPG     H7S      HAL2     0.900000E-01   1.00800           0   0.00000     -0.301140E-02
     22406 MEMB     181      PYPG     C28      CTL2    -0.180000       12.0110           0   0.00000     -0.301140E-02
     22407 MEMB     181      PYPG     H8R      HAL2     0.900000E-01   1.00800           0   0.00000     -0.301140E-02
     22408 MEMB     181      PYPG     H8S      HAL2     0.900000E-01   1.00800           0   0.00000     -0.301140E-02
     22409 MEMB     181      PYPG     C29      CEL1    -0.150000       12.0110           0   0.00000     -0.301140E-02
     22410 MEMB     181      PYPG     H9R      HEL1     0.150000       1.00800           0   0.00000     -0.301140E-02
     22411 MEMB     181      PYPG     C210     CEL1    -0.150000       12.0110           0   0.00000     -0.301140E-02
     22412 MEMB     181      PYPG     H10R     HEL1     0.150000       1.00800           0   0.00000     -0.301140E-02
     22413 MEMB     181      PYPG     C211     CTL2    -0.180000       12.0110           0   0.00000     -0.301140E-02
     22414 MEMB     181      PYPG     H11R     HAL2     0.900000E-01   1.00800           0   0.00000     -0.301140E-02
     22415 MEMB     181      PYPG     H11S     HAL2     0.900000E-01   1.00800           0   0.00000     -0.301140E-02
     22416 MEMB     181      PYPG     C212     CTL2    -0.180000       12.0110           0   0.00000     -0.301140E-02
     22417 MEMB     181      PYPG     H12R     HAL2     0.900000E-01   1.00800           0   0.00000     -0.301140E-02
     22418 MEMB     181      PYPG     H12S     HAL2     0.900000E-01   1.00800           0   0.00000     -0.301140E-02
     22419 MEMB     181      PYPG     C213     CTL2    -0.180000       12.0110           0   0.00000     -0.301140E-02
     22420 MEMB     181      PYPG     H13R     HAL2     0.900000E-01   1.00800           0   0.00000     -0.301140E-02
     22421 MEMB     181      PYPG     H13S     HAL2     0.900000E-01   1.00800           0   0.00000     -0.301140E-02
     22422 MEMB     181      PYPG     C214     CTL2    -0.180000       12.0110           0   0.00000     -0.301140E-02
     22423 MEMB     181      PYPG     H14R     HAL2     0.900000E-01   1.00800           0   0.00000     -0.301140E-02
     22424 MEMB     181      PYPG     H14S     HAL2     0.900000E-01   1.00800           0   0.00000     -0.301140E-02
     22425 MEMB     181      PYPG     C215     CTL2    -0.180000       12.0110           0   0.00000     -0.301140E-02
     22426 MEMB     181      PYPG     H15R     HAL2     0.900000E-01   1.00800           0   0.00000     -0.301140E-02
     22427 MEMB     181      PYPG     H15S     HAL2     0.900000E-01   1.00800           0   0.00000     -0.301140E-02
     22428 MEMB     181      PYPG     C216     CTL3    -0.270000       12.0110           0   0.00000     -0.301140E-02
     22429 MEMB     181      PYPG     H16R     HAL3     0.900000E-01   1.00800           0   0.00000     -0.301140E-02
     22430 MEMB     181      PYPG     H16S     HAL3     0.900000E-01   1.00800           0   0.00000     -0.301140E-02
     22431 MEMB     181      PYPG     H16T     HAL3     0.900000E-01   1.00800           0   0.00000     -0.301140E-02
     22432 MEMB     181      PYPG     C33      CTL2    -0.180000       12.0110           0   0.00000     -0.301140E-02
     22433 MEMB     181      PYPG     H3X      HAL2     0.900000E-01   1.00800           0   0.00000     -0.301140E-02
     22434 MEMB     181      PYPG     H3Y      HAL2     0.900000E-01   1.00800           0   0.00000     -0.301140E-02
     22435 MEMB     181      PYPG     C34      CTL2    -0.180000       12.0110           0   0.00000     -0.301140E-02
     22436 MEMB     181      PYPG     H4X      HAL2     0.900000E-01   1.00800           0   0.00000     -0.301140E-02
     22437 MEMB     181      PYPG     H4Y      HAL2     0.900000E-01   1.00800           0   0.00000     -0.301140E-02
     22438 MEMB     181      PYPG     C35      CTL2    -0.180000       12.0110           0   0.00000     -0.301140E-02
     22439 MEMB     181      PYPG     H5X      HAL2     0.900000E-01   1.00800           0   0.00000     -0.301140E-02
     22440 MEMB     181      PYPG     H5Y      HAL2     0.900000E-01   1.00800           0   0.00000     -0.301140E-02
     22441 MEMB     181      PYPG     C36      CTL2    -0.180000       12.0110           0   0.00000     -0.301140E-02
     22442 MEMB     181      PYPG     H6X      HAL2     0.900000E-01   1.00800           0   0.00000     -0.301140E-02
     22443 MEMB     181      PYPG     H6Y      HAL2     0.900000E-01   1.00800           0   0.00000     -0.301140E-02
     22444 MEMB     181      PYPG     C37      CTL2    -0.180000       12.0110           0   0.00000     -0.301140E-02
     22445 MEMB     181      PYPG     H7X      HAL2     0.900000E-01   1.00800           0   0.00000     -0.301140E-02
     22446 MEMB     181      PYPG     H7Y      HAL2     0.900000E-01   1.00800           0   0.00000     -0.301140E-02
     22447 MEMB     181      PYPG     C38      CTL2    -0.180000       12.0110           0   0.00000     -0.301140E-02
     22448 MEMB     181      PYPG     H8X      HAL2     0.900000E-01   1.00800           0   0.00000     -0.301140E-02
     22449 MEMB     181      PYPG     H8Y      HAL2     0.900000E-01   1.00800           0   0.00000     -0.301140E-02
     22450 MEMB     181      PYPG     C39      CTL2    -0.180000       12.0110           0   0.00000     -0.301140E-02
     22451 MEMB     181      PYPG     H9X      HAL2     0.900000E-01   1.00800           0   0.00000     -0.301140E-02
     22452 MEMB     181      PYPG     H9Y      HAL2     0.900000E-01   1.00800           0   0.00000     -0.301140E-02
     22453 MEMB     181      PYPG     C310     CTL2    -0.180000       12.0110           0   0.00000     -0.301140E-02
     22454 MEMB     181      PYPG     H10X     HAL2     0.900000E-01   1.00800           0   0.00000     -0.301140E-02
     22455 MEMB     181      PYPG     H10Y     HAL2     0.900000E-01   1.00800           0   0.00000     -0.301140E-02
     22456 MEMB     181      PYPG     C311     CTL2    -0.180000       12.0110           0   0.00000     -0.301140E-02
     22457 MEMB     181      PYPG     H11X     HAL2     0.900000E-01   1.00800           0   0.00000     -0.301140E-02
     22458 MEMB     181      PYPG     H11Y     HAL2     0.900000E-01   1.00800           0   0.00000     -0.301140E-02
     22459 MEMB     181      PYPG     C312     CTL2    -0.180000       12.0110           0   0.00000     -0.301140E-02
     22460 MEMB     181      PYPG     H12X     HAL2     0.900000E-01   1.00800           0   0.00000     -0.301140E-02
     22461 MEMB     181      PYPG     H12Y     HAL2     0.900000E-01   1.00800           0   0.00000     -0.301140E-02
     22462 MEMB     181      PYPG     C313     CTL2    -0.180000       12.0110           0   0.00000     -0.301140E-02
     22463 MEMB     181      PYPG     H13X     HAL2     0.900000E-01   1.00800           0   0.00000     -0.301140E-02
     22464 MEMB     181      PYPG     H13Y     HAL2     0.900000E-01   1.00800           0   0.00000     -0.301140E-02
     22465 MEMB     181      PYPG     C314     CTL2    -0.180000       12.0110           0   0.00000     -0.301140E-02
     22466 MEMB     181      PYPG     H14X     HAL2     0.900000E-01   1.00800           0   0.00000     -0.301140E-02
     22467 MEMB     181      PYPG     H14Y     HAL2     0.900000E-01   1.00800           0   0.00000     -0.301140E-02
     22468 MEMB     181      PYPG     C315     CTL2    -0.180000       12.0110           0   0.00000     -0.301140E-02
     22469 MEMB     181      PYPG     H15X     HAL2     0.900000E-01   1.00800           0   0.00000     -0.301140E-02
     22470 MEMB     181      PYPG     H15Y     HAL2     0.900000E-01   1.00800           0   0.00000     -0.301140E-02
     22471 MEMB     181      PYPG     C316     CTL3    -0.270000       12.0110           0   0.00000     -0.301140E-02
     22472 MEMB     181      PYPG     H16X     HAL3     0.900000E-01   1.00800           0   0.00000     -0.301140E-02
     22473 MEMB     181      PYPG     H16Y     HAL3     0.900000E-01   1.00800           0   0.00000     -0.301140E-02
     22474 MEMB     181      PYPG     H16Z     HAL3     0.900000E-01   1.00800           0   0.00000     -0.301140E-02
     22475 MEMB     182      OYPE     N        NH3L    -0.300000       14.0070           0   0.00000     -0.301140E-02
     22476 MEMB     182      OYPE     HN1      HCL      0.330000       1.00800           0   0.00000     -0.301140E-02
     22477 MEMB     182      OYPE     HN2      HCL      0.330000       1.00800           0   0.00000     -0.301140E-02
     22478 MEMB     182      OYPE     HN3      HCL      0.330000       1.00800           0   0.00000     -0.301140E-02
     22479 MEMB     182      OYPE     C12      CTL2     0.130000       12.0110           0   0.00000     -0.301140E-02
     22480 MEMB     182      OYPE     H12A     HAL2     0.900000E-01   1.00800           0   0.00000     -0.301140E-02
     22481 MEMB     182      OYPE     H12B     HAL2     0.900000E-01   1.00800           0   0.00000     -0.301140E-02
     22482 MEMB     182      OYPE     C11      CTL2    -0.800000E-01   12.0110           0   0.00000     -0.301140E-02
     22483 MEMB     182      OYPE     H11A     HAL2     0.900000E-01   1.00800           0   0.00000     -0.301140E-02
     22484 MEMB     182      OYPE     H11B     HAL2     0.900000E-01   1.00800           0   0.00000     -0.301140E-02
     22485 MEMB     182      OYPE     P        PL        1.50000       30.9740           0   0.00000     -0.301140E-02
     22486 MEMB     182      OYPE     O13      O2L     -0.780000       15.9994           0   0.00000     -0.301140E-02
     22487 MEMB     182      OYPE     O14      O2L     -0.780000       15.9994           0   0.00000     -0.301140E-02
     22488 MEMB     182      OYPE     O11      OSLP    -0.570000       15.9994           0   0.00000     -0.301140E-02
     22489 MEMB     182      OYPE     O12      OSLP    -0.570000       15.9994           0   0.00000     -0.301140E-02
     22490 MEMB     182      OYPE     C1       CTL2    -0.800000E-01   12.0110           0   0.00000     -0.301140E-02
     22491 MEMB     182      OYPE     HA       HAL2     0.900000E-01   1.00800           0   0.00000     -0.301140E-02
     22492 MEMB     182      OYPE     HB       HAL2     0.900000E-01   1.00800           0   0.00000     -0.301140E-02
     22493 MEMB     182      OYPE     C2       CTL1     0.170000       12.0110           0   0.00000     -0.301140E-02
     22494 MEMB     182      OYPE     HS       HAL1     0.900000E-01   1.00800           0   0.00000     -0.301140E-02
     22495 MEMB     182      OYPE     O21      OSL     -0.490000       15.9994           0   0.00000     -0.301140E-02
     22496 MEMB     182      OYPE     C21      CL       0.900000       12.0110           0   0.00000     -0.301140E-02
     22497 MEMB     182      OYPE     O22      OBL     -0.630000       15.9994           0   0.00000     -0.301140E-02
     22498 MEMB     182      OYPE     C22      CTL2    -0.220000       12.0110           0   0.00000     -0.301140E-02
     22499 MEMB     182      OYPE     H2R      HAL2     0.900000E-01   1.00800           0   0.00000     -0.301140E-02
     22500 MEMB     182      OYPE     H2S      HAL2     0.900000E-01   1.00800           0   0.00000     -0.301140E-02
     22501 MEMB     182      OYPE     C3       CTL2     0.800000E-01   12.0110           0   0.00000     -0.301140E-02
     22502 MEMB     182      OYPE     HX       HAL2     0.900000E-01   1.00800           0   0.00000     -0.301140E-02
     22503 MEMB     182      OYPE     HY       HAL2     0.900000E-01   1.00800           0   0.00000     -0.301140E-02
     22504 MEMB     182      OYPE     O31      OSL     -0.490000       15.9994           0   0.00000     -0.301140E-02
     22505 MEMB     182      OYPE     C31      CL       0.900000       12.0110           0   0.00000     -0.301140E-02
     22506 MEMB     182      OYPE     O32      OBL     -0.630000       15.9994           0   0.00000     -0.301140E-02
     22507 MEMB     182      OYPE     C32      CTL2    -0.220000       12.0110           0   0.00000     -0.301140E-02
     22508 MEMB     182      OYPE     H2X      HAL2     0.900000E-01   1.00800           0   0.00000     -0.301140E-02
     22509 MEMB     182      OYPE     H2Y      HAL2     0.900000E-01   1.00800           0   0.00000     -0.301140E-02
     22510 MEMB     182      OYPE     C23      CTL2    -0.180000       12.0110           0   0.00000     -0.301140E-02
     22511 MEMB     182      OYPE     H3R      HAL2     0.900000E-01   1.00800           0   0.00000     -0.301140E-02
     22512 MEMB     182      OYPE     H3S      HAL2     0.900000E-01   1.00800           0   0.00000     -0.301140E-02
     22513 MEMB     182      OYPE     C24      CTL2    -0.180000       12.0110           0   0.00000     -0.301140E-02
     22514 MEMB     182      OYPE     H4R      HAL2     0.900000E-01   1.00800           0   0.00000     -0.301140E-02
     22515 MEMB     182      OYPE     H4S      HAL2     0.900000E-01   1.00800           0   0.00000     -0.301140E-02
     22516 MEMB     182      OYPE     C25      CTL2    -0.180000       12.0110           0   0.00000     -0.301140E-02
     22517 MEMB     182      OYPE     H5R      HAL2     0.900000E-01   1.00800           0   0.00000     -0.301140E-02
     22518 MEMB     182      OYPE     H5S      HAL2     0.900000E-01   1.00800           0   0.00000     -0.301140E-02
     22519 MEMB     182      OYPE     C26      CTL2    -0.180000       12.0110           0   0.00000     -0.301140E-02
     22520 MEMB     182      OYPE     H6R      HAL2     0.900000E-01   1.00800           0   0.00000     -0.301140E-02
     22521 MEMB     182      OYPE     H6S      HAL2     0.900000E-01   1.00800           0   0.00000     -0.301140E-02
     22522 MEMB     182      OYPE     C27      CTL2    -0.180000       12.0110           0   0.00000     -0.301140E-02
     22523 MEMB     182      OYPE     H7R      HAL2     0.900000E-01   1.00800           0   0.00000     -0.301140E-02
     22524 MEMB     182      OYPE     H7S      HAL2     0.900000E-01   1.00800           0   0.00000     -0.301140E-02
     22525 MEMB     182      OYPE     C28      CTL2    -0.180000       12.0110           0   0.00000     -0.301140E-02
     22526 MEMB     182      OYPE     H8R      HAL2     0.900000E-01   1.00800           0   0.00000     -0.301140E-02
     22527 MEMB     182      OYPE     H8S      HAL2     0.900000E-01   1.00800           0   0.00000     -0.301140E-02
     22528 MEMB     182      OYPE     C29      CEL1    -0.150000       12.0110           0   0.00000     -0.301140E-02
     22529 MEMB     182      OYPE     H9R      HEL1     0.150000       1.00800           0   0.00000     -0.301140E-02
     22530 MEMB     182      OYPE     C210     CEL1    -0.150000       12.0110           0   0.00000     -0.301140E-02
     22531 MEMB     182      OYPE     H10R     HEL1     0.150000       1.00800           0   0.00000     -0.301140E-02
     22532 MEMB     182      OYPE     C211     CTL2    -0.180000       12.0110           0   0.00000     -0.301140E-02
     22533 MEMB     182      OYPE     H11R     HAL2     0.900000E-01   1.00800           0   0.00000     -0.301140E-02
     22534 MEMB     182      OYPE     H11S     HAL2     0.900000E-01   1.00800           0   0.00000     -0.301140E-02
     22535 MEMB     182      OYPE     C212     CTL2    -0.180000       12.0110           0   0.00000     -0.301140E-02
     22536 MEMB     182      OYPE     H12R     HAL2     0.900000E-01   1.00800           0   0.00000     -0.301140E-02
     22537 MEMB     182      OYPE     H12S     HAL2     0.900000E-01   1.00800           0   0.00000     -0.301140E-02
     22538 MEMB     182      OYPE     C213     CTL2    -0.180000       12.0110           0   0.00000     -0.301140E-02
     22539 MEMB     182      OYPE     H13R     HAL2     0.900000E-01   1.00800           0   0.00000     -0.301140E-02
     22540 MEMB     182      OYPE     H13S     HAL2     0.900000E-01   1.00800           0   0.00000     -0.301140E-02
     22541 MEMB     182      OYPE     C214     CTL2    -0.180000       12.0110           0   0.00000     -0.301140E-02
     22542 MEMB     182      OYPE     H14R     HAL2     0.900000E-01   1.00800           0   0.00000     -0.301140E-02
     22543 MEMB     182      OYPE     H14S     HAL2     0.900000E-01   1.00800           0   0.00000     -0.301140E-02
     22544 MEMB     182      OYPE     C215     CTL2    -0.180000       12.0110           0   0.00000     -0.301140E-02
     22545 MEMB     182      OYPE     H15R     HAL2     0.900000E-01   1.00800           0   0.00000     -0.301140E-02
     22546 MEMB     182      OYPE     H15S     HAL2     0.900000E-01   1.00800           0   0.00000     -0.301140E-02
     22547 MEMB     182      OYPE     C216     CTL3    -0.270000       12.0110           0   0.00000     -0.301140E-02
     22548 MEMB     182      OYPE     H16R     HAL3     0.900000E-01   1.00800           0   0.00000     -0.301140E-02
     22549 MEMB     182      OYPE     H16S     HAL3     0.900000E-01   1.00800           0   0.00000     -0.301140E-02
     22550 MEMB     182      OYPE     H16T     HAL3     0.900000E-01   1.00800           0   0.00000     -0.301140E-02
     22551 MEMB     182      OYPE     C33      CTL2    -0.180000       12.0110           0   0.00000     -0.301140E-02
     22552 MEMB     182      OYPE     H3X      HAL2     0.900000E-01   1.00800           0   0.00000     -0.301140E-02
     22553 MEMB     182      OYPE     H3Y      HAL2     0.900000E-01   1.00800           0   0.00000     -0.301140E-02
     22554 MEMB     182      OYPE     C34      CTL2    -0.180000       12.0110           0   0.00000     -0.301140E-02
     22555 MEMB     182      OYPE     H4X      HAL2     0.900000E-01   1.00800           0   0.00000     -0.301140E-02
     22556 MEMB     182      OYPE     H4Y      HAL2     0.900000E-01   1.00800           0   0.00000     -0.301140E-02
     22557 MEMB     182      OYPE     C35      CTL2    -0.180000       12.0110           0   0.00000     -0.301140E-02
     22558 MEMB     182      OYPE     H5X      HAL2     0.900000E-01   1.00800           0   0.00000     -0.301140E-02
     22559 MEMB     182      OYPE     H5Y      HAL2     0.900000E-01   1.00800           0   0.00000     -0.301140E-02
     22560 MEMB     182      OYPE     C36      CTL2    -0.180000       12.0110           0   0.00000     -0.301140E-02
     22561 MEMB     182      OYPE     H6X      HAL2     0.900000E-01   1.00800           0   0.00000     -0.301140E-02
     22562 MEMB     182      OYPE     H6Y      HAL2     0.900000E-01   1.00800           0   0.00000     -0.301140E-02
     22563 MEMB     182      OYPE     C37      CTL2    -0.180000       12.0110           0   0.00000     -0.301140E-02
     22564 MEMB     182      OYPE     H7X      HAL2     0.900000E-01   1.00800           0   0.00000     -0.301140E-02
     22565 MEMB     182      OYPE     H7Y      HAL2     0.900000E-01   1.00800           0   0.00000     -0.301140E-02
     22566 MEMB     182      OYPE     C38      CTL2    -0.180000       12.0110           0   0.00000     -0.301140E-02
     22567 MEMB     182      OYPE     H8X      HAL2     0.900000E-01   1.00800           0   0.00000     -0.301140E-02
     22568 MEMB     182      OYPE     H8Y      HAL2     0.900000E-01   1.00800           0   0.00000     -0.301140E-02
     22569 MEMB     182      OYPE     C39      CEL1    -0.150000       12.0110           0   0.00000     -0.301140E-02
     22570 MEMB     182      OYPE     H9X      HEL1     0.150000       1.00800           0   0.00000     -0.301140E-02
     22571 MEMB     182      OYPE     C310     CEL1    -0.150000       12.0110           0   0.00000     -0.301140E-02
     22572 MEMB     182      OYPE     H10X     HEL1     0.150000       1.00800           0   0.00000     -0.301140E-02
     22573 MEMB     182      OYPE     C311     CTL2    -0.180000       12.0110           0   0.00000     -0.301140E-02
     22574 MEMB     182      OYPE     H11X     HAL2     0.900000E-01   1.00800           0   0.00000     -0.301140E-02
     22575 MEMB     182      OYPE     H11Y     HAL2     0.900000E-01   1.00800           0   0.00000     -0.301140E-02
     22576 MEMB     182      OYPE     C312     CTL2    -0.180000       12.0110           0   0.00000     -0.301140E-02
     22577 MEMB     182      OYPE     H12X     HAL2     0.900000E-01   1.00800           0   0.00000     -0.301140E-02
     22578 MEMB     182      OYPE     H12Y     HAL2     0.900000E-01   1.00800           0   0.00000     -0.301140E-02
     22579 MEMB     182      OYPE     C313     CTL2    -0.180000       12.0110           0   0.00000     -0.301140E-02
     22580 MEMB     182      OYPE     H13X     HAL2     0.900000E-01   1.00800           0   0.00000     -0.301140E-02
     22581 MEMB     182      OYPE     H13Y     HAL2     0.900000E-01   1.00800           0   0.00000     -0.301140E-02
     22582 MEMB     182      OYPE     C314     CTL2    -0.180000       12.0110           0   0.00000     -0.301140E-02
     22583 MEMB     182      OYPE     H14X     HAL2     0.900000E-01   1.00800           0   0.00000     -0.301140E-02
     22584 MEMB     182      OYPE     H14Y     HAL2     0.900000E-01   1.00800           0   0.00000     -0.301140E-02
     22585 MEMB     182      OYPE     C315     CTL2    -0.180000       12.0110           0   0.00000     -0.301140E-02
     22586 MEMB     182      OYPE     H15X     HAL2     0.900000E-01   1.00800           0   0.00000     -0.301140E-02
     22587 MEMB     182      OYPE     H15Y     HAL2     0.900000E-01   1.00800           0   0.00000     -0.301140E-02
     22588 MEMB     182      OYPE     C316     CTL2    -0.180000       12.0110           0   0.00000     -0.301140E-02
     22589 MEMB     182      OYPE     H16X     HAL2     0.900000E-01   1.00800           0   0.00000     -0.301140E-02
     22590 MEMB     182      OYPE     H16Y     HAL2     0.900000E-01   1.00800           0   0.00000     -0.301140E-02
     22591 MEMB     182      OYPE     C317     CTL2    -0.180000       12.0110           0   0.00000     -0.301140E-02
     22592 MEMB     182      OYPE     H17X     HAL2     0.900000E-01   1.00800           0   0.00000     -0.301140E-02
     22593 MEMB     182      OYPE     H17Y     HAL2     0.900000E-01   1.00800           0   0.00000     -0.301140E-02
     22594 MEMB     182      OYPE     C318     CTL3    -0.270000       12.0110           0   0.00000     -0.301140E-02
     22595 MEMB     182      OYPE     H18X     HAL3     0.900000E-01   1.00800           0   0.00000     -0.301140E-02
     22596 MEMB     182      OYPE     H18Y     HAL3     0.900000E-01   1.00800           0   0.00000     -0.301140E-02
     22597 MEMB     182      OYPE     H18Z     HAL3     0.900000E-01   1.00800           0   0.00000     -0.301140E-02
     22598 MEMB     183      PMPE     N        NH3L    -0.300000       14.0070           0   0.00000     -0.301140E-02
     22599 MEMB     183      PMPE     HN1      HCL      0.330000       1.00800           0   0.00000     -0.301140E-02
     22600 MEMB     183      PMPE     HN2      HCL      0.330000       1.00800           0   0.00000     -0.301140E-02
     22601 MEMB     183      PMPE     HN3      HCL      0.330000       1.00800           0   0.00000     -0.301140E-02
     22602 MEMB     183      PMPE     C12      CTL2     0.130000       12.0110           0   0.00000     -0.301140E-02
     22603 MEMB     183      PMPE     H12A     HAL2     0.900000E-01   1.00800           0   0.00000     -0.301140E-02
     22604 MEMB     183      PMPE     H12B     HAL2     0.900000E-01   1.00800           0   0.00000     -0.301140E-02
     22605 MEMB     183      PMPE     C11      CTL2    -0.800000E-01   12.0110           0   0.00000     -0.301140E-02
     22606 MEMB     183      PMPE     H11A     HAL2     0.900000E-01   1.00800           0   0.00000     -0.301140E-02
     22607 MEMB     183      PMPE     H11B     HAL2     0.900000E-01   1.00800           0   0.00000     -0.301140E-02
     22608 MEMB     183      PMPE     P        PL        1.50000       30.9740           0   0.00000     -0.301140E-02
     22609 MEMB     183      PMPE     O13      O2L     -0.780000       15.9994           0   0.00000     -0.301140E-02
     22610 MEMB     183      PMPE     O14      O2L     -0.780000       15.9994           0   0.00000     -0.301140E-02
     22611 MEMB     183      PMPE     O11      OSLP    -0.570000       15.9994           0   0.00000     -0.301140E-02
     22612 MEMB     183      PMPE     O12      OSLP    -0.570000       15.9994           0   0.00000     -0.301140E-02
     22613 MEMB     183      PMPE     C1       CTL2    -0.800000E-01   12.0110           0   0.00000     -0.301140E-02
     22614 MEMB     183      PMPE     HA       HAL2     0.900000E-01   1.00800           0   0.00000     -0.301140E-02
     22615 MEMB     183      PMPE     HB       HAL2     0.900000E-01   1.00800           0   0.00000     -0.301140E-02
     22616 MEMB     183      PMPE     C2       CTL1     0.170000       12.0110           0   0.00000     -0.301140E-02
     22617 MEMB     183      PMPE     HS       HAL1     0.900000E-01   1.00800           0   0.00000     -0.301140E-02
     22618 MEMB     183      PMPE     O21      OSL     -0.490000       15.9994           0   0.00000     -0.301140E-02
     22619 MEMB     183      PMPE     C21      CL       0.900000       12.0110           0   0.00000     -0.301140E-02
     22620 MEMB     183      PMPE     O22      OBL     -0.630000       15.9994           0   0.00000     -0.301140E-02
     22621 MEMB     183      PMPE     C22      CTL2    -0.220000       12.0110           0   0.00000     -0.301140E-02
     22622 MEMB     183      PMPE     H2R      HAL2     0.900000E-01   1.00800           0   0.00000     -0.301140E-02
     22623 MEMB     183      PMPE     H2S      HAL2     0.900000E-01   1.00800           0   0.00000     -0.301140E-02
     22624 MEMB     183      PMPE     C3       CTL2     0.800000E-01   12.0110           0   0.00000     -0.301140E-02
     22625 MEMB     183      PMPE     HX       HAL2     0.900000E-01   1.00800           0   0.00000     -0.301140E-02
     22626 MEMB     183      PMPE     HY       HAL2     0.900000E-01   1.00800           0   0.00000     -0.301140E-02
     22627 MEMB     183      PMPE     O31      OSL     -0.490000       15.9994           0   0.00000     -0.301140E-02
     22628 MEMB     183      PMPE     C31      CL       0.900000       12.0110           0   0.00000     -0.301140E-02
     22629 MEMB     183      PMPE     O32      OBL     -0.630000       15.9994           0   0.00000     -0.301140E-02
     22630 MEMB     183      PMPE     C32      CTL2    -0.220000       12.0110           0   0.00000     -0.301140E-02
     22631 MEMB     183      PMPE     H2X      HAL2     0.900000E-01   1.00800           0   0.00000     -0.301140E-02
     22632 MEMB     183      PMPE     H2Y      HAL2     0.900000E-01   1.00800           0   0.00000     -0.301140E-02
     22633 MEMB     183      PMPE     C23      CTL2    -0.180000       12.0110           0   0.00000     -0.301140E-02
     22634 MEMB     183      PMPE     H3R      HAL2     0.900000E-01   1.00800           0   0.00000     -0.301140E-02
     22635 MEMB     183      PMPE     H3S      HAL2     0.900000E-01   1.00800           0   0.00000     -0.301140E-02
     22636 MEMB     183      PMPE     C24      CTL2    -0.180000       12.0110           0   0.00000     -0.301140E-02
     22637 MEMB     183      PMPE     H4R      HAL2     0.900000E-01   1.00800           0   0.00000     -0.301140E-02
     22638 MEMB     183      PMPE     H4S      HAL2     0.900000E-01   1.00800           0   0.00000     -0.301140E-02
     22639 MEMB     183      PMPE     C25      CTL2    -0.180000       12.0110           0   0.00000     -0.301140E-02
     22640 MEMB     183      PMPE     H5R      HAL2     0.900000E-01   1.00800           0   0.00000     -0.301140E-02
     22641 MEMB     183      PMPE     H5S      HAL2     0.900000E-01   1.00800           0   0.00000     -0.301140E-02
     22642 MEMB     183      PMPE     C26      CTL2    -0.180000       12.0110           0   0.00000     -0.301140E-02
     22643 MEMB     183      PMPE     H6R      HAL2     0.900000E-01   1.00800           0   0.00000     -0.301140E-02
     22644 MEMB     183      PMPE     H6S      HAL2     0.900000E-01   1.00800           0   0.00000     -0.301140E-02
     22645 MEMB     183      PMPE     C27      CTL2    -0.180000       12.0110           0   0.00000     -0.301140E-02
     22646 MEMB     183      PMPE     H7R      HAL2     0.900000E-01   1.00800           0   0.00000     -0.301140E-02
     22647 MEMB     183      PMPE     H7S      HAL2     0.900000E-01   1.00800           0   0.00000     -0.301140E-02
     22648 MEMB     183      PMPE     C28      CTL2    -0.180000       12.0110           0   0.00000     -0.301140E-02
     22649 MEMB     183      PMPE     H8R      HAL2     0.900000E-01   1.00800           0   0.00000     -0.301140E-02
     22650 MEMB     183      PMPE     H8S      HAL2     0.900000E-01   1.00800           0   0.00000     -0.301140E-02
     22651 MEMB     183      PMPE     C29      CG3RC1  -0.900000E-01   12.0110           0   0.00000     -0.301140E-02
     22652 MEMB     183      PMPE     H9R      HGA1     0.900000E-01   1.00800           0   0.00000     -0.301140E-02
     22653 MEMB     183      PMPE     C217     CG3C31  -0.180000       12.0110           0   0.00000     -0.301140E-02
     22654 MEMB     183      PMPE     H17R     HGA2     0.900000E-01   1.00800           0   0.00000     -0.301140E-02
     22655 MEMB     183      PMPE     H17S     HGA2     0.900000E-01   1.00800           0   0.00000     -0.301140E-02
     22656 MEMB     183      PMPE     C210     CG3RC1  -0.900000E-01   12.0110           0   0.00000     -0.301140E-02
     22657 MEMB     183      PMPE     H10R     HGA1     0.900000E-01   1.00800           0   0.00000     -0.301140E-02
     22658 MEMB     183      PMPE     C211     CTL2    -0.180000       12.0110           0   0.00000     -0.301140E-02
     22659 MEMB     183      PMPE     H11R     HAL2     0.900000E-01   1.00800           0   0.00000     -0.301140E-02
     22660 MEMB     183      PMPE     H11S     HAL2     0.900000E-01   1.00800           0   0.00000     -0.301140E-02
     22661 MEMB     183      PMPE     C212     CTL2    -0.180000       12.0110           0   0.00000     -0.301140E-02
     22662 MEMB     183      PMPE     H12R     HAL2     0.900000E-01   1.00800           0   0.00000     -0.301140E-02
     22663 MEMB     183      PMPE     H12S     HAL2     0.900000E-01   1.00800           0   0.00000     -0.301140E-02
     22664 MEMB     183      PMPE     C213     CTL2    -0.180000       12.0110           0   0.00000     -0.301140E-02
     22665 MEMB     183      PMPE     H13R     HAL2     0.900000E-01   1.00800           0   0.00000     -0.301140E-02
     22666 MEMB     183      PMPE     H13S     HAL2     0.900000E-01   1.00800           0   0.00000     -0.301140E-02
     22667 MEMB     183      PMPE     C214     CTL2    -0.180000       12.0110           0   0.00000     -0.301140E-02
     22668 MEMB     183      PMPE     H14R     HAL2     0.900000E-01   1.00800           0   0.00000     -0.301140E-02
     22669 MEMB     183      PMPE     H14S     HAL2     0.900000E-01   1.00800           0   0.00000     -0.301140E-02
     22670 MEMB     183      PMPE     C215     CTL2    -0.180000       12.0110           0   0.00000     -0.301140E-02
     22671 MEMB     183      PMPE     H15R     HAL2     0.900000E-01   1.00800           0   0.00000     -0.301140E-02
     22672 MEMB     183      PMPE     H15S     HAL2     0.900000E-01   1.00800           0   0.00000     -0.301140E-02
     22673 MEMB     183      PMPE     C216     CTL3    -0.270000       12.0110           0   0.00000     -0.301140E-02
     22674 MEMB     183      PMPE     H16R     HAL3     0.900000E-01   1.00800           0   0.00000     -0.301140E-02
     22675 MEMB     183      PMPE     H16S     HAL3     0.900000E-01   1.00800           0   0.00000     -0.301140E-02
     22676 MEMB     183      PMPE     H16T     HAL3     0.900000E-01   1.00800           0   0.00000     -0.301140E-02
     22677 MEMB     183      PMPE     C33      CTL2    -0.180000       12.0110           0   0.00000     -0.301140E-02
     22678 MEMB     183      PMPE     H3X      HAL2     0.900000E-01   1.00800           0   0.00000     -0.301140E-02
     22679 MEMB     183      PMPE     H3Y      HAL2     0.900000E-01   1.00800           0   0.00000     -0.301140E-02
     22680 MEMB     183      PMPE     C34      CTL2    -0.180000       12.0110           0   0.00000     -0.301140E-02
     22681 MEMB     183      PMPE     H4X      HAL2     0.900000E-01   1.00800           0   0.00000     -0.301140E-02
     22682 MEMB     183      PMPE     H4Y      HAL2     0.900000E-01   1.00800           0   0.00000     -0.301140E-02
     22683 MEMB     183      PMPE     C35      CTL2    -0.180000       12.0110           0   0.00000     -0.301140E-02
     22684 MEMB     183      PMPE     H5X      HAL2     0.900000E-01   1.00800           0   0.00000     -0.301140E-02
     22685 MEMB     183      PMPE     H5Y      HAL2     0.900000E-01   1.00800           0   0.00000     -0.301140E-02
     22686 MEMB     183      PMPE     C36      CTL2    -0.180000       12.0110           0   0.00000     -0.301140E-02
     22687 MEMB     183      PMPE     H6X      HAL2     0.900000E-01   1.00800           0   0.00000     -0.301140E-02
     22688 MEMB     183      PMPE     H6Y      HAL2     0.900000E-01   1.00800           0   0.00000     -0.301140E-02
     22689 MEMB     183      PMPE     C37      CTL2    -0.180000       12.0110           0   0.00000     -0.301140E-02
     22690 MEMB     183      PMPE     H7X      HAL2     0.900000E-01   1.00800           0   0.00000     -0.301140E-02
     22691 MEMB     183      PMPE     H7Y      HAL2     0.900000E-01   1.00800           0   0.00000     -0.301140E-02
     22692 MEMB     183      PMPE     C38      CTL2    -0.180000       12.0110           0   0.00000     -0.301140E-02
     22693 MEMB     183      PMPE     H8X      HAL2     0.900000E-01   1.00800           0   0.00000     -0.301140E-02
     22694 MEMB     183      PMPE     H8Y      HAL2     0.900000E-01   1.00800           0   0.00000     -0.301140E-02
     22695 MEMB     183      PMPE     C39      CTL2    -0.180000       12.0110           0   0.00000     -0.301140E-02
     22696 MEMB     183      PMPE     H9X      HAL2     0.900000E-01   1.00800           0   0.00000     -0.301140E-02
     22697 MEMB     183      PMPE     H9Y      HAL2     0.900000E-01   1.00800           0   0.00000     -0.301140E-02
     22698 MEMB     183      PMPE     C310     CTL2    -0.180000       12.0110           0   0.00000     -0.301140E-02
     22699 MEMB     183      PMPE     H10X     HAL2     0.900000E-01   1.00800           0   0.00000     -0.301140E-02
     22700 MEMB     183      PMPE     H10Y     HAL2     0.900000E-01   1.00800           0   0.00000     -0.301140E-02
     22701 MEMB     183      PMPE     C311     CTL2    -0.180000       12.0110           0   0.00000     -0.301140E-02
     22702 MEMB     183      PMPE     H11X     HAL2     0.900000E-01   1.00800           0   0.00000     -0.301140E-02
     22703 MEMB     183      PMPE     H11Y     HAL2     0.900000E-01   1.00800           0   0.00000     -0.301140E-02
     22704 MEMB     183      PMPE     C312     CTL2    -0.180000       12.0110           0   0.00000     -0.301140E-02
     22705 MEMB     183      PMPE     H12X     HAL2     0.900000E-01   1.00800           0   0.00000     -0.301140E-02
     22706 MEMB     183      PMPE     H12Y     HAL2     0.900000E-01   1.00800           0   0.00000     -0.301140E-02
     22707 MEMB     183      PMPE     C313     CTL2    -0.180000       12.0110           0   0.00000     -0.301140E-02
     22708 MEMB     183      PMPE     H13X     HAL2     0.900000E-01   1.00800           0   0.00000     -0.301140E-02
     22709 MEMB     183      PMPE     H13Y     HAL2     0.900000E-01   1.00800           0   0.00000     -0.301140E-02
     22710 MEMB     183      PMPE     C314     CTL2    -0.180000       12.0110           0   0.00000     -0.301140E-02
     22711 MEMB     183      PMPE     H14X     HAL2     0.900000E-01   1.00800           0   0.00000     -0.301140E-02
     22712 MEMB     183      PMPE     H14Y     HAL2     0.900000E-01   1.00800           0   0.00000     -0.301140E-02
     22713 MEMB     183      PMPE     C315     CTL2    -0.180000       12.0110           0   0.00000     -0.301140E-02
     22714 MEMB     183      PMPE     H15X     HAL2     0.900000E-01   1.00800           0   0.00000     -0.301140E-02
     22715 MEMB     183      PMPE     H15Y     HAL2     0.900000E-01   1.00800           0   0.00000     -0.301140E-02
     22716 MEMB     183      PMPE     C316     CTL3    -0.270000       12.0110           0   0.00000     -0.301140E-02
     22717 MEMB     183      PMPE     H16X     HAL3     0.900000E-01   1.00800           0   0.00000     -0.301140E-02
     22718 MEMB     183      PMPE     H16Y     HAL3     0.900000E-01   1.00800           0   0.00000     -0.301140E-02
     22719 MEMB     183      PMPE     H16Z     HAL3     0.900000E-01   1.00800           0   0.00000     -0.301140E-02
     22720 MEMB     184      QMPE     N        NH3L    -0.300000       14.0070           0   0.00000     -0.301140E-02
     22721 MEMB     184      QMPE     HN1      HCL      0.330000       1.00800           0   0.00000     -0.301140E-02
     22722 MEMB     184      QMPE     HN2      HCL      0.330000       1.00800           0   0.00000     -0.301140E-02
     22723 MEMB     184      QMPE     HN3      HCL      0.330000       1.00800           0   0.00000     -0.301140E-02
     22724 MEMB     184      QMPE     C12      CTL2     0.130000       12.0110           0   0.00000     -0.301140E-02
     22725 MEMB     184      QMPE     H12A     HAL2     0.900000E-01   1.00800           0   0.00000     -0.301140E-02
     22726 MEMB     184      QMPE     H12B     HAL2     0.900000E-01   1.00800           0   0.00000     -0.301140E-02
     22727 MEMB     184      QMPE     C11      CTL2    -0.800000E-01   12.0110           0   0.00000     -0.301140E-02
     22728 MEMB     184      QMPE     H11A     HAL2     0.900000E-01   1.00800           0   0.00000     -0.301140E-02
     22729 MEMB     184      QMPE     H11B     HAL2     0.900000E-01   1.00800           0   0.00000     -0.301140E-02
     22730 MEMB     184      QMPE     P        PL        1.50000       30.9740           0   0.00000     -0.301140E-02
     22731 MEMB     184      QMPE     O13      O2L     -0.780000       15.9994           0   0.00000     -0.301140E-02
     22732 MEMB     184      QMPE     O14      O2L     -0.780000       15.9994           0   0.00000     -0.301140E-02
     22733 MEMB     184      QMPE     O11      OSLP    -0.570000       15.9994           0   0.00000     -0.301140E-02
     22734 MEMB     184      QMPE     O12      OSLP    -0.570000       15.9994           0   0.00000     -0.301140E-02
     22735 MEMB     184      QMPE     C1       CTL2    -0.800000E-01   12.0110           0   0.00000     -0.301140E-02
     22736 MEMB     184      QMPE     HA       HAL2     0.900000E-01   1.00800           0   0.00000     -0.301140E-02
     22737 MEMB     184      QMPE     HB       HAL2     0.900000E-01   1.00800           0   0.00000     -0.301140E-02
     22738 MEMB     184      QMPE     C2       CTL1     0.170000       12.0110           0   0.00000     -0.301140E-02
     22739 MEMB     184      QMPE     HS       HAL1     0.900000E-01   1.00800           0   0.00000     -0.301140E-02
     22740 MEMB     184      QMPE     O21      OSL     -0.490000       15.9994           0   0.00000     -0.301140E-02
     22741 MEMB     184      QMPE     C21      CL       0.900000       12.0110           0   0.00000     -0.301140E-02
     22742 MEMB     184      QMPE     O22      OBL     -0.630000       15.9994           0   0.00000     -0.301140E-02
     22743 MEMB     184      QMPE     C22      CTL2    -0.220000       12.0110           0   0.00000     -0.301140E-02
     22744 MEMB     184      QMPE     H2R      HAL2     0.900000E-01   1.00800           0   0.00000     -0.301140E-02
     22745 MEMB     184      QMPE     H2S      HAL2     0.900000E-01   1.00800           0   0.00000     -0.301140E-02
     22746 MEMB     184      QMPE     C3       CTL2     0.800000E-01   12.0110           0   0.00000     -0.301140E-02
     22747 MEMB     184      QMPE     HX       HAL2     0.900000E-01   1.00800           0   0.00000     -0.301140E-02
     22748 MEMB     184      QMPE     HY       HAL2     0.900000E-01   1.00800           0   0.00000     -0.301140E-02
     22749 MEMB     184      QMPE     O31      OSL     -0.490000       15.9994           0   0.00000     -0.301140E-02
     22750 MEMB     184      QMPE     C31      CL       0.900000       12.0110           0   0.00000     -0.301140E-02
     22751 MEMB     184      QMPE     O32      OBL     -0.630000       15.9994           0   0.00000     -0.301140E-02
     22752 MEMB     184      QMPE     C32      CTL2    -0.220000       12.0110           0   0.00000     -0.301140E-02
     22753 MEMB     184      QMPE     H2X      HAL2     0.900000E-01   1.00800           0   0.00000     -0.301140E-02
     22754 MEMB     184      QMPE     H2Y      HAL2     0.900000E-01   1.00800           0   0.00000     -0.301140E-02
     22755 MEMB     184      QMPE     C23      CTL2    -0.180000       12.0110           0   0.00000     -0.301140E-02
     22756 MEMB     184      QMPE     H3R      HAL2     0.900000E-01   1.00800           0   0.00000     -0.301140E-02
     22757 MEMB     184      QMPE     H3S      HAL2     0.900000E-01   1.00800           0   0.00000     -0.301140E-02
     22758 MEMB     184      QMPE     C24      CTL2    -0.180000       12.0110           0   0.00000     -0.301140E-02
     22759 MEMB     184      QMPE     H4R      HAL2     0.900000E-01   1.00800           0   0.00000     -0.301140E-02
     22760 MEMB     184      QMPE     H4S      HAL2     0.900000E-01   1.00800           0   0.00000     -0.301140E-02
     22761 MEMB     184      QMPE     C25      CTL2    -0.180000       12.0110           0   0.00000     -0.301140E-02
     22762 MEMB     184      QMPE     H5R      HAL2     0.900000E-01   1.00800           0   0.00000     -0.301140E-02
     22763 MEMB     184      QMPE     H5S      HAL2     0.900000E-01   1.00800           0   0.00000     -0.301140E-02
     22764 MEMB     184      QMPE     C26      CTL2    -0.180000       12.0110           0   0.00000     -0.301140E-02
     22765 MEMB     184      QMPE     H6R      HAL2     0.900000E-01   1.00800           0   0.00000     -0.301140E-02
     22766 MEMB     184      QMPE     H6S      HAL2     0.900000E-01   1.00800           0   0.00000     -0.301140E-02
     22767 MEMB     184      QMPE     C27      CTL2    -0.180000       12.0110           0   0.00000     -0.301140E-02
     22768 MEMB     184      QMPE     H7R      HAL2     0.900000E-01   1.00800           0   0.00000     -0.301140E-02
     22769 MEMB     184      QMPE     H7S      HAL2     0.900000E-01   1.00800           0   0.00000     -0.301140E-02
     22770 MEMB     184      QMPE     C28      CTL2    -0.180000       12.0110           0   0.00000     -0.301140E-02
     22771 MEMB     184      QMPE     H8R      HAL2     0.900000E-01   1.00800           0   0.00000     -0.301140E-02
     22772 MEMB     184      QMPE     H8S      HAL2     0.900000E-01   1.00800           0   0.00000     -0.301140E-02
     22773 MEMB     184      QMPE     C29      CG3RC1  -0.900000E-01   12.0110           0   0.00000     -0.301140E-02
     22774 MEMB     184      QMPE     H9R      HGA1     0.900000E-01   1.00800           0   0.00000     -0.301140E-02
     22775 MEMB     184      QMPE     C217     CG3C31  -0.180000       12.0110           0   0.00000     -0.301140E-02
     22776 MEMB     184      QMPE     H17R     HGA2     0.900000E-01   1.00800           0   0.00000     -0.301140E-02
     22777 MEMB     184      QMPE     H17S     HGA2     0.900000E-01   1.00800           0   0.00000     -0.301140E-02
     22778 MEMB     184      QMPE     C210     CG3RC1  -0.900000E-01   12.0110           0   0.00000     -0.301140E-02
     22779 MEMB     184      QMPE     H10R     HGA1     0.900000E-01   1.00800           0   0.00000     -0.301140E-02
     22780 MEMB     184      QMPE     C211     CTL2    -0.180000       12.0110           0   0.00000     -0.301140E-02
     22781 MEMB     184      QMPE     H11R     HAL2     0.900000E-01   1.00800           0   0.00000     -0.301140E-02
     22782 MEMB     184      QMPE     H11S     HAL2     0.900000E-01   1.00800           0   0.00000     -0.301140E-02
     22783 MEMB     184      QMPE     C212     CTL2    -0.180000       12.0110           0   0.00000     -0.301140E-02
     22784 MEMB     184      QMPE     H12R     HAL2     0.900000E-01   1.00800           0   0.00000     -0.301140E-02
     22785 MEMB     184      QMPE     H12S     HAL2     0.900000E-01   1.00800           0   0.00000     -0.301140E-02
     22786 MEMB     184      QMPE     C213     CTL2    -0.180000       12.0110           0   0.00000     -0.301140E-02
     22787 MEMB     184      QMPE     H13R     HAL2     0.900000E-01   1.00800           0   0.00000     -0.301140E-02
     22788 MEMB     184      QMPE     H13S     HAL2     0.900000E-01   1.00800           0   0.00000     -0.301140E-02
     22789 MEMB     184      QMPE     C214     CTL2    -0.180000       12.0110           0   0.00000     -0.301140E-02
     22790 MEMB     184      QMPE     H14R     HAL2     0.900000E-01   1.00800           0   0.00000     -0.301140E-02
     22791 MEMB     184      QMPE     H14S     HAL2     0.900000E-01   1.00800           0   0.00000     -0.301140E-02
     22792 MEMB     184      QMPE     C215     CTL2    -0.180000       12.0110           0   0.00000     -0.301140E-02
     22793 MEMB     184      QMPE     H15R     HAL2     0.900000E-01   1.00800           0   0.00000     -0.301140E-02
     22794 MEMB     184      QMPE     H15S     HAL2     0.900000E-01   1.00800           0   0.00000     -0.301140E-02
     22795 MEMB     184      QMPE     C216     CTL3    -0.270000       12.0110           0   0.00000     -0.301140E-02
     22796 MEMB     184      QMPE     H16R     HAL3     0.900000E-01   1.00800           0   0.00000     -0.301140E-02
     22797 MEMB     184      QMPE     H16S     HAL3     0.900000E-01   1.00800           0   0.00000     -0.301140E-02
     22798 MEMB     184      QMPE     H16T     HAL3     0.900000E-01   1.00800           0   0.00000     -0.301140E-02
     22799 MEMB     184      QMPE     C33      CTL2    -0.180000       12.0110           0   0.00000     -0.301140E-02
     22800 MEMB     184      QMPE     H3X      HAL2     0.900000E-01   1.00800           0   0.00000     -0.301140E-02
     22801 MEMB     184      QMPE     H3Y      HAL2     0.900000E-01   1.00800           0   0.00000     -0.301140E-02
     22802 MEMB     184      QMPE     C34      CTL2    -0.180000       12.0110           0   0.00000     -0.301140E-02
     22803 MEMB     184      QMPE     H4X      HAL2     0.900000E-01   1.00800           0   0.00000     -0.301140E-02
     22804 MEMB     184      QMPE     H4Y      HAL2     0.900000E-01   1.00800           0   0.00000     -0.301140E-02
     22805 MEMB     184      QMPE     C35      CTL2    -0.180000       12.0110           0   0.00000     -0.301140E-02
     22806 MEMB     184      QMPE     H5X      HAL2     0.900000E-01   1.00800           0   0.00000     -0.301140E-02
     22807 MEMB     184      QMPE     H5Y      HAL2     0.900000E-01   1.00800           0   0.00000     -0.301140E-02
     22808 MEMB     184      QMPE     C36      CTL2    -0.180000       12.0110           0   0.00000     -0.301140E-02
     22809 MEMB     184      QMPE     H6X      HAL2     0.900000E-01   1.00800           0   0.00000     -0.301140E-02
     22810 MEMB     184      QMPE     H6Y      HAL2     0.900000E-01   1.00800           0   0.00000     -0.301140E-02
     22811 MEMB     184      QMPE     C37      CTL2    -0.180000       12.0110           0   0.00000     -0.301140E-02
     22812 MEMB     184      QMPE     H7X      HAL2     0.900000E-01   1.00800           0   0.00000     -0.301140E-02
     22813 MEMB     184      QMPE     H7Y      HAL2     0.900000E-01   1.00800           0   0.00000     -0.301140E-02
     22814 MEMB     184      QMPE     C38      CTL2    -0.180000       12.0110           0   0.00000     -0.301140E-02
     22815 MEMB     184      QMPE     H8X      HAL2     0.900000E-01   1.00800           0   0.00000     -0.301140E-02
     22816 MEMB     184      QMPE     H8Y      HAL2     0.900000E-01   1.00800           0   0.00000     -0.301140E-02
     22817 MEMB     184      QMPE     C39      CTL2    -0.180000       12.0110           0   0.00000     -0.301140E-02
     22818 MEMB     184      QMPE     H9X      HAL2     0.900000E-01   1.00800           0   0.00000     -0.301140E-02
     22819 MEMB     184      QMPE     H9Y      HAL2     0.900000E-01   1.00800           0   0.00000     -0.301140E-02
     22820 MEMB     184      QMPE     C310     CTL2    -0.180000       12.0110           0   0.00000     -0.301140E-02
     22821 MEMB     184      QMPE     H10X     HAL2     0.900000E-01   1.00800           0   0.00000     -0.301140E-02
     22822 MEMB     184      QMPE     H10Y     HAL2     0.900000E-01   1.00800           0   0.00000     -0.301140E-02
     22823 MEMB     184      QMPE     C311     CTL2    -0.180000       12.0110           0   0.00000     -0.301140E-02
     22824 MEMB     184      QMPE     H11X     HAL2     0.900000E-01   1.00800           0   0.00000     -0.301140E-02
     22825 MEMB     184      QMPE     H11Y     HAL2     0.900000E-01   1.00800           0   0.00000     -0.301140E-02
     22826 MEMB     184      QMPE     C312     CTL2    -0.180000       12.0110           0   0.00000     -0.301140E-02
     22827 MEMB     184      QMPE     H12X     HAL2     0.900000E-01   1.00800           0   0.00000     -0.301140E-02
     22828 MEMB     184      QMPE     H12Y     HAL2     0.900000E-01   1.00800           0   0.00000     -0.301140E-02
     22829 MEMB     184      QMPE     C313     CTL2    -0.180000       12.0110           0   0.00000     -0.301140E-02
     22830 MEMB     184      QMPE     H13X     HAL2     0.900000E-01   1.00800           0   0.00000     -0.301140E-02
     22831 MEMB     184      QMPE     H13Y     HAL2     0.900000E-01   1.00800           0   0.00000     -0.301140E-02
     22832 MEMB     184      QMPE     C314     CTL2    -0.180000       12.0110           0   0.00000     -0.301140E-02
     22833 MEMB     184      QMPE     H14X     HAL2     0.900000E-01   1.00800           0   0.00000     -0.301140E-02
     22834 MEMB     184      QMPE     H14Y     HAL2     0.900000E-01   1.00800           0   0.00000     -0.301140E-02
     22835 MEMB     184      QMPE     C315     CTL3    -0.270000       12.0110           0   0.00000     -0.301140E-02
     22836 MEMB     184      QMPE     H15X     HAL3     0.900000E-01   1.00800           0   0.00000     -0.301140E-02
     22837 MEMB     184      QMPE     H15Y     HAL3     0.900000E-01   1.00800           0   0.00000     -0.301140E-02
     22838 MEMB     184      QMPE     H15Z     HAL3     0.900000E-01   1.00800           0   0.00000     -0.301140E-02
     22839 MEMB     185      PMPG     C13      CTL2     0.500000E-01   12.0110           0   0.00000     -0.301140E-02
     22840 MEMB     185      PMPG     H13A     HAL2     0.900000E-01   1.00800           0   0.00000     -0.301140E-02
     22841 MEMB     185      PMPG     H13B     HAL2     0.900000E-01   1.00800           0   0.00000     -0.301140E-02
     22842 MEMB     185      PMPG     OC3      OHL     -0.660000       15.9994           0   0.00000     -0.301140E-02
     22843 MEMB     185      PMPG     HO3      HOL      0.430000       1.00800           0   0.00000     -0.301140E-02
     22844 MEMB     185      PMPG     C12      CTL1     0.140000       12.0110           0   0.00000     -0.301140E-02
     22845 MEMB     185      PMPG     H12A     HAL1     0.900000E-01   1.00800           0   0.00000     -0.301140E-02
     22846 MEMB     185      PMPG     OC2      OHL     -0.660000       15.9994           0   0.00000     -0.301140E-02
     22847 MEMB     185      PMPG     HO2      HOL      0.430000       1.00800           0   0.00000     -0.301140E-02
     22848 MEMB     185      PMPG     C11      CTL2    -0.800000E-01   12.0110           0   0.00000     -0.301140E-02
     22849 MEMB     185      PMPG     H11A     HAL2     0.900000E-01   1.00800           0   0.00000     -0.301140E-02
     22850 MEMB     185      PMPG     H11B     HAL2     0.900000E-01   1.00800           0   0.00000     -0.301140E-02
     22851 MEMB     185      PMPG     P        PL        1.50000       30.9740           0   0.00000     -0.301140E-02
     22852 MEMB     185      PMPG     O13      O2L     -0.780000       15.9994           0   0.00000     -0.301140E-02
     22853 MEMB     185      PMPG     O14      O2L     -0.780000       15.9994           0   0.00000     -0.301140E-02
     22854 MEMB     185      PMPG     O11      OSLP    -0.570000       15.9994           0   0.00000     -0.301140E-02
     22855 MEMB     185      PMPG     O12      OSLP    -0.570000       15.9994           0   0.00000     -0.301140E-02
     22856 MEMB     185      PMPG     C1       CTL2    -0.800000E-01   12.0110           0   0.00000     -0.301140E-02
     22857 MEMB     185      PMPG     HA       HAL2     0.900000E-01   1.00800           0   0.00000     -0.301140E-02
     22858 MEMB     185      PMPG     HB       HAL2     0.900000E-01   1.00800           0   0.00000     -0.301140E-02
     22859 MEMB     185      PMPG     C2       CTL1     0.170000       12.0110           0   0.00000     -0.301140E-02
     22860 MEMB     185      PMPG     HS       HAL1     0.900000E-01   1.00800           0   0.00000     -0.301140E-02
     22861 MEMB     185      PMPG     O21      OSL     -0.490000       15.9994           0   0.00000     -0.301140E-02
     22862 MEMB     185      PMPG     C21      CL       0.900000       12.0110           0   0.00000     -0.301140E-02
     22863 MEMB     185      PMPG     O22      OBL     -0.630000       15.9994           0   0.00000     -0.301140E-02
     22864 MEMB     185      PMPG     C22      CTL2    -0.220000       12.0110           0   0.00000     -0.301140E-02
     22865 MEMB     185      PMPG     H2R      HAL2     0.900000E-01   1.00800           0   0.00000     -0.301140E-02
     22866 MEMB     185      PMPG     H2S      HAL2     0.900000E-01   1.00800           0   0.00000     -0.301140E-02
     22867 MEMB     185      PMPG     C3       CTL2     0.800000E-01   12.0110           0   0.00000     -0.301140E-02
     22868 MEMB     185      PMPG     HX       HAL2     0.900000E-01   1.00800           0   0.00000     -0.301140E-02
     22869 MEMB     185      PMPG     HY       HAL2     0.900000E-01   1.00800           0   0.00000     -0.301140E-02
     22870 MEMB     185      PMPG     O31      OSL     -0.490000       15.9994           0   0.00000     -0.301140E-02
     22871 MEMB     185      PMPG     C31      CL       0.900000       12.0110           0   0.00000     -0.301140E-02
     22872 MEMB     185      PMPG     O32      OBL     -0.630000       15.9994           0   0.00000     -0.301140E-02
     22873 MEMB     185      PMPG     C32      CTL2    -0.220000       12.0110           0   0.00000     -0.301140E-02
     22874 MEMB     185      PMPG     H2X      HAL2     0.900000E-01   1.00800           0   0.00000     -0.301140E-02
     22875 MEMB     185      PMPG     H2Y      HAL2     0.900000E-01   1.00800           0   0.00000     -0.301140E-02
     22876 MEMB     185      PMPG     C23      CTL2    -0.180000       12.0110           0   0.00000     -0.301140E-02
     22877 MEMB     185      PMPG     H3R      HAL2     0.900000E-01   1.00800           0   0.00000     -0.301140E-02
     22878 MEMB     185      PMPG     H3S      HAL2     0.900000E-01   1.00800           0   0.00000     -0.301140E-02
     22879 MEMB     185      PMPG     C24      CTL2    -0.180000       12.0110           0   0.00000     -0.301140E-02
     22880 MEMB     185      PMPG     H4R      HAL2     0.900000E-01   1.00800           0   0.00000     -0.301140E-02
     22881 MEMB     185      PMPG     H4S      HAL2     0.900000E-01   1.00800           0   0.00000     -0.301140E-02
     22882 MEMB     185      PMPG     C25      CTL2    -0.180000       12.0110           0   0.00000     -0.301140E-02
     22883 MEMB     185      PMPG     H5R      HAL2     0.900000E-01   1.00800           0   0.00000     -0.301140E-02
     22884 MEMB     185      PMPG     H5S      HAL2     0.900000E-01   1.00800           0   0.00000     -0.301140E-02
     22885 MEMB     185      PMPG     C26      CTL2    -0.180000       12.0110           0   0.00000     -0.301140E-02
     22886 MEMB     185      PMPG     H6R      HAL2     0.900000E-01   1.00800           0   0.00000     -0.301140E-02
     22887 MEMB     185      PMPG     H6S      HAL2     0.900000E-01   1.00800           0   0.00000     -0.301140E-02
     22888 MEMB     185      PMPG     C27      CTL2    -0.180000       12.0110           0   0.00000     -0.301140E-02
     22889 MEMB     185      PMPG     H7R      HAL2     0.900000E-01   1.00800           0   0.00000     -0.301140E-02
     22890 MEMB     185      PMPG     H7S      HAL2     0.900000E-01   1.00800           0   0.00000     -0.301140E-02
     22891 MEMB     185      PMPG     C28      CTL2    -0.180000       12.0110           0   0.00000     -0.301140E-02
     22892 MEMB     185      PMPG     H8R      HAL2     0.900000E-01   1.00800           0   0.00000     -0.301140E-02
     22893 MEMB     185      PMPG     H8S      HAL2     0.900000E-01   1.00800           0   0.00000     -0.301140E-02
     22894 MEMB     185      PMPG     C29      CG3RC1  -0.900000E-01   12.0110           0   0.00000     -0.301140E-02
     22895 MEMB     185      PMPG     H9R      HGA1     0.900000E-01   1.00800           0   0.00000     -0.301140E-02
     22896 MEMB     185      PMPG     C217     CG3C31  -0.180000       12.0110           0   0.00000     -0.301140E-02
     22897 MEMB     185      PMPG     H17R     HGA2     0.900000E-01   1.00800           0   0.00000     -0.301140E-02
     22898 MEMB     185      PMPG     H17S     HGA2     0.900000E-01   1.00800           0   0.00000     -0.301140E-02
     22899 MEMB     185      PMPG     C210     CG3RC1  -0.900000E-01   12.0110           0   0.00000     -0.301140E-02
     22900 MEMB     185      PMPG     H10R     HGA1     0.900000E-01   1.00800           0   0.00000     -0.301140E-02
     22901 MEMB     185      PMPG     C211     CTL2    -0.180000       12.0110           0   0.00000     -0.301140E-02
     22902 MEMB     185      PMPG     H11R     HAL2     0.900000E-01   1.00800           0   0.00000     -0.301140E-02
     22903 MEMB     185      PMPG     H11S     HAL2     0.900000E-01   1.00800           0   0.00000     -0.301140E-02
     22904 MEMB     185      PMPG     C212     CTL2    -0.180000       12.0110           0   0.00000     -0.301140E-02
     22905 MEMB     185      PMPG     H12R     HAL2     0.900000E-01   1.00800           0   0.00000     -0.301140E-02
     22906 MEMB     185      PMPG     H12S     HAL2     0.900000E-01   1.00800           0   0.00000     -0.301140E-02
     22907 MEMB     185      PMPG     C213     CTL2    -0.180000       12.0110           0   0.00000     -0.301140E-02
     22908 MEMB     185      PMPG     H13R     HAL2     0.900000E-01   1.00800           0   0.00000     -0.301140E-02
     22909 MEMB     185      PMPG     H13S     HAL2     0.900000E-01   1.00800           0   0.00000     -0.301140E-02
     22910 MEMB     185      PMPG     C214     CTL2    -0.180000       12.0110           0   0.00000     -0.301140E-02
     22911 MEMB     185      PMPG     H14R     HAL2     0.900000E-01   1.00800           0   0.00000     -0.301140E-02
     22912 MEMB     185      PMPG     H14S     HAL2     0.900000E-01   1.00800           0   0.00000     -0.301140E-02
     22913 MEMB     185      PMPG     C215     CTL2    -0.180000       12.0110           0   0.00000     -0.301140E-02
     22914 MEMB     185      PMPG     H15R     HAL2     0.900000E-01   1.00800           0   0.00000     -0.301140E-02
     22915 MEMB     185      PMPG     H15S     HAL2     0.900000E-01   1.00800           0   0.00000     -0.301140E-02
     22916 MEMB     185      PMPG     C216     CTL3    -0.270000       12.0110           0   0.00000     -0.301140E-02
     22917 MEMB     185      PMPG     H16R     HAL3     0.900000E-01   1.00800           0   0.00000     -0.301140E-02
     22918 MEMB     185      PMPG     H16S     HAL3     0.900000E-01   1.00800           0   0.00000     -0.301140E-02
     22919 MEMB     185      PMPG     H16T     HAL3     0.900000E-01   1.00800           0   0.00000     -0.301140E-02
     22920 MEMB     185      PMPG     C33      CTL2    -0.180000       12.0110           0   0.00000     -0.301140E-02
     22921 MEMB     185      PMPG     H3X      HAL2     0.900000E-01   1.00800           0   0.00000     -0.301140E-02
     22922 MEMB     185      PMPG     H3Y      HAL2     0.900000E-01   1.00800           0   0.00000     -0.301140E-02
     22923 MEMB     185      PMPG     C34      CTL2    -0.180000       12.0110           0   0.00000     -0.301140E-02
     22924 MEMB     185      PMPG     H4X      HAL2     0.900000E-01   1.00800           0   0.00000     -0.301140E-02
     22925 MEMB     185      PMPG     H4Y      HAL2     0.900000E-01   1.00800           0   0.00000     -0.301140E-02
     22926 MEMB     185      PMPG     C35      CTL2    -0.180000       12.0110           0   0.00000     -0.301140E-02
     22927 MEMB     185      PMPG     H5X      HAL2     0.900000E-01   1.00800           0   0.00000     -0.301140E-02
     22928 MEMB     185      PMPG     H5Y      HAL2     0.900000E-01   1.00800           0   0.00000     -0.301140E-02
     22929 MEMB     185      PMPG     C36      CTL2    -0.180000       12.0110           0   0.00000     -0.301140E-02
     22930 MEMB     185      PMPG     H6X      HAL2     0.900000E-01   1.00800           0   0.00000     -0.301140E-02
     22931 MEMB     185      PMPG     H6Y      HAL2     0.900000E-01   1.00800           0   0.00000     -0.301140E-02
     22932 MEMB     185      PMPG     C37      CTL2    -0.180000       12.0110           0   0.00000     -0.301140E-02
     22933 MEMB     185      PMPG     H7X      HAL2     0.900000E-01   1.00800           0   0.00000     -0.301140E-02
     22934 MEMB     185      PMPG     H7Y      HAL2     0.900000E-01   1.00800           0   0.00000     -0.301140E-02
     22935 MEMB     185      PMPG     C38      CTL2    -0.180000       12.0110           0   0.00000     -0.301140E-02
     22936 MEMB     185      PMPG     H8X      HAL2     0.900000E-01   1.00800           0   0.00000     -0.301140E-02
     22937 MEMB     185      PMPG     H8Y      HAL2     0.900000E-01   1.00800           0   0.00000     -0.301140E-02
     22938 MEMB     185      PMPG     C39      CTL2    -0.180000       12.0110           0   0.00000     -0.301140E-02
     22939 MEMB     185      PMPG     H9X      HAL2     0.900000E-01   1.00800           0   0.00000     -0.301140E-02
     22940 MEMB     185      PMPG     H9Y      HAL2     0.900000E-01   1.00800           0   0.00000     -0.301140E-02
     22941 MEMB     185      PMPG     C310     CTL2    -0.180000       12.0110           0   0.00000     -0.301140E-02
     22942 MEMB     185      PMPG     H10X     HAL2     0.900000E-01   1.00800           0   0.00000     -0.301140E-02
     22943 MEMB     185      PMPG     H10Y     HAL2     0.900000E-01   1.00800           0   0.00000     -0.301140E-02
     22944 MEMB     185      PMPG     C311     CTL2    -0.180000       12.0110           0   0.00000     -0.301140E-02
     22945 MEMB     185      PMPG     H11X     HAL2     0.900000E-01   1.00800           0   0.00000     -0.301140E-02
     22946 MEMB     185      PMPG     H11Y     HAL2     0.900000E-01   1.00800           0   0.00000     -0.301140E-02
     22947 MEMB     185      PMPG     C312     CTL2    -0.180000       12.0110           0   0.00000     -0.301140E-02
     22948 MEMB     185      PMPG     H12X     HAL2     0.900000E-01   1.00800           0   0.00000     -0.301140E-02
     22949 MEMB     185      PMPG     H12Y     HAL2     0.900000E-01   1.00800           0   0.00000     -0.301140E-02
     22950 MEMB     185      PMPG     C313     CTL2    -0.180000       12.0110           0   0.00000     -0.301140E-02
     22951 MEMB     185      PMPG     H13X     HAL2     0.900000E-01   1.00800           0   0.00000     -0.301140E-02
     22952 MEMB     185      PMPG     H13Y     HAL2     0.900000E-01   1.00800           0   0.00000     -0.301140E-02
     22953 MEMB     185      PMPG     C314     CTL2    -0.180000       12.0110           0   0.00000     -0.301140E-02
     22954 MEMB     185      PMPG     H14X     HAL2     0.900000E-01   1.00800           0   0.00000     -0.301140E-02
     22955 MEMB     185      PMPG     H14Y     HAL2     0.900000E-01   1.00800           0   0.00000     -0.301140E-02
     22956 MEMB     185      PMPG     C315     CTL2    -0.180000       12.0110           0   0.00000     -0.301140E-02
     22957 MEMB     185      PMPG     H15X     HAL2     0.900000E-01   1.00800           0   0.00000     -0.301140E-02
     22958 MEMB     185      PMPG     H15Y     HAL2     0.900000E-01   1.00800           0   0.00000     -0.301140E-02
     22959 MEMB     185      PMPG     C316     CTL3    -0.270000       12.0110           0   0.00000     -0.301140E-02
     22960 MEMB     185      PMPG     H16X     HAL3     0.900000E-01   1.00800           0   0.00000     -0.301140E-02
     22961 MEMB     185      PMPG     H16Y     HAL3     0.900000E-01   1.00800           0   0.00000     -0.301140E-02
     22962 MEMB     185      PMPG     H16Z     HAL3     0.900000E-01   1.00800           0   0.00000     -0.301140E-02
     22963 MEMB     186      PMPE     N        NH3L    -0.300000       14.0070           0   0.00000     -0.301140E-02
     22964 MEMB     186      PMPE     HN1      HCL      0.330000       1.00800           0   0.00000     -0.301140E-02
     22965 MEMB     186      PMPE     HN2      HCL      0.330000       1.00800           0   0.00000     -0.301140E-02
     22966 MEMB     186      PMPE     HN3      HCL      0.330000       1.00800           0   0.00000     -0.301140E-02
     22967 MEMB     186      PMPE     C12      CTL2     0.130000       12.0110           0   0.00000     -0.301140E-02
     22968 MEMB     186      PMPE     H12A     HAL2     0.900000E-01   1.00800           0   0.00000     -0.301140E-02
     22969 MEMB     186      PMPE     H12B     HAL2     0.900000E-01   1.00800           0   0.00000     -0.301140E-02
     22970 MEMB     186      PMPE     C11      CTL2    -0.800000E-01   12.0110           0   0.00000     -0.301140E-02
     22971 MEMB     186      PMPE     H11A     HAL2     0.900000E-01   1.00800           0   0.00000     -0.301140E-02
     22972 MEMB     186      PMPE     H11B     HAL2     0.900000E-01   1.00800           0   0.00000     -0.301140E-02
     22973 MEMB     186      PMPE     P        PL        1.50000       30.9740           0   0.00000     -0.301140E-02
     22974 MEMB     186      PMPE     O13      O2L     -0.780000       15.9994           0   0.00000     -0.301140E-02
     22975 MEMB     186      PMPE     O14      O2L     -0.780000       15.9994           0   0.00000     -0.301140E-02
     22976 MEMB     186      PMPE     O11      OSLP    -0.570000       15.9994           0   0.00000     -0.301140E-02
     22977 MEMB     186      PMPE     O12      OSLP    -0.570000       15.9994           0   0.00000     -0.301140E-02
     22978 MEMB     186      PMPE     C1       CTL2    -0.800000E-01   12.0110           0   0.00000     -0.301140E-02
     22979 MEMB     186      PMPE     HA       HAL2     0.900000E-01   1.00800           0   0.00000     -0.301140E-02
     22980 MEMB     186      PMPE     HB       HAL2     0.900000E-01   1.00800           0   0.00000     -0.301140E-02
     22981 MEMB     186      PMPE     C2       CTL1     0.170000       12.0110           0   0.00000     -0.301140E-02
     22982 MEMB     186      PMPE     HS       HAL1     0.900000E-01   1.00800           0   0.00000     -0.301140E-02
     22983 MEMB     186      PMPE     O21      OSL     -0.490000       15.9994           0   0.00000     -0.301140E-02
     22984 MEMB     186      PMPE     C21      CL       0.900000       12.0110           0   0.00000     -0.301140E-02
     22985 MEMB     186      PMPE     O22      OBL     -0.630000       15.9994           0   0.00000     -0.301140E-02
     22986 MEMB     186      PMPE     C22      CTL2    -0.220000       12.0110           0   0.00000     -0.301140E-02
     22987 MEMB     186      PMPE     H2R      HAL2     0.900000E-01   1.00800           0   0.00000     -0.301140E-02
     22988 MEMB     186      PMPE     H2S      HAL2     0.900000E-01   1.00800           0   0.00000     -0.301140E-02
     22989 MEMB     186      PMPE     C3       CTL2     0.800000E-01   12.0110           0   0.00000     -0.301140E-02
     22990 MEMB     186      PMPE     HX       HAL2     0.900000E-01   1.00800           0   0.00000     -0.301140E-02
     22991 MEMB     186      PMPE     HY       HAL2     0.900000E-01   1.00800           0   0.00000     -0.301140E-02
     22992 MEMB     186      PMPE     O31      OSL     -0.490000       15.9994           0   0.00000     -0.301140E-02
     22993 MEMB     186      PMPE     C31      CL       0.900000       12.0110           0   0.00000     -0.301140E-02
     22994 MEMB     186      PMPE     O32      OBL     -0.630000       15.9994           0   0.00000     -0.301140E-02
     22995 MEMB     186      PMPE     C32      CTL2    -0.220000       12.0110           0   0.00000     -0.301140E-02
     22996 MEMB     186      PMPE     H2X      HAL2     0.900000E-01   1.00800           0   0.00000     -0.301140E-02
     22997 MEMB     186      PMPE     H2Y      HAL2     0.900000E-01   1.00800           0   0.00000     -0.301140E-02
     22998 MEMB     186      PMPE     C23      CTL2    -0.180000       12.0110           0   0.00000     -0.301140E-02
     22999 MEMB     186      PMPE     H3R      HAL2     0.900000E-01   1.00800           0   0.00000     -0.301140E-02
     23000 MEMB     186      PMPE     H3S      HAL2     0.900000E-01   1.00800           0   0.00000     -0.301140E-02
     23001 MEMB     186      PMPE     C24      CTL2    -0.180000       12.0110           0   0.00000     -0.301140E-02
     23002 MEMB     186      PMPE     H4R      HAL2     0.900000E-01   1.00800           0   0.00000     -0.301140E-02
     23003 MEMB     186      PMPE     H4S      HAL2     0.900000E-01   1.00800           0   0.00000     -0.301140E-02
     23004 MEMB     186      PMPE     C25      CTL2    -0.180000       12.0110           0   0.00000     -0.301140E-02
     23005 MEMB     186      PMPE     H5R      HAL2     0.900000E-01   1.00800           0   0.00000     -0.301140E-02
     23006 MEMB     186      PMPE     H5S      HAL2     0.900000E-01   1.00800           0   0.00000     -0.301140E-02
     23007 MEMB     186      PMPE     C26      CTL2    -0.180000       12.0110           0   0.00000     -0.301140E-02
     23008 MEMB     186      PMPE     H6R      HAL2     0.900000E-01   1.00800           0   0.00000     -0.301140E-02
     23009 MEMB     186      PMPE     H6S      HAL2     0.900000E-01   1.00800           0   0.00000     -0.301140E-02
     23010 MEMB     186      PMPE     C27      CTL2    -0.180000       12.0110           0   0.00000     -0.301140E-02
     23011 MEMB     186      PMPE     H7R      HAL2     0.900000E-01   1.00800           0   0.00000     -0.301140E-02
     23012 MEMB     186      PMPE     H7S      HAL2     0.900000E-01   1.00800           0   0.00000     -0.301140E-02
     23013 MEMB     186      PMPE     C28      CTL2    -0.180000       12.0110           0   0.00000     -0.301140E-02
     23014 MEMB     186      PMPE     H8R      HAL2     0.900000E-01   1.00800           0   0.00000     -0.301140E-02
     23015 MEMB     186      PMPE     H8S      HAL2     0.900000E-01   1.00800           0   0.00000     -0.301140E-02
     23016 MEMB     186      PMPE     C29      CG3RC1  -0.900000E-01   12.0110           0   0.00000     -0.301140E-02
     23017 MEMB     186      PMPE     H9R      HGA1     0.900000E-01   1.00800           0   0.00000     -0.301140E-02
     23018 MEMB     186      PMPE     C217     CG3C31  -0.180000       12.0110           0   0.00000     -0.301140E-02
     23019 MEMB     186      PMPE     H17R     HGA2     0.900000E-01   1.00800           0   0.00000     -0.301140E-02
     23020 MEMB     186      PMPE     H17S     HGA2     0.900000E-01   1.00800           0   0.00000     -0.301140E-02
     23021 MEMB     186      PMPE     C210     CG3RC1  -0.900000E-01   12.0110           0   0.00000     -0.301140E-02
     23022 MEMB     186      PMPE     H10R     HGA1     0.900000E-01   1.00800           0   0.00000     -0.301140E-02
     23023 MEMB     186      PMPE     C211     CTL2    -0.180000       12.0110           0   0.00000     -0.301140E-02
     23024 MEMB     186      PMPE     H11R     HAL2     0.900000E-01   1.00800           0   0.00000     -0.301140E-02
     23025 MEMB     186      PMPE     H11S     HAL2     0.900000E-01   1.00800           0   0.00000     -0.301140E-02
     23026 MEMB     186      PMPE     C212     CTL2    -0.180000       12.0110           0   0.00000     -0.301140E-02
     23027 MEMB     186      PMPE     H12R     HAL2     0.900000E-01   1.00800           0   0.00000     -0.301140E-02
     23028 MEMB     186      PMPE     H12S     HAL2     0.900000E-01   1.00800           0   0.00000     -0.301140E-02
     23029 MEMB     186      PMPE     C213     CTL2    -0.180000       12.0110           0   0.00000     -0.301140E-02
     23030 MEMB     186      PMPE     H13R     HAL2     0.900000E-01   1.00800           0   0.00000     -0.301140E-02
     23031 MEMB     186      PMPE     H13S     HAL2     0.900000E-01   1.00800           0   0.00000     -0.301140E-02
     23032 MEMB     186      PMPE     C214     CTL2    -0.180000       12.0110           0   0.00000     -0.301140E-02
     23033 MEMB     186      PMPE     H14R     HAL2     0.900000E-01   1.00800           0   0.00000     -0.301140E-02
     23034 MEMB     186      PMPE     H14S     HAL2     0.900000E-01   1.00800           0   0.00000     -0.301140E-02
     23035 MEMB     186      PMPE     C215     CTL2    -0.180000       12.0110           0   0.00000     -0.301140E-02
     23036 MEMB     186      PMPE     H15R     HAL2     0.900000E-01   1.00800           0   0.00000     -0.301140E-02
     23037 MEMB     186      PMPE     H15S     HAL2     0.900000E-01   1.00800           0   0.00000     -0.301140E-02
     23038 MEMB     186      PMPE     C216     CTL3    -0.270000       12.0110           0   0.00000     -0.301140E-02
     23039 MEMB     186      PMPE     H16R     HAL3     0.900000E-01   1.00800           0   0.00000     -0.301140E-02
     23040 MEMB     186      PMPE     H16S     HAL3     0.900000E-01   1.00800           0   0.00000     -0.301140E-02
     23041 MEMB     186      PMPE     H16T     HAL3     0.900000E-01   1.00800           0   0.00000     -0.301140E-02
     23042 MEMB     186      PMPE     C33      CTL2    -0.180000       12.0110           0   0.00000     -0.301140E-02
     23043 MEMB     186      PMPE     H3X      HAL2     0.900000E-01   1.00800           0   0.00000     -0.301140E-02
     23044 MEMB     186      PMPE     H3Y      HAL2     0.900000E-01   1.00800           0   0.00000     -0.301140E-02
     23045 MEMB     186      PMPE     C34      CTL2    -0.180000       12.0110           0   0.00000     -0.301140E-02
     23046 MEMB     186      PMPE     H4X      HAL2     0.900000E-01   1.00800           0   0.00000     -0.301140E-02
     23047 MEMB     186      PMPE     H4Y      HAL2     0.900000E-01   1.00800           0   0.00000     -0.301140E-02
     23048 MEMB     186      PMPE     C35      CTL2    -0.180000       12.0110           0   0.00000     -0.301140E-02
     23049 MEMB     186      PMPE     H5X      HAL2     0.900000E-01   1.00800           0   0.00000     -0.301140E-02
     23050 MEMB     186      PMPE     H5Y      HAL2     0.900000E-01   1.00800           0   0.00000     -0.301140E-02
     23051 MEMB     186      PMPE     C36      CTL2    -0.180000       12.0110           0   0.00000     -0.301140E-02
     23052 MEMB     186      PMPE     H6X      HAL2     0.900000E-01   1.00800           0   0.00000     -0.301140E-02
     23053 MEMB     186      PMPE     H6Y      HAL2     0.900000E-01   1.00800           0   0.00000     -0.301140E-02
     23054 MEMB     186      PMPE     C37      CTL2    -0.180000       12.0110           0   0.00000     -0.301140E-02
     23055 MEMB     186      PMPE     H7X      HAL2     0.900000E-01   1.00800           0   0.00000     -0.301140E-02
     23056 MEMB     186      PMPE     H7Y      HAL2     0.900000E-01   1.00800           0   0.00000     -0.301140E-02
     23057 MEMB     186      PMPE     C38      CTL2    -0.180000       12.0110           0   0.00000     -0.301140E-02
     23058 MEMB     186      PMPE     H8X      HAL2     0.900000E-01   1.00800           0   0.00000     -0.301140E-02
     23059 MEMB     186      PMPE     H8Y      HAL2     0.900000E-01   1.00800           0   0.00000     -0.301140E-02
     23060 MEMB     186      PMPE     C39      CTL2    -0.180000       12.0110           0   0.00000     -0.301140E-02
     23061 MEMB     186      PMPE     H9X      HAL2     0.900000E-01   1.00800           0   0.00000     -0.301140E-02
     23062 MEMB     186      PMPE     H9Y      HAL2     0.900000E-01   1.00800           0   0.00000     -0.301140E-02
     23063 MEMB     186      PMPE     C310     CTL2    -0.180000       12.0110           0   0.00000     -0.301140E-02
     23064 MEMB     186      PMPE     H10X     HAL2     0.900000E-01   1.00800           0   0.00000     -0.301140E-02
     23065 MEMB     186      PMPE     H10Y     HAL2     0.900000E-01   1.00800           0   0.00000     -0.301140E-02
     23066 MEMB     186      PMPE     C311     CTL2    -0.180000       12.0110           0   0.00000     -0.301140E-02
     23067 MEMB     186      PMPE     H11X     HAL2     0.900000E-01   1.00800           0   0.00000     -0.301140E-02
     23068 MEMB     186      PMPE     H11Y     HAL2     0.900000E-01   1.00800           0   0.00000     -0.301140E-02
     23069 MEMB     186      PMPE     C312     CTL2    -0.180000       12.0110           0   0.00000     -0.301140E-02
     23070 MEMB     186      PMPE     H12X     HAL2     0.900000E-01   1.00800           0   0.00000     -0.301140E-02
     23071 MEMB     186      PMPE     H12Y     HAL2     0.900000E-01   1.00800           0   0.00000     -0.301140E-02
     23072 MEMB     186      PMPE     C313     CTL2    -0.180000       12.0110           0   0.00000     -0.301140E-02
     23073 MEMB     186      PMPE     H13X     HAL2     0.900000E-01   1.00800           0   0.00000     -0.301140E-02
     23074 MEMB     186      PMPE     H13Y     HAL2     0.900000E-01   1.00800           0   0.00000     -0.301140E-02
     23075 MEMB     186      PMPE     C314     CTL2    -0.180000       12.0110           0   0.00000     -0.301140E-02
     23076 MEMB     186      PMPE     H14X     HAL2     0.900000E-01   1.00800           0   0.00000     -0.301140E-02
     23077 MEMB     186      PMPE     H14Y     HAL2     0.900000E-01   1.00800           0   0.00000     -0.301140E-02
     23078 MEMB     186      PMPE     C315     CTL2    -0.180000       12.0110           0   0.00000     -0.301140E-02
     23079 MEMB     186      PMPE     H15X     HAL2     0.900000E-01   1.00800           0   0.00000     -0.301140E-02
     23080 MEMB     186      PMPE     H15Y     HAL2     0.900000E-01   1.00800           0   0.00000     -0.301140E-02
     23081 MEMB     186      PMPE     C316     CTL3    -0.270000       12.0110           0   0.00000     -0.301140E-02
     23082 MEMB     186      PMPE     H16X     HAL3     0.900000E-01   1.00800           0   0.00000     -0.301140E-02
     23083 MEMB     186      PMPE     H16Y     HAL3     0.900000E-01   1.00800           0   0.00000     -0.301140E-02
     23084 MEMB     186      PMPE     H16Z     HAL3     0.900000E-01   1.00800           0   0.00000     -0.301140E-02
     23085 MEMB     187      POPE     N        NH3L    -0.300000       14.0070           0   0.00000     -0.301140E-02
     23086 MEMB     187      POPE     HN1      HCL      0.330000       1.00800           0   0.00000     -0.301140E-02
     23087 MEMB     187      POPE     HN2      HCL      0.330000       1.00800           0   0.00000     -0.301140E-02
     23088 MEMB     187      POPE     HN3      HCL      0.330000       1.00800           0   0.00000     -0.301140E-02
     23089 MEMB     187      POPE     C12      CTL2     0.130000       12.0110           0   0.00000     -0.301140E-02
     23090 MEMB     187      POPE     H12A     HAL2     0.900000E-01   1.00800           0   0.00000     -0.301140E-02
     23091 MEMB     187      POPE     H12B     HAL2     0.900000E-01   1.00800           0   0.00000     -0.301140E-02
     23092 MEMB     187      POPE     C11      CTL2    -0.800000E-01   12.0110           0   0.00000     -0.301140E-02
     23093 MEMB     187      POPE     H11A     HAL2     0.900000E-01   1.00800           0   0.00000     -0.301140E-02
     23094 MEMB     187      POPE     H11B     HAL2     0.900000E-01   1.00800           0   0.00000     -0.301140E-02
     23095 MEMB     187      POPE     P        PL        1.50000       30.9740           0   0.00000     -0.301140E-02
     23096 MEMB     187      POPE     O13      O2L     -0.780000       15.9994           0   0.00000     -0.301140E-02
     23097 MEMB     187      POPE     O14      O2L     -0.780000       15.9994           0   0.00000     -0.301140E-02
     23098 MEMB     187      POPE     O11      OSLP    -0.570000       15.9994           0   0.00000     -0.301140E-02
     23099 MEMB     187      POPE     O12      OSLP    -0.570000       15.9994           0   0.00000     -0.301140E-02
     23100 MEMB     187      POPE     C1       CTL2    -0.800000E-01   12.0110           0   0.00000     -0.301140E-02
     23101 MEMB     187      POPE     HA       HAL2     0.900000E-01   1.00800           0   0.00000     -0.301140E-02
     23102 MEMB     187      POPE     HB       HAL2     0.900000E-01   1.00800           0   0.00000     -0.301140E-02
     23103 MEMB     187      POPE     C2       CTL1     0.170000       12.0110           0   0.00000     -0.301140E-02
     23104 MEMB     187      POPE     HS       HAL1     0.900000E-01   1.00800           0   0.00000     -0.301140E-02
     23105 MEMB     187      POPE     O21      OSL     -0.490000       15.9994           0   0.00000     -0.301140E-02
     23106 MEMB     187      POPE     C21      CL       0.900000       12.0110           0   0.00000     -0.301140E-02
     23107 MEMB     187      POPE     O22      OBL     -0.630000       15.9994           0   0.00000     -0.301140E-02
     23108 MEMB     187      POPE     C22      CTL2    -0.220000       12.0110           0   0.00000     -0.301140E-02
     23109 MEMB     187      POPE     H2R      HAL2     0.900000E-01   1.00800           0   0.00000     -0.301140E-02
     23110 MEMB     187      POPE     H2S      HAL2     0.900000E-01   1.00800           0   0.00000     -0.301140E-02
     23111 MEMB     187      POPE     C3       CTL2     0.800000E-01   12.0110           0   0.00000     -0.301140E-02
     23112 MEMB     187      POPE     HX       HAL2     0.900000E-01   1.00800           0   0.00000     -0.301140E-02
     23113 MEMB     187      POPE     HY       HAL2     0.900000E-01   1.00800           0   0.00000     -0.301140E-02
     23114 MEMB     187      POPE     O31      OSL     -0.490000       15.9994           0   0.00000     -0.301140E-02
     23115 MEMB     187      POPE     C31      CL       0.900000       12.0110           0   0.00000     -0.301140E-02
     23116 MEMB     187      POPE     O32      OBL     -0.630000       15.9994           0   0.00000     -0.301140E-02
     23117 MEMB     187      POPE     C32      CTL2    -0.220000       12.0110           0   0.00000     -0.301140E-02
     23118 MEMB     187      POPE     H2X      HAL2     0.900000E-01   1.00800           0   0.00000     -0.301140E-02
     23119 MEMB     187      POPE     H2Y      HAL2     0.900000E-01   1.00800           0   0.00000     -0.301140E-02
     23120 MEMB     187      POPE     C23      CTL2    -0.180000       12.0110           0   0.00000     -0.301140E-02
     23121 MEMB     187      POPE     H3R      HAL2     0.900000E-01   1.00800           0   0.00000     -0.301140E-02
     23122 MEMB     187      POPE     H3S      HAL2     0.900000E-01   1.00800           0   0.00000     -0.301140E-02
     23123 MEMB     187      POPE     C24      CTL2    -0.180000       12.0110           0   0.00000     -0.301140E-02
     23124 MEMB     187      POPE     H4R      HAL2     0.900000E-01   1.00800           0   0.00000     -0.301140E-02
     23125 MEMB     187      POPE     H4S      HAL2     0.900000E-01   1.00800           0   0.00000     -0.301140E-02
     23126 MEMB     187      POPE     C25      CTL2    -0.180000       12.0110           0   0.00000     -0.301140E-02
     23127 MEMB     187      POPE     H5R      HAL2     0.900000E-01   1.00800           0   0.00000     -0.301140E-02
     23128 MEMB     187      POPE     H5S      HAL2     0.900000E-01   1.00800           0   0.00000     -0.301140E-02
     23129 MEMB     187      POPE     C26      CTL2    -0.180000       12.0110           0   0.00000     -0.301140E-02
     23130 MEMB     187      POPE     H6R      HAL2     0.900000E-01   1.00800           0   0.00000     -0.301140E-02
     23131 MEMB     187      POPE     H6S      HAL2     0.900000E-01   1.00800           0   0.00000     -0.301140E-02
     23132 MEMB     187      POPE     C27      CTL2    -0.180000       12.0110           0   0.00000     -0.301140E-02
     23133 MEMB     187      POPE     H7R      HAL2     0.900000E-01   1.00800           0   0.00000     -0.301140E-02
     23134 MEMB     187      POPE     H7S      HAL2     0.900000E-01   1.00800           0   0.00000     -0.301140E-02
     23135 MEMB     187      POPE     C28      CTL2    -0.180000       12.0110           0   0.00000     -0.301140E-02
     23136 MEMB     187      POPE     H8R      HAL2     0.900000E-01   1.00800           0   0.00000     -0.301140E-02
     23137 MEMB     187      POPE     H8S      HAL2     0.900000E-01   1.00800           0   0.00000     -0.301140E-02
     23138 MEMB     187      POPE     C29      CEL1    -0.150000       12.0110           0   0.00000     -0.301140E-02
     23139 MEMB     187      POPE     H91      HEL1     0.150000       1.00800           0   0.00000     -0.301140E-02
     23140 MEMB     187      POPE     C210     CEL1    -0.150000       12.0110           0   0.00000     -0.301140E-02
     23141 MEMB     187      POPE     H101     HEL1     0.150000       1.00800           0   0.00000     -0.301140E-02
     23142 MEMB     187      POPE     C211     CTL2    -0.180000       12.0110           0   0.00000     -0.301140E-02
     23143 MEMB     187      POPE     H11R     HAL2     0.900000E-01   1.00800           0   0.00000     -0.301140E-02
     23144 MEMB     187      POPE     H11S     HAL2     0.900000E-01   1.00800           0   0.00000     -0.301140E-02
     23145 MEMB     187      POPE     C212     CTL2    -0.180000       12.0110           0   0.00000     -0.301140E-02
     23146 MEMB     187      POPE     H12R     HAL2     0.900000E-01   1.00800           0   0.00000     -0.301140E-02
     23147 MEMB     187      POPE     H12S     HAL2     0.900000E-01   1.00800           0   0.00000     -0.301140E-02
     23148 MEMB     187      POPE     C213     CTL2    -0.180000       12.0110           0   0.00000     -0.301140E-02
     23149 MEMB     187      POPE     H13R     HAL2     0.900000E-01   1.00800           0   0.00000     -0.301140E-02
     23150 MEMB     187      POPE     H13S     HAL2     0.900000E-01   1.00800           0   0.00000     -0.301140E-02
     23151 MEMB     187      POPE     C214     CTL2    -0.180000       12.0110           0   0.00000     -0.301140E-02
     23152 MEMB     187      POPE     H14R     HAL2     0.900000E-01   1.00800           0   0.00000     -0.301140E-02
     23153 MEMB     187      POPE     H14S     HAL2     0.900000E-01   1.00800           0   0.00000     -0.301140E-02
     23154 MEMB     187      POPE     C215     CTL2    -0.180000       12.0110           0   0.00000     -0.301140E-02
     23155 MEMB     187      POPE     H15R     HAL2     0.900000E-01   1.00800           0   0.00000     -0.301140E-02
     23156 MEMB     187      POPE     H15S     HAL2     0.900000E-01   1.00800           0   0.00000     -0.301140E-02
     23157 MEMB     187      POPE     C216     CTL2    -0.180000       12.0110           0   0.00000     -0.301140E-02
     23158 MEMB     187      POPE     H16R     HAL2     0.900000E-01   1.00800           0   0.00000     -0.301140E-02
     23159 MEMB     187      POPE     H16S     HAL2     0.900000E-01   1.00800           0   0.00000     -0.301140E-02
     23160 MEMB     187      POPE     C217     CTL2    -0.180000       12.0110           0   0.00000     -0.301140E-02
     23161 MEMB     187      POPE     H17R     HAL2     0.900000E-01   1.00800           0   0.00000     -0.301140E-02
     23162 MEMB     187      POPE     H17S     HAL2     0.900000E-01   1.00800           0   0.00000     -0.301140E-02
     23163 MEMB     187      POPE     C218     CTL3    -0.270000       12.0110           0   0.00000     -0.301140E-02
     23164 MEMB     187      POPE     H18R     HAL3     0.900000E-01   1.00800           0   0.00000     -0.301140E-02
     23165 MEMB     187      POPE     H18S     HAL3     0.900000E-01   1.00800           0   0.00000     -0.301140E-02
     23166 MEMB     187      POPE     H18T     HAL3     0.900000E-01   1.00800           0   0.00000     -0.301140E-02
     23167 MEMB     187      POPE     C33      CTL2    -0.180000       12.0110           0   0.00000     -0.301140E-02
     23168 MEMB     187      POPE     H3X      HAL2     0.900000E-01   1.00800           0   0.00000     -0.301140E-02
     23169 MEMB     187      POPE     H3Y      HAL2     0.900000E-01   1.00800           0   0.00000     -0.301140E-02
     23170 MEMB     187      POPE     C34      CTL2    -0.180000       12.0110           0   0.00000     -0.301140E-02
     23171 MEMB     187      POPE     H4X      HAL2     0.900000E-01   1.00800           0   0.00000     -0.301140E-02
     23172 MEMB     187      POPE     H4Y      HAL2     0.900000E-01   1.00800           0   0.00000     -0.301140E-02
     23173 MEMB     187      POPE     C35      CTL2    -0.180000       12.0110           0   0.00000     -0.301140E-02
     23174 MEMB     187      POPE     H5X      HAL2     0.900000E-01   1.00800           0   0.00000     -0.301140E-02
     23175 MEMB     187      POPE     H5Y      HAL2     0.900000E-01   1.00800           0   0.00000     -0.301140E-02
     23176 MEMB     187      POPE     C36      CTL2    -0.180000       12.0110           0   0.00000     -0.301140E-02
     23177 MEMB     187      POPE     H6X      HAL2     0.900000E-01   1.00800           0   0.00000     -0.301140E-02
     23178 MEMB     187      POPE     H6Y      HAL2     0.900000E-01   1.00800           0   0.00000     -0.301140E-02
     23179 MEMB     187      POPE     C37      CTL2    -0.180000       12.0110           0   0.00000     -0.301140E-02
     23180 MEMB     187      POPE     H7X      HAL2     0.900000E-01   1.00800           0   0.00000     -0.301140E-02
     23181 MEMB     187      POPE     H7Y      HAL2     0.900000E-01   1.00800           0   0.00000     -0.301140E-02
     23182 MEMB     187      POPE     C38      CTL2    -0.180000       12.0110           0   0.00000     -0.301140E-02
     23183 MEMB     187      POPE     H8X      HAL2     0.900000E-01   1.00800           0   0.00000     -0.301140E-02
     23184 MEMB     187      POPE     H8Y      HAL2     0.900000E-01   1.00800           0   0.00000     -0.301140E-02
     23185 MEMB     187      POPE     C39      CTL2    -0.180000       12.0110           0   0.00000     -0.301140E-02
     23186 MEMB     187      POPE     H9X      HAL2     0.900000E-01   1.00800           0   0.00000     -0.301140E-02
     23187 MEMB     187      POPE     H9Y      HAL2     0.900000E-01   1.00800           0   0.00000     -0.301140E-02
     23188 MEMB     187      POPE     C310     CTL2    -0.180000       12.0110           0   0.00000     -0.301140E-02
     23189 MEMB     187      POPE     H10X     HAL2     0.900000E-01   1.00800           0   0.00000     -0.301140E-02
     23190 MEMB     187      POPE     H10Y     HAL2     0.900000E-01   1.00800           0   0.00000     -0.301140E-02
     23191 MEMB     187      POPE     C311     CTL2    -0.180000       12.0110           0   0.00000     -0.301140E-02
     23192 MEMB     187      POPE     H11X     HAL2     0.900000E-01   1.00800           0   0.00000     -0.301140E-02
     23193 MEMB     187      POPE     H11Y     HAL2     0.900000E-01   1.00800           0   0.00000     -0.301140E-02
     23194 MEMB     187      POPE     C312     CTL2    -0.180000       12.0110           0   0.00000     -0.301140E-02
     23195 MEMB     187      POPE     H12X     HAL2     0.900000E-01   1.00800           0   0.00000     -0.301140E-02
     23196 MEMB     187      POPE     H12Y     HAL2     0.900000E-01   1.00800           0   0.00000     -0.301140E-02
     23197 MEMB     187      POPE     C313     CTL2    -0.180000       12.0110           0   0.00000     -0.301140E-02
     23198 MEMB     187      POPE     H13X     HAL2     0.900000E-01   1.00800           0   0.00000     -0.301140E-02
     23199 MEMB     187      POPE     H13Y     HAL2     0.900000E-01   1.00800           0   0.00000     -0.301140E-02
     23200 MEMB     187      POPE     C314     CTL2    -0.180000       12.0110           0   0.00000     -0.301140E-02
     23201 MEMB     187      POPE     H14X     HAL2     0.900000E-01   1.00800           0   0.00000     -0.301140E-02
     23202 MEMB     187      POPE     H14Y     HAL2     0.900000E-01   1.00800           0   0.00000     -0.301140E-02
     23203 MEMB     187      POPE     C315     CTL2    -0.180000       12.0110           0   0.00000     -0.301140E-02
     23204 MEMB     187      POPE     H15X     HAL2     0.900000E-01   1.00800           0   0.00000     -0.301140E-02
     23205 MEMB     187      POPE     H15Y     HAL2     0.900000E-01   1.00800           0   0.00000     -0.301140E-02
     23206 MEMB     187      POPE     C316     CTL3    -0.270000       12.0110           0   0.00000     -0.301140E-02
     23207 MEMB     187      POPE     H16X     HAL3     0.900000E-01   1.00800           0   0.00000     -0.301140E-02
     23208 MEMB     187      POPE     H16Y     HAL3     0.900000E-01   1.00800           0   0.00000     -0.301140E-02
     23209 MEMB     187      POPE     H16Z     HAL3     0.900000E-01   1.00800           0   0.00000     -0.301140E-02
     23210 MEMB     188      PMPE     N        NH3L    -0.300000       14.0070           0   0.00000     -0.301140E-02
     23211 MEMB     188      PMPE     HN1      HCL      0.330000       1.00800           0   0.00000     -0.301140E-02
     23212 MEMB     188      PMPE     HN2      HCL      0.330000       1.00800           0   0.00000     -0.301140E-02
     23213 MEMB     188      PMPE     HN3      HCL      0.330000       1.00800           0   0.00000     -0.301140E-02
     23214 MEMB     188      PMPE     C12      CTL2     0.130000       12.0110           0   0.00000     -0.301140E-02
     23215 MEMB     188      PMPE     H12A     HAL2     0.900000E-01   1.00800           0   0.00000     -0.301140E-02
     23216 MEMB     188      PMPE     H12B     HAL2     0.900000E-01   1.00800           0   0.00000     -0.301140E-02
     23217 MEMB     188      PMPE     C11      CTL2    -0.800000E-01   12.0110           0   0.00000     -0.301140E-02
     23218 MEMB     188      PMPE     H11A     HAL2     0.900000E-01   1.00800           0   0.00000     -0.301140E-02
     23219 MEMB     188      PMPE     H11B     HAL2     0.900000E-01   1.00800           0   0.00000     -0.301140E-02
     23220 MEMB     188      PMPE     P        PL        1.50000       30.9740           0   0.00000     -0.301140E-02
     23221 MEMB     188      PMPE     O13      O2L     -0.780000       15.9994           0   0.00000     -0.301140E-02
     23222 MEMB     188      PMPE     O14      O2L     -0.780000       15.9994           0   0.00000     -0.301140E-02
     23223 MEMB     188      PMPE     O11      OSLP    -0.570000       15.9994           0   0.00000     -0.301140E-02
     23224 MEMB     188      PMPE     O12      OSLP    -0.570000       15.9994           0   0.00000     -0.301140E-02
     23225 MEMB     188      PMPE     C1       CTL2    -0.800000E-01   12.0110           0   0.00000     -0.301140E-02
     23226 MEMB     188      PMPE     HA       HAL2     0.900000E-01   1.00800           0   0.00000     -0.301140E-02
     23227 MEMB     188      PMPE     HB       HAL2     0.900000E-01   1.00800           0   0.00000     -0.301140E-02
     23228 MEMB     188      PMPE     C2       CTL1     0.170000       12.0110           0   0.00000     -0.301140E-02
     23229 MEMB     188      PMPE     HS       HAL1     0.900000E-01   1.00800           0   0.00000     -0.301140E-02
     23230 MEMB     188      PMPE     O21      OSL     -0.490000       15.9994           0   0.00000     -0.301140E-02
     23231 MEMB     188      PMPE     C21      CL       0.900000       12.0110           0   0.00000     -0.301140E-02
     23232 MEMB     188      PMPE     O22      OBL     -0.630000       15.9994           0   0.00000     -0.301140E-02
     23233 MEMB     188      PMPE     C22      CTL2    -0.220000       12.0110           0   0.00000     -0.301140E-02
     23234 MEMB     188      PMPE     H2R      HAL2     0.900000E-01   1.00800           0   0.00000     -0.301140E-02
     23235 MEMB     188      PMPE     H2S      HAL2     0.900000E-01   1.00800           0   0.00000     -0.301140E-02
     23236 MEMB     188      PMPE     C3       CTL2     0.800000E-01   12.0110           0   0.00000     -0.301140E-02
     23237 MEMB     188      PMPE     HX       HAL2     0.900000E-01   1.00800           0   0.00000     -0.301140E-02
     23238 MEMB     188      PMPE     HY       HAL2     0.900000E-01   1.00800           0   0.00000     -0.301140E-02
     23239 MEMB     188      PMPE     O31      OSL     -0.490000       15.9994           0   0.00000     -0.301140E-02
     23240 MEMB     188      PMPE     C31      CL       0.900000       12.0110           0   0.00000     -0.301140E-02
     23241 MEMB     188      PMPE     O32      OBL     -0.630000       15.9994           0   0.00000     -0.301140E-02
     23242 MEMB     188      PMPE     C32      CTL2    -0.220000       12.0110           0   0.00000     -0.301140E-02
     23243 MEMB     188      PMPE     H2X      HAL2     0.900000E-01   1.00800           0   0.00000     -0.301140E-02
     23244 MEMB     188      PMPE     H2Y      HAL2     0.900000E-01   1.00800           0   0.00000     -0.301140E-02
     23245 MEMB     188      PMPE     C23      CTL2    -0.180000       12.0110           0   0.00000     -0.301140E-02
     23246 MEMB     188      PMPE     H3R      HAL2     0.900000E-01   1.00800           0   0.00000     -0.301140E-02
     23247 MEMB     188      PMPE     H3S      HAL2     0.900000E-01   1.00800           0   0.00000     -0.301140E-02
     23248 MEMB     188      PMPE     C24      CTL2    -0.180000       12.0110           0   0.00000     -0.301140E-02
     23249 MEMB     188      PMPE     H4R      HAL2     0.900000E-01   1.00800           0   0.00000     -0.301140E-02
     23250 MEMB     188      PMPE     H4S      HAL2     0.900000E-01   1.00800           0   0.00000     -0.301140E-02
     23251 MEMB     188      PMPE     C25      CTL2    -0.180000       12.0110           0   0.00000     -0.301140E-02
     23252 MEMB     188      PMPE     H5R      HAL2     0.900000E-01   1.00800           0   0.00000     -0.301140E-02
     23253 MEMB     188      PMPE     H5S      HAL2     0.900000E-01   1.00800           0   0.00000     -0.301140E-02
     23254 MEMB     188      PMPE     C26      CTL2    -0.180000       12.0110           0   0.00000     -0.301140E-02
     23255 MEMB     188      PMPE     H6R      HAL2     0.900000E-01   1.00800           0   0.00000     -0.301140E-02
     23256 MEMB     188      PMPE     H6S      HAL2     0.900000E-01   1.00800           0   0.00000     -0.301140E-02
     23257 MEMB     188      PMPE     C27      CTL2    -0.180000       12.0110           0   0.00000     -0.301140E-02
     23258 MEMB     188      PMPE     H7R      HAL2     0.900000E-01   1.00800           0   0.00000     -0.301140E-02
     23259 MEMB     188      PMPE     H7S      HAL2     0.900000E-01   1.00800           0   0.00000     -0.301140E-02
     23260 MEMB     188      PMPE     C28      CTL2    -0.180000       12.0110           0   0.00000     -0.301140E-02
     23261 MEMB     188      PMPE     H8R      HAL2     0.900000E-01   1.00800           0   0.00000     -0.301140E-02
     23262 MEMB     188      PMPE     H8S      HAL2     0.900000E-01   1.00800           0   0.00000     -0.301140E-02
     23263 MEMB     188      PMPE     C29      CG3RC1  -0.900000E-01   12.0110           0   0.00000     -0.301140E-02
     23264 MEMB     188      PMPE     H9R      HGA1     0.900000E-01   1.00800           0   0.00000     -0.301140E-02
     23265 MEMB     188      PMPE     C217     CG3C31  -0.180000       12.0110           0   0.00000     -0.301140E-02
     23266 MEMB     188      PMPE     H17R     HGA2     0.900000E-01   1.00800           0   0.00000     -0.301140E-02
     23267 MEMB     188      PMPE     H17S     HGA2     0.900000E-01   1.00800           0   0.00000     -0.301140E-02
     23268 MEMB     188      PMPE     C210     CG3RC1  -0.900000E-01   12.0110           0   0.00000     -0.301140E-02
     23269 MEMB     188      PMPE     H10R     HGA1     0.900000E-01   1.00800           0   0.00000     -0.301140E-02
     23270 MEMB     188      PMPE     C211     CTL2    -0.180000       12.0110           0   0.00000     -0.301140E-02
     23271 MEMB     188      PMPE     H11R     HAL2     0.900000E-01   1.00800           0   0.00000     -0.301140E-02
     23272 MEMB     188      PMPE     H11S     HAL2     0.900000E-01   1.00800           0   0.00000     -0.301140E-02
     23273 MEMB     188      PMPE     C212     CTL2    -0.180000       12.0110           0   0.00000     -0.301140E-02
     23274 MEMB     188      PMPE     H12R     HAL2     0.900000E-01   1.00800           0   0.00000     -0.301140E-02
     23275 MEMB     188      PMPE     H12S     HAL2     0.900000E-01   1.00800           0   0.00000     -0.301140E-02
     23276 MEMB     188      PMPE     C213     CTL2    -0.180000       12.0110           0   0.00000     -0.301140E-02
     23277 MEMB     188      PMPE     H13R     HAL2     0.900000E-01   1.00800           0   0.00000     -0.301140E-02
     23278 MEMB     188      PMPE     H13S     HAL2     0.900000E-01   1.00800           0   0.00000     -0.301140E-02
     23279 MEMB     188      PMPE     C214     CTL2    -0.180000       12.0110           0   0.00000     -0.301140E-02
     23280 MEMB     188      PMPE     H14R     HAL2     0.900000E-01   1.00800           0   0.00000     -0.301140E-02
     23281 MEMB     188      PMPE     H14S     HAL2     0.900000E-01   1.00800           0   0.00000     -0.301140E-02
     23282 MEMB     188      PMPE     C215     CTL2    -0.180000       12.0110           0   0.00000     -0.301140E-02
     23283 MEMB     188      PMPE     H15R     HAL2     0.900000E-01   1.00800           0   0.00000     -0.301140E-02
     23284 MEMB     188      PMPE     H15S     HAL2     0.900000E-01   1.00800           0   0.00000     -0.301140E-02
     23285 MEMB     188      PMPE     C216     CTL3    -0.270000       12.0110           0   0.00000     -0.301140E-02
     23286 MEMB     188      PMPE     H16R     HAL3     0.900000E-01   1.00800           0   0.00000     -0.301140E-02
     23287 MEMB     188      PMPE     H16S     HAL3     0.900000E-01   1.00800           0   0.00000     -0.301140E-02
     23288 MEMB     188      PMPE     H16T     HAL3     0.900000E-01   1.00800           0   0.00000     -0.301140E-02
     23289 MEMB     188      PMPE     C33      CTL2    -0.180000       12.0110           0   0.00000     -0.301140E-02
     23290 MEMB     188      PMPE     H3X      HAL2     0.900000E-01   1.00800           0   0.00000     -0.301140E-02
     23291 MEMB     188      PMPE     H3Y      HAL2     0.900000E-01   1.00800           0   0.00000     -0.301140E-02
     23292 MEMB     188      PMPE     C34      CTL2    -0.180000       12.0110           0   0.00000     -0.301140E-02
     23293 MEMB     188      PMPE     H4X      HAL2     0.900000E-01   1.00800           0   0.00000     -0.301140E-02
     23294 MEMB     188      PMPE     H4Y      HAL2     0.900000E-01   1.00800           0   0.00000     -0.301140E-02
     23295 MEMB     188      PMPE     C35      CTL2    -0.180000       12.0110           0   0.00000     -0.301140E-02
     23296 MEMB     188      PMPE     H5X      HAL2     0.900000E-01   1.00800           0   0.00000     -0.301140E-02
     23297 MEMB     188      PMPE     H5Y      HAL2     0.900000E-01   1.00800           0   0.00000     -0.301140E-02
     23298 MEMB     188      PMPE     C36      CTL2    -0.180000       12.0110           0   0.00000     -0.301140E-02
     23299 MEMB     188      PMPE     H6X      HAL2     0.900000E-01   1.00800           0   0.00000     -0.301140E-02
     23300 MEMB     188      PMPE     H6Y      HAL2     0.900000E-01   1.00800           0   0.00000     -0.301140E-02
     23301 MEMB     188      PMPE     C37      CTL2    -0.180000       12.0110           0   0.00000     -0.301140E-02
     23302 MEMB     188      PMPE     H7X      HAL2     0.900000E-01   1.00800           0   0.00000     -0.301140E-02
     23303 MEMB     188      PMPE     H7Y      HAL2     0.900000E-01   1.00800           0   0.00000     -0.301140E-02
     23304 MEMB     188      PMPE     C38      CTL2    -0.180000       12.0110           0   0.00000     -0.301140E-02
     23305 MEMB     188      PMPE     H8X      HAL2     0.900000E-01   1.00800           0   0.00000     -0.301140E-02
     23306 MEMB     188      PMPE     H8Y      HAL2     0.900000E-01   1.00800           0   0.00000     -0.301140E-02
     23307 MEMB     188      PMPE     C39      CTL2    -0.180000       12.0110           0   0.00000     -0.301140E-02
     23308 MEMB     188      PMPE     H9X      HAL2     0.900000E-01   1.00800           0   0.00000     -0.301140E-02
     23309 MEMB     188      PMPE     H9Y      HAL2     0.900000E-01   1.00800           0   0.00000     -0.301140E-02
     23310 MEMB     188      PMPE     C310     CTL2    -0.180000       12.0110           0   0.00000     -0.301140E-02
     23311 MEMB     188      PMPE     H10X     HAL2     0.900000E-01   1.00800           0   0.00000     -0.301140E-02
     23312 MEMB     188      PMPE     H10Y     HAL2     0.900000E-01   1.00800           0   0.00000     -0.301140E-02
     23313 MEMB     188      PMPE     C311     CTL2    -0.180000       12.0110           0   0.00000     -0.301140E-02
     23314 MEMB     188      PMPE     H11X     HAL2     0.900000E-01   1.00800           0   0.00000     -0.301140E-02
     23315 MEMB     188      PMPE     H11Y     HAL2     0.900000E-01   1.00800           0   0.00000     -0.301140E-02
     23316 MEMB     188      PMPE     C312     CTL2    -0.180000       12.0110           0   0.00000     -0.301140E-02
     23317 MEMB     188      PMPE     H12X     HAL2     0.900000E-01   1.00800           0   0.00000     -0.301140E-02
     23318 MEMB     188      PMPE     H12Y     HAL2     0.900000E-01   1.00800           0   0.00000     -0.301140E-02
     23319 MEMB     188      PMPE     C313     CTL2    -0.180000       12.0110           0   0.00000     -0.301140E-02
     23320 MEMB     188      PMPE     H13X     HAL2     0.900000E-01   1.00800           0   0.00000     -0.301140E-02
     23321 MEMB     188      PMPE     H13Y     HAL2     0.900000E-01   1.00800           0   0.00000     -0.301140E-02
     23322 MEMB     188      PMPE     C314     CTL2    -0.180000       12.0110           0   0.00000     -0.301140E-02
     23323 MEMB     188      PMPE     H14X     HAL2     0.900000E-01   1.00800           0   0.00000     -0.301140E-02
     23324 MEMB     188      PMPE     H14Y     HAL2     0.900000E-01   1.00800           0   0.00000     -0.301140E-02
     23325 MEMB     188      PMPE     C315     CTL2    -0.180000       12.0110           0   0.00000     -0.301140E-02
     23326 MEMB     188      PMPE     H15X     HAL2     0.900000E-01   1.00800           0   0.00000     -0.301140E-02
     23327 MEMB     188      PMPE     H15Y     HAL2     0.900000E-01   1.00800           0   0.00000     -0.301140E-02
     23328 MEMB     188      PMPE     C316     CTL3    -0.270000       12.0110           0   0.00000     -0.301140E-02
     23329 MEMB     188      PMPE     H16X     HAL3     0.900000E-01   1.00800           0   0.00000     -0.301140E-02
     23330 MEMB     188      PMPE     H16Y     HAL3     0.900000E-01   1.00800           0   0.00000     -0.301140E-02
     23331 MEMB     188      PMPE     H16Z     HAL3     0.900000E-01   1.00800           0   0.00000     -0.301140E-02
     23332 MEMB     189      PMPE     N        NH3L    -0.300000       14.0070           0   0.00000     -0.301140E-02
     23333 MEMB     189      PMPE     HN1      HCL      0.330000       1.00800           0   0.00000     -0.301140E-02
     23334 MEMB     189      PMPE     HN2      HCL      0.330000       1.00800           0   0.00000     -0.301140E-02
     23335 MEMB     189      PMPE     HN3      HCL      0.330000       1.00800           0   0.00000     -0.301140E-02
     23336 MEMB     189      PMPE     C12      CTL2     0.130000       12.0110           0   0.00000     -0.301140E-02
     23337 MEMB     189      PMPE     H12A     HAL2     0.900000E-01   1.00800           0   0.00000     -0.301140E-02
     23338 MEMB     189      PMPE     H12B     HAL2     0.900000E-01   1.00800           0   0.00000     -0.301140E-02
     23339 MEMB     189      PMPE     C11      CTL2    -0.800000E-01   12.0110           0   0.00000     -0.301140E-02
     23340 MEMB     189      PMPE     H11A     HAL2     0.900000E-01   1.00800           0   0.00000     -0.301140E-02
     23341 MEMB     189      PMPE     H11B     HAL2     0.900000E-01   1.00800           0   0.00000     -0.301140E-02
     23342 MEMB     189      PMPE     P        PL        1.50000       30.9740           0   0.00000     -0.301140E-02
     23343 MEMB     189      PMPE     O13      O2L     -0.780000       15.9994           0   0.00000     -0.301140E-02
     23344 MEMB     189      PMPE     O14      O2L     -0.780000       15.9994           0   0.00000     -0.301140E-02
     23345 MEMB     189      PMPE     O11      OSLP    -0.570000       15.9994           0   0.00000     -0.301140E-02
     23346 MEMB     189      PMPE     O12      OSLP    -0.570000       15.9994           0   0.00000     -0.301140E-02
     23347 MEMB     189      PMPE     C1       CTL2    -0.800000E-01   12.0110           0   0.00000     -0.301140E-02
     23348 MEMB     189      PMPE     HA       HAL2     0.900000E-01   1.00800           0   0.00000     -0.301140E-02
     23349 MEMB     189      PMPE     HB       HAL2     0.900000E-01   1.00800           0   0.00000     -0.301140E-02
     23350 MEMB     189      PMPE     C2       CTL1     0.170000       12.0110           0   0.00000     -0.301140E-02
     23351 MEMB     189      PMPE     HS       HAL1     0.900000E-01   1.00800           0   0.00000     -0.301140E-02
     23352 MEMB     189      PMPE     O21      OSL     -0.490000       15.9994           0   0.00000     -0.301140E-02
     23353 MEMB     189      PMPE     C21      CL       0.900000       12.0110           0   0.00000     -0.301140E-02
     23354 MEMB     189      PMPE     O22      OBL     -0.630000       15.9994           0   0.00000     -0.301140E-02
     23355 MEMB     189      PMPE     C22      CTL2    -0.220000       12.0110           0   0.00000     -0.301140E-02
     23356 MEMB     189      PMPE     H2R      HAL2     0.900000E-01   1.00800           0   0.00000     -0.301140E-02
     23357 MEMB     189      PMPE     H2S      HAL2     0.900000E-01   1.00800           0   0.00000     -0.301140E-02
     23358 MEMB     189      PMPE     C3       CTL2     0.800000E-01   12.0110           0   0.00000     -0.301140E-02
     23359 MEMB     189      PMPE     HX       HAL2     0.900000E-01   1.00800           0   0.00000     -0.301140E-02
     23360 MEMB     189      PMPE     HY       HAL2     0.900000E-01   1.00800           0   0.00000     -0.301140E-02
     23361 MEMB     189      PMPE     O31      OSL     -0.490000       15.9994           0   0.00000     -0.301140E-02
     23362 MEMB     189      PMPE     C31      CL       0.900000       12.0110           0   0.00000     -0.301140E-02
     23363 MEMB     189      PMPE     O32      OBL     -0.630000       15.9994           0   0.00000     -0.301140E-02
     23364 MEMB     189      PMPE     C32      CTL2    -0.220000       12.0110           0   0.00000     -0.301140E-02
     23365 MEMB     189      PMPE     H2X      HAL2     0.900000E-01   1.00800           0   0.00000     -0.301140E-02
     23366 MEMB     189      PMPE     H2Y      HAL2     0.900000E-01   1.00800           0   0.00000     -0.301140E-02
     23367 MEMB     189      PMPE     C23      CTL2    -0.180000       12.0110           0   0.00000     -0.301140E-02
     23368 MEMB     189      PMPE     H3R      HAL2     0.900000E-01   1.00800           0   0.00000     -0.301140E-02
     23369 MEMB     189      PMPE     H3S      HAL2     0.900000E-01   1.00800           0   0.00000     -0.301140E-02
     23370 MEMB     189      PMPE     C24      CTL2    -0.180000       12.0110           0   0.00000     -0.301140E-02
     23371 MEMB     189      PMPE     H4R      HAL2     0.900000E-01   1.00800           0   0.00000     -0.301140E-02
     23372 MEMB     189      PMPE     H4S      HAL2     0.900000E-01   1.00800           0   0.00000     -0.301140E-02
     23373 MEMB     189      PMPE     C25      CTL2    -0.180000       12.0110           0   0.00000     -0.301140E-02
     23374 MEMB     189      PMPE     H5R      HAL2     0.900000E-01   1.00800           0   0.00000     -0.301140E-02
     23375 MEMB     189      PMPE     H5S      HAL2     0.900000E-01   1.00800           0   0.00000     -0.301140E-02
     23376 MEMB     189      PMPE     C26      CTL2    -0.180000       12.0110           0   0.00000     -0.301140E-02
     23377 MEMB     189      PMPE     H6R      HAL2     0.900000E-01   1.00800           0   0.00000     -0.301140E-02
     23378 MEMB     189      PMPE     H6S      HAL2     0.900000E-01   1.00800           0   0.00000     -0.301140E-02
     23379 MEMB     189      PMPE     C27      CTL2    -0.180000       12.0110           0   0.00000     -0.301140E-02
     23380 MEMB     189      PMPE     H7R      HAL2     0.900000E-01   1.00800           0   0.00000     -0.301140E-02
     23381 MEMB     189      PMPE     H7S      HAL2     0.900000E-01   1.00800           0   0.00000     -0.301140E-02
     23382 MEMB     189      PMPE     C28      CTL2    -0.180000       12.0110           0   0.00000     -0.301140E-02
     23383 MEMB     189      PMPE     H8R      HAL2     0.900000E-01   1.00800           0   0.00000     -0.301140E-02
     23384 MEMB     189      PMPE     H8S      HAL2     0.900000E-01   1.00800           0   0.00000     -0.301140E-02
     23385 MEMB     189      PMPE     C29      CG3RC1  -0.900000E-01   12.0110           0   0.00000     -0.301140E-02
     23386 MEMB     189      PMPE     H9R      HGA1     0.900000E-01   1.00800           0   0.00000     -0.301140E-02
     23387 MEMB     189      PMPE     C217     CG3C31  -0.180000       12.0110           0   0.00000     -0.301140E-02
     23388 MEMB     189      PMPE     H17R     HGA2     0.900000E-01   1.00800           0   0.00000     -0.301140E-02
     23389 MEMB     189      PMPE     H17S     HGA2     0.900000E-01   1.00800           0   0.00000     -0.301140E-02
     23390 MEMB     189      PMPE     C210     CG3RC1  -0.900000E-01   12.0110           0   0.00000     -0.301140E-02
     23391 MEMB     189      PMPE     H10R     HGA1     0.900000E-01   1.00800           0   0.00000     -0.301140E-02
     23392 MEMB     189      PMPE     C211     CTL2    -0.180000       12.0110           0   0.00000     -0.301140E-02
     23393 MEMB     189      PMPE     H11R     HAL2     0.900000E-01   1.00800           0   0.00000     -0.301140E-02
     23394 MEMB     189      PMPE     H11S     HAL2     0.900000E-01   1.00800           0   0.00000     -0.301140E-02
     23395 MEMB     189      PMPE     C212     CTL2    -0.180000       12.0110           0   0.00000     -0.301140E-02
     23396 MEMB     189      PMPE     H12R     HAL2     0.900000E-01   1.00800           0   0.00000     -0.301140E-02
     23397 MEMB     189      PMPE     H12S     HAL2     0.900000E-01   1.00800           0   0.00000     -0.301140E-02
     23398 MEMB     189      PMPE     C213     CTL2    -0.180000       12.0110           0   0.00000     -0.301140E-02
     23399 MEMB     189      PMPE     H13R     HAL2     0.900000E-01   1.00800           0   0.00000     -0.301140E-02
     23400 MEMB     189      PMPE     H13S     HAL2     0.900000E-01   1.00800           0   0.00000     -0.301140E-02
     23401 MEMB     189      PMPE     C214     CTL2    -0.180000       12.0110           0   0.00000     -0.301140E-02
     23402 MEMB     189      PMPE     H14R     HAL2     0.900000E-01   1.00800           0   0.00000     -0.301140E-02
     23403 MEMB     189      PMPE     H14S     HAL2     0.900000E-01   1.00800           0   0.00000     -0.301140E-02
     23404 MEMB     189      PMPE     C215     CTL2    -0.180000       12.0110           0   0.00000     -0.301140E-02
     23405 MEMB     189      PMPE     H15R     HAL2     0.900000E-01   1.00800           0   0.00000     -0.301140E-02
     23406 MEMB     189      PMPE     H15S     HAL2     0.900000E-01   1.00800           0   0.00000     -0.301140E-02
     23407 MEMB     189      PMPE     C216     CTL3    -0.270000       12.0110           0   0.00000     -0.301140E-02
     23408 MEMB     189      PMPE     H16R     HAL3     0.900000E-01   1.00800           0   0.00000     -0.301140E-02
     23409 MEMB     189      PMPE     H16S     HAL3     0.900000E-01   1.00800           0   0.00000     -0.301140E-02
     23410 MEMB     189      PMPE     H16T     HAL3     0.900000E-01   1.00800           0   0.00000     -0.301140E-02
     23411 MEMB     189      PMPE     C33      CTL2    -0.180000       12.0110           0   0.00000     -0.301140E-02
     23412 MEMB     189      PMPE     H3X      HAL2     0.900000E-01   1.00800           0   0.00000     -0.301140E-02
     23413 MEMB     189      PMPE     H3Y      HAL2     0.900000E-01   1.00800           0   0.00000     -0.301140E-02
     23414 MEMB     189      PMPE     C34      CTL2    -0.180000       12.0110           0   0.00000     -0.301140E-02
     23415 MEMB     189      PMPE     H4X      HAL2     0.900000E-01   1.00800           0   0.00000     -0.301140E-02
     23416 MEMB     189      PMPE     H4Y      HAL2     0.900000E-01   1.00800           0   0.00000     -0.301140E-02
     23417 MEMB     189      PMPE     C35      CTL2    -0.180000       12.0110           0   0.00000     -0.301140E-02
     23418 MEMB     189      PMPE     H5X      HAL2     0.900000E-01   1.00800           0   0.00000     -0.301140E-02
     23419 MEMB     189      PMPE     H5Y      HAL2     0.900000E-01   1.00800           0   0.00000     -0.301140E-02
     23420 MEMB     189      PMPE     C36      CTL2    -0.180000       12.0110           0   0.00000     -0.301140E-02
     23421 MEMB     189      PMPE     H6X      HAL2     0.900000E-01   1.00800           0   0.00000     -0.301140E-02
     23422 MEMB     189      PMPE     H6Y      HAL2     0.900000E-01   1.00800           0   0.00000     -0.301140E-02
     23423 MEMB     189      PMPE     C37      CTL2    -0.180000       12.0110           0   0.00000     -0.301140E-02
     23424 MEMB     189      PMPE     H7X      HAL2     0.900000E-01   1.00800           0   0.00000     -0.301140E-02
     23425 MEMB     189      PMPE     H7Y      HAL2     0.900000E-01   1.00800           0   0.00000     -0.301140E-02
     23426 MEMB     189      PMPE     C38      CTL2    -0.180000       12.0110           0   0.00000     -0.301140E-02
     23427 MEMB     189      PMPE     H8X      HAL2     0.900000E-01   1.00800           0   0.00000     -0.301140E-02
     23428 MEMB     189      PMPE     H8Y      HAL2     0.900000E-01   1.00800           0   0.00000     -0.301140E-02
     23429 MEMB     189      PMPE     C39      CTL2    -0.180000       12.0110           0   0.00000     -0.301140E-02
     23430 MEMB     189      PMPE     H9X      HAL2     0.900000E-01   1.00800           0   0.00000     -0.301140E-02
     23431 MEMB     189      PMPE     H9Y      HAL2     0.900000E-01   1.00800           0   0.00000     -0.301140E-02
     23432 MEMB     189      PMPE     C310     CTL2    -0.180000       12.0110           0   0.00000     -0.301140E-02
     23433 MEMB     189      PMPE     H10X     HAL2     0.900000E-01   1.00800           0   0.00000     -0.301140E-02
     23434 MEMB     189      PMPE     H10Y     HAL2     0.900000E-01   1.00800           0   0.00000     -0.301140E-02
     23435 MEMB     189      PMPE     C311     CTL2    -0.180000       12.0110           0   0.00000     -0.301140E-02
     23436 MEMB     189      PMPE     H11X     HAL2     0.900000E-01   1.00800           0   0.00000     -0.301140E-02
     23437 MEMB     189      PMPE     H11Y     HAL2     0.900000E-01   1.00800           0   0.00000     -0.301140E-02
     23438 MEMB     189      PMPE     C312     CTL2    -0.180000       12.0110           0   0.00000     -0.301140E-02
     23439 MEMB     189      PMPE     H12X     HAL2     0.900000E-01   1.00800           0   0.00000     -0.301140E-02
     23440 MEMB     189      PMPE     H12Y     HAL2     0.900000E-01   1.00800           0   0.00000     -0.301140E-02
     23441 MEMB     189      PMPE     C313     CTL2    -0.180000       12.0110           0   0.00000     -0.301140E-02
     23442 MEMB     189      PMPE     H13X     HAL2     0.900000E-01   1.00800           0   0.00000     -0.301140E-02
     23443 MEMB     189      PMPE     H13Y     HAL2     0.900000E-01   1.00800           0   0.00000     -0.301140E-02
     23444 MEMB     189      PMPE     C314     CTL2    -0.180000       12.0110           0   0.00000     -0.301140E-02
     23445 MEMB     189      PMPE     H14X     HAL2     0.900000E-01   1.00800           0   0.00000     -0.301140E-02
     23446 MEMB     189      PMPE     H14Y     HAL2     0.900000E-01   1.00800           0   0.00000     -0.301140E-02
     23447 MEMB     189      PMPE     C315     CTL2    -0.180000       12.0110           0   0.00000     -0.301140E-02
     23448 MEMB     189      PMPE     H15X     HAL2     0.900000E-01   1.00800           0   0.00000     -0.301140E-02
     23449 MEMB     189      PMPE     H15Y     HAL2     0.900000E-01   1.00800           0   0.00000     -0.301140E-02
     23450 MEMB     189      PMPE     C316     CTL3    -0.270000       12.0110           0   0.00000     -0.301140E-02
     23451 MEMB     189      PMPE     H16X     HAL3     0.900000E-01   1.00800           0   0.00000     -0.301140E-02
     23452 MEMB     189      PMPE     H16Y     HAL3     0.900000E-01   1.00800           0   0.00000     -0.301140E-02
     23453 MEMB     189      PMPE     H16Z     HAL3     0.900000E-01   1.00800           0   0.00000     -0.301140E-02
     23454 MEMB     190      PMPE     N        NH3L    -0.300000       14.0070           0   0.00000     -0.301140E-02
     23455 MEMB     190      PMPE     HN1      HCL      0.330000       1.00800           0   0.00000     -0.301140E-02
     23456 MEMB     190      PMPE     HN2      HCL      0.330000       1.00800           0   0.00000     -0.301140E-02
     23457 MEMB     190      PMPE     HN3      HCL      0.330000       1.00800           0   0.00000     -0.301140E-02
     23458 MEMB     190      PMPE     C12      CTL2     0.130000       12.0110           0   0.00000     -0.301140E-02
     23459 MEMB     190      PMPE     H12A     HAL2     0.900000E-01   1.00800           0   0.00000     -0.301140E-02
     23460 MEMB     190      PMPE     H12B     HAL2     0.900000E-01   1.00800           0   0.00000     -0.301140E-02
     23461 MEMB     190      PMPE     C11      CTL2    -0.800000E-01   12.0110           0   0.00000     -0.301140E-02
     23462 MEMB     190      PMPE     H11A     HAL2     0.900000E-01   1.00800           0   0.00000     -0.301140E-02
     23463 MEMB     190      PMPE     H11B     HAL2     0.900000E-01   1.00800           0   0.00000     -0.301140E-02
     23464 MEMB     190      PMPE     P        PL        1.50000       30.9740           0   0.00000     -0.301140E-02
     23465 MEMB     190      PMPE     O13      O2L     -0.780000       15.9994           0   0.00000     -0.301140E-02
     23466 MEMB     190      PMPE     O14      O2L     -0.780000       15.9994           0   0.00000     -0.301140E-02
     23467 MEMB     190      PMPE     O11      OSLP    -0.570000       15.9994           0   0.00000     -0.301140E-02
     23468 MEMB     190      PMPE     O12      OSLP    -0.570000       15.9994           0   0.00000     -0.301140E-02
     23469 MEMB     190      PMPE     C1       CTL2    -0.800000E-01   12.0110           0   0.00000     -0.301140E-02
     23470 MEMB     190      PMPE     HA       HAL2     0.900000E-01   1.00800           0   0.00000     -0.301140E-02
     23471 MEMB     190      PMPE     HB       HAL2     0.900000E-01   1.00800           0   0.00000     -0.301140E-02
     23472 MEMB     190      PMPE     C2       CTL1     0.170000       12.0110           0   0.00000     -0.301140E-02
     23473 MEMB     190      PMPE     HS       HAL1     0.900000E-01   1.00800           0   0.00000     -0.301140E-02
     23474 MEMB     190      PMPE     O21      OSL     -0.490000       15.9994           0   0.00000     -0.301140E-02
     23475 MEMB     190      PMPE     C21      CL       0.900000       12.0110           0   0.00000     -0.301140E-02
     23476 MEMB     190      PMPE     O22      OBL     -0.630000       15.9994           0   0.00000     -0.301140E-02
     23477 MEMB     190      PMPE     C22      CTL2    -0.220000       12.0110           0   0.00000     -0.301140E-02
     23478 MEMB     190      PMPE     H2R      HAL2     0.900000E-01   1.00800           0   0.00000     -0.301140E-02
     23479 MEMB     190      PMPE     H2S      HAL2     0.900000E-01   1.00800           0   0.00000     -0.301140E-02
     23480 MEMB     190      PMPE     C3       CTL2     0.800000E-01   12.0110           0   0.00000     -0.301140E-02
     23481 MEMB     190      PMPE     HX       HAL2     0.900000E-01   1.00800           0   0.00000     -0.301140E-02
     23482 MEMB     190      PMPE     HY       HAL2     0.900000E-01   1.00800           0   0.00000     -0.301140E-02
     23483 MEMB     190      PMPE     O31      OSL     -0.490000       15.9994           0   0.00000     -0.301140E-02
     23484 MEMB     190      PMPE     C31      CL       0.900000       12.0110           0   0.00000     -0.301140E-02
     23485 MEMB     190      PMPE     O32      OBL     -0.630000       15.9994           0   0.00000     -0.301140E-02
     23486 MEMB     190      PMPE     C32      CTL2    -0.220000       12.0110           0   0.00000     -0.301140E-02
     23487 MEMB     190      PMPE     H2X      HAL2     0.900000E-01   1.00800           0   0.00000     -0.301140E-02
     23488 MEMB     190      PMPE     H2Y      HAL2     0.900000E-01   1.00800           0   0.00000     -0.301140E-02
     23489 MEMB     190      PMPE     C23      CTL2    -0.180000       12.0110           0   0.00000     -0.301140E-02
     23490 MEMB     190      PMPE     H3R      HAL2     0.900000E-01   1.00800           0   0.00000     -0.301140E-02
     23491 MEMB     190      PMPE     H3S      HAL2     0.900000E-01   1.00800           0   0.00000     -0.301140E-02
     23492 MEMB     190      PMPE     C24      CTL2    -0.180000       12.0110           0   0.00000     -0.301140E-02
     23493 MEMB     190      PMPE     H4R      HAL2     0.900000E-01   1.00800           0   0.00000     -0.301140E-02
     23494 MEMB     190      PMPE     H4S      HAL2     0.900000E-01   1.00800           0   0.00000     -0.301140E-02
     23495 MEMB     190      PMPE     C25      CTL2    -0.180000       12.0110           0   0.00000     -0.301140E-02
     23496 MEMB     190      PMPE     H5R      HAL2     0.900000E-01   1.00800           0   0.00000     -0.301140E-02
     23497 MEMB     190      PMPE     H5S      HAL2     0.900000E-01   1.00800           0   0.00000     -0.301140E-02
     23498 MEMB     190      PMPE     C26      CTL2    -0.180000       12.0110           0   0.00000     -0.301140E-02
     23499 MEMB     190      PMPE     H6R      HAL2     0.900000E-01   1.00800           0   0.00000     -0.301140E-02
     23500 MEMB     190      PMPE     H6S      HAL2     0.900000E-01   1.00800           0   0.00000     -0.301140E-02
     23501 MEMB     190      PMPE     C27      CTL2    -0.180000       12.0110           0   0.00000     -0.301140E-02
     23502 MEMB     190      PMPE     H7R      HAL2     0.900000E-01   1.00800           0   0.00000     -0.301140E-02
     23503 MEMB     190      PMPE     H7S      HAL2     0.900000E-01   1.00800           0   0.00000     -0.301140E-02
     23504 MEMB     190      PMPE     C28      CTL2    -0.180000       12.0110           0   0.00000     -0.301140E-02
     23505 MEMB     190      PMPE     H8R      HAL2     0.900000E-01   1.00800           0   0.00000     -0.301140E-02
     23506 MEMB     190      PMPE     H8S      HAL2     0.900000E-01   1.00800           0   0.00000     -0.301140E-02
     23507 MEMB     190      PMPE     C29      CG3RC1  -0.900000E-01   12.0110           0   0.00000     -0.301140E-02
     23508 MEMB     190      PMPE     H9R      HGA1     0.900000E-01   1.00800           0   0.00000     -0.301140E-02
     23509 MEMB     190      PMPE     C217     CG3C31  -0.180000       12.0110           0   0.00000     -0.301140E-02
     23510 MEMB     190      PMPE     H17R     HGA2     0.900000E-01   1.00800           0   0.00000     -0.301140E-02
     23511 MEMB     190      PMPE     H17S     HGA2     0.900000E-01   1.00800           0   0.00000     -0.301140E-02
     23512 MEMB     190      PMPE     C210     CG3RC1  -0.900000E-01   12.0110           0   0.00000     -0.301140E-02
     23513 MEMB     190      PMPE     H10R     HGA1     0.900000E-01   1.00800           0   0.00000     -0.301140E-02
     23514 MEMB     190      PMPE     C211     CTL2    -0.180000       12.0110           0   0.00000     -0.301140E-02
     23515 MEMB     190      PMPE     H11R     HAL2     0.900000E-01   1.00800           0   0.00000     -0.301140E-02
     23516 MEMB     190      PMPE     H11S     HAL2     0.900000E-01   1.00800           0   0.00000     -0.301140E-02
     23517 MEMB     190      PMPE     C212     CTL2    -0.180000       12.0110           0   0.00000     -0.301140E-02
     23518 MEMB     190      PMPE     H12R     HAL2     0.900000E-01   1.00800           0   0.00000     -0.301140E-02
     23519 MEMB     190      PMPE     H12S     HAL2     0.900000E-01   1.00800           0   0.00000     -0.301140E-02
     23520 MEMB     190      PMPE     C213     CTL2    -0.180000       12.0110           0   0.00000     -0.301140E-02
     23521 MEMB     190      PMPE     H13R     HAL2     0.900000E-01   1.00800           0   0.00000     -0.301140E-02
     23522 MEMB     190      PMPE     H13S     HAL2     0.900000E-01   1.00800           0   0.00000     -0.301140E-02
     23523 MEMB     190      PMPE     C214     CTL2    -0.180000       12.0110           0   0.00000     -0.301140E-02
     23524 MEMB     190      PMPE     H14R     HAL2     0.900000E-01   1.00800           0   0.00000     -0.301140E-02
     23525 MEMB     190      PMPE     H14S     HAL2     0.900000E-01   1.00800           0   0.00000     -0.301140E-02
     23526 MEMB     190      PMPE     C215     CTL2    -0.180000       12.0110           0   0.00000     -0.301140E-02
     23527 MEMB     190      PMPE     H15R     HAL2     0.900000E-01   1.00800           0   0.00000     -0.301140E-02
     23528 MEMB     190      PMPE     H15S     HAL2     0.900000E-01   1.00800           0   0.00000     -0.301140E-02
     23529 MEMB     190      PMPE     C216     CTL3    -0.270000       12.0110           0   0.00000     -0.301140E-02
     23530 MEMB     190      PMPE     H16R     HAL3     0.900000E-01   1.00800           0   0.00000     -0.301140E-02
     23531 MEMB     190      PMPE     H16S     HAL3     0.900000E-01   1.00800           0   0.00000     -0.301140E-02
     23532 MEMB     190      PMPE     H16T     HAL3     0.900000E-01   1.00800           0   0.00000     -0.301140E-02
     23533 MEMB     190      PMPE     C33      CTL2    -0.180000       12.0110           0   0.00000     -0.301140E-02
     23534 MEMB     190      PMPE     H3X      HAL2     0.900000E-01   1.00800           0   0.00000     -0.301140E-02
     23535 MEMB     190      PMPE     H3Y      HAL2     0.900000E-01   1.00800           0   0.00000     -0.301140E-02
     23536 MEMB     190      PMPE     C34      CTL2    -0.180000       12.0110           0   0.00000     -0.301140E-02
     23537 MEMB     190      PMPE     H4X      HAL2     0.900000E-01   1.00800           0   0.00000     -0.301140E-02
     23538 MEMB     190      PMPE     H4Y      HAL2     0.900000E-01   1.00800           0   0.00000     -0.301140E-02
     23539 MEMB     190      PMPE     C35      CTL2    -0.180000       12.0110           0   0.00000     -0.301140E-02
     23540 MEMB     190      PMPE     H5X      HAL2     0.900000E-01   1.00800           0   0.00000     -0.301140E-02
     23541 MEMB     190      PMPE     H5Y      HAL2     0.900000E-01   1.00800           0   0.00000     -0.301140E-02
     23542 MEMB     190      PMPE     C36      CTL2    -0.180000       12.0110           0   0.00000     -0.301140E-02
     23543 MEMB     190      PMPE     H6X      HAL2     0.900000E-01   1.00800           0   0.00000     -0.301140E-02
     23544 MEMB     190      PMPE     H6Y      HAL2     0.900000E-01   1.00800           0   0.00000     -0.301140E-02
     23545 MEMB     190      PMPE     C37      CTL2    -0.180000       12.0110           0   0.00000     -0.301140E-02
     23546 MEMB     190      PMPE     H7X      HAL2     0.900000E-01   1.00800           0   0.00000     -0.301140E-02
     23547 MEMB     190      PMPE     H7Y      HAL2     0.900000E-01   1.00800           0   0.00000     -0.301140E-02
     23548 MEMB     190      PMPE     C38      CTL2    -0.180000       12.0110           0   0.00000     -0.301140E-02
     23549 MEMB     190      PMPE     H8X      HAL2     0.900000E-01   1.00800           0   0.00000     -0.301140E-02
     23550 MEMB     190      PMPE     H8Y      HAL2     0.900000E-01   1.00800           0   0.00000     -0.301140E-02
     23551 MEMB     190      PMPE     C39      CTL2    -0.180000       12.0110           0   0.00000     -0.301140E-02
     23552 MEMB     190      PMPE     H9X      HAL2     0.900000E-01   1.00800           0   0.00000     -0.301140E-02
     23553 MEMB     190      PMPE     H9Y      HAL2     0.900000E-01   1.00800           0   0.00000     -0.301140E-02
     23554 MEMB     190      PMPE     C310     CTL2    -0.180000       12.0110           0   0.00000     -0.301140E-02
     23555 MEMB     190      PMPE     H10X     HAL2     0.900000E-01   1.00800           0   0.00000     -0.301140E-02
     23556 MEMB     190      PMPE     H10Y     HAL2     0.900000E-01   1.00800           0   0.00000     -0.301140E-02
     23557 MEMB     190      PMPE     C311     CTL2    -0.180000       12.0110           0   0.00000     -0.301140E-02
     23558 MEMB     190      PMPE     H11X     HAL2     0.900000E-01   1.00800           0   0.00000     -0.301140E-02
     23559 MEMB     190      PMPE     H11Y     HAL2     0.900000E-01   1.00800           0   0.00000     -0.301140E-02
     23560 MEMB     190      PMPE     C312     CTL2    -0.180000       12.0110           0   0.00000     -0.301140E-02
     23561 MEMB     190      PMPE     H12X     HAL2     0.900000E-01   1.00800           0   0.00000     -0.301140E-02
     23562 MEMB     190      PMPE     H12Y     HAL2     0.900000E-01   1.00800           0   0.00000     -0.301140E-02
     23563 MEMB     190      PMPE     C313     CTL2    -0.180000       12.0110           0   0.00000     -0.301140E-02
     23564 MEMB     190      PMPE     H13X     HAL2     0.900000E-01   1.00800           0   0.00000     -0.301140E-02
     23565 MEMB     190      PMPE     H13Y     HAL2     0.900000E-01   1.00800           0   0.00000     -0.301140E-02
     23566 MEMB     190      PMPE     C314     CTL2    -0.180000       12.0110           0   0.00000     -0.301140E-02
     23567 MEMB     190      PMPE     H14X     HAL2     0.900000E-01   1.00800           0   0.00000     -0.301140E-02
     23568 MEMB     190      PMPE     H14Y     HAL2     0.900000E-01   1.00800           0   0.00000     -0.301140E-02
     23569 MEMB     190      PMPE     C315     CTL2    -0.180000       12.0110           0   0.00000     -0.301140E-02
     23570 MEMB     190      PMPE     H15X     HAL2     0.900000E-01   1.00800           0   0.00000     -0.301140E-02
     23571 MEMB     190      PMPE     H15Y     HAL2     0.900000E-01   1.00800           0   0.00000     -0.301140E-02
     23572 MEMB     190      PMPE     C316     CTL3    -0.270000       12.0110           0   0.00000     -0.301140E-02
     23573 MEMB     190      PMPE     H16X     HAL3     0.900000E-01   1.00800           0   0.00000     -0.301140E-02
     23574 MEMB     190      PMPE     H16Y     HAL3     0.900000E-01   1.00800           0   0.00000     -0.301140E-02
     23575 MEMB     190      PMPE     H16Z     HAL3     0.900000E-01   1.00800           0   0.00000     -0.301140E-02
     23576 MEMB     191      POPE     N        NH3L    -0.300000       14.0070           0   0.00000     -0.301140E-02
     23577 MEMB     191      POPE     HN1      HCL      0.330000       1.00800           0   0.00000     -0.301140E-02
     23578 MEMB     191      POPE     HN2      HCL      0.330000       1.00800           0   0.00000     -0.301140E-02
     23579 MEMB     191      POPE     HN3      HCL      0.330000       1.00800           0   0.00000     -0.301140E-02
     23580 MEMB     191      POPE     C12      CTL2     0.130000       12.0110           0   0.00000     -0.301140E-02
     23581 MEMB     191      POPE     H12A     HAL2     0.900000E-01   1.00800           0   0.00000     -0.301140E-02
     23582 MEMB     191      POPE     H12B     HAL2     0.900000E-01   1.00800           0   0.00000     -0.301140E-02
     23583 MEMB     191      POPE     C11      CTL2    -0.800000E-01   12.0110           0   0.00000     -0.301140E-02
     23584 MEMB     191      POPE     H11A     HAL2     0.900000E-01   1.00800           0   0.00000     -0.301140E-02
     23585 MEMB     191      POPE     H11B     HAL2     0.900000E-01   1.00800           0   0.00000     -0.301140E-02
     23586 MEMB     191      POPE     P        PL        1.50000       30.9740           0   0.00000     -0.301140E-02
     23587 MEMB     191      POPE     O13      O2L     -0.780000       15.9994           0   0.00000     -0.301140E-02
     23588 MEMB     191      POPE     O14      O2L     -0.780000       15.9994           0   0.00000     -0.301140E-02
     23589 MEMB     191      POPE     O11      OSLP    -0.570000       15.9994           0   0.00000     -0.301140E-02
     23590 MEMB     191      POPE     O12      OSLP    -0.570000       15.9994           0   0.00000     -0.301140E-02
     23591 MEMB     191      POPE     C1       CTL2    -0.800000E-01   12.0110           0   0.00000     -0.301140E-02
     23592 MEMB     191      POPE     HA       HAL2     0.900000E-01   1.00800           0   0.00000     -0.301140E-02
     23593 MEMB     191      POPE     HB       HAL2     0.900000E-01   1.00800           0   0.00000     -0.301140E-02
     23594 MEMB     191      POPE     C2       CTL1     0.170000       12.0110           0   0.00000     -0.301140E-02
     23595 MEMB     191      POPE     HS       HAL1     0.900000E-01   1.00800           0   0.00000     -0.301140E-02
     23596 MEMB     191      POPE     O21      OSL     -0.490000       15.9994           0   0.00000     -0.301140E-02
     23597 MEMB     191      POPE     C21      CL       0.900000       12.0110           0   0.00000     -0.301140E-02
     23598 MEMB     191      POPE     O22      OBL     -0.630000       15.9994           0   0.00000     -0.301140E-02
     23599 MEMB     191      POPE     C22      CTL2    -0.220000       12.0110           0   0.00000     -0.301140E-02
     23600 MEMB     191      POPE     H2R      HAL2     0.900000E-01   1.00800           0   0.00000     -0.301140E-02
     23601 MEMB     191      POPE     H2S      HAL2     0.900000E-01   1.00800           0   0.00000     -0.301140E-02
     23602 MEMB     191      POPE     C3       CTL2     0.800000E-01   12.0110           0   0.00000     -0.301140E-02
     23603 MEMB     191      POPE     HX       HAL2     0.900000E-01   1.00800           0   0.00000     -0.301140E-02
     23604 MEMB     191      POPE     HY       HAL2     0.900000E-01   1.00800           0   0.00000     -0.301140E-02
     23605 MEMB     191      POPE     O31      OSL     -0.490000       15.9994           0   0.00000     -0.301140E-02
     23606 MEMB     191      POPE     C31      CL       0.900000       12.0110           0   0.00000     -0.301140E-02
     23607 MEMB     191      POPE     O32      OBL     -0.630000       15.9994           0   0.00000     -0.301140E-02
     23608 MEMB     191      POPE     C32      CTL2    -0.220000       12.0110           0   0.00000     -0.301140E-02
     23609 MEMB     191      POPE     H2X      HAL2     0.900000E-01   1.00800           0   0.00000     -0.301140E-02
     23610 MEMB     191      POPE     H2Y      HAL2     0.900000E-01   1.00800           0   0.00000     -0.301140E-02
     23611 MEMB     191      POPE     C23      CTL2    -0.180000       12.0110           0   0.00000     -0.301140E-02
     23612 MEMB     191      POPE     H3R      HAL2     0.900000E-01   1.00800           0   0.00000     -0.301140E-02
     23613 MEMB     191      POPE     H3S      HAL2     0.900000E-01   1.00800           0   0.00000     -0.301140E-02
     23614 MEMB     191      POPE     C24      CTL2    -0.180000       12.0110           0   0.00000     -0.301140E-02
     23615 MEMB     191      POPE     H4R      HAL2     0.900000E-01   1.00800           0   0.00000     -0.301140E-02
     23616 MEMB     191      POPE     H4S      HAL2     0.900000E-01   1.00800           0   0.00000     -0.301140E-02
     23617 MEMB     191      POPE     C25      CTL2    -0.180000       12.0110           0   0.00000     -0.301140E-02
     23618 MEMB     191      POPE     H5R      HAL2     0.900000E-01   1.00800           0   0.00000     -0.301140E-02
     23619 MEMB     191      POPE     H5S      HAL2     0.900000E-01   1.00800           0   0.00000     -0.301140E-02
     23620 MEMB     191      POPE     C26      CTL2    -0.180000       12.0110           0   0.00000     -0.301140E-02
     23621 MEMB     191      POPE     H6R      HAL2     0.900000E-01   1.00800           0   0.00000     -0.301140E-02
     23622 MEMB     191      POPE     H6S      HAL2     0.900000E-01   1.00800           0   0.00000     -0.301140E-02
     23623 MEMB     191      POPE     C27      CTL2    -0.180000       12.0110           0   0.00000     -0.301140E-02
     23624 MEMB     191      POPE     H7R      HAL2     0.900000E-01   1.00800           0   0.00000     -0.301140E-02
     23625 MEMB     191      POPE     H7S      HAL2     0.900000E-01   1.00800           0   0.00000     -0.301140E-02
     23626 MEMB     191      POPE     C28      CTL2    -0.180000       12.0110           0   0.00000     -0.301140E-02
     23627 MEMB     191      POPE     H8R      HAL2     0.900000E-01   1.00800           0   0.00000     -0.301140E-02
     23628 MEMB     191      POPE     H8S      HAL2     0.900000E-01   1.00800           0   0.00000     -0.301140E-02
     23629 MEMB     191      POPE     C29      CEL1    -0.150000       12.0110           0   0.00000     -0.301140E-02
     23630 MEMB     191      POPE     H91      HEL1     0.150000       1.00800           0   0.00000     -0.301140E-02
     23631 MEMB     191      POPE     C210     CEL1    -0.150000       12.0110           0   0.00000     -0.301140E-02
     23632 MEMB     191      POPE     H101     HEL1     0.150000       1.00800           0   0.00000     -0.301140E-02
     23633 MEMB     191      POPE     C211     CTL2    -0.180000       12.0110           0   0.00000     -0.301140E-02
     23634 MEMB     191      POPE     H11R     HAL2     0.900000E-01   1.00800           0   0.00000     -0.301140E-02
     23635 MEMB     191      POPE     H11S     HAL2     0.900000E-01   1.00800           0   0.00000     -0.301140E-02
     23636 MEMB     191      POPE     C212     CTL2    -0.180000       12.0110           0   0.00000     -0.301140E-02
     23637 MEMB     191      POPE     H12R     HAL2     0.900000E-01   1.00800           0   0.00000     -0.301140E-02
     23638 MEMB     191      POPE     H12S     HAL2     0.900000E-01   1.00800           0   0.00000     -0.301140E-02
     23639 MEMB     191      POPE     C213     CTL2    -0.180000       12.0110           0   0.00000     -0.301140E-02
     23640 MEMB     191      POPE     H13R     HAL2     0.900000E-01   1.00800           0   0.00000     -0.301140E-02
     23641 MEMB     191      POPE     H13S     HAL2     0.900000E-01   1.00800           0   0.00000     -0.301140E-02
     23642 MEMB     191      POPE     C214     CTL2    -0.180000       12.0110           0   0.00000     -0.301140E-02
     23643 MEMB     191      POPE     H14R     HAL2     0.900000E-01   1.00800           0   0.00000     -0.301140E-02
     23644 MEMB     191      POPE     H14S     HAL2     0.900000E-01   1.00800           0   0.00000     -0.301140E-02
     23645 MEMB     191      POPE     C215     CTL2    -0.180000       12.0110           0   0.00000     -0.301140E-02
     23646 MEMB     191      POPE     H15R     HAL2     0.900000E-01   1.00800           0   0.00000     -0.301140E-02
     23647 MEMB     191      POPE     H15S     HAL2     0.900000E-01   1.00800           0   0.00000     -0.301140E-02
     23648 MEMB     191      POPE     C216     CTL2    -0.180000       12.0110           0   0.00000     -0.301140E-02
     23649 MEMB     191      POPE     H16R     HAL2     0.900000E-01   1.00800           0   0.00000     -0.301140E-02
     23650 MEMB     191      POPE     H16S     HAL2     0.900000E-01   1.00800           0   0.00000     -0.301140E-02
     23651 MEMB     191      POPE     C217     CTL2    -0.180000       12.0110           0   0.00000     -0.301140E-02
     23652 MEMB     191      POPE     H17R     HAL2     0.900000E-01   1.00800           0   0.00000     -0.301140E-02
     23653 MEMB     191      POPE     H17S     HAL2     0.900000E-01   1.00800           0   0.00000     -0.301140E-02
     23654 MEMB     191      POPE     C218     CTL3    -0.270000       12.0110           0   0.00000     -0.301140E-02
     23655 MEMB     191      POPE     H18R     HAL3     0.900000E-01   1.00800           0   0.00000     -0.301140E-02
     23656 MEMB     191      POPE     H18S     HAL3     0.900000E-01   1.00800           0   0.00000     -0.301140E-02
     23657 MEMB     191      POPE     H18T     HAL3     0.900000E-01   1.00800           0   0.00000     -0.301140E-02
     23658 MEMB     191      POPE     C33      CTL2    -0.180000       12.0110           0   0.00000     -0.301140E-02
     23659 MEMB     191      POPE     H3X      HAL2     0.900000E-01   1.00800           0   0.00000     -0.301140E-02
     23660 MEMB     191      POPE     H3Y      HAL2     0.900000E-01   1.00800           0   0.00000     -0.301140E-02
     23661 MEMB     191      POPE     C34      CTL2    -0.180000       12.0110           0   0.00000     -0.301140E-02
     23662 MEMB     191      POPE     H4X      HAL2     0.900000E-01   1.00800           0   0.00000     -0.301140E-02
     23663 MEMB     191      POPE     H4Y      HAL2     0.900000E-01   1.00800           0   0.00000     -0.301140E-02
     23664 MEMB     191      POPE     C35      CTL2    -0.180000       12.0110           0   0.00000     -0.301140E-02
     23665 MEMB     191      POPE     H5X      HAL2     0.900000E-01   1.00800           0   0.00000     -0.301140E-02
     23666 MEMB     191      POPE     H5Y      HAL2     0.900000E-01   1.00800           0   0.00000     -0.301140E-02
     23667 MEMB     191      POPE     C36      CTL2    -0.180000       12.0110           0   0.00000     -0.301140E-02
     23668 MEMB     191      POPE     H6X      HAL2     0.900000E-01   1.00800           0   0.00000     -0.301140E-02
     23669 MEMB     191      POPE     H6Y      HAL2     0.900000E-01   1.00800           0   0.00000     -0.301140E-02
     23670 MEMB     191      POPE     C37      CTL2    -0.180000       12.0110           0   0.00000     -0.301140E-02
     23671 MEMB     191      POPE     H7X      HAL2     0.900000E-01   1.00800           0   0.00000     -0.301140E-02
     23672 MEMB     191      POPE     H7Y      HAL2     0.900000E-01   1.00800           0   0.00000     -0.301140E-02
     23673 MEMB     191      POPE     C38      CTL2    -0.180000       12.0110           0   0.00000     -0.301140E-02
     23674 MEMB     191      POPE     H8X      HAL2     0.900000E-01   1.00800           0   0.00000     -0.301140E-02
     23675 MEMB     191      POPE     H8Y      HAL2     0.900000E-01   1.00800           0   0.00000     -0.301140E-02
     23676 MEMB     191      POPE     C39      CTL2    -0.180000       12.0110           0   0.00000     -0.301140E-02
     23677 MEMB     191      POPE     H9X      HAL2     0.900000E-01   1.00800           0   0.00000     -0.301140E-02
     23678 MEMB     191      POPE     H9Y      HAL2     0.900000E-01   1.00800           0   0.00000     -0.301140E-02
     23679 MEMB     191      POPE     C310     CTL2    -0.180000       12.0110           0   0.00000     -0.301140E-02
     23680 MEMB     191      POPE     H10X     HAL2     0.900000E-01   1.00800           0   0.00000     -0.301140E-02
     23681 MEMB     191      POPE     H10Y     HAL2     0.900000E-01   1.00800           0   0.00000     -0.301140E-02
     23682 MEMB     191      POPE     C311     CTL2    -0.180000       12.0110           0   0.00000     -0.301140E-02
     23683 MEMB     191      POPE     H11X     HAL2     0.900000E-01   1.00800           0   0.00000     -0.301140E-02
     23684 MEMB     191      POPE     H11Y     HAL2     0.900000E-01   1.00800           0   0.00000     -0.301140E-02
     23685 MEMB     191      POPE     C312     CTL2    -0.180000       12.0110           0   0.00000     -0.301140E-02
     23686 MEMB     191      POPE     H12X     HAL2     0.900000E-01   1.00800           0   0.00000     -0.301140E-02
     23687 MEMB     191      POPE     H12Y     HAL2     0.900000E-01   1.00800           0   0.00000     -0.301140E-02
     23688 MEMB     191      POPE     C313     CTL2    -0.180000       12.0110           0   0.00000     -0.301140E-02
     23689 MEMB     191      POPE     H13X     HAL2     0.900000E-01   1.00800           0   0.00000     -0.301140E-02
     23690 MEMB     191      POPE     H13Y     HAL2     0.900000E-01   1.00800           0   0.00000     -0.301140E-02
     23691 MEMB     191      POPE     C314     CTL2    -0.180000       12.0110           0   0.00000     -0.301140E-02
     23692 MEMB     191      POPE     H14X     HAL2     0.900000E-01   1.00800           0   0.00000     -0.301140E-02
     23693 MEMB     191      POPE     H14Y     HAL2     0.900000E-01   1.00800           0   0.00000     -0.301140E-02
     23694 MEMB     191      POPE     C315     CTL2    -0.180000       12.0110           0   0.00000     -0.301140E-02
     23695 MEMB     191      POPE     H15X     HAL2     0.900000E-01   1.00800           0   0.00000     -0.301140E-02
     23696 MEMB     191      POPE     H15Y     HAL2     0.900000E-01   1.00800           0   0.00000     -0.301140E-02
     23697 MEMB     191      POPE     C316     CTL3    -0.270000       12.0110           0   0.00000     -0.301140E-02
     23698 MEMB     191      POPE     H16X     HAL3     0.900000E-01   1.00800           0   0.00000     -0.301140E-02
     23699 MEMB     191      POPE     H16Y     HAL3     0.900000E-01   1.00800           0   0.00000     -0.301140E-02
     23700 MEMB     191      POPE     H16Z     HAL3     0.900000E-01   1.00800           0   0.00000     -0.301140E-02
     23701 MEMB     192      PYPG     C13      CTL2     0.500000E-01   12.0110           0   0.00000     -0.301140E-02
     23702 MEMB     192      PYPG     H13A     HAL2     0.900000E-01   1.00800           0   0.00000     -0.301140E-02
     23703 MEMB     192      PYPG     H13B     HAL2     0.900000E-01   1.00800           0   0.00000     -0.301140E-02
     23704 MEMB     192      PYPG     OC3      OHL     -0.660000       15.9994           0   0.00000     -0.301140E-02
     23705 MEMB     192      PYPG     HO3      HOL      0.430000       1.00800           0   0.00000     -0.301140E-02
     23706 MEMB     192      PYPG     C12      CTL1     0.140000       12.0110           0   0.00000     -0.301140E-02
     23707 MEMB     192      PYPG     H12A     HAL1     0.900000E-01   1.00800           0   0.00000     -0.301140E-02
     23708 MEMB     192      PYPG     OC2      OHL     -0.660000       15.9994           0   0.00000     -0.301140E-02
     23709 MEMB     192      PYPG     HO2      HOL      0.430000       1.00800           0   0.00000     -0.301140E-02
     23710 MEMB     192      PYPG     C11      CTL2    -0.800000E-01   12.0110           0   0.00000     -0.301140E-02
     23711 MEMB     192      PYPG     H11A     HAL2     0.900000E-01   1.00800           0   0.00000     -0.301140E-02
     23712 MEMB     192      PYPG     H11B     HAL2     0.900000E-01   1.00800           0   0.00000     -0.301140E-02
     23713 MEMB     192      PYPG     P        PL        1.50000       30.9740           0   0.00000     -0.301140E-02
     23714 MEMB     192      PYPG     O13      O2L     -0.780000       15.9994           0   0.00000     -0.301140E-02
     23715 MEMB     192      PYPG     O14      O2L     -0.780000       15.9994           0   0.00000     -0.301140E-02
     23716 MEMB     192      PYPG     O11      OSLP    -0.570000       15.9994           0   0.00000     -0.301140E-02
     23717 MEMB     192      PYPG     O12      OSLP    -0.570000       15.9994           0   0.00000     -0.301140E-02
     23718 MEMB     192      PYPG     C1       CTL2    -0.800000E-01   12.0110           0   0.00000     -0.301140E-02
     23719 MEMB     192      PYPG     HA       HAL2     0.900000E-01   1.00800           0   0.00000     -0.301140E-02
     23720 MEMB     192      PYPG     HB       HAL2     0.900000E-01   1.00800           0   0.00000     -0.301140E-02
     23721 MEMB     192      PYPG     C2       CTL1     0.170000       12.0110           0   0.00000     -0.301140E-02
     23722 MEMB     192      PYPG     HS       HAL1     0.900000E-01   1.00800           0   0.00000     -0.301140E-02
     23723 MEMB     192      PYPG     O21      OSL     -0.490000       15.9994           0   0.00000     -0.301140E-02
     23724 MEMB     192      PYPG     C21      CL       0.900000       12.0110           0   0.00000     -0.301140E-02
     23725 MEMB     192      PYPG     O22      OBL     -0.630000       15.9994           0   0.00000     -0.301140E-02
     23726 MEMB     192      PYPG     C22      CTL2    -0.220000       12.0110           0   0.00000     -0.301140E-02
     23727 MEMB     192      PYPG     H2R      HAL2     0.900000E-01   1.00800           0   0.00000     -0.301140E-02
     23728 MEMB     192      PYPG     H2S      HAL2     0.900000E-01   1.00800           0   0.00000     -0.301140E-02
     23729 MEMB     192      PYPG     C3       CTL2     0.800000E-01   12.0110           0   0.00000     -0.301140E-02
     23730 MEMB     192      PYPG     HX       HAL2     0.900000E-01   1.00800           0   0.00000     -0.301140E-02
     23731 MEMB     192      PYPG     HY       HAL2     0.900000E-01   1.00800           0   0.00000     -0.301140E-02
     23732 MEMB     192      PYPG     O31      OSL     -0.490000       15.9994           0   0.00000     -0.301140E-02
     23733 MEMB     192      PYPG     C31      CL       0.900000       12.0110           0   0.00000     -0.301140E-02
     23734 MEMB     192      PYPG     O32      OBL     -0.630000       15.9994           0   0.00000     -0.301140E-02
     23735 MEMB     192      PYPG     C32      CTL2    -0.220000       12.0110           0   0.00000     -0.301140E-02
     23736 MEMB     192      PYPG     H2X      HAL2     0.900000E-01   1.00800           0   0.00000     -0.301140E-02
     23737 MEMB     192      PYPG     H2Y      HAL2     0.900000E-01   1.00800           0   0.00000     -0.301140E-02
     23738 MEMB     192      PYPG     C23      CTL2    -0.180000       12.0110           0   0.00000     -0.301140E-02
     23739 MEMB     192      PYPG     H3R      HAL2     0.900000E-01   1.00800           0   0.00000     -0.301140E-02
     23740 MEMB     192      PYPG     H3S      HAL2     0.900000E-01   1.00800           0   0.00000     -0.301140E-02
     23741 MEMB     192      PYPG     C24      CTL2    -0.180000       12.0110           0   0.00000     -0.301140E-02
     23742 MEMB     192      PYPG     H4R      HAL2     0.900000E-01   1.00800           0   0.00000     -0.301140E-02
     23743 MEMB     192      PYPG     H4S      HAL2     0.900000E-01   1.00800           0   0.00000     -0.301140E-02
     23744 MEMB     192      PYPG     C25      CTL2    -0.180000       12.0110           0   0.00000     -0.301140E-02
     23745 MEMB     192      PYPG     H5R      HAL2     0.900000E-01   1.00800           0   0.00000     -0.301140E-02
     23746 MEMB     192      PYPG     H5S      HAL2     0.900000E-01   1.00800           0   0.00000     -0.301140E-02
     23747 MEMB     192      PYPG     C26      CTL2    -0.180000       12.0110           0   0.00000     -0.301140E-02
     23748 MEMB     192      PYPG     H6R      HAL2     0.900000E-01   1.00800           0   0.00000     -0.301140E-02
     23749 MEMB     192      PYPG     H6S      HAL2     0.900000E-01   1.00800           0   0.00000     -0.301140E-02
     23750 MEMB     192      PYPG     C27      CTL2    -0.180000       12.0110           0   0.00000     -0.301140E-02
     23751 MEMB     192      PYPG     H7R      HAL2     0.900000E-01   1.00800           0   0.00000     -0.301140E-02
     23752 MEMB     192      PYPG     H7S      HAL2     0.900000E-01   1.00800           0   0.00000     -0.301140E-02
     23753 MEMB     192      PYPG     C28      CTL2    -0.180000       12.0110           0   0.00000     -0.301140E-02
     23754 MEMB     192      PYPG     H8R      HAL2     0.900000E-01   1.00800           0   0.00000     -0.301140E-02
     23755 MEMB     192      PYPG     H8S      HAL2     0.900000E-01   1.00800           0   0.00000     -0.301140E-02
     23756 MEMB     192      PYPG     C29      CEL1    -0.150000       12.0110           0   0.00000     -0.301140E-02
     23757 MEMB     192      PYPG     H9R      HEL1     0.150000       1.00800           0   0.00000     -0.301140E-02
     23758 MEMB     192      PYPG     C210     CEL1    -0.150000       12.0110           0   0.00000     -0.301140E-02
     23759 MEMB     192      PYPG     H10R     HEL1     0.150000       1.00800           0   0.00000     -0.301140E-02
     23760 MEMB     192      PYPG     C211     CTL2    -0.180000       12.0110           0   0.00000     -0.301140E-02
     23761 MEMB     192      PYPG     H11R     HAL2     0.900000E-01   1.00800           0   0.00000     -0.301140E-02
     23762 MEMB     192      PYPG     H11S     HAL2     0.900000E-01   1.00800           0   0.00000     -0.301140E-02
     23763 MEMB     192      PYPG     C212     CTL2    -0.180000       12.0110           0   0.00000     -0.301140E-02
     23764 MEMB     192      PYPG     H12R     HAL2     0.900000E-01   1.00800           0   0.00000     -0.301140E-02
     23765 MEMB     192      PYPG     H12S     HAL2     0.900000E-01   1.00800           0   0.00000     -0.301140E-02
     23766 MEMB     192      PYPG     C213     CTL2    -0.180000       12.0110           0   0.00000     -0.301140E-02
     23767 MEMB     192      PYPG     H13R     HAL2     0.900000E-01   1.00800           0   0.00000     -0.301140E-02
     23768 MEMB     192      PYPG     H13S     HAL2     0.900000E-01   1.00800           0   0.00000     -0.301140E-02
     23769 MEMB     192      PYPG     C214     CTL2    -0.180000       12.0110           0   0.00000     -0.301140E-02
     23770 MEMB     192      PYPG     H14R     HAL2     0.900000E-01   1.00800           0   0.00000     -0.301140E-02
     23771 MEMB     192      PYPG     H14S     HAL2     0.900000E-01   1.00800           0   0.00000     -0.301140E-02
     23772 MEMB     192      PYPG     C215     CTL2    -0.180000       12.0110           0   0.00000     -0.301140E-02
     23773 MEMB     192      PYPG     H15R     HAL2     0.900000E-01   1.00800           0   0.00000     -0.301140E-02
     23774 MEMB     192      PYPG     H15S     HAL2     0.900000E-01   1.00800           0   0.00000     -0.301140E-02
     23775 MEMB     192      PYPG     C216     CTL3    -0.270000       12.0110           0   0.00000     -0.301140E-02
     23776 MEMB     192      PYPG     H16R     HAL3     0.900000E-01   1.00800           0   0.00000     -0.301140E-02
     23777 MEMB     192      PYPG     H16S     HAL3     0.900000E-01   1.00800           0   0.00000     -0.301140E-02
     23778 MEMB     192      PYPG     H16T     HAL3     0.900000E-01   1.00800           0   0.00000     -0.301140E-02
     23779 MEMB     192      PYPG     C33      CTL2    -0.180000       12.0110           0   0.00000     -0.301140E-02
     23780 MEMB     192      PYPG     H3X      HAL2     0.900000E-01   1.00800           0   0.00000     -0.301140E-02
     23781 MEMB     192      PYPG     H3Y      HAL2     0.900000E-01   1.00800           0   0.00000     -0.301140E-02
     23782 MEMB     192      PYPG     C34      CTL2    -0.180000       12.0110           0   0.00000     -0.301140E-02
     23783 MEMB     192      PYPG     H4X      HAL2     0.900000E-01   1.00800           0   0.00000     -0.301140E-02
     23784 MEMB     192      PYPG     H4Y      HAL2     0.900000E-01   1.00800           0   0.00000     -0.301140E-02
     23785 MEMB     192      PYPG     C35      CTL2    -0.180000       12.0110           0   0.00000     -0.301140E-02
     23786 MEMB     192      PYPG     H5X      HAL2     0.900000E-01   1.00800           0   0.00000     -0.301140E-02
     23787 MEMB     192      PYPG     H5Y      HAL2     0.900000E-01   1.00800           0   0.00000     -0.301140E-02
     23788 MEMB     192      PYPG     C36      CTL2    -0.180000       12.0110           0   0.00000     -0.301140E-02
     23789 MEMB     192      PYPG     H6X      HAL2     0.900000E-01   1.00800           0   0.00000     -0.301140E-02
     23790 MEMB     192      PYPG     H6Y      HAL2     0.900000E-01   1.00800           0   0.00000     -0.301140E-02
     23791 MEMB     192      PYPG     C37      CTL2    -0.180000       12.0110           0   0.00000     -0.301140E-02
     23792 MEMB     192      PYPG     H7X      HAL2     0.900000E-01   1.00800           0   0.00000     -0.301140E-02
     23793 MEMB     192      PYPG     H7Y      HAL2     0.900000E-01   1.00800           0   0.00000     -0.301140E-02
     23794 MEMB     192      PYPG     C38      CTL2    -0.180000       12.0110           0   0.00000     -0.301140E-02
     23795 MEMB     192      PYPG     H8X      HAL2     0.900000E-01   1.00800           0   0.00000     -0.301140E-02
     23796 MEMB     192      PYPG     H8Y      HAL2     0.900000E-01   1.00800           0   0.00000     -0.301140E-02
     23797 MEMB     192      PYPG     C39      CTL2    -0.180000       12.0110           0   0.00000     -0.301140E-02
     23798 MEMB     192      PYPG     H9X      HAL2     0.900000E-01   1.00800           0   0.00000     -0.301140E-02
     23799 MEMB     192      PYPG     H9Y      HAL2     0.900000E-01   1.00800           0   0.00000     -0.301140E-02
     23800 MEMB     192      PYPG     C310     CTL2    -0.180000       12.0110           0   0.00000     -0.301140E-02
     23801 MEMB     192      PYPG     H10X     HAL2     0.900000E-01   1.00800           0   0.00000     -0.301140E-02
     23802 MEMB     192      PYPG     H10Y     HAL2     0.900000E-01   1.00800           0   0.00000     -0.301140E-02
     23803 MEMB     192      PYPG     C311     CTL2    -0.180000       12.0110           0   0.00000     -0.301140E-02
     23804 MEMB     192      PYPG     H11X     HAL2     0.900000E-01   1.00800           0   0.00000     -0.301140E-02
     23805 MEMB     192      PYPG     H11Y     HAL2     0.900000E-01   1.00800           0   0.00000     -0.301140E-02
     23806 MEMB     192      PYPG     C312     CTL2    -0.180000       12.0110           0   0.00000     -0.301140E-02
     23807 MEMB     192      PYPG     H12X     HAL2     0.900000E-01   1.00800           0   0.00000     -0.301140E-02
     23808 MEMB     192      PYPG     H12Y     HAL2     0.900000E-01   1.00800           0   0.00000     -0.301140E-02
     23809 MEMB     192      PYPG     C313     CTL2    -0.180000       12.0110           0   0.00000     -0.301140E-02
     23810 MEMB     192      PYPG     H13X     HAL2     0.900000E-01   1.00800           0   0.00000     -0.301140E-02
     23811 MEMB     192      PYPG     H13Y     HAL2     0.900000E-01   1.00800           0   0.00000     -0.301140E-02
     23812 MEMB     192      PYPG     C314     CTL2    -0.180000       12.0110           0   0.00000     -0.301140E-02
     23813 MEMB     192      PYPG     H14X     HAL2     0.900000E-01   1.00800           0   0.00000     -0.301140E-02
     23814 MEMB     192      PYPG     H14Y     HAL2     0.900000E-01   1.00800           0   0.00000     -0.301140E-02
     23815 MEMB     192      PYPG     C315     CTL2    -0.180000       12.0110           0   0.00000     -0.301140E-02
     23816 MEMB     192      PYPG     H15X     HAL2     0.900000E-01   1.00800           0   0.00000     -0.301140E-02
     23817 MEMB     192      PYPG     H15Y     HAL2     0.900000E-01   1.00800           0   0.00000     -0.301140E-02
     23818 MEMB     192      PYPG     C316     CTL3    -0.270000       12.0110           0   0.00000     -0.301140E-02
     23819 MEMB     192      PYPG     H16X     HAL3     0.900000E-01   1.00800           0   0.00000     -0.301140E-02
     23820 MEMB     192      PYPG     H16Y     HAL3     0.900000E-01   1.00800           0   0.00000     -0.301140E-02
     23821 MEMB     192      PYPG     H16Z     HAL3     0.900000E-01   1.00800           0   0.00000     -0.301140E-02
     23822 MEMB     193      QMPE     N        NH3L    -0.300000       14.0070           0   0.00000     -0.301140E-02
     23823 MEMB     193      QMPE     HN1      HCL      0.330000       1.00800           0   0.00000     -0.301140E-02
     23824 MEMB     193      QMPE     HN2      HCL      0.330000       1.00800           0   0.00000     -0.301140E-02
     23825 MEMB     193      QMPE     HN3      HCL      0.330000       1.00800           0   0.00000     -0.301140E-02
     23826 MEMB     193      QMPE     C12      CTL2     0.130000       12.0110           0   0.00000     -0.301140E-02
     23827 MEMB     193      QMPE     H12A     HAL2     0.900000E-01   1.00800           0   0.00000     -0.301140E-02
     23828 MEMB     193      QMPE     H12B     HAL2     0.900000E-01   1.00800           0   0.00000     -0.301140E-02
     23829 MEMB     193      QMPE     C11      CTL2    -0.800000E-01   12.0110           0   0.00000     -0.301140E-02
     23830 MEMB     193      QMPE     H11A     HAL2     0.900000E-01   1.00800           0   0.00000     -0.301140E-02
     23831 MEMB     193      QMPE     H11B     HAL2     0.900000E-01   1.00800           0   0.00000     -0.301140E-02
     23832 MEMB     193      QMPE     P        PL        1.50000       30.9740           0   0.00000     -0.301140E-02
     23833 MEMB     193      QMPE     O13      O2L     -0.780000       15.9994           0   0.00000     -0.301140E-02
     23834 MEMB     193      QMPE     O14      O2L     -0.780000       15.9994           0   0.00000     -0.301140E-02
     23835 MEMB     193      QMPE     O11      OSLP    -0.570000       15.9994           0   0.00000     -0.301140E-02
     23836 MEMB     193      QMPE     O12      OSLP    -0.570000       15.9994           0   0.00000     -0.301140E-02
     23837 MEMB     193      QMPE     C1       CTL2    -0.800000E-01   12.0110           0   0.00000     -0.301140E-02
     23838 MEMB     193      QMPE     HA       HAL2     0.900000E-01   1.00800           0   0.00000     -0.301140E-02
     23839 MEMB     193      QMPE     HB       HAL2     0.900000E-01   1.00800           0   0.00000     -0.301140E-02
     23840 MEMB     193      QMPE     C2       CTL1     0.170000       12.0110           0   0.00000     -0.301140E-02
     23841 MEMB     193      QMPE     HS       HAL1     0.900000E-01   1.00800           0   0.00000     -0.301140E-02
     23842 MEMB     193      QMPE     O21      OSL     -0.490000       15.9994           0   0.00000     -0.301140E-02
     23843 MEMB     193      QMPE     C21      CL       0.900000       12.0110           0   0.00000     -0.301140E-02
     23844 MEMB     193      QMPE     O22      OBL     -0.630000       15.9994           0   0.00000     -0.301140E-02
     23845 MEMB     193      QMPE     C22      CTL2    -0.220000       12.0110           0   0.00000     -0.301140E-02
     23846 MEMB     193      QMPE     H2R      HAL2     0.900000E-01   1.00800           0   0.00000     -0.301140E-02
     23847 MEMB     193      QMPE     H2S      HAL2     0.900000E-01   1.00800           0   0.00000     -0.301140E-02
     23848 MEMB     193      QMPE     C3       CTL2     0.800000E-01   12.0110           0   0.00000     -0.301140E-02
     23849 MEMB     193      QMPE     HX       HAL2     0.900000E-01   1.00800           0   0.00000     -0.301140E-02
     23850 MEMB     193      QMPE     HY       HAL2     0.900000E-01   1.00800           0   0.00000     -0.301140E-02
     23851 MEMB     193      QMPE     O31      OSL     -0.490000       15.9994           0   0.00000     -0.301140E-02
     23852 MEMB     193      QMPE     C31      CL       0.900000       12.0110           0   0.00000     -0.301140E-02
     23853 MEMB     193      QMPE     O32      OBL     -0.630000       15.9994           0   0.00000     -0.301140E-02
     23854 MEMB     193      QMPE     C32      CTL2    -0.220000       12.0110           0   0.00000     -0.301140E-02
     23855 MEMB     193      QMPE     H2X      HAL2     0.900000E-01   1.00800           0   0.00000     -0.301140E-02
     23856 MEMB     193      QMPE     H2Y      HAL2     0.900000E-01   1.00800           0   0.00000     -0.301140E-02
     23857 MEMB     193      QMPE     C23      CTL2    -0.180000       12.0110           0   0.00000     -0.301140E-02
     23858 MEMB     193      QMPE     H3R      HAL2     0.900000E-01   1.00800           0   0.00000     -0.301140E-02
     23859 MEMB     193      QMPE     H3S      HAL2     0.900000E-01   1.00800           0   0.00000     -0.301140E-02
     23860 MEMB     193      QMPE     C24      CTL2    -0.180000       12.0110           0   0.00000     -0.301140E-02
     23861 MEMB     193      QMPE     H4R      HAL2     0.900000E-01   1.00800           0   0.00000     -0.301140E-02
     23862 MEMB     193      QMPE     H4S      HAL2     0.900000E-01   1.00800           0   0.00000     -0.301140E-02
     23863 MEMB     193      QMPE     C25      CTL2    -0.180000       12.0110           0   0.00000     -0.301140E-02
     23864 MEMB     193      QMPE     H5R      HAL2     0.900000E-01   1.00800           0   0.00000     -0.301140E-02
     23865 MEMB     193      QMPE     H5S      HAL2     0.900000E-01   1.00800           0   0.00000     -0.301140E-02
     23866 MEMB     193      QMPE     C26      CTL2    -0.180000       12.0110           0   0.00000     -0.301140E-02
     23867 MEMB     193      QMPE     H6R      HAL2     0.900000E-01   1.00800           0   0.00000     -0.301140E-02
     23868 MEMB     193      QMPE     H6S      HAL2     0.900000E-01   1.00800           0   0.00000     -0.301140E-02
     23869 MEMB     193      QMPE     C27      CTL2    -0.180000       12.0110           0   0.00000     -0.301140E-02
     23870 MEMB     193      QMPE     H7R      HAL2     0.900000E-01   1.00800           0   0.00000     -0.301140E-02
     23871 MEMB     193      QMPE     H7S      HAL2     0.900000E-01   1.00800           0   0.00000     -0.301140E-02
     23872 MEMB     193      QMPE     C28      CTL2    -0.180000       12.0110           0   0.00000     -0.301140E-02
     23873 MEMB     193      QMPE     H8R      HAL2     0.900000E-01   1.00800           0   0.00000     -0.301140E-02
     23874 MEMB     193      QMPE     H8S      HAL2     0.900000E-01   1.00800           0   0.00000     -0.301140E-02
     23875 MEMB     193      QMPE     C29      CG3RC1  -0.900000E-01   12.0110           0   0.00000     -0.301140E-02
     23876 MEMB     193      QMPE     H9R      HGA1     0.900000E-01   1.00800           0   0.00000     -0.301140E-02
     23877 MEMB     193      QMPE     C217     CG3C31  -0.180000       12.0110           0   0.00000     -0.301140E-02
     23878 MEMB     193      QMPE     H17R     HGA2     0.900000E-01   1.00800           0   0.00000     -0.301140E-02
     23879 MEMB     193      QMPE     H17S     HGA2     0.900000E-01   1.00800           0   0.00000     -0.301140E-02
     23880 MEMB     193      QMPE     C210     CG3RC1  -0.900000E-01   12.0110           0   0.00000     -0.301140E-02
     23881 MEMB     193      QMPE     H10R     HGA1     0.900000E-01   1.00800           0   0.00000     -0.301140E-02
     23882 MEMB     193      QMPE     C211     CTL2    -0.180000       12.0110           0   0.00000     -0.301140E-02
     23883 MEMB     193      QMPE     H11R     HAL2     0.900000E-01   1.00800           0   0.00000     -0.301140E-02
     23884 MEMB     193      QMPE     H11S     HAL2     0.900000E-01   1.00800           0   0.00000     -0.301140E-02
     23885 MEMB     193      QMPE     C212     CTL2    -0.180000       12.0110           0   0.00000     -0.301140E-02
     23886 MEMB     193      QMPE     H12R     HAL2     0.900000E-01   1.00800           0   0.00000     -0.301140E-02
     23887 MEMB     193      QMPE     H12S     HAL2     0.900000E-01   1.00800           0   0.00000     -0.301140E-02
     23888 MEMB     193      QMPE     C213     CTL2    -0.180000       12.0110           0   0.00000     -0.301140E-02
     23889 MEMB     193      QMPE     H13R     HAL2     0.900000E-01   1.00800           0   0.00000     -0.301140E-02
     23890 MEMB     193      QMPE     H13S     HAL2     0.900000E-01   1.00800           0   0.00000     -0.301140E-02
     23891 MEMB     193      QMPE     C214     CTL2    -0.180000       12.0110           0   0.00000     -0.301140E-02
     23892 MEMB     193      QMPE     H14R     HAL2     0.900000E-01   1.00800           0   0.00000     -0.301140E-02
     23893 MEMB     193      QMPE     H14S     HAL2     0.900000E-01   1.00800           0   0.00000     -0.301140E-02
     23894 MEMB     193      QMPE     C215     CTL2    -0.180000       12.0110           0   0.00000     -0.301140E-02
     23895 MEMB     193      QMPE     H15R     HAL2     0.900000E-01   1.00800           0   0.00000     -0.301140E-02
     23896 MEMB     193      QMPE     H15S     HAL2     0.900000E-01   1.00800           0   0.00000     -0.301140E-02
     23897 MEMB     193      QMPE     C216     CTL3    -0.270000       12.0110           0   0.00000     -0.301140E-02
     23898 MEMB     193      QMPE     H16R     HAL3     0.900000E-01   1.00800           0   0.00000     -0.301140E-02
     23899 MEMB     193      QMPE     H16S     HAL3     0.900000E-01   1.00800           0   0.00000     -0.301140E-02
     23900 MEMB     193      QMPE     H16T     HAL3     0.900000E-01   1.00800           0   0.00000     -0.301140E-02
     23901 MEMB     193      QMPE     C33      CTL2    -0.180000       12.0110           0   0.00000     -0.301140E-02
     23902 MEMB     193      QMPE     H3X      HAL2     0.900000E-01   1.00800           0   0.00000     -0.301140E-02
     23903 MEMB     193      QMPE     H3Y      HAL2     0.900000E-01   1.00800           0   0.00000     -0.301140E-02
     23904 MEMB     193      QMPE     C34      CTL2    -0.180000       12.0110           0   0.00000     -0.301140E-02
     23905 MEMB     193      QMPE     H4X      HAL2     0.900000E-01   1.00800           0   0.00000     -0.301140E-02
     23906 MEMB     193      QMPE     H4Y      HAL2     0.900000E-01   1.00800           0   0.00000     -0.301140E-02
     23907 MEMB     193      QMPE     C35      CTL2    -0.180000       12.0110           0   0.00000     -0.301140E-02
     23908 MEMB     193      QMPE     H5X      HAL2     0.900000E-01   1.00800           0   0.00000     -0.301140E-02
     23909 MEMB     193      QMPE     H5Y      HAL2     0.900000E-01   1.00800           0   0.00000     -0.301140E-02
     23910 MEMB     193      QMPE     C36      CTL2    -0.180000       12.0110           0   0.00000     -0.301140E-02
     23911 MEMB     193      QMPE     H6X      HAL2     0.900000E-01   1.00800           0   0.00000     -0.301140E-02
     23912 MEMB     193      QMPE     H6Y      HAL2     0.900000E-01   1.00800           0   0.00000     -0.301140E-02
     23913 MEMB     193      QMPE     C37      CTL2    -0.180000       12.0110           0   0.00000     -0.301140E-02
     23914 MEMB     193      QMPE     H7X      HAL2     0.900000E-01   1.00800           0   0.00000     -0.301140E-02
     23915 MEMB     193      QMPE     H7Y      HAL2     0.900000E-01   1.00800           0   0.00000     -0.301140E-02
     23916 MEMB     193      QMPE     C38      CTL2    -0.180000       12.0110           0   0.00000     -0.301140E-02
     23917 MEMB     193      QMPE     H8X      HAL2     0.900000E-01   1.00800           0   0.00000     -0.301140E-02
     23918 MEMB     193      QMPE     H8Y      HAL2     0.900000E-01   1.00800           0   0.00000     -0.301140E-02
     23919 MEMB     193      QMPE     C39      CTL2    -0.180000       12.0110           0   0.00000     -0.301140E-02
     23920 MEMB     193      QMPE     H9X      HAL2     0.900000E-01   1.00800           0   0.00000     -0.301140E-02
     23921 MEMB     193      QMPE     H9Y      HAL2     0.900000E-01   1.00800           0   0.00000     -0.301140E-02
     23922 MEMB     193      QMPE     C310     CTL2    -0.180000       12.0110           0   0.00000     -0.301140E-02
     23923 MEMB     193      QMPE     H10X     HAL2     0.900000E-01   1.00800           0   0.00000     -0.301140E-02
     23924 MEMB     193      QMPE     H10Y     HAL2     0.900000E-01   1.00800           0   0.00000     -0.301140E-02
     23925 MEMB     193      QMPE     C311     CTL2    -0.180000       12.0110           0   0.00000     -0.301140E-02
     23926 MEMB     193      QMPE     H11X     HAL2     0.900000E-01   1.00800           0   0.00000     -0.301140E-02
     23927 MEMB     193      QMPE     H11Y     HAL2     0.900000E-01   1.00800           0   0.00000     -0.301140E-02
     23928 MEMB     193      QMPE     C312     CTL2    -0.180000       12.0110           0   0.00000     -0.301140E-02
     23929 MEMB     193      QMPE     H12X     HAL2     0.900000E-01   1.00800           0   0.00000     -0.301140E-02
     23930 MEMB     193      QMPE     H12Y     HAL2     0.900000E-01   1.00800           0   0.00000     -0.301140E-02
     23931 MEMB     193      QMPE     C313     CTL2    -0.180000       12.0110           0   0.00000     -0.301140E-02
     23932 MEMB     193      QMPE     H13X     HAL2     0.900000E-01   1.00800           0   0.00000     -0.301140E-02
     23933 MEMB     193      QMPE     H13Y     HAL2     0.900000E-01   1.00800           0   0.00000     -0.301140E-02
     23934 MEMB     193      QMPE     C314     CTL2    -0.180000       12.0110           0   0.00000     -0.301140E-02
     23935 MEMB     193      QMPE     H14X     HAL2     0.900000E-01   1.00800           0   0.00000     -0.301140E-02
     23936 MEMB     193      QMPE     H14Y     HAL2     0.900000E-01   1.00800           0   0.00000     -0.301140E-02
     23937 MEMB     193      QMPE     C315     CTL3    -0.270000       12.0110           0   0.00000     -0.301140E-02
     23938 MEMB     193      QMPE     H15X     HAL3     0.900000E-01   1.00800           0   0.00000     -0.301140E-02
     23939 MEMB     193      QMPE     H15Y     HAL3     0.900000E-01   1.00800           0   0.00000     -0.301140E-02
     23940 MEMB     193      QMPE     H15Z     HAL3     0.900000E-01   1.00800           0   0.00000     -0.301140E-02
     23941 MEMB     194      PMPE     N        NH3L    -0.300000       14.0070           0   0.00000     -0.301140E-02
     23942 MEMB     194      PMPE     HN1      HCL      0.330000       1.00800           0   0.00000     -0.301140E-02
     23943 MEMB     194      PMPE     HN2      HCL      0.330000       1.00800           0   0.00000     -0.301140E-02
     23944 MEMB     194      PMPE     HN3      HCL      0.330000       1.00800           0   0.00000     -0.301140E-02
     23945 MEMB     194      PMPE     C12      CTL2     0.130000       12.0110           0   0.00000     -0.301140E-02
     23946 MEMB     194      PMPE     H12A     HAL2     0.900000E-01   1.00800           0   0.00000     -0.301140E-02
     23947 MEMB     194      PMPE     H12B     HAL2     0.900000E-01   1.00800           0   0.00000     -0.301140E-02
     23948 MEMB     194      PMPE     C11      CTL2    -0.800000E-01   12.0110           0   0.00000     -0.301140E-02
     23949 MEMB     194      PMPE     H11A     HAL2     0.900000E-01   1.00800           0   0.00000     -0.301140E-02
     23950 MEMB     194      PMPE     H11B     HAL2     0.900000E-01   1.00800           0   0.00000     -0.301140E-02
     23951 MEMB     194      PMPE     P        PL        1.50000       30.9740           0   0.00000     -0.301140E-02
     23952 MEMB     194      PMPE     O13      O2L     -0.780000       15.9994           0   0.00000     -0.301140E-02
     23953 MEMB     194      PMPE     O14      O2L     -0.780000       15.9994           0   0.00000     -0.301140E-02
     23954 MEMB     194      PMPE     O11      OSLP    -0.570000       15.9994           0   0.00000     -0.301140E-02
     23955 MEMB     194      PMPE     O12      OSLP    -0.570000       15.9994           0   0.00000     -0.301140E-02
     23956 MEMB     194      PMPE     C1       CTL2    -0.800000E-01   12.0110           0   0.00000     -0.301140E-02
     23957 MEMB     194      PMPE     HA       HAL2     0.900000E-01   1.00800           0   0.00000     -0.301140E-02
     23958 MEMB     194      PMPE     HB       HAL2     0.900000E-01   1.00800           0   0.00000     -0.301140E-02
     23959 MEMB     194      PMPE     C2       CTL1     0.170000       12.0110           0   0.00000     -0.301140E-02
     23960 MEMB     194      PMPE     HS       HAL1     0.900000E-01   1.00800           0   0.00000     -0.301140E-02
     23961 MEMB     194      PMPE     O21      OSL     -0.490000       15.9994           0   0.00000     -0.301140E-02
     23962 MEMB     194      PMPE     C21      CL       0.900000       12.0110           0   0.00000     -0.301140E-02
     23963 MEMB     194      PMPE     O22      OBL     -0.630000       15.9994           0   0.00000     -0.301140E-02
     23964 MEMB     194      PMPE     C22      CTL2    -0.220000       12.0110           0   0.00000     -0.301140E-02
     23965 MEMB     194      PMPE     H2R      HAL2     0.900000E-01   1.00800           0   0.00000     -0.301140E-02
     23966 MEMB     194      PMPE     H2S      HAL2     0.900000E-01   1.00800           0   0.00000     -0.301140E-02
     23967 MEMB     194      PMPE     C3       CTL2     0.800000E-01   12.0110           0   0.00000     -0.301140E-02
     23968 MEMB     194      PMPE     HX       HAL2     0.900000E-01   1.00800           0   0.00000     -0.301140E-02
     23969 MEMB     194      PMPE     HY       HAL2     0.900000E-01   1.00800           0   0.00000     -0.301140E-02
     23970 MEMB     194      PMPE     O31      OSL     -0.490000       15.9994           0   0.00000     -0.301140E-02
     23971 MEMB     194      PMPE     C31      CL       0.900000       12.0110           0   0.00000     -0.301140E-02
     23972 MEMB     194      PMPE     O32      OBL     -0.630000       15.9994           0   0.00000     -0.301140E-02
     23973 MEMB     194      PMPE     C32      CTL2    -0.220000       12.0110           0   0.00000     -0.301140E-02
     23974 MEMB     194      PMPE     H2X      HAL2     0.900000E-01   1.00800           0   0.00000     -0.301140E-02
     23975 MEMB     194      PMPE     H2Y      HAL2     0.900000E-01   1.00800           0   0.00000     -0.301140E-02
     23976 MEMB     194      PMPE     C23      CTL2    -0.180000       12.0110           0   0.00000     -0.301140E-02
     23977 MEMB     194      PMPE     H3R      HAL2     0.900000E-01   1.00800           0   0.00000     -0.301140E-02
     23978 MEMB     194      PMPE     H3S      HAL2     0.900000E-01   1.00800           0   0.00000     -0.301140E-02
     23979 MEMB     194      PMPE     C24      CTL2    -0.180000       12.0110           0   0.00000     -0.301140E-02
     23980 MEMB     194      PMPE     H4R      HAL2     0.900000E-01   1.00800           0   0.00000     -0.301140E-02
     23981 MEMB     194      PMPE     H4S      HAL2     0.900000E-01   1.00800           0   0.00000     -0.301140E-02
     23982 MEMB     194      PMPE     C25      CTL2    -0.180000       12.0110           0   0.00000     -0.301140E-02
     23983 MEMB     194      PMPE     H5R      HAL2     0.900000E-01   1.00800           0   0.00000     -0.301140E-02
     23984 MEMB     194      PMPE     H5S      HAL2     0.900000E-01   1.00800           0   0.00000     -0.301140E-02
     23985 MEMB     194      PMPE     C26      CTL2    -0.180000       12.0110           0   0.00000     -0.301140E-02
     23986 MEMB     194      PMPE     H6R      HAL2     0.900000E-01   1.00800           0   0.00000     -0.301140E-02
     23987 MEMB     194      PMPE     H6S      HAL2     0.900000E-01   1.00800           0   0.00000     -0.301140E-02
     23988 MEMB     194      PMPE     C27      CTL2    -0.180000       12.0110           0   0.00000     -0.301140E-02
     23989 MEMB     194      PMPE     H7R      HAL2     0.900000E-01   1.00800           0   0.00000     -0.301140E-02
     23990 MEMB     194      PMPE     H7S      HAL2     0.900000E-01   1.00800           0   0.00000     -0.301140E-02
     23991 MEMB     194      PMPE     C28      CTL2    -0.180000       12.0110           0   0.00000     -0.301140E-02
     23992 MEMB     194      PMPE     H8R      HAL2     0.900000E-01   1.00800           0   0.00000     -0.301140E-02
     23993 MEMB     194      PMPE     H8S      HAL2     0.900000E-01   1.00800           0   0.00000     -0.301140E-02
     23994 MEMB     194      PMPE     C29      CG3RC1  -0.900000E-01   12.0110           0   0.00000     -0.301140E-02
     23995 MEMB     194      PMPE     H9R      HGA1     0.900000E-01   1.00800           0   0.00000     -0.301140E-02
     23996 MEMB     194      PMPE     C217     CG3C31  -0.180000       12.0110           0   0.00000     -0.301140E-02
     23997 MEMB     194      PMPE     H17R     HGA2     0.900000E-01   1.00800           0   0.00000     -0.301140E-02
     23998 MEMB     194      PMPE     H17S     HGA2     0.900000E-01   1.00800           0   0.00000     -0.301140E-02
     23999 MEMB     194      PMPE     C210     CG3RC1  -0.900000E-01   12.0110           0   0.00000     -0.301140E-02
     24000 MEMB     194      PMPE     H10R     HGA1     0.900000E-01   1.00800           0   0.00000     -0.301140E-02
     24001 MEMB     194      PMPE     C211     CTL2    -0.180000       12.0110           0   0.00000     -0.301140E-02
     24002 MEMB     194      PMPE     H11R     HAL2     0.900000E-01   1.00800           0   0.00000     -0.301140E-02
     24003 MEMB     194      PMPE     H11S     HAL2     0.900000E-01   1.00800           0   0.00000     -0.301140E-02
     24004 MEMB     194      PMPE     C212     CTL2    -0.180000       12.0110           0   0.00000     -0.301140E-02
     24005 MEMB     194      PMPE     H12R     HAL2     0.900000E-01   1.00800           0   0.00000     -0.301140E-02
     24006 MEMB     194      PMPE     H12S     HAL2     0.900000E-01   1.00800           0   0.00000     -0.301140E-02
     24007 MEMB     194      PMPE     C213     CTL2    -0.180000       12.0110           0   0.00000     -0.301140E-02
     24008 MEMB     194      PMPE     H13R     HAL2     0.900000E-01   1.00800           0   0.00000     -0.301140E-02
     24009 MEMB     194      PMPE     H13S     HAL2     0.900000E-01   1.00800           0   0.00000     -0.301140E-02
     24010 MEMB     194      PMPE     C214     CTL2    -0.180000       12.0110           0   0.00000     -0.301140E-02
     24011 MEMB     194      PMPE     H14R     HAL2     0.900000E-01   1.00800           0   0.00000     -0.301140E-02
     24012 MEMB     194      PMPE     H14S     HAL2     0.900000E-01   1.00800           0   0.00000     -0.301140E-02
     24013 MEMB     194      PMPE     C215     CTL2    -0.180000       12.0110           0   0.00000     -0.301140E-02
     24014 MEMB     194      PMPE     H15R     HAL2     0.900000E-01   1.00800           0   0.00000     -0.301140E-02
     24015 MEMB     194      PMPE     H15S     HAL2     0.900000E-01   1.00800           0   0.00000     -0.301140E-02
     24016 MEMB     194      PMPE     C216     CTL3    -0.270000       12.0110           0   0.00000     -0.301140E-02
     24017 MEMB     194      PMPE     H16R     HAL3     0.900000E-01   1.00800           0   0.00000     -0.301140E-02
     24018 MEMB     194      PMPE     H16S     HAL3     0.900000E-01   1.00800           0   0.00000     -0.301140E-02
     24019 MEMB     194      PMPE     H16T     HAL3     0.900000E-01   1.00800           0   0.00000     -0.301140E-02
     24020 MEMB     194      PMPE     C33      CTL2    -0.180000       12.0110           0   0.00000     -0.301140E-02
     24021 MEMB     194      PMPE     H3X      HAL2     0.900000E-01   1.00800           0   0.00000     -0.301140E-02
     24022 MEMB     194      PMPE     H3Y      HAL2     0.900000E-01   1.00800           0   0.00000     -0.301140E-02
     24023 MEMB     194      PMPE     C34      CTL2    -0.180000       12.0110           0   0.00000     -0.301140E-02
     24024 MEMB     194      PMPE     H4X      HAL2     0.900000E-01   1.00800           0   0.00000     -0.301140E-02
     24025 MEMB     194      PMPE     H4Y      HAL2     0.900000E-01   1.00800           0   0.00000     -0.301140E-02
     24026 MEMB     194      PMPE     C35      CTL2    -0.180000       12.0110           0   0.00000     -0.301140E-02
     24027 MEMB     194      PMPE     H5X      HAL2     0.900000E-01   1.00800           0   0.00000     -0.301140E-02
     24028 MEMB     194      PMPE     H5Y      HAL2     0.900000E-01   1.00800           0   0.00000     -0.301140E-02
     24029 MEMB     194      PMPE     C36      CTL2    -0.180000       12.0110           0   0.00000     -0.301140E-02
     24030 MEMB     194      PMPE     H6X      HAL2     0.900000E-01   1.00800           0   0.00000     -0.301140E-02
     24031 MEMB     194      PMPE     H6Y      HAL2     0.900000E-01   1.00800           0   0.00000     -0.301140E-02
     24032 MEMB     194      PMPE     C37      CTL2    -0.180000       12.0110           0   0.00000     -0.301140E-02
     24033 MEMB     194      PMPE     H7X      HAL2     0.900000E-01   1.00800           0   0.00000     -0.301140E-02
     24034 MEMB     194      PMPE     H7Y      HAL2     0.900000E-01   1.00800           0   0.00000     -0.301140E-02
     24035 MEMB     194      PMPE     C38      CTL2    -0.180000       12.0110           0   0.00000     -0.301140E-02
     24036 MEMB     194      PMPE     H8X      HAL2     0.900000E-01   1.00800           0   0.00000     -0.301140E-02
     24037 MEMB     194      PMPE     H8Y      HAL2     0.900000E-01   1.00800           0   0.00000     -0.301140E-02
     24038 MEMB     194      PMPE     C39      CTL2    -0.180000       12.0110           0   0.00000     -0.301140E-02
     24039 MEMB     194      PMPE     H9X      HAL2     0.900000E-01   1.00800           0   0.00000     -0.301140E-02
     24040 MEMB     194      PMPE     H9Y      HAL2     0.900000E-01   1.00800           0   0.00000     -0.301140E-02
     24041 MEMB     194      PMPE     C310     CTL2    -0.180000       12.0110           0   0.00000     -0.301140E-02
     24042 MEMB     194      PMPE     H10X     HAL2     0.900000E-01   1.00800           0   0.00000     -0.301140E-02
     24043 MEMB     194      PMPE     H10Y     HAL2     0.900000E-01   1.00800           0   0.00000     -0.301140E-02
     24044 MEMB     194      PMPE     C311     CTL2    -0.180000       12.0110           0   0.00000     -0.301140E-02
     24045 MEMB     194      PMPE     H11X     HAL2     0.900000E-01   1.00800           0   0.00000     -0.301140E-02
     24046 MEMB     194      PMPE     H11Y     HAL2     0.900000E-01   1.00800           0   0.00000     -0.301140E-02
     24047 MEMB     194      PMPE     C312     CTL2    -0.180000       12.0110           0   0.00000     -0.301140E-02
     24048 MEMB     194      PMPE     H12X     HAL2     0.900000E-01   1.00800           0   0.00000     -0.301140E-02
     24049 MEMB     194      PMPE     H12Y     HAL2     0.900000E-01   1.00800           0   0.00000     -0.301140E-02
     24050 MEMB     194      PMPE     C313     CTL2    -0.180000       12.0110           0   0.00000     -0.301140E-02
     24051 MEMB     194      PMPE     H13X     HAL2     0.900000E-01   1.00800           0   0.00000     -0.301140E-02
     24052 MEMB     194      PMPE     H13Y     HAL2     0.900000E-01   1.00800           0   0.00000     -0.301140E-02
     24053 MEMB     194      PMPE     C314     CTL2    -0.180000       12.0110           0   0.00000     -0.301140E-02
     24054 MEMB     194      PMPE     H14X     HAL2     0.900000E-01   1.00800           0   0.00000     -0.301140E-02
     24055 MEMB     194      PMPE     H14Y     HAL2     0.900000E-01   1.00800           0   0.00000     -0.301140E-02
     24056 MEMB     194      PMPE     C315     CTL2    -0.180000       12.0110           0   0.00000     -0.301140E-02
     24057 MEMB     194      PMPE     H15X     HAL2     0.900000E-01   1.00800           0   0.00000     -0.301140E-02
     24058 MEMB     194      PMPE     H15Y     HAL2     0.900000E-01   1.00800           0   0.00000     -0.301140E-02
     24059 MEMB     194      PMPE     C316     CTL3    -0.270000       12.0110           0   0.00000     -0.301140E-02
     24060 MEMB     194      PMPE     H16X     HAL3     0.900000E-01   1.00800           0   0.00000     -0.301140E-02
     24061 MEMB     194      PMPE     H16Y     HAL3     0.900000E-01   1.00800           0   0.00000     -0.301140E-02
     24062 MEMB     194      PMPE     H16Z     HAL3     0.900000E-01   1.00800           0   0.00000     -0.301140E-02
     24063 MEMB     195      POPE     N        NH3L    -0.300000       14.0070           0   0.00000     -0.301140E-02
     24064 MEMB     195      POPE     HN1      HCL      0.330000       1.00800           0   0.00000     -0.301140E-02
     24065 MEMB     195      POPE     HN2      HCL      0.330000       1.00800           0   0.00000     -0.301140E-02
     24066 MEMB     195      POPE     HN3      HCL      0.330000       1.00800           0   0.00000     -0.301140E-02
     24067 MEMB     195      POPE     C12      CTL2     0.130000       12.0110           0   0.00000     -0.301140E-02
     24068 MEMB     195      POPE     H12A     HAL2     0.900000E-01   1.00800           0   0.00000     -0.301140E-02
     24069 MEMB     195      POPE     H12B     HAL2     0.900000E-01   1.00800           0   0.00000     -0.301140E-02
     24070 MEMB     195      POPE     C11      CTL2    -0.800000E-01   12.0110           0   0.00000     -0.301140E-02
     24071 MEMB     195      POPE     H11A     HAL2     0.900000E-01   1.00800           0   0.00000     -0.301140E-02
     24072 MEMB     195      POPE     H11B     HAL2     0.900000E-01   1.00800           0   0.00000     -0.301140E-02
     24073 MEMB     195      POPE     P        PL        1.50000       30.9740           0   0.00000     -0.301140E-02
     24074 MEMB     195      POPE     O13      O2L     -0.780000       15.9994           0   0.00000     -0.301140E-02
     24075 MEMB     195      POPE     O14      O2L     -0.780000       15.9994           0   0.00000     -0.301140E-02
     24076 MEMB     195      POPE     O11      OSLP    -0.570000       15.9994           0   0.00000     -0.301140E-02
     24077 MEMB     195      POPE     O12      OSLP    -0.570000       15.9994           0   0.00000     -0.301140E-02
     24078 MEMB     195      POPE     C1       CTL2    -0.800000E-01   12.0110           0   0.00000     -0.301140E-02
     24079 MEMB     195      POPE     HA       HAL2     0.900000E-01   1.00800           0   0.00000     -0.301140E-02
     24080 MEMB     195      POPE     HB       HAL2     0.900000E-01   1.00800           0   0.00000     -0.301140E-02
     24081 MEMB     195      POPE     C2       CTL1     0.170000       12.0110           0   0.00000     -0.301140E-02
     24082 MEMB     195      POPE     HS       HAL1     0.900000E-01   1.00800           0   0.00000     -0.301140E-02
     24083 MEMB     195      POPE     O21      OSL     -0.490000       15.9994           0   0.00000     -0.301140E-02
     24084 MEMB     195      POPE     C21      CL       0.900000       12.0110           0   0.00000     -0.301140E-02
     24085 MEMB     195      POPE     O22      OBL     -0.630000       15.9994           0   0.00000     -0.301140E-02
     24086 MEMB     195      POPE     C22      CTL2    -0.220000       12.0110           0   0.00000     -0.301140E-02
     24087 MEMB     195      POPE     H2R      HAL2     0.900000E-01   1.00800           0   0.00000     -0.301140E-02
     24088 MEMB     195      POPE     H2S      HAL2     0.900000E-01   1.00800           0   0.00000     -0.301140E-02
     24089 MEMB     195      POPE     C3       CTL2     0.800000E-01   12.0110           0   0.00000     -0.301140E-02
     24090 MEMB     195      POPE     HX       HAL2     0.900000E-01   1.00800           0   0.00000     -0.301140E-02
     24091 MEMB     195      POPE     HY       HAL2     0.900000E-01   1.00800           0   0.00000     -0.301140E-02
     24092 MEMB     195      POPE     O31      OSL     -0.490000       15.9994           0   0.00000     -0.301140E-02
     24093 MEMB     195      POPE     C31      CL       0.900000       12.0110           0   0.00000     -0.301140E-02
     24094 MEMB     195      POPE     O32      OBL     -0.630000       15.9994           0   0.00000     -0.301140E-02
     24095 MEMB     195      POPE     C32      CTL2    -0.220000       12.0110           0   0.00000     -0.301140E-02
     24096 MEMB     195      POPE     H2X      HAL2     0.900000E-01   1.00800           0   0.00000     -0.301140E-02
     24097 MEMB     195      POPE     H2Y      HAL2     0.900000E-01   1.00800           0   0.00000     -0.301140E-02
     24098 MEMB     195      POPE     C23      CTL2    -0.180000       12.0110           0   0.00000     -0.301140E-02
     24099 MEMB     195      POPE     H3R      HAL2     0.900000E-01   1.00800           0   0.00000     -0.301140E-02
     24100 MEMB     195      POPE     H3S      HAL2     0.900000E-01   1.00800           0   0.00000     -0.301140E-02
     24101 MEMB     195      POPE     C24      CTL2    -0.180000       12.0110           0   0.00000     -0.301140E-02
     24102 MEMB     195      POPE     H4R      HAL2     0.900000E-01   1.00800           0   0.00000     -0.301140E-02
     24103 MEMB     195      POPE     H4S      HAL2     0.900000E-01   1.00800           0   0.00000     -0.301140E-02
     24104 MEMB     195      POPE     C25      CTL2    -0.180000       12.0110           0   0.00000     -0.301140E-02
     24105 MEMB     195      POPE     H5R      HAL2     0.900000E-01   1.00800           0   0.00000     -0.301140E-02
     24106 MEMB     195      POPE     H5S      HAL2     0.900000E-01   1.00800           0   0.00000     -0.301140E-02
     24107 MEMB     195      POPE     C26      CTL2    -0.180000       12.0110           0   0.00000     -0.301140E-02
     24108 MEMB     195      POPE     H6R      HAL2     0.900000E-01   1.00800           0   0.00000     -0.301140E-02
     24109 MEMB     195      POPE     H6S      HAL2     0.900000E-01   1.00800           0   0.00000     -0.301140E-02
     24110 MEMB     195      POPE     C27      CTL2    -0.180000       12.0110           0   0.00000     -0.301140E-02
     24111 MEMB     195      POPE     H7R      HAL2     0.900000E-01   1.00800           0   0.00000     -0.301140E-02
     24112 MEMB     195      POPE     H7S      HAL2     0.900000E-01   1.00800           0   0.00000     -0.301140E-02
     24113 MEMB     195      POPE     C28      CTL2    -0.180000       12.0110           0   0.00000     -0.301140E-02
     24114 MEMB     195      POPE     H8R      HAL2     0.900000E-01   1.00800           0   0.00000     -0.301140E-02
     24115 MEMB     195      POPE     H8S      HAL2     0.900000E-01   1.00800           0   0.00000     -0.301140E-02
     24116 MEMB     195      POPE     C29      CEL1    -0.150000       12.0110           0   0.00000     -0.301140E-02
     24117 MEMB     195      POPE     H91      HEL1     0.150000       1.00800           0   0.00000     -0.301140E-02
     24118 MEMB     195      POPE     C210     CEL1    -0.150000       12.0110           0   0.00000     -0.301140E-02
     24119 MEMB     195      POPE     H101     HEL1     0.150000       1.00800           0   0.00000     -0.301140E-02
     24120 MEMB     195      POPE     C211     CTL2    -0.180000       12.0110           0   0.00000     -0.301140E-02
     24121 MEMB     195      POPE     H11R     HAL2     0.900000E-01   1.00800           0   0.00000     -0.301140E-02
     24122 MEMB     195      POPE     H11S     HAL2     0.900000E-01   1.00800           0   0.00000     -0.301140E-02
     24123 MEMB     195      POPE     C212     CTL2    -0.180000       12.0110           0   0.00000     -0.301140E-02
     24124 MEMB     195      POPE     H12R     HAL2     0.900000E-01   1.00800           0   0.00000     -0.301140E-02
     24125 MEMB     195      POPE     H12S     HAL2     0.900000E-01   1.00800           0   0.00000     -0.301140E-02
     24126 MEMB     195      POPE     C213     CTL2    -0.180000       12.0110           0   0.00000     -0.301140E-02
     24127 MEMB     195      POPE     H13R     HAL2     0.900000E-01   1.00800           0   0.00000     -0.301140E-02
     24128 MEMB     195      POPE     H13S     HAL2     0.900000E-01   1.00800           0   0.00000     -0.301140E-02
     24129 MEMB     195      POPE     C214     CTL2    -0.180000       12.0110           0   0.00000     -0.301140E-02
     24130 MEMB     195      POPE     H14R     HAL2     0.900000E-01   1.00800           0   0.00000     -0.301140E-02
     24131 MEMB     195      POPE     H14S     HAL2     0.900000E-01   1.00800           0   0.00000     -0.301140E-02
     24132 MEMB     195      POPE     C215     CTL2    -0.180000       12.0110           0   0.00000     -0.301140E-02
     24133 MEMB     195      POPE     H15R     HAL2     0.900000E-01   1.00800           0   0.00000     -0.301140E-02
     24134 MEMB     195      POPE     H15S     HAL2     0.900000E-01   1.00800           0   0.00000     -0.301140E-02
     24135 MEMB     195      POPE     C216     CTL2    -0.180000       12.0110           0   0.00000     -0.301140E-02
     24136 MEMB     195      POPE     H16R     HAL2     0.900000E-01   1.00800           0   0.00000     -0.301140E-02
     24137 MEMB     195      POPE     H16S     HAL2     0.900000E-01   1.00800           0   0.00000     -0.301140E-02
     24138 MEMB     195      POPE     C217     CTL2    -0.180000       12.0110           0   0.00000     -0.301140E-02
     24139 MEMB     195      POPE     H17R     HAL2     0.900000E-01   1.00800           0   0.00000     -0.301140E-02
     24140 MEMB     195      POPE     H17S     HAL2     0.900000E-01   1.00800           0   0.00000     -0.301140E-02
     24141 MEMB     195      POPE     C218     CTL3    -0.270000       12.0110           0   0.00000     -0.301140E-02
     24142 MEMB     195      POPE     H18R     HAL3     0.900000E-01   1.00800           0   0.00000     -0.301140E-02
     24143 MEMB     195      POPE     H18S     HAL3     0.900000E-01   1.00800           0   0.00000     -0.301140E-02
     24144 MEMB     195      POPE     H18T     HAL3     0.900000E-01   1.00800           0   0.00000     -0.301140E-02
     24145 MEMB     195      POPE     C33      CTL2    -0.180000       12.0110           0   0.00000     -0.301140E-02
     24146 MEMB     195      POPE     H3X      HAL2     0.900000E-01   1.00800           0   0.00000     -0.301140E-02
     24147 MEMB     195      POPE     H3Y      HAL2     0.900000E-01   1.00800           0   0.00000     -0.301140E-02
     24148 MEMB     195      POPE     C34      CTL2    -0.180000       12.0110           0   0.00000     -0.301140E-02
     24149 MEMB     195      POPE     H4X      HAL2     0.900000E-01   1.00800           0   0.00000     -0.301140E-02
     24150 MEMB     195      POPE     H4Y      HAL2     0.900000E-01   1.00800           0   0.00000     -0.301140E-02
     24151 MEMB     195      POPE     C35      CTL2    -0.180000       12.0110           0   0.00000     -0.301140E-02
     24152 MEMB     195      POPE     H5X      HAL2     0.900000E-01   1.00800           0   0.00000     -0.301140E-02
     24153 MEMB     195      POPE     H5Y      HAL2     0.900000E-01   1.00800           0   0.00000     -0.301140E-02
     24154 MEMB     195      POPE     C36      CTL2    -0.180000       12.0110           0   0.00000     -0.301140E-02
     24155 MEMB     195      POPE     H6X      HAL2     0.900000E-01   1.00800           0   0.00000     -0.301140E-02
     24156 MEMB     195      POPE     H6Y      HAL2     0.900000E-01   1.00800           0   0.00000     -0.301140E-02
     24157 MEMB     195      POPE     C37      CTL2    -0.180000       12.0110           0   0.00000     -0.301140E-02
     24158 MEMB     195      POPE     H7X      HAL2     0.900000E-01   1.00800           0   0.00000     -0.301140E-02
     24159 MEMB     195      POPE     H7Y      HAL2     0.900000E-01   1.00800           0   0.00000     -0.301140E-02
     24160 MEMB     195      POPE     C38      CTL2    -0.180000       12.0110           0   0.00000     -0.301140E-02
     24161 MEMB     195      POPE     H8X      HAL2     0.900000E-01   1.00800           0   0.00000     -0.301140E-02
     24162 MEMB     195      POPE     H8Y      HAL2     0.900000E-01   1.00800           0   0.00000     -0.301140E-02
     24163 MEMB     195      POPE     C39      CTL2    -0.180000       12.0110           0   0.00000     -0.301140E-02
     24164 MEMB     195      POPE     H9X      HAL2     0.900000E-01   1.00800           0   0.00000     -0.301140E-02
     24165 MEMB     195      POPE     H9Y      HAL2     0.900000E-01   1.00800           0   0.00000     -0.301140E-02
     24166 MEMB     195      POPE     C310     CTL2    -0.180000       12.0110           0   0.00000     -0.301140E-02
     24167 MEMB     195      POPE     H10X     HAL2     0.900000E-01   1.00800           0   0.00000     -0.301140E-02
     24168 MEMB     195      POPE     H10Y     HAL2     0.900000E-01   1.00800           0   0.00000     -0.301140E-02
     24169 MEMB     195      POPE     C311     CTL2    -0.180000       12.0110           0   0.00000     -0.301140E-02
     24170 MEMB     195      POPE     H11X     HAL2     0.900000E-01   1.00800           0   0.00000     -0.301140E-02
     24171 MEMB     195      POPE     H11Y     HAL2     0.900000E-01   1.00800           0   0.00000     -0.301140E-02
     24172 MEMB     195      POPE     C312     CTL2    -0.180000       12.0110           0   0.00000     -0.301140E-02
     24173 MEMB     195      POPE     H12X     HAL2     0.900000E-01   1.00800           0   0.00000     -0.301140E-02
     24174 MEMB     195      POPE     H12Y     HAL2     0.900000E-01   1.00800           0   0.00000     -0.301140E-02
     24175 MEMB     195      POPE     C313     CTL2    -0.180000       12.0110           0   0.00000     -0.301140E-02
     24176 MEMB     195      POPE     H13X     HAL2     0.900000E-01   1.00800           0   0.00000     -0.301140E-02
     24177 MEMB     195      POPE     H13Y     HAL2     0.900000E-01   1.00800           0   0.00000     -0.301140E-02
     24178 MEMB     195      POPE     C314     CTL2    -0.180000       12.0110           0   0.00000     -0.301140E-02
     24179 MEMB     195      POPE     H14X     HAL2     0.900000E-01   1.00800           0   0.00000     -0.301140E-02
     24180 MEMB     195      POPE     H14Y     HAL2     0.900000E-01   1.00800           0   0.00000     -0.301140E-02
     24181 MEMB     195      POPE     C315     CTL2    -0.180000       12.0110           0   0.00000     -0.301140E-02
     24182 MEMB     195      POPE     H15X     HAL2     0.900000E-01   1.00800           0   0.00000     -0.301140E-02
     24183 MEMB     195      POPE     H15Y     HAL2     0.900000E-01   1.00800           0   0.00000     -0.301140E-02
     24184 MEMB     195      POPE     C316     CTL3    -0.270000       12.0110           0   0.00000     -0.301140E-02
     24185 MEMB     195      POPE     H16X     HAL3     0.900000E-01   1.00800           0   0.00000     -0.301140E-02
     24186 MEMB     195      POPE     H16Y     HAL3     0.900000E-01   1.00800           0   0.00000     -0.301140E-02
     24187 MEMB     195      POPE     H16Z     HAL3     0.900000E-01   1.00800           0   0.00000     -0.301140E-02
     24188 MEMB     196      PVCL2    C3       CTL2    -0.800000E-01   12.0110           0   0.00000     -0.301140E-02
     24189 MEMB     196      PVCL2    HG31     HAL2     0.900000E-01   1.00800           0   0.00000     -0.301140E-02
     24190 MEMB     196      PVCL2    HG32     HAL2     0.900000E-01   1.00800           0   0.00000     -0.301140E-02
     24191 MEMB     196      PVCL2    P3       PL        1.50000       30.9740           0   0.00000     -0.301140E-02
     24192 MEMB     196      PVCL2    OP33     O2L     -0.780000       15.9994           0   0.00000     -0.301140E-02
     24193 MEMB     196      PVCL2    OP34     O2L     -0.780000       15.9994           0   0.00000     -0.301140E-02
     24194 MEMB     196      PVCL2    OP31     OSLP    -0.570000       15.9994           0   0.00000     -0.301140E-02
     24195 MEMB     196      PVCL2    OP32     OSLP    -0.570000       15.9994           0   0.00000     -0.301140E-02
     24196 MEMB     196      PVCL2    C31      CTL2    -0.800000E-01   12.0110           0   0.00000     -0.301140E-02
     24197 MEMB     196      PVCL2    H31J     HAL2     0.900000E-01   1.00800           0   0.00000     -0.301140E-02
     24198 MEMB     196      PVCL2    H31K     HAL2     0.900000E-01   1.00800           0   0.00000     -0.301140E-02
     24199 MEMB     196      PVCL2    C2       CTL1     0.140000       12.0110           0   0.00000     -0.301140E-02
     24200 MEMB     196      PVCL2    HG22     HAL1     0.900000E-01   1.00800           0   0.00000     -0.301140E-02
     24201 MEMB     196      PVCL2    OG12     OHL     -0.650000       15.9994           0   0.00000     -0.301140E-02
     24202 MEMB     196      PVCL2    HO12     HOL      0.420000       1.00800           0   0.00000     -0.301140E-02
     24203 MEMB     196      PVCL2    C1       CTL2    -0.800000E-01   12.0110           0   0.00000     -0.301140E-02
     24204 MEMB     196      PVCL2    HG11     HAL2     0.900000E-01   1.00800           0   0.00000     -0.301140E-02
     24205 MEMB     196      PVCL2    HG12     HAL2     0.900000E-01   1.00800           0   0.00000     -0.301140E-02
     24206 MEMB     196      PVCL2    P1       PL        1.50000       30.9740           0   0.00000     -0.301140E-02
     24207 MEMB     196      PVCL2    OP13     O2L     -0.780000       15.9994           0   0.00000     -0.301140E-02
     24208 MEMB     196      PVCL2    OP14     O2L     -0.780000       15.9994           0   0.00000     -0.301140E-02
     24209 MEMB     196      PVCL2    OP11     OSLP    -0.570000       15.9994           0   0.00000     -0.301140E-02
     24210 MEMB     196      PVCL2    OP12     OSLP    -0.570000       15.9994           0   0.00000     -0.301140E-02
     24211 MEMB     196      PVCL2    C11      CTL2    -0.800000E-01   12.0110           0   0.00000     -0.301140E-02
     24212 MEMB     196      PVCL2    H11J     HAL2     0.900000E-01   1.00800           0   0.00000     -0.301140E-02
     24213 MEMB     196      PVCL2    H11K     HAL2     0.900000E-01   1.00800           0   0.00000     -0.301140E-02
     24214 MEMB     196      PVCL2    C12      CTL1     0.170000       12.0110           0   0.00000     -0.301140E-02
     24215 MEMB     196      PVCL2    H12J     HAL1     0.900000E-01   1.00800           0   0.00000     -0.301140E-02
     24216 MEMB     196      PVCL2    O12      OSL     -0.490000       15.9994           0   0.00000     -0.301140E-02
     24217 MEMB     196      PVCL2    CA1      CL       0.900000       12.0110           0   0.00000     -0.301140E-02
     24218 MEMB     196      PVCL2    OA1      OBL     -0.630000       15.9994           0   0.00000     -0.301140E-02
     24219 MEMB     196      PVCL2    CA2      CTL2    -0.220000       12.0110           0   0.00000     -0.301140E-02
     24220 MEMB     196      PVCL2    H2A      HAL2     0.900000E-01   1.00800           0   0.00000     -0.301140E-02
     24221 MEMB     196      PVCL2    H2B      HAL2     0.900000E-01   1.00800           0   0.00000     -0.301140E-02
     24222 MEMB     196      PVCL2    C13      CTL2     0.800000E-01   12.0110           0   0.00000     -0.301140E-02
     24223 MEMB     196      PVCL2    H13J     HAL2     0.900000E-01   1.00800           0   0.00000     -0.301140E-02
     24224 MEMB     196      PVCL2    H13K     HAL2     0.900000E-01   1.00800           0   0.00000     -0.301140E-02
     24225 MEMB     196      PVCL2    O13      OSL     -0.490000       15.9994           0   0.00000     -0.301140E-02
     24226 MEMB     196      PVCL2    CB1      CL       0.900000       12.0110           0   0.00000     -0.301140E-02
     24227 MEMB     196      PVCL2    OB1      OBL     -0.630000       15.9994           0   0.00000     -0.301140E-02
     24228 MEMB     196      PVCL2    CB2      CTL2    -0.220000       12.0110           0   0.00000     -0.301140E-02
     24229 MEMB     196      PVCL2    H2D      HAL2     0.900000E-01   1.00800           0   0.00000     -0.301140E-02
     24230 MEMB     196      PVCL2    H2E      HAL2     0.900000E-01   1.00800           0   0.00000     -0.301140E-02
     24231 MEMB     196      PVCL2    C32      CTL1     0.170000       12.0110           0   0.00000     -0.301140E-02
     24232 MEMB     196      PVCL2    H32J     HAL1     0.900000E-01   1.00800           0   0.00000     -0.301140E-02
     24233 MEMB     196      PVCL2    O32      OSL     -0.490000       15.9994           0   0.00000     -0.301140E-02
     24234 MEMB     196      PVCL2    CC1      CL       0.900000       12.0110           0   0.00000     -0.301140E-02
     24235 MEMB     196      PVCL2    OC1      OBL     -0.630000       15.9994           0   0.00000     -0.301140E-02
     24236 MEMB     196      PVCL2    CC2      CTL2    -0.220000       12.0110           0   0.00000     -0.301140E-02
     24237 MEMB     196      PVCL2    H2R      HAL2     0.900000E-01   1.00800           0   0.00000     -0.301140E-02
     24238 MEMB     196      PVCL2    H2S      HAL2     0.900000E-01   1.00800           0   0.00000     -0.301140E-02
     24239 MEMB     196      PVCL2    C33      CTL2     0.800000E-01   12.0110           0   0.00000     -0.301140E-02
     24240 MEMB     196      PVCL2    H33J     HAL2     0.900000E-01   1.00800           0   0.00000     -0.301140E-02
     24241 MEMB     196      PVCL2    H33K     HAL2     0.900000E-01   1.00800           0   0.00000     -0.301140E-02
     24242 MEMB     196      PVCL2    O33      OSL     -0.490000       15.9994           0   0.00000     -0.301140E-02
     24243 MEMB     196      PVCL2    CD1      CL       0.900000       12.0110           0   0.00000     -0.301140E-02
     24244 MEMB     196      PVCL2    OD1      OBL     -0.630000       15.9994           0   0.00000     -0.301140E-02
     24245 MEMB     196      PVCL2    CD2      CTL2    -0.220000       12.0110           0   0.00000     -0.301140E-02
     24246 MEMB     196      PVCL2    H2X      HAL2     0.900000E-01   1.00800           0   0.00000     -0.301140E-02
     24247 MEMB     196      PVCL2    H2Y      HAL2     0.900000E-01   1.00800           0   0.00000     -0.301140E-02
     24248 MEMB     196      PVCL2    CA3      CTL2    -0.180000       12.0110           0   0.00000     -0.301140E-02
     24249 MEMB     196      PVCL2    H3A      HAL2     0.900000E-01   1.00800           0   0.00000     -0.301140E-02
     24250 MEMB     196      PVCL2    H3B      HAL2     0.900000E-01   1.00800           0   0.00000     -0.301140E-02
     24251 MEMB     196      PVCL2    CA4      CTL2    -0.180000       12.0110           0   0.00000     -0.301140E-02
     24252 MEMB     196      PVCL2    H4A      HAL2     0.900000E-01   1.00800           0   0.00000     -0.301140E-02
     24253 MEMB     196      PVCL2    H4B      HAL2     0.900000E-01   1.00800           0   0.00000     -0.301140E-02
     24254 MEMB     196      PVCL2    CA5      CTL2    -0.180000       12.0110           0   0.00000     -0.301140E-02
     24255 MEMB     196      PVCL2    H5A      HAL2     0.900000E-01   1.00800           0   0.00000     -0.301140E-02
     24256 MEMB     196      PVCL2    H5B      HAL2     0.900000E-01   1.00800           0   0.00000     -0.301140E-02
     24257 MEMB     196      PVCL2    CA6      CTL2    -0.180000       12.0110           0   0.00000     -0.301140E-02
     24258 MEMB     196      PVCL2    H6A      HAL2     0.900000E-01   1.00800           0   0.00000     -0.301140E-02
     24259 MEMB     196      PVCL2    H6B      HAL2     0.900000E-01   1.00800           0   0.00000     -0.301140E-02
     24260 MEMB     196      PVCL2    CA7      CTL2    -0.180000       12.0110           0   0.00000     -0.301140E-02
     24261 MEMB     196      PVCL2    H7A      HAL2     0.900000E-01   1.00800           0   0.00000     -0.301140E-02
     24262 MEMB     196      PVCL2    H7B      HAL2     0.900000E-01   1.00800           0   0.00000     -0.301140E-02
     24263 MEMB     196      PVCL2    CA8      CTL2    -0.180000       12.0110           0   0.00000     -0.301140E-02
     24264 MEMB     196      PVCL2    H8A      HAL2     0.900000E-01   1.00800           0   0.00000     -0.301140E-02
     24265 MEMB     196      PVCL2    H8B      HAL2     0.900000E-01   1.00800           0   0.00000     -0.301140E-02
     24266 MEMB     196      PVCL2    CA9      CTL2    -0.180000       12.0110           0   0.00000     -0.301140E-02
     24267 MEMB     196      PVCL2    H9A      HAL2     0.900000E-01   1.00800           0   0.00000     -0.301140E-02
     24268 MEMB     196      PVCL2    H9B      HAL2     0.900000E-01   1.00800           0   0.00000     -0.301140E-02
     24269 MEMB     196      PVCL2    CA10     CTL2    -0.180000       12.0110           0   0.00000     -0.301140E-02
     24270 MEMB     196      PVCL2    H10A     HAL2     0.900000E-01   1.00800           0   0.00000     -0.301140E-02
     24271 MEMB     196      PVCL2    H10B     HAL2     0.900000E-01   1.00800           0   0.00000     -0.301140E-02
     24272 MEMB     196      PVCL2    CA11     CEL1    -0.150000       12.0110           0   0.00000     -0.301140E-02
     24273 MEMB     196      PVCL2    H11A     HEL1     0.150000       1.00800           0   0.00000     -0.301140E-02
     24274 MEMB     196      PVCL2    CA12     CEL1    -0.150000       12.0110           0   0.00000     -0.301140E-02
     24275 MEMB     196      PVCL2    H12A     HEL1     0.150000       1.00800           0   0.00000     -0.301140E-02
     24276 MEMB     196      PVCL2    CA13     CTL2    -0.180000       12.0110           0   0.00000     -0.301140E-02
     24277 MEMB     196      PVCL2    H13A     HAL2     0.900000E-01   1.00800           0   0.00000     -0.301140E-02
     24278 MEMB     196      PVCL2    H13B     HAL2     0.900000E-01   1.00800           0   0.00000     -0.301140E-02
     24279 MEMB     196      PVCL2    CA14     CTL2    -0.180000       12.0110           0   0.00000     -0.301140E-02
     24280 MEMB     196      PVCL2    H14A     HAL2     0.900000E-01   1.00800           0   0.00000     -0.301140E-02
     24281 MEMB     196      PVCL2    H14B     HAL2     0.900000E-01   1.00800           0   0.00000     -0.301140E-02
     24282 MEMB     196      PVCL2    CA15     CTL2    -0.180000       12.0110           0   0.00000     -0.301140E-02
     24283 MEMB     196      PVCL2    H15A     HAL2     0.900000E-01   1.00800           0   0.00000     -0.301140E-02
     24284 MEMB     196      PVCL2    H15B     HAL2     0.900000E-01   1.00800           0   0.00000     -0.301140E-02
     24285 MEMB     196      PVCL2    CA16     CTL2    -0.180000       12.0110           0   0.00000     -0.301140E-02
     24286 MEMB     196      PVCL2    H16A     HAL2     0.900000E-01   1.00800           0   0.00000     -0.301140E-02
     24287 MEMB     196      PVCL2    H16B     HAL2     0.900000E-01   1.00800           0   0.00000     -0.301140E-02
     24288 MEMB     196      PVCL2    CA17     CTL2    -0.180000       12.0110           0   0.00000     -0.301140E-02
     24289 MEMB     196      PVCL2    H17A     HAL2     0.900000E-01   1.00800           0   0.00000     -0.301140E-02
     24290 MEMB     196      PVCL2    H17B     HAL2     0.900000E-01   1.00800           0   0.00000     -0.301140E-02
     24291 MEMB     196      PVCL2    CA18     CTL3    -0.270000       12.0110           0   0.00000     -0.301140E-02
     24292 MEMB     196      PVCL2    H18A     HAL3     0.900000E-01   1.00800           0   0.00000     -0.301140E-02
     24293 MEMB     196      PVCL2    H18B     HAL3     0.900000E-01   1.00800           0   0.00000     -0.301140E-02
     24294 MEMB     196      PVCL2    H18C     HAL3     0.900000E-01   1.00800           0   0.00000     -0.301140E-02
     24295 MEMB     196      PVCL2    CB3      CTL2    -0.180000       12.0110           0   0.00000     -0.301140E-02
     24296 MEMB     196      PVCL2    H3D      HAL2     0.900000E-01   1.00800           0   0.00000     -0.301140E-02
     24297 MEMB     196      PVCL2    H3E      HAL2     0.900000E-01   1.00800           0   0.00000     -0.301140E-02
     24298 MEMB     196      PVCL2    CB4      CTL2    -0.180000       12.0110           0   0.00000     -0.301140E-02
     24299 MEMB     196      PVCL2    H4D      HAL2     0.900000E-01   1.00800           0   0.00000     -0.301140E-02
     24300 MEMB     196      PVCL2    H4E      HAL2     0.900000E-01   1.00800           0   0.00000     -0.301140E-02
     24301 MEMB     196      PVCL2    CB5      CTL2    -0.180000       12.0110           0   0.00000     -0.301140E-02
     24302 MEMB     196      PVCL2    H5D      HAL2     0.900000E-01   1.00800           0   0.00000     -0.301140E-02
     24303 MEMB     196      PVCL2    H5E      HAL2     0.900000E-01   1.00800           0   0.00000     -0.301140E-02
     24304 MEMB     196      PVCL2    CB6      CTL2    -0.180000       12.0110           0   0.00000     -0.301140E-02
     24305 MEMB     196      PVCL2    H6D      HAL2     0.900000E-01   1.00800           0   0.00000     -0.301140E-02
     24306 MEMB     196      PVCL2    H6E      HAL2     0.900000E-01   1.00800           0   0.00000     -0.301140E-02
     24307 MEMB     196      PVCL2    CB7      CTL2    -0.180000       12.0110           0   0.00000     -0.301140E-02
     24308 MEMB     196      PVCL2    H7D      HAL2     0.900000E-01   1.00800           0   0.00000     -0.301140E-02
     24309 MEMB     196      PVCL2    H7E      HAL2     0.900000E-01   1.00800           0   0.00000     -0.301140E-02
     24310 MEMB     196      PVCL2    CB8      CTL2    -0.180000       12.0110           0   0.00000     -0.301140E-02
     24311 MEMB     196      PVCL2    H8D      HAL2     0.900000E-01   1.00800           0   0.00000     -0.301140E-02
     24312 MEMB     196      PVCL2    H8E      HAL2     0.900000E-01   1.00800           0   0.00000     -0.301140E-02
     24313 MEMB     196      PVCL2    CB9      CTL2    -0.180000       12.0110           0   0.00000     -0.301140E-02
     24314 MEMB     196      PVCL2    H9D      HAL2     0.900000E-01   1.00800           0   0.00000     -0.301140E-02
     24315 MEMB     196      PVCL2    H9E      HAL2     0.900000E-01   1.00800           0   0.00000     -0.301140E-02
     24316 MEMB     196      PVCL2    CB10     CTL2    -0.180000       12.0110           0   0.00000     -0.301140E-02
     24317 MEMB     196      PVCL2    H10D     HAL2     0.900000E-01   1.00800           0   0.00000     -0.301140E-02
     24318 MEMB     196      PVCL2    H10E     HAL2     0.900000E-01   1.00800           0   0.00000     -0.301140E-02
     24319 MEMB     196      PVCL2    CB11     CTL2    -0.180000       12.0110           0   0.00000     -0.301140E-02
     24320 MEMB     196      PVCL2    H11D     HAL2     0.900000E-01   1.00800           0   0.00000     -0.301140E-02
     24321 MEMB     196      PVCL2    H11E     HAL2     0.900000E-01   1.00800           0   0.00000     -0.301140E-02
     24322 MEMB     196      PVCL2    CB12     CTL2    -0.180000       12.0110           0   0.00000     -0.301140E-02
     24323 MEMB     196      PVCL2    H12D     HAL2     0.900000E-01   1.00800           0   0.00000     -0.301140E-02
     24324 MEMB     196      PVCL2    H12E     HAL2     0.900000E-01   1.00800           0   0.00000     -0.301140E-02
     24325 MEMB     196      PVCL2    CB13     CTL2    -0.180000       12.0110           0   0.00000     -0.301140E-02
     24326 MEMB     196      PVCL2    H13D     HAL2     0.900000E-01   1.00800           0   0.00000     -0.301140E-02
     24327 MEMB     196      PVCL2    H13E     HAL2     0.900000E-01   1.00800           0   0.00000     -0.301140E-02
     24328 MEMB     196      PVCL2    CB14     CTL2    -0.180000       12.0110           0   0.00000     -0.301140E-02
     24329 MEMB     196      PVCL2    H14D     HAL2     0.900000E-01   1.00800           0   0.00000     -0.301140E-02
     24330 MEMB     196      PVCL2    H14E     HAL2     0.900000E-01   1.00800           0   0.00000     -0.301140E-02
     24331 MEMB     196      PVCL2    CB15     CTL2    -0.180000       12.0110           0   0.00000     -0.301140E-02
     24332 MEMB     196      PVCL2    H15D     HAL2     0.900000E-01   1.00800           0   0.00000     -0.301140E-02
     24333 MEMB     196      PVCL2    H15E     HAL2     0.900000E-01   1.00800           0   0.00000     -0.301140E-02
     24334 MEMB     196      PVCL2    CB16     CTL3    -0.270000       12.0110           0   0.00000     -0.301140E-02
     24335 MEMB     196      PVCL2    H16D     HAL3     0.900000E-01   1.00800           0   0.00000     -0.301140E-02
     24336 MEMB     196      PVCL2    H16E     HAL3     0.900000E-01   1.00800           0   0.00000     -0.301140E-02
     24337 MEMB     196      PVCL2    H16F     HAL3     0.900000E-01   1.00800           0   0.00000     -0.301140E-02
     24338 MEMB     196      PVCL2    CC3      CTL2    -0.180000       12.0110           0   0.00000     -0.301140E-02
     24339 MEMB     196      PVCL2    H3R      HAL2     0.900000E-01   1.00800           0   0.00000     -0.301140E-02
     24340 MEMB     196      PVCL2    H3S      HAL2     0.900000E-01   1.00800           0   0.00000     -0.301140E-02
     24341 MEMB     196      PVCL2    CC4      CTL2    -0.180000       12.0110           0   0.00000     -0.301140E-02
     24342 MEMB     196      PVCL2    H4R      HAL2     0.900000E-01   1.00800           0   0.00000     -0.301140E-02
     24343 MEMB     196      PVCL2    H4S      HAL2     0.900000E-01   1.00800           0   0.00000     -0.301140E-02
     24344 MEMB     196      PVCL2    CC5      CTL2    -0.180000       12.0110           0   0.00000     -0.301140E-02
     24345 MEMB     196      PVCL2    H5R      HAL2     0.900000E-01   1.00800           0   0.00000     -0.301140E-02
     24346 MEMB     196      PVCL2    H5S      HAL2     0.900000E-01   1.00800           0   0.00000     -0.301140E-02
     24347 MEMB     196      PVCL2    CC6      CTL2    -0.180000       12.0110           0   0.00000     -0.301140E-02
     24348 MEMB     196      PVCL2    H6R      HAL2     0.900000E-01   1.00800           0   0.00000     -0.301140E-02
     24349 MEMB     196      PVCL2    H6S      HAL2     0.900000E-01   1.00800           0   0.00000     -0.301140E-02
     24350 MEMB     196      PVCL2    CC7      CTL2    -0.180000       12.0110           0   0.00000     -0.301140E-02
     24351 MEMB     196      PVCL2    H7R      HAL2     0.900000E-01   1.00800           0   0.00000     -0.301140E-02
     24352 MEMB     196      PVCL2    H7S      HAL2     0.900000E-01   1.00800           0   0.00000     -0.301140E-02
     24353 MEMB     196      PVCL2    CC8      CTL2    -0.180000       12.0110           0   0.00000     -0.301140E-02
     24354 MEMB     196      PVCL2    H8R      HAL2     0.900000E-01   1.00800           0   0.00000     -0.301140E-02
     24355 MEMB     196      PVCL2    H8S      HAL2     0.900000E-01   1.00800           0   0.00000     -0.301140E-02
     24356 MEMB     196      PVCL2    CC9      CTL2    -0.180000       12.0110           0   0.00000     -0.301140E-02
     24357 MEMB     196      PVCL2    H9R      HAL2     0.900000E-01   1.00800           0   0.00000     -0.301140E-02
     24358 MEMB     196      PVCL2    H9S      HAL2     0.900000E-01   1.00800           0   0.00000     -0.301140E-02
     24359 MEMB     196      PVCL2    CC10     CTL2    -0.180000       12.0110           0   0.00000     -0.301140E-02
     24360 MEMB     196      PVCL2    H10R     HAL2     0.900000E-01   1.00800           0   0.00000     -0.301140E-02
     24361 MEMB     196      PVCL2    H10S     HAL2     0.900000E-01   1.00800           0   0.00000     -0.301140E-02
     24362 MEMB     196      PVCL2    CC11     CEL1    -0.150000       12.0110           0   0.00000     -0.301140E-02
     24363 MEMB     196      PVCL2    H11R     HEL1     0.150000       1.00800           0   0.00000     -0.301140E-02
     24364 MEMB     196      PVCL2    CC12     CEL1    -0.150000       12.0110           0   0.00000     -0.301140E-02
     24365 MEMB     196      PVCL2    H12R     HEL1     0.150000       1.00800           0   0.00000     -0.301140E-02
     24366 MEMB     196      PVCL2    CC13     CTL2    -0.180000       12.0110           0   0.00000     -0.301140E-02
     24367 MEMB     196      PVCL2    H13R     HAL2     0.900000E-01   1.00800           0   0.00000     -0.301140E-02
     24368 MEMB     196      PVCL2    H13S     HAL2     0.900000E-01   1.00800           0   0.00000     -0.301140E-02
     24369 MEMB     196      PVCL2    CC14     CTL2    -0.180000       12.0110           0   0.00000     -0.301140E-02
     24370 MEMB     196      PVCL2    H14R     HAL2     0.900000E-01   1.00800           0   0.00000     -0.301140E-02
     24371 MEMB     196      PVCL2    H14S     HAL2     0.900000E-01   1.00800           0   0.00000     -0.301140E-02
     24372 MEMB     196      PVCL2    CC15     CTL2    -0.180000       12.0110           0   0.00000     -0.301140E-02
     24373 MEMB     196      PVCL2    H15R     HAL2     0.900000E-01   1.00800           0   0.00000     -0.301140E-02
     24374 MEMB     196      PVCL2    H15S     HAL2     0.900000E-01   1.00800           0   0.00000     -0.301140E-02
     24375 MEMB     196      PVCL2    CC16     CTL2    -0.180000       12.0110           0   0.00000     -0.301140E-02
     24376 MEMB     196      PVCL2    H16R     HAL2     0.900000E-01   1.00800           0   0.00000     -0.301140E-02
     24377 MEMB     196      PVCL2    H16S     HAL2     0.900000E-01   1.00800           0   0.00000     -0.301140E-02
     24378 MEMB     196      PVCL2    CC17     CTL2    -0.180000       12.0110           0   0.00000     -0.301140E-02
     24379 MEMB     196      PVCL2    H17R     HAL2     0.900000E-01   1.00800           0   0.00000     -0.301140E-02
     24380 MEMB     196      PVCL2    H17S     HAL2     0.900000E-01   1.00800           0   0.00000     -0.301140E-02
     24381 MEMB     196      PVCL2    CC18     CTL3    -0.270000       12.0110           0   0.00000     -0.301140E-02
     24382 MEMB     196      PVCL2    H18R     HAL3     0.900000E-01   1.00800           0   0.00000     -0.301140E-02
     24383 MEMB     196      PVCL2    H18S     HAL3     0.900000E-01   1.00800           0   0.00000     -0.301140E-02
     24384 MEMB     196      PVCL2    H18T     HAL3     0.900000E-01   1.00800           0   0.00000     -0.301140E-02
     24385 MEMB     196      PVCL2    CD3      CTL2    -0.180000       12.0110           0   0.00000     -0.301140E-02
     24386 MEMB     196      PVCL2    H3X      HAL2     0.900000E-01   1.00800           0   0.00000     -0.301140E-02
     24387 MEMB     196      PVCL2    H3Y      HAL2     0.900000E-01   1.00800           0   0.00000     -0.301140E-02
     24388 MEMB     196      PVCL2    CD4      CTL2    -0.180000       12.0110           0   0.00000     -0.301140E-02
     24389 MEMB     196      PVCL2    H4X      HAL2     0.900000E-01   1.00800           0   0.00000     -0.301140E-02
     24390 MEMB     196      PVCL2    H4Y      HAL2     0.900000E-01   1.00800           0   0.00000     -0.301140E-02
     24391 MEMB     196      PVCL2    CD5      CTL2    -0.180000       12.0110           0   0.00000     -0.301140E-02
     24392 MEMB     196      PVCL2    H5X      HAL2     0.900000E-01   1.00800           0   0.00000     -0.301140E-02
     24393 MEMB     196      PVCL2    H5Y      HAL2     0.900000E-01   1.00800           0   0.00000     -0.301140E-02
     24394 MEMB     196      PVCL2    CD6      CTL2    -0.180000       12.0110           0   0.00000     -0.301140E-02
     24395 MEMB     196      PVCL2    H6X      HAL2     0.900000E-01   1.00800           0   0.00000     -0.301140E-02
     24396 MEMB     196      PVCL2    H6Y      HAL2     0.900000E-01   1.00800           0   0.00000     -0.301140E-02
     24397 MEMB     196      PVCL2    CD7      CTL2    -0.180000       12.0110           0   0.00000     -0.301140E-02
     24398 MEMB     196      PVCL2    H7X      HAL2     0.900000E-01   1.00800           0   0.00000     -0.301140E-02
     24399 MEMB     196      PVCL2    H7Y      HAL2     0.900000E-01   1.00800           0   0.00000     -0.301140E-02
     24400 MEMB     196      PVCL2    CD8      CTL2    -0.180000       12.0110           0   0.00000     -0.301140E-02
     24401 MEMB     196      PVCL2    H8X      HAL2     0.900000E-01   1.00800           0   0.00000     -0.301140E-02
     24402 MEMB     196      PVCL2    H8Y      HAL2     0.900000E-01   1.00800           0   0.00000     -0.301140E-02
     24403 MEMB     196      PVCL2    CD9      CTL2    -0.180000       12.0110           0   0.00000     -0.301140E-02
     24404 MEMB     196      PVCL2    H9X      HAL2     0.900000E-01   1.00800           0   0.00000     -0.301140E-02
     24405 MEMB     196      PVCL2    H9Y      HAL2     0.900000E-01   1.00800           0   0.00000     -0.301140E-02
     24406 MEMB     196      PVCL2    CD10     CTL2    -0.180000       12.0110           0   0.00000     -0.301140E-02
     24407 MEMB     196      PVCL2    H10X     HAL2     0.900000E-01   1.00800           0   0.00000     -0.301140E-02
     24408 MEMB     196      PVCL2    H10Y     HAL2     0.900000E-01   1.00800           0   0.00000     -0.301140E-02
     24409 MEMB     196      PVCL2    CD11     CTL2    -0.180000       12.0110           0   0.00000     -0.301140E-02
     24410 MEMB     196      PVCL2    H11X     HAL2     0.900000E-01   1.00800           0   0.00000     -0.301140E-02
     24411 MEMB     196      PVCL2    H11Y     HAL2     0.900000E-01   1.00800           0   0.00000     -0.301140E-02
     24412 MEMB     196      PVCL2    CD12     CTL2    -0.180000       12.0110           0   0.00000     -0.301140E-02
     24413 MEMB     196      PVCL2    H12X     HAL2     0.900000E-01   1.00800           0   0.00000     -0.301140E-02
     24414 MEMB     196      PVCL2    H12Y     HAL2     0.900000E-01   1.00800           0   0.00000     -0.301140E-02
     24415 MEMB     196      PVCL2    CD13     CTL2    -0.180000       12.0110           0   0.00000     -0.301140E-02
     24416 MEMB     196      PVCL2    H13X     HAL2     0.900000E-01   1.00800           0   0.00000     -0.301140E-02
     24417 MEMB     196      PVCL2    H13Y     HAL2     0.900000E-01   1.00800           0   0.00000     -0.301140E-02
     24418 MEMB     196      PVCL2    CD14     CTL2    -0.180000       12.0110           0   0.00000     -0.301140E-02
     24419 MEMB     196      PVCL2    H14X     HAL2     0.900000E-01   1.00800           0   0.00000     -0.301140E-02
     24420 MEMB     196      PVCL2    H14Y     HAL2     0.900000E-01   1.00800           0   0.00000     -0.301140E-02
     24421 MEMB     196      PVCL2    CD15     CTL2    -0.180000       12.0110           0   0.00000     -0.301140E-02
     24422 MEMB     196      PVCL2    H15X     HAL2     0.900000E-01   1.00800           0   0.00000     -0.301140E-02
     24423 MEMB     196      PVCL2    H15Y     HAL2     0.900000E-01   1.00800           0   0.00000     -0.301140E-02
     24424 MEMB     196      PVCL2    CD16     CTL3    -0.270000       12.0110           0   0.00000     -0.301140E-02
     24425 MEMB     196      PVCL2    H16X     HAL3     0.900000E-01   1.00800           0   0.00000     -0.301140E-02
     24426 MEMB     196      PVCL2    H16Y     HAL3     0.900000E-01   1.00800           0   0.00000     -0.301140E-02
     24427 MEMB     196      PVCL2    H16Z     HAL3     0.900000E-01   1.00800           0   0.00000     -0.301140E-02
     24428 MEMB     197      PMPG     C13      CTL2     0.500000E-01   12.0110           0   0.00000     -0.301140E-02
     24429 MEMB     197      PMPG     H13A     HAL2     0.900000E-01   1.00800           0   0.00000     -0.301140E-02
     24430 MEMB     197      PMPG     H13B     HAL2     0.900000E-01   1.00800           0   0.00000     -0.301140E-02
     24431 MEMB     197      PMPG     OC3      OHL     -0.660000       15.9994           0   0.00000     -0.301140E-02
     24432 MEMB     197      PMPG     HO3      HOL      0.430000       1.00800           0   0.00000     -0.301140E-02
     24433 MEMB     197      PMPG     C12      CTL1     0.140000       12.0110           0   0.00000     -0.301140E-02
     24434 MEMB     197      PMPG     H12A     HAL1     0.900000E-01   1.00800           0   0.00000     -0.301140E-02
     24435 MEMB     197      PMPG     OC2      OHL     -0.660000       15.9994           0   0.00000     -0.301140E-02
     24436 MEMB     197      PMPG     HO2      HOL      0.430000       1.00800           0   0.00000     -0.301140E-02
     24437 MEMB     197      PMPG     C11      CTL2    -0.800000E-01   12.0110           0   0.00000     -0.301140E-02
     24438 MEMB     197      PMPG     H11A     HAL2     0.900000E-01   1.00800           0   0.00000     -0.301140E-02
     24439 MEMB     197      PMPG     H11B     HAL2     0.900000E-01   1.00800           0   0.00000     -0.301140E-02
     24440 MEMB     197      PMPG     P        PL        1.50000       30.9740           0   0.00000     -0.301140E-02
     24441 MEMB     197      PMPG     O13      O2L     -0.780000       15.9994           0   0.00000     -0.301140E-02
     24442 MEMB     197      PMPG     O14      O2L     -0.780000       15.9994           0   0.00000     -0.301140E-02
     24443 MEMB     197      PMPG     O11      OSLP    -0.570000       15.9994           0   0.00000     -0.301140E-02
     24444 MEMB     197      PMPG     O12      OSLP    -0.570000       15.9994           0   0.00000     -0.301140E-02
     24445 MEMB     197      PMPG     C1       CTL2    -0.800000E-01   12.0110           0   0.00000     -0.301140E-02
     24446 MEMB     197      PMPG     HA       HAL2     0.900000E-01   1.00800           0   0.00000     -0.301140E-02
     24447 MEMB     197      PMPG     HB       HAL2     0.900000E-01   1.00800           0   0.00000     -0.301140E-02
     24448 MEMB     197      PMPG     C2       CTL1     0.170000       12.0110           0   0.00000     -0.301140E-02
     24449 MEMB     197      PMPG     HS       HAL1     0.900000E-01   1.00800           0   0.00000     -0.301140E-02
     24450 MEMB     197      PMPG     O21      OSL     -0.490000       15.9994           0   0.00000     -0.301140E-02
     24451 MEMB     197      PMPG     C21      CL       0.900000       12.0110           0   0.00000     -0.301140E-02
     24452 MEMB     197      PMPG     O22      OBL     -0.630000       15.9994           0   0.00000     -0.301140E-02
     24453 MEMB     197      PMPG     C22      CTL2    -0.220000       12.0110           0   0.00000     -0.301140E-02
     24454 MEMB     197      PMPG     H2R      HAL2     0.900000E-01   1.00800           0   0.00000     -0.301140E-02
     24455 MEMB     197      PMPG     H2S      HAL2     0.900000E-01   1.00800           0   0.00000     -0.301140E-02
     24456 MEMB     197      PMPG     C3       CTL2     0.800000E-01   12.0110           0   0.00000     -0.301140E-02
     24457 MEMB     197      PMPG     HX       HAL2     0.900000E-01   1.00800           0   0.00000     -0.301140E-02
     24458 MEMB     197      PMPG     HY       HAL2     0.900000E-01   1.00800           0   0.00000     -0.301140E-02
     24459 MEMB     197      PMPG     O31      OSL     -0.490000       15.9994           0   0.00000     -0.301140E-02
     24460 MEMB     197      PMPG     C31      CL       0.900000       12.0110           0   0.00000     -0.301140E-02
     24461 MEMB     197      PMPG     O32      OBL     -0.630000       15.9994           0   0.00000     -0.301140E-02
     24462 MEMB     197      PMPG     C32      CTL2    -0.220000       12.0110           0   0.00000     -0.301140E-02
     24463 MEMB     197      PMPG     H2X      HAL2     0.900000E-01   1.00800           0   0.00000     -0.301140E-02
     24464 MEMB     197      PMPG     H2Y      HAL2     0.900000E-01   1.00800           0   0.00000     -0.301140E-02
     24465 MEMB     197      PMPG     C23      CTL2    -0.180000       12.0110           0   0.00000     -0.301140E-02
     24466 MEMB     197      PMPG     H3R      HAL2     0.900000E-01   1.00800           0   0.00000     -0.301140E-02
     24467 MEMB     197      PMPG     H3S      HAL2     0.900000E-01   1.00800           0   0.00000     -0.301140E-02
     24468 MEMB     197      PMPG     C24      CTL2    -0.180000       12.0110           0   0.00000     -0.301140E-02
     24469 MEMB     197      PMPG     H4R      HAL2     0.900000E-01   1.00800           0   0.00000     -0.301140E-02
     24470 MEMB     197      PMPG     H4S      HAL2     0.900000E-01   1.00800           0   0.00000     -0.301140E-02
     24471 MEMB     197      PMPG     C25      CTL2    -0.180000       12.0110           0   0.00000     -0.301140E-02
     24472 MEMB     197      PMPG     H5R      HAL2     0.900000E-01   1.00800           0   0.00000     -0.301140E-02
     24473 MEMB     197      PMPG     H5S      HAL2     0.900000E-01   1.00800           0   0.00000     -0.301140E-02
     24474 MEMB     197      PMPG     C26      CTL2    -0.180000       12.0110           0   0.00000     -0.301140E-02
     24475 MEMB     197      PMPG     H6R      HAL2     0.900000E-01   1.00800           0   0.00000     -0.301140E-02
     24476 MEMB     197      PMPG     H6S      HAL2     0.900000E-01   1.00800           0   0.00000     -0.301140E-02
     24477 MEMB     197      PMPG     C27      CTL2    -0.180000       12.0110           0   0.00000     -0.301140E-02
     24478 MEMB     197      PMPG     H7R      HAL2     0.900000E-01   1.00800           0   0.00000     -0.301140E-02
     24479 MEMB     197      PMPG     H7S      HAL2     0.900000E-01   1.00800           0   0.00000     -0.301140E-02
     24480 MEMB     197      PMPG     C28      CTL2    -0.180000       12.0110           0   0.00000     -0.301140E-02
     24481 MEMB     197      PMPG     H8R      HAL2     0.900000E-01   1.00800           0   0.00000     -0.301140E-02
     24482 MEMB     197      PMPG     H8S      HAL2     0.900000E-01   1.00800           0   0.00000     -0.301140E-02
     24483 MEMB     197      PMPG     C29      CG3RC1  -0.900000E-01   12.0110           0   0.00000     -0.301140E-02
     24484 MEMB     197      PMPG     H9R      HGA1     0.900000E-01   1.00800           0   0.00000     -0.301140E-02
     24485 MEMB     197      PMPG     C217     CG3C31  -0.180000       12.0110           0   0.00000     -0.301140E-02
     24486 MEMB     197      PMPG     H17R     HGA2     0.900000E-01   1.00800           0   0.00000     -0.301140E-02
     24487 MEMB     197      PMPG     H17S     HGA2     0.900000E-01   1.00800           0   0.00000     -0.301140E-02
     24488 MEMB     197      PMPG     C210     CG3RC1  -0.900000E-01   12.0110           0   0.00000     -0.301140E-02
     24489 MEMB     197      PMPG     H10R     HGA1     0.900000E-01   1.00800           0   0.00000     -0.301140E-02
     24490 MEMB     197      PMPG     C211     CTL2    -0.180000       12.0110           0   0.00000     -0.301140E-02
     24491 MEMB     197      PMPG     H11R     HAL2     0.900000E-01   1.00800           0   0.00000     -0.301140E-02
     24492 MEMB     197      PMPG     H11S     HAL2     0.900000E-01   1.00800           0   0.00000     -0.301140E-02
     24493 MEMB     197      PMPG     C212     CTL2    -0.180000       12.0110           0   0.00000     -0.301140E-02
     24494 MEMB     197      PMPG     H12R     HAL2     0.900000E-01   1.00800           0   0.00000     -0.301140E-02
     24495 MEMB     197      PMPG     H12S     HAL2     0.900000E-01   1.00800           0   0.00000     -0.301140E-02
     24496 MEMB     197      PMPG     C213     CTL2    -0.180000       12.0110           0   0.00000     -0.301140E-02
     24497 MEMB     197      PMPG     H13R     HAL2     0.900000E-01   1.00800           0   0.00000     -0.301140E-02
     24498 MEMB     197      PMPG     H13S     HAL2     0.900000E-01   1.00800           0   0.00000     -0.301140E-02
     24499 MEMB     197      PMPG     C214     CTL2    -0.180000       12.0110           0   0.00000     -0.301140E-02
     24500 MEMB     197      PMPG     H14R     HAL2     0.900000E-01   1.00800           0   0.00000     -0.301140E-02
     24501 MEMB     197      PMPG     H14S     HAL2     0.900000E-01   1.00800           0   0.00000     -0.301140E-02
     24502 MEMB     197      PMPG     C215     CTL2    -0.180000       12.0110           0   0.00000     -0.301140E-02
     24503 MEMB     197      PMPG     H15R     HAL2     0.900000E-01   1.00800           0   0.00000     -0.301140E-02
     24504 MEMB     197      PMPG     H15S     HAL2     0.900000E-01   1.00800           0   0.00000     -0.301140E-02
     24505 MEMB     197      PMPG     C216     CTL3    -0.270000       12.0110           0   0.00000     -0.301140E-02
     24506 MEMB     197      PMPG     H16R     HAL3     0.900000E-01   1.00800           0   0.00000     -0.301140E-02
     24507 MEMB     197      PMPG     H16S     HAL3     0.900000E-01   1.00800           0   0.00000     -0.301140E-02
     24508 MEMB     197      PMPG     H16T     HAL3     0.900000E-01   1.00800           0   0.00000     -0.301140E-02
     24509 MEMB     197      PMPG     C33      CTL2    -0.180000       12.0110           0   0.00000     -0.301140E-02
     24510 MEMB     197      PMPG     H3X      HAL2     0.900000E-01   1.00800           0   0.00000     -0.301140E-02
     24511 MEMB     197      PMPG     H3Y      HAL2     0.900000E-01   1.00800           0   0.00000     -0.301140E-02
     24512 MEMB     197      PMPG     C34      CTL2    -0.180000       12.0110           0   0.00000     -0.301140E-02
     24513 MEMB     197      PMPG     H4X      HAL2     0.900000E-01   1.00800           0   0.00000     -0.301140E-02
     24514 MEMB     197      PMPG     H4Y      HAL2     0.900000E-01   1.00800           0   0.00000     -0.301140E-02
     24515 MEMB     197      PMPG     C35      CTL2    -0.180000       12.0110           0   0.00000     -0.301140E-02
     24516 MEMB     197      PMPG     H5X      HAL2     0.900000E-01   1.00800           0   0.00000     -0.301140E-02
     24517 MEMB     197      PMPG     H5Y      HAL2     0.900000E-01   1.00800           0   0.00000     -0.301140E-02
     24518 MEMB     197      PMPG     C36      CTL2    -0.180000       12.0110           0   0.00000     -0.301140E-02
     24519 MEMB     197      PMPG     H6X      HAL2     0.900000E-01   1.00800           0   0.00000     -0.301140E-02
     24520 MEMB     197      PMPG     H6Y      HAL2     0.900000E-01   1.00800           0   0.00000     -0.301140E-02
     24521 MEMB     197      PMPG     C37      CTL2    -0.180000       12.0110           0   0.00000     -0.301140E-02
     24522 MEMB     197      PMPG     H7X      HAL2     0.900000E-01   1.00800           0   0.00000     -0.301140E-02
     24523 MEMB     197      PMPG     H7Y      HAL2     0.900000E-01   1.00800           0   0.00000     -0.301140E-02
     24524 MEMB     197      PMPG     C38      CTL2    -0.180000       12.0110           0   0.00000     -0.301140E-02
     24525 MEMB     197      PMPG     H8X      HAL2     0.900000E-01   1.00800           0   0.00000     -0.301140E-02
     24526 MEMB     197      PMPG     H8Y      HAL2     0.900000E-01   1.00800           0   0.00000     -0.301140E-02
     24527 MEMB     197      PMPG     C39      CTL2    -0.180000       12.0110           0   0.00000     -0.301140E-02
     24528 MEMB     197      PMPG     H9X      HAL2     0.900000E-01   1.00800           0   0.00000     -0.301140E-02
     24529 MEMB     197      PMPG     H9Y      HAL2     0.900000E-01   1.00800           0   0.00000     -0.301140E-02
     24530 MEMB     197      PMPG     C310     CTL2    -0.180000       12.0110           0   0.00000     -0.301140E-02
     24531 MEMB     197      PMPG     H10X     HAL2     0.900000E-01   1.00800           0   0.00000     -0.301140E-02
     24532 MEMB     197      PMPG     H10Y     HAL2     0.900000E-01   1.00800           0   0.00000     -0.301140E-02
     24533 MEMB     197      PMPG     C311     CTL2    -0.180000       12.0110           0   0.00000     -0.301140E-02
     24534 MEMB     197      PMPG     H11X     HAL2     0.900000E-01   1.00800           0   0.00000     -0.301140E-02
     24535 MEMB     197      PMPG     H11Y     HAL2     0.900000E-01   1.00800           0   0.00000     -0.301140E-02
     24536 MEMB     197      PMPG     C312     CTL2    -0.180000       12.0110           0   0.00000     -0.301140E-02
     24537 MEMB     197      PMPG     H12X     HAL2     0.900000E-01   1.00800           0   0.00000     -0.301140E-02
     24538 MEMB     197      PMPG     H12Y     HAL2     0.900000E-01   1.00800           0   0.00000     -0.301140E-02
     24539 MEMB     197      PMPG     C313     CTL2    -0.180000       12.0110           0   0.00000     -0.301140E-02
     24540 MEMB     197      PMPG     H13X     HAL2     0.900000E-01   1.00800           0   0.00000     -0.301140E-02
     24541 MEMB     197      PMPG     H13Y     HAL2     0.900000E-01   1.00800           0   0.00000     -0.301140E-02
     24542 MEMB     197      PMPG     C314     CTL2    -0.180000       12.0110           0   0.00000     -0.301140E-02
     24543 MEMB     197      PMPG     H14X     HAL2     0.900000E-01   1.00800           0   0.00000     -0.301140E-02
     24544 MEMB     197      PMPG     H14Y     HAL2     0.900000E-01   1.00800           0   0.00000     -0.301140E-02
     24545 MEMB     197      PMPG     C315     CTL2    -0.180000       12.0110           0   0.00000     -0.301140E-02
     24546 MEMB     197      PMPG     H15X     HAL2     0.900000E-01   1.00800           0   0.00000     -0.301140E-02
     24547 MEMB     197      PMPG     H15Y     HAL2     0.900000E-01   1.00800           0   0.00000     -0.301140E-02
     24548 MEMB     197      PMPG     C316     CTL3    -0.270000       12.0110           0   0.00000     -0.301140E-02
     24549 MEMB     197      PMPG     H16X     HAL3     0.900000E-01   1.00800           0   0.00000     -0.301140E-02
     24550 MEMB     197      PMPG     H16Y     HAL3     0.900000E-01   1.00800           0   0.00000     -0.301140E-02
     24551 MEMB     197      PMPG     H16Z     HAL3     0.900000E-01   1.00800           0   0.00000     -0.301140E-02
     24552 MEMB     198      PMPE     N        NH3L    -0.300000       14.0070           0   0.00000     -0.301140E-02
     24553 MEMB     198      PMPE     HN1      HCL      0.330000       1.00800           0   0.00000     -0.301140E-02
     24554 MEMB     198      PMPE     HN2      HCL      0.330000       1.00800           0   0.00000     -0.301140E-02
     24555 MEMB     198      PMPE     HN3      HCL      0.330000       1.00800           0   0.00000     -0.301140E-02
     24556 MEMB     198      PMPE     C12      CTL2     0.130000       12.0110           0   0.00000     -0.301140E-02
     24557 MEMB     198      PMPE     H12A     HAL2     0.900000E-01   1.00800           0   0.00000     -0.301140E-02
     24558 MEMB     198      PMPE     H12B     HAL2     0.900000E-01   1.00800           0   0.00000     -0.301140E-02
     24559 MEMB     198      PMPE     C11      CTL2    -0.800000E-01   12.0110           0   0.00000     -0.301140E-02
     24560 MEMB     198      PMPE     H11A     HAL2     0.900000E-01   1.00800           0   0.00000     -0.301140E-02
     24561 MEMB     198      PMPE     H11B     HAL2     0.900000E-01   1.00800           0   0.00000     -0.301140E-02
     24562 MEMB     198      PMPE     P        PL        1.50000       30.9740           0   0.00000     -0.301140E-02
     24563 MEMB     198      PMPE     O13      O2L     -0.780000       15.9994           0   0.00000     -0.301140E-02
     24564 MEMB     198      PMPE     O14      O2L     -0.780000       15.9994           0   0.00000     -0.301140E-02
     24565 MEMB     198      PMPE     O11      OSLP    -0.570000       15.9994           0   0.00000     -0.301140E-02
     24566 MEMB     198      PMPE     O12      OSLP    -0.570000       15.9994           0   0.00000     -0.301140E-02
     24567 MEMB     198      PMPE     C1       CTL2    -0.800000E-01   12.0110           0   0.00000     -0.301140E-02
     24568 MEMB     198      PMPE     HA       HAL2     0.900000E-01   1.00800           0   0.00000     -0.301140E-02
     24569 MEMB     198      PMPE     HB       HAL2     0.900000E-01   1.00800           0   0.00000     -0.301140E-02
     24570 MEMB     198      PMPE     C2       CTL1     0.170000       12.0110           0   0.00000     -0.301140E-02
     24571 MEMB     198      PMPE     HS       HAL1     0.900000E-01   1.00800           0   0.00000     -0.301140E-02
     24572 MEMB     198      PMPE     O21      OSL     -0.490000       15.9994           0   0.00000     -0.301140E-02
     24573 MEMB     198      PMPE     C21      CL       0.900000       12.0110           0   0.00000     -0.301140E-02
     24574 MEMB     198      PMPE     O22      OBL     -0.630000       15.9994           0   0.00000     -0.301140E-02
     24575 MEMB     198      PMPE     C22      CTL2    -0.220000       12.0110           0   0.00000     -0.301140E-02
     24576 MEMB     198      PMPE     H2R      HAL2     0.900000E-01   1.00800           0   0.00000     -0.301140E-02
     24577 MEMB     198      PMPE     H2S      HAL2     0.900000E-01   1.00800           0   0.00000     -0.301140E-02
     24578 MEMB     198      PMPE     C3       CTL2     0.800000E-01   12.0110           0   0.00000     -0.301140E-02
     24579 MEMB     198      PMPE     HX       HAL2     0.900000E-01   1.00800           0   0.00000     -0.301140E-02
     24580 MEMB     198      PMPE     HY       HAL2     0.900000E-01   1.00800           0   0.00000     -0.301140E-02
     24581 MEMB     198      PMPE     O31      OSL     -0.490000       15.9994           0   0.00000     -0.301140E-02
     24582 MEMB     198      PMPE     C31      CL       0.900000       12.0110           0   0.00000     -0.301140E-02
     24583 MEMB     198      PMPE     O32      OBL     -0.630000       15.9994           0   0.00000     -0.301140E-02
     24584 MEMB     198      PMPE     C32      CTL2    -0.220000       12.0110           0   0.00000     -0.301140E-02
     24585 MEMB     198      PMPE     H2X      HAL2     0.900000E-01   1.00800           0   0.00000     -0.301140E-02
     24586 MEMB     198      PMPE     H2Y      HAL2     0.900000E-01   1.00800           0   0.00000     -0.301140E-02
     24587 MEMB     198      PMPE     C23      CTL2    -0.180000       12.0110           0   0.00000     -0.301140E-02
     24588 MEMB     198      PMPE     H3R      HAL2     0.900000E-01   1.00800           0   0.00000     -0.301140E-02
     24589 MEMB     198      PMPE     H3S      HAL2     0.900000E-01   1.00800           0   0.00000     -0.301140E-02
     24590 MEMB     198      PMPE     C24      CTL2    -0.180000       12.0110           0   0.00000     -0.301140E-02
     24591 MEMB     198      PMPE     H4R      HAL2     0.900000E-01   1.00800           0   0.00000     -0.301140E-02
     24592 MEMB     198      PMPE     H4S      HAL2     0.900000E-01   1.00800           0   0.00000     -0.301140E-02
     24593 MEMB     198      PMPE     C25      CTL2    -0.180000       12.0110           0   0.00000     -0.301140E-02
     24594 MEMB     198      PMPE     H5R      HAL2     0.900000E-01   1.00800           0   0.00000     -0.301140E-02
     24595 MEMB     198      PMPE     H5S      HAL2     0.900000E-01   1.00800           0   0.00000     -0.301140E-02
     24596 MEMB     198      PMPE     C26      CTL2    -0.180000       12.0110           0   0.00000     -0.301140E-02
     24597 MEMB     198      PMPE     H6R      HAL2     0.900000E-01   1.00800           0   0.00000     -0.301140E-02
     24598 MEMB     198      PMPE     H6S      HAL2     0.900000E-01   1.00800           0   0.00000     -0.301140E-02
     24599 MEMB     198      PMPE     C27      CTL2    -0.180000       12.0110           0   0.00000     -0.301140E-02
     24600 MEMB     198      PMPE     H7R      HAL2     0.900000E-01   1.00800           0   0.00000     -0.301140E-02
     24601 MEMB     198      PMPE     H7S      HAL2     0.900000E-01   1.00800           0   0.00000     -0.301140E-02
     24602 MEMB     198      PMPE     C28      CTL2    -0.180000       12.0110           0   0.00000     -0.301140E-02
     24603 MEMB     198      PMPE     H8R      HAL2     0.900000E-01   1.00800           0   0.00000     -0.301140E-02
     24604 MEMB     198      PMPE     H8S      HAL2     0.900000E-01   1.00800           0   0.00000     -0.301140E-02
     24605 MEMB     198      PMPE     C29      CG3RC1  -0.900000E-01   12.0110           0   0.00000     -0.301140E-02
     24606 MEMB     198      PMPE     H9R      HGA1     0.900000E-01   1.00800           0   0.00000     -0.301140E-02
     24607 MEMB     198      PMPE     C217     CG3C31  -0.180000       12.0110           0   0.00000     -0.301140E-02
     24608 MEMB     198      PMPE     H17R     HGA2     0.900000E-01   1.00800           0   0.00000     -0.301140E-02
     24609 MEMB     198      PMPE     H17S     HGA2     0.900000E-01   1.00800           0   0.00000     -0.301140E-02
     24610 MEMB     198      PMPE     C210     CG3RC1  -0.900000E-01   12.0110           0   0.00000     -0.301140E-02
     24611 MEMB     198      PMPE     H10R     HGA1     0.900000E-01   1.00800           0   0.00000     -0.301140E-02
     24612 MEMB     198      PMPE     C211     CTL2    -0.180000       12.0110           0   0.00000     -0.301140E-02
     24613 MEMB     198      PMPE     H11R     HAL2     0.900000E-01   1.00800           0   0.00000     -0.301140E-02
     24614 MEMB     198      PMPE     H11S     HAL2     0.900000E-01   1.00800           0   0.00000     -0.301140E-02
     24615 MEMB     198      PMPE     C212     CTL2    -0.180000       12.0110           0   0.00000     -0.301140E-02
     24616 MEMB     198      PMPE     H12R     HAL2     0.900000E-01   1.00800           0   0.00000     -0.301140E-02
     24617 MEMB     198      PMPE     H12S     HAL2     0.900000E-01   1.00800           0   0.00000     -0.301140E-02
     24618 MEMB     198      PMPE     C213     CTL2    -0.180000       12.0110           0   0.00000     -0.301140E-02
     24619 MEMB     198      PMPE     H13R     HAL2     0.900000E-01   1.00800           0   0.00000     -0.301140E-02
     24620 MEMB     198      PMPE     H13S     HAL2     0.900000E-01   1.00800           0   0.00000     -0.301140E-02
     24621 MEMB     198      PMPE     C214     CTL2    -0.180000       12.0110           0   0.00000     -0.301140E-02
     24622 MEMB     198      PMPE     H14R     HAL2     0.900000E-01   1.00800           0   0.00000     -0.301140E-02
     24623 MEMB     198      PMPE     H14S     HAL2     0.900000E-01   1.00800           0   0.00000     -0.301140E-02
     24624 MEMB     198      PMPE     C215     CTL2    -0.180000       12.0110           0   0.00000     -0.301140E-02
     24625 MEMB     198      PMPE     H15R     HAL2     0.900000E-01   1.00800           0   0.00000     -0.301140E-02
     24626 MEMB     198      PMPE     H15S     HAL2     0.900000E-01   1.00800           0   0.00000     -0.301140E-02
     24627 MEMB     198      PMPE     C216     CTL3    -0.270000       12.0110           0   0.00000     -0.301140E-02
     24628 MEMB     198      PMPE     H16R     HAL3     0.900000E-01   1.00800           0   0.00000     -0.301140E-02
     24629 MEMB     198      PMPE     H16S     HAL3     0.900000E-01   1.00800           0   0.00000     -0.301140E-02
     24630 MEMB     198      PMPE     H16T     HAL3     0.900000E-01   1.00800           0   0.00000     -0.301140E-02
     24631 MEMB     198      PMPE     C33      CTL2    -0.180000       12.0110           0   0.00000     -0.301140E-02
     24632 MEMB     198      PMPE     H3X      HAL2     0.900000E-01   1.00800           0   0.00000     -0.301140E-02
     24633 MEMB     198      PMPE     H3Y      HAL2     0.900000E-01   1.00800           0   0.00000     -0.301140E-02
     24634 MEMB     198      PMPE     C34      CTL2    -0.180000       12.0110           0   0.00000     -0.301140E-02
     24635 MEMB     198      PMPE     H4X      HAL2     0.900000E-01   1.00800           0   0.00000     -0.301140E-02
     24636 MEMB     198      PMPE     H4Y      HAL2     0.900000E-01   1.00800           0   0.00000     -0.301140E-02
     24637 MEMB     198      PMPE     C35      CTL2    -0.180000       12.0110           0   0.00000     -0.301140E-02
     24638 MEMB     198      PMPE     H5X      HAL2     0.900000E-01   1.00800           0   0.00000     -0.301140E-02
     24639 MEMB     198      PMPE     H5Y      HAL2     0.900000E-01   1.00800           0   0.00000     -0.301140E-02
     24640 MEMB     198      PMPE     C36      CTL2    -0.180000       12.0110           0   0.00000     -0.301140E-02
     24641 MEMB     198      PMPE     H6X      HAL2     0.900000E-01   1.00800           0   0.00000     -0.301140E-02
     24642 MEMB     198      PMPE     H6Y      HAL2     0.900000E-01   1.00800           0   0.00000     -0.301140E-02
     24643 MEMB     198      PMPE     C37      CTL2    -0.180000       12.0110           0   0.00000     -0.301140E-02
     24644 MEMB     198      PMPE     H7X      HAL2     0.900000E-01   1.00800           0   0.00000     -0.301140E-02
     24645 MEMB     198      PMPE     H7Y      HAL2     0.900000E-01   1.00800           0   0.00000     -0.301140E-02
     24646 MEMB     198      PMPE     C38      CTL2    -0.180000       12.0110           0   0.00000     -0.301140E-02
     24647 MEMB     198      PMPE     H8X      HAL2     0.900000E-01   1.00800           0   0.00000     -0.301140E-02
     24648 MEMB     198      PMPE     H8Y      HAL2     0.900000E-01   1.00800           0   0.00000     -0.301140E-02
     24649 MEMB     198      PMPE     C39      CTL2    -0.180000       12.0110           0   0.00000     -0.301140E-02
     24650 MEMB     198      PMPE     H9X      HAL2     0.900000E-01   1.00800           0   0.00000     -0.301140E-02
     24651 MEMB     198      PMPE     H9Y      HAL2     0.900000E-01   1.00800           0   0.00000     -0.301140E-02
     24652 MEMB     198      PMPE     C310     CTL2    -0.180000       12.0110           0   0.00000     -0.301140E-02
     24653 MEMB     198      PMPE     H10X     HAL2     0.900000E-01   1.00800           0   0.00000     -0.301140E-02
     24654 MEMB     198      PMPE     H10Y     HAL2     0.900000E-01   1.00800           0   0.00000     -0.301140E-02
     24655 MEMB     198      PMPE     C311     CTL2    -0.180000       12.0110           0   0.00000     -0.301140E-02
     24656 MEMB     198      PMPE     H11X     HAL2     0.900000E-01   1.00800           0   0.00000     -0.301140E-02
     24657 MEMB     198      PMPE     H11Y     HAL2     0.900000E-01   1.00800           0   0.00000     -0.301140E-02
     24658 MEMB     198      PMPE     C312     CTL2    -0.180000       12.0110           0   0.00000     -0.301140E-02
     24659 MEMB     198      PMPE     H12X     HAL2     0.900000E-01   1.00800           0   0.00000     -0.301140E-02
     24660 MEMB     198      PMPE     H12Y     HAL2     0.900000E-01   1.00800           0   0.00000     -0.301140E-02
     24661 MEMB     198      PMPE     C313     CTL2    -0.180000       12.0110           0   0.00000     -0.301140E-02
     24662 MEMB     198      PMPE     H13X     HAL2     0.900000E-01   1.00800           0   0.00000     -0.301140E-02
     24663 MEMB     198      PMPE     H13Y     HAL2     0.900000E-01   1.00800           0   0.00000     -0.301140E-02
     24664 MEMB     198      PMPE     C314     CTL2    -0.180000       12.0110           0   0.00000     -0.301140E-02
     24665 MEMB     198      PMPE     H14X     HAL2     0.900000E-01   1.00800           0   0.00000     -0.301140E-02
     24666 MEMB     198      PMPE     H14Y     HAL2     0.900000E-01   1.00800           0   0.00000     -0.301140E-02
     24667 MEMB     198      PMPE     C315     CTL2    -0.180000       12.0110           0   0.00000     -0.301140E-02
     24668 MEMB     198      PMPE     H15X     HAL2     0.900000E-01   1.00800           0   0.00000     -0.301140E-02
     24669 MEMB     198      PMPE     H15Y     HAL2     0.900000E-01   1.00800           0   0.00000     -0.301140E-02
     24670 MEMB     198      PMPE     C316     CTL3    -0.270000       12.0110           0   0.00000     -0.301140E-02
     24671 MEMB     198      PMPE     H16X     HAL3     0.900000E-01   1.00800           0   0.00000     -0.301140E-02
     24672 MEMB     198      PMPE     H16Y     HAL3     0.900000E-01   1.00800           0   0.00000     -0.301140E-02
     24673 MEMB     198      PMPE     H16Z     HAL3     0.900000E-01   1.00800           0   0.00000     -0.301140E-02
     24674 MEMB     199      PMPE     N        NH3L    -0.300000       14.0070           0   0.00000     -0.301140E-02
     24675 MEMB     199      PMPE     HN1      HCL      0.330000       1.00800           0   0.00000     -0.301140E-02
     24676 MEMB     199      PMPE     HN2      HCL      0.330000       1.00800           0   0.00000     -0.301140E-02
     24677 MEMB     199      PMPE     HN3      HCL      0.330000       1.00800           0   0.00000     -0.301140E-02
     24678 MEMB     199      PMPE     C12      CTL2     0.130000       12.0110           0   0.00000     -0.301140E-02
     24679 MEMB     199      PMPE     H12A     HAL2     0.900000E-01   1.00800           0   0.00000     -0.301140E-02
     24680 MEMB     199      PMPE     H12B     HAL2     0.900000E-01   1.00800           0   0.00000     -0.301140E-02
     24681 MEMB     199      PMPE     C11      CTL2    -0.800000E-01   12.0110           0   0.00000     -0.301140E-02
     24682 MEMB     199      PMPE     H11A     HAL2     0.900000E-01   1.00800           0   0.00000     -0.301140E-02
     24683 MEMB     199      PMPE     H11B     HAL2     0.900000E-01   1.00800           0   0.00000     -0.301140E-02
     24684 MEMB     199      PMPE     P        PL        1.50000       30.9740           0   0.00000     -0.301140E-02
     24685 MEMB     199      PMPE     O13      O2L     -0.780000       15.9994           0   0.00000     -0.301140E-02
     24686 MEMB     199      PMPE     O14      O2L     -0.780000       15.9994           0   0.00000     -0.301140E-02
     24687 MEMB     199      PMPE     O11      OSLP    -0.570000       15.9994           0   0.00000     -0.301140E-02
     24688 MEMB     199      PMPE     O12      OSLP    -0.570000       15.9994           0   0.00000     -0.301140E-02
     24689 MEMB     199      PMPE     C1       CTL2    -0.800000E-01   12.0110           0   0.00000     -0.301140E-02
     24690 MEMB     199      PMPE     HA       HAL2     0.900000E-01   1.00800           0   0.00000     -0.301140E-02
     24691 MEMB     199      PMPE     HB       HAL2     0.900000E-01   1.00800           0   0.00000     -0.301140E-02
     24692 MEMB     199      PMPE     C2       CTL1     0.170000       12.0110           0   0.00000     -0.301140E-02
     24693 MEMB     199      PMPE     HS       HAL1     0.900000E-01   1.00800           0   0.00000     -0.301140E-02
     24694 MEMB     199      PMPE     O21      OSL     -0.490000       15.9994           0   0.00000     -0.301140E-02
     24695 MEMB     199      PMPE     C21      CL       0.900000       12.0110           0   0.00000     -0.301140E-02
     24696 MEMB     199      PMPE     O22      OBL     -0.630000       15.9994           0   0.00000     -0.301140E-02
     24697 MEMB     199      PMPE     C22      CTL2    -0.220000       12.0110           0   0.00000     -0.301140E-02
     24698 MEMB     199      PMPE     H2R      HAL2     0.900000E-01   1.00800           0   0.00000     -0.301140E-02
     24699 MEMB     199      PMPE     H2S      HAL2     0.900000E-01   1.00800           0   0.00000     -0.301140E-02
     24700 MEMB     199      PMPE     C3       CTL2     0.800000E-01   12.0110           0   0.00000     -0.301140E-02
     24701 MEMB     199      PMPE     HX       HAL2     0.900000E-01   1.00800           0   0.00000     -0.301140E-02
     24702 MEMB     199      PMPE     HY       HAL2     0.900000E-01   1.00800           0   0.00000     -0.301140E-02
     24703 MEMB     199      PMPE     O31      OSL     -0.490000       15.9994           0   0.00000     -0.301140E-02
     24704 MEMB     199      PMPE     C31      CL       0.900000       12.0110           0   0.00000     -0.301140E-02
     24705 MEMB     199      PMPE     O32      OBL     -0.630000       15.9994           0   0.00000     -0.301140E-02
     24706 MEMB     199      PMPE     C32      CTL2    -0.220000       12.0110           0   0.00000     -0.301140E-02
     24707 MEMB     199      PMPE     H2X      HAL2     0.900000E-01   1.00800           0   0.00000     -0.301140E-02
     24708 MEMB     199      PMPE     H2Y      HAL2     0.900000E-01   1.00800           0   0.00000     -0.301140E-02
     24709 MEMB     199      PMPE     C23      CTL2    -0.180000       12.0110           0   0.00000     -0.301140E-02
     24710 MEMB     199      PMPE     H3R      HAL2     0.900000E-01   1.00800           0   0.00000     -0.301140E-02
     24711 MEMB     199      PMPE     H3S      HAL2     0.900000E-01   1.00800           0   0.00000     -0.301140E-02
     24712 MEMB     199      PMPE     C24      CTL2    -0.180000       12.0110           0   0.00000     -0.301140E-02
     24713 MEMB     199      PMPE     H4R      HAL2     0.900000E-01   1.00800           0   0.00000     -0.301140E-02
     24714 MEMB     199      PMPE     H4S      HAL2     0.900000E-01   1.00800           0   0.00000     -0.301140E-02
     24715 MEMB     199      PMPE     C25      CTL2    -0.180000       12.0110           0   0.00000     -0.301140E-02
     24716 MEMB     199      PMPE     H5R      HAL2     0.900000E-01   1.00800           0   0.00000     -0.301140E-02
     24717 MEMB     199      PMPE     H5S      HAL2     0.900000E-01   1.00800           0   0.00000     -0.301140E-02
     24718 MEMB     199      PMPE     C26      CTL2    -0.180000       12.0110           0   0.00000     -0.301140E-02
     24719 MEMB     199      PMPE     H6R      HAL2     0.900000E-01   1.00800           0   0.00000     -0.301140E-02
     24720 MEMB     199      PMPE     H6S      HAL2     0.900000E-01   1.00800           0   0.00000     -0.301140E-02
     24721 MEMB     199      PMPE     C27      CTL2    -0.180000       12.0110           0   0.00000     -0.301140E-02
     24722 MEMB     199      PMPE     H7R      HAL2     0.900000E-01   1.00800           0   0.00000     -0.301140E-02
     24723 MEMB     199      PMPE     H7S      HAL2     0.900000E-01   1.00800           0   0.00000     -0.301140E-02
     24724 MEMB     199      PMPE     C28      CTL2    -0.180000       12.0110           0   0.00000     -0.301140E-02
     24725 MEMB     199      PMPE     H8R      HAL2     0.900000E-01   1.00800           0   0.00000     -0.301140E-02
     24726 MEMB     199      PMPE     H8S      HAL2     0.900000E-01   1.00800           0   0.00000     -0.301140E-02
     24727 MEMB     199      PMPE     C29      CG3RC1  -0.900000E-01   12.0110           0   0.00000     -0.301140E-02
     24728 MEMB     199      PMPE     H9R      HGA1     0.900000E-01   1.00800           0   0.00000     -0.301140E-02
     24729 MEMB     199      PMPE     C217     CG3C31  -0.180000       12.0110           0   0.00000     -0.301140E-02
     24730 MEMB     199      PMPE     H17R     HGA2     0.900000E-01   1.00800           0   0.00000     -0.301140E-02
     24731 MEMB     199      PMPE     H17S     HGA2     0.900000E-01   1.00800           0   0.00000     -0.301140E-02
     24732 MEMB     199      PMPE     C210     CG3RC1  -0.900000E-01   12.0110           0   0.00000     -0.301140E-02
     24733 MEMB     199      PMPE     H10R     HGA1     0.900000E-01   1.00800           0   0.00000     -0.301140E-02
     24734 MEMB     199      PMPE     C211     CTL2    -0.180000       12.0110           0   0.00000     -0.301140E-02
     24735 MEMB     199      PMPE     H11R     HAL2     0.900000E-01   1.00800           0   0.00000     -0.301140E-02
     24736 MEMB     199      PMPE     H11S     HAL2     0.900000E-01   1.00800           0   0.00000     -0.301140E-02
     24737 MEMB     199      PMPE     C212     CTL2    -0.180000       12.0110           0   0.00000     -0.301140E-02
     24738 MEMB     199      PMPE     H12R     HAL2     0.900000E-01   1.00800           0   0.00000     -0.301140E-02
     24739 MEMB     199      PMPE     H12S     HAL2     0.900000E-01   1.00800           0   0.00000     -0.301140E-02
     24740 MEMB     199      PMPE     C213     CTL2    -0.180000       12.0110           0   0.00000     -0.301140E-02
     24741 MEMB     199      PMPE     H13R     HAL2     0.900000E-01   1.00800           0   0.00000     -0.301140E-02
     24742 MEMB     199      PMPE     H13S     HAL2     0.900000E-01   1.00800           0   0.00000     -0.301140E-02
     24743 MEMB     199      PMPE     C214     CTL2    -0.180000       12.0110           0   0.00000     -0.301140E-02
     24744 MEMB     199      PMPE     H14R     HAL2     0.900000E-01   1.00800           0   0.00000     -0.301140E-02
     24745 MEMB     199      PMPE     H14S     HAL2     0.900000E-01   1.00800           0   0.00000     -0.301140E-02
     24746 MEMB     199      PMPE     C215     CTL2    -0.180000       12.0110           0   0.00000     -0.301140E-02
     24747 MEMB     199      PMPE     H15R     HAL2     0.900000E-01   1.00800           0   0.00000     -0.301140E-02
     24748 MEMB     199      PMPE     H15S     HAL2     0.900000E-01   1.00800           0   0.00000     -0.301140E-02
     24749 MEMB     199      PMPE     C216     CTL3    -0.270000       12.0110           0   0.00000     -0.301140E-02
     24750 MEMB     199      PMPE     H16R     HAL3     0.900000E-01   1.00800           0   0.00000     -0.301140E-02
     24751 MEMB     199      PMPE     H16S     HAL3     0.900000E-01   1.00800           0   0.00000     -0.301140E-02
     24752 MEMB     199      PMPE     H16T     HAL3     0.900000E-01   1.00800           0   0.00000     -0.301140E-02
     24753 MEMB     199      PMPE     C33      CTL2    -0.180000       12.0110           0   0.00000     -0.301140E-02
     24754 MEMB     199      PMPE     H3X      HAL2     0.900000E-01   1.00800           0   0.00000     -0.301140E-02
     24755 MEMB     199      PMPE     H3Y      HAL2     0.900000E-01   1.00800           0   0.00000     -0.301140E-02
     24756 MEMB     199      PMPE     C34      CTL2    -0.180000       12.0110           0   0.00000     -0.301140E-02
     24757 MEMB     199      PMPE     H4X      HAL2     0.900000E-01   1.00800           0   0.00000     -0.301140E-02
     24758 MEMB     199      PMPE     H4Y      HAL2     0.900000E-01   1.00800           0   0.00000     -0.301140E-02
     24759 MEMB     199      PMPE     C35      CTL2    -0.180000       12.0110           0   0.00000     -0.301140E-02
     24760 MEMB     199      PMPE     H5X      HAL2     0.900000E-01   1.00800           0   0.00000     -0.301140E-02
     24761 MEMB     199      PMPE     H5Y      HAL2     0.900000E-01   1.00800           0   0.00000     -0.301140E-02
     24762 MEMB     199      PMPE     C36      CTL2    -0.180000       12.0110           0   0.00000     -0.301140E-02
     24763 MEMB     199      PMPE     H6X      HAL2     0.900000E-01   1.00800           0   0.00000     -0.301140E-02
     24764 MEMB     199      PMPE     H6Y      HAL2     0.900000E-01   1.00800           0   0.00000     -0.301140E-02
     24765 MEMB     199      PMPE     C37      CTL2    -0.180000       12.0110           0   0.00000     -0.301140E-02
     24766 MEMB     199      PMPE     H7X      HAL2     0.900000E-01   1.00800           0   0.00000     -0.301140E-02
     24767 MEMB     199      PMPE     H7Y      HAL2     0.900000E-01   1.00800           0   0.00000     -0.301140E-02
     24768 MEMB     199      PMPE     C38      CTL2    -0.180000       12.0110           0   0.00000     -0.301140E-02
     24769 MEMB     199      PMPE     H8X      HAL2     0.900000E-01   1.00800           0   0.00000     -0.301140E-02
     24770 MEMB     199      PMPE     H8Y      HAL2     0.900000E-01   1.00800           0   0.00000     -0.301140E-02
     24771 MEMB     199      PMPE     C39      CTL2    -0.180000       12.0110           0   0.00000     -0.301140E-02
     24772 MEMB     199      PMPE     H9X      HAL2     0.900000E-01   1.00800           0   0.00000     -0.301140E-02
     24773 MEMB     199      PMPE     H9Y      HAL2     0.900000E-01   1.00800           0   0.00000     -0.301140E-02
     24774 MEMB     199      PMPE     C310     CTL2    -0.180000       12.0110           0   0.00000     -0.301140E-02
     24775 MEMB     199      PMPE     H10X     HAL2     0.900000E-01   1.00800           0   0.00000     -0.301140E-02
     24776 MEMB     199      PMPE     H10Y     HAL2     0.900000E-01   1.00800           0   0.00000     -0.301140E-02
     24777 MEMB     199      PMPE     C311     CTL2    -0.180000       12.0110           0   0.00000     -0.301140E-02
     24778 MEMB     199      PMPE     H11X     HAL2     0.900000E-01   1.00800           0   0.00000     -0.301140E-02
     24779 MEMB     199      PMPE     H11Y     HAL2     0.900000E-01   1.00800           0   0.00000     -0.301140E-02
     24780 MEMB     199      PMPE     C312     CTL2    -0.180000       12.0110           0   0.00000     -0.301140E-02
     24781 MEMB     199      PMPE     H12X     HAL2     0.900000E-01   1.00800           0   0.00000     -0.301140E-02
     24782 MEMB     199      PMPE     H12Y     HAL2     0.900000E-01   1.00800           0   0.00000     -0.301140E-02
     24783 MEMB     199      PMPE     C313     CTL2    -0.180000       12.0110           0   0.00000     -0.301140E-02
     24784 MEMB     199      PMPE     H13X     HAL2     0.900000E-01   1.00800           0   0.00000     -0.301140E-02
     24785 MEMB     199      PMPE     H13Y     HAL2     0.900000E-01   1.00800           0   0.00000     -0.301140E-02
     24786 MEMB     199      PMPE     C314     CTL2    -0.180000       12.0110           0   0.00000     -0.301140E-02
     24787 MEMB     199      PMPE     H14X     HAL2     0.900000E-01   1.00800           0   0.00000     -0.301140E-02
     24788 MEMB     199      PMPE     H14Y     HAL2     0.900000E-01   1.00800           0   0.00000     -0.301140E-02
     24789 MEMB     199      PMPE     C315     CTL2    -0.180000       12.0110           0   0.00000     -0.301140E-02
     24790 MEMB     199      PMPE     H15X     HAL2     0.900000E-01   1.00800           0   0.00000     -0.301140E-02
     24791 MEMB     199      PMPE     H15Y     HAL2     0.900000E-01   1.00800           0   0.00000     -0.301140E-02
     24792 MEMB     199      PMPE     C316     CTL3    -0.270000       12.0110           0   0.00000     -0.301140E-02
     24793 MEMB     199      PMPE     H16X     HAL3     0.900000E-01   1.00800           0   0.00000     -0.301140E-02
     24794 MEMB     199      PMPE     H16Y     HAL3     0.900000E-01   1.00800           0   0.00000     -0.301140E-02
     24795 MEMB     199      PMPE     H16Z     HAL3     0.900000E-01   1.00800           0   0.00000     -0.301140E-02
     24796 MEMB     200      PYPG     C13      CTL2     0.500000E-01   12.0110           0   0.00000     -0.301140E-02
     24797 MEMB     200      PYPG     H13A     HAL2     0.900000E-01   1.00800           0   0.00000     -0.301140E-02
     24798 MEMB     200      PYPG     H13B     HAL2     0.900000E-01   1.00800           0   0.00000     -0.301140E-02
     24799 MEMB     200      PYPG     OC3      OHL     -0.660000       15.9994           0   0.00000     -0.301140E-02
     24800 MEMB     200      PYPG     HO3      HOL      0.430000       1.00800           0   0.00000     -0.301140E-02
     24801 MEMB     200      PYPG     C12      CTL1     0.140000       12.0110           0   0.00000     -0.301140E-02
     24802 MEMB     200      PYPG     H12A     HAL1     0.900000E-01   1.00800           0   0.00000     -0.301140E-02
     24803 MEMB     200      PYPG     OC2      OHL     -0.660000       15.9994           0   0.00000     -0.301140E-02
     24804 MEMB     200      PYPG     HO2      HOL      0.430000       1.00800           0   0.00000     -0.301140E-02
     24805 MEMB     200      PYPG     C11      CTL2    -0.800000E-01   12.0110           0   0.00000     -0.301140E-02
     24806 MEMB     200      PYPG     H11A     HAL2     0.900000E-01   1.00800           0   0.00000     -0.301140E-02
     24807 MEMB     200      PYPG     H11B     HAL2     0.900000E-01   1.00800           0   0.00000     -0.301140E-02
     24808 MEMB     200      PYPG     P        PL        1.50000       30.9740           0   0.00000     -0.301140E-02
     24809 MEMB     200      PYPG     O13      O2L     -0.780000       15.9994           0   0.00000     -0.301140E-02
     24810 MEMB     200      PYPG     O14      O2L     -0.780000       15.9994           0   0.00000     -0.301140E-02
     24811 MEMB     200      PYPG     O11      OSLP    -0.570000       15.9994           0   0.00000     -0.301140E-02
     24812 MEMB     200      PYPG     O12      OSLP    -0.570000       15.9994           0   0.00000     -0.301140E-02
     24813 MEMB     200      PYPG     C1       CTL2    -0.800000E-01   12.0110           0   0.00000     -0.301140E-02
     24814 MEMB     200      PYPG     HA       HAL2     0.900000E-01   1.00800           0   0.00000     -0.301140E-02
     24815 MEMB     200      PYPG     HB       HAL2     0.900000E-01   1.00800           0   0.00000     -0.301140E-02
     24816 MEMB     200      PYPG     C2       CTL1     0.170000       12.0110           0   0.00000     -0.301140E-02
     24817 MEMB     200      PYPG     HS       HAL1     0.900000E-01   1.00800           0   0.00000     -0.301140E-02
     24818 MEMB     200      PYPG     O21      OSL     -0.490000       15.9994           0   0.00000     -0.301140E-02
     24819 MEMB     200      PYPG     C21      CL       0.900000       12.0110           0   0.00000     -0.301140E-02
     24820 MEMB     200      PYPG     O22      OBL     -0.630000       15.9994           0   0.00000     -0.301140E-02
     24821 MEMB     200      PYPG     C22      CTL2    -0.220000       12.0110           0   0.00000     -0.301140E-02
     24822 MEMB     200      PYPG     H2R      HAL2     0.900000E-01   1.00800           0   0.00000     -0.301140E-02
     24823 MEMB     200      PYPG     H2S      HAL2     0.900000E-01   1.00800           0   0.00000     -0.301140E-02
     24824 MEMB     200      PYPG     C3       CTL2     0.800000E-01   12.0110           0   0.00000     -0.301140E-02
     24825 MEMB     200      PYPG     HX       HAL2     0.900000E-01   1.00800           0   0.00000     -0.301140E-02
     24826 MEMB     200      PYPG     HY       HAL2     0.900000E-01   1.00800           0   0.00000     -0.301140E-02
     24827 MEMB     200      PYPG     O31      OSL     -0.490000       15.9994           0   0.00000     -0.301140E-02
     24828 MEMB     200      PYPG     C31      CL       0.900000       12.0110           0   0.00000     -0.301140E-02
     24829 MEMB     200      PYPG     O32      OBL     -0.630000       15.9994           0   0.00000     -0.301140E-02
     24830 MEMB     200      PYPG     C32      CTL2    -0.220000       12.0110           0   0.00000     -0.301140E-02
     24831 MEMB     200      PYPG     H2X      HAL2     0.900000E-01   1.00800           0   0.00000     -0.301140E-02
     24832 MEMB     200      PYPG     H2Y      HAL2     0.900000E-01   1.00800           0   0.00000     -0.301140E-02
     24833 MEMB     200      PYPG     C23      CTL2    -0.180000       12.0110           0   0.00000     -0.301140E-02
     24834 MEMB     200      PYPG     H3R      HAL2     0.900000E-01   1.00800           0   0.00000     -0.301140E-02
     24835 MEMB     200      PYPG     H3S      HAL2     0.900000E-01   1.00800           0   0.00000     -0.301140E-02
     24836 MEMB     200      PYPG     C24      CTL2    -0.180000       12.0110           0   0.00000     -0.301140E-02
     24837 MEMB     200      PYPG     H4R      HAL2     0.900000E-01   1.00800           0   0.00000     -0.301140E-02
     24838 MEMB     200      PYPG     H4S      HAL2     0.900000E-01   1.00800           0   0.00000     -0.301140E-02
     24839 MEMB     200      PYPG     C25      CTL2    -0.180000       12.0110           0   0.00000     -0.301140E-02
     24840 MEMB     200      PYPG     H5R      HAL2     0.900000E-01   1.00800           0   0.00000     -0.301140E-02
     24841 MEMB     200      PYPG     H5S      HAL2     0.900000E-01   1.00800           0   0.00000     -0.301140E-02
     24842 MEMB     200      PYPG     C26      CTL2    -0.180000       12.0110           0   0.00000     -0.301140E-02
     24843 MEMB     200      PYPG     H6R      HAL2     0.900000E-01   1.00800           0   0.00000     -0.301140E-02
     24844 MEMB     200      PYPG     H6S      HAL2     0.900000E-01   1.00800           0   0.00000     -0.301140E-02
     24845 MEMB     200      PYPG     C27      CTL2    -0.180000       12.0110           0   0.00000     -0.301140E-02
     24846 MEMB     200      PYPG     H7R      HAL2     0.900000E-01   1.00800           0   0.00000     -0.301140E-02
     24847 MEMB     200      PYPG     H7S      HAL2     0.900000E-01   1.00800           0   0.00000     -0.301140E-02
     24848 MEMB     200      PYPG     C28      CTL2    -0.180000       12.0110           0   0.00000     -0.301140E-02
     24849 MEMB     200      PYPG     H8R      HAL2     0.900000E-01   1.00800           0   0.00000     -0.301140E-02
     24850 MEMB     200      PYPG     H8S      HAL2     0.900000E-01   1.00800           0   0.00000     -0.301140E-02
     24851 MEMB     200      PYPG     C29      CEL1    -0.150000       12.0110           0   0.00000     -0.301140E-02
     24852 MEMB     200      PYPG     H9R      HEL1     0.150000       1.00800           0   0.00000     -0.301140E-02
     24853 MEMB     200      PYPG     C210     CEL1    -0.150000       12.0110           0   0.00000     -0.301140E-02
     24854 MEMB     200      PYPG     H10R     HEL1     0.150000       1.00800           0   0.00000     -0.301140E-02
     24855 MEMB     200      PYPG     C211     CTL2    -0.180000       12.0110           0   0.00000     -0.301140E-02
     24856 MEMB     200      PYPG     H11R     HAL2     0.900000E-01   1.00800           0   0.00000     -0.301140E-02
     24857 MEMB     200      PYPG     H11S     HAL2     0.900000E-01   1.00800           0   0.00000     -0.301140E-02
     24858 MEMB     200      PYPG     C212     CTL2    -0.180000       12.0110           0   0.00000     -0.301140E-02
     24859 MEMB     200      PYPG     H12R     HAL2     0.900000E-01   1.00800           0   0.00000     -0.301140E-02
     24860 MEMB     200      PYPG     H12S     HAL2     0.900000E-01   1.00800           0   0.00000     -0.301140E-02
     24861 MEMB     200      PYPG     C213     CTL2    -0.180000       12.0110           0   0.00000     -0.301140E-02
     24862 MEMB     200      PYPG     H13R     HAL2     0.900000E-01   1.00800           0   0.00000     -0.301140E-02
     24863 MEMB     200      PYPG     H13S     HAL2     0.900000E-01   1.00800           0   0.00000     -0.301140E-02
     24864 MEMB     200      PYPG     C214     CTL2    -0.180000       12.0110           0   0.00000     -0.301140E-02
     24865 MEMB     200      PYPG     H14R     HAL2     0.900000E-01   1.00800           0   0.00000     -0.301140E-02
     24866 MEMB     200      PYPG     H14S     HAL2     0.900000E-01   1.00800           0   0.00000     -0.301140E-02
     24867 MEMB     200      PYPG     C215     CTL2    -0.180000       12.0110           0   0.00000     -0.301140E-02
     24868 MEMB     200      PYPG     H15R     HAL2     0.900000E-01   1.00800           0   0.00000     -0.301140E-02
     24869 MEMB     200      PYPG     H15S     HAL2     0.900000E-01   1.00800           0   0.00000     -0.301140E-02
     24870 MEMB     200      PYPG     C216     CTL3    -0.270000       12.0110           0   0.00000     -0.301140E-02
     24871 MEMB     200      PYPG     H16R     HAL3     0.900000E-01   1.00800           0   0.00000     -0.301140E-02
     24872 MEMB     200      PYPG     H16S     HAL3     0.900000E-01   1.00800           0   0.00000     -0.301140E-02
     24873 MEMB     200      PYPG     H16T     HAL3     0.900000E-01   1.00800           0   0.00000     -0.301140E-02
     24874 MEMB     200      PYPG     C33      CTL2    -0.180000       12.0110           0   0.00000     -0.301140E-02
     24875 MEMB     200      PYPG     H3X      HAL2     0.900000E-01   1.00800           0   0.00000     -0.301140E-02
     24876 MEMB     200      PYPG     H3Y      HAL2     0.900000E-01   1.00800           0   0.00000     -0.301140E-02
     24877 MEMB     200      PYPG     C34      CTL2    -0.180000       12.0110           0   0.00000     -0.301140E-02
     24878 MEMB     200      PYPG     H4X      HAL2     0.900000E-01   1.00800           0   0.00000     -0.301140E-02
     24879 MEMB     200      PYPG     H4Y      HAL2     0.900000E-01   1.00800           0   0.00000     -0.301140E-02
     24880 MEMB     200      PYPG     C35      CTL2    -0.180000       12.0110           0   0.00000     -0.301140E-02
     24881 MEMB     200      PYPG     H5X      HAL2     0.900000E-01   1.00800           0   0.00000     -0.301140E-02
     24882 MEMB     200      PYPG     H5Y      HAL2     0.900000E-01   1.00800           0   0.00000     -0.301140E-02
     24883 MEMB     200      PYPG     C36      CTL2    -0.180000       12.0110           0   0.00000     -0.301140E-02
     24884 MEMB     200      PYPG     H6X      HAL2     0.900000E-01   1.00800           0   0.00000     -0.301140E-02
     24885 MEMB     200      PYPG     H6Y      HAL2     0.900000E-01   1.00800           0   0.00000     -0.301140E-02
     24886 MEMB     200      PYPG     C37      CTL2    -0.180000       12.0110           0   0.00000     -0.301140E-02
     24887 MEMB     200      PYPG     H7X      HAL2     0.900000E-01   1.00800           0   0.00000     -0.301140E-02
     24888 MEMB     200      PYPG     H7Y      HAL2     0.900000E-01   1.00800           0   0.00000     -0.301140E-02
     24889 MEMB     200      PYPG     C38      CTL2    -0.180000       12.0110           0   0.00000     -0.301140E-02
     24890 MEMB     200      PYPG     H8X      HAL2     0.900000E-01   1.00800           0   0.00000     -0.301140E-02
     24891 MEMB     200      PYPG     H8Y      HAL2     0.900000E-01   1.00800           0   0.00000     -0.301140E-02
     24892 MEMB     200      PYPG     C39      CTL2    -0.180000       12.0110           0   0.00000     -0.301140E-02
     24893 MEMB     200      PYPG     H9X      HAL2     0.900000E-01   1.00800           0   0.00000     -0.301140E-02
     24894 MEMB     200      PYPG     H9Y      HAL2     0.900000E-01   1.00800           0   0.00000     -0.301140E-02
     24895 MEMB     200      PYPG     C310     CTL2    -0.180000       12.0110           0   0.00000     -0.301140E-02
     24896 MEMB     200      PYPG     H10X     HAL2     0.900000E-01   1.00800           0   0.00000     -0.301140E-02
     24897 MEMB     200      PYPG     H10Y     HAL2     0.900000E-01   1.00800           0   0.00000     -0.301140E-02
     24898 MEMB     200      PYPG     C311     CTL2    -0.180000       12.0110           0   0.00000     -0.301140E-02
     24899 MEMB     200      PYPG     H11X     HAL2     0.900000E-01   1.00800           0   0.00000     -0.301140E-02
     24900 MEMB     200      PYPG     H11Y     HAL2     0.900000E-01   1.00800           0   0.00000     -0.301140E-02
     24901 MEMB     200      PYPG     C312     CTL2    -0.180000       12.0110           0   0.00000     -0.301140E-02
     24902 MEMB     200      PYPG     H12X     HAL2     0.900000E-01   1.00800           0   0.00000     -0.301140E-02
     24903 MEMB     200      PYPG     H12Y     HAL2     0.900000E-01   1.00800           0   0.00000     -0.301140E-02
     24904 MEMB     200      PYPG     C313     CTL2    -0.180000       12.0110           0   0.00000     -0.301140E-02
     24905 MEMB     200      PYPG     H13X     HAL2     0.900000E-01   1.00800           0   0.00000     -0.301140E-02
     24906 MEMB     200      PYPG     H13Y     HAL2     0.900000E-01   1.00800           0   0.00000     -0.301140E-02
     24907 MEMB     200      PYPG     C314     CTL2    -0.180000       12.0110           0   0.00000     -0.301140E-02
     24908 MEMB     200      PYPG     H14X     HAL2     0.900000E-01   1.00800           0   0.00000     -0.301140E-02
     24909 MEMB     200      PYPG     H14Y     HAL2     0.900000E-01   1.00800           0   0.00000     -0.301140E-02
     24910 MEMB     200      PYPG     C315     CTL2    -0.180000       12.0110           0   0.00000     -0.301140E-02
     24911 MEMB     200      PYPG     H15X     HAL2     0.900000E-01   1.00800           0   0.00000     -0.301140E-02
     24912 MEMB     200      PYPG     H15Y     HAL2     0.900000E-01   1.00800           0   0.00000     -0.301140E-02
     24913 MEMB     200      PYPG     C316     CTL3    -0.270000       12.0110           0   0.00000     -0.301140E-02
     24914 MEMB     200      PYPG     H16X     HAL3     0.900000E-01   1.00800           0   0.00000     -0.301140E-02
     24915 MEMB     200      PYPG     H16Y     HAL3     0.900000E-01   1.00800           0   0.00000     -0.301140E-02
     24916 MEMB     200      PYPG     H16Z     HAL3     0.900000E-01   1.00800           0   0.00000     -0.301140E-02
     24917 TIP3     1        TIP3     OH2      OT      -0.834000       15.9994           0   0.00000       0.00000    
     24918 TIP3     1        TIP3     H1       HT       0.417000       1.00800           0   0.00000       0.00000    
     24919 TIP3     1        TIP3     H2       HT       0.417000       1.00800           0   0.00000     -0.301140E-02
     24920 TIP3     2        TIP3     OH2      OT      -0.834000       15.9994           0   0.00000       0.00000    
     24921 TIP3     2        TIP3     H1       HT       0.417000       1.00800           0   0.00000       0.00000    
     24922 TIP3     2        TIP3     H2       HT       0.417000       1.00800           0   0.00000     -0.301140E-02
     24923 TIP3     3        TIP3     OH2      OT      -0.834000       15.9994           0   0.00000       0.00000    
     24924 TIP3     3        TIP3     H1       HT       0.417000       1.00800           0   0.00000       0.00000    
     24925 TIP3     3        TIP3     H2       HT       0.417000       1.00800           0   0.00000     -0.301140E-02
     24926 TIP3     4        TIP3     OH2      OT      -0.834000       15.9994           0   0.00000       0.00000    
     24927 TIP3     4        TIP3     H1       HT       0.417000       1.00800           0   0.00000       0.00000    
     24928 TIP3     4        TIP3     H2       HT       0.417000       1.00800           0   0.00000     -0.301140E-02
     24929 TIP3     5        TIP3     OH2      OT      -0.834000       15.9994           0   0.00000       0.00000    
     24930 TIP3     5        TIP3     H1       HT       0.417000       1.00800           0   0.00000       0.00000    
     24931 TIP3     5        TIP3     H2       HT       0.417000       1.00800           0   0.00000     -0.301140E-02
     24932 TIP3     6        TIP3     OH2      OT      -0.834000       15.9994           0   0.00000       0.00000    
     24933 TIP3     6        TIP3     H1       HT       0.417000       1.00800           0   0.00000       0.00000    
     24934 TIP3     6        TIP3     H2       HT       0.417000       1.00800           0   0.00000     -0.301140E-02
     24935 TIP3     7        TIP3     OH2      OT      -0.834000       15.9994           0   0.00000       0.00000    
     24936 TIP3     7        TIP3     H1       HT       0.417000       1.00800           0   0.00000       0.00000    
     24937 TIP3     7        TIP3     H2       HT       0.417000       1.00800           0   0.00000     -0.301140E-02
     24938 TIP3     8        TIP3     OH2      OT      -0.834000       15.9994           0   0.00000       0.00000    
     24939 TIP3     8        TIP3     H1       HT       0.417000       1.00800           0   0.00000       0.00000    
     24940 TIP3     8        TIP3     H2       HT       0.417000       1.00800           0   0.00000     -0.301140E-02
     24941 TIP3     9        TIP3     OH2      OT      -0.834000       15.9994           0   0.00000       0.00000    
     24942 TIP3     9        TIP3     H1       HT       0.417000       1.00800           0   0.00000       0.00000    
     24943 TIP3     9        TIP3     H2       HT       0.417000       1.00800           0   0.00000     -0.301140E-02
     24944 TIP3     10       TIP3     OH2      OT      -0.834000       15.9994           0   0.00000       0.00000    
     24945 TIP3     10       TIP3     H1       HT       0.417000       1.00800           0   0.00000       0.00000    
     24946 TIP3     10       TIP3     H2       HT       0.417000       1.00800           0   0.00000     -0.301140E-02
     24947 TIP3     11       TIP3     OH2      OT      -0.834000       15.9994           0   0.00000       0.00000    
     24948 TIP3     11       TIP3     H1       HT       0.417000       1.00800           0   0.00000       0.00000    
     24949 TIP3     11       TIP3     H2       HT       0.417000       1.00800           0   0.00000     -0.301140E-02
     24950 TIP3     12       TIP3     OH2      OT      -0.834000       15.9994           0   0.00000       0.00000    
     24951 TIP3     12       TIP3     H1       HT       0.417000       1.00800           0   0.00000       0.00000    
     24952 TIP3     12       TIP3     H2       HT       0.417000       1.00800           0   0.00000     -0.301140E-02
     24953 TIP3     13       TIP3     OH2      OT      -0.834000       15.9994           0   0.00000       0.00000    
     24954 TIP3     13       TIP3     H1       HT       0.417000       1.00800           0   0.00000       0.00000    
     24955 TIP3     13       TIP3     H2       HT       0.417000       1.00800           0   0.00000     -0.301140E-02
     24956 TIP3     14       TIP3     OH2      OT      -0.834000       15.9994           0   0.00000       0.00000    
     24957 TIP3     14       TIP3     H1       HT       0.417000       1.00800           0   0.00000       0.00000    
     24958 TIP3     14       TIP3     H2       HT       0.417000       1.00800           0   0.00000     -0.301140E-02
     24959 TIP3     15       TIP3     OH2      OT      -0.834000       15.9994           0   0.00000       0.00000    
     24960 TIP3     15       TIP3     H1       HT       0.417000       1.00800           0   0.00000       0.00000    
     24961 TIP3     15       TIP3     H2       HT       0.417000       1.00800           0   0.00000     -0.301140E-02
     24962 TIP3     16       TIP3     OH2      OT      -0.834000       15.9994           0   0.00000       0.00000    
     24963 TIP3     16       TIP3     H1       HT       0.417000       1.00800           0   0.00000       0.00000    
     24964 TIP3     16       TIP3     H2       HT       0.417000       1.00800           0   0.00000     -0.301140E-02
     24965 TIP3     17       TIP3     OH2      OT      -0.834000       15.9994           0   0.00000       0.00000    
     24966 TIP3     17       TIP3     H1       HT       0.417000       1.00800           0   0.00000       0.00000    
     24967 TIP3     17       TIP3     H2       HT       0.417000       1.00800           0   0.00000     -0.301140E-02
     24968 TIP3     18       TIP3     OH2      OT      -0.834000       15.9994           0   0.00000       0.00000    
     24969 TIP3     18       TIP3     H1       HT       0.417000       1.00800           0   0.00000       0.00000    
     24970 TIP3     18       TIP3     H2       HT       0.417000       1.00800           0   0.00000     -0.301140E-02
     24971 TIP3     19       TIP3     OH2      OT      -0.834000       15.9994           0   0.00000       0.00000    
     24972 TIP3     19       TIP3     H1       HT       0.417000       1.00800           0   0.00000       0.00000    
     24973 TIP3     19       TIP3     H2       HT       0.417000       1.00800           0   0.00000     -0.301140E-02
     24974 TIP3     20       TIP3     OH2      OT      -0.834000       15.9994           0   0.00000       0.00000    
     24975 TIP3     20       TIP3     H1       HT       0.417000       1.00800           0   0.00000       0.00000    
     24976 TIP3     20       TIP3     H2       HT       0.417000       1.00800           0   0.00000     -0.301140E-02
     24977 TIP3     21       TIP3     OH2      OT      -0.834000       15.9994           0   0.00000       0.00000    
     24978 TIP3     21       TIP3     H1       HT       0.417000       1.00800           0   0.00000       0.00000    
     24979 TIP3     21       TIP3     H2       HT       0.417000       1.00800           0   0.00000     -0.301140E-02
     24980 TIP3     22       TIP3     OH2      OT      -0.834000       15.9994           0   0.00000       0.00000    
     24981 TIP3     22       TIP3     H1       HT       0.417000       1.00800           0   0.00000       0.00000    
     24982 TIP3     22       TIP3     H2       HT       0.417000       1.00800           0   0.00000     -0.301140E-02
     24983 TIP3     23       TIP3     OH2      OT      -0.834000       15.9994           0   0.00000       0.00000    
     24984 TIP3     23       TIP3     H1       HT       0.417000       1.00800           0   0.00000       0.00000    
     24985 TIP3     23       TIP3     H2       HT       0.417000       1.00800           0   0.00000     -0.301140E-02
     24986 TIP3     24       TIP3     OH2      OT      -0.834000       15.9994           0   0.00000       0.00000    
     24987 TIP3     24       TIP3     H1       HT       0.417000       1.00800           0   0.00000       0.00000    
     24988 TIP3     24       TIP3     H2       HT       0.417000       1.00800           0   0.00000     -0.301140E-02
     24989 TIP3     25       TIP3     OH2      OT      -0.834000       15.9994           0   0.00000       0.00000    
     24990 TIP3     25       TIP3     H1       HT       0.417000       1.00800           0   0.00000       0.00000    
     24991 TIP3     25       TIP3     H2       HT       0.417000       1.00800           0   0.00000     -0.301140E-02
     24992 TIP3     26       TIP3     OH2      OT      -0.834000       15.9994           0   0.00000       0.00000    
     24993 TIP3     26       TIP3     H1       HT       0.417000       1.00800           0   0.00000       0.00000    
     24994 TIP3     26       TIP3     H2       HT       0.417000       1.00800           0   0.00000     -0.301140E-02
     24995 TIP3     27       TIP3     OH2      OT      -0.834000       15.9994           0   0.00000       0.00000    
     24996 TIP3     27       TIP3     H1       HT       0.417000       1.00800           0   0.00000       0.00000    
     24997 TIP3     27       TIP3     H2       HT       0.417000       1.00800           0   0.00000     -0.301140E-02
     24998 TIP3     28       TIP3     OH2      OT      -0.834000       15.9994           0   0.00000       0.00000    
     24999 TIP3     28       TIP3     H1       HT       0.417000       1.00800           0   0.00000       0.00000    
     25000 TIP3     28       TIP3     H2       HT       0.417000       1.00800           0   0.00000     -0.301140E-02
     25001 TIP3     29       TIP3     OH2      OT      -0.834000       15.9994           0   0.00000       0.00000    
     25002 TIP3     29       TIP3     H1       HT       0.417000       1.00800           0   0.00000       0.00000    
     25003 TIP3     29       TIP3     H2       HT       0.417000       1.00800           0   0.00000     -0.301140E-02
     25004 TIP3     30       TIP3     OH2      OT      -0.834000       15.9994           0   0.00000       0.00000    
     25005 TIP3     30       TIP3     H1       HT       0.417000       1.00800           0   0.00000       0.00000    
     25006 TIP3     30       TIP3     H2       HT       0.417000       1.00800           0   0.00000     -0.301140E-02
     25007 TIP3     31       TIP3     OH2      OT      -0.834000       15.9994           0   0.00000       0.00000    
     25008 TIP3     31       TIP3     H1       HT       0.417000       1.00800           0   0.00000       0.00000    
     25009 TIP3     31       TIP3     H2       HT       0.417000       1.00800           0   0.00000     -0.301140E-02
     25010 TIP3     32       TIP3     OH2      OT      -0.834000       15.9994           0   0.00000       0.00000    
     25011 TIP3     32       TIP3     H1       HT       0.417000       1.00800           0   0.00000       0.00000    
     25012 TIP3     32       TIP3     H2       HT       0.417000       1.00800           0   0.00000     -0.301140E-02
     25013 TIP3     33       TIP3     OH2      OT      -0.834000       15.9994           0   0.00000       0.00000    
     25014 TIP3     33       TIP3     H1       HT       0.417000       1.00800           0   0.00000       0.00000    
     25015 TIP3     33       TIP3     H2       HT       0.417000       1.00800           0   0.00000     -0.301140E-02
     25016 TIP3     34       TIP3     OH2      OT      -0.834000       15.9994           0   0.00000       0.00000    
     25017 TIP3     34       TIP3     H1       HT       0.417000       1.00800           0   0.00000       0.00000    
     25018 TIP3     34       TIP3     H2       HT       0.417000       1.00800           0   0.00000     -0.301140E-02
     25019 TIP3     35       TIP3     OH2      OT      -0.834000       15.9994           0   0.00000       0.00000    
     25020 TIP3     35       TIP3     H1       HT       0.417000       1.00800           0   0.00000       0.00000    
     25021 TIP3     35       TIP3     H2       HT       0.417000       1.00800           0   0.00000     -0.301140E-02
     25022 TIP3     36       TIP3     OH2      OT      -0.834000       15.9994           0   0.00000       0.00000    
     25023 TIP3     36       TIP3     H1       HT       0.417000       1.00800           0   0.00000       0.00000    
     25024 TIP3     36       TIP3     H2       HT       0.417000       1.00800           0   0.00000     -0.301140E-02
     25025 TIP3     37       TIP3     OH2      OT      -0.834000       15.9994           0   0.00000       0.00000    
     25026 TIP3     37       TIP3     H1       HT       0.417000       1.00800           0   0.00000       0.00000    
     25027 TIP3     37       TIP3     H2       HT       0.417000       1.00800           0   0.00000     -0.301140E-02
     25028 TIP3     38       TIP3     OH2      OT      -0.834000       15.9994           0   0.00000       0.00000    
     25029 TIP3     38       TIP3     H1       HT       0.417000       1.00800           0   0.00000       0.00000    
     25030 TIP3     38       TIP3     H2       HT       0.417000       1.00800           0   0.00000     -0.301140E-02
     25031 TIP3     39       TIP3     OH2      OT      -0.834000       15.9994           0   0.00000       0.00000    
     25032 TIP3     39       TIP3     H1       HT       0.417000       1.00800           0   0.00000       0.00000    
     25033 TIP3     39       TIP3     H2       HT       0.417000       1.00800           0   0.00000     -0.301140E-02
     25034 TIP3     40       TIP3     OH2      OT      -0.834000       15.9994           0   0.00000       0.00000    
     25035 TIP3     40       TIP3     H1       HT       0.417000       1.00800           0   0.00000       0.00000    
     25036 TIP3     40       TIP3     H2       HT       0.417000       1.00800           0   0.00000     -0.301140E-02
     25037 TIP3     41       TIP3     OH2      OT      -0.834000       15.9994           0   0.00000       0.00000    
     25038 TIP3     41       TIP3     H1       HT       0.417000       1.00800           0   0.00000       0.00000    
     25039 TIP3     41       TIP3     H2       HT       0.417000       1.00800           0   0.00000     -0.301140E-02
     25040 TIP3     42       TIP3     OH2      OT      -0.834000       15.9994           0   0.00000       0.00000    
     25041 TIP3     42       TIP3     H1       HT       0.417000       1.00800           0   0.00000       0.00000    
     25042 TIP3     42       TIP3     H2       HT       0.417000       1.00800           0   0.00000     -0.301140E-02
     25043 TIP3     43       TIP3     OH2      OT      -0.834000       15.9994           0   0.00000       0.00000    
     25044 TIP3     43       TIP3     H1       HT       0.417000       1.00800           0   0.00000       0.00000    
     25045 TIP3     43       TIP3     H2       HT       0.417000       1.00800           0   0.00000     -0.301140E-02
     25046 TIP3     44       TIP3     OH2      OT      -0.834000       15.9994           0   0.00000       0.00000    
     25047 TIP3     44       TIP3     H1       HT       0.417000       1.00800           0   0.00000       0.00000    
     25048 TIP3     44       TIP3     H2       HT       0.417000       1.00800           0   0.00000     -0.301140E-02
     25049 TIP3     45       TIP3     OH2      OT      -0.834000       15.9994           0   0.00000       0.00000    
     25050 TIP3     45       TIP3     H1       HT       0.417000       1.00800           0   0.00000       0.00000    
     25051 TIP3     45       TIP3     H2       HT       0.417000       1.00800           0   0.00000     -0.301140E-02
     25052 TIP3     46       TIP3     OH2      OT      -0.834000       15.9994           0   0.00000       0.00000    
     25053 TIP3     46       TIP3     H1       HT       0.417000       1.00800           0   0.00000       0.00000    
     25054 TIP3     46       TIP3     H2       HT       0.417000       1.00800           0   0.00000     -0.301140E-02
     25055 TIP3     47       TIP3     OH2      OT      -0.834000       15.9994           0   0.00000       0.00000    
     25056 TIP3     47       TIP3     H1       HT       0.417000       1.00800           0   0.00000       0.00000    
     25057 TIP3     47       TIP3     H2       HT       0.417000       1.00800           0   0.00000     -0.301140E-02
     25058 TIP3     48       TIP3     OH2      OT      -0.834000       15.9994           0   0.00000       0.00000    
     25059 TIP3     48       TIP3     H1       HT       0.417000       1.00800           0   0.00000       0.00000    
     25060 TIP3     48       TIP3     H2       HT       0.417000       1.00800           0   0.00000     -0.301140E-02
     25061 TIP3     49       TIP3     OH2      OT      -0.834000       15.9994           0   0.00000       0.00000    
     25062 TIP3     49       TIP3     H1       HT       0.417000       1.00800           0   0.00000       0.00000    
     25063 TIP3     49       TIP3     H2       HT       0.417000       1.00800           0   0.00000     -0.301140E-02
     25064 TIP3     50       TIP3     OH2      OT      -0.834000       15.9994           0   0.00000       0.00000    
     25065 TIP3     50       TIP3     H1       HT       0.417000       1.00800           0   0.00000       0.00000    
     25066 TIP3     50       TIP3     H2       HT       0.417000       1.00800           0   0.00000     -0.301140E-02
     25067 TIP3     51       TIP3     OH2      OT      -0.834000       15.9994           0   0.00000       0.00000    
     25068 TIP3     51       TIP3     H1       HT       0.417000       1.00800           0   0.00000       0.00000    
     25069 TIP3     51       TIP3     H2       HT       0.417000       1.00800           0   0.00000     -0.301140E-02
     25070 TIP3     52       TIP3     OH2      OT      -0.834000       15.9994           0   0.00000       0.00000    
     25071 TIP3     52       TIP3     H1       HT       0.417000       1.00800           0   0.00000       0.00000    
     25072 TIP3     52       TIP3     H2       HT       0.417000       1.00800           0   0.00000     -0.301140E-02
     25073 TIP3     53       TIP3     OH2      OT      -0.834000       15.9994           0   0.00000       0.00000    
     25074 TIP3     53       TIP3     H1       HT       0.417000       1.00800           0   0.00000       0.00000    
     25075 TIP3     53       TIP3     H2       HT       0.417000       1.00800           0   0.00000     -0.301140E-02
     25076 TIP3     54       TIP3     OH2      OT      -0.834000       15.9994           0   0.00000       0.00000    
     25077 TIP3     54       TIP3     H1       HT       0.417000       1.00800           0   0.00000       0.00000    
     25078 TIP3     54       TIP3     H2       HT       0.417000       1.00800           0   0.00000     -0.301140E-02
     25079 TIP3     55       TIP3     OH2      OT      -0.834000       15.9994           0   0.00000       0.00000    
     25080 TIP3     55       TIP3     H1       HT       0.417000       1.00800           0   0.00000       0.00000    
     25081 TIP3     55       TIP3     H2       HT       0.417000       1.00800           0   0.00000     -0.301140E-02
     25082 TIP3     56       TIP3     OH2      OT      -0.834000       15.9994           0   0.00000       0.00000    
     25083 TIP3     56       TIP3     H1       HT       0.417000       1.00800           0   0.00000       0.00000    
     25084 TIP3     56       TIP3     H2       HT       0.417000       1.00800           0   0.00000     -0.301140E-02
     25085 TIP3     57       TIP3     OH2      OT      -0.834000       15.9994           0   0.00000       0.00000    
     25086 TIP3     57       TIP3     H1       HT       0.417000       1.00800           0   0.00000       0.00000    
     25087 TIP3     57       TIP3     H2       HT       0.417000       1.00800           0   0.00000     -0.301140E-02
     25088 TIP3     58       TIP3     OH2      OT      -0.834000       15.9994           0   0.00000       0.00000    
     25089 TIP3     58       TIP3     H1       HT       0.417000       1.00800           0   0.00000       0.00000    
     25090 TIP3     58       TIP3     H2       HT       0.417000       1.00800           0   0.00000     -0.301140E-02
     25091 TIP3     59       TIP3     OH2      OT      -0.834000       15.9994           0   0.00000       0.00000    
     25092 TIP3     59       TIP3     H1       HT       0.417000       1.00800           0   0.00000       0.00000    
     25093 TIP3     59       TIP3     H2       HT       0.417000       1.00800           0   0.00000     -0.301140E-02
     25094 TIP3     60       TIP3     OH2      OT      -0.834000       15.9994           0   0.00000       0.00000    
     25095 TIP3     60       TIP3     H1       HT       0.417000       1.00800           0   0.00000       0.00000    
     25096 TIP3     60       TIP3     H2       HT       0.417000       1.00800           0   0.00000     -0.301140E-02
     25097 TIP3     61       TIP3     OH2      OT      -0.834000       15.9994           0   0.00000       0.00000    
     25098 TIP3     61       TIP3     H1       HT       0.417000       1.00800           0   0.00000       0.00000    
     25099 TIP3     61       TIP3     H2       HT       0.417000       1.00800           0   0.00000     -0.301140E-02
     25100 TIP3     62       TIP3     OH2      OT      -0.834000       15.9994           0   0.00000       0.00000    
     25101 TIP3     62       TIP3     H1       HT       0.417000       1.00800           0   0.00000       0.00000    
     25102 TIP3     62       TIP3     H2       HT       0.417000       1.00800           0   0.00000     -0.301140E-02
     25103 TIP3     63       TIP3     OH2      OT      -0.834000       15.9994           0   0.00000       0.00000    
     25104 TIP3     63       TIP3     H1       HT       0.417000       1.00800           0   0.00000       0.00000    
     25105 TIP3     63       TIP3     H2       HT       0.417000       1.00800           0   0.00000     -0.301140E-02
     25106 TIP3     64       TIP3     OH2      OT      -0.834000       15.9994           0   0.00000       0.00000    
     25107 TIP3     64       TIP3     H1       HT       0.417000       1.00800           0   0.00000       0.00000    
     25108 TIP3     64       TIP3     H2       HT       0.417000       1.00800           0   0.00000     -0.301140E-02
     25109 TIP3     65       TIP3     OH2      OT      -0.834000       15.9994           0   0.00000       0.00000    
     25110 TIP3     65       TIP3     H1       HT       0.417000       1.00800           0   0.00000       0.00000    
     25111 TIP3     65       TIP3     H2       HT       0.417000       1.00800           0   0.00000     -0.301140E-02
     25112 TIP3     66       TIP3     OH2      OT      -0.834000       15.9994           0   0.00000       0.00000    
     25113 TIP3     66       TIP3     H1       HT       0.417000       1.00800           0   0.00000       0.00000    
     25114 TIP3     66       TIP3     H2       HT       0.417000       1.00800           0   0.00000     -0.301140E-02
     25115 TIP3     67       TIP3     OH2      OT      -0.834000       15.9994           0   0.00000       0.00000    
     25116 TIP3     67       TIP3     H1       HT       0.417000       1.00800           0   0.00000       0.00000    
     25117 TIP3     67       TIP3     H2       HT       0.417000       1.00800           0   0.00000     -0.301140E-02
     25118 TIP3     68       TIP3     OH2      OT      -0.834000       15.9994           0   0.00000       0.00000    
     25119 TIP3     68       TIP3     H1       HT       0.417000       1.00800           0   0.00000       0.00000    
     25120 TIP3     68       TIP3     H2       HT       0.417000       1.00800           0   0.00000     -0.301140E-02
     25121 TIP3     69       TIP3     OH2      OT      -0.834000       15.9994           0   0.00000       0.00000    
     25122 TIP3     69       TIP3     H1       HT       0.417000       1.00800           0   0.00000       0.00000    
     25123 TIP3     69       TIP3     H2       HT       0.417000       1.00800           0   0.00000     -0.301140E-02
     25124 TIP3     70       TIP3     OH2      OT      -0.834000       15.9994           0   0.00000       0.00000    
     25125 TIP3     70       TIP3     H1       HT       0.417000       1.00800           0   0.00000       0.00000    
     25126 TIP3     70       TIP3     H2       HT       0.417000       1.00800           0   0.00000     -0.301140E-02
     25127 TIP3     71       TIP3     OH2      OT      -0.834000       15.9994           0   0.00000       0.00000    
     25128 TIP3     71       TIP3     H1       HT       0.417000       1.00800           0   0.00000       0.00000    
     25129 TIP3     71       TIP3     H2       HT       0.417000       1.00800           0   0.00000     -0.301140E-02
     25130 TIP3     72       TIP3     OH2      OT      -0.834000       15.9994           0   0.00000       0.00000    
     25131 TIP3     72       TIP3     H1       HT       0.417000       1.00800           0   0.00000       0.00000    
     25132 TIP3     72       TIP3     H2       HT       0.417000       1.00800           0   0.00000     -0.301140E-02
     25133 TIP3     73       TIP3     OH2      OT      -0.834000       15.9994           0   0.00000       0.00000    
     25134 TIP3     73       TIP3     H1       HT       0.417000       1.00800           0   0.00000       0.00000    
     25135 TIP3     73       TIP3     H2       HT       0.417000       1.00800           0   0.00000     -0.301140E-02
     25136 TIP3     74       TIP3     OH2      OT      -0.834000       15.9994           0   0.00000       0.00000    
     25137 TIP3     74       TIP3     H1       HT       0.417000       1.00800           0   0.00000       0.00000    
     25138 TIP3     74       TIP3     H2       HT       0.417000       1.00800           0   0.00000     -0.301140E-02
     25139 TIP3     75       TIP3     OH2      OT      -0.834000       15.9994           0   0.00000       0.00000    
     25140 TIP3     75       TIP3     H1       HT       0.417000       1.00800           0   0.00000       0.00000    
     25141 TIP3     75       TIP3     H2       HT       0.417000       1.00800           0   0.00000     -0.301140E-02
     25142 TIP3     76       TIP3     OH2      OT      -0.834000       15.9994           0   0.00000       0.00000    
     25143 TIP3     76       TIP3     H1       HT       0.417000       1.00800           0   0.00000       0.00000    
     25144 TIP3     76       TIP3     H2       HT       0.417000       1.00800           0   0.00000     -0.301140E-02
     25145 TIP3     77       TIP3     OH2      OT      -0.834000       15.9994           0   0.00000       0.00000    
     25146 TIP3     77       TIP3     H1       HT       0.417000       1.00800           0   0.00000       0.00000    
     25147 TIP3     77       TIP3     H2       HT       0.417000       1.00800           0   0.00000     -0.301140E-02
     25148 TIP3     78       TIP3     OH2      OT      -0.834000       15.9994           0   0.00000       0.00000    
     25149 TIP3     78       TIP3     H1       HT       0.417000       1.00800           0   0.00000       0.00000    
     25150 TIP3     78       TIP3     H2       HT       0.417000       1.00800           0   0.00000     -0.301140E-02
     25151 TIP3     79       TIP3     OH2      OT      -0.834000       15.9994           0   0.00000       0.00000    
     25152 TIP3     79       TIP3     H1       HT       0.417000       1.00800           0   0.00000       0.00000    
     25153 TIP3     79       TIP3     H2       HT       0.417000       1.00800           0   0.00000     -0.301140E-02
     25154 TIP3     80       TIP3     OH2      OT      -0.834000       15.9994           0   0.00000       0.00000    
     25155 TIP3     80       TIP3     H1       HT       0.417000       1.00800           0   0.00000       0.00000    
     25156 TIP3     80       TIP3     H2       HT       0.417000       1.00800           0   0.00000     -0.301140E-02
     25157 TIP3     81       TIP3     OH2      OT      -0.834000       15.9994           0   0.00000       0.00000    
     25158 TIP3     81       TIP3     H1       HT       0.417000       1.00800           0   0.00000       0.00000    
     25159 TIP3     81       TIP3     H2       HT       0.417000       1.00800           0   0.00000     -0.301140E-02
     25160 TIP3     82       TIP3     OH2      OT      -0.834000       15.9994           0   0.00000       0.00000    
     25161 TIP3     82       TIP3     H1       HT       0.417000       1.00800           0   0.00000       0.00000    
     25162 TIP3     82       TIP3     H2       HT       0.417000       1.00800           0   0.00000     -0.301140E-02
     25163 TIP3     83       TIP3     OH2      OT      -0.834000       15.9994           0   0.00000       0.00000    
     25164 TIP3     83       TIP3     H1       HT       0.417000       1.00800           0   0.00000       0.00000    
     25165 TIP3     83       TIP3     H2       HT       0.417000       1.00800           0   0.00000     -0.301140E-02
     25166 TIP3     84       TIP3     OH2      OT      -0.834000       15.9994           0   0.00000       0.00000    
     25167 TIP3     84       TIP3     H1       HT       0.417000       1.00800           0   0.00000       0.00000    
     25168 TIP3     84       TIP3     H2       HT       0.417000       1.00800           0   0.00000     -0.301140E-02
     25169 TIP3     85       TIP3     OH2      OT      -0.834000       15.9994           0   0.00000       0.00000    
     25170 TIP3     85       TIP3     H1       HT       0.417000       1.00800           0   0.00000       0.00000    
     25171 TIP3     85       TIP3     H2       HT       0.417000       1.00800           0   0.00000     -0.301140E-02
     25172 TIP3     86       TIP3     OH2      OT      -0.834000       15.9994           0   0.00000       0.00000    
     25173 TIP3     86       TIP3     H1       HT       0.417000       1.00800           0   0.00000       0.00000    
     25174 TIP3     86       TIP3     H2       HT       0.417000       1.00800           0   0.00000     -0.301140E-02
     25175 TIP3     87       TIP3     OH2      OT      -0.834000       15.9994           0   0.00000       0.00000    
     25176 TIP3     87       TIP3     H1       HT       0.417000       1.00800           0   0.00000       0.00000    
     25177 TIP3     87       TIP3     H2       HT       0.417000       1.00800           0   0.00000     -0.301140E-02
     25178 TIP3     88       TIP3     OH2      OT      -0.834000       15.9994           0   0.00000       0.00000    
     25179 TIP3     88       TIP3     H1       HT       0.417000       1.00800           0   0.00000       0.00000    
     25180 TIP3     88       TIP3     H2       HT       0.417000       1.00800           0   0.00000     -0.301140E-02
     25181 TIP3     89       TIP3     OH2      OT      -0.834000       15.9994           0   0.00000       0.00000    
     25182 TIP3     89       TIP3     H1       HT       0.417000       1.00800           0   0.00000       0.00000    
     25183 TIP3     89       TIP3     H2       HT       0.417000       1.00800           0   0.00000     -0.301140E-02
     25184 TIP3     90       TIP3     OH2      OT      -0.834000       15.9994           0   0.00000       0.00000    
     25185 TIP3     90       TIP3     H1       HT       0.417000       1.00800           0   0.00000       0.00000    
     25186 TIP3     90       TIP3     H2       HT       0.417000       1.00800           0   0.00000     -0.301140E-02
     25187 TIP3     91       TIP3     OH2      OT      -0.834000       15.9994           0   0.00000       0.00000    
     25188 TIP3     91       TIP3     H1       HT       0.417000       1.00800           0   0.00000       0.00000    
     25189 TIP3     91       TIP3     H2       HT       0.417000       1.00800           0   0.00000     -0.301140E-02
     25190 TIP3     92       TIP3     OH2      OT      -0.834000       15.9994           0   0.00000       0.00000    
     25191 TIP3     92       TIP3     H1       HT       0.417000       1.00800           0   0.00000       0.00000    
     25192 TIP3     92       TIP3     H2       HT       0.417000       1.00800           0   0.00000     -0.301140E-02
     25193 TIP3     93       TIP3     OH2      OT      -0.834000       15.9994           0   0.00000       0.00000    
     25194 TIP3     93       TIP3     H1       HT       0.417000       1.00800           0   0.00000       0.00000    
     25195 TIP3     93       TIP3     H2       HT       0.417000       1.00800           0   0.00000     -0.301140E-02
     25196 TIP3     94       TIP3     OH2      OT      -0.834000       15.9994           0   0.00000       0.00000    
     25197 TIP3     94       TIP3     H1       HT       0.417000       1.00800           0   0.00000       0.00000    
     25198 TIP3     94       TIP3     H2       HT       0.417000       1.00800           0   0.00000     -0.301140E-02
     25199 TIP3     95       TIP3     OH2      OT      -0.834000       15.9994           0   0.00000       0.00000    
     25200 TIP3     95       TIP3     H1       HT       0.417000       1.00800           0   0.00000       0.00000    
     25201 TIP3     95       TIP3     H2       HT       0.417000       1.00800           0   0.00000     -0.301140E-02
     25202 TIP3     96       TIP3     OH2      OT      -0.834000       15.9994           0   0.00000       0.00000    
     25203 TIP3     96       TIP3     H1       HT       0.417000       1.00800           0   0.00000       0.00000    
     25204 TIP3     96       TIP3     H2       HT       0.417000       1.00800           0   0.00000     -0.301140E-02
     25205 TIP3     97       TIP3     OH2      OT      -0.834000       15.9994           0   0.00000       0.00000    
     25206 TIP3     97       TIP3     H1       HT       0.417000       1.00800           0   0.00000       0.00000    
     25207 TIP3     97       TIP3     H2       HT       0.417000       1.00800           0   0.00000     -0.301140E-02
     25208 TIP3     98       TIP3     OH2      OT      -0.834000       15.9994           0   0.00000       0.00000    
     25209 TIP3     98       TIP3     H1       HT       0.417000       1.00800           0   0.00000       0.00000    
     25210 TIP3     98       TIP3     H2       HT       0.417000       1.00800           0   0.00000     -0.301140E-02
     25211 TIP3     99       TIP3     OH2      OT      -0.834000       15.9994           0   0.00000       0.00000    
     25212 TIP3     99       TIP3     H1       HT       0.417000       1.00800           0   0.00000       0.00000    
     25213 TIP3     99       TIP3     H2       HT       0.417000       1.00800           0   0.00000     -0.301140E-02
     25214 TIP3     100      TIP3     OH2      OT      -0.834000       15.9994           0   0.00000       0.00000    
     25215 TIP3     100      TIP3     H1       HT       0.417000       1.00800           0   0.00000       0.00000    
     25216 TIP3     100      TIP3     H2       HT       0.417000       1.00800           0   0.00000     -0.301140E-02
     25217 TIP3     101      TIP3     OH2      OT      -0.834000       15.9994           0   0.00000       0.00000    
     25218 TIP3     101      TIP3     H1       HT       0.417000       1.00800           0   0.00000       0.00000    
     25219 TIP3     101      TIP3     H2       HT       0.417000       1.00800           0   0.00000     -0.301140E-02
     25220 TIP3     102      TIP3     OH2      OT      -0.834000       15.9994           0   0.00000       0.00000    
     25221 TIP3     102      TIP3     H1       HT       0.417000       1.00800           0   0.00000       0.00000    
     25222 TIP3     102      TIP3     H2       HT       0.417000       1.00800           0   0.00000     -0.301140E-02
     25223 TIP3     103      TIP3     OH2      OT      -0.834000       15.9994           0   0.00000       0.00000    
     25224 TIP3     103      TIP3     H1       HT       0.417000       1.00800           0   0.00000       0.00000    
     25225 TIP3     103      TIP3     H2       HT       0.417000       1.00800           0   0.00000     -0.301140E-02
     25226 TIP3     104      TIP3     OH2      OT      -0.834000       15.9994           0   0.00000       0.00000    
     25227 TIP3     104      TIP3     H1       HT       0.417000       1.00800           0   0.00000       0.00000    
     25228 TIP3     104      TIP3     H2       HT       0.417000       1.00800           0   0.00000     -0.301140E-02
     25229 TIP3     105      TIP3     OH2      OT      -0.834000       15.9994           0   0.00000       0.00000    
     25230 TIP3     105      TIP3     H1       HT       0.417000       1.00800           0   0.00000       0.00000    
     25231 TIP3     105      TIP3     H2       HT       0.417000       1.00800           0   0.00000     -0.301140E-02
     25232 TIP3     106      TIP3     OH2      OT      -0.834000       15.9994           0   0.00000       0.00000    
     25233 TIP3     106      TIP3     H1       HT       0.417000       1.00800           0   0.00000       0.00000    
     25234 TIP3     106      TIP3     H2       HT       0.417000       1.00800           0   0.00000     -0.301140E-02
     25235 TIP3     107      TIP3     OH2      OT      -0.834000       15.9994           0   0.00000       0.00000    
     25236 TIP3     107      TIP3     H1       HT       0.417000       1.00800           0   0.00000       0.00000    
     25237 TIP3     107      TIP3     H2       HT       0.417000       1.00800           0   0.00000     -0.301140E-02
     25238 TIP3     108      TIP3     OH2      OT      -0.834000       15.9994           0   0.00000       0.00000    
     25239 TIP3     108      TIP3     H1       HT       0.417000       1.00800           0   0.00000       0.00000    
     25240 TIP3     108      TIP3     H2       HT       0.417000       1.00800           0   0.00000     -0.301140E-02
     25241 TIP3     109      TIP3     OH2      OT      -0.834000       15.9994           0   0.00000       0.00000    
     25242 TIP3     109      TIP3     H1       HT       0.417000       1.00800           0   0.00000       0.00000    
     25243 TIP3     109      TIP3     H2       HT       0.417000       1.00800           0   0.00000     -0.301140E-02
     25244 TIP3     110      TIP3     OH2      OT      -0.834000       15.9994           0   0.00000       0.00000    
     25245 TIP3     110      TIP3     H1       HT       0.417000       1.00800           0   0.00000       0.00000    
     25246 TIP3     110      TIP3     H2       HT       0.417000       1.00800           0   0.00000     -0.301140E-02
     25247 TIP3     111      TIP3     OH2      OT      -0.834000       15.9994           0   0.00000       0.00000    
     25248 TIP3     111      TIP3     H1       HT       0.417000       1.00800           0   0.00000       0.00000    
     25249 TIP3     111      TIP3     H2       HT       0.417000       1.00800           0   0.00000     -0.301140E-02
     25250 TIP3     112      TIP3     OH2      OT      -0.834000       15.9994           0   0.00000       0.00000    
     25251 TIP3     112      TIP3     H1       HT       0.417000       1.00800           0   0.00000       0.00000    
     25252 TIP3     112      TIP3     H2       HT       0.417000       1.00800           0   0.00000     -0.301140E-02
     25253 TIP3     113      TIP3     OH2      OT      -0.834000       15.9994           0   0.00000       0.00000    
     25254 TIP3     113      TIP3     H1       HT       0.417000       1.00800           0   0.00000       0.00000    
     25255 TIP3     113      TIP3     H2       HT       0.417000       1.00800           0   0.00000     -0.301140E-02
     25256 TIP3     114      TIP3     OH2      OT      -0.834000       15.9994           0   0.00000       0.00000    
     25257 TIP3     114      TIP3     H1       HT       0.417000       1.00800           0   0.00000       0.00000    
     25258 TIP3     114      TIP3     H2       HT       0.417000       1.00800           0   0.00000     -0.301140E-02
     25259 TIP3     115      TIP3     OH2      OT      -0.834000       15.9994           0   0.00000       0.00000    
     25260 TIP3     115      TIP3     H1       HT       0.417000       1.00800           0   0.00000       0.00000    
     25261 TIP3     115      TIP3     H2       HT       0.417000       1.00800           0   0.00000     -0.301140E-02
     25262 TIP3     116      TIP3     OH2      OT      -0.834000       15.9994           0   0.00000       0.00000    
     25263 TIP3     116      TIP3     H1       HT       0.417000       1.00800           0   0.00000       0.00000    
     25264 TIP3     116      TIP3     H2       HT       0.417000       1.00800           0   0.00000     -0.301140E-02
     25265 TIP3     117      TIP3     OH2      OT      -0.834000       15.9994           0   0.00000       0.00000    
     25266 TIP3     117      TIP3     H1       HT       0.417000       1.00800           0   0.00000       0.00000    
     25267 TIP3     117      TIP3     H2       HT       0.417000       1.00800           0   0.00000     -0.301140E-02
     25268 TIP3     118      TIP3     OH2      OT      -0.834000       15.9994           0   0.00000       0.00000    
     25269 TIP3     118      TIP3     H1       HT       0.417000       1.00800           0   0.00000       0.00000    
     25270 TIP3     118      TIP3     H2       HT       0.417000       1.00800           0   0.00000     -0.301140E-02
     25271 TIP3     119      TIP3     OH2      OT      -0.834000       15.9994           0   0.00000       0.00000    
     25272 TIP3     119      TIP3     H1       HT       0.417000       1.00800           0   0.00000       0.00000    
     25273 TIP3     119      TIP3     H2       HT       0.417000       1.00800           0   0.00000     -0.301140E-02
     25274 TIP3     120      TIP3     OH2      OT      -0.834000       15.9994           0   0.00000       0.00000    
     25275 TIP3     120      TIP3     H1       HT       0.417000       1.00800           0   0.00000       0.00000    
     25276 TIP3     120      TIP3     H2       HT       0.417000       1.00800           0   0.00000     -0.301140E-02
     25277 TIP3     121      TIP3     OH2      OT      -0.834000       15.9994           0   0.00000       0.00000    
     25278 TIP3     121      TIP3     H1       HT       0.417000       1.00800           0   0.00000       0.00000    
     25279 TIP3     121      TIP3     H2       HT       0.417000       1.00800           0   0.00000     -0.301140E-02
     25280 TIP3     122      TIP3     OH2      OT      -0.834000       15.9994           0   0.00000       0.00000    
     25281 TIP3     122      TIP3     H1       HT       0.417000       1.00800           0   0.00000       0.00000    
     25282 TIP3     122      TIP3     H2       HT       0.417000       1.00800           0   0.00000     -0.301140E-02
     25283 TIP3     123      TIP3     OH2      OT      -0.834000       15.9994           0   0.00000       0.00000    
     25284 TIP3     123      TIP3     H1       HT       0.417000       1.00800           0   0.00000       0.00000    
     25285 TIP3     123      TIP3     H2       HT       0.417000       1.00800           0   0.00000     -0.301140E-02
     25286 TIP3     124      TIP3     OH2      OT      -0.834000       15.9994           0   0.00000       0.00000    
     25287 TIP3     124      TIP3     H1       HT       0.417000       1.00800           0   0.00000       0.00000    
     25288 TIP3     124      TIP3     H2       HT       0.417000       1.00800           0   0.00000     -0.301140E-02
     25289 TIP3     125      TIP3     OH2      OT      -0.834000       15.9994           0   0.00000       0.00000    
     25290 TIP3     125      TIP3     H1       HT       0.417000       1.00800           0   0.00000       0.00000    
     25291 TIP3     125      TIP3     H2       HT       0.417000       1.00800           0   0.00000     -0.301140E-02
     25292 TIP3     126      TIP3     OH2      OT      -0.834000       15.9994           0   0.00000       0.00000    
     25293 TIP3     126      TIP3     H1       HT       0.417000       1.00800           0   0.00000       0.00000    
     25294 TIP3     126      TIP3     H2       HT       0.417000       1.00800           0   0.00000     -0.301140E-02
     25295 TIP3     127      TIP3     OH2      OT      -0.834000       15.9994           0   0.00000       0.00000    
     25296 TIP3     127      TIP3     H1       HT       0.417000       1.00800           0   0.00000       0.00000    
     25297 TIP3     127      TIP3     H2       HT       0.417000       1.00800           0   0.00000     -0.301140E-02
     25298 TIP3     128      TIP3     OH2      OT      -0.834000       15.9994           0   0.00000       0.00000    
     25299 TIP3     128      TIP3     H1       HT       0.417000       1.00800           0   0.00000       0.00000    
     25300 TIP3     128      TIP3     H2       HT       0.417000       1.00800           0   0.00000     -0.301140E-02
     25301 TIP3     129      TIP3     OH2      OT      -0.834000       15.9994           0   0.00000       0.00000    
     25302 TIP3     129      TIP3     H1       HT       0.417000       1.00800           0   0.00000       0.00000    
     25303 TIP3     129      TIP3     H2       HT       0.417000       1.00800           0   0.00000     -0.301140E-02
     25304 TIP3     130      TIP3     OH2      OT      -0.834000       15.9994           0   0.00000       0.00000    
     25305 TIP3     130      TIP3     H1       HT       0.417000       1.00800           0   0.00000       0.00000    
     25306 TIP3     130      TIP3     H2       HT       0.417000       1.00800           0   0.00000     -0.301140E-02
     25307 TIP3     131      TIP3     OH2      OT      -0.834000       15.9994           0   0.00000       0.00000    
     25308 TIP3     131      TIP3     H1       HT       0.417000       1.00800           0   0.00000       0.00000    
     25309 TIP3     131      TIP3     H2       HT       0.417000       1.00800           0   0.00000     -0.301140E-02
     25310 TIP3     132      TIP3     OH2      OT      -0.834000       15.9994           0   0.00000       0.00000    
     25311 TIP3     132      TIP3     H1       HT       0.417000       1.00800           0   0.00000       0.00000    
     25312 TIP3     132      TIP3     H2       HT       0.417000       1.00800           0   0.00000     -0.301140E-02
     25313 TIP3     133      TIP3     OH2      OT      -0.834000       15.9994           0   0.00000       0.00000    
     25314 TIP3     133      TIP3     H1       HT       0.417000       1.00800           0   0.00000       0.00000    
     25315 TIP3     133      TIP3     H2       HT       0.417000       1.00800           0   0.00000     -0.301140E-02
     25316 TIP3     134      TIP3     OH2      OT      -0.834000       15.9994           0   0.00000       0.00000    
     25317 TIP3     134      TIP3     H1       HT       0.417000       1.00800           0   0.00000       0.00000    
     25318 TIP3     134      TIP3     H2       HT       0.417000       1.00800           0   0.00000     -0.301140E-02
     25319 TIP3     135      TIP3     OH2      OT      -0.834000       15.9994           0   0.00000       0.00000    
     25320 TIP3     135      TIP3     H1       HT       0.417000       1.00800           0   0.00000       0.00000    
     25321 TIP3     135      TIP3     H2       HT       0.417000       1.00800           0   0.00000     -0.301140E-02
     25322 TIP3     136      TIP3     OH2      OT      -0.834000       15.9994           0   0.00000       0.00000    
     25323 TIP3     136      TIP3     H1       HT       0.417000       1.00800           0   0.00000       0.00000    
     25324 TIP3     136      TIP3     H2       HT       0.417000       1.00800           0   0.00000     -0.301140E-02
     25325 TIP3     137      TIP3     OH2      OT      -0.834000       15.9994           0   0.00000       0.00000    
     25326 TIP3     137      TIP3     H1       HT       0.417000       1.00800           0   0.00000       0.00000    
     25327 TIP3     137      TIP3     H2       HT       0.417000       1.00800           0   0.00000     -0.301140E-02
     25328 TIP3     138      TIP3     OH2      OT      -0.834000       15.9994           0   0.00000       0.00000    
     25329 TIP3     138      TIP3     H1       HT       0.417000       1.00800           0   0.00000       0.00000    
     25330 TIP3     138      TIP3     H2       HT       0.417000       1.00800           0   0.00000     -0.301140E-02
     25331 TIP3     139      TIP3     OH2      OT      -0.834000       15.9994           0   0.00000       0.00000    
     25332 TIP3     139      TIP3     H1       HT       0.417000       1.00800           0   0.00000       0.00000    
     25333 TIP3     139      TIP3     H2       HT       0.417000       1.00800           0   0.00000     -0.301140E-02
     25334 TIP3     140      TIP3     OH2      OT      -0.834000       15.9994           0   0.00000       0.00000    
     25335 TIP3     140      TIP3     H1       HT       0.417000       1.00800           0   0.00000       0.00000    
     25336 TIP3     140      TIP3     H2       HT       0.417000       1.00800           0   0.00000     -0.301140E-02
     25337 TIP3     141      TIP3     OH2      OT      -0.834000       15.9994           0   0.00000       0.00000    
     25338 TIP3     141      TIP3     H1       HT       0.417000       1.00800           0   0.00000       0.00000    
     25339 TIP3     141      TIP3     H2       HT       0.417000       1.00800           0   0.00000     -0.301140E-02
     25340 TIP3     142      TIP3     OH2      OT      -0.834000       15.9994           0   0.00000       0.00000    
     25341 TIP3     142      TIP3     H1       HT       0.417000       1.00800           0   0.00000       0.00000    
     25342 TIP3     142      TIP3     H2       HT       0.417000       1.00800           0   0.00000     -0.301140E-02
     25343 TIP3     143      TIP3     OH2      OT      -0.834000       15.9994           0   0.00000       0.00000    
     25344 TIP3     143      TIP3     H1       HT       0.417000       1.00800           0   0.00000       0.00000    
     25345 TIP3     143      TIP3     H2       HT       0.417000       1.00800           0   0.00000     -0.301140E-02
     25346 TIP3     144      TIP3     OH2      OT      -0.834000       15.9994           0   0.00000       0.00000    
     25347 TIP3     144      TIP3     H1       HT       0.417000       1.00800           0   0.00000       0.00000    
     25348 TIP3     144      TIP3     H2       HT       0.417000       1.00800           0   0.00000     -0.301140E-02
     25349 TIP3     145      TIP3     OH2      OT      -0.834000       15.9994           0   0.00000       0.00000    
     25350 TIP3     145      TIP3     H1       HT       0.417000       1.00800           0   0.00000       0.00000    
     25351 TIP3     145      TIP3     H2       HT       0.417000       1.00800           0   0.00000     -0.301140E-02
     25352 TIP3     146      TIP3     OH2      OT      -0.834000       15.9994           0   0.00000       0.00000    
     25353 TIP3     146      TIP3     H1       HT       0.417000       1.00800           0   0.00000       0.00000    
     25354 TIP3     146      TIP3     H2       HT       0.417000       1.00800           0   0.00000     -0.301140E-02
     25355 TIP3     147      TIP3     OH2      OT      -0.834000       15.9994           0   0.00000       0.00000    
     25356 TIP3     147      TIP3     H1       HT       0.417000       1.00800           0   0.00000       0.00000    
     25357 TIP3     147      TIP3     H2       HT       0.417000       1.00800           0   0.00000     -0.301140E-02
     25358 TIP3     148      TIP3     OH2      OT      -0.834000       15.9994           0   0.00000       0.00000    
     25359 TIP3     148      TIP3     H1       HT       0.417000       1.00800           0   0.00000       0.00000    
     25360 TIP3     148      TIP3     H2       HT       0.417000       1.00800           0   0.00000     -0.301140E-02
     25361 TIP3     149      TIP3     OH2      OT      -0.834000       15.9994           0   0.00000       0.00000    
     25362 TIP3     149      TIP3     H1       HT       0.417000       1.00800           0   0.00000       0.00000    
     25363 TIP3     149      TIP3     H2       HT       0.417000       1.00800           0   0.00000     -0.301140E-02
     25364 TIP3     150      TIP3     OH2      OT      -0.834000       15.9994           0   0.00000       0.00000    
     25365 TIP3     150      TIP3     H1       HT       0.417000       1.00800           0   0.00000       0.00000    
     25366 TIP3     150      TIP3     H2       HT       0.417000       1.00800           0   0.00000     -0.301140E-02
     25367 TIP3     151      TIP3     OH2      OT      -0.834000       15.9994           0   0.00000       0.00000    
     25368 TIP3     151      TIP3     H1       HT       0.417000       1.00800           0   0.00000       0.00000    
     25369 TIP3     151      TIP3     H2       HT       0.417000       1.00800           0   0.00000     -0.301140E-02
     25370 TIP3     152      TIP3     OH2      OT      -0.834000       15.9994           0   0.00000       0.00000    
     25371 TIP3     152      TIP3     H1       HT       0.417000       1.00800           0   0.00000       0.00000    
     25372 TIP3     152      TIP3     H2       HT       0.417000       1.00800           0   0.00000     -0.301140E-02
     25373 TIP3     153      TIP3     OH2      OT      -0.834000       15.9994           0   0.00000       0.00000    
     25374 TIP3     153      TIP3     H1       HT       0.417000       1.00800           0   0.00000       0.00000    
     25375 TIP3     153      TIP3     H2       HT       0.417000       1.00800           0   0.00000     -0.301140E-02
     25376 TIP3     154      TIP3     OH2      OT      -0.834000       15.9994           0   0.00000       0.00000    
     25377 TIP3     154      TIP3     H1       HT       0.417000       1.00800           0   0.00000       0.00000    
     25378 TIP3     154      TIP3     H2       HT       0.417000       1.00800           0   0.00000     -0.301140E-02
     25379 TIP3     155      TIP3     OH2      OT      -0.834000       15.9994           0   0.00000       0.00000    
     25380 TIP3     155      TIP3     H1       HT       0.417000       1.00800           0   0.00000       0.00000    
     25381 TIP3     155      TIP3     H2       HT       0.417000       1.00800           0   0.00000     -0.301140E-02
     25382 TIP3     156      TIP3     OH2      OT      -0.834000       15.9994           0   0.00000       0.00000    
     25383 TIP3     156      TIP3     H1       HT       0.417000       1.00800           0   0.00000       0.00000    
     25384 TIP3     156      TIP3     H2       HT       0.417000       1.00800           0   0.00000     -0.301140E-02
     25385 TIP3     157      TIP3     OH2      OT      -0.834000       15.9994           0   0.00000       0.00000    
     25386 TIP3     157      TIP3     H1       HT       0.417000       1.00800           0   0.00000       0.00000    
     25387 TIP3     157      TIP3     H2       HT       0.417000       1.00800           0   0.00000     -0.301140E-02
     25388 TIP3     158      TIP3     OH2      OT      -0.834000       15.9994           0   0.00000       0.00000    
     25389 TIP3     158      TIP3     H1       HT       0.417000       1.00800           0   0.00000       0.00000    
     25390 TIP3     158      TIP3     H2       HT       0.417000       1.00800           0   0.00000     -0.301140E-02
     25391 TIP3     159      TIP3     OH2      OT      -0.834000       15.9994           0   0.00000       0.00000    
     25392 TIP3     159      TIP3     H1       HT       0.417000       1.00800           0   0.00000       0.00000    
     25393 TIP3     159      TIP3     H2       HT       0.417000       1.00800           0   0.00000     -0.301140E-02
     25394 TIP3     160      TIP3     OH2      OT      -0.834000       15.9994           0   0.00000       0.00000    
     25395 TIP3     160      TIP3     H1       HT       0.417000       1.00800           0   0.00000       0.00000    
     25396 TIP3     160      TIP3     H2       HT       0.417000       1.00800           0   0.00000     -0.301140E-02
     25397 TIP3     161      TIP3     OH2      OT      -0.834000       15.9994           0   0.00000       0.00000    
     25398 TIP3     161      TIP3     H1       HT       0.417000       1.00800           0   0.00000       0.00000    
     25399 TIP3     161      TIP3     H2       HT       0.417000       1.00800           0   0.00000     -0.301140E-02
     25400 TIP3     162      TIP3     OH2      OT      -0.834000       15.9994           0   0.00000       0.00000    
     25401 TIP3     162      TIP3     H1       HT       0.417000       1.00800           0   0.00000       0.00000    
     25402 TIP3     162      TIP3     H2       HT       0.417000       1.00800           0   0.00000     -0.301140E-02
     25403 TIP3     163      TIP3     OH2      OT      -0.834000       15.9994           0   0.00000       0.00000    
     25404 TIP3     163      TIP3     H1       HT       0.417000       1.00800           0   0.00000       0.00000    
     25405 TIP3     163      TIP3     H2       HT       0.417000       1.00800           0   0.00000     -0.301140E-02
     25406 TIP3     164      TIP3     OH2      OT      -0.834000       15.9994           0   0.00000       0.00000    
     25407 TIP3     164      TIP3     H1       HT       0.417000       1.00800           0   0.00000       0.00000    
     25408 TIP3     164      TIP3     H2       HT       0.417000       1.00800           0   0.00000     -0.301140E-02
     25409 TIP3     165      TIP3     OH2      OT      -0.834000       15.9994           0   0.00000       0.00000    
     25410 TIP3     165      TIP3     H1       HT       0.417000       1.00800           0   0.00000       0.00000    
     25411 TIP3     165      TIP3     H2       HT       0.417000       1.00800           0   0.00000     -0.301140E-02
     25412 TIP3     166      TIP3     OH2      OT      -0.834000       15.9994           0   0.00000       0.00000    
     25413 TIP3     166      TIP3     H1       HT       0.417000       1.00800           0   0.00000       0.00000    
     25414 TIP3     166      TIP3     H2       HT       0.417000       1.00800           0   0.00000     -0.301140E-02
     25415 TIP3     167      TIP3     OH2      OT      -0.834000       15.9994           0   0.00000       0.00000    
     25416 TIP3     167      TIP3     H1       HT       0.417000       1.00800           0   0.00000       0.00000    
     25417 TIP3     167      TIP3     H2       HT       0.417000       1.00800           0   0.00000     -0.301140E-02
     25418 TIP3     168      TIP3     OH2      OT      -0.834000       15.9994           0   0.00000       0.00000    
     25419 TIP3     168      TIP3     H1       HT       0.417000       1.00800           0   0.00000       0.00000    
     25420 TIP3     168      TIP3     H2       HT       0.417000       1.00800           0   0.00000     -0.301140E-02
     25421 TIP3     169      TIP3     OH2      OT      -0.834000       15.9994           0   0.00000       0.00000    
     25422 TIP3     169      TIP3     H1       HT       0.417000       1.00800           0   0.00000       0.00000    
     25423 TIP3     169      TIP3     H2       HT       0.417000       1.00800           0   0.00000     -0.301140E-02
     25424 TIP3     170      TIP3     OH2      OT      -0.834000       15.9994           0   0.00000       0.00000    
     25425 TIP3     170      TIP3     H1       HT       0.417000       1.00800           0   0.00000       0.00000    
     25426 TIP3     170      TIP3     H2       HT       0.417000       1.00800           0   0.00000     -0.301140E-02
     25427 TIP3     171      TIP3     OH2      OT      -0.834000       15.9994           0   0.00000       0.00000    
     25428 TIP3     171      TIP3     H1       HT       0.417000       1.00800           0   0.00000       0.00000    
     25429 TIP3     171      TIP3     H2       HT       0.417000       1.00800           0   0.00000     -0.301140E-02
     25430 TIP3     172      TIP3     OH2      OT      -0.834000       15.9994           0   0.00000       0.00000    
     25431 TIP3     172      TIP3     H1       HT       0.417000       1.00800           0   0.00000       0.00000    
     25432 TIP3     172      TIP3     H2       HT       0.417000       1.00800           0   0.00000     -0.301140E-02
     25433 TIP3     173      TIP3     OH2      OT      -0.834000       15.9994           0   0.00000       0.00000    
     25434 TIP3     173      TIP3     H1       HT       0.417000       1.00800           0   0.00000       0.00000    
     25435 TIP3     173      TIP3     H2       HT       0.417000       1.00800           0   0.00000     -0.301140E-02
     25436 TIP3     174      TIP3     OH2      OT      -0.834000       15.9994           0   0.00000       0.00000    
     25437 TIP3     174      TIP3     H1       HT       0.417000       1.00800           0   0.00000       0.00000    
     25438 TIP3     174      TIP3     H2       HT       0.417000       1.00800           0   0.00000     -0.301140E-02
     25439 TIP3     175      TIP3     OH2      OT      -0.834000       15.9994           0   0.00000       0.00000    
     25440 TIP3     175      TIP3     H1       HT       0.417000       1.00800           0   0.00000       0.00000    
     25441 TIP3     175      TIP3     H2       HT       0.417000       1.00800           0   0.00000     -0.301140E-02
     25442 TIP3     176      TIP3     OH2      OT      -0.834000       15.9994           0   0.00000       0.00000    
     25443 TIP3     176      TIP3     H1       HT       0.417000       1.00800           0   0.00000       0.00000    
     25444 TIP3     176      TIP3     H2       HT       0.417000       1.00800           0   0.00000     -0.301140E-02
     25445 TIP3     177      TIP3     OH2      OT      -0.834000       15.9994           0   0.00000       0.00000    
     25446 TIP3     177      TIP3     H1       HT       0.417000       1.00800           0   0.00000       0.00000    
     25447 TIP3     177      TIP3     H2       HT       0.417000       1.00800           0   0.00000     -0.301140E-02
     25448 TIP3     178      TIP3     OH2      OT      -0.834000       15.9994           0   0.00000       0.00000    
     25449 TIP3     178      TIP3     H1       HT       0.417000       1.00800           0   0.00000       0.00000    
     25450 TIP3     178      TIP3     H2       HT       0.417000       1.00800           0   0.00000     -0.301140E-02
     25451 TIP3     179      TIP3     OH2      OT      -0.834000       15.9994           0   0.00000       0.00000    
     25452 TIP3     179      TIP3     H1       HT       0.417000       1.00800           0   0.00000       0.00000    
     25453 TIP3     179      TIP3     H2       HT       0.417000       1.00800           0   0.00000     -0.301140E-02
     25454 TIP3     180      TIP3     OH2      OT      -0.834000       15.9994           0   0.00000       0.00000    
     25455 TIP3     180      TIP3     H1       HT       0.417000       1.00800           0   0.00000       0.00000    
     25456 TIP3     180      TIP3     H2       HT       0.417000       1.00800           0   0.00000     -0.301140E-02
     25457 TIP3     181      TIP3     OH2      OT      -0.834000       15.9994           0   0.00000       0.00000    
     25458 TIP3     181      TIP3     H1       HT       0.417000       1.00800           0   0.00000       0.00000    
     25459 TIP3     181      TIP3     H2       HT       0.417000       1.00800           0   0.00000     -0.301140E-02
     25460 TIP3     182      TIP3     OH2      OT      -0.834000       15.9994           0   0.00000       0.00000    
     25461 TIP3     182      TIP3     H1       HT       0.417000       1.00800           0   0.00000       0.00000    
     25462 TIP3     182      TIP3     H2       HT       0.417000       1.00800           0   0.00000     -0.301140E-02
     25463 TIP3     183      TIP3     OH2      OT      -0.834000       15.9994           0   0.00000       0.00000    
     25464 TIP3     183      TIP3     H1       HT       0.417000       1.00800           0   0.00000       0.00000    
     25465 TIP3     183      TIP3     H2       HT       0.417000       1.00800           0   0.00000     -0.301140E-02
     25466 TIP3     184      TIP3     OH2      OT      -0.834000       15.9994           0   0.00000       0.00000    
     25467 TIP3     184      TIP3     H1       HT       0.417000       1.00800           0   0.00000       0.00000    
     25468 TIP3     184      TIP3     H2       HT       0.417000       1.00800           0   0.00000     -0.301140E-02
     25469 TIP3     185      TIP3     OH2      OT      -0.834000       15.9994           0   0.00000       0.00000    
     25470 TIP3     185      TIP3     H1       HT       0.417000       1.00800           0   0.00000       0.00000    
     25471 TIP3     185      TIP3     H2       HT       0.417000       1.00800           0   0.00000     -0.301140E-02
     25472 TIP3     186      TIP3     OH2      OT      -0.834000       15.9994           0   0.00000       0.00000    
     25473 TIP3     186      TIP3     H1       HT       0.417000       1.00800           0   0.00000       0.00000    
     25474 TIP3     186      TIP3     H2       HT       0.417000       1.00800           0   0.00000     -0.301140E-02
     25475 TIP3     187      TIP3     OH2      OT      -0.834000       15.9994           0   0.00000       0.00000    
     25476 TIP3     187      TIP3     H1       HT       0.417000       1.00800           0   0.00000       0.00000    
     25477 TIP3     187      TIP3     H2       HT       0.417000       1.00800           0   0.00000     -0.301140E-02
     25478 TIP3     188      TIP3     OH2      OT      -0.834000       15.9994           0   0.00000       0.00000    
     25479 TIP3     188      TIP3     H1       HT       0.417000       1.00800           0   0.00000       0.00000    
     25480 TIP3     188      TIP3     H2       HT       0.417000       1.00800           0   0.00000     -0.301140E-02
     25481 TIP3     189      TIP3     OH2      OT      -0.834000       15.9994           0   0.00000       0.00000    
     25482 TIP3     189      TIP3     H1       HT       0.417000       1.00800           0   0.00000       0.00000    
     25483 TIP3     189      TIP3     H2       HT       0.417000       1.00800           0   0.00000     -0.301140E-02
     25484 TIP3     190      TIP3     OH2      OT      -0.834000       15.9994           0   0.00000       0.00000    
     25485 TIP3     190      TIP3     H1       HT       0.417000       1.00800           0   0.00000       0.00000    
     25486 TIP3     190      TIP3     H2       HT       0.417000       1.00800           0   0.00000     -0.301140E-02
     25487 TIP3     191      TIP3     OH2      OT      -0.834000       15.9994           0   0.00000       0.00000    
     25488 TIP3     191      TIP3     H1       HT       0.417000       1.00800           0   0.00000       0.00000    
     25489 TIP3     191      TIP3     H2       HT       0.417000       1.00800           0   0.00000     -0.301140E-02
     25490 TIP3     192      TIP3     OH2      OT      -0.834000       15.9994           0   0.00000       0.00000    
     25491 TIP3     192      TIP3     H1       HT       0.417000       1.00800           0   0.00000       0.00000    
     25492 TIP3     192      TIP3     H2       HT       0.417000       1.00800           0   0.00000     -0.301140E-02
     25493 TIP3     193      TIP3     OH2      OT      -0.834000       15.9994           0   0.00000       0.00000    
     25494 TIP3     193      TIP3     H1       HT       0.417000       1.00800           0   0.00000       0.00000    
     25495 TIP3     193      TIP3     H2       HT       0.417000       1.00800           0   0.00000     -0.301140E-02
     25496 TIP3     194      TIP3     OH2      OT      -0.834000       15.9994           0   0.00000       0.00000    
     25497 TIP3     194      TIP3     H1       HT       0.417000       1.00800           0   0.00000       0.00000    
     25498 TIP3     194      TIP3     H2       HT       0.417000       1.00800           0   0.00000     -0.301140E-02
     25499 TIP3     195      TIP3     OH2      OT      -0.834000       15.9994           0   0.00000       0.00000    
     25500 TIP3     195      TIP3     H1       HT       0.417000       1.00800           0   0.00000       0.00000    
     25501 TIP3     195      TIP3     H2       HT       0.417000       1.00800           0   0.00000     -0.301140E-02
     25502 TIP3     196      TIP3     OH2      OT      -0.834000       15.9994           0   0.00000       0.00000    
     25503 TIP3     196      TIP3     H1       HT       0.417000       1.00800           0   0.00000       0.00000    
     25504 TIP3     196      TIP3     H2       HT       0.417000       1.00800           0   0.00000     -0.301140E-02
     25505 TIP3     197      TIP3     OH2      OT      -0.834000       15.9994           0   0.00000       0.00000    
     25506 TIP3     197      TIP3     H1       HT       0.417000       1.00800           0   0.00000       0.00000    
     25507 TIP3     197      TIP3     H2       HT       0.417000       1.00800           0   0.00000     -0.301140E-02
     25508 TIP3     198      TIP3     OH2      OT      -0.834000       15.9994           0   0.00000       0.00000    
     25509 TIP3     198      TIP3     H1       HT       0.417000       1.00800           0   0.00000       0.00000    
     25510 TIP3     198      TIP3     H2       HT       0.417000       1.00800           0   0.00000     -0.301140E-02
     25511 TIP3     199      TIP3     OH2      OT      -0.834000       15.9994           0   0.00000       0.00000    
     25512 TIP3     199      TIP3     H1       HT       0.417000       1.00800           0   0.00000       0.00000    
     25513 TIP3     199      TIP3     H2       HT       0.417000       1.00800           0   0.00000     -0.301140E-02
     25514 TIP3     200      TIP3     OH2      OT      -0.834000       15.9994           0   0.00000       0.00000    
     25515 TIP3     200      TIP3     H1       HT       0.417000       1.00800           0   0.00000       0.00000    
     25516 TIP3     200      TIP3     H2       HT       0.417000       1.00800           0   0.00000     -0.301140E-02
     25517 TIP3     201      TIP3     OH2      OT      -0.834000       15.9994           0   0.00000       0.00000    
     25518 TIP3     201      TIP3     H1       HT       0.417000       1.00800           0   0.00000       0.00000    
     25519 TIP3     201      TIP3     H2       HT       0.417000       1.00800           0   0.00000     -0.301140E-02
     25520 TIP3     202      TIP3     OH2      OT      -0.834000       15.9994           0   0.00000       0.00000    
     25521 TIP3     202      TIP3     H1       HT       0.417000       1.00800           0   0.00000       0.00000    
     25522 TIP3     202      TIP3     H2       HT       0.417000       1.00800           0   0.00000     -0.301140E-02
     25523 TIP3     203      TIP3     OH2      OT      -0.834000       15.9994           0   0.00000       0.00000    
     25524 TIP3     203      TIP3     H1       HT       0.417000       1.00800           0   0.00000       0.00000    
     25525 TIP3     203      TIP3     H2       HT       0.417000       1.00800           0   0.00000     -0.301140E-02
     25526 TIP3     204      TIP3     OH2      OT      -0.834000       15.9994           0   0.00000       0.00000    
     25527 TIP3     204      TIP3     H1       HT       0.417000       1.00800           0   0.00000       0.00000    
     25528 TIP3     204      TIP3     H2       HT       0.417000       1.00800           0   0.00000     -0.301140E-02
     25529 TIP3     205      TIP3     OH2      OT      -0.834000       15.9994           0   0.00000       0.00000    
     25530 TIP3     205      TIP3     H1       HT       0.417000       1.00800           0   0.00000       0.00000    
     25531 TIP3     205      TIP3     H2       HT       0.417000       1.00800           0   0.00000     -0.301140E-02
     25532 TIP3     206      TIP3     OH2      OT      -0.834000       15.9994           0   0.00000       0.00000    
     25533 TIP3     206      TIP3     H1       HT       0.417000       1.00800           0   0.00000       0.00000    
     25534 TIP3     206      TIP3     H2       HT       0.417000       1.00800           0   0.00000     -0.301140E-02
     25535 TIP3     207      TIP3     OH2      OT      -0.834000       15.9994           0   0.00000       0.00000    
     25536 TIP3     207      TIP3     H1       HT       0.417000       1.00800           0   0.00000       0.00000    
     25537 TIP3     207      TIP3     H2       HT       0.417000       1.00800           0   0.00000     -0.301140E-02
     25538 TIP3     208      TIP3     OH2      OT      -0.834000       15.9994           0   0.00000       0.00000    
     25539 TIP3     208      TIP3     H1       HT       0.417000       1.00800           0   0.00000       0.00000    
     25540 TIP3     208      TIP3     H2       HT       0.417000       1.00800           0   0.00000     -0.301140E-02
     25541 TIP3     209      TIP3     OH2      OT      -0.834000       15.9994           0   0.00000       0.00000    
     25542 TIP3     209      TIP3     H1       HT       0.417000       1.00800           0   0.00000       0.00000    
     25543 TIP3     209      TIP3     H2       HT       0.417000       1.00800           0   0.00000     -0.301140E-02
     25544 TIP3     210      TIP3     OH2      OT      -0.834000       15.9994           0   0.00000       0.00000    
     25545 TIP3     210      TIP3     H1       HT       0.417000       1.00800           0   0.00000       0.00000    
     25546 TIP3     210      TIP3     H2       HT       0.417000       1.00800           0   0.00000     -0.301140E-02
     25547 TIP3     211      TIP3     OH2      OT      -0.834000       15.9994           0   0.00000       0.00000    
     25548 TIP3     211      TIP3     H1       HT       0.417000       1.00800           0   0.00000       0.00000    
     25549 TIP3     211      TIP3     H2       HT       0.417000       1.00800           0   0.00000     -0.301140E-02
     25550 TIP3     212      TIP3     OH2      OT      -0.834000       15.9994           0   0.00000       0.00000    
     25551 TIP3     212      TIP3     H1       HT       0.417000       1.00800           0   0.00000       0.00000    
     25552 TIP3     212      TIP3     H2       HT       0.417000       1.00800           0   0.00000     -0.301140E-02
     25553 TIP3     213      TIP3     OH2      OT      -0.834000       15.9994           0   0.00000       0.00000    
     25554 TIP3     213      TIP3     H1       HT       0.417000       1.00800           0   0.00000       0.00000    
     25555 TIP3     213      TIP3     H2       HT       0.417000       1.00800           0   0.00000     -0.301140E-02
     25556 TIP3     214      TIP3     OH2      OT      -0.834000       15.9994           0   0.00000       0.00000    
     25557 TIP3     214      TIP3     H1       HT       0.417000       1.00800           0   0.00000       0.00000    
     25558 TIP3     214      TIP3     H2       HT       0.417000       1.00800           0   0.00000     -0.301140E-02
     25559 TIP3     215      TIP3     OH2      OT      -0.834000       15.9994           0   0.00000       0.00000    
     25560 TIP3     215      TIP3     H1       HT       0.417000       1.00800           0   0.00000       0.00000    
     25561 TIP3     215      TIP3     H2       HT       0.417000       1.00800           0   0.00000     -0.301140E-02
     25562 TIP3     216      TIP3     OH2      OT      -0.834000       15.9994           0   0.00000       0.00000    
     25563 TIP3     216      TIP3     H1       HT       0.417000       1.00800           0   0.00000       0.00000    
     25564 TIP3     216      TIP3     H2       HT       0.417000       1.00800           0   0.00000     -0.301140E-02
     25565 TIP3     217      TIP3     OH2      OT      -0.834000       15.9994           0   0.00000       0.00000    
     25566 TIP3     217      TIP3     H1       HT       0.417000       1.00800           0   0.00000       0.00000    
     25567 TIP3     217      TIP3     H2       HT       0.417000       1.00800           0   0.00000     -0.301140E-02
     25568 TIP3     218      TIP3     OH2      OT      -0.834000       15.9994           0   0.00000       0.00000    
     25569 TIP3     218      TIP3     H1       HT       0.417000       1.00800           0   0.00000       0.00000    
     25570 TIP3     218      TIP3     H2       HT       0.417000       1.00800           0   0.00000     -0.301140E-02
     25571 TIP3     219      TIP3     OH2      OT      -0.834000       15.9994           0   0.00000       0.00000    
     25572 TIP3     219      TIP3     H1       HT       0.417000       1.00800           0   0.00000       0.00000    
     25573 TIP3     219      TIP3     H2       HT       0.417000       1.00800           0   0.00000     -0.301140E-02
     25574 TIP3     220      TIP3     OH2      OT      -0.834000       15.9994           0   0.00000       0.00000    
     25575 TIP3     220      TIP3     H1       HT       0.417000       1.00800           0   0.00000       0.00000    
     25576 TIP3     220      TIP3     H2       HT       0.417000       1.00800           0   0.00000     -0.301140E-02
     25577 TIP3     221      TIP3     OH2      OT      -0.834000       15.9994           0   0.00000       0.00000    
     25578 TIP3     221      TIP3     H1       HT       0.417000       1.00800           0   0.00000       0.00000    
     25579 TIP3     221      TIP3     H2       HT       0.417000       1.00800           0   0.00000     -0.301140E-02
     25580 TIP3     222      TIP3     OH2      OT      -0.834000       15.9994           0   0.00000       0.00000    
     25581 TIP3     222      TIP3     H1       HT       0.417000       1.00800           0   0.00000       0.00000    
     25582 TIP3     222      TIP3     H2       HT       0.417000       1.00800           0   0.00000     -0.301140E-02
     25583 TIP3     223      TIP3     OH2      OT      -0.834000       15.9994           0   0.00000       0.00000    
     25584 TIP3     223      TIP3     H1       HT       0.417000       1.00800           0   0.00000       0.00000    
     25585 TIP3     223      TIP3     H2       HT       0.417000       1.00800           0   0.00000     -0.301140E-02
     25586 TIP3     224      TIP3     OH2      OT      -0.834000       15.9994           0   0.00000       0.00000    
     25587 TIP3     224      TIP3     H1       HT       0.417000       1.00800           0   0.00000       0.00000    
     25588 TIP3     224      TIP3     H2       HT       0.417000       1.00800           0   0.00000     -0.301140E-02
     25589 TIP3     225      TIP3     OH2      OT      -0.834000       15.9994           0   0.00000       0.00000    
     25590 TIP3     225      TIP3     H1       HT       0.417000       1.00800           0   0.00000       0.00000    
     25591 TIP3     225      TIP3     H2       HT       0.417000       1.00800           0   0.00000     -0.301140E-02
     25592 TIP3     226      TIP3     OH2      OT      -0.834000       15.9994           0   0.00000       0.00000    
     25593 TIP3     226      TIP3     H1       HT       0.417000       1.00800           0   0.00000       0.00000    
     25594 TIP3     226      TIP3     H2       HT       0.417000       1.00800           0   0.00000     -0.301140E-02
     25595 TIP3     227      TIP3     OH2      OT      -0.834000       15.9994           0   0.00000       0.00000    
     25596 TIP3     227      TIP3     H1       HT       0.417000       1.00800           0   0.00000       0.00000    
     25597 TIP3     227      TIP3     H2       HT       0.417000       1.00800           0   0.00000     -0.301140E-02
     25598 TIP3     228      TIP3     OH2      OT      -0.834000       15.9994           0   0.00000       0.00000    
     25599 TIP3     228      TIP3     H1       HT       0.417000       1.00800           0   0.00000       0.00000    
     25600 TIP3     228      TIP3     H2       HT       0.417000       1.00800           0   0.00000     -0.301140E-02
     25601 TIP3     229      TIP3     OH2      OT      -0.834000       15.9994           0   0.00000       0.00000    
     25602 TIP3     229      TIP3     H1       HT       0.417000       1.00800           0   0.00000       0.00000    
     25603 TIP3     229      TIP3     H2       HT       0.417000       1.00800           0   0.00000     -0.301140E-02
     25604 TIP3     230      TIP3     OH2      OT      -0.834000       15.9994           0   0.00000       0.00000    
     25605 TIP3     230      TIP3     H1       HT       0.417000       1.00800           0   0.00000       0.00000    
     25606 TIP3     230      TIP3     H2       HT       0.417000       1.00800           0   0.00000     -0.301140E-02
     25607 TIP3     231      TIP3     OH2      OT      -0.834000       15.9994           0   0.00000       0.00000    
     25608 TIP3     231      TIP3     H1       HT       0.417000       1.00800           0   0.00000       0.00000    
     25609 TIP3     231      TIP3     H2       HT       0.417000       1.00800           0   0.00000     -0.301140E-02
     25610 TIP3     232      TIP3     OH2      OT      -0.834000       15.9994           0   0.00000       0.00000    
     25611 TIP3     232      TIP3     H1       HT       0.417000       1.00800           0   0.00000       0.00000    
     25612 TIP3     232      TIP3     H2       HT       0.417000       1.00800           0   0.00000     -0.301140E-02
     25613 TIP3     233      TIP3     OH2      OT      -0.834000       15.9994           0   0.00000       0.00000    
     25614 TIP3     233      TIP3     H1       HT       0.417000       1.00800           0   0.00000       0.00000    
     25615 TIP3     233      TIP3     H2       HT       0.417000       1.00800           0   0.00000     -0.301140E-02
     25616 TIP3     234      TIP3     OH2      OT      -0.834000       15.9994           0   0.00000       0.00000    
     25617 TIP3     234      TIP3     H1       HT       0.417000       1.00800           0   0.00000       0.00000    
     25618 TIP3     234      TIP3     H2       HT       0.417000       1.00800           0   0.00000     -0.301140E-02
     25619 TIP3     235      TIP3     OH2      OT      -0.834000       15.9994           0   0.00000       0.00000    
     25620 TIP3     235      TIP3     H1       HT       0.417000       1.00800           0   0.00000       0.00000    
     25621 TIP3     235      TIP3     H2       HT       0.417000       1.00800           0   0.00000     -0.301140E-02
     25622 TIP3     236      TIP3     OH2      OT      -0.834000       15.9994           0   0.00000       0.00000    
     25623 TIP3     236      TIP3     H1       HT       0.417000       1.00800           0   0.00000       0.00000    
     25624 TIP3     236      TIP3     H2       HT       0.417000       1.00800           0   0.00000     -0.301140E-02
     25625 TIP3     237      TIP3     OH2      OT      -0.834000       15.9994           0   0.00000       0.00000    
     25626 TIP3     237      TIP3     H1       HT       0.417000       1.00800           0   0.00000       0.00000    
     25627 TIP3     237      TIP3     H2       HT       0.417000       1.00800           0   0.00000     -0.301140E-02
     25628 TIP3     238      TIP3     OH2      OT      -0.834000       15.9994           0   0.00000       0.00000    
     25629 TIP3     238      TIP3     H1       HT       0.417000       1.00800           0   0.00000       0.00000    
     25630 TIP3     238      TIP3     H2       HT       0.417000       1.00800           0   0.00000     -0.301140E-02
     25631 TIP3     239      TIP3     OH2      OT      -0.834000       15.9994           0   0.00000       0.00000    
     25632 TIP3     239      TIP3     H1       HT       0.417000       1.00800           0   0.00000       0.00000    
     25633 TIP3     239      TIP3     H2       HT       0.417000       1.00800           0   0.00000     -0.301140E-02
     25634 TIP3     240      TIP3     OH2      OT      -0.834000       15.9994           0   0.00000       0.00000    
     25635 TIP3     240      TIP3     H1       HT       0.417000       1.00800           0   0.00000       0.00000    
     25636 TIP3     240      TIP3     H2       HT       0.417000       1.00800           0   0.00000     -0.301140E-02
     25637 TIP3     241      TIP3     OH2      OT      -0.834000       15.9994           0   0.00000       0.00000    
     25638 TIP3     241      TIP3     H1       HT       0.417000       1.00800           0   0.00000       0.00000    
     25639 TIP3     241      TIP3     H2       HT       0.417000       1.00800           0   0.00000     -0.301140E-02
     25640 TIP3     242      TIP3     OH2      OT      -0.834000       15.9994           0   0.00000       0.00000    
     25641 TIP3     242      TIP3     H1       HT       0.417000       1.00800           0   0.00000       0.00000    
     25642 TIP3     242      TIP3     H2       HT       0.417000       1.00800           0   0.00000     -0.301140E-02
     25643 TIP3     243      TIP3     OH2      OT      -0.834000       15.9994           0   0.00000       0.00000    
     25644 TIP3     243      TIP3     H1       HT       0.417000       1.00800           0   0.00000       0.00000    
     25645 TIP3     243      TIP3     H2       HT       0.417000       1.00800           0   0.00000     -0.301140E-02
     25646 TIP3     244      TIP3     OH2      OT      -0.834000       15.9994           0   0.00000       0.00000    
     25647 TIP3     244      TIP3     H1       HT       0.417000       1.00800           0   0.00000       0.00000    
     25648 TIP3     244      TIP3     H2       HT       0.417000       1.00800           0   0.00000     -0.301140E-02
     25649 TIP3     245      TIP3     OH2      OT      -0.834000       15.9994           0   0.00000       0.00000    
     25650 TIP3     245      TIP3     H1       HT       0.417000       1.00800           0   0.00000       0.00000    
     25651 TIP3     245      TIP3     H2       HT       0.417000       1.00800           0   0.00000     -0.301140E-02
     25652 TIP3     246      TIP3     OH2      OT      -0.834000       15.9994           0   0.00000       0.00000    
     25653 TIP3     246      TIP3     H1       HT       0.417000       1.00800           0   0.00000       0.00000    
     25654 TIP3     246      TIP3     H2       HT       0.417000       1.00800           0   0.00000     -0.301140E-02
     25655 TIP3     247      TIP3     OH2      OT      -0.834000       15.9994           0   0.00000       0.00000    
     25656 TIP3     247      TIP3     H1       HT       0.417000       1.00800           0   0.00000       0.00000    
     25657 TIP3     247      TIP3     H2       HT       0.417000       1.00800           0   0.00000     -0.301140E-02
     25658 TIP3     248      TIP3     OH2      OT      -0.834000       15.9994           0   0.00000       0.00000    
     25659 TIP3     248      TIP3     H1       HT       0.417000       1.00800           0   0.00000       0.00000    
     25660 TIP3     248      TIP3     H2       HT       0.417000       1.00800           0   0.00000     -0.301140E-02
     25661 TIP3     249      TIP3     OH2      OT      -0.834000       15.9994           0   0.00000       0.00000    
     25662 TIP3     249      TIP3     H1       HT       0.417000       1.00800           0   0.00000       0.00000    
     25663 TIP3     249      TIP3     H2       HT       0.417000       1.00800           0   0.00000     -0.301140E-02
     25664 TIP3     250      TIP3     OH2      OT      -0.834000       15.9994           0   0.00000       0.00000    
     25665 TIP3     250      TIP3     H1       HT       0.417000       1.00800           0   0.00000       0.00000    
     25666 TIP3     250      TIP3     H2       HT       0.417000       1.00800           0   0.00000     -0.301140E-02
     25667 TIP3     251      TIP3     OH2      OT      -0.834000       15.9994           0   0.00000       0.00000    
     25668 TIP3     251      TIP3     H1       HT       0.417000       1.00800           0   0.00000       0.00000    
     25669 TIP3     251      TIP3     H2       HT       0.417000       1.00800           0   0.00000     -0.301140E-02
     25670 TIP3     252      TIP3     OH2      OT      -0.834000       15.9994           0   0.00000       0.00000    
     25671 TIP3     252      TIP3     H1       HT       0.417000       1.00800           0   0.00000       0.00000    
     25672 TIP3     252      TIP3     H2       HT       0.417000       1.00800           0   0.00000     -0.301140E-02
     25673 TIP3     253      TIP3     OH2      OT      -0.834000       15.9994           0   0.00000       0.00000    
     25674 TIP3     253      TIP3     H1       HT       0.417000       1.00800           0   0.00000       0.00000    
     25675 TIP3     253      TIP3     H2       HT       0.417000       1.00800           0   0.00000     -0.301140E-02
     25676 TIP3     254      TIP3     OH2      OT      -0.834000       15.9994           0   0.00000       0.00000    
     25677 TIP3     254      TIP3     H1       HT       0.417000       1.00800           0   0.00000       0.00000    
     25678 TIP3     254      TIP3     H2       HT       0.417000       1.00800           0   0.00000     -0.301140E-02
     25679 TIP3     255      TIP3     OH2      OT      -0.834000       15.9994           0   0.00000       0.00000    
     25680 TIP3     255      TIP3     H1       HT       0.417000       1.00800           0   0.00000       0.00000    
     25681 TIP3     255      TIP3     H2       HT       0.417000       1.00800           0   0.00000     -0.301140E-02
     25682 TIP3     256      TIP3     OH2      OT      -0.834000       15.9994           0   0.00000       0.00000    
     25683 TIP3     256      TIP3     H1       HT       0.417000       1.00800           0   0.00000       0.00000    
     25684 TIP3     256      TIP3     H2       HT       0.417000       1.00800           0   0.00000     -0.301140E-02
     25685 TIP3     257      TIP3     OH2      OT      -0.834000       15.9994           0   0.00000       0.00000    
     25686 TIP3     257      TIP3     H1       HT       0.417000       1.00800           0   0.00000       0.00000    
     25687 TIP3     257      TIP3     H2       HT       0.417000       1.00800           0   0.00000     -0.301140E-02
     25688 TIP3     258      TIP3     OH2      OT      -0.834000       15.9994           0   0.00000       0.00000    
     25689 TIP3     258      TIP3     H1       HT       0.417000       1.00800           0   0.00000       0.00000    
     25690 TIP3     258      TIP3     H2       HT       0.417000       1.00800           0   0.00000     -0.301140E-02
     25691 TIP3     259      TIP3     OH2      OT      -0.834000       15.9994           0   0.00000       0.00000    
     25692 TIP3     259      TIP3     H1       HT       0.417000       1.00800           0   0.00000       0.00000    
     25693 TIP3     259      TIP3     H2       HT       0.417000       1.00800           0   0.00000     -0.301140E-02
     25694 TIP3     260      TIP3     OH2      OT      -0.834000       15.9994           0   0.00000       0.00000    
     25695 TIP3     260      TIP3     H1       HT       0.417000       1.00800           0   0.00000       0.00000    
     25696 TIP3     260      TIP3     H2       HT       0.417000       1.00800           0   0.00000     -0.301140E-02
     25697 TIP3     261      TIP3     OH2      OT      -0.834000       15.9994           0   0.00000       0.00000    
     25698 TIP3     261      TIP3     H1       HT       0.417000       1.00800           0   0.00000       0.00000    
     25699 TIP3     261      TIP3     H2       HT       0.417000       1.00800           0   0.00000     -0.301140E-02
     25700 TIP3     262      TIP3     OH2      OT      -0.834000       15.9994           0   0.00000       0.00000    
     25701 TIP3     262      TIP3     H1       HT       0.417000       1.00800           0   0.00000       0.00000    
     25702 TIP3     262      TIP3     H2       HT       0.417000       1.00800           0   0.00000     -0.301140E-02
     25703 TIP3     263      TIP3     OH2      OT      -0.834000       15.9994           0   0.00000       0.00000    
     25704 TIP3     263      TIP3     H1       HT       0.417000       1.00800           0   0.00000       0.00000    
     25705 TIP3     263      TIP3     H2       HT       0.417000       1.00800           0   0.00000     -0.301140E-02
     25706 TIP3     264      TIP3     OH2      OT      -0.834000       15.9994           0   0.00000       0.00000    
     25707 TIP3     264      TIP3     H1       HT       0.417000       1.00800           0   0.00000       0.00000    
     25708 TIP3     264      TIP3     H2       HT       0.417000       1.00800           0   0.00000     -0.301140E-02
     25709 TIP3     265      TIP3     OH2      OT      -0.834000       15.9994           0   0.00000       0.00000    
     25710 TIP3     265      TIP3     H1       HT       0.417000       1.00800           0   0.00000       0.00000    
     25711 TIP3     265      TIP3     H2       HT       0.417000       1.00800           0   0.00000     -0.301140E-02
     25712 TIP3     266      TIP3     OH2      OT      -0.834000       15.9994           0   0.00000       0.00000    
     25713 TIP3     266      TIP3     H1       HT       0.417000       1.00800           0   0.00000       0.00000    
     25714 TIP3     266      TIP3     H2       HT       0.417000       1.00800           0   0.00000     -0.301140E-02
     25715 TIP3     267      TIP3     OH2      OT      -0.834000       15.9994           0   0.00000       0.00000    
     25716 TIP3     267      TIP3     H1       HT       0.417000       1.00800           0   0.00000       0.00000    
     25717 TIP3     267      TIP3     H2       HT       0.417000       1.00800           0   0.00000     -0.301140E-02
     25718 TIP3     268      TIP3     OH2      OT      -0.834000       15.9994           0   0.00000       0.00000    
     25719 TIP3     268      TIP3     H1       HT       0.417000       1.00800           0   0.00000       0.00000    
     25720 TIP3     268      TIP3     H2       HT       0.417000       1.00800           0   0.00000     -0.301140E-02
     25721 TIP3     269      TIP3     OH2      OT      -0.834000       15.9994           0   0.00000       0.00000    
     25722 TIP3     269      TIP3     H1       HT       0.417000       1.00800           0   0.00000       0.00000    
     25723 TIP3     269      TIP3     H2       HT       0.417000       1.00800           0   0.00000     -0.301140E-02
     25724 TIP3     270      TIP3     OH2      OT      -0.834000       15.9994           0   0.00000       0.00000    
     25725 TIP3     270      TIP3     H1       HT       0.417000       1.00800           0   0.00000       0.00000    
     25726 TIP3     270      TIP3     H2       HT       0.417000       1.00800           0   0.00000     -0.301140E-02
     25727 TIP3     271      TIP3     OH2      OT      -0.834000       15.9994           0   0.00000       0.00000    
     25728 TIP3     271      TIP3     H1       HT       0.417000       1.00800           0   0.00000       0.00000    
     25729 TIP3     271      TIP3     H2       HT       0.417000       1.00800           0   0.00000     -0.301140E-02
     25730 TIP3     272      TIP3     OH2      OT      -0.834000       15.9994           0   0.00000       0.00000    
     25731 TIP3     272      TIP3     H1       HT       0.417000       1.00800           0   0.00000       0.00000    
     25732 TIP3     272      TIP3     H2       HT       0.417000       1.00800           0   0.00000     -0.301140E-02
     25733 TIP3     273      TIP3     OH2      OT      -0.834000       15.9994           0   0.00000       0.00000    
     25734 TIP3     273      TIP3     H1       HT       0.417000       1.00800           0   0.00000       0.00000    
     25735 TIP3     273      TIP3     H2       HT       0.417000       1.00800           0   0.00000     -0.301140E-02
     25736 TIP3     274      TIP3     OH2      OT      -0.834000       15.9994           0   0.00000       0.00000    
     25737 TIP3     274      TIP3     H1       HT       0.417000       1.00800           0   0.00000       0.00000    
     25738 TIP3     274      TIP3     H2       HT       0.417000       1.00800           0   0.00000     -0.301140E-02
     25739 TIP3     275      TIP3     OH2      OT      -0.834000       15.9994           0   0.00000       0.00000    
     25740 TIP3     275      TIP3     H1       HT       0.417000       1.00800           0   0.00000       0.00000    
     25741 TIP3     275      TIP3     H2       HT       0.417000       1.00800           0   0.00000     -0.301140E-02
     25742 TIP3     276      TIP3     OH2      OT      -0.834000       15.9994           0   0.00000       0.00000    
     25743 TIP3     276      TIP3     H1       HT       0.417000       1.00800           0   0.00000       0.00000    
     25744 TIP3     276      TIP3     H2       HT       0.417000       1.00800           0   0.00000     -0.301140E-02
     25745 TIP3     277      TIP3     OH2      OT      -0.834000       15.9994           0   0.00000       0.00000    
     25746 TIP3     277      TIP3     H1       HT       0.417000       1.00800           0   0.00000       0.00000    
     25747 TIP3     277      TIP3     H2       HT       0.417000       1.00800           0   0.00000     -0.301140E-02
     25748 TIP3     278      TIP3     OH2      OT      -0.834000       15.9994           0   0.00000       0.00000    
     25749 TIP3     278      TIP3     H1       HT       0.417000       1.00800           0   0.00000       0.00000    
     25750 TIP3     278      TIP3     H2       HT       0.417000       1.00800           0   0.00000     -0.301140E-02
     25751 TIP3     279      TIP3     OH2      OT      -0.834000       15.9994           0   0.00000       0.00000    
     25752 TIP3     279      TIP3     H1       HT       0.417000       1.00800           0   0.00000       0.00000    
     25753 TIP3     279      TIP3     H2       HT       0.417000       1.00800           0   0.00000     -0.301140E-02
     25754 TIP3     280      TIP3     OH2      OT      -0.834000       15.9994           0   0.00000       0.00000    
     25755 TIP3     280      TIP3     H1       HT       0.417000       1.00800           0   0.00000       0.00000    
     25756 TIP3     280      TIP3     H2       HT       0.417000       1.00800           0   0.00000     -0.301140E-02
     25757 TIP3     281      TIP3     OH2      OT      -0.834000       15.9994           0   0.00000       0.00000    
     25758 TIP3     281      TIP3     H1       HT       0.417000       1.00800           0   0.00000       0.00000    
     25759 TIP3     281      TIP3     H2       HT       0.417000       1.00800           0   0.00000     -0.301140E-02
     25760 TIP3     282      TIP3     OH2      OT      -0.834000       15.9994           0   0.00000       0.00000    
     25761 TIP3     282      TIP3     H1       HT       0.417000       1.00800           0   0.00000       0.00000    
     25762 TIP3     282      TIP3     H2       HT       0.417000       1.00800           0   0.00000     -0.301140E-02
     25763 TIP3     283      TIP3     OH2      OT      -0.834000       15.9994           0   0.00000       0.00000    
     25764 TIP3     283      TIP3     H1       HT       0.417000       1.00800           0   0.00000       0.00000    
     25765 TIP3     283      TIP3     H2       HT       0.417000       1.00800           0   0.00000     -0.301140E-02
     25766 TIP3     284      TIP3     OH2      OT      -0.834000       15.9994           0   0.00000       0.00000    
     25767 TIP3     284      TIP3     H1       HT       0.417000       1.00800           0   0.00000       0.00000    
     25768 TIP3     284      TIP3     H2       HT       0.417000       1.00800           0   0.00000     -0.301140E-02
     25769 TIP3     285      TIP3     OH2      OT      -0.834000       15.9994           0   0.00000       0.00000    
     25770 TIP3     285      TIP3     H1       HT       0.417000       1.00800           0   0.00000       0.00000    
     25771 TIP3     285      TIP3     H2       HT       0.417000       1.00800           0   0.00000     -0.301140E-02
     25772 TIP3     286      TIP3     OH2      OT      -0.834000       15.9994           0   0.00000       0.00000    
     25773 TIP3     286      TIP3     H1       HT       0.417000       1.00800           0   0.00000       0.00000    
     25774 TIP3     286      TIP3     H2       HT       0.417000       1.00800           0   0.00000     -0.301140E-02
     25775 TIP3     287      TIP3     OH2      OT      -0.834000       15.9994           0   0.00000       0.00000    
     25776 TIP3     287      TIP3     H1       HT       0.417000       1.00800           0   0.00000       0.00000    
     25777 TIP3     287      TIP3     H2       HT       0.417000       1.00800           0   0.00000     -0.301140E-02
     25778 TIP3     288      TIP3     OH2      OT      -0.834000       15.9994           0   0.00000       0.00000    
     25779 TIP3     288      TIP3     H1       HT       0.417000       1.00800           0   0.00000       0.00000    
     25780 TIP3     288      TIP3     H2       HT       0.417000       1.00800           0   0.00000     -0.301140E-02
     25781 TIP3     289      TIP3     OH2      OT      -0.834000       15.9994           0   0.00000       0.00000    
     25782 TIP3     289      TIP3     H1       HT       0.417000       1.00800           0   0.00000       0.00000    
     25783 TIP3     289      TIP3     H2       HT       0.417000       1.00800           0   0.00000     -0.301140E-02
     25784 TIP3     290      TIP3     OH2      OT      -0.834000       15.9994           0   0.00000       0.00000    
     25785 TIP3     290      TIP3     H1       HT       0.417000       1.00800           0   0.00000       0.00000    
     25786 TIP3     290      TIP3     H2       HT       0.417000       1.00800           0   0.00000     -0.301140E-02
     25787 TIP3     291      TIP3     OH2      OT      -0.834000       15.9994           0   0.00000       0.00000    
     25788 TIP3     291      TIP3     H1       HT       0.417000       1.00800           0   0.00000       0.00000    
     25789 TIP3     291      TIP3     H2       HT       0.417000       1.00800           0   0.00000     -0.301140E-02
     25790 TIP3     292      TIP3     OH2      OT      -0.834000       15.9994           0   0.00000       0.00000    
     25791 TIP3     292      TIP3     H1       HT       0.417000       1.00800           0   0.00000       0.00000    
     25792 TIP3     292      TIP3     H2       HT       0.417000       1.00800           0   0.00000     -0.301140E-02
     25793 TIP3     293      TIP3     OH2      OT      -0.834000       15.9994           0   0.00000       0.00000    
     25794 TIP3     293      TIP3     H1       HT       0.417000       1.00800           0   0.00000       0.00000    
     25795 TIP3     293      TIP3     H2       HT       0.417000       1.00800           0   0.00000     -0.301140E-02
     25796 TIP3     294      TIP3     OH2      OT      -0.834000       15.9994           0   0.00000       0.00000    
     25797 TIP3     294      TIP3     H1       HT       0.417000       1.00800           0   0.00000       0.00000    
     25798 TIP3     294      TIP3     H2       HT       0.417000       1.00800           0   0.00000     -0.301140E-02
     25799 TIP3     295      TIP3     OH2      OT      -0.834000       15.9994           0   0.00000       0.00000    
     25800 TIP3     295      TIP3     H1       HT       0.417000       1.00800           0   0.00000       0.00000    
     25801 TIP3     295      TIP3     H2       HT       0.417000       1.00800           0   0.00000     -0.301140E-02
     25802 TIP3     296      TIP3     OH2      OT      -0.834000       15.9994           0   0.00000       0.00000    
     25803 TIP3     296      TIP3     H1       HT       0.417000       1.00800           0   0.00000       0.00000    
     25804 TIP3     296      TIP3     H2       HT       0.417000       1.00800           0   0.00000     -0.301140E-02
     25805 TIP3     297      TIP3     OH2      OT      -0.834000       15.9994           0   0.00000       0.00000    
     25806 TIP3     297      TIP3     H1       HT       0.417000       1.00800           0   0.00000       0.00000    
     25807 TIP3     297      TIP3     H2       HT       0.417000       1.00800           0   0.00000     -0.301140E-02
     25808 TIP3     298      TIP3     OH2      OT      -0.834000       15.9994           0   0.00000       0.00000    
     25809 TIP3     298      TIP3     H1       HT       0.417000       1.00800           0   0.00000       0.00000    
     25810 TIP3     298      TIP3     H2       HT       0.417000       1.00800           0   0.00000     -0.301140E-02
     25811 TIP3     299      TIP3     OH2      OT      -0.834000       15.9994           0   0.00000       0.00000    
     25812 TIP3     299      TIP3     H1       HT       0.417000       1.00800           0   0.00000       0.00000    
     25813 TIP3     299      TIP3     H2       HT       0.417000       1.00800           0   0.00000     -0.301140E-02
     25814 TIP3     300      TIP3     OH2      OT      -0.834000       15.9994           0   0.00000       0.00000    
     25815 TIP3     300      TIP3     H1       HT       0.417000       1.00800           0   0.00000       0.00000    
     25816 TIP3     300      TIP3     H2       HT       0.417000       1.00800           0   0.00000     -0.301140E-02
     25817 TIP3     301      TIP3     OH2      OT      -0.834000       15.9994           0   0.00000       0.00000    
     25818 TIP3     301      TIP3     H1       HT       0.417000       1.00800           0   0.00000       0.00000    
     25819 TIP3     301      TIP3     H2       HT       0.417000       1.00800           0   0.00000     -0.301140E-02
     25820 TIP3     302      TIP3     OH2      OT      -0.834000       15.9994           0   0.00000       0.00000    
     25821 TIP3     302      TIP3     H1       HT       0.417000       1.00800           0   0.00000       0.00000    
     25822 TIP3     302      TIP3     H2       HT       0.417000       1.00800           0   0.00000     -0.301140E-02
     25823 TIP3     303      TIP3     OH2      OT      -0.834000       15.9994           0   0.00000       0.00000    
     25824 TIP3     303      TIP3     H1       HT       0.417000       1.00800           0   0.00000       0.00000    
     25825 TIP3     303      TIP3     H2       HT       0.417000       1.00800           0   0.00000     -0.301140E-02
     25826 TIP3     304      TIP3     OH2      OT      -0.834000       15.9994           0   0.00000       0.00000    
     25827 TIP3     304      TIP3     H1       HT       0.417000       1.00800           0   0.00000       0.00000    
     25828 TIP3     304      TIP3     H2       HT       0.417000       1.00800           0   0.00000     -0.301140E-02
     25829 TIP3     305      TIP3     OH2      OT      -0.834000       15.9994           0   0.00000       0.00000    
     25830 TIP3     305      TIP3     H1       HT       0.417000       1.00800           0   0.00000       0.00000    
     25831 TIP3     305      TIP3     H2       HT       0.417000       1.00800           0   0.00000     -0.301140E-02
     25832 TIP3     306      TIP3     OH2      OT      -0.834000       15.9994           0   0.00000       0.00000    
     25833 TIP3     306      TIP3     H1       HT       0.417000       1.00800           0   0.00000       0.00000    
     25834 TIP3     306      TIP3     H2       HT       0.417000       1.00800           0   0.00000     -0.301140E-02
     25835 TIP3     307      TIP3     OH2      OT      -0.834000       15.9994           0   0.00000       0.00000    
     25836 TIP3     307      TIP3     H1       HT       0.417000       1.00800           0   0.00000       0.00000    
     25837 TIP3     307      TIP3     H2       HT       0.417000       1.00800           0   0.00000     -0.301140E-02
     25838 TIP3     308      TIP3     OH2      OT      -0.834000       15.9994           0   0.00000       0.00000    
     25839 TIP3     308      TIP3     H1       HT       0.417000       1.00800           0   0.00000       0.00000    
     25840 TIP3     308      TIP3     H2       HT       0.417000       1.00800           0   0.00000     -0.301140E-02
     25841 TIP3     309      TIP3     OH2      OT      -0.834000       15.9994           0   0.00000       0.00000    
     25842 TIP3     309      TIP3     H1       HT       0.417000       1.00800           0   0.00000       0.00000    
     25843 TIP3     309      TIP3     H2       HT       0.417000       1.00800           0   0.00000     -0.301140E-02
     25844 TIP3     310      TIP3     OH2      OT      -0.834000       15.9994           0   0.00000       0.00000    
     25845 TIP3     310      TIP3     H1       HT       0.417000       1.00800           0   0.00000       0.00000    
     25846 TIP3     310      TIP3     H2       HT       0.417000       1.00800           0   0.00000     -0.301140E-02
     25847 TIP3     311      TIP3     OH2      OT      -0.834000       15.9994           0   0.00000       0.00000    
     25848 TIP3     311      TIP3     H1       HT       0.417000       1.00800           0   0.00000       0.00000    
     25849 TIP3     311      TIP3     H2       HT       0.417000       1.00800           0   0.00000     -0.301140E-02
     25850 TIP3     312      TIP3     OH2      OT      -0.834000       15.9994           0   0.00000       0.00000    
     25851 TIP3     312      TIP3     H1       HT       0.417000       1.00800           0   0.00000       0.00000    
     25852 TIP3     312      TIP3     H2       HT       0.417000       1.00800           0   0.00000     -0.301140E-02
     25853 TIP3     313      TIP3     OH2      OT      -0.834000       15.9994           0   0.00000       0.00000    
     25854 TIP3     313      TIP3     H1       HT       0.417000       1.00800           0   0.00000       0.00000    
     25855 TIP3     313      TIP3     H2       HT       0.417000       1.00800           0   0.00000     -0.301140E-02
     25856 TIP3     314      TIP3     OH2      OT      -0.834000       15.9994           0   0.00000       0.00000    
     25857 TIP3     314      TIP3     H1       HT       0.417000       1.00800           0   0.00000       0.00000    
     25858 TIP3     314      TIP3     H2       HT       0.417000       1.00800           0   0.00000     -0.301140E-02
     25859 TIP3     315      TIP3     OH2      OT      -0.834000       15.9994           0   0.00000       0.00000    
     25860 TIP3     315      TIP3     H1       HT       0.417000       1.00800           0   0.00000       0.00000    
     25861 TIP3     315      TIP3     H2       HT       0.417000       1.00800           0   0.00000     -0.301140E-02
     25862 TIP3     316      TIP3     OH2      OT      -0.834000       15.9994           0   0.00000       0.00000    
     25863 TIP3     316      TIP3     H1       HT       0.417000       1.00800           0   0.00000       0.00000    
     25864 TIP3     316      TIP3     H2       HT       0.417000       1.00800           0   0.00000     -0.301140E-02
     25865 TIP3     317      TIP3     OH2      OT      -0.834000       15.9994           0   0.00000       0.00000    
     25866 TIP3     317      TIP3     H1       HT       0.417000       1.00800           0   0.00000       0.00000    
     25867 TIP3     317      TIP3     H2       HT       0.417000       1.00800           0   0.00000     -0.301140E-02
     25868 TIP3     318      TIP3     OH2      OT      -0.834000       15.9994           0   0.00000       0.00000    
     25869 TIP3     318      TIP3     H1       HT       0.417000       1.00800           0   0.00000       0.00000    
     25870 TIP3     318      TIP3     H2       HT       0.417000       1.00800           0   0.00000     -0.301140E-02
     25871 TIP3     319      TIP3     OH2      OT      -0.834000       15.9994           0   0.00000       0.00000    
     25872 TIP3     319      TIP3     H1       HT       0.417000       1.00800           0   0.00000       0.00000    
     25873 TIP3     319      TIP3     H2       HT       0.417000       1.00800           0   0.00000     -0.301140E-02
     25874 TIP3     320      TIP3     OH2      OT      -0.834000       15.9994           0   0.00000       0.00000    
     25875 TIP3     320      TIP3     H1       HT       0.417000       1.00800           0   0.00000       0.00000    
     25876 TIP3     320      TIP3     H2       HT       0.417000       1.00800           0   0.00000     -0.301140E-02
     25877 TIP3     321      TIP3     OH2      OT      -0.834000       15.9994           0   0.00000       0.00000    
     25878 TIP3     321      TIP3     H1       HT       0.417000       1.00800           0   0.00000       0.00000    
     25879 TIP3     321      TIP3     H2       HT       0.417000       1.00800           0   0.00000     -0.301140E-02
     25880 TIP3     322      TIP3     OH2      OT      -0.834000       15.9994           0   0.00000       0.00000    
     25881 TIP3     322      TIP3     H1       HT       0.417000       1.00800           0   0.00000       0.00000    
     25882 TIP3     322      TIP3     H2       HT       0.417000       1.00800           0   0.00000     -0.301140E-02
     25883 TIP3     323      TIP3     OH2      OT      -0.834000       15.9994           0   0.00000       0.00000    
     25884 TIP3     323      TIP3     H1       HT       0.417000       1.00800           0   0.00000       0.00000    
     25885 TIP3     323      TIP3     H2       HT       0.417000       1.00800           0   0.00000     -0.301140E-02
     25886 TIP3     324      TIP3     OH2      OT      -0.834000       15.9994           0   0.00000       0.00000    
     25887 TIP3     324      TIP3     H1       HT       0.417000       1.00800           0   0.00000       0.00000    
     25888 TIP3     324      TIP3     H2       HT       0.417000       1.00800           0   0.00000     -0.301140E-02
     25889 TIP3     325      TIP3     OH2      OT      -0.834000       15.9994           0   0.00000       0.00000    
     25890 TIP3     325      TIP3     H1       HT       0.417000       1.00800           0   0.00000       0.00000    
     25891 TIP3     325      TIP3     H2       HT       0.417000       1.00800           0   0.00000     -0.301140E-02
     25892 TIP3     326      TIP3     OH2      OT      -0.834000       15.9994           0   0.00000       0.00000    
     25893 TIP3     326      TIP3     H1       HT       0.417000       1.00800           0   0.00000       0.00000    
     25894 TIP3     326      TIP3     H2       HT       0.417000       1.00800           0   0.00000     -0.301140E-02
     25895 TIP3     327      TIP3     OH2      OT      -0.834000       15.9994           0   0.00000       0.00000    
     25896 TIP3     327      TIP3     H1       HT       0.417000       1.00800           0   0.00000       0.00000    
     25897 TIP3     327      TIP3     H2       HT       0.417000       1.00800           0   0.00000     -0.301140E-02
     25898 TIP3     328      TIP3     OH2      OT      -0.834000       15.9994           0   0.00000       0.00000    
     25899 TIP3     328      TIP3     H1       HT       0.417000       1.00800           0   0.00000       0.00000    
     25900 TIP3     328      TIP3     H2       HT       0.417000       1.00800           0   0.00000     -0.301140E-02
     25901 TIP3     329      TIP3     OH2      OT      -0.834000       15.9994           0   0.00000       0.00000    
     25902 TIP3     329      TIP3     H1       HT       0.417000       1.00800           0   0.00000       0.00000    
     25903 TIP3     329      TIP3     H2       HT       0.417000       1.00800           0   0.00000     -0.301140E-02
     25904 TIP3     330      TIP3     OH2      OT      -0.834000       15.9994           0   0.00000       0.00000    
     25905 TIP3     330      TIP3     H1       HT       0.417000       1.00800           0   0.00000       0.00000    
     25906 TIP3     330      TIP3     H2       HT       0.417000       1.00800           0   0.00000     -0.301140E-02
     25907 TIP3     331      TIP3     OH2      OT      -0.834000       15.9994           0   0.00000       0.00000    
     25908 TIP3     331      TIP3     H1       HT       0.417000       1.00800           0   0.00000       0.00000    
     25909 TIP3     331      TIP3     H2       HT       0.417000       1.00800           0   0.00000     -0.301140E-02
     25910 TIP3     332      TIP3     OH2      OT      -0.834000       15.9994           0   0.00000       0.00000    
     25911 TIP3     332      TIP3     H1       HT       0.417000       1.00800           0   0.00000       0.00000    
     25912 TIP3     332      TIP3     H2       HT       0.417000       1.00800           0   0.00000     -0.301140E-02
     25913 TIP3     333      TIP3     OH2      OT      -0.834000       15.9994           0   0.00000       0.00000    
     25914 TIP3     333      TIP3     H1       HT       0.417000       1.00800           0   0.00000       0.00000    
     25915 TIP3     333      TIP3     H2       HT       0.417000       1.00800           0   0.00000     -0.301140E-02
     25916 TIP3     334      TIP3     OH2      OT      -0.834000       15.9994           0   0.00000       0.00000    
     25917 TIP3     334      TIP3     H1       HT       0.417000       1.00800           0   0.00000       0.00000    
     25918 TIP3     334      TIP3     H2       HT       0.417000       1.00800           0   0.00000     -0.301140E-02
     25919 TIP3     335      TIP3     OH2      OT      -0.834000       15.9994           0   0.00000       0.00000    
     25920 TIP3     335      TIP3     H1       HT       0.417000       1.00800           0   0.00000       0.00000    
     25921 TIP3     335      TIP3     H2       HT       0.417000       1.00800           0   0.00000     -0.301140E-02
     25922 TIP3     336      TIP3     OH2      OT      -0.834000       15.9994           0   0.00000       0.00000    
     25923 TIP3     336      TIP3     H1       HT       0.417000       1.00800           0   0.00000       0.00000    
     25924 TIP3     336      TIP3     H2       HT       0.417000       1.00800           0   0.00000     -0.301140E-02
     25925 TIP3     337      TIP3     OH2      OT      -0.834000       15.9994           0   0.00000       0.00000    
     25926 TIP3     337      TIP3     H1       HT       0.417000       1.00800           0   0.00000       0.00000    
     25927 TIP3     337      TIP3     H2       HT       0.417000       1.00800           0   0.00000     -0.301140E-02
     25928 TIP3     338      TIP3     OH2      OT      -0.834000       15.9994           0   0.00000       0.00000    
     25929 TIP3     338      TIP3     H1       HT       0.417000       1.00800           0   0.00000       0.00000    
     25930 TIP3     338      TIP3     H2       HT       0.417000       1.00800           0   0.00000     -0.301140E-02
     25931 TIP3     339      TIP3     OH2      OT      -0.834000       15.9994           0   0.00000       0.00000    
     25932 TIP3     339      TIP3     H1       HT       0.417000       1.00800           0   0.00000       0.00000    
     25933 TIP3     339      TIP3     H2       HT       0.417000       1.00800           0   0.00000     -0.301140E-02
     25934 TIP3     340      TIP3     OH2      OT      -0.834000       15.9994           0   0.00000       0.00000    
     25935 TIP3     340      TIP3     H1       HT       0.417000       1.00800           0   0.00000       0.00000    
     25936 TIP3     340      TIP3     H2       HT       0.417000       1.00800           0   0.00000     -0.301140E-02
     25937 TIP3     341      TIP3     OH2      OT      -0.834000       15.9994           0   0.00000       0.00000    
     25938 TIP3     341      TIP3     H1       HT       0.417000       1.00800           0   0.00000       0.00000    
     25939 TIP3     341      TIP3     H2       HT       0.417000       1.00800           0   0.00000     -0.301140E-02
     25940 TIP3     342      TIP3     OH2      OT      -0.834000       15.9994           0   0.00000       0.00000    
     25941 TIP3     342      TIP3     H1       HT       0.417000       1.00800           0   0.00000       0.00000    
     25942 TIP3     342      TIP3     H2       HT       0.417000       1.00800           0   0.00000     -0.301140E-02
     25943 TIP3     343      TIP3     OH2      OT      -0.834000       15.9994           0   0.00000       0.00000    
     25944 TIP3     343      TIP3     H1       HT       0.417000       1.00800           0   0.00000       0.00000    
     25945 TIP3     343      TIP3     H2       HT       0.417000       1.00800           0   0.00000     -0.301140E-02
     25946 TIP3     344      TIP3     OH2      OT      -0.834000       15.9994           0   0.00000       0.00000    
     25947 TIP3     344      TIP3     H1       HT       0.417000       1.00800           0   0.00000       0.00000    
     25948 TIP3     344      TIP3     H2       HT       0.417000       1.00800           0   0.00000     -0.301140E-02
     25949 TIP3     345      TIP3     OH2      OT      -0.834000       15.9994           0   0.00000       0.00000    
     25950 TIP3     345      TIP3     H1       HT       0.417000       1.00800           0   0.00000       0.00000    
     25951 TIP3     345      TIP3     H2       HT       0.417000       1.00800           0   0.00000     -0.301140E-02
     25952 TIP3     346      TIP3     OH2      OT      -0.834000       15.9994           0   0.00000       0.00000    
     25953 TIP3     346      TIP3     H1       HT       0.417000       1.00800           0   0.00000       0.00000    
     25954 TIP3     346      TIP3     H2       HT       0.417000       1.00800           0   0.00000     -0.301140E-02
     25955 TIP3     347      TIP3     OH2      OT      -0.834000       15.9994           0   0.00000       0.00000    
     25956 TIP3     347      TIP3     H1       HT       0.417000       1.00800           0   0.00000       0.00000    
     25957 TIP3     347      TIP3     H2       HT       0.417000       1.00800           0   0.00000     -0.301140E-02
     25958 TIP3     348      TIP3     OH2      OT      -0.834000       15.9994           0   0.00000       0.00000    
     25959 TIP3     348      TIP3     H1       HT       0.417000       1.00800           0   0.00000       0.00000    
     25960 TIP3     348      TIP3     H2       HT       0.417000       1.00800           0   0.00000     -0.301140E-02
     25961 TIP3     349      TIP3     OH2      OT      -0.834000       15.9994           0   0.00000       0.00000    
     25962 TIP3     349      TIP3     H1       HT       0.417000       1.00800           0   0.00000       0.00000    
     25963 TIP3     349      TIP3     H2       HT       0.417000       1.00800           0   0.00000     -0.301140E-02
     25964 TIP3     350      TIP3     OH2      OT      -0.834000       15.9994           0   0.00000       0.00000    
     25965 TIP3     350      TIP3     H1       HT       0.417000       1.00800           0   0.00000       0.00000    
     25966 TIP3     350      TIP3     H2       HT       0.417000       1.00800           0   0.00000     -0.301140E-02
     25967 TIP3     351      TIP3     OH2      OT      -0.834000       15.9994           0   0.00000       0.00000    
     25968 TIP3     351      TIP3     H1       HT       0.417000       1.00800           0   0.00000       0.00000    
     25969 TIP3     351      TIP3     H2       HT       0.417000       1.00800           0   0.00000     -0.301140E-02
     25970 TIP3     352      TIP3     OH2      OT      -0.834000       15.9994           0   0.00000       0.00000    
     25971 TIP3     352      TIP3     H1       HT       0.417000       1.00800           0   0.00000       0.00000    
     25972 TIP3     352      TIP3     H2       HT       0.417000       1.00800           0   0.00000     -0.301140E-02
     25973 TIP3     353      TIP3     OH2      OT      -0.834000       15.9994           0   0.00000       0.00000    
     25974 TIP3     353      TIP3     H1       HT       0.417000       1.00800           0   0.00000       0.00000    
     25975 TIP3     353      TIP3     H2       HT       0.417000       1.00800           0   0.00000     -0.301140E-02
     25976 TIP3     354      TIP3     OH2      OT      -0.834000       15.9994           0   0.00000       0.00000    
     25977 TIP3     354      TIP3     H1       HT       0.417000       1.00800           0   0.00000       0.00000    
     25978 TIP3     354      TIP3     H2       HT       0.417000       1.00800           0   0.00000     -0.301140E-02
     25979 TIP3     355      TIP3     OH2      OT      -0.834000       15.9994           0   0.00000       0.00000    
     25980 TIP3     355      TIP3     H1       HT       0.417000       1.00800           0   0.00000       0.00000    
     25981 TIP3     355      TIP3     H2       HT       0.417000       1.00800           0   0.00000     -0.301140E-02
     25982 TIP3     356      TIP3     OH2      OT      -0.834000       15.9994           0   0.00000       0.00000    
     25983 TIP3     356      TIP3     H1       HT       0.417000       1.00800           0   0.00000       0.00000    
     25984 TIP3     356      TIP3     H2       HT       0.417000       1.00800           0   0.00000     -0.301140E-02
     25985 TIP3     357      TIP3     OH2      OT      -0.834000       15.9994           0   0.00000       0.00000    
     25986 TIP3     357      TIP3     H1       HT       0.417000       1.00800           0   0.00000       0.00000    
     25987 TIP3     357      TIP3     H2       HT       0.417000       1.00800           0   0.00000     -0.301140E-02
     25988 TIP3     358      TIP3     OH2      OT      -0.834000       15.9994           0   0.00000       0.00000    
     25989 TIP3     358      TIP3     H1       HT       0.417000       1.00800           0   0.00000       0.00000    
     25990 TIP3     358      TIP3     H2       HT       0.417000       1.00800           0   0.00000     -0.301140E-02
     25991 TIP3     359      TIP3     OH2      OT      -0.834000       15.9994           0   0.00000       0.00000    
     25992 TIP3     359      TIP3     H1       HT       0.417000       1.00800           0   0.00000       0.00000    
     25993 TIP3     359      TIP3     H2       HT       0.417000       1.00800           0   0.00000     -0.301140E-02
     25994 TIP3     360      TIP3     OH2      OT      -0.834000       15.9994           0   0.00000       0.00000    
     25995 TIP3     360      TIP3     H1       HT       0.417000       1.00800           0   0.00000       0.00000    
     25996 TIP3     360      TIP3     H2       HT       0.417000       1.00800           0   0.00000     -0.301140E-02
     25997 TIP3     361      TIP3     OH2      OT      -0.834000       15.9994           0   0.00000       0.00000    
     25998 TIP3     361      TIP3     H1       HT       0.417000       1.00800           0   0.00000       0.00000    
     25999 TIP3     361      TIP3     H2       HT       0.417000       1.00800           0   0.00000     -0.301140E-02
     26000 TIP3     362      TIP3     OH2      OT      -0.834000       15.9994           0   0.00000       0.00000    
     26001 TIP3     362      TIP3     H1       HT       0.417000       1.00800           0   0.00000       0.00000    
     26002 TIP3     362      TIP3     H2       HT       0.417000       1.00800           0   0.00000     -0.301140E-02
     26003 TIP3     363      TIP3     OH2      OT      -0.834000       15.9994           0   0.00000       0.00000    
     26004 TIP3     363      TIP3     H1       HT       0.417000       1.00800           0   0.00000       0.00000    
     26005 TIP3     363      TIP3     H2       HT       0.417000       1.00800           0   0.00000     -0.301140E-02
     26006 TIP3     364      TIP3     OH2      OT      -0.834000       15.9994           0   0.00000       0.00000    
     26007 TIP3     364      TIP3     H1       HT       0.417000       1.00800           0   0.00000       0.00000    
     26008 TIP3     364      TIP3     H2       HT       0.417000       1.00800           0   0.00000     -0.301140E-02
     26009 TIP3     365      TIP3     OH2      OT      -0.834000       15.9994           0   0.00000       0.00000    
     26010 TIP3     365      TIP3     H1       HT       0.417000       1.00800           0   0.00000       0.00000    
     26011 TIP3     365      TIP3     H2       HT       0.417000       1.00800           0   0.00000     -0.301140E-02
     26012 TIP3     366      TIP3     OH2      OT      -0.834000       15.9994           0   0.00000       0.00000    
     26013 TIP3     366      TIP3     H1       HT       0.417000       1.00800           0   0.00000       0.00000    
     26014 TIP3     366      TIP3     H2       HT       0.417000       1.00800           0   0.00000     -0.301140E-02
     26015 TIP3     367      TIP3     OH2      OT      -0.834000       15.9994           0   0.00000       0.00000    
     26016 TIP3     367      TIP3     H1       HT       0.417000       1.00800           0   0.00000       0.00000    
     26017 TIP3     367      TIP3     H2       HT       0.417000       1.00800           0   0.00000     -0.301140E-02
     26018 TIP3     368      TIP3     OH2      OT      -0.834000       15.9994           0   0.00000       0.00000    
     26019 TIP3     368      TIP3     H1       HT       0.417000       1.00800           0   0.00000       0.00000    
     26020 TIP3     368      TIP3     H2       HT       0.417000       1.00800           0   0.00000     -0.301140E-02
     26021 TIP3     369      TIP3     OH2      OT      -0.834000       15.9994           0   0.00000       0.00000    
     26022 TIP3     369      TIP3     H1       HT       0.417000       1.00800           0   0.00000       0.00000    
     26023 TIP3     369      TIP3     H2       HT       0.417000       1.00800           0   0.00000     -0.301140E-02
     26024 TIP3     370      TIP3     OH2      OT      -0.834000       15.9994           0   0.00000       0.00000    
     26025 TIP3     370      TIP3     H1       HT       0.417000       1.00800           0   0.00000       0.00000    
     26026 TIP3     370      TIP3     H2       HT       0.417000       1.00800           0   0.00000     -0.301140E-02
     26027 TIP3     371      TIP3     OH2      OT      -0.834000       15.9994           0   0.00000       0.00000    
     26028 TIP3     371      TIP3     H1       HT       0.417000       1.00800           0   0.00000       0.00000    
     26029 TIP3     371      TIP3     H2       HT       0.417000       1.00800           0   0.00000     -0.301140E-02
     26030 TIP3     372      TIP3     OH2      OT      -0.834000       15.9994           0   0.00000       0.00000    
     26031 TIP3     372      TIP3     H1       HT       0.417000       1.00800           0   0.00000       0.00000    
     26032 TIP3     372      TIP3     H2       HT       0.417000       1.00800           0   0.00000     -0.301140E-02
     26033 TIP3     373      TIP3     OH2      OT      -0.834000       15.9994           0   0.00000       0.00000    
     26034 TIP3     373      TIP3     H1       HT       0.417000       1.00800           0   0.00000       0.00000    
     26035 TIP3     373      TIP3     H2       HT       0.417000       1.00800           0   0.00000     -0.301140E-02
     26036 TIP3     374      TIP3     OH2      OT      -0.834000       15.9994           0   0.00000       0.00000    
     26037 TIP3     374      TIP3     H1       HT       0.417000       1.00800           0   0.00000       0.00000    
     26038 TIP3     374      TIP3     H2       HT       0.417000       1.00800           0   0.00000     -0.301140E-02
     26039 TIP3     375      TIP3     OH2      OT      -0.834000       15.9994           0   0.00000       0.00000    
     26040 TIP3     375      TIP3     H1       HT       0.417000       1.00800           0   0.00000       0.00000    
     26041 TIP3     375      TIP3     H2       HT       0.417000       1.00800           0   0.00000     -0.301140E-02
     26042 TIP3     376      TIP3     OH2      OT      -0.834000       15.9994           0   0.00000       0.00000    
     26043 TIP3     376      TIP3     H1       HT       0.417000       1.00800           0   0.00000       0.00000    
     26044 TIP3     376      TIP3     H2       HT       0.417000       1.00800           0   0.00000     -0.301140E-02
     26045 TIP3     377      TIP3     OH2      OT      -0.834000       15.9994           0   0.00000       0.00000    
     26046 TIP3     377      TIP3     H1       HT       0.417000       1.00800           0   0.00000       0.00000    
     26047 TIP3     377      TIP3     H2       HT       0.417000       1.00800           0   0.00000     -0.301140E-02
     26048 TIP3     378      TIP3     OH2      OT      -0.834000       15.9994           0   0.00000       0.00000    
     26049 TIP3     378      TIP3     H1       HT       0.417000       1.00800           0   0.00000       0.00000    
     26050 TIP3     378      TIP3     H2       HT       0.417000       1.00800           0   0.00000     -0.301140E-02
     26051 TIP3     379      TIP3     OH2      OT      -0.834000       15.9994           0   0.00000       0.00000    
     26052 TIP3     379      TIP3     H1       HT       0.417000       1.00800           0   0.00000       0.00000    
     26053 TIP3     379      TIP3     H2       HT       0.417000       1.00800           0   0.00000     -0.301140E-02
     26054 TIP3     380      TIP3     OH2      OT      -0.834000       15.9994           0   0.00000       0.00000    
     26055 TIP3     380      TIP3     H1       HT       0.417000       1.00800           0   0.00000       0.00000    
     26056 TIP3     380      TIP3     H2       HT       0.417000       1.00800           0   0.00000     -0.301140E-02
     26057 TIP3     381      TIP3     OH2      OT      -0.834000       15.9994           0   0.00000       0.00000    
     26058 TIP3     381      TIP3     H1       HT       0.417000       1.00800           0   0.00000       0.00000    
     26059 TIP3     381      TIP3     H2       HT       0.417000       1.00800           0   0.00000     -0.301140E-02
     26060 TIP3     382      TIP3     OH2      OT      -0.834000       15.9994           0   0.00000       0.00000    
     26061 TIP3     382      TIP3     H1       HT       0.417000       1.00800           0   0.00000       0.00000    
     26062 TIP3     382      TIP3     H2       HT       0.417000       1.00800           0   0.00000     -0.301140E-02
     26063 TIP3     383      TIP3     OH2      OT      -0.834000       15.9994           0   0.00000       0.00000    
     26064 TIP3     383      TIP3     H1       HT       0.417000       1.00800           0   0.00000       0.00000    
     26065 TIP3     383      TIP3     H2       HT       0.417000       1.00800           0   0.00000     -0.301140E-02
     26066 TIP3     384      TIP3     OH2      OT      -0.834000       15.9994           0   0.00000       0.00000    
     26067 TIP3     384      TIP3     H1       HT       0.417000       1.00800           0   0.00000       0.00000    
     26068 TIP3     384      TIP3     H2       HT       0.417000       1.00800           0   0.00000     -0.301140E-02
     26069 TIP3     385      TIP3     OH2      OT      -0.834000       15.9994           0   0.00000       0.00000    
     26070 TIP3     385      TIP3     H1       HT       0.417000       1.00800           0   0.00000       0.00000    
     26071 TIP3     385      TIP3     H2       HT       0.417000       1.00800           0   0.00000     -0.301140E-02
     26072 TIP3     386      TIP3     OH2      OT      -0.834000       15.9994           0   0.00000       0.00000    
     26073 TIP3     386      TIP3     H1       HT       0.417000       1.00800           0   0.00000       0.00000    
     26074 TIP3     386      TIP3     H2       HT       0.417000       1.00800           0   0.00000     -0.301140E-02
     26075 TIP3     387      TIP3     OH2      OT      -0.834000       15.9994           0   0.00000       0.00000    
     26076 TIP3     387      TIP3     H1       HT       0.417000       1.00800           0   0.00000       0.00000    
     26077 TIP3     387      TIP3     H2       HT       0.417000       1.00800           0   0.00000     -0.301140E-02
     26078 TIP3     388      TIP3     OH2      OT      -0.834000       15.9994           0   0.00000       0.00000    
     26079 TIP3     388      TIP3     H1       HT       0.417000       1.00800           0   0.00000       0.00000    
     26080 TIP3     388      TIP3     H2       HT       0.417000       1.00800           0   0.00000     -0.301140E-02
     26081 TIP3     389      TIP3     OH2      OT      -0.834000       15.9994           0   0.00000       0.00000    
     26082 TIP3     389      TIP3     H1       HT       0.417000       1.00800           0   0.00000       0.00000    
     26083 TIP3     389      TIP3     H2       HT       0.417000       1.00800           0   0.00000     -0.301140E-02
     26084 TIP3     390      TIP3     OH2      OT      -0.834000       15.9994           0   0.00000       0.00000    
     26085 TIP3     390      TIP3     H1       HT       0.417000       1.00800           0   0.00000       0.00000    
     26086 TIP3     390      TIP3     H2       HT       0.417000       1.00800           0   0.00000     -0.301140E-02
     26087 TIP3     391      TIP3     OH2      OT      -0.834000       15.9994           0   0.00000       0.00000    
     26088 TIP3     391      TIP3     H1       HT       0.417000       1.00800           0   0.00000       0.00000    
     26089 TIP3     391      TIP3     H2       HT       0.417000       1.00800           0   0.00000     -0.301140E-02
     26090 TIP3     392      TIP3     OH2      OT      -0.834000       15.9994           0   0.00000       0.00000    
     26091 TIP3     392      TIP3     H1       HT       0.417000       1.00800           0   0.00000       0.00000    
     26092 TIP3     392      TIP3     H2       HT       0.417000       1.00800           0   0.00000     -0.301140E-02
     26093 TIP3     393      TIP3     OH2      OT      -0.834000       15.9994           0   0.00000       0.00000    
     26094 TIP3     393      TIP3     H1       HT       0.417000       1.00800           0   0.00000       0.00000    
     26095 TIP3     393      TIP3     H2       HT       0.417000       1.00800           0   0.00000     -0.301140E-02
     26096 TIP3     394      TIP3     OH2      OT      -0.834000       15.9994           0   0.00000       0.00000    
     26097 TIP3     394      TIP3     H1       HT       0.417000       1.00800           0   0.00000       0.00000    
     26098 TIP3     394      TIP3     H2       HT       0.417000       1.00800           0   0.00000     -0.301140E-02
     26099 TIP3     395      TIP3     OH2      OT      -0.834000       15.9994           0   0.00000       0.00000    
     26100 TIP3     395      TIP3     H1       HT       0.417000       1.00800           0   0.00000       0.00000    
     26101 TIP3     395      TIP3     H2       HT       0.417000       1.00800           0   0.00000     -0.301140E-02
     26102 TIP3     396      TIP3     OH2      OT      -0.834000       15.9994           0   0.00000       0.00000    
     26103 TIP3     396      TIP3     H1       HT       0.417000       1.00800           0   0.00000       0.00000    
     26104 TIP3     396      TIP3     H2       HT       0.417000       1.00800           0   0.00000     -0.301140E-02
     26105 TIP3     397      TIP3     OH2      OT      -0.834000       15.9994           0   0.00000       0.00000    
     26106 TIP3     397      TIP3     H1       HT       0.417000       1.00800           0   0.00000       0.00000    
     26107 TIP3     397      TIP3     H2       HT       0.417000       1.00800           0   0.00000     -0.301140E-02
     26108 TIP3     398      TIP3     OH2      OT      -0.834000       15.9994           0   0.00000       0.00000    
     26109 TIP3     398      TIP3     H1       HT       0.417000       1.00800           0   0.00000       0.00000    
     26110 TIP3     398      TIP3     H2       HT       0.417000       1.00800           0   0.00000     -0.301140E-02
     26111 TIP3     399      TIP3     OH2      OT      -0.834000       15.9994           0   0.00000       0.00000    
     26112 TIP3     399      TIP3     H1       HT       0.417000       1.00800           0   0.00000       0.00000    
     26113 TIP3     399      TIP3     H2       HT       0.417000       1.00800           0   0.00000     -0.301140E-02
     26114 TIP3     400      TIP3     OH2      OT      -0.834000       15.9994           0   0.00000       0.00000    
     26115 TIP3     400      TIP3     H1       HT       0.417000       1.00800           0   0.00000       0.00000    
     26116 TIP3     400      TIP3     H2       HT       0.417000       1.00800           0   0.00000     -0.301140E-02
     26117 TIP3     401      TIP3     OH2      OT      -0.834000       15.9994           0   0.00000       0.00000    
     26118 TIP3     401      TIP3     H1       HT       0.417000       1.00800           0   0.00000       0.00000    
     26119 TIP3     401      TIP3     H2       HT       0.417000       1.00800           0   0.00000     -0.301140E-02
     26120 TIP3     402      TIP3     OH2      OT      -0.834000       15.9994           0   0.00000       0.00000    
     26121 TIP3     402      TIP3     H1       HT       0.417000       1.00800           0   0.00000       0.00000    
     26122 TIP3     402      TIP3     H2       HT       0.417000       1.00800           0   0.00000     -0.301140E-02
     26123 TIP3     403      TIP3     OH2      OT      -0.834000       15.9994           0   0.00000       0.00000    
     26124 TIP3     403      TIP3     H1       HT       0.417000       1.00800           0   0.00000       0.00000    
     26125 TIP3     403      TIP3     H2       HT       0.417000       1.00800           0   0.00000     -0.301140E-02
     26126 TIP3     404      TIP3     OH2      OT      -0.834000       15.9994           0   0.00000       0.00000    
     26127 TIP3     404      TIP3     H1       HT       0.417000       1.00800           0   0.00000       0.00000    
     26128 TIP3     404      TIP3     H2       HT       0.417000       1.00800           0   0.00000     -0.301140E-02
     26129 TIP3     405      TIP3     OH2      OT      -0.834000       15.9994           0   0.00000       0.00000    
     26130 TIP3     405      TIP3     H1       HT       0.417000       1.00800           0   0.00000       0.00000    
     26131 TIP3     405      TIP3     H2       HT       0.417000       1.00800           0   0.00000     -0.301140E-02
     26132 TIP3     406      TIP3     OH2      OT      -0.834000       15.9994           0   0.00000       0.00000    
     26133 TIP3     406      TIP3     H1       HT       0.417000       1.00800           0   0.00000       0.00000    
     26134 TIP3     406      TIP3     H2       HT       0.417000       1.00800           0   0.00000     -0.301140E-02
     26135 TIP3     407      TIP3     OH2      OT      -0.834000       15.9994           0   0.00000       0.00000    
     26136 TIP3     407      TIP3     H1       HT       0.417000       1.00800           0   0.00000       0.00000    
     26137 TIP3     407      TIP3     H2       HT       0.417000       1.00800           0   0.00000     -0.301140E-02
     26138 TIP3     408      TIP3     OH2      OT      -0.834000       15.9994           0   0.00000       0.00000    
     26139 TIP3     408      TIP3     H1       HT       0.417000       1.00800           0   0.00000       0.00000    
     26140 TIP3     408      TIP3     H2       HT       0.417000       1.00800           0   0.00000     -0.301140E-02
     26141 TIP3     409      TIP3     OH2      OT      -0.834000       15.9994           0   0.00000       0.00000    
     26142 TIP3     409      TIP3     H1       HT       0.417000       1.00800           0   0.00000       0.00000    
     26143 TIP3     409      TIP3     H2       HT       0.417000       1.00800           0   0.00000     -0.301140E-02
     26144 TIP3     410      TIP3     OH2      OT      -0.834000       15.9994           0   0.00000       0.00000    
     26145 TIP3     410      TIP3     H1       HT       0.417000       1.00800           0   0.00000       0.00000    
     26146 TIP3     410      TIP3     H2       HT       0.417000       1.00800           0   0.00000     -0.301140E-02
     26147 TIP3     411      TIP3     OH2      OT      -0.834000       15.9994           0   0.00000       0.00000    
     26148 TIP3     411      TIP3     H1       HT       0.417000       1.00800           0   0.00000       0.00000    
     26149 TIP3     411      TIP3     H2       HT       0.417000       1.00800           0   0.00000     -0.301140E-02
     26150 TIP3     412      TIP3     OH2      OT      -0.834000       15.9994           0   0.00000       0.00000    
     26151 TIP3     412      TIP3     H1       HT       0.417000       1.00800           0   0.00000       0.00000    
     26152 TIP3     412      TIP3     H2       HT       0.417000       1.00800           0   0.00000     -0.301140E-02
     26153 TIP3     413      TIP3     OH2      OT      -0.834000       15.9994           0   0.00000       0.00000    
     26154 TIP3     413      TIP3     H1       HT       0.417000       1.00800           0   0.00000       0.00000    
     26155 TIP3     413      TIP3     H2       HT       0.417000       1.00800           0   0.00000     -0.301140E-02
     26156 TIP3     414      TIP3     OH2      OT      -0.834000       15.9994           0   0.00000       0.00000    
     26157 TIP3     414      TIP3     H1       HT       0.417000       1.00800           0   0.00000       0.00000    
     26158 TIP3     414      TIP3     H2       HT       0.417000       1.00800           0   0.00000     -0.301140E-02
     26159 TIP3     415      TIP3     OH2      OT      -0.834000       15.9994           0   0.00000       0.00000    
     26160 TIP3     415      TIP3     H1       HT       0.417000       1.00800           0   0.00000       0.00000    
     26161 TIP3     415      TIP3     H2       HT       0.417000       1.00800           0   0.00000     -0.301140E-02
     26162 TIP3     416      TIP3     OH2      OT      -0.834000       15.9994           0   0.00000       0.00000    
     26163 TIP3     416      TIP3     H1       HT       0.417000       1.00800           0   0.00000       0.00000    
     26164 TIP3     416      TIP3     H2       HT       0.417000       1.00800           0   0.00000     -0.301140E-02
     26165 TIP3     417      TIP3     OH2      OT      -0.834000       15.9994           0   0.00000       0.00000    
     26166 TIP3     417      TIP3     H1       HT       0.417000       1.00800           0   0.00000       0.00000    
     26167 TIP3     417      TIP3     H2       HT       0.417000       1.00800           0   0.00000     -0.301140E-02
     26168 TIP3     418      TIP3     OH2      OT      -0.834000       15.9994           0   0.00000       0.00000    
     26169 TIP3     418      TIP3     H1       HT       0.417000       1.00800           0   0.00000       0.00000    
     26170 TIP3     418      TIP3     H2       HT       0.417000       1.00800           0   0.00000     -0.301140E-02
     26171 TIP3     419      TIP3     OH2      OT      -0.834000       15.9994           0   0.00000       0.00000    
     26172 TIP3     419      TIP3     H1       HT       0.417000       1.00800           0   0.00000       0.00000    
     26173 TIP3     419      TIP3     H2       HT       0.417000       1.00800           0   0.00000     -0.301140E-02
     26174 TIP3     420      TIP3     OH2      OT      -0.834000       15.9994           0   0.00000       0.00000    
     26175 TIP3     420      TIP3     H1       HT       0.417000       1.00800           0   0.00000       0.00000    
     26176 TIP3     420      TIP3     H2       HT       0.417000       1.00800           0   0.00000     -0.301140E-02
     26177 TIP3     421      TIP3     OH2      OT      -0.834000       15.9994           0   0.00000       0.00000    
     26178 TIP3     421      TIP3     H1       HT       0.417000       1.00800           0   0.00000       0.00000    
     26179 TIP3     421      TIP3     H2       HT       0.417000       1.00800           0   0.00000     -0.301140E-02
     26180 TIP3     422      TIP3     OH2      OT      -0.834000       15.9994           0   0.00000       0.00000    
     26181 TIP3     422      TIP3     H1       HT       0.417000       1.00800           0   0.00000       0.00000    
     26182 TIP3     422      TIP3     H2       HT       0.417000       1.00800           0   0.00000     -0.301140E-02
     26183 TIP3     423      TIP3     OH2      OT      -0.834000       15.9994           0   0.00000       0.00000    
     26184 TIP3     423      TIP3     H1       HT       0.417000       1.00800           0   0.00000       0.00000    
     26185 TIP3     423      TIP3     H2       HT       0.417000       1.00800           0   0.00000     -0.301140E-02
     26186 TIP3     424      TIP3     OH2      OT      -0.834000       15.9994           0   0.00000       0.00000    
     26187 TIP3     424      TIP3     H1       HT       0.417000       1.00800           0   0.00000       0.00000    
     26188 TIP3     424      TIP3     H2       HT       0.417000       1.00800           0   0.00000     -0.301140E-02
     26189 TIP3     425      TIP3     OH2      OT      -0.834000       15.9994           0   0.00000       0.00000    
     26190 TIP3     425      TIP3     H1       HT       0.417000       1.00800           0   0.00000       0.00000    
     26191 TIP3     425      TIP3     H2       HT       0.417000       1.00800           0   0.00000     -0.301140E-02
     26192 TIP3     426      TIP3     OH2      OT      -0.834000       15.9994           0   0.00000       0.00000    
     26193 TIP3     426      TIP3     H1       HT       0.417000       1.00800           0   0.00000       0.00000    
     26194 TIP3     426      TIP3     H2       HT       0.417000       1.00800           0   0.00000     -0.301140E-02
     26195 TIP3     427      TIP3     OH2      OT      -0.834000       15.9994           0   0.00000       0.00000    
     26196 TIP3     427      TIP3     H1       HT       0.417000       1.00800           0   0.00000       0.00000    
     26197 TIP3     427      TIP3     H2       HT       0.417000       1.00800           0   0.00000     -0.301140E-02
     26198 TIP3     428      TIP3     OH2      OT      -0.834000       15.9994           0   0.00000       0.00000    
     26199 TIP3     428      TIP3     H1       HT       0.417000       1.00800           0   0.00000       0.00000    
     26200 TIP3     428      TIP3     H2       HT       0.417000       1.00800           0   0.00000     -0.301140E-02
     26201 TIP3     429      TIP3     OH2      OT      -0.834000       15.9994           0   0.00000       0.00000    
     26202 TIP3     429      TIP3     H1       HT       0.417000       1.00800           0   0.00000       0.00000    
     26203 TIP3     429      TIP3     H2       HT       0.417000       1.00800           0   0.00000     -0.301140E-02
     26204 TIP3     430      TIP3     OH2      OT      -0.834000       15.9994           0   0.00000       0.00000    
     26205 TIP3     430      TIP3     H1       HT       0.417000       1.00800           0   0.00000       0.00000    
     26206 TIP3     430      TIP3     H2       HT       0.417000       1.00800           0   0.00000     -0.301140E-02
     26207 TIP3     431      TIP3     OH2      OT      -0.834000       15.9994           0   0.00000       0.00000    
     26208 TIP3     431      TIP3     H1       HT       0.417000       1.00800           0   0.00000       0.00000    
     26209 TIP3     431      TIP3     H2       HT       0.417000       1.00800           0   0.00000     -0.301140E-02
     26210 TIP3     432      TIP3     OH2      OT      -0.834000       15.9994           0   0.00000       0.00000    
     26211 TIP3     432      TIP3     H1       HT       0.417000       1.00800           0   0.00000       0.00000    
     26212 TIP3     432      TIP3     H2       HT       0.417000       1.00800           0   0.00000     -0.301140E-02
     26213 TIP3     433      TIP3     OH2      OT      -0.834000       15.9994           0   0.00000       0.00000    
     26214 TIP3     433      TIP3     H1       HT       0.417000       1.00800           0   0.00000       0.00000    
     26215 TIP3     433      TIP3     H2       HT       0.417000       1.00800           0   0.00000     -0.301140E-02
     26216 TIP3     434      TIP3     OH2      OT      -0.834000       15.9994           0   0.00000       0.00000    
     26217 TIP3     434      TIP3     H1       HT       0.417000       1.00800           0   0.00000       0.00000    
     26218 TIP3     434      TIP3     H2       HT       0.417000       1.00800           0   0.00000     -0.301140E-02
     26219 TIP3     435      TIP3     OH2      OT      -0.834000       15.9994           0   0.00000       0.00000    
     26220 TIP3     435      TIP3     H1       HT       0.417000       1.00800           0   0.00000       0.00000    
     26221 TIP3     435      TIP3     H2       HT       0.417000       1.00800           0   0.00000     -0.301140E-02
     26222 TIP3     436      TIP3     OH2      OT      -0.834000       15.9994           0   0.00000       0.00000    
     26223 TIP3     436      TIP3     H1       HT       0.417000       1.00800           0   0.00000       0.00000    
     26224 TIP3     436      TIP3     H2       HT       0.417000       1.00800           0   0.00000     -0.301140E-02
     26225 TIP3     437      TIP3     OH2      OT      -0.834000       15.9994           0   0.00000       0.00000    
     26226 TIP3     437      TIP3     H1       HT       0.417000       1.00800           0   0.00000       0.00000    
     26227 TIP3     437      TIP3     H2       HT       0.417000       1.00800           0   0.00000     -0.301140E-02
     26228 TIP3     438      TIP3     OH2      OT      -0.834000       15.9994           0   0.00000       0.00000    
     26229 TIP3     438      TIP3     H1       HT       0.417000       1.00800           0   0.00000       0.00000    
     26230 TIP3     438      TIP3     H2       HT       0.417000       1.00800           0   0.00000     -0.301140E-02
     26231 TIP3     439      TIP3     OH2      OT      -0.834000       15.9994           0   0.00000       0.00000    
     26232 TIP3     439      TIP3     H1       HT       0.417000       1.00800           0   0.00000       0.00000    
     26233 TIP3     439      TIP3     H2       HT       0.417000       1.00800           0   0.00000     -0.301140E-02
     26234 TIP3     440      TIP3     OH2      OT      -0.834000       15.9994           0   0.00000       0.00000    
     26235 TIP3     440      TIP3     H1       HT       0.417000       1.00800           0   0.00000       0.00000    
     26236 TIP3     440      TIP3     H2       HT       0.417000       1.00800           0   0.00000     -0.301140E-02
     26237 TIP3     441      TIP3     OH2      OT      -0.834000       15.9994           0   0.00000       0.00000    
     26238 TIP3     441      TIP3     H1       HT       0.417000       1.00800           0   0.00000       0.00000    
     26239 TIP3     441      TIP3     H2       HT       0.417000       1.00800           0   0.00000     -0.301140E-02
     26240 TIP3     442      TIP3     OH2      OT      -0.834000       15.9994           0   0.00000       0.00000    
     26241 TIP3     442      TIP3     H1       HT       0.417000       1.00800           0   0.00000       0.00000    
     26242 TIP3     442      TIP3     H2       HT       0.417000       1.00800           0   0.00000     -0.301140E-02
     26243 TIP3     443      TIP3     OH2      OT      -0.834000       15.9994           0   0.00000       0.00000    
     26244 TIP3     443      TIP3     H1       HT       0.417000       1.00800           0   0.00000       0.00000    
     26245 TIP3     443      TIP3     H2       HT       0.417000       1.00800           0   0.00000     -0.301140E-02
     26246 TIP3     444      TIP3     OH2      OT      -0.834000       15.9994           0   0.00000       0.00000    
     26247 TIP3     444      TIP3     H1       HT       0.417000       1.00800           0   0.00000       0.00000    
     26248 TIP3     444      TIP3     H2       HT       0.417000       1.00800           0   0.00000     -0.301140E-02
     26249 TIP3     445      TIP3     OH2      OT      -0.834000       15.9994           0   0.00000       0.00000    
     26250 TIP3     445      TIP3     H1       HT       0.417000       1.00800           0   0.00000       0.00000    
     26251 TIP3     445      TIP3     H2       HT       0.417000       1.00800           0   0.00000     -0.301140E-02
     26252 TIP3     446      TIP3     OH2      OT      -0.834000       15.9994           0   0.00000       0.00000    
     26253 TIP3     446      TIP3     H1       HT       0.417000       1.00800           0   0.00000       0.00000    
     26254 TIP3     446      TIP3     H2       HT       0.417000       1.00800           0   0.00000     -0.301140E-02
     26255 TIP3     447      TIP3     OH2      OT      -0.834000       15.9994           0   0.00000       0.00000    
     26256 TIP3     447      TIP3     H1       HT       0.417000       1.00800           0   0.00000       0.00000    
     26257 TIP3     447      TIP3     H2       HT       0.417000       1.00800           0   0.00000     -0.301140E-02
     26258 TIP3     448      TIP3     OH2      OT      -0.834000       15.9994           0   0.00000       0.00000    
     26259 TIP3     448      TIP3     H1       HT       0.417000       1.00800           0   0.00000       0.00000    
     26260 TIP3     448      TIP3     H2       HT       0.417000       1.00800           0   0.00000     -0.301140E-02
     26261 TIP3     449      TIP3     OH2      OT      -0.834000       15.9994           0   0.00000       0.00000    
     26262 TIP3     449      TIP3     H1       HT       0.417000       1.00800           0   0.00000       0.00000    
     26263 TIP3     449      TIP3     H2       HT       0.417000       1.00800           0   0.00000     -0.301140E-02
     26264 TIP3     450      TIP3     OH2      OT      -0.834000       15.9994           0   0.00000       0.00000    
     26265 TIP3     450      TIP3     H1       HT       0.417000       1.00800           0   0.00000       0.00000    
     26266 TIP3     450      TIP3     H2       HT       0.417000       1.00800           0   0.00000     -0.301140E-02
     26267 TIP3     451      TIP3     OH2      OT      -0.834000       15.9994           0   0.00000       0.00000    
     26268 TIP3     451      TIP3     H1       HT       0.417000       1.00800           0   0.00000       0.00000    
     26269 TIP3     451      TIP3     H2       HT       0.417000       1.00800           0   0.00000     -0.301140E-02
     26270 TIP3     452      TIP3     OH2      OT      -0.834000       15.9994           0   0.00000       0.00000    
     26271 TIP3     452      TIP3     H1       HT       0.417000       1.00800           0   0.00000       0.00000    
     26272 TIP3     452      TIP3     H2       HT       0.417000       1.00800           0   0.00000     -0.301140E-02
     26273 TIP3     453      TIP3     OH2      OT      -0.834000       15.9994           0   0.00000       0.00000    
     26274 TIP3     453      TIP3     H1       HT       0.417000       1.00800           0   0.00000       0.00000    
     26275 TIP3     453      TIP3     H2       HT       0.417000       1.00800           0   0.00000     -0.301140E-02
     26276 TIP3     454      TIP3     OH2      OT      -0.834000       15.9994           0   0.00000       0.00000    
     26277 TIP3     454      TIP3     H1       HT       0.417000       1.00800           0   0.00000       0.00000    
     26278 TIP3     454      TIP3     H2       HT       0.417000       1.00800           0   0.00000     -0.301140E-02
     26279 TIP3     455      TIP3     OH2      OT      -0.834000       15.9994           0   0.00000       0.00000    
     26280 TIP3     455      TIP3     H1       HT       0.417000       1.00800           0   0.00000       0.00000    
     26281 TIP3     455      TIP3     H2       HT       0.417000       1.00800           0   0.00000     -0.301140E-02
     26282 TIP3     456      TIP3     OH2      OT      -0.834000       15.9994           0   0.00000       0.00000    
     26283 TIP3     456      TIP3     H1       HT       0.417000       1.00800           0   0.00000       0.00000    
     26284 TIP3     456      TIP3     H2       HT       0.417000       1.00800           0   0.00000     -0.301140E-02
     26285 TIP3     457      TIP3     OH2      OT      -0.834000       15.9994           0   0.00000       0.00000    
     26286 TIP3     457      TIP3     H1       HT       0.417000       1.00800           0   0.00000       0.00000    
     26287 TIP3     457      TIP3     H2       HT       0.417000       1.00800           0   0.00000     -0.301140E-02
     26288 TIP3     458      TIP3     OH2      OT      -0.834000       15.9994           0   0.00000       0.00000    
     26289 TIP3     458      TIP3     H1       HT       0.417000       1.00800           0   0.00000       0.00000    
     26290 TIP3     458      TIP3     H2       HT       0.417000       1.00800           0   0.00000     -0.301140E-02
     26291 TIP3     459      TIP3     OH2      OT      -0.834000       15.9994           0   0.00000       0.00000    
     26292 TIP3     459      TIP3     H1       HT       0.417000       1.00800           0   0.00000       0.00000    
     26293 TIP3     459      TIP3     H2       HT       0.417000       1.00800           0   0.00000     -0.301140E-02
     26294 TIP3     460      TIP3     OH2      OT      -0.834000       15.9994           0   0.00000       0.00000    
     26295 TIP3     460      TIP3     H1       HT       0.417000       1.00800           0   0.00000       0.00000    
     26296 TIP3     460      TIP3     H2       HT       0.417000       1.00800           0   0.00000     -0.301140E-02
     26297 TIP3     461      TIP3     OH2      OT      -0.834000       15.9994           0   0.00000       0.00000    
     26298 TIP3     461      TIP3     H1       HT       0.417000       1.00800           0   0.00000       0.00000    
     26299 TIP3     461      TIP3     H2       HT       0.417000       1.00800           0   0.00000     -0.301140E-02
     26300 TIP3     462      TIP3     OH2      OT      -0.834000       15.9994           0   0.00000       0.00000    
     26301 TIP3     462      TIP3     H1       HT       0.417000       1.00800           0   0.00000       0.00000    
     26302 TIP3     462      TIP3     H2       HT       0.417000       1.00800           0   0.00000     -0.301140E-02
     26303 TIP3     463      TIP3     OH2      OT      -0.834000       15.9994           0   0.00000       0.00000    
     26304 TIP3     463      TIP3     H1       HT       0.417000       1.00800           0   0.00000       0.00000    
     26305 TIP3     463      TIP3     H2       HT       0.417000       1.00800           0   0.00000     -0.301140E-02
     26306 TIP3     464      TIP3     OH2      OT      -0.834000       15.9994           0   0.00000       0.00000    
     26307 TIP3     464      TIP3     H1       HT       0.417000       1.00800           0   0.00000       0.00000    
     26308 TIP3     464      TIP3     H2       HT       0.417000       1.00800           0   0.00000     -0.301140E-02
     26309 TIP3     465      TIP3     OH2      OT      -0.834000       15.9994           0   0.00000       0.00000    
     26310 TIP3     465      TIP3     H1       HT       0.417000       1.00800           0   0.00000       0.00000    
     26311 TIP3     465      TIP3     H2       HT       0.417000       1.00800           0   0.00000     -0.301140E-02
     26312 TIP3     466      TIP3     OH2      OT      -0.834000       15.9994           0   0.00000       0.00000    
     26313 TIP3     466      TIP3     H1       HT       0.417000       1.00800           0   0.00000       0.00000    
     26314 TIP3     466      TIP3     H2       HT       0.417000       1.00800           0   0.00000     -0.301140E-02
     26315 TIP3     467      TIP3     OH2      OT      -0.834000       15.9994           0   0.00000       0.00000    
     26316 TIP3     467      TIP3     H1       HT       0.417000       1.00800           0   0.00000       0.00000    
     26317 TIP3     467      TIP3     H2       HT       0.417000       1.00800           0   0.00000     -0.301140E-02
     26318 TIP3     468      TIP3     OH2      OT      -0.834000       15.9994           0   0.00000       0.00000    
     26319 TIP3     468      TIP3     H1       HT       0.417000       1.00800           0   0.00000       0.00000    
     26320 TIP3     468      TIP3     H2       HT       0.417000       1.00800           0   0.00000     -0.301140E-02
     26321 TIP3     469      TIP3     OH2      OT      -0.834000       15.9994           0   0.00000       0.00000    
     26322 TIP3     469      TIP3     H1       HT       0.417000       1.00800           0   0.00000       0.00000    
     26323 TIP3     469      TIP3     H2       HT       0.417000       1.00800           0   0.00000     -0.301140E-02
     26324 TIP3     470      TIP3     OH2      OT      -0.834000       15.9994           0   0.00000       0.00000    
     26325 TIP3     470      TIP3     H1       HT       0.417000       1.00800           0   0.00000       0.00000    
     26326 TIP3     470      TIP3     H2       HT       0.417000       1.00800           0   0.00000     -0.301140E-02
     26327 TIP3     471      TIP3     OH2      OT      -0.834000       15.9994           0   0.00000       0.00000    
     26328 TIP3     471      TIP3     H1       HT       0.417000       1.00800           0   0.00000       0.00000    
     26329 TIP3     471      TIP3     H2       HT       0.417000       1.00800           0   0.00000     -0.301140E-02
     26330 TIP3     472      TIP3     OH2      OT      -0.834000       15.9994           0   0.00000       0.00000    
     26331 TIP3     472      TIP3     H1       HT       0.417000       1.00800           0   0.00000       0.00000    
     26332 TIP3     472      TIP3     H2       HT       0.417000       1.00800           0   0.00000     -0.301140E-02
     26333 TIP3     473      TIP3     OH2      OT      -0.834000       15.9994           0   0.00000       0.00000    
     26334 TIP3     473      TIP3     H1       HT       0.417000       1.00800           0   0.00000       0.00000    
     26335 TIP3     473      TIP3     H2       HT       0.417000       1.00800           0   0.00000     -0.301140E-02
     26336 TIP3     474      TIP3     OH2      OT      -0.834000       15.9994           0   0.00000       0.00000    
     26337 TIP3     474      TIP3     H1       HT       0.417000       1.00800           0   0.00000       0.00000    
     26338 TIP3     474      TIP3     H2       HT       0.417000       1.00800           0   0.00000     -0.301140E-02
     26339 TIP3     475      TIP3     OH2      OT      -0.834000       15.9994           0   0.00000       0.00000    
     26340 TIP3     475      TIP3     H1       HT       0.417000       1.00800           0   0.00000       0.00000    
     26341 TIP3     475      TIP3     H2       HT       0.417000       1.00800           0   0.00000     -0.301140E-02
     26342 TIP3     476      TIP3     OH2      OT      -0.834000       15.9994           0   0.00000       0.00000    
     26343 TIP3     476      TIP3     H1       HT       0.417000       1.00800           0   0.00000       0.00000    
     26344 TIP3     476      TIP3     H2       HT       0.417000       1.00800           0   0.00000     -0.301140E-02
     26345 TIP3     477      TIP3     OH2      OT      -0.834000       15.9994           0   0.00000       0.00000    
     26346 TIP3     477      TIP3     H1       HT       0.417000       1.00800           0   0.00000       0.00000    
     26347 TIP3     477      TIP3     H2       HT       0.417000       1.00800           0   0.00000     -0.301140E-02
     26348 TIP3     478      TIP3     OH2      OT      -0.834000       15.9994           0   0.00000       0.00000    
     26349 TIP3     478      TIP3     H1       HT       0.417000       1.00800           0   0.00000       0.00000    
     26350 TIP3     478      TIP3     H2       HT       0.417000       1.00800           0   0.00000     -0.301140E-02
     26351 TIP3     479      TIP3     OH2      OT      -0.834000       15.9994           0   0.00000       0.00000    
     26352 TIP3     479      TIP3     H1       HT       0.417000       1.00800           0   0.00000       0.00000    
     26353 TIP3     479      TIP3     H2       HT       0.417000       1.00800           0   0.00000     -0.301140E-02
     26354 TIP3     480      TIP3     OH2      OT      -0.834000       15.9994           0   0.00000       0.00000    
     26355 TIP3     480      TIP3     H1       HT       0.417000       1.00800           0   0.00000       0.00000    
     26356 TIP3     480      TIP3     H2       HT       0.417000       1.00800           0   0.00000     -0.301140E-02
     26357 TIP3     481      TIP3     OH2      OT      -0.834000       15.9994           0   0.00000       0.00000    
     26358 TIP3     481      TIP3     H1       HT       0.417000       1.00800           0   0.00000       0.00000    
     26359 TIP3     481      TIP3     H2       HT       0.417000       1.00800           0   0.00000     -0.301140E-02
     26360 TIP3     482      TIP3     OH2      OT      -0.834000       15.9994           0   0.00000       0.00000    
     26361 TIP3     482      TIP3     H1       HT       0.417000       1.00800           0   0.00000       0.00000    
     26362 TIP3     482      TIP3     H2       HT       0.417000       1.00800           0   0.00000     -0.301140E-02
     26363 TIP3     483      TIP3     OH2      OT      -0.834000       15.9994           0   0.00000       0.00000    
     26364 TIP3     483      TIP3     H1       HT       0.417000       1.00800           0   0.00000       0.00000    
     26365 TIP3     483      TIP3     H2       HT       0.417000       1.00800           0   0.00000     -0.301140E-02
     26366 TIP3     484      TIP3     OH2      OT      -0.834000       15.9994           0   0.00000       0.00000    
     26367 TIP3     484      TIP3     H1       HT       0.417000       1.00800           0   0.00000       0.00000    
     26368 TIP3     484      TIP3     H2       HT       0.417000       1.00800           0   0.00000     -0.301140E-02
     26369 TIP3     485      TIP3     OH2      OT      -0.834000       15.9994           0   0.00000       0.00000    
     26370 TIP3     485      TIP3     H1       HT       0.417000       1.00800           0   0.00000       0.00000    
     26371 TIP3     485      TIP3     H2       HT       0.417000       1.00800           0   0.00000     -0.301140E-02
     26372 TIP3     486      TIP3     OH2      OT      -0.834000       15.9994           0   0.00000       0.00000    
     26373 TIP3     486      TIP3     H1       HT       0.417000       1.00800           0   0.00000       0.00000    
     26374 TIP3     486      TIP3     H2       HT       0.417000       1.00800           0   0.00000     -0.301140E-02
     26375 TIP3     487      TIP3     OH2      OT      -0.834000       15.9994           0   0.00000       0.00000    
     26376 TIP3     487      TIP3     H1       HT       0.417000       1.00800           0   0.00000       0.00000    
     26377 TIP3     487      TIP3     H2       HT       0.417000       1.00800           0   0.00000     -0.301140E-02
     26378 TIP3     488      TIP3     OH2      OT      -0.834000       15.9994           0   0.00000       0.00000    
     26379 TIP3     488      TIP3     H1       HT       0.417000       1.00800           0   0.00000       0.00000    
     26380 TIP3     488      TIP3     H2       HT       0.417000       1.00800           0   0.00000     -0.301140E-02
     26381 TIP3     489      TIP3     OH2      OT      -0.834000       15.9994           0   0.00000       0.00000    
     26382 TIP3     489      TIP3     H1       HT       0.417000       1.00800           0   0.00000       0.00000    
     26383 TIP3     489      TIP3     H2       HT       0.417000       1.00800           0   0.00000     -0.301140E-02
     26384 TIP3     490      TIP3     OH2      OT      -0.834000       15.9994           0   0.00000       0.00000    
     26385 TIP3     490      TIP3     H1       HT       0.417000       1.00800           0   0.00000       0.00000    
     26386 TIP3     490      TIP3     H2       HT       0.417000       1.00800           0   0.00000     -0.301140E-02
     26387 TIP3     491      TIP3     OH2      OT      -0.834000       15.9994           0   0.00000       0.00000    
     26388 TIP3     491      TIP3     H1       HT       0.417000       1.00800           0   0.00000       0.00000    
     26389 TIP3     491      TIP3     H2       HT       0.417000       1.00800           0   0.00000     -0.301140E-02
     26390 TIP3     492      TIP3     OH2      OT      -0.834000       15.9994           0   0.00000       0.00000    
     26391 TIP3     492      TIP3     H1       HT       0.417000       1.00800           0   0.00000       0.00000    
     26392 TIP3     492      TIP3     H2       HT       0.417000       1.00800           0   0.00000     -0.301140E-02
     26393 TIP3     493      TIP3     OH2      OT      -0.834000       15.9994           0   0.00000       0.00000    
     26394 TIP3     493      TIP3     H1       HT       0.417000       1.00800           0   0.00000       0.00000    
     26395 TIP3     493      TIP3     H2       HT       0.417000       1.00800           0   0.00000     -0.301140E-02
     26396 TIP3     494      TIP3     OH2      OT      -0.834000       15.9994           0   0.00000       0.00000    
     26397 TIP3     494      TIP3     H1       HT       0.417000       1.00800           0   0.00000       0.00000    
     26398 TIP3     494      TIP3     H2       HT       0.417000       1.00800           0   0.00000     -0.301140E-02
     26399 TIP3     495      TIP3     OH2      OT      -0.834000       15.9994           0   0.00000       0.00000    
     26400 TIP3     495      TIP3     H1       HT       0.417000       1.00800           0   0.00000       0.00000    
     26401 TIP3     495      TIP3     H2       HT       0.417000       1.00800           0   0.00000     -0.301140E-02
     26402 TIP3     496      TIP3     OH2      OT      -0.834000       15.9994           0   0.00000       0.00000    
     26403 TIP3     496      TIP3     H1       HT       0.417000       1.00800           0   0.00000       0.00000    
     26404 TIP3     496      TIP3     H2       HT       0.417000       1.00800           0   0.00000     -0.301140E-02
     26405 TIP3     497      TIP3     OH2      OT      -0.834000       15.9994           0   0.00000       0.00000    
     26406 TIP3     497      TIP3     H1       HT       0.417000       1.00800           0   0.00000       0.00000    
     26407 TIP3     497      TIP3     H2       HT       0.417000       1.00800           0   0.00000     -0.301140E-02
     26408 TIP3     498      TIP3     OH2      OT      -0.834000       15.9994           0   0.00000       0.00000    
     26409 TIP3     498      TIP3     H1       HT       0.417000       1.00800           0   0.00000       0.00000    
     26410 TIP3     498      TIP3     H2       HT       0.417000       1.00800           0   0.00000     -0.301140E-02
     26411 TIP3     499      TIP3     OH2      OT      -0.834000       15.9994           0   0.00000       0.00000    
     26412 TIP3     499      TIP3     H1       HT       0.417000       1.00800           0   0.00000       0.00000    
     26413 TIP3     499      TIP3     H2       HT       0.417000       1.00800           0   0.00000     -0.301140E-02
     26414 TIP3     500      TIP3     OH2      OT      -0.834000       15.9994           0   0.00000       0.00000    
     26415 TIP3     500      TIP3     H1       HT       0.417000       1.00800           0   0.00000       0.00000    
     26416 TIP3     500      TIP3     H2       HT       0.417000       1.00800           0   0.00000     -0.301140E-02
     26417 TIP3     501      TIP3     OH2      OT      -0.834000       15.9994           0   0.00000       0.00000    
     26418 TIP3     501      TIP3     H1       HT       0.417000       1.00800           0   0.00000       0.00000    
     26419 TIP3     501      TIP3     H2       HT       0.417000       1.00800           0   0.00000     -0.301140E-02
     26420 TIP3     502      TIP3     OH2      OT      -0.834000       15.9994           0   0.00000       0.00000    
     26421 TIP3     502      TIP3     H1       HT       0.417000       1.00800           0   0.00000       0.00000    
     26422 TIP3     502      TIP3     H2       HT       0.417000       1.00800           0   0.00000     -0.301140E-02
     26423 TIP3     503      TIP3     OH2      OT      -0.834000       15.9994           0   0.00000       0.00000    
     26424 TIP3     503      TIP3     H1       HT       0.417000       1.00800           0   0.00000       0.00000    
     26425 TIP3     503      TIP3     H2       HT       0.417000       1.00800           0   0.00000     -0.301140E-02
     26426 TIP3     504      TIP3     OH2      OT      -0.834000       15.9994           0   0.00000       0.00000    
     26427 TIP3     504      TIP3     H1       HT       0.417000       1.00800           0   0.00000       0.00000    
     26428 TIP3     504      TIP3     H2       HT       0.417000       1.00800           0   0.00000     -0.301140E-02
     26429 TIP3     505      TIP3     OH2      OT      -0.834000       15.9994           0   0.00000       0.00000    
     26430 TIP3     505      TIP3     H1       HT       0.417000       1.00800           0   0.00000       0.00000    
     26431 TIP3     505      TIP3     H2       HT       0.417000       1.00800           0   0.00000     -0.301140E-02
     26432 TIP3     506      TIP3     OH2      OT      -0.834000       15.9994           0   0.00000       0.00000    
     26433 TIP3     506      TIP3     H1       HT       0.417000       1.00800           0   0.00000       0.00000    
     26434 TIP3     506      TIP3     H2       HT       0.417000       1.00800           0   0.00000     -0.301140E-02
     26435 TIP3     507      TIP3     OH2      OT      -0.834000       15.9994           0   0.00000       0.00000    
     26436 TIP3     507      TIP3     H1       HT       0.417000       1.00800           0   0.00000       0.00000    
     26437 TIP3     507      TIP3     H2       HT       0.417000       1.00800           0   0.00000     -0.301140E-02
     26438 TIP3     508      TIP3     OH2      OT      -0.834000       15.9994           0   0.00000       0.00000    
     26439 TIP3     508      TIP3     H1       HT       0.417000       1.00800           0   0.00000       0.00000    
     26440 TIP3     508      TIP3     H2       HT       0.417000       1.00800           0   0.00000     -0.301140E-02
     26441 TIP3     509      TIP3     OH2      OT      -0.834000       15.9994           0   0.00000       0.00000    
     26442 TIP3     509      TIP3     H1       HT       0.417000       1.00800           0   0.00000       0.00000    
     26443 TIP3     509      TIP3     H2       HT       0.417000       1.00800           0   0.00000     -0.301140E-02
     26444 TIP3     510      TIP3     OH2      OT      -0.834000       15.9994           0   0.00000       0.00000    
     26445 TIP3     510      TIP3     H1       HT       0.417000       1.00800           0   0.00000       0.00000    
     26446 TIP3     510      TIP3     H2       HT       0.417000       1.00800           0   0.00000     -0.301140E-02
     26447 TIP3     511      TIP3     OH2      OT      -0.834000       15.9994           0   0.00000       0.00000    
     26448 TIP3     511      TIP3     H1       HT       0.417000       1.00800           0   0.00000       0.00000    
     26449 TIP3     511      TIP3     H2       HT       0.417000       1.00800           0   0.00000     -0.301140E-02
     26450 TIP3     512      TIP3     OH2      OT      -0.834000       15.9994           0   0.00000       0.00000    
     26451 TIP3     512      TIP3     H1       HT       0.417000       1.00800           0   0.00000       0.00000    
     26452 TIP3     512      TIP3     H2       HT       0.417000       1.00800           0   0.00000     -0.301140E-02
     26453 TIP3     513      TIP3     OH2      OT      -0.834000       15.9994           0   0.00000       0.00000    
     26454 TIP3     513      TIP3     H1       HT       0.417000       1.00800           0   0.00000       0.00000    
     26455 TIP3     513      TIP3     H2       HT       0.417000       1.00800           0   0.00000     -0.301140E-02
     26456 TIP3     514      TIP3     OH2      OT      -0.834000       15.9994           0   0.00000       0.00000    
     26457 TIP3     514      TIP3     H1       HT       0.417000       1.00800           0   0.00000       0.00000    
     26458 TIP3     514      TIP3     H2       HT       0.417000       1.00800           0   0.00000     -0.301140E-02
     26459 TIP3     515      TIP3     OH2      OT      -0.834000       15.9994           0   0.00000       0.00000    
     26460 TIP3     515      TIP3     H1       HT       0.417000       1.00800           0   0.00000       0.00000    
     26461 TIP3     515      TIP3     H2       HT       0.417000       1.00800           0   0.00000     -0.301140E-02
     26462 TIP3     516      TIP3     OH2      OT      -0.834000       15.9994           0   0.00000       0.00000    
     26463 TIP3     516      TIP3     H1       HT       0.417000       1.00800           0   0.00000       0.00000    
     26464 TIP3     516      TIP3     H2       HT       0.417000       1.00800           0   0.00000     -0.301140E-02
     26465 TIP3     517      TIP3     OH2      OT      -0.834000       15.9994           0   0.00000       0.00000    
     26466 TIP3     517      TIP3     H1       HT       0.417000       1.00800           0   0.00000       0.00000    
     26467 TIP3     517      TIP3     H2       HT       0.417000       1.00800           0   0.00000     -0.301140E-02
     26468 TIP3     518      TIP3     OH2      OT      -0.834000       15.9994           0   0.00000       0.00000    
     26469 TIP3     518      TIP3     H1       HT       0.417000       1.00800           0   0.00000       0.00000    
     26470 TIP3     518      TIP3     H2       HT       0.417000       1.00800           0   0.00000     -0.301140E-02
     26471 TIP3     519      TIP3     OH2      OT      -0.834000       15.9994           0   0.00000       0.00000    
     26472 TIP3     519      TIP3     H1       HT       0.417000       1.00800           0   0.00000       0.00000    
     26473 TIP3     519      TIP3     H2       HT       0.417000       1.00800           0   0.00000     -0.301140E-02
     26474 TIP3     520      TIP3     OH2      OT      -0.834000       15.9994           0   0.00000       0.00000    
     26475 TIP3     520      TIP3     H1       HT       0.417000       1.00800           0   0.00000       0.00000    
     26476 TIP3     520      TIP3     H2       HT       0.417000       1.00800           0   0.00000     -0.301140E-02
     26477 TIP3     521      TIP3     OH2      OT      -0.834000       15.9994           0   0.00000       0.00000    
     26478 TIP3     521      TIP3     H1       HT       0.417000       1.00800           0   0.00000       0.00000    
     26479 TIP3     521      TIP3     H2       HT       0.417000       1.00800           0   0.00000     -0.301140E-02
     26480 TIP3     522      TIP3     OH2      OT      -0.834000       15.9994           0   0.00000       0.00000    
     26481 TIP3     522      TIP3     H1       HT       0.417000       1.00800           0   0.00000       0.00000    
     26482 TIP3     522      TIP3     H2       HT       0.417000       1.00800           0   0.00000     -0.301140E-02
     26483 TIP3     523      TIP3     OH2      OT      -0.834000       15.9994           0   0.00000       0.00000    
     26484 TIP3     523      TIP3     H1       HT       0.417000       1.00800           0   0.00000       0.00000    
     26485 TIP3     523      TIP3     H2       HT       0.417000       1.00800           0   0.00000     -0.301140E-02
     26486 TIP3     524      TIP3     OH2      OT      -0.834000       15.9994           0   0.00000       0.00000    
     26487 TIP3     524      TIP3     H1       HT       0.417000       1.00800           0   0.00000       0.00000    
     26488 TIP3     524      TIP3     H2       HT       0.417000       1.00800           0   0.00000     -0.301140E-02
     26489 TIP3     525      TIP3     OH2      OT      -0.834000       15.9994           0   0.00000       0.00000    
     26490 TIP3     525      TIP3     H1       HT       0.417000       1.00800           0   0.00000       0.00000    
     26491 TIP3     525      TIP3     H2       HT       0.417000       1.00800           0   0.00000     -0.301140E-02
     26492 TIP3     526      TIP3     OH2      OT      -0.834000       15.9994           0   0.00000       0.00000    
     26493 TIP3     526      TIP3     H1       HT       0.417000       1.00800           0   0.00000       0.00000    
     26494 TIP3     526      TIP3     H2       HT       0.417000       1.00800           0   0.00000     -0.301140E-02
     26495 TIP3     527      TIP3     OH2      OT      -0.834000       15.9994           0   0.00000       0.00000    
     26496 TIP3     527      TIP3     H1       HT       0.417000       1.00800           0   0.00000       0.00000    
     26497 TIP3     527      TIP3     H2       HT       0.417000       1.00800           0   0.00000     -0.301140E-02
     26498 TIP3     528      TIP3     OH2      OT      -0.834000       15.9994           0   0.00000       0.00000    
     26499 TIP3     528      TIP3     H1       HT       0.417000       1.00800           0   0.00000       0.00000    
     26500 TIP3     528      TIP3     H2       HT       0.417000       1.00800           0   0.00000     -0.301140E-02
     26501 TIP3     529      TIP3     OH2      OT      -0.834000       15.9994           0   0.00000       0.00000    
     26502 TIP3     529      TIP3     H1       HT       0.417000       1.00800           0   0.00000       0.00000    
     26503 TIP3     529      TIP3     H2       HT       0.417000       1.00800           0   0.00000     -0.301140E-02
     26504 TIP3     530      TIP3     OH2      OT      -0.834000       15.9994           0   0.00000       0.00000    
     26505 TIP3     530      TIP3     H1       HT       0.417000       1.00800           0   0.00000       0.00000    
     26506 TIP3     530      TIP3     H2       HT       0.417000       1.00800           0   0.00000     -0.301140E-02
     26507 TIP3     531      TIP3     OH2      OT      -0.834000       15.9994           0   0.00000       0.00000    
     26508 TIP3     531      TIP3     H1       HT       0.417000       1.00800           0   0.00000       0.00000    
     26509 TIP3     531      TIP3     H2       HT       0.417000       1.00800           0   0.00000     -0.301140E-02
     26510 TIP3     532      TIP3     OH2      OT      -0.834000       15.9994           0   0.00000       0.00000    
     26511 TIP3     532      TIP3     H1       HT       0.417000       1.00800           0   0.00000       0.00000    
     26512 TIP3     532      TIP3     H2       HT       0.417000       1.00800           0   0.00000     -0.301140E-02
     26513 TIP3     533      TIP3     OH2      OT      -0.834000       15.9994           0   0.00000       0.00000    
     26514 TIP3     533      TIP3     H1       HT       0.417000       1.00800           0   0.00000       0.00000    
     26515 TIP3     533      TIP3     H2       HT       0.417000       1.00800           0   0.00000     -0.301140E-02
     26516 TIP3     534      TIP3     OH2      OT      -0.834000       15.9994           0   0.00000       0.00000    
     26517 TIP3     534      TIP3     H1       HT       0.417000       1.00800           0   0.00000       0.00000    
     26518 TIP3     534      TIP3     H2       HT       0.417000       1.00800           0   0.00000     -0.301140E-02
     26519 TIP3     535      TIP3     OH2      OT      -0.834000       15.9994           0   0.00000       0.00000    
     26520 TIP3     535      TIP3     H1       HT       0.417000       1.00800           0   0.00000       0.00000    
     26521 TIP3     535      TIP3     H2       HT       0.417000       1.00800           0   0.00000     -0.301140E-02
     26522 TIP3     536      TIP3     OH2      OT      -0.834000       15.9994           0   0.00000       0.00000    
     26523 TIP3     536      TIP3     H1       HT       0.417000       1.00800           0   0.00000       0.00000    
     26524 TIP3     536      TIP3     H2       HT       0.417000       1.00800           0   0.00000     -0.301140E-02
     26525 TIP3     537      TIP3     OH2      OT      -0.834000       15.9994           0   0.00000       0.00000    
     26526 TIP3     537      TIP3     H1       HT       0.417000       1.00800           0   0.00000       0.00000    
     26527 TIP3     537      TIP3     H2       HT       0.417000       1.00800           0   0.00000     -0.301140E-02
     26528 TIP3     538      TIP3     OH2      OT      -0.834000       15.9994           0   0.00000       0.00000    
     26529 TIP3     538      TIP3     H1       HT       0.417000       1.00800           0   0.00000       0.00000    
     26530 TIP3     538      TIP3     H2       HT       0.417000       1.00800           0   0.00000     -0.301140E-02
     26531 TIP3     539      TIP3     OH2      OT      -0.834000       15.9994           0   0.00000       0.00000    
     26532 TIP3     539      TIP3     H1       HT       0.417000       1.00800           0   0.00000       0.00000    
     26533 TIP3     539      TIP3     H2       HT       0.417000       1.00800           0   0.00000     -0.301140E-02
     26534 TIP3     540      TIP3     OH2      OT      -0.834000       15.9994           0   0.00000       0.00000    
     26535 TIP3     540      TIP3     H1       HT       0.417000       1.00800           0   0.00000       0.00000    
     26536 TIP3     540      TIP3     H2       HT       0.417000       1.00800           0   0.00000     -0.301140E-02
     26537 TIP3     541      TIP3     OH2      OT      -0.834000       15.9994           0   0.00000       0.00000    
     26538 TIP3     541      TIP3     H1       HT       0.417000       1.00800           0   0.00000       0.00000    
     26539 TIP3     541      TIP3     H2       HT       0.417000       1.00800           0   0.00000     -0.301140E-02
     26540 TIP3     542      TIP3     OH2      OT      -0.834000       15.9994           0   0.00000       0.00000    
     26541 TIP3     542      TIP3     H1       HT       0.417000       1.00800           0   0.00000       0.00000    
     26542 TIP3     542      TIP3     H2       HT       0.417000       1.00800           0   0.00000     -0.301140E-02
     26543 TIP3     543      TIP3     OH2      OT      -0.834000       15.9994           0   0.00000       0.00000    
     26544 TIP3     543      TIP3     H1       HT       0.417000       1.00800           0   0.00000       0.00000    
     26545 TIP3     543      TIP3     H2       HT       0.417000       1.00800           0   0.00000     -0.301140E-02
     26546 TIP3     544      TIP3     OH2      OT      -0.834000       15.9994           0   0.00000       0.00000    
     26547 TIP3     544      TIP3     H1       HT       0.417000       1.00800           0   0.00000       0.00000    
     26548 TIP3     544      TIP3     H2       HT       0.417000       1.00800           0   0.00000     -0.301140E-02
     26549 TIP3     545      TIP3     OH2      OT      -0.834000       15.9994           0   0.00000       0.00000    
     26550 TIP3     545      TIP3     H1       HT       0.417000       1.00800           0   0.00000       0.00000    
     26551 TIP3     545      TIP3     H2       HT       0.417000       1.00800           0   0.00000     -0.301140E-02
     26552 TIP3     546      TIP3     OH2      OT      -0.834000       15.9994           0   0.00000       0.00000    
     26553 TIP3     546      TIP3     H1       HT       0.417000       1.00800           0   0.00000       0.00000    
     26554 TIP3     546      TIP3     H2       HT       0.417000       1.00800           0   0.00000     -0.301140E-02
     26555 TIP3     547      TIP3     OH2      OT      -0.834000       15.9994           0   0.00000       0.00000    
     26556 TIP3     547      TIP3     H1       HT       0.417000       1.00800           0   0.00000       0.00000    
     26557 TIP3     547      TIP3     H2       HT       0.417000       1.00800           0   0.00000     -0.301140E-02
     26558 TIP3     548      TIP3     OH2      OT      -0.834000       15.9994           0   0.00000       0.00000    
     26559 TIP3     548      TIP3     H1       HT       0.417000       1.00800           0   0.00000       0.00000    
     26560 TIP3     548      TIP3     H2       HT       0.417000       1.00800           0   0.00000     -0.301140E-02
     26561 TIP3     549      TIP3     OH2      OT      -0.834000       15.9994           0   0.00000       0.00000    
     26562 TIP3     549      TIP3     H1       HT       0.417000       1.00800           0   0.00000       0.00000    
     26563 TIP3     549      TIP3     H2       HT       0.417000       1.00800           0   0.00000     -0.301140E-02
     26564 TIP3     550      TIP3     OH2      OT      -0.834000       15.9994           0   0.00000       0.00000    
     26565 TIP3     550      TIP3     H1       HT       0.417000       1.00800           0   0.00000       0.00000    
     26566 TIP3     550      TIP3     H2       HT       0.417000       1.00800           0   0.00000     -0.301140E-02
     26567 TIP3     551      TIP3     OH2      OT      -0.834000       15.9994           0   0.00000       0.00000    
     26568 TIP3     551      TIP3     H1       HT       0.417000       1.00800           0   0.00000       0.00000    
     26569 TIP3     551      TIP3     H2       HT       0.417000       1.00800           0   0.00000     -0.301140E-02
     26570 TIP3     552      TIP3     OH2      OT      -0.834000       15.9994           0   0.00000       0.00000    
     26571 TIP3     552      TIP3     H1       HT       0.417000       1.00800           0   0.00000       0.00000    
     26572 TIP3     552      TIP3     H2       HT       0.417000       1.00800           0   0.00000     -0.301140E-02
     26573 TIP3     553      TIP3     OH2      OT      -0.834000       15.9994           0   0.00000       0.00000    
     26574 TIP3     553      TIP3     H1       HT       0.417000       1.00800           0   0.00000       0.00000    
     26575 TIP3     553      TIP3     H2       HT       0.417000       1.00800           0   0.00000     -0.301140E-02
     26576 TIP3     554      TIP3     OH2      OT      -0.834000       15.9994           0   0.00000       0.00000    
     26577 TIP3     554      TIP3     H1       HT       0.417000       1.00800           0   0.00000       0.00000    
     26578 TIP3     554      TIP3     H2       HT       0.417000       1.00800           0   0.00000     -0.301140E-02
     26579 TIP3     555      TIP3     OH2      OT      -0.834000       15.9994           0   0.00000       0.00000    
     26580 TIP3     555      TIP3     H1       HT       0.417000       1.00800           0   0.00000       0.00000    
     26581 TIP3     555      TIP3     H2       HT       0.417000       1.00800           0   0.00000     -0.301140E-02
     26582 TIP3     556      TIP3     OH2      OT      -0.834000       15.9994           0   0.00000       0.00000    
     26583 TIP3     556      TIP3     H1       HT       0.417000       1.00800           0   0.00000       0.00000    
     26584 TIP3     556      TIP3     H2       HT       0.417000       1.00800           0   0.00000     -0.301140E-02
     26585 TIP3     557      TIP3     OH2      OT      -0.834000       15.9994           0   0.00000       0.00000    
     26586 TIP3     557      TIP3     H1       HT       0.417000       1.00800           0   0.00000       0.00000    
     26587 TIP3     557      TIP3     H2       HT       0.417000       1.00800           0   0.00000     -0.301140E-02
     26588 TIP3     558      TIP3     OH2      OT      -0.834000       15.9994           0   0.00000       0.00000    
     26589 TIP3     558      TIP3     H1       HT       0.417000       1.00800           0   0.00000       0.00000    
     26590 TIP3     558      TIP3     H2       HT       0.417000       1.00800           0   0.00000     -0.301140E-02
     26591 TIP3     559      TIP3     OH2      OT      -0.834000       15.9994           0   0.00000       0.00000    
     26592 TIP3     559      TIP3     H1       HT       0.417000       1.00800           0   0.00000       0.00000    
     26593 TIP3     559      TIP3     H2       HT       0.417000       1.00800           0   0.00000     -0.301140E-02
     26594 TIP3     560      TIP3     OH2      OT      -0.834000       15.9994           0   0.00000       0.00000    
     26595 TIP3     560      TIP3     H1       HT       0.417000       1.00800           0   0.00000       0.00000    
     26596 TIP3     560      TIP3     H2       HT       0.417000       1.00800           0   0.00000     -0.301140E-02
     26597 TIP3     561      TIP3     OH2      OT      -0.834000       15.9994           0   0.00000       0.00000    
     26598 TIP3     561      TIP3     H1       HT       0.417000       1.00800           0   0.00000       0.00000    
     26599 TIP3     561      TIP3     H2       HT       0.417000       1.00800           0   0.00000     -0.301140E-02
     26600 TIP3     562      TIP3     OH2      OT      -0.834000       15.9994           0   0.00000       0.00000    
     26601 TIP3     562      TIP3     H1       HT       0.417000       1.00800           0   0.00000       0.00000    
     26602 TIP3     562      TIP3     H2       HT       0.417000       1.00800           0   0.00000     -0.301140E-02
     26603 TIP3     563      TIP3     OH2      OT      -0.834000       15.9994           0   0.00000       0.00000    
     26604 TIP3     563      TIP3     H1       HT       0.417000       1.00800           0   0.00000       0.00000    
     26605 TIP3     563      TIP3     H2       HT       0.417000       1.00800           0   0.00000     -0.301140E-02
     26606 TIP3     564      TIP3     OH2      OT      -0.834000       15.9994           0   0.00000       0.00000    
     26607 TIP3     564      TIP3     H1       HT       0.417000       1.00800           0   0.00000       0.00000    
     26608 TIP3     564      TIP3     H2       HT       0.417000       1.00800           0   0.00000     -0.301140E-02
     26609 TIP3     565      TIP3     OH2      OT      -0.834000       15.9994           0   0.00000       0.00000    
     26610 TIP3     565      TIP3     H1       HT       0.417000       1.00800           0   0.00000       0.00000    
     26611 TIP3     565      TIP3     H2       HT       0.417000       1.00800           0   0.00000     -0.301140E-02
     26612 TIP3     566      TIP3     OH2      OT      -0.834000       15.9994           0   0.00000       0.00000    
     26613 TIP3     566      TIP3     H1       HT       0.417000       1.00800           0   0.00000       0.00000    
     26614 TIP3     566      TIP3     H2       HT       0.417000       1.00800           0   0.00000     -0.301140E-02
     26615 TIP3     567      TIP3     OH2      OT      -0.834000       15.9994           0   0.00000       0.00000    
     26616 TIP3     567      TIP3     H1       HT       0.417000       1.00800           0   0.00000       0.00000    
     26617 TIP3     567      TIP3     H2       HT       0.417000       1.00800           0   0.00000     -0.301140E-02
     26618 TIP3     568      TIP3     OH2      OT      -0.834000       15.9994           0   0.00000       0.00000    
     26619 TIP3     568      TIP3     H1       HT       0.417000       1.00800           0   0.00000       0.00000    
     26620 TIP3     568      TIP3     H2       HT       0.417000       1.00800           0   0.00000     -0.301140E-02
     26621 TIP3     569      TIP3     OH2      OT      -0.834000       15.9994           0   0.00000       0.00000    
     26622 TIP3     569      TIP3     H1       HT       0.417000       1.00800           0   0.00000       0.00000    
     26623 TIP3     569      TIP3     H2       HT       0.417000       1.00800           0   0.00000     -0.301140E-02
     26624 TIP3     570      TIP3     OH2      OT      -0.834000       15.9994           0   0.00000       0.00000    
     26625 TIP3     570      TIP3     H1       HT       0.417000       1.00800           0   0.00000       0.00000    
     26626 TIP3     570      TIP3     H2       HT       0.417000       1.00800           0   0.00000     -0.301140E-02
     26627 TIP3     571      TIP3     OH2      OT      -0.834000       15.9994           0   0.00000       0.00000    
     26628 TIP3     571      TIP3     H1       HT       0.417000       1.00800           0   0.00000       0.00000    
     26629 TIP3     571      TIP3     H2       HT       0.417000       1.00800           0   0.00000     -0.301140E-02
     26630 TIP3     572      TIP3     OH2      OT      -0.834000       15.9994           0   0.00000       0.00000    
     26631 TIP3     572      TIP3     H1       HT       0.417000       1.00800           0   0.00000       0.00000    
     26632 TIP3     572      TIP3     H2       HT       0.417000       1.00800           0   0.00000     -0.301140E-02
     26633 TIP3     573      TIP3     OH2      OT      -0.834000       15.9994           0   0.00000       0.00000    
     26634 TIP3     573      TIP3     H1       HT       0.417000       1.00800           0   0.00000       0.00000    
     26635 TIP3     573      TIP3     H2       HT       0.417000       1.00800           0   0.00000     -0.301140E-02
     26636 TIP3     574      TIP3     OH2      OT      -0.834000       15.9994           0   0.00000       0.00000    
     26637 TIP3     574      TIP3     H1       HT       0.417000       1.00800           0   0.00000       0.00000    
     26638 TIP3     574      TIP3     H2       HT       0.417000       1.00800           0   0.00000     -0.301140E-02
     26639 TIP3     575      TIP3     OH2      OT      -0.834000       15.9994           0   0.00000       0.00000    
     26640 TIP3     575      TIP3     H1       HT       0.417000       1.00800           0   0.00000       0.00000    
     26641 TIP3     575      TIP3     H2       HT       0.417000       1.00800           0   0.00000     -0.301140E-02
     26642 TIP3     576      TIP3     OH2      OT      -0.834000       15.9994           0   0.00000       0.00000    
     26643 TIP3     576      TIP3     H1       HT       0.417000       1.00800           0   0.00000       0.00000    
     26644 TIP3     576      TIP3     H2       HT       0.417000       1.00800           0   0.00000     -0.301140E-02
     26645 TIP3     577      TIP3     OH2      OT      -0.834000       15.9994           0   0.00000       0.00000    
     26646 TIP3     577      TIP3     H1       HT       0.417000       1.00800           0   0.00000       0.00000    
     26647 TIP3     577      TIP3     H2       HT       0.417000       1.00800           0   0.00000     -0.301140E-02
     26648 TIP3     578      TIP3     OH2      OT      -0.834000       15.9994           0   0.00000       0.00000    
     26649 TIP3     578      TIP3     H1       HT       0.417000       1.00800           0   0.00000       0.00000    
     26650 TIP3     578      TIP3     H2       HT       0.417000       1.00800           0   0.00000     -0.301140E-02
     26651 TIP3     579      TIP3     OH2      OT      -0.834000       15.9994           0   0.00000       0.00000    
     26652 TIP3     579      TIP3     H1       HT       0.417000       1.00800           0   0.00000       0.00000    
     26653 TIP3     579      TIP3     H2       HT       0.417000       1.00800           0   0.00000     -0.301140E-02
     26654 TIP3     580      TIP3     OH2      OT      -0.834000       15.9994           0   0.00000       0.00000    
     26655 TIP3     580      TIP3     H1       HT       0.417000       1.00800           0   0.00000       0.00000    
     26656 TIP3     580      TIP3     H2       HT       0.417000       1.00800           0   0.00000     -0.301140E-02
     26657 TIP3     581      TIP3     OH2      OT      -0.834000       15.9994           0   0.00000       0.00000    
     26658 TIP3     581      TIP3     H1       HT       0.417000       1.00800           0   0.00000       0.00000    
     26659 TIP3     581      TIP3     H2       HT       0.417000       1.00800           0   0.00000     -0.301140E-02
     26660 TIP3     582      TIP3     OH2      OT      -0.834000       15.9994           0   0.00000       0.00000    
     26661 TIP3     582      TIP3     H1       HT       0.417000       1.00800           0   0.00000       0.00000    
     26662 TIP3     582      TIP3     H2       HT       0.417000       1.00800           0   0.00000     -0.301140E-02
     26663 TIP3     583      TIP3     OH2      OT      -0.834000       15.9994           0   0.00000       0.00000    
     26664 TIP3     583      TIP3     H1       HT       0.417000       1.00800           0   0.00000       0.00000    
     26665 TIP3     583      TIP3     H2       HT       0.417000       1.00800           0   0.00000     -0.301140E-02
     26666 TIP3     584      TIP3     OH2      OT      -0.834000       15.9994           0   0.00000       0.00000    
     26667 TIP3     584      TIP3     H1       HT       0.417000       1.00800           0   0.00000       0.00000    
     26668 TIP3     584      TIP3     H2       HT       0.417000       1.00800           0   0.00000     -0.301140E-02
     26669 TIP3     585      TIP3     OH2      OT      -0.834000       15.9994           0   0.00000       0.00000    
     26670 TIP3     585      TIP3     H1       HT       0.417000       1.00800           0   0.00000       0.00000    
     26671 TIP3     585      TIP3     H2       HT       0.417000       1.00800           0   0.00000     -0.301140E-02
     26672 TIP3     586      TIP3     OH2      OT      -0.834000       15.9994           0   0.00000       0.00000    
     26673 TIP3     586      TIP3     H1       HT       0.417000       1.00800           0   0.00000       0.00000    
     26674 TIP3     586      TIP3     H2       HT       0.417000       1.00800           0   0.00000     -0.301140E-02
     26675 TIP3     587      TIP3     OH2      OT      -0.834000       15.9994           0   0.00000       0.00000    
     26676 TIP3     587      TIP3     H1       HT       0.417000       1.00800           0   0.00000       0.00000    
     26677 TIP3     587      TIP3     H2       HT       0.417000       1.00800           0   0.00000     -0.301140E-02
     26678 TIP3     588      TIP3     OH2      OT      -0.834000       15.9994           0   0.00000       0.00000    
     26679 TIP3     588      TIP3     H1       HT       0.417000       1.00800           0   0.00000       0.00000    
     26680 TIP3     588      TIP3     H2       HT       0.417000       1.00800           0   0.00000     -0.301140E-02
     26681 TIP3     589      TIP3     OH2      OT      -0.834000       15.9994           0   0.00000       0.00000    
     26682 TIP3     589      TIP3     H1       HT       0.417000       1.00800           0   0.00000       0.00000    
     26683 TIP3     589      TIP3     H2       HT       0.417000       1.00800           0   0.00000     -0.301140E-02
     26684 TIP3     590      TIP3     OH2      OT      -0.834000       15.9994           0   0.00000       0.00000    
     26685 TIP3     590      TIP3     H1       HT       0.417000       1.00800           0   0.00000       0.00000    
     26686 TIP3     590      TIP3     H2       HT       0.417000       1.00800           0   0.00000     -0.301140E-02
     26687 TIP3     591      TIP3     OH2      OT      -0.834000       15.9994           0   0.00000       0.00000    
     26688 TIP3     591      TIP3     H1       HT       0.417000       1.00800           0   0.00000       0.00000    
     26689 TIP3     591      TIP3     H2       HT       0.417000       1.00800           0   0.00000     -0.301140E-02
     26690 TIP3     592      TIP3     OH2      OT      -0.834000       15.9994           0   0.00000       0.00000    
     26691 TIP3     592      TIP3     H1       HT       0.417000       1.00800           0   0.00000       0.00000    
     26692 TIP3     592      TIP3     H2       HT       0.417000       1.00800           0   0.00000     -0.301140E-02
     26693 TIP3     593      TIP3     OH2      OT      -0.834000       15.9994           0   0.00000       0.00000    
     26694 TIP3     593      TIP3     H1       HT       0.417000       1.00800           0   0.00000       0.00000    
     26695 TIP3     593      TIP3     H2       HT       0.417000       1.00800           0   0.00000     -0.301140E-02
     26696 TIP3     594      TIP3     OH2      OT      -0.834000       15.9994           0   0.00000       0.00000    
     26697 TIP3     594      TIP3     H1       HT       0.417000       1.00800           0   0.00000       0.00000    
     26698 TIP3     594      TIP3     H2       HT       0.417000       1.00800           0   0.00000     -0.301140E-02
     26699 TIP3     595      TIP3     OH2      OT      -0.834000       15.9994           0   0.00000       0.00000    
     26700 TIP3     595      TIP3     H1       HT       0.417000       1.00800           0   0.00000       0.00000    
     26701 TIP3     595      TIP3     H2       HT       0.417000       1.00800           0   0.00000     -0.301140E-02
     26702 TIP3     596      TIP3     OH2      OT      -0.834000       15.9994           0   0.00000       0.00000    
     26703 TIP3     596      TIP3     H1       HT       0.417000       1.00800           0   0.00000       0.00000    
     26704 TIP3     596      TIP3     H2       HT       0.417000       1.00800           0   0.00000     -0.301140E-02
     26705 TIP3     597      TIP3     OH2      OT      -0.834000       15.9994           0   0.00000       0.00000    
     26706 TIP3     597      TIP3     H1       HT       0.417000       1.00800           0   0.00000       0.00000    
     26707 TIP3     597      TIP3     H2       HT       0.417000       1.00800           0   0.00000     -0.301140E-02
     26708 TIP3     598      TIP3     OH2      OT      -0.834000       15.9994           0   0.00000       0.00000    
     26709 TIP3     598      TIP3     H1       HT       0.417000       1.00800           0   0.00000       0.00000    
     26710 TIP3     598      TIP3     H2       HT       0.417000       1.00800           0   0.00000     -0.301140E-02
     26711 TIP3     599      TIP3     OH2      OT      -0.834000       15.9994           0   0.00000       0.00000    
     26712 TIP3     599      TIP3     H1       HT       0.417000       1.00800           0   0.00000       0.00000    
     26713 TIP3     599      TIP3     H2       HT       0.417000       1.00800           0   0.00000     -0.301140E-02
     26714 TIP3     600      TIP3     OH2      OT      -0.834000       15.9994           0   0.00000       0.00000    
     26715 TIP3     600      TIP3     H1       HT       0.417000       1.00800           0   0.00000       0.00000    
     26716 TIP3     600      TIP3     H2       HT       0.417000       1.00800           0   0.00000     -0.301140E-02
     26717 TIP3     601      TIP3     OH2      OT      -0.834000       15.9994           0   0.00000       0.00000    
     26718 TIP3     601      TIP3     H1       HT       0.417000       1.00800           0   0.00000       0.00000    
     26719 TIP3     601      TIP3     H2       HT       0.417000       1.00800           0   0.00000     -0.301140E-02
     26720 TIP3     602      TIP3     OH2      OT      -0.834000       15.9994           0   0.00000       0.00000    
     26721 TIP3     602      TIP3     H1       HT       0.417000       1.00800           0   0.00000       0.00000    
     26722 TIP3     602      TIP3     H2       HT       0.417000       1.00800           0   0.00000     -0.301140E-02
     26723 TIP3     603      TIP3     OH2      OT      -0.834000       15.9994           0   0.00000       0.00000    
     26724 TIP3     603      TIP3     H1       HT       0.417000       1.00800           0   0.00000       0.00000    
     26725 TIP3     603      TIP3     H2       HT       0.417000       1.00800           0   0.00000     -0.301140E-02
     26726 TIP3     604      TIP3     OH2      OT      -0.834000       15.9994           0   0.00000       0.00000    
     26727 TIP3     604      TIP3     H1       HT       0.417000       1.00800           0   0.00000       0.00000    
     26728 TIP3     604      TIP3     H2       HT       0.417000       1.00800           0   0.00000     -0.301140E-02
     26729 TIP3     605      TIP3     OH2      OT      -0.834000       15.9994           0   0.00000       0.00000    
     26730 TIP3     605      TIP3     H1       HT       0.417000       1.00800           0   0.00000       0.00000    
     26731 TIP3     605      TIP3     H2       HT       0.417000       1.00800           0   0.00000     -0.301140E-02
     26732 TIP3     606      TIP3     OH2      OT      -0.834000       15.9994           0   0.00000       0.00000    
     26733 TIP3     606      TIP3     H1       HT       0.417000       1.00800           0   0.00000       0.00000    
     26734 TIP3     606      TIP3     H2       HT       0.417000       1.00800           0   0.00000     -0.301140E-02
     26735 TIP3     607      TIP3     OH2      OT      -0.834000       15.9994           0   0.00000       0.00000    
     26736 TIP3     607      TIP3     H1       HT       0.417000       1.00800           0   0.00000       0.00000    
     26737 TIP3     607      TIP3     H2       HT       0.417000       1.00800           0   0.00000     -0.301140E-02
     26738 TIP3     608      TIP3     OH2      OT      -0.834000       15.9994           0   0.00000       0.00000    
     26739 TIP3     608      TIP3     H1       HT       0.417000       1.00800           0   0.00000       0.00000    
     26740 TIP3     608      TIP3     H2       HT       0.417000       1.00800           0   0.00000     -0.301140E-02
     26741 TIP3     609      TIP3     OH2      OT      -0.834000       15.9994           0   0.00000       0.00000    
     26742 TIP3     609      TIP3     H1       HT       0.417000       1.00800           0   0.00000       0.00000    
     26743 TIP3     609      TIP3     H2       HT       0.417000       1.00800           0   0.00000     -0.301140E-02
     26744 TIP3     610      TIP3     OH2      OT      -0.834000       15.9994           0   0.00000       0.00000    
     26745 TIP3     610      TIP3     H1       HT       0.417000       1.00800           0   0.00000       0.00000    
     26746 TIP3     610      TIP3     H2       HT       0.417000       1.00800           0   0.00000     -0.301140E-02
     26747 TIP3     611      TIP3     OH2      OT      -0.834000       15.9994           0   0.00000       0.00000    
     26748 TIP3     611      TIP3     H1       HT       0.417000       1.00800           0   0.00000       0.00000    
     26749 TIP3     611      TIP3     H2       HT       0.417000       1.00800           0   0.00000     -0.301140E-02
     26750 TIP3     612      TIP3     OH2      OT      -0.834000       15.9994           0   0.00000       0.00000    
     26751 TIP3     612      TIP3     H1       HT       0.417000       1.00800           0   0.00000       0.00000    
     26752 TIP3     612      TIP3     H2       HT       0.417000       1.00800           0   0.00000     -0.301140E-02
     26753 TIP3     613      TIP3     OH2      OT      -0.834000       15.9994           0   0.00000       0.00000    
     26754 TIP3     613      TIP3     H1       HT       0.417000       1.00800           0   0.00000       0.00000    
     26755 TIP3     613      TIP3     H2       HT       0.417000       1.00800           0   0.00000     -0.301140E-02
     26756 TIP3     614      TIP3     OH2      OT      -0.834000       15.9994           0   0.00000       0.00000    
     26757 TIP3     614      TIP3     H1       HT       0.417000       1.00800           0   0.00000       0.00000    
     26758 TIP3     614      TIP3     H2       HT       0.417000       1.00800           0   0.00000     -0.301140E-02
     26759 TIP3     615      TIP3     OH2      OT      -0.834000       15.9994           0   0.00000       0.00000    
     26760 TIP3     615      TIP3     H1       HT       0.417000       1.00800           0   0.00000       0.00000    
     26761 TIP3     615      TIP3     H2       HT       0.417000       1.00800           0   0.00000     -0.301140E-02
     26762 TIP3     616      TIP3     OH2      OT      -0.834000       15.9994           0   0.00000       0.00000    
     26763 TIP3     616      TIP3     H1       HT       0.417000       1.00800           0   0.00000       0.00000    
     26764 TIP3     616      TIP3     H2       HT       0.417000       1.00800           0   0.00000     -0.301140E-02
     26765 TIP3     617      TIP3     OH2      OT      -0.834000       15.9994           0   0.00000       0.00000    
     26766 TIP3     617      TIP3     H1       HT       0.417000       1.00800           0   0.00000       0.00000    
     26767 TIP3     617      TIP3     H2       HT       0.417000       1.00800           0   0.00000     -0.301140E-02
     26768 TIP3     618      TIP3     OH2      OT      -0.834000       15.9994           0   0.00000       0.00000    
     26769 TIP3     618      TIP3     H1       HT       0.417000       1.00800           0   0.00000       0.00000    
     26770 TIP3     618      TIP3     H2       HT       0.417000       1.00800           0   0.00000     -0.301140E-02
     26771 TIP3     619      TIP3     OH2      OT      -0.834000       15.9994           0   0.00000       0.00000    
     26772 TIP3     619      TIP3     H1       HT       0.417000       1.00800           0   0.00000       0.00000    
     26773 TIP3     619      TIP3     H2       HT       0.417000       1.00800           0   0.00000     -0.301140E-02
     26774 TIP3     620      TIP3     OH2      OT      -0.834000       15.9994           0   0.00000       0.00000    
     26775 TIP3     620      TIP3     H1       HT       0.417000       1.00800           0   0.00000       0.00000    
     26776 TIP3     620      TIP3     H2       HT       0.417000       1.00800           0   0.00000     -0.301140E-02
     26777 TIP3     621      TIP3     OH2      OT      -0.834000       15.9994           0   0.00000       0.00000    
     26778 TIP3     621      TIP3     H1       HT       0.417000       1.00800           0   0.00000       0.00000    
     26779 TIP3     621      TIP3     H2       HT       0.417000       1.00800           0   0.00000     -0.301140E-02
     26780 TIP3     622      TIP3     OH2      OT      -0.834000       15.9994           0   0.00000       0.00000    
     26781 TIP3     622      TIP3     H1       HT       0.417000       1.00800           0   0.00000       0.00000    
     26782 TIP3     622      TIP3     H2       HT       0.417000       1.00800           0   0.00000     -0.301140E-02
     26783 TIP3     623      TIP3     OH2      OT      -0.834000       15.9994           0   0.00000       0.00000    
     26784 TIP3     623      TIP3     H1       HT       0.417000       1.00800           0   0.00000       0.00000    
     26785 TIP3     623      TIP3     H2       HT       0.417000       1.00800           0   0.00000     -0.301140E-02
     26786 TIP3     624      TIP3     OH2      OT      -0.834000       15.9994           0   0.00000       0.00000    
     26787 TIP3     624      TIP3     H1       HT       0.417000       1.00800           0   0.00000       0.00000    
     26788 TIP3     624      TIP3     H2       HT       0.417000       1.00800           0   0.00000     -0.301140E-02
     26789 TIP3     625      TIP3     OH2      OT      -0.834000       15.9994           0   0.00000       0.00000    
     26790 TIP3     625      TIP3     H1       HT       0.417000       1.00800           0   0.00000       0.00000    
     26791 TIP3     625      TIP3     H2       HT       0.417000       1.00800           0   0.00000     -0.301140E-02
     26792 TIP3     626      TIP3     OH2      OT      -0.834000       15.9994           0   0.00000       0.00000    
     26793 TIP3     626      TIP3     H1       HT       0.417000       1.00800           0   0.00000       0.00000    
     26794 TIP3     626      TIP3     H2       HT       0.417000       1.00800           0   0.00000     -0.301140E-02
     26795 TIP3     627      TIP3     OH2      OT      -0.834000       15.9994           0   0.00000       0.00000    
     26796 TIP3     627      TIP3     H1       HT       0.417000       1.00800           0   0.00000       0.00000    
     26797 TIP3     627      TIP3     H2       HT       0.417000       1.00800           0   0.00000     -0.301140E-02
     26798 TIP3     628      TIP3     OH2      OT      -0.834000       15.9994           0   0.00000       0.00000    
     26799 TIP3     628      TIP3     H1       HT       0.417000       1.00800           0   0.00000       0.00000    
     26800 TIP3     628      TIP3     H2       HT       0.417000       1.00800           0   0.00000     -0.301140E-02
     26801 TIP3     629      TIP3     OH2      OT      -0.834000       15.9994           0   0.00000       0.00000    
     26802 TIP3     629      TIP3     H1       HT       0.417000       1.00800           0   0.00000       0.00000    
     26803 TIP3     629      TIP3     H2       HT       0.417000       1.00800           0   0.00000     -0.301140E-02
     26804 TIP3     630      TIP3     OH2      OT      -0.834000       15.9994           0   0.00000       0.00000    
     26805 TIP3     630      TIP3     H1       HT       0.417000       1.00800           0   0.00000       0.00000    
     26806 TIP3     630      TIP3     H2       HT       0.417000       1.00800           0   0.00000     -0.301140E-02
     26807 TIP3     631      TIP3     OH2      OT      -0.834000       15.9994           0   0.00000       0.00000    
     26808 TIP3     631      TIP3     H1       HT       0.417000       1.00800           0   0.00000       0.00000    
     26809 TIP3     631      TIP3     H2       HT       0.417000       1.00800           0   0.00000     -0.301140E-02
     26810 TIP3     632      TIP3     OH2      OT      -0.834000       15.9994           0   0.00000       0.00000    
     26811 TIP3     632      TIP3     H1       HT       0.417000       1.00800           0   0.00000       0.00000    
     26812 TIP3     632      TIP3     H2       HT       0.417000       1.00800           0   0.00000     -0.301140E-02
     26813 TIP3     633      TIP3     OH2      OT      -0.834000       15.9994           0   0.00000       0.00000    
     26814 TIP3     633      TIP3     H1       HT       0.417000       1.00800           0   0.00000       0.00000    
     26815 TIP3     633      TIP3     H2       HT       0.417000       1.00800           0   0.00000     -0.301140E-02
     26816 TIP3     634      TIP3     OH2      OT      -0.834000       15.9994           0   0.00000       0.00000    
     26817 TIP3     634      TIP3     H1       HT       0.417000       1.00800           0   0.00000       0.00000    
     26818 TIP3     634      TIP3     H2       HT       0.417000       1.00800           0   0.00000     -0.301140E-02
     26819 TIP3     635      TIP3     OH2      OT      -0.834000       15.9994           0   0.00000       0.00000    
     26820 TIP3     635      TIP3     H1       HT       0.417000       1.00800           0   0.00000       0.00000    
     26821 TIP3     635      TIP3     H2       HT       0.417000       1.00800           0   0.00000     -0.301140E-02
     26822 TIP3     636      TIP3     OH2      OT      -0.834000       15.9994           0   0.00000       0.00000    
     26823 TIP3     636      TIP3     H1       HT       0.417000       1.00800           0   0.00000       0.00000    
     26824 TIP3     636      TIP3     H2       HT       0.417000       1.00800           0   0.00000     -0.301140E-02
     26825 TIP3     637      TIP3     OH2      OT      -0.834000       15.9994           0   0.00000       0.00000    
     26826 TIP3     637      TIP3     H1       HT       0.417000       1.00800           0   0.00000       0.00000    
     26827 TIP3     637      TIP3     H2       HT       0.417000       1.00800           0   0.00000     -0.301140E-02
     26828 TIP3     638      TIP3     OH2      OT      -0.834000       15.9994           0   0.00000       0.00000    
     26829 TIP3     638      TIP3     H1       HT       0.417000       1.00800           0   0.00000       0.00000    
     26830 TIP3     638      TIP3     H2       HT       0.417000       1.00800           0   0.00000     -0.301140E-02
     26831 TIP3     639      TIP3     OH2      OT      -0.834000       15.9994           0   0.00000       0.00000    
     26832 TIP3     639      TIP3     H1       HT       0.417000       1.00800           0   0.00000       0.00000    
     26833 TIP3     639      TIP3     H2       HT       0.417000       1.00800           0   0.00000     -0.301140E-02
     26834 TIP3     640      TIP3     OH2      OT      -0.834000       15.9994           0   0.00000       0.00000    
     26835 TIP3     640      TIP3     H1       HT       0.417000       1.00800           0   0.00000       0.00000    
     26836 TIP3     640      TIP3     H2       HT       0.417000       1.00800           0   0.00000     -0.301140E-02
     26837 TIP3     641      TIP3     OH2      OT      -0.834000       15.9994           0   0.00000       0.00000    
     26838 TIP3     641      TIP3     H1       HT       0.417000       1.00800           0   0.00000       0.00000    
     26839 TIP3     641      TIP3     H2       HT       0.417000       1.00800           0   0.00000     -0.301140E-02
     26840 TIP3     642      TIP3     OH2      OT      -0.834000       15.9994           0   0.00000       0.00000    
     26841 TIP3     642      TIP3     H1       HT       0.417000       1.00800           0   0.00000       0.00000    
     26842 TIP3     642      TIP3     H2       HT       0.417000       1.00800           0   0.00000     -0.301140E-02
     26843 TIP3     643      TIP3     OH2      OT      -0.834000       15.9994           0   0.00000       0.00000    
     26844 TIP3     643      TIP3     H1       HT       0.417000       1.00800           0   0.00000       0.00000    
     26845 TIP3     643      TIP3     H2       HT       0.417000       1.00800           0   0.00000     -0.301140E-02
     26846 TIP3     644      TIP3     OH2      OT      -0.834000       15.9994           0   0.00000       0.00000    
     26847 TIP3     644      TIP3     H1       HT       0.417000       1.00800           0   0.00000       0.00000    
     26848 TIP3     644      TIP3     H2       HT       0.417000       1.00800           0   0.00000     -0.301140E-02
     26849 TIP3     645      TIP3     OH2      OT      -0.834000       15.9994           0   0.00000       0.00000    
     26850 TIP3     645      TIP3     H1       HT       0.417000       1.00800           0   0.00000       0.00000    
     26851 TIP3     645      TIP3     H2       HT       0.417000       1.00800           0   0.00000     -0.301140E-02
     26852 TIP3     646      TIP3     OH2      OT      -0.834000       15.9994           0   0.00000       0.00000    
     26853 TIP3     646      TIP3     H1       HT       0.417000       1.00800           0   0.00000       0.00000    
     26854 TIP3     646      TIP3     H2       HT       0.417000       1.00800           0   0.00000     -0.301140E-02
     26855 TIP3     647      TIP3     OH2      OT      -0.834000       15.9994           0   0.00000       0.00000    
     26856 TIP3     647      TIP3     H1       HT       0.417000       1.00800           0   0.00000       0.00000    
     26857 TIP3     647      TIP3     H2       HT       0.417000       1.00800           0   0.00000     -0.301140E-02
     26858 TIP3     648      TIP3     OH2      OT      -0.834000       15.9994           0   0.00000       0.00000    
     26859 TIP3     648      TIP3     H1       HT       0.417000       1.00800           0   0.00000       0.00000    
     26860 TIP3     648      TIP3     H2       HT       0.417000       1.00800           0   0.00000     -0.301140E-02
     26861 TIP3     649      TIP3     OH2      OT      -0.834000       15.9994           0   0.00000       0.00000    
     26862 TIP3     649      TIP3     H1       HT       0.417000       1.00800           0   0.00000       0.00000    
     26863 TIP3     649      TIP3     H2       HT       0.417000       1.00800           0   0.00000     -0.301140E-02
     26864 TIP3     650      TIP3     OH2      OT      -0.834000       15.9994           0   0.00000       0.00000    
     26865 TIP3     650      TIP3     H1       HT       0.417000       1.00800           0   0.00000       0.00000    
     26866 TIP3     650      TIP3     H2       HT       0.417000       1.00800           0   0.00000     -0.301140E-02
     26867 TIP3     651      TIP3     OH2      OT      -0.834000       15.9994           0   0.00000       0.00000    
     26868 TIP3     651      TIP3     H1       HT       0.417000       1.00800           0   0.00000       0.00000    
     26869 TIP3     651      TIP3     H2       HT       0.417000       1.00800           0   0.00000     -0.301140E-02
     26870 TIP3     652      TIP3     OH2      OT      -0.834000       15.9994           0   0.00000       0.00000    
     26871 TIP3     652      TIP3     H1       HT       0.417000       1.00800           0   0.00000       0.00000    
     26872 TIP3     652      TIP3     H2       HT       0.417000       1.00800           0   0.00000     -0.301140E-02
     26873 TIP3     653      TIP3     OH2      OT      -0.834000       15.9994           0   0.00000       0.00000    
     26874 TIP3     653      TIP3     H1       HT       0.417000       1.00800           0   0.00000       0.00000    
     26875 TIP3     653      TIP3     H2       HT       0.417000       1.00800           0   0.00000     -0.301140E-02
     26876 TIP3     654      TIP3     OH2      OT      -0.834000       15.9994           0   0.00000       0.00000    
     26877 TIP3     654      TIP3     H1       HT       0.417000       1.00800           0   0.00000       0.00000    
     26878 TIP3     654      TIP3     H2       HT       0.417000       1.00800           0   0.00000     -0.301140E-02
     26879 TIP3     655      TIP3     OH2      OT      -0.834000       15.9994           0   0.00000       0.00000    
     26880 TIP3     655      TIP3     H1       HT       0.417000       1.00800           0   0.00000       0.00000    
     26881 TIP3     655      TIP3     H2       HT       0.417000       1.00800           0   0.00000     -0.301140E-02
     26882 TIP3     656      TIP3     OH2      OT      -0.834000       15.9994           0   0.00000       0.00000    
     26883 TIP3     656      TIP3     H1       HT       0.417000       1.00800           0   0.00000       0.00000    
     26884 TIP3     656      TIP3     H2       HT       0.417000       1.00800           0   0.00000     -0.301140E-02
     26885 TIP3     657      TIP3     OH2      OT      -0.834000       15.9994           0   0.00000       0.00000    
     26886 TIP3     657      TIP3     H1       HT       0.417000       1.00800           0   0.00000       0.00000    
     26887 TIP3     657      TIP3     H2       HT       0.417000       1.00800           0   0.00000     -0.301140E-02
     26888 TIP3     658      TIP3     OH2      OT      -0.834000       15.9994           0   0.00000       0.00000    
     26889 TIP3     658      TIP3     H1       HT       0.417000       1.00800           0   0.00000       0.00000    
     26890 TIP3     658      TIP3     H2       HT       0.417000       1.00800           0   0.00000     -0.301140E-02
     26891 TIP3     659      TIP3     OH2      OT      -0.834000       15.9994           0   0.00000       0.00000    
     26892 TIP3     659      TIP3     H1       HT       0.417000       1.00800           0   0.00000       0.00000    
     26893 TIP3     659      TIP3     H2       HT       0.417000       1.00800           0   0.00000     -0.301140E-02
     26894 TIP3     660      TIP3     OH2      OT      -0.834000       15.9994           0   0.00000       0.00000    
     26895 TIP3     660      TIP3     H1       HT       0.417000       1.00800           0   0.00000       0.00000    
     26896 TIP3     660      TIP3     H2       HT       0.417000       1.00800           0   0.00000     -0.301140E-02
     26897 TIP3     661      TIP3     OH2      OT      -0.834000       15.9994           0   0.00000       0.00000    
     26898 TIP3     661      TIP3     H1       HT       0.417000       1.00800           0   0.00000       0.00000    
     26899 TIP3     661      TIP3     H2       HT       0.417000       1.00800           0   0.00000     -0.301140E-02
     26900 TIP3     662      TIP3     OH2      OT      -0.834000       15.9994           0   0.00000       0.00000    
     26901 TIP3     662      TIP3     H1       HT       0.417000       1.00800           0   0.00000       0.00000    
     26902 TIP3     662      TIP3     H2       HT       0.417000       1.00800           0   0.00000     -0.301140E-02
     26903 TIP3     663      TIP3     OH2      OT      -0.834000       15.9994           0   0.00000       0.00000    
     26904 TIP3     663      TIP3     H1       HT       0.417000       1.00800           0   0.00000       0.00000    
     26905 TIP3     663      TIP3     H2       HT       0.417000       1.00800           0   0.00000     -0.301140E-02
     26906 TIP3     664      TIP3     OH2      OT      -0.834000       15.9994           0   0.00000       0.00000    
     26907 TIP3     664      TIP3     H1       HT       0.417000       1.00800           0   0.00000       0.00000    
     26908 TIP3     664      TIP3     H2       HT       0.417000       1.00800           0   0.00000     -0.301140E-02
     26909 TIP3     665      TIP3     OH2      OT      -0.834000       15.9994           0   0.00000       0.00000    
     26910 TIP3     665      TIP3     H1       HT       0.417000       1.00800           0   0.00000       0.00000    
     26911 TIP3     665      TIP3     H2       HT       0.417000       1.00800           0   0.00000     -0.301140E-02
     26912 TIP3     666      TIP3     OH2      OT      -0.834000       15.9994           0   0.00000       0.00000    
     26913 TIP3     666      TIP3     H1       HT       0.417000       1.00800           0   0.00000       0.00000    
     26914 TIP3     666      TIP3     H2       HT       0.417000       1.00800           0   0.00000     -0.301140E-02
     26915 TIP3     667      TIP3     OH2      OT      -0.834000       15.9994           0   0.00000       0.00000    
     26916 TIP3     667      TIP3     H1       HT       0.417000       1.00800           0   0.00000       0.00000    
     26917 TIP3     667      TIP3     H2       HT       0.417000       1.00800           0   0.00000     -0.301140E-02
     26918 TIP3     668      TIP3     OH2      OT      -0.834000       15.9994           0   0.00000       0.00000    
     26919 TIP3     668      TIP3     H1       HT       0.417000       1.00800           0   0.00000       0.00000    
     26920 TIP3     668      TIP3     H2       HT       0.417000       1.00800           0   0.00000     -0.301140E-02
     26921 TIP3     669      TIP3     OH2      OT      -0.834000       15.9994           0   0.00000       0.00000    
     26922 TIP3     669      TIP3     H1       HT       0.417000       1.00800           0   0.00000       0.00000    
     26923 TIP3     669      TIP3     H2       HT       0.417000       1.00800           0   0.00000     -0.301140E-02
     26924 TIP3     670      TIP3     OH2      OT      -0.834000       15.9994           0   0.00000       0.00000    
     26925 TIP3     670      TIP3     H1       HT       0.417000       1.00800           0   0.00000       0.00000    
     26926 TIP3     670      TIP3     H2       HT       0.417000       1.00800           0   0.00000     -0.301140E-02
     26927 TIP3     671      TIP3     OH2      OT      -0.834000       15.9994           0   0.00000       0.00000    
     26928 TIP3     671      TIP3     H1       HT       0.417000       1.00800           0   0.00000       0.00000    
     26929 TIP3     671      TIP3     H2       HT       0.417000       1.00800           0   0.00000     -0.301140E-02
     26930 TIP3     672      TIP3     OH2      OT      -0.834000       15.9994           0   0.00000       0.00000    
     26931 TIP3     672      TIP3     H1       HT       0.417000       1.00800           0   0.00000       0.00000    
     26932 TIP3     672      TIP3     H2       HT       0.417000       1.00800           0   0.00000     -0.301140E-02
     26933 TIP3     673      TIP3     OH2      OT      -0.834000       15.9994           0   0.00000       0.00000    
     26934 TIP3     673      TIP3     H1       HT       0.417000       1.00800           0   0.00000       0.00000    
     26935 TIP3     673      TIP3     H2       HT       0.417000       1.00800           0   0.00000     -0.301140E-02
     26936 TIP3     674      TIP3     OH2      OT      -0.834000       15.9994           0   0.00000       0.00000    
     26937 TIP3     674      TIP3     H1       HT       0.417000       1.00800           0   0.00000       0.00000    
     26938 TIP3     674      TIP3     H2       HT       0.417000       1.00800           0   0.00000     -0.301140E-02
     26939 TIP3     675      TIP3     OH2      OT      -0.834000       15.9994           0   0.00000       0.00000    
     26940 TIP3     675      TIP3     H1       HT       0.417000       1.00800           0   0.00000       0.00000    
     26941 TIP3     675      TIP3     H2       HT       0.417000       1.00800           0   0.00000     -0.301140E-02
     26942 TIP3     676      TIP3     OH2      OT      -0.834000       15.9994           0   0.00000       0.00000    
     26943 TIP3     676      TIP3     H1       HT       0.417000       1.00800           0   0.00000       0.00000    
     26944 TIP3     676      TIP3     H2       HT       0.417000       1.00800           0   0.00000     -0.301140E-02
     26945 TIP3     677      TIP3     OH2      OT      -0.834000       15.9994           0   0.00000       0.00000    
     26946 TIP3     677      TIP3     H1       HT       0.417000       1.00800           0   0.00000       0.00000    
     26947 TIP3     677      TIP3     H2       HT       0.417000       1.00800           0   0.00000     -0.301140E-02
     26948 TIP3     678      TIP3     OH2      OT      -0.834000       15.9994           0   0.00000       0.00000    
     26949 TIP3     678      TIP3     H1       HT       0.417000       1.00800           0   0.00000       0.00000    
     26950 TIP3     678      TIP3     H2       HT       0.417000       1.00800           0   0.00000     -0.301140E-02
     26951 TIP3     679      TIP3     OH2      OT      -0.834000       15.9994           0   0.00000       0.00000    
     26952 TIP3     679      TIP3     H1       HT       0.417000       1.00800           0   0.00000       0.00000    
     26953 TIP3     679      TIP3     H2       HT       0.417000       1.00800           0   0.00000     -0.301140E-02
     26954 TIP3     680      TIP3     OH2      OT      -0.834000       15.9994           0   0.00000       0.00000    
     26955 TIP3     680      TIP3     H1       HT       0.417000       1.00800           0   0.00000       0.00000    
     26956 TIP3     680      TIP3     H2       HT       0.417000       1.00800           0   0.00000     -0.301140E-02
     26957 TIP3     681      TIP3     OH2      OT      -0.834000       15.9994           0   0.00000       0.00000    
     26958 TIP3     681      TIP3     H1       HT       0.417000       1.00800           0   0.00000       0.00000    
     26959 TIP3     681      TIP3     H2       HT       0.417000       1.00800           0   0.00000     -0.301140E-02
     26960 TIP3     682      TIP3     OH2      OT      -0.834000       15.9994           0   0.00000       0.00000    
     26961 TIP3     682      TIP3     H1       HT       0.417000       1.00800           0   0.00000       0.00000    
     26962 TIP3     682      TIP3     H2       HT       0.417000       1.00800           0   0.00000     -0.301140E-02
     26963 TIP3     683      TIP3     OH2      OT      -0.834000       15.9994           0   0.00000       0.00000    
     26964 TIP3     683      TIP3     H1       HT       0.417000       1.00800           0   0.00000       0.00000    
     26965 TIP3     683      TIP3     H2       HT       0.417000       1.00800           0   0.00000     -0.301140E-02
     26966 TIP3     684      TIP3     OH2      OT      -0.834000       15.9994           0   0.00000       0.00000    
     26967 TIP3     684      TIP3     H1       HT       0.417000       1.00800           0   0.00000       0.00000    
     26968 TIP3     684      TIP3     H2       HT       0.417000       1.00800           0   0.00000     -0.301140E-02
     26969 TIP3     685      TIP3     OH2      OT      -0.834000       15.9994           0   0.00000       0.00000    
     26970 TIP3     685      TIP3     H1       HT       0.417000       1.00800           0   0.00000       0.00000    
     26971 TIP3     685      TIP3     H2       HT       0.417000       1.00800           0   0.00000     -0.301140E-02
     26972 TIP3     686      TIP3     OH2      OT      -0.834000       15.9994           0   0.00000       0.00000    
     26973 TIP3     686      TIP3     H1       HT       0.417000       1.00800           0   0.00000       0.00000    
     26974 TIP3     686      TIP3     H2       HT       0.417000       1.00800           0   0.00000     -0.301140E-02
     26975 TIP3     687      TIP3     OH2      OT      -0.834000       15.9994           0   0.00000       0.00000    
     26976 TIP3     687      TIP3     H1       HT       0.417000       1.00800           0   0.00000       0.00000    
     26977 TIP3     687      TIP3     H2       HT       0.417000       1.00800           0   0.00000     -0.301140E-02
     26978 TIP3     688      TIP3     OH2      OT      -0.834000       15.9994           0   0.00000       0.00000    
     26979 TIP3     688      TIP3     H1       HT       0.417000       1.00800           0   0.00000       0.00000    
     26980 TIP3     688      TIP3     H2       HT       0.417000       1.00800           0   0.00000     -0.301140E-02
     26981 TIP3     689      TIP3     OH2      OT      -0.834000       15.9994           0   0.00000       0.00000    
     26982 TIP3     689      TIP3     H1       HT       0.417000       1.00800           0   0.00000       0.00000    
     26983 TIP3     689      TIP3     H2       HT       0.417000       1.00800           0   0.00000     -0.301140E-02
     26984 TIP3     690      TIP3     OH2      OT      -0.834000       15.9994           0   0.00000       0.00000    
     26985 TIP3     690      TIP3     H1       HT       0.417000       1.00800           0   0.00000       0.00000    
     26986 TIP3     690      TIP3     H2       HT       0.417000       1.00800           0   0.00000     -0.301140E-02
     26987 TIP3     691      TIP3     OH2      OT      -0.834000       15.9994           0   0.00000       0.00000    
     26988 TIP3     691      TIP3     H1       HT       0.417000       1.00800           0   0.00000       0.00000    
     26989 TIP3     691      TIP3     H2       HT       0.417000       1.00800           0   0.00000     -0.301140E-02
     26990 TIP3     692      TIP3     OH2      OT      -0.834000       15.9994           0   0.00000       0.00000    
     26991 TIP3     692      TIP3     H1       HT       0.417000       1.00800           0   0.00000       0.00000    
     26992 TIP3     692      TIP3     H2       HT       0.417000       1.00800           0   0.00000     -0.301140E-02
     26993 TIP3     693      TIP3     OH2      OT      -0.834000       15.9994           0   0.00000       0.00000    
     26994 TIP3     693      TIP3     H1       HT       0.417000       1.00800           0   0.00000       0.00000    
     26995 TIP3     693      TIP3     H2       HT       0.417000       1.00800           0   0.00000     -0.301140E-02
     26996 TIP3     694      TIP3     OH2      OT      -0.834000       15.9994           0   0.00000       0.00000    
     26997 TIP3     694      TIP3     H1       HT       0.417000       1.00800           0   0.00000       0.00000    
     26998 TIP3     694      TIP3     H2       HT       0.417000       1.00800           0   0.00000     -0.301140E-02
     26999 TIP3     695      TIP3     OH2      OT      -0.834000       15.9994           0   0.00000       0.00000    
     27000 TIP3     695      TIP3     H1       HT       0.417000       1.00800           0   0.00000       0.00000    
     27001 TIP3     695      TIP3     H2       HT       0.417000       1.00800           0   0.00000     -0.301140E-02
     27002 TIP3     696      TIP3     OH2      OT      -0.834000       15.9994           0   0.00000       0.00000    
     27003 TIP3     696      TIP3     H1       HT       0.417000       1.00800           0   0.00000       0.00000    
     27004 TIP3     696      TIP3     H2       HT       0.417000       1.00800           0   0.00000     -0.301140E-02
     27005 TIP3     697      TIP3     OH2      OT      -0.834000       15.9994           0   0.00000       0.00000    
     27006 TIP3     697      TIP3     H1       HT       0.417000       1.00800           0   0.00000       0.00000    
     27007 TIP3     697      TIP3     H2       HT       0.417000       1.00800           0   0.00000     -0.301140E-02
     27008 TIP3     698      TIP3     OH2      OT      -0.834000       15.9994           0   0.00000       0.00000    
     27009 TIP3     698      TIP3     H1       HT       0.417000       1.00800           0   0.00000       0.00000    
     27010 TIP3     698      TIP3     H2       HT       0.417000       1.00800           0   0.00000     -0.301140E-02
     27011 TIP3     699      TIP3     OH2      OT      -0.834000       15.9994           0   0.00000       0.00000    
     27012 TIP3     699      TIP3     H1       HT       0.417000       1.00800           0   0.00000       0.00000    
     27013 TIP3     699      TIP3     H2       HT       0.417000       1.00800           0   0.00000     -0.301140E-02
     27014 TIP3     700      TIP3     OH2      OT      -0.834000       15.9994           0   0.00000       0.00000    
     27015 TIP3     700      TIP3     H1       HT       0.417000       1.00800           0   0.00000       0.00000    
     27016 TIP3     700      TIP3     H2       HT       0.417000       1.00800           0   0.00000     -0.301140E-02
     27017 TIP3     701      TIP3     OH2      OT      -0.834000       15.9994           0   0.00000       0.00000    
     27018 TIP3     701      TIP3     H1       HT       0.417000       1.00800           0   0.00000       0.00000    
     27019 TIP3     701      TIP3     H2       HT       0.417000       1.00800           0   0.00000     -0.301140E-02
     27020 TIP3     702      TIP3     OH2      OT      -0.834000       15.9994           0   0.00000       0.00000    
     27021 TIP3     702      TIP3     H1       HT       0.417000       1.00800           0   0.00000       0.00000    
     27022 TIP3     702      TIP3     H2       HT       0.417000       1.00800           0   0.00000     -0.301140E-02
     27023 TIP3     703      TIP3     OH2      OT      -0.834000       15.9994           0   0.00000       0.00000    
     27024 TIP3     703      TIP3     H1       HT       0.417000       1.00800           0   0.00000       0.00000    
     27025 TIP3     703      TIP3     H2       HT       0.417000       1.00800           0   0.00000     -0.301140E-02
     27026 TIP3     704      TIP3     OH2      OT      -0.834000       15.9994           0   0.00000       0.00000    
     27027 TIP3     704      TIP3     H1       HT       0.417000       1.00800           0   0.00000       0.00000    
     27028 TIP3     704      TIP3     H2       HT       0.417000       1.00800           0   0.00000     -0.301140E-02
     27029 TIP3     705      TIP3     OH2      OT      -0.834000       15.9994           0   0.00000       0.00000    
     27030 TIP3     705      TIP3     H1       HT       0.417000       1.00800           0   0.00000       0.00000    
     27031 TIP3     705      TIP3     H2       HT       0.417000       1.00800           0   0.00000     -0.301140E-02
     27032 TIP3     706      TIP3     OH2      OT      -0.834000       15.9994           0   0.00000       0.00000    
     27033 TIP3     706      TIP3     H1       HT       0.417000       1.00800           0   0.00000       0.00000    
     27034 TIP3     706      TIP3     H2       HT       0.417000       1.00800           0   0.00000     -0.301140E-02
     27035 TIP3     707      TIP3     OH2      OT      -0.834000       15.9994           0   0.00000       0.00000    
     27036 TIP3     707      TIP3     H1       HT       0.417000       1.00800           0   0.00000       0.00000    
     27037 TIP3     707      TIP3     H2       HT       0.417000       1.00800           0   0.00000     -0.301140E-02
     27038 TIP3     708      TIP3     OH2      OT      -0.834000       15.9994           0   0.00000       0.00000    
     27039 TIP3     708      TIP3     H1       HT       0.417000       1.00800           0   0.00000       0.00000    
     27040 TIP3     708      TIP3     H2       HT       0.417000       1.00800           0   0.00000     -0.301140E-02
     27041 TIP3     709      TIP3     OH2      OT      -0.834000       15.9994           0   0.00000       0.00000    
     27042 TIP3     709      TIP3     H1       HT       0.417000       1.00800           0   0.00000       0.00000    
     27043 TIP3     709      TIP3     H2       HT       0.417000       1.00800           0   0.00000     -0.301140E-02
     27044 TIP3     710      TIP3     OH2      OT      -0.834000       15.9994           0   0.00000       0.00000    
     27045 TIP3     710      TIP3     H1       HT       0.417000       1.00800           0   0.00000       0.00000    
     27046 TIP3     710      TIP3     H2       HT       0.417000       1.00800           0   0.00000     -0.301140E-02
     27047 TIP3     711      TIP3     OH2      OT      -0.834000       15.9994           0   0.00000       0.00000    
     27048 TIP3     711      TIP3     H1       HT       0.417000       1.00800           0   0.00000       0.00000    
     27049 TIP3     711      TIP3     H2       HT       0.417000       1.00800           0   0.00000     -0.301140E-02
     27050 TIP3     712      TIP3     OH2      OT      -0.834000       15.9994           0   0.00000       0.00000    
     27051 TIP3     712      TIP3     H1       HT       0.417000       1.00800           0   0.00000       0.00000    
     27052 TIP3     712      TIP3     H2       HT       0.417000       1.00800           0   0.00000     -0.301140E-02
     27053 TIP3     713      TIP3     OH2      OT      -0.834000       15.9994           0   0.00000       0.00000    
     27054 TIP3     713      TIP3     H1       HT       0.417000       1.00800           0   0.00000       0.00000    
     27055 TIP3     713      TIP3     H2       HT       0.417000       1.00800           0   0.00000     -0.301140E-02
     27056 TIP3     714      TIP3     OH2      OT      -0.834000       15.9994           0   0.00000       0.00000    
     27057 TIP3     714      TIP3     H1       HT       0.417000       1.00800           0   0.00000       0.00000    
     27058 TIP3     714      TIP3     H2       HT       0.417000       1.00800           0   0.00000     -0.301140E-02
     27059 TIP3     715      TIP3     OH2      OT      -0.834000       15.9994           0   0.00000       0.00000    
     27060 TIP3     715      TIP3     H1       HT       0.417000       1.00800           0   0.00000       0.00000    
     27061 TIP3     715      TIP3     H2       HT       0.417000       1.00800           0   0.00000     -0.301140E-02
     27062 TIP3     716      TIP3     OH2      OT      -0.834000       15.9994           0   0.00000       0.00000    
     27063 TIP3     716      TIP3     H1       HT       0.417000       1.00800           0   0.00000       0.00000    
     27064 TIP3     716      TIP3     H2       HT       0.417000       1.00800           0   0.00000     -0.301140E-02
     27065 TIP3     717      TIP3     OH2      OT      -0.834000       15.9994           0   0.00000       0.00000    
     27066 TIP3     717      TIP3     H1       HT       0.417000       1.00800           0   0.00000       0.00000    
     27067 TIP3     717      TIP3     H2       HT       0.417000       1.00800           0   0.00000     -0.301140E-02
     27068 TIP3     718      TIP3     OH2      OT      -0.834000       15.9994           0   0.00000       0.00000    
     27069 TIP3     718      TIP3     H1       HT       0.417000       1.00800           0   0.00000       0.00000    
     27070 TIP3     718      TIP3     H2       HT       0.417000       1.00800           0   0.00000     -0.301140E-02
     27071 TIP3     719      TIP3     OH2      OT      -0.834000       15.9994           0   0.00000       0.00000    
     27072 TIP3     719      TIP3     H1       HT       0.417000       1.00800           0   0.00000       0.00000    
     27073 TIP3     719      TIP3     H2       HT       0.417000       1.00800           0   0.00000     -0.301140E-02
     27074 TIP3     720      TIP3     OH2      OT      -0.834000       15.9994           0   0.00000       0.00000    
     27075 TIP3     720      TIP3     H1       HT       0.417000       1.00800           0   0.00000       0.00000    
     27076 TIP3     720      TIP3     H2       HT       0.417000       1.00800           0   0.00000     -0.301140E-02
     27077 TIP3     721      TIP3     OH2      OT      -0.834000       15.9994           0   0.00000       0.00000    
     27078 TIP3     721      TIP3     H1       HT       0.417000       1.00800           0   0.00000       0.00000    
     27079 TIP3     721      TIP3     H2       HT       0.417000       1.00800           0   0.00000     -0.301140E-02
     27080 TIP3     722      TIP3     OH2      OT      -0.834000       15.9994           0   0.00000       0.00000    
     27081 TIP3     722      TIP3     H1       HT       0.417000       1.00800           0   0.00000       0.00000    
     27082 TIP3     722      TIP3     H2       HT       0.417000       1.00800           0   0.00000     -0.301140E-02
     27083 TIP3     723      TIP3     OH2      OT      -0.834000       15.9994           0   0.00000       0.00000    
     27084 TIP3     723      TIP3     H1       HT       0.417000       1.00800           0   0.00000       0.00000    
     27085 TIP3     723      TIP3     H2       HT       0.417000       1.00800           0   0.00000     -0.301140E-02
     27086 TIP3     724      TIP3     OH2      OT      -0.834000       15.9994           0   0.00000       0.00000    
     27087 TIP3     724      TIP3     H1       HT       0.417000       1.00800           0   0.00000       0.00000    
     27088 TIP3     724      TIP3     H2       HT       0.417000       1.00800           0   0.00000     -0.301140E-02
     27089 TIP3     725      TIP3     OH2      OT      -0.834000       15.9994           0   0.00000       0.00000    
     27090 TIP3     725      TIP3     H1       HT       0.417000       1.00800           0   0.00000       0.00000    
     27091 TIP3     725      TIP3     H2       HT       0.417000       1.00800           0   0.00000     -0.301140E-02
     27092 TIP3     726      TIP3     OH2      OT      -0.834000       15.9994           0   0.00000       0.00000    
     27093 TIP3     726      TIP3     H1       HT       0.417000       1.00800           0   0.00000       0.00000    
     27094 TIP3     726      TIP3     H2       HT       0.417000       1.00800           0   0.00000     -0.301140E-02
     27095 TIP3     727      TIP3     OH2      OT      -0.834000       15.9994           0   0.00000       0.00000    
     27096 TIP3     727      TIP3     H1       HT       0.417000       1.00800           0   0.00000       0.00000    
     27097 TIP3     727      TIP3     H2       HT       0.417000       1.00800           0   0.00000     -0.301140E-02
     27098 TIP3     728      TIP3     OH2      OT      -0.834000       15.9994           0   0.00000       0.00000    
     27099 TIP3     728      TIP3     H1       HT       0.417000       1.00800           0   0.00000       0.00000    
     27100 TIP3     728      TIP3     H2       HT       0.417000       1.00800           0   0.00000     -0.301140E-02
     27101 TIP3     729      TIP3     OH2      OT      -0.834000       15.9994           0   0.00000       0.00000    
     27102 TIP3     729      TIP3     H1       HT       0.417000       1.00800           0   0.00000       0.00000    
     27103 TIP3     729      TIP3     H2       HT       0.417000       1.00800           0   0.00000     -0.301140E-02
     27104 TIP3     730      TIP3     OH2      OT      -0.834000       15.9994           0   0.00000       0.00000    
     27105 TIP3     730      TIP3     H1       HT       0.417000       1.00800           0   0.00000       0.00000    
     27106 TIP3     730      TIP3     H2       HT       0.417000       1.00800           0   0.00000     -0.301140E-02
     27107 TIP3     731      TIP3     OH2      OT      -0.834000       15.9994           0   0.00000       0.00000    
     27108 TIP3     731      TIP3     H1       HT       0.417000       1.00800           0   0.00000       0.00000    
     27109 TIP3     731      TIP3     H2       HT       0.417000       1.00800           0   0.00000     -0.301140E-02
     27110 TIP3     732      TIP3     OH2      OT      -0.834000       15.9994           0   0.00000       0.00000    
     27111 TIP3     732      TIP3     H1       HT       0.417000       1.00800           0   0.00000       0.00000    
     27112 TIP3     732      TIP3     H2       HT       0.417000       1.00800           0   0.00000     -0.301140E-02
     27113 TIP3     733      TIP3     OH2      OT      -0.834000       15.9994           0   0.00000       0.00000    
     27114 TIP3     733      TIP3     H1       HT       0.417000       1.00800           0   0.00000       0.00000    
     27115 TIP3     733      TIP3     H2       HT       0.417000       1.00800           0   0.00000     -0.301140E-02
     27116 TIP3     734      TIP3     OH2      OT      -0.834000       15.9994           0   0.00000       0.00000    
     27117 TIP3     734      TIP3     H1       HT       0.417000       1.00800           0   0.00000       0.00000    
     27118 TIP3     734      TIP3     H2       HT       0.417000       1.00800           0   0.00000     -0.301140E-02
     27119 TIP3     735      TIP3     OH2      OT      -0.834000       15.9994           0   0.00000       0.00000    
     27120 TIP3     735      TIP3     H1       HT       0.417000       1.00800           0   0.00000       0.00000    
     27121 TIP3     735      TIP3     H2       HT       0.417000       1.00800           0   0.00000     -0.301140E-02
     27122 TIP3     736      TIP3     OH2      OT      -0.834000       15.9994           0   0.00000       0.00000    
     27123 TIP3     736      TIP3     H1       HT       0.417000       1.00800           0   0.00000       0.00000    
     27124 TIP3     736      TIP3     H2       HT       0.417000       1.00800           0   0.00000     -0.301140E-02
     27125 TIP3     737      TIP3     OH2      OT      -0.834000       15.9994           0   0.00000       0.00000    
     27126 TIP3     737      TIP3     H1       HT       0.417000       1.00800           0   0.00000       0.00000    
     27127 TIP3     737      TIP3     H2       HT       0.417000       1.00800           0   0.00000     -0.301140E-02
     27128 TIP3     738      TIP3     OH2      OT      -0.834000       15.9994           0   0.00000       0.00000    
     27129 TIP3     738      TIP3     H1       HT       0.417000       1.00800           0   0.00000       0.00000    
     27130 TIP3     738      TIP3     H2       HT       0.417000       1.00800           0   0.00000     -0.301140E-02
     27131 TIP3     739      TIP3     OH2      OT      -0.834000       15.9994           0   0.00000       0.00000    
     27132 TIP3     739      TIP3     H1       HT       0.417000       1.00800           0   0.00000       0.00000    
     27133 TIP3     739      TIP3     H2       HT       0.417000       1.00800           0   0.00000     -0.301140E-02
     27134 TIP3     740      TIP3     OH2      OT      -0.834000       15.9994           0   0.00000       0.00000    
     27135 TIP3     740      TIP3     H1       HT       0.417000       1.00800           0   0.00000       0.00000    
     27136 TIP3     740      TIP3     H2       HT       0.417000       1.00800           0   0.00000     -0.301140E-02
     27137 TIP3     741      TIP3     OH2      OT      -0.834000       15.9994           0   0.00000       0.00000    
     27138 TIP3     741      TIP3     H1       HT       0.417000       1.00800           0   0.00000       0.00000    
     27139 TIP3     741      TIP3     H2       HT       0.417000       1.00800           0   0.00000     -0.301140E-02
     27140 TIP3     742      TIP3     OH2      OT      -0.834000       15.9994           0   0.00000       0.00000    
     27141 TIP3     742      TIP3     H1       HT       0.417000       1.00800           0   0.00000       0.00000    
     27142 TIP3     742      TIP3     H2       HT       0.417000       1.00800           0   0.00000     -0.301140E-02
     27143 TIP3     743      TIP3     OH2      OT      -0.834000       15.9994           0   0.00000       0.00000    
     27144 TIP3     743      TIP3     H1       HT       0.417000       1.00800           0   0.00000       0.00000    
     27145 TIP3     743      TIP3     H2       HT       0.417000       1.00800           0   0.00000     -0.301140E-02
     27146 TIP3     744      TIP3     OH2      OT      -0.834000       15.9994           0   0.00000       0.00000    
     27147 TIP3     744      TIP3     H1       HT       0.417000       1.00800           0   0.00000       0.00000    
     27148 TIP3     744      TIP3     H2       HT       0.417000       1.00800           0   0.00000     -0.301140E-02
     27149 TIP3     745      TIP3     OH2      OT      -0.834000       15.9994           0   0.00000       0.00000    
     27150 TIP3     745      TIP3     H1       HT       0.417000       1.00800           0   0.00000       0.00000    
     27151 TIP3     745      TIP3     H2       HT       0.417000       1.00800           0   0.00000     -0.301140E-02
     27152 TIP3     746      TIP3     OH2      OT      -0.834000       15.9994           0   0.00000       0.00000    
     27153 TIP3     746      TIP3     H1       HT       0.417000       1.00800           0   0.00000       0.00000    
     27154 TIP3     746      TIP3     H2       HT       0.417000       1.00800           0   0.00000     -0.301140E-02
     27155 TIP3     747      TIP3     OH2      OT      -0.834000       15.9994           0   0.00000       0.00000    
     27156 TIP3     747      TIP3     H1       HT       0.417000       1.00800           0   0.00000       0.00000    
     27157 TIP3     747      TIP3     H2       HT       0.417000       1.00800           0   0.00000     -0.301140E-02
     27158 TIP3     748      TIP3     OH2      OT      -0.834000       15.9994           0   0.00000       0.00000    
     27159 TIP3     748      TIP3     H1       HT       0.417000       1.00800           0   0.00000       0.00000    
     27160 TIP3     748      TIP3     H2       HT       0.417000       1.00800           0   0.00000     -0.301140E-02
     27161 TIP3     749      TIP3     OH2      OT      -0.834000       15.9994           0   0.00000       0.00000    
     27162 TIP3     749      TIP3     H1       HT       0.417000       1.00800           0   0.00000       0.00000    
     27163 TIP3     749      TIP3     H2       HT       0.417000       1.00800           0   0.00000     -0.301140E-02
     27164 TIP3     750      TIP3     OH2      OT      -0.834000       15.9994           0   0.00000       0.00000    
     27165 TIP3     750      TIP3     H1       HT       0.417000       1.00800           0   0.00000       0.00000    
     27166 TIP3     750      TIP3     H2       HT       0.417000       1.00800           0   0.00000     -0.301140E-02
     27167 TIP3     751      TIP3     OH2      OT      -0.834000       15.9994           0   0.00000       0.00000    
     27168 TIP3     751      TIP3     H1       HT       0.417000       1.00800           0   0.00000       0.00000    
     27169 TIP3     751      TIP3     H2       HT       0.417000       1.00800           0   0.00000     -0.301140E-02
     27170 TIP3     752      TIP3     OH2      OT      -0.834000       15.9994           0   0.00000       0.00000    
     27171 TIP3     752      TIP3     H1       HT       0.417000       1.00800           0   0.00000       0.00000    
     27172 TIP3     752      TIP3     H2       HT       0.417000       1.00800           0   0.00000     -0.301140E-02
     27173 TIP3     753      TIP3     OH2      OT      -0.834000       15.9994           0   0.00000       0.00000    
     27174 TIP3     753      TIP3     H1       HT       0.417000       1.00800           0   0.00000       0.00000    
     27175 TIP3     753      TIP3     H2       HT       0.417000       1.00800           0   0.00000     -0.301140E-02
     27176 TIP3     754      TIP3     OH2      OT      -0.834000       15.9994           0   0.00000       0.00000    
     27177 TIP3     754      TIP3     H1       HT       0.417000       1.00800           0   0.00000       0.00000    
     27178 TIP3     754      TIP3     H2       HT       0.417000       1.00800           0   0.00000     -0.301140E-02
     27179 TIP3     755      TIP3     OH2      OT      -0.834000       15.9994           0   0.00000       0.00000    
     27180 TIP3     755      TIP3     H1       HT       0.417000       1.00800           0   0.00000       0.00000    
     27181 TIP3     755      TIP3     H2       HT       0.417000       1.00800           0   0.00000     -0.301140E-02
     27182 TIP3     756      TIP3     OH2      OT      -0.834000       15.9994           0   0.00000       0.00000    
     27183 TIP3     756      TIP3     H1       HT       0.417000       1.00800           0   0.00000       0.00000    
     27184 TIP3     756      TIP3     H2       HT       0.417000       1.00800           0   0.00000     -0.301140E-02
     27185 TIP3     757      TIP3     OH2      OT      -0.834000       15.9994           0   0.00000       0.00000    
     27186 TIP3     757      TIP3     H1       HT       0.417000       1.00800           0   0.00000       0.00000    
     27187 TIP3     757      TIP3     H2       HT       0.417000       1.00800           0   0.00000     -0.301140E-02
     27188 TIP3     758      TIP3     OH2      OT      -0.834000       15.9994           0   0.00000       0.00000    
     27189 TIP3     758      TIP3     H1       HT       0.417000       1.00800           0   0.00000       0.00000    
     27190 TIP3     758      TIP3     H2       HT       0.417000       1.00800           0   0.00000     -0.301140E-02
     27191 TIP3     759      TIP3     OH2      OT      -0.834000       15.9994           0   0.00000       0.00000    
     27192 TIP3     759      TIP3     H1       HT       0.417000       1.00800           0   0.00000       0.00000    
     27193 TIP3     759      TIP3     H2       HT       0.417000       1.00800           0   0.00000     -0.301140E-02
     27194 TIP3     760      TIP3     OH2      OT      -0.834000       15.9994           0   0.00000       0.00000    
     27195 TIP3     760      TIP3     H1       HT       0.417000       1.00800           0   0.00000       0.00000    
     27196 TIP3     760      TIP3     H2       HT       0.417000       1.00800           0   0.00000     -0.301140E-02
     27197 TIP3     761      TIP3     OH2      OT      -0.834000       15.9994           0   0.00000       0.00000    
     27198 TIP3     761      TIP3     H1       HT       0.417000       1.00800           0   0.00000       0.00000    
     27199 TIP3     761      TIP3     H2       HT       0.417000       1.00800           0   0.00000     -0.301140E-02
     27200 TIP3     762      TIP3     OH2      OT      -0.834000       15.9994           0   0.00000       0.00000    
     27201 TIP3     762      TIP3     H1       HT       0.417000       1.00800           0   0.00000       0.00000    
     27202 TIP3     762      TIP3     H2       HT       0.417000       1.00800           0   0.00000     -0.301140E-02
     27203 TIP3     763      TIP3     OH2      OT      -0.834000       15.9994           0   0.00000       0.00000    
     27204 TIP3     763      TIP3     H1       HT       0.417000       1.00800           0   0.00000       0.00000    
     27205 TIP3     763      TIP3     H2       HT       0.417000       1.00800           0   0.00000     -0.301140E-02
     27206 TIP3     764      TIP3     OH2      OT      -0.834000       15.9994           0   0.00000       0.00000    
     27207 TIP3     764      TIP3     H1       HT       0.417000       1.00800           0   0.00000       0.00000    
     27208 TIP3     764      TIP3     H2       HT       0.417000       1.00800           0   0.00000     -0.301140E-02
     27209 TIP3     765      TIP3     OH2      OT      -0.834000       15.9994           0   0.00000       0.00000    
     27210 TIP3     765      TIP3     H1       HT       0.417000       1.00800           0   0.00000       0.00000    
     27211 TIP3     765      TIP3     H2       HT       0.417000       1.00800           0   0.00000     -0.301140E-02
     27212 TIP3     766      TIP3     OH2      OT      -0.834000       15.9994           0   0.00000       0.00000    
     27213 TIP3     766      TIP3     H1       HT       0.417000       1.00800           0   0.00000       0.00000    
     27214 TIP3     766      TIP3     H2       HT       0.417000       1.00800           0   0.00000     -0.301140E-02
     27215 TIP3     767      TIP3     OH2      OT      -0.834000       15.9994           0   0.00000       0.00000    
     27216 TIP3     767      TIP3     H1       HT       0.417000       1.00800           0   0.00000       0.00000    
     27217 TIP3     767      TIP3     H2       HT       0.417000       1.00800           0   0.00000     -0.301140E-02
     27218 TIP3     768      TIP3     OH2      OT      -0.834000       15.9994           0   0.00000       0.00000    
     27219 TIP3     768      TIP3     H1       HT       0.417000       1.00800           0   0.00000       0.00000    
     27220 TIP3     768      TIP3     H2       HT       0.417000       1.00800           0   0.00000     -0.301140E-02
     27221 TIP3     769      TIP3     OH2      OT      -0.834000       15.9994           0   0.00000       0.00000    
     27222 TIP3     769      TIP3     H1       HT       0.417000       1.00800           0   0.00000       0.00000    
     27223 TIP3     769      TIP3     H2       HT       0.417000       1.00800           0   0.00000     -0.301140E-02
     27224 TIP3     770      TIP3     OH2      OT      -0.834000       15.9994           0   0.00000       0.00000    
     27225 TIP3     770      TIP3     H1       HT       0.417000       1.00800           0   0.00000       0.00000    
     27226 TIP3     770      TIP3     H2       HT       0.417000       1.00800           0   0.00000     -0.301140E-02
     27227 TIP3     771      TIP3     OH2      OT      -0.834000       15.9994           0   0.00000       0.00000    
     27228 TIP3     771      TIP3     H1       HT       0.417000       1.00800           0   0.00000       0.00000    
     27229 TIP3     771      TIP3     H2       HT       0.417000       1.00800           0   0.00000     -0.301140E-02
     27230 TIP3     772      TIP3     OH2      OT      -0.834000       15.9994           0   0.00000       0.00000    
     27231 TIP3     772      TIP3     H1       HT       0.417000       1.00800           0   0.00000       0.00000    
     27232 TIP3     772      TIP3     H2       HT       0.417000       1.00800           0   0.00000     -0.301140E-02
     27233 TIP3     773      TIP3     OH2      OT      -0.834000       15.9994           0   0.00000       0.00000    
     27234 TIP3     773      TIP3     H1       HT       0.417000       1.00800           0   0.00000       0.00000    
     27235 TIP3     773      TIP3     H2       HT       0.417000       1.00800           0   0.00000     -0.301140E-02
     27236 TIP3     774      TIP3     OH2      OT      -0.834000       15.9994           0   0.00000       0.00000    
     27237 TIP3     774      TIP3     H1       HT       0.417000       1.00800           0   0.00000       0.00000    
     27238 TIP3     774      TIP3     H2       HT       0.417000       1.00800           0   0.00000     -0.301140E-02
     27239 TIP3     775      TIP3     OH2      OT      -0.834000       15.9994           0   0.00000       0.00000    
     27240 TIP3     775      TIP3     H1       HT       0.417000       1.00800           0   0.00000       0.00000    
     27241 TIP3     775      TIP3     H2       HT       0.417000       1.00800           0   0.00000     -0.301140E-02
     27242 TIP3     776      TIP3     OH2      OT      -0.834000       15.9994           0   0.00000       0.00000    
     27243 TIP3     776      TIP3     H1       HT       0.417000       1.00800           0   0.00000       0.00000    
     27244 TIP3     776      TIP3     H2       HT       0.417000       1.00800           0   0.00000     -0.301140E-02
     27245 TIP3     777      TIP3     OH2      OT      -0.834000       15.9994           0   0.00000       0.00000    
     27246 TIP3     777      TIP3     H1       HT       0.417000       1.00800           0   0.00000       0.00000    
     27247 TIP3     777      TIP3     H2       HT       0.417000       1.00800           0   0.00000     -0.301140E-02
     27248 TIP3     778      TIP3     OH2      OT      -0.834000       15.9994           0   0.00000       0.00000    
     27249 TIP3     778      TIP3     H1       HT       0.417000       1.00800           0   0.00000       0.00000    
     27250 TIP3     778      TIP3     H2       HT       0.417000       1.00800           0   0.00000     -0.301140E-02
     27251 TIP3     779      TIP3     OH2      OT      -0.834000       15.9994           0   0.00000       0.00000    
     27252 TIP3     779      TIP3     H1       HT       0.417000       1.00800           0   0.00000       0.00000    
     27253 TIP3     779      TIP3     H2       HT       0.417000       1.00800           0   0.00000     -0.301140E-02
     27254 TIP3     780      TIP3     OH2      OT      -0.834000       15.9994           0   0.00000       0.00000    
     27255 TIP3     780      TIP3     H1       HT       0.417000       1.00800           0   0.00000       0.00000    
     27256 TIP3     780      TIP3     H2       HT       0.417000       1.00800           0   0.00000     -0.301140E-02
     27257 TIP3     781      TIP3     OH2      OT      -0.834000       15.9994           0   0.00000       0.00000    
     27258 TIP3     781      TIP3     H1       HT       0.417000       1.00800           0   0.00000       0.00000    
     27259 TIP3     781      TIP3     H2       HT       0.417000       1.00800           0   0.00000     -0.301140E-02
     27260 TIP3     782      TIP3     OH2      OT      -0.834000       15.9994           0   0.00000       0.00000    
     27261 TIP3     782      TIP3     H1       HT       0.417000       1.00800           0   0.00000       0.00000    
     27262 TIP3     782      TIP3     H2       HT       0.417000       1.00800           0   0.00000     -0.301140E-02
     27263 TIP3     783      TIP3     OH2      OT      -0.834000       15.9994           0   0.00000       0.00000    
     27264 TIP3     783      TIP3     H1       HT       0.417000       1.00800           0   0.00000       0.00000    
     27265 TIP3     783      TIP3     H2       HT       0.417000       1.00800           0   0.00000     -0.301140E-02
     27266 TIP3     784      TIP3     OH2      OT      -0.834000       15.9994           0   0.00000       0.00000    
     27267 TIP3     784      TIP3     H1       HT       0.417000       1.00800           0   0.00000       0.00000    
     27268 TIP3     784      TIP3     H2       HT       0.417000       1.00800           0   0.00000     -0.301140E-02
     27269 TIP3     785      TIP3     OH2      OT      -0.834000       15.9994           0   0.00000       0.00000    
     27270 TIP3     785      TIP3     H1       HT       0.417000       1.00800           0   0.00000       0.00000    
     27271 TIP3     785      TIP3     H2       HT       0.417000       1.00800           0   0.00000     -0.301140E-02
     27272 TIP3     786      TIP3     OH2      OT      -0.834000       15.9994           0   0.00000       0.00000    
     27273 TIP3     786      TIP3     H1       HT       0.417000       1.00800           0   0.00000       0.00000    
     27274 TIP3     786      TIP3     H2       HT       0.417000       1.00800           0   0.00000     -0.301140E-02
     27275 TIP3     787      TIP3     OH2      OT      -0.834000       15.9994           0   0.00000       0.00000    
     27276 TIP3     787      TIP3     H1       HT       0.417000       1.00800           0   0.00000       0.00000    
     27277 TIP3     787      TIP3     H2       HT       0.417000       1.00800           0   0.00000     -0.301140E-02
     27278 TIP3     788      TIP3     OH2      OT      -0.834000       15.9994           0   0.00000       0.00000    
     27279 TIP3     788      TIP3     H1       HT       0.417000       1.00800           0   0.00000       0.00000    
     27280 TIP3     788      TIP3     H2       HT       0.417000       1.00800           0   0.00000     -0.301140E-02
     27281 TIP3     789      TIP3     OH2      OT      -0.834000       15.9994           0   0.00000       0.00000    
     27282 TIP3     789      TIP3     H1       HT       0.417000       1.00800           0   0.00000       0.00000    
     27283 TIP3     789      TIP3     H2       HT       0.417000       1.00800           0   0.00000     -0.301140E-02
     27284 TIP3     790      TIP3     OH2      OT      -0.834000       15.9994           0   0.00000       0.00000    
     27285 TIP3     790      TIP3     H1       HT       0.417000       1.00800           0   0.00000       0.00000    
     27286 TIP3     790      TIP3     H2       HT       0.417000       1.00800           0   0.00000     -0.301140E-02
     27287 TIP3     791      TIP3     OH2      OT      -0.834000       15.9994           0   0.00000       0.00000    
     27288 TIP3     791      TIP3     H1       HT       0.417000       1.00800           0   0.00000       0.00000    
     27289 TIP3     791      TIP3     H2       HT       0.417000       1.00800           0   0.00000     -0.301140E-02
     27290 TIP3     792      TIP3     OH2      OT      -0.834000       15.9994           0   0.00000       0.00000    
     27291 TIP3     792      TIP3     H1       HT       0.417000       1.00800           0   0.00000       0.00000    
     27292 TIP3     792      TIP3     H2       HT       0.417000       1.00800           0   0.00000     -0.301140E-02
     27293 TIP3     793      TIP3     OH2      OT      -0.834000       15.9994           0   0.00000       0.00000    
     27294 TIP3     793      TIP3     H1       HT       0.417000       1.00800           0   0.00000       0.00000    
     27295 TIP3     793      TIP3     H2       HT       0.417000       1.00800           0   0.00000     -0.301140E-02
     27296 TIP3     794      TIP3     OH2      OT      -0.834000       15.9994           0   0.00000       0.00000    
     27297 TIP3     794      TIP3     H1       HT       0.417000       1.00800           0   0.00000       0.00000    
     27298 TIP3     794      TIP3     H2       HT       0.417000       1.00800           0   0.00000     -0.301140E-02
     27299 TIP3     795      TIP3     OH2      OT      -0.834000       15.9994           0   0.00000       0.00000    
     27300 TIP3     795      TIP3     H1       HT       0.417000       1.00800           0   0.00000       0.00000    
     27301 TIP3     795      TIP3     H2       HT       0.417000       1.00800           0   0.00000     -0.301140E-02
     27302 TIP3     796      TIP3     OH2      OT      -0.834000       15.9994           0   0.00000       0.00000    
     27303 TIP3     796      TIP3     H1       HT       0.417000       1.00800           0   0.00000       0.00000    
     27304 TIP3     796      TIP3     H2       HT       0.417000       1.00800           0   0.00000     -0.301140E-02
     27305 TIP3     797      TIP3     OH2      OT      -0.834000       15.9994           0   0.00000       0.00000    
     27306 TIP3     797      TIP3     H1       HT       0.417000       1.00800           0   0.00000       0.00000    
     27307 TIP3     797      TIP3     H2       HT       0.417000       1.00800           0   0.00000     -0.301140E-02
     27308 TIP3     798      TIP3     OH2      OT      -0.834000       15.9994           0   0.00000       0.00000    
     27309 TIP3     798      TIP3     H1       HT       0.417000       1.00800           0   0.00000       0.00000    
     27310 TIP3     798      TIP3     H2       HT       0.417000       1.00800           0   0.00000     -0.301140E-02
     27311 TIP3     799      TIP3     OH2      OT      -0.834000       15.9994           0   0.00000       0.00000    
     27312 TIP3     799      TIP3     H1       HT       0.417000       1.00800           0   0.00000       0.00000    
     27313 TIP3     799      TIP3     H2       HT       0.417000       1.00800           0   0.00000     -0.301140E-02
     27314 TIP3     800      TIP3     OH2      OT      -0.834000       15.9994           0   0.00000       0.00000    
     27315 TIP3     800      TIP3     H1       HT       0.417000       1.00800           0   0.00000       0.00000    
     27316 TIP3     800      TIP3     H2       HT       0.417000       1.00800           0   0.00000     -0.301140E-02
     27317 TIP3     801      TIP3     OH2      OT      -0.834000       15.9994           0   0.00000       0.00000    
     27318 TIP3     801      TIP3     H1       HT       0.417000       1.00800           0   0.00000       0.00000    
     27319 TIP3     801      TIP3     H2       HT       0.417000       1.00800           0   0.00000     -0.301140E-02
     27320 TIP3     802      TIP3     OH2      OT      -0.834000       15.9994           0   0.00000       0.00000    
     27321 TIP3     802      TIP3     H1       HT       0.417000       1.00800           0   0.00000       0.00000    
     27322 TIP3     802      TIP3     H2       HT       0.417000       1.00800           0   0.00000     -0.301140E-02
     27323 TIP3     803      TIP3     OH2      OT      -0.834000       15.9994           0   0.00000       0.00000    
     27324 TIP3     803      TIP3     H1       HT       0.417000       1.00800           0   0.00000       0.00000    
     27325 TIP3     803      TIP3     H2       HT       0.417000       1.00800           0   0.00000     -0.301140E-02
     27326 TIP3     804      TIP3     OH2      OT      -0.834000       15.9994           0   0.00000       0.00000    
     27327 TIP3     804      TIP3     H1       HT       0.417000       1.00800           0   0.00000       0.00000    
     27328 TIP3     804      TIP3     H2       HT       0.417000       1.00800           0   0.00000     -0.301140E-02
     27329 TIP3     805      TIP3     OH2      OT      -0.834000       15.9994           0   0.00000       0.00000    
     27330 TIP3     805      TIP3     H1       HT       0.417000       1.00800           0   0.00000       0.00000    
     27331 TIP3     805      TIP3     H2       HT       0.417000       1.00800           0   0.00000     -0.301140E-02
     27332 TIP3     806      TIP3     OH2      OT      -0.834000       15.9994           0   0.00000       0.00000    
     27333 TIP3     806      TIP3     H1       HT       0.417000       1.00800           0   0.00000       0.00000    
     27334 TIP3     806      TIP3     H2       HT       0.417000       1.00800           0   0.00000     -0.301140E-02
     27335 TIP3     807      TIP3     OH2      OT      -0.834000       15.9994           0   0.00000       0.00000    
     27336 TIP3     807      TIP3     H1       HT       0.417000       1.00800           0   0.00000       0.00000    
     27337 TIP3     807      TIP3     H2       HT       0.417000       1.00800           0   0.00000     -0.301140E-02
     27338 TIP3     808      TIP3     OH2      OT      -0.834000       15.9994           0   0.00000       0.00000    
     27339 TIP3     808      TIP3     H1       HT       0.417000       1.00800           0   0.00000       0.00000    
     27340 TIP3     808      TIP3     H2       HT       0.417000       1.00800           0   0.00000     -0.301140E-02
     27341 TIP3     809      TIP3     OH2      OT      -0.834000       15.9994           0   0.00000       0.00000    
     27342 TIP3     809      TIP3     H1       HT       0.417000       1.00800           0   0.00000       0.00000    
     27343 TIP3     809      TIP3     H2       HT       0.417000       1.00800           0   0.00000     -0.301140E-02
     27344 TIP3     810      TIP3     OH2      OT      -0.834000       15.9994           0   0.00000       0.00000    
     27345 TIP3     810      TIP3     H1       HT       0.417000       1.00800           0   0.00000       0.00000    
     27346 TIP3     810      TIP3     H2       HT       0.417000       1.00800           0   0.00000     -0.301140E-02
     27347 TIP3     811      TIP3     OH2      OT      -0.834000       15.9994           0   0.00000       0.00000    
     27348 TIP3     811      TIP3     H1       HT       0.417000       1.00800           0   0.00000       0.00000    
     27349 TIP3     811      TIP3     H2       HT       0.417000       1.00800           0   0.00000     -0.301140E-02
     27350 TIP3     812      TIP3     OH2      OT      -0.834000       15.9994           0   0.00000       0.00000    
     27351 TIP3     812      TIP3     H1       HT       0.417000       1.00800           0   0.00000       0.00000    
     27352 TIP3     812      TIP3     H2       HT       0.417000       1.00800           0   0.00000     -0.301140E-02
     27353 TIP3     813      TIP3     OH2      OT      -0.834000       15.9994           0   0.00000       0.00000    
     27354 TIP3     813      TIP3     H1       HT       0.417000       1.00800           0   0.00000       0.00000    
     27355 TIP3     813      TIP3     H2       HT       0.417000       1.00800           0   0.00000     -0.301140E-02
     27356 TIP3     814      TIP3     OH2      OT      -0.834000       15.9994           0   0.00000       0.00000    
     27357 TIP3     814      TIP3     H1       HT       0.417000       1.00800           0   0.00000       0.00000    
     27358 TIP3     814      TIP3     H2       HT       0.417000       1.00800           0   0.00000     -0.301140E-02
     27359 TIP3     815      TIP3     OH2      OT      -0.834000       15.9994           0   0.00000       0.00000    
     27360 TIP3     815      TIP3     H1       HT       0.417000       1.00800           0   0.00000       0.00000    
     27361 TIP3     815      TIP3     H2       HT       0.417000       1.00800           0   0.00000     -0.301140E-02
     27362 TIP3     816      TIP3     OH2      OT      -0.834000       15.9994           0   0.00000       0.00000    
     27363 TIP3     816      TIP3     H1       HT       0.417000       1.00800           0   0.00000       0.00000    
     27364 TIP3     816      TIP3     H2       HT       0.417000       1.00800           0   0.00000     -0.301140E-02
     27365 TIP3     817      TIP3     OH2      OT      -0.834000       15.9994           0   0.00000       0.00000    
     27366 TIP3     817      TIP3     H1       HT       0.417000       1.00800           0   0.00000       0.00000    
     27367 TIP3     817      TIP3     H2       HT       0.417000       1.00800           0   0.00000     -0.301140E-02
     27368 TIP3     818      TIP3     OH2      OT      -0.834000       15.9994           0   0.00000       0.00000    
     27369 TIP3     818      TIP3     H1       HT       0.417000       1.00800           0   0.00000       0.00000    
     27370 TIP3     818      TIP3     H2       HT       0.417000       1.00800           0   0.00000     -0.301140E-02
     27371 TIP3     819      TIP3     OH2      OT      -0.834000       15.9994           0   0.00000       0.00000    
     27372 TIP3     819      TIP3     H1       HT       0.417000       1.00800           0   0.00000       0.00000    
     27373 TIP3     819      TIP3     H2       HT       0.417000       1.00800           0   0.00000     -0.301140E-02
     27374 TIP3     820      TIP3     OH2      OT      -0.834000       15.9994           0   0.00000       0.00000    
     27375 TIP3     820      TIP3     H1       HT       0.417000       1.00800           0   0.00000       0.00000    
     27376 TIP3     820      TIP3     H2       HT       0.417000       1.00800           0   0.00000     -0.301140E-02
     27377 TIP3     821      TIP3     OH2      OT      -0.834000       15.9994           0   0.00000       0.00000    
     27378 TIP3     821      TIP3     H1       HT       0.417000       1.00800           0   0.00000       0.00000    
     27379 TIP3     821      TIP3     H2       HT       0.417000       1.00800           0   0.00000     -0.301140E-02
     27380 TIP3     822      TIP3     OH2      OT      -0.834000       15.9994           0   0.00000       0.00000    
     27381 TIP3     822      TIP3     H1       HT       0.417000       1.00800           0   0.00000       0.00000    
     27382 TIP3     822      TIP3     H2       HT       0.417000       1.00800           0   0.00000     -0.301140E-02
     27383 TIP3     823      TIP3     OH2      OT      -0.834000       15.9994           0   0.00000       0.00000    
     27384 TIP3     823      TIP3     H1       HT       0.417000       1.00800           0   0.00000       0.00000    
     27385 TIP3     823      TIP3     H2       HT       0.417000       1.00800           0   0.00000     -0.301140E-02
     27386 TIP3     824      TIP3     OH2      OT      -0.834000       15.9994           0   0.00000       0.00000    
     27387 TIP3     824      TIP3     H1       HT       0.417000       1.00800           0   0.00000       0.00000    
     27388 TIP3     824      TIP3     H2       HT       0.417000       1.00800           0   0.00000     -0.301140E-02
     27389 TIP3     825      TIP3     OH2      OT      -0.834000       15.9994           0   0.00000       0.00000    
     27390 TIP3     825      TIP3     H1       HT       0.417000       1.00800           0   0.00000       0.00000    
     27391 TIP3     825      TIP3     H2       HT       0.417000       1.00800           0   0.00000     -0.301140E-02
     27392 TIP3     826      TIP3     OH2      OT      -0.834000       15.9994           0   0.00000       0.00000    
     27393 TIP3     826      TIP3     H1       HT       0.417000       1.00800           0   0.00000       0.00000    
     27394 TIP3     826      TIP3     H2       HT       0.417000       1.00800           0   0.00000     -0.301140E-02
     27395 TIP3     827      TIP3     OH2      OT      -0.834000       15.9994           0   0.00000       0.00000    
     27396 TIP3     827      TIP3     H1       HT       0.417000       1.00800           0   0.00000       0.00000    
     27397 TIP3     827      TIP3     H2       HT       0.417000       1.00800           0   0.00000     -0.301140E-02
     27398 TIP3     828      TIP3     OH2      OT      -0.834000       15.9994           0   0.00000       0.00000    
     27399 TIP3     828      TIP3     H1       HT       0.417000       1.00800           0   0.00000       0.00000    
     27400 TIP3     828      TIP3     H2       HT       0.417000       1.00800           0   0.00000     -0.301140E-02
     27401 TIP3     829      TIP3     OH2      OT      -0.834000       15.9994           0   0.00000       0.00000    
     27402 TIP3     829      TIP3     H1       HT       0.417000       1.00800           0   0.00000       0.00000    
     27403 TIP3     829      TIP3     H2       HT       0.417000       1.00800           0   0.00000     -0.301140E-02
     27404 TIP3     830      TIP3     OH2      OT      -0.834000       15.9994           0   0.00000       0.00000    
     27405 TIP3     830      TIP3     H1       HT       0.417000       1.00800           0   0.00000       0.00000    
     27406 TIP3     830      TIP3     H2       HT       0.417000       1.00800           0   0.00000     -0.301140E-02
     27407 TIP3     831      TIP3     OH2      OT      -0.834000       15.9994           0   0.00000       0.00000    
     27408 TIP3     831      TIP3     H1       HT       0.417000       1.00800           0   0.00000       0.00000    
     27409 TIP3     831      TIP3     H2       HT       0.417000       1.00800           0   0.00000     -0.301140E-02
     27410 TIP3     832      TIP3     OH2      OT      -0.834000       15.9994           0   0.00000       0.00000    
     27411 TIP3     832      TIP3     H1       HT       0.417000       1.00800           0   0.00000       0.00000    
     27412 TIP3     832      TIP3     H2       HT       0.417000       1.00800           0   0.00000     -0.301140E-02
     27413 TIP3     833      TIP3     OH2      OT      -0.834000       15.9994           0   0.00000       0.00000    
     27414 TIP3     833      TIP3     H1       HT       0.417000       1.00800           0   0.00000       0.00000    
     27415 TIP3     833      TIP3     H2       HT       0.417000       1.00800           0   0.00000     -0.301140E-02
     27416 TIP3     834      TIP3     OH2      OT      -0.834000       15.9994           0   0.00000       0.00000    
     27417 TIP3     834      TIP3     H1       HT       0.417000       1.00800           0   0.00000       0.00000    
     27418 TIP3     834      TIP3     H2       HT       0.417000       1.00800           0   0.00000     -0.301140E-02
     27419 TIP3     835      TIP3     OH2      OT      -0.834000       15.9994           0   0.00000       0.00000    
     27420 TIP3     835      TIP3     H1       HT       0.417000       1.00800           0   0.00000       0.00000    
     27421 TIP3     835      TIP3     H2       HT       0.417000       1.00800           0   0.00000     -0.301140E-02
     27422 TIP3     836      TIP3     OH2      OT      -0.834000       15.9994           0   0.00000       0.00000    
     27423 TIP3     836      TIP3     H1       HT       0.417000       1.00800           0   0.00000       0.00000    
     27424 TIP3     836      TIP3     H2       HT       0.417000       1.00800           0   0.00000     -0.301140E-02
     27425 TIP3     837      TIP3     OH2      OT      -0.834000       15.9994           0   0.00000       0.00000    
     27426 TIP3     837      TIP3     H1       HT       0.417000       1.00800           0   0.00000       0.00000    
     27427 TIP3     837      TIP3     H2       HT       0.417000       1.00800           0   0.00000     -0.301140E-02
     27428 TIP3     838      TIP3     OH2      OT      -0.834000       15.9994           0   0.00000       0.00000    
     27429 TIP3     838      TIP3     H1       HT       0.417000       1.00800           0   0.00000       0.00000    
     27430 TIP3     838      TIP3     H2       HT       0.417000       1.00800           0   0.00000     -0.301140E-02
     27431 TIP3     839      TIP3     OH2      OT      -0.834000       15.9994           0   0.00000       0.00000    
     27432 TIP3     839      TIP3     H1       HT       0.417000       1.00800           0   0.00000       0.00000    
     27433 TIP3     839      TIP3     H2       HT       0.417000       1.00800           0   0.00000     -0.301140E-02
     27434 TIP3     840      TIP3     OH2      OT      -0.834000       15.9994           0   0.00000       0.00000    
     27435 TIP3     840      TIP3     H1       HT       0.417000       1.00800           0   0.00000       0.00000    
     27436 TIP3     840      TIP3     H2       HT       0.417000       1.00800           0   0.00000     -0.301140E-02
     27437 TIP3     841      TIP3     OH2      OT      -0.834000       15.9994           0   0.00000       0.00000    
     27438 TIP3     841      TIP3     H1       HT       0.417000       1.00800           0   0.00000       0.00000    
     27439 TIP3     841      TIP3     H2       HT       0.417000       1.00800           0   0.00000     -0.301140E-02
     27440 TIP3     842      TIP3     OH2      OT      -0.834000       15.9994           0   0.00000       0.00000    
     27441 TIP3     842      TIP3     H1       HT       0.417000       1.00800           0   0.00000       0.00000    
     27442 TIP3     842      TIP3     H2       HT       0.417000       1.00800           0   0.00000     -0.301140E-02
     27443 TIP3     843      TIP3     OH2      OT      -0.834000       15.9994           0   0.00000       0.00000    
     27444 TIP3     843      TIP3     H1       HT       0.417000       1.00800           0   0.00000       0.00000    
     27445 TIP3     843      TIP3     H2       HT       0.417000       1.00800           0   0.00000     -0.301140E-02
     27446 TIP3     844      TIP3     OH2      OT      -0.834000       15.9994           0   0.00000       0.00000    
     27447 TIP3     844      TIP3     H1       HT       0.417000       1.00800           0   0.00000       0.00000    
     27448 TIP3     844      TIP3     H2       HT       0.417000       1.00800           0   0.00000     -0.301140E-02
     27449 TIP3     845      TIP3     OH2      OT      -0.834000       15.9994           0   0.00000       0.00000    
     27450 TIP3     845      TIP3     H1       HT       0.417000       1.00800           0   0.00000       0.00000    
     27451 TIP3     845      TIP3     H2       HT       0.417000       1.00800           0   0.00000     -0.301140E-02
     27452 TIP3     846      TIP3     OH2      OT      -0.834000       15.9994           0   0.00000       0.00000    
     27453 TIP3     846      TIP3     H1       HT       0.417000       1.00800           0   0.00000       0.00000    
     27454 TIP3     846      TIP3     H2       HT       0.417000       1.00800           0   0.00000     -0.301140E-02
     27455 TIP3     847      TIP3     OH2      OT      -0.834000       15.9994           0   0.00000       0.00000    
     27456 TIP3     847      TIP3     H1       HT       0.417000       1.00800           0   0.00000       0.00000    
     27457 TIP3     847      TIP3     H2       HT       0.417000       1.00800           0   0.00000     -0.301140E-02
     27458 TIP3     848      TIP3     OH2      OT      -0.834000       15.9994           0   0.00000       0.00000    
     27459 TIP3     848      TIP3     H1       HT       0.417000       1.00800           0   0.00000       0.00000    
     27460 TIP3     848      TIP3     H2       HT       0.417000       1.00800           0   0.00000     -0.301140E-02
     27461 TIP3     849      TIP3     OH2      OT      -0.834000       15.9994           0   0.00000       0.00000    
     27462 TIP3     849      TIP3     H1       HT       0.417000       1.00800           0   0.00000       0.00000    
     27463 TIP3     849      TIP3     H2       HT       0.417000       1.00800           0   0.00000     -0.301140E-02
     27464 TIP3     850      TIP3     OH2      OT      -0.834000       15.9994           0   0.00000       0.00000    
     27465 TIP3     850      TIP3     H1       HT       0.417000       1.00800           0   0.00000       0.00000    
     27466 TIP3     850      TIP3     H2       HT       0.417000       1.00800           0   0.00000     -0.301140E-02
     27467 TIP3     851      TIP3     OH2      OT      -0.834000       15.9994           0   0.00000       0.00000    
     27468 TIP3     851      TIP3     H1       HT       0.417000       1.00800           0   0.00000       0.00000    
     27469 TIP3     851      TIP3     H2       HT       0.417000       1.00800           0   0.00000     -0.301140E-02
     27470 TIP3     852      TIP3     OH2      OT      -0.834000       15.9994           0   0.00000       0.00000    
     27471 TIP3     852      TIP3     H1       HT       0.417000       1.00800           0   0.00000       0.00000    
     27472 TIP3     852      TIP3     H2       HT       0.417000       1.00800           0   0.00000     -0.301140E-02
     27473 TIP3     853      TIP3     OH2      OT      -0.834000       15.9994           0   0.00000       0.00000    
     27474 TIP3     853      TIP3     H1       HT       0.417000       1.00800           0   0.00000       0.00000    
     27475 TIP3     853      TIP3     H2       HT       0.417000       1.00800           0   0.00000     -0.301140E-02
     27476 TIP3     854      TIP3     OH2      OT      -0.834000       15.9994           0   0.00000       0.00000    
     27477 TIP3     854      TIP3     H1       HT       0.417000       1.00800           0   0.00000       0.00000    
     27478 TIP3     854      TIP3     H2       HT       0.417000       1.00800           0   0.00000     -0.301140E-02
     27479 TIP3     855      TIP3     OH2      OT      -0.834000       15.9994           0   0.00000       0.00000    
     27480 TIP3     855      TIP3     H1       HT       0.417000       1.00800           0   0.00000       0.00000    
     27481 TIP3     855      TIP3     H2       HT       0.417000       1.00800           0   0.00000     -0.301140E-02
     27482 TIP3     856      TIP3     OH2      OT      -0.834000       15.9994           0   0.00000       0.00000    
     27483 TIP3     856      TIP3     H1       HT       0.417000       1.00800           0   0.00000       0.00000    
     27484 TIP3     856      TIP3     H2       HT       0.417000       1.00800           0   0.00000     -0.301140E-02
     27485 TIP3     857      TIP3     OH2      OT      -0.834000       15.9994           0   0.00000       0.00000    
     27486 TIP3     857      TIP3     H1       HT       0.417000       1.00800           0   0.00000       0.00000    
     27487 TIP3     857      TIP3     H2       HT       0.417000       1.00800           0   0.00000     -0.301140E-02
     27488 TIP3     858      TIP3     OH2      OT      -0.834000       15.9994           0   0.00000       0.00000    
     27489 TIP3     858      TIP3     H1       HT       0.417000       1.00800           0   0.00000       0.00000    
     27490 TIP3     858      TIP3     H2       HT       0.417000       1.00800           0   0.00000     -0.301140E-02
     27491 TIP3     859      TIP3     OH2      OT      -0.834000       15.9994           0   0.00000       0.00000    
     27492 TIP3     859      TIP3     H1       HT       0.417000       1.00800           0   0.00000       0.00000    
     27493 TIP3     859      TIP3     H2       HT       0.417000       1.00800           0   0.00000     -0.301140E-02
     27494 TIP3     860      TIP3     OH2      OT      -0.834000       15.9994           0   0.00000       0.00000    
     27495 TIP3     860      TIP3     H1       HT       0.417000       1.00800           0   0.00000       0.00000    
     27496 TIP3     860      TIP3     H2       HT       0.417000       1.00800           0   0.00000     -0.301140E-02
     27497 TIP3     861      TIP3     OH2      OT      -0.834000       15.9994           0   0.00000       0.00000    
     27498 TIP3     861      TIP3     H1       HT       0.417000       1.00800           0   0.00000       0.00000    
     27499 TIP3     861      TIP3     H2       HT       0.417000       1.00800           0   0.00000     -0.301140E-02
     27500 TIP3     862      TIP3     OH2      OT      -0.834000       15.9994           0   0.00000       0.00000    
     27501 TIP3     862      TIP3     H1       HT       0.417000       1.00800           0   0.00000       0.00000    
     27502 TIP3     862      TIP3     H2       HT       0.417000       1.00800           0   0.00000     -0.301140E-02
     27503 TIP3     863      TIP3     OH2      OT      -0.834000       15.9994           0   0.00000       0.00000    
     27504 TIP3     863      TIP3     H1       HT       0.417000       1.00800           0   0.00000       0.00000    
     27505 TIP3     863      TIP3     H2       HT       0.417000       1.00800           0   0.00000     -0.301140E-02
     27506 TIP3     864      TIP3     OH2      OT      -0.834000       15.9994           0   0.00000       0.00000    
     27507 TIP3     864      TIP3     H1       HT       0.417000       1.00800           0   0.00000       0.00000    
     27508 TIP3     864      TIP3     H2       HT       0.417000       1.00800           0   0.00000     -0.301140E-02
     27509 TIP3     865      TIP3     OH2      OT      -0.834000       15.9994           0   0.00000       0.00000    
     27510 TIP3     865      TIP3     H1       HT       0.417000       1.00800           0   0.00000       0.00000    
     27511 TIP3     865      TIP3     H2       HT       0.417000       1.00800           0   0.00000     -0.301140E-02
     27512 TIP3     866      TIP3     OH2      OT      -0.834000       15.9994           0   0.00000       0.00000    
     27513 TIP3     866      TIP3     H1       HT       0.417000       1.00800           0   0.00000       0.00000    
     27514 TIP3     866      TIP3     H2       HT       0.417000       1.00800           0   0.00000     -0.301140E-02
     27515 TIP3     867      TIP3     OH2      OT      -0.834000       15.9994           0   0.00000       0.00000    
     27516 TIP3     867      TIP3     H1       HT       0.417000       1.00800           0   0.00000       0.00000    
     27517 TIP3     867      TIP3     H2       HT       0.417000       1.00800           0   0.00000     -0.301140E-02
     27518 TIP3     868      TIP3     OH2      OT      -0.834000       15.9994           0   0.00000       0.00000    
     27519 TIP3     868      TIP3     H1       HT       0.417000       1.00800           0   0.00000       0.00000    
     27520 TIP3     868      TIP3     H2       HT       0.417000       1.00800           0   0.00000     -0.301140E-02
     27521 TIP3     869      TIP3     OH2      OT      -0.834000       15.9994           0   0.00000       0.00000    
     27522 TIP3     869      TIP3     H1       HT       0.417000       1.00800           0   0.00000       0.00000    
     27523 TIP3     869      TIP3     H2       HT       0.417000       1.00800           0   0.00000     -0.301140E-02
     27524 TIP3     870      TIP3     OH2      OT      -0.834000       15.9994           0   0.00000       0.00000    
     27525 TIP3     870      TIP3     H1       HT       0.417000       1.00800           0   0.00000       0.00000    
     27526 TIP3     870      TIP3     H2       HT       0.417000       1.00800           0   0.00000     -0.301140E-02
     27527 TIP3     871      TIP3     OH2      OT      -0.834000       15.9994           0   0.00000       0.00000    
     27528 TIP3     871      TIP3     H1       HT       0.417000       1.00800           0   0.00000       0.00000    
     27529 TIP3     871      TIP3     H2       HT       0.417000       1.00800           0   0.00000     -0.301140E-02
     27530 TIP3     872      TIP3     OH2      OT      -0.834000       15.9994           0   0.00000       0.00000    
     27531 TIP3     872      TIP3     H1       HT       0.417000       1.00800           0   0.00000       0.00000    
     27532 TIP3     872      TIP3     H2       HT       0.417000       1.00800           0   0.00000     -0.301140E-02
     27533 TIP3     873      TIP3     OH2      OT      -0.834000       15.9994           0   0.00000       0.00000    
     27534 TIP3     873      TIP3     H1       HT       0.417000       1.00800           0   0.00000       0.00000    
     27535 TIP3     873      TIP3     H2       HT       0.417000       1.00800           0   0.00000     -0.301140E-02
     27536 TIP3     874      TIP3     OH2      OT      -0.834000       15.9994           0   0.00000       0.00000    
     27537 TIP3     874      TIP3     H1       HT       0.417000       1.00800           0   0.00000       0.00000    
     27538 TIP3     874      TIP3     H2       HT       0.417000       1.00800           0   0.00000     -0.301140E-02
     27539 TIP3     875      TIP3     OH2      OT      -0.834000       15.9994           0   0.00000       0.00000    
     27540 TIP3     875      TIP3     H1       HT       0.417000       1.00800           0   0.00000       0.00000    
     27541 TIP3     875      TIP3     H2       HT       0.417000       1.00800           0   0.00000     -0.301140E-02
     27542 TIP3     876      TIP3     OH2      OT      -0.834000       15.9994           0   0.00000       0.00000    
     27543 TIP3     876      TIP3     H1       HT       0.417000       1.00800           0   0.00000       0.00000    
     27544 TIP3     876      TIP3     H2       HT       0.417000       1.00800           0   0.00000     -0.301140E-02
     27545 TIP3     877      TIP3     OH2      OT      -0.834000       15.9994           0   0.00000       0.00000    
     27546 TIP3     877      TIP3     H1       HT       0.417000       1.00800           0   0.00000       0.00000    
     27547 TIP3     877      TIP3     H2       HT       0.417000       1.00800           0   0.00000     -0.301140E-02
     27548 TIP3     878      TIP3     OH2      OT      -0.834000       15.9994           0   0.00000       0.00000    
     27549 TIP3     878      TIP3     H1       HT       0.417000       1.00800           0   0.00000       0.00000    
     27550 TIP3     878      TIP3     H2       HT       0.417000       1.00800           0   0.00000     -0.301140E-02
     27551 TIP3     879      TIP3     OH2      OT      -0.834000       15.9994           0   0.00000       0.00000    
     27552 TIP3     879      TIP3     H1       HT       0.417000       1.00800           0   0.00000       0.00000    
     27553 TIP3     879      TIP3     H2       HT       0.417000       1.00800           0   0.00000     -0.301140E-02
     27554 TIP3     880      TIP3     OH2      OT      -0.834000       15.9994           0   0.00000       0.00000    
     27555 TIP3     880      TIP3     H1       HT       0.417000       1.00800           0   0.00000       0.00000    
     27556 TIP3     880      TIP3     H2       HT       0.417000       1.00800           0   0.00000     -0.301140E-02
     27557 TIP3     881      TIP3     OH2      OT      -0.834000       15.9994           0   0.00000       0.00000    
     27558 TIP3     881      TIP3     H1       HT       0.417000       1.00800           0   0.00000       0.00000    
     27559 TIP3     881      TIP3     H2       HT       0.417000       1.00800           0   0.00000     -0.301140E-02
     27560 TIP3     882      TIP3     OH2      OT      -0.834000       15.9994           0   0.00000       0.00000    
     27561 TIP3     882      TIP3     H1       HT       0.417000       1.00800           0   0.00000       0.00000    
     27562 TIP3     882      TIP3     H2       HT       0.417000       1.00800           0   0.00000     -0.301140E-02
     27563 TIP3     883      TIP3     OH2      OT      -0.834000       15.9994           0   0.00000       0.00000    
     27564 TIP3     883      TIP3     H1       HT       0.417000       1.00800           0   0.00000       0.00000    
     27565 TIP3     883      TIP3     H2       HT       0.417000       1.00800           0   0.00000     -0.301140E-02
     27566 TIP3     884      TIP3     OH2      OT      -0.834000       15.9994           0   0.00000       0.00000    
     27567 TIP3     884      TIP3     H1       HT       0.417000       1.00800           0   0.00000       0.00000    
     27568 TIP3     884      TIP3     H2       HT       0.417000       1.00800           0   0.00000     -0.301140E-02
     27569 TIP3     885      TIP3     OH2      OT      -0.834000       15.9994           0   0.00000       0.00000    
     27570 TIP3     885      TIP3     H1       HT       0.417000       1.00800           0   0.00000       0.00000    
     27571 TIP3     885      TIP3     H2       HT       0.417000       1.00800           0   0.00000     -0.301140E-02
     27572 TIP3     886      TIP3     OH2      OT      -0.834000       15.9994           0   0.00000       0.00000    
     27573 TIP3     886      TIP3     H1       HT       0.417000       1.00800           0   0.00000       0.00000    
     27574 TIP3     886      TIP3     H2       HT       0.417000       1.00800           0   0.00000     -0.301140E-02
     27575 TIP3     887      TIP3     OH2      OT      -0.834000       15.9994           0   0.00000       0.00000    
     27576 TIP3     887      TIP3     H1       HT       0.417000       1.00800           0   0.00000       0.00000    
     27577 TIP3     887      TIP3     H2       HT       0.417000       1.00800           0   0.00000     -0.301140E-02
     27578 TIP3     888      TIP3     OH2      OT      -0.834000       15.9994           0   0.00000       0.00000    
     27579 TIP3     888      TIP3     H1       HT       0.417000       1.00800           0   0.00000       0.00000    
     27580 TIP3     888      TIP3     H2       HT       0.417000       1.00800           0   0.00000     -0.301140E-02
     27581 TIP3     889      TIP3     OH2      OT      -0.834000       15.9994           0   0.00000       0.00000    
     27582 TIP3     889      TIP3     H1       HT       0.417000       1.00800           0   0.00000       0.00000    
     27583 TIP3     889      TIP3     H2       HT       0.417000       1.00800           0   0.00000     -0.301140E-02
     27584 TIP3     890      TIP3     OH2      OT      -0.834000       15.9994           0   0.00000       0.00000    
     27585 TIP3     890      TIP3     H1       HT       0.417000       1.00800           0   0.00000       0.00000    
     27586 TIP3     890      TIP3     H2       HT       0.417000       1.00800           0   0.00000     -0.301140E-02
     27587 TIP3     891      TIP3     OH2      OT      -0.834000       15.9994           0   0.00000       0.00000    
     27588 TIP3     891      TIP3     H1       HT       0.417000       1.00800           0   0.00000       0.00000    
     27589 TIP3     891      TIP3     H2       HT       0.417000       1.00800           0   0.00000     -0.301140E-02
     27590 TIP3     892      TIP3     OH2      OT      -0.834000       15.9994           0   0.00000       0.00000    
     27591 TIP3     892      TIP3     H1       HT       0.417000       1.00800           0   0.00000       0.00000    
     27592 TIP3     892      TIP3     H2       HT       0.417000       1.00800           0   0.00000     -0.301140E-02
     27593 TIP3     893      TIP3     OH2      OT      -0.834000       15.9994           0   0.00000       0.00000    
     27594 TIP3     893      TIP3     H1       HT       0.417000       1.00800           0   0.00000       0.00000    
     27595 TIP3     893      TIP3     H2       HT       0.417000       1.00800           0   0.00000     -0.301140E-02
     27596 TIP3     894      TIP3     OH2      OT      -0.834000       15.9994           0   0.00000       0.00000    
     27597 TIP3     894      TIP3     H1       HT       0.417000       1.00800           0   0.00000       0.00000    
     27598 TIP3     894      TIP3     H2       HT       0.417000       1.00800           0   0.00000     -0.301140E-02
     27599 TIP3     895      TIP3     OH2      OT      -0.834000       15.9994           0   0.00000       0.00000    
     27600 TIP3     895      TIP3     H1       HT       0.417000       1.00800           0   0.00000       0.00000    
     27601 TIP3     895      TIP3     H2       HT       0.417000       1.00800           0   0.00000     -0.301140E-02
     27602 TIP3     896      TIP3     OH2      OT      -0.834000       15.9994           0   0.00000       0.00000    
     27603 TIP3     896      TIP3     H1       HT       0.417000       1.00800           0   0.00000       0.00000    
     27604 TIP3     896      TIP3     H2       HT       0.417000       1.00800           0   0.00000     -0.301140E-02
     27605 TIP3     897      TIP3     OH2      OT      -0.834000       15.9994           0   0.00000       0.00000    
     27606 TIP3     897      TIP3     H1       HT       0.417000       1.00800           0   0.00000       0.00000    
     27607 TIP3     897      TIP3     H2       HT       0.417000       1.00800           0   0.00000     -0.301140E-02
     27608 TIP3     898      TIP3     OH2      OT      -0.834000       15.9994           0   0.00000       0.00000    
     27609 TIP3     898      TIP3     H1       HT       0.417000       1.00800           0   0.00000       0.00000    
     27610 TIP3     898      TIP3     H2       HT       0.417000       1.00800           0   0.00000     -0.301140E-02
     27611 TIP3     899      TIP3     OH2      OT      -0.834000       15.9994           0   0.00000       0.00000    
     27612 TIP3     899      TIP3     H1       HT       0.417000       1.00800           0   0.00000       0.00000    
     27613 TIP3     899      TIP3     H2       HT       0.417000       1.00800           0   0.00000     -0.301140E-02
     27614 TIP3     900      TIP3     OH2      OT      -0.834000       15.9994           0   0.00000       0.00000    
     27615 TIP3     900      TIP3     H1       HT       0.417000       1.00800           0   0.00000       0.00000    
     27616 TIP3     900      TIP3     H2       HT       0.417000       1.00800           0   0.00000     -0.301140E-02
     27617 TIP3     901      TIP3     OH2      OT      -0.834000       15.9994           0   0.00000       0.00000    
     27618 TIP3     901      TIP3     H1       HT       0.417000       1.00800           0   0.00000       0.00000    
     27619 TIP3     901      TIP3     H2       HT       0.417000       1.00800           0   0.00000     -0.301140E-02
     27620 TIP3     902      TIP3     OH2      OT      -0.834000       15.9994           0   0.00000       0.00000    
     27621 TIP3     902      TIP3     H1       HT       0.417000       1.00800           0   0.00000       0.00000    
     27622 TIP3     902      TIP3     H2       HT       0.417000       1.00800           0   0.00000     -0.301140E-02
     27623 TIP3     903      TIP3     OH2      OT      -0.834000       15.9994           0   0.00000       0.00000    
     27624 TIP3     903      TIP3     H1       HT       0.417000       1.00800           0   0.00000       0.00000    
     27625 TIP3     903      TIP3     H2       HT       0.417000       1.00800           0   0.00000     -0.301140E-02
     27626 TIP3     904      TIP3     OH2      OT      -0.834000       15.9994           0   0.00000       0.00000    
     27627 TIP3     904      TIP3     H1       HT       0.417000       1.00800           0   0.00000       0.00000    
     27628 TIP3     904      TIP3     H2       HT       0.417000       1.00800           0   0.00000     -0.301140E-02
     27629 TIP3     905      TIP3     OH2      OT      -0.834000       15.9994           0   0.00000       0.00000    
     27630 TIP3     905      TIP3     H1       HT       0.417000       1.00800           0   0.00000       0.00000    
     27631 TIP3     905      TIP3     H2       HT       0.417000       1.00800           0   0.00000     -0.301140E-02
     27632 TIP3     906      TIP3     OH2      OT      -0.834000       15.9994           0   0.00000       0.00000    
     27633 TIP3     906      TIP3     H1       HT       0.417000       1.00800           0   0.00000       0.00000    
     27634 TIP3     906      TIP3     H2       HT       0.417000       1.00800           0   0.00000     -0.301140E-02
     27635 TIP3     907      TIP3     OH2      OT      -0.834000       15.9994           0   0.00000       0.00000    
     27636 TIP3     907      TIP3     H1       HT       0.417000       1.00800           0   0.00000       0.00000    
     27637 TIP3     907      TIP3     H2       HT       0.417000       1.00800           0   0.00000     -0.301140E-02
     27638 TIP3     908      TIP3     OH2      OT      -0.834000       15.9994           0   0.00000       0.00000    
     27639 TIP3     908      TIP3     H1       HT       0.417000       1.00800           0   0.00000       0.00000    
     27640 TIP3     908      TIP3     H2       HT       0.417000       1.00800           0   0.00000     -0.301140E-02
     27641 TIP3     909      TIP3     OH2      OT      -0.834000       15.9994           0   0.00000       0.00000    
     27642 TIP3     909      TIP3     H1       HT       0.417000       1.00800           0   0.00000       0.00000    
     27643 TIP3     909      TIP3     H2       HT       0.417000       1.00800           0   0.00000     -0.301140E-02
     27644 TIP3     910      TIP3     OH2      OT      -0.834000       15.9994           0   0.00000       0.00000    
     27645 TIP3     910      TIP3     H1       HT       0.417000       1.00800           0   0.00000       0.00000    
     27646 TIP3     910      TIP3     H2       HT       0.417000       1.00800           0   0.00000     -0.301140E-02
     27647 TIP3     911      TIP3     OH2      OT      -0.834000       15.9994           0   0.00000       0.00000    
     27648 TIP3     911      TIP3     H1       HT       0.417000       1.00800           0   0.00000       0.00000    
     27649 TIP3     911      TIP3     H2       HT       0.417000       1.00800           0   0.00000     -0.301140E-02
     27650 TIP3     912      TIP3     OH2      OT      -0.834000       15.9994           0   0.00000       0.00000    
     27651 TIP3     912      TIP3     H1       HT       0.417000       1.00800           0   0.00000       0.00000    
     27652 TIP3     912      TIP3     H2       HT       0.417000       1.00800           0   0.00000     -0.301140E-02
     27653 TIP3     913      TIP3     OH2      OT      -0.834000       15.9994           0   0.00000       0.00000    
     27654 TIP3     913      TIP3     H1       HT       0.417000       1.00800           0   0.00000       0.00000    
     27655 TIP3     913      TIP3     H2       HT       0.417000       1.00800           0   0.00000     -0.301140E-02
     27656 TIP3     914      TIP3     OH2      OT      -0.834000       15.9994           0   0.00000       0.00000    
     27657 TIP3     914      TIP3     H1       HT       0.417000       1.00800           0   0.00000       0.00000    
     27658 TIP3     914      TIP3     H2       HT       0.417000       1.00800           0   0.00000     -0.301140E-02
     27659 TIP3     915      TIP3     OH2      OT      -0.834000       15.9994           0   0.00000       0.00000    
     27660 TIP3     915      TIP3     H1       HT       0.417000       1.00800           0   0.00000       0.00000    
     27661 TIP3     915      TIP3     H2       HT       0.417000       1.00800           0   0.00000     -0.301140E-02
     27662 TIP3     916      TIP3     OH2      OT      -0.834000       15.9994           0   0.00000       0.00000    
     27663 TIP3     916      TIP3     H1       HT       0.417000       1.00800           0   0.00000       0.00000    
     27664 TIP3     916      TIP3     H2       HT       0.417000       1.00800           0   0.00000     -0.301140E-02
     27665 TIP3     917      TIP3     OH2      OT      -0.834000       15.9994           0   0.00000       0.00000    
     27666 TIP3     917      TIP3     H1       HT       0.417000       1.00800           0   0.00000       0.00000    
     27667 TIP3     917      TIP3     H2       HT       0.417000       1.00800           0   0.00000     -0.301140E-02
     27668 TIP3     918      TIP3     OH2      OT      -0.834000       15.9994           0   0.00000       0.00000    
     27669 TIP3     918      TIP3     H1       HT       0.417000       1.00800           0   0.00000       0.00000    
     27670 TIP3     918      TIP3     H2       HT       0.417000       1.00800           0   0.00000     -0.301140E-02
     27671 TIP3     919      TIP3     OH2      OT      -0.834000       15.9994           0   0.00000       0.00000    
     27672 TIP3     919      TIP3     H1       HT       0.417000       1.00800           0   0.00000       0.00000    
     27673 TIP3     919      TIP3     H2       HT       0.417000       1.00800           0   0.00000     -0.301140E-02
     27674 TIP3     920      TIP3     OH2      OT      -0.834000       15.9994           0   0.00000       0.00000    
     27675 TIP3     920      TIP3     H1       HT       0.417000       1.00800           0   0.00000       0.00000    
     27676 TIP3     920      TIP3     H2       HT       0.417000       1.00800           0   0.00000     -0.301140E-02
     27677 TIP3     921      TIP3     OH2      OT      -0.834000       15.9994           0   0.00000       0.00000    
     27678 TIP3     921      TIP3     H1       HT       0.417000       1.00800           0   0.00000       0.00000    
     27679 TIP3     921      TIP3     H2       HT       0.417000       1.00800           0   0.00000     -0.301140E-02
     27680 TIP3     922      TIP3     OH2      OT      -0.834000       15.9994           0   0.00000       0.00000    
     27681 TIP3     922      TIP3     H1       HT       0.417000       1.00800           0   0.00000       0.00000    
     27682 TIP3     922      TIP3     H2       HT       0.417000       1.00800           0   0.00000     -0.301140E-02
     27683 TIP3     923      TIP3     OH2      OT      -0.834000       15.9994           0   0.00000       0.00000    
     27684 TIP3     923      TIP3     H1       HT       0.417000       1.00800           0   0.00000       0.00000    
     27685 TIP3     923      TIP3     H2       HT       0.417000       1.00800           0   0.00000     -0.301140E-02
     27686 TIP3     924      TIP3     OH2      OT      -0.834000       15.9994           0   0.00000       0.00000    
     27687 TIP3     924      TIP3     H1       HT       0.417000       1.00800           0   0.00000       0.00000    
     27688 TIP3     924      TIP3     H2       HT       0.417000       1.00800           0   0.00000     -0.301140E-02
     27689 TIP3     925      TIP3     OH2      OT      -0.834000       15.9994           0   0.00000       0.00000    
     27690 TIP3     925      TIP3     H1       HT       0.417000       1.00800           0   0.00000       0.00000    
     27691 TIP3     925      TIP3     H2       HT       0.417000       1.00800           0   0.00000     -0.301140E-02
     27692 TIP3     926      TIP3     OH2      OT      -0.834000       15.9994           0   0.00000       0.00000    
     27693 TIP3     926      TIP3     H1       HT       0.417000       1.00800           0   0.00000       0.00000    
     27694 TIP3     926      TIP3     H2       HT       0.417000       1.00800           0   0.00000     -0.301140E-02
     27695 TIP3     927      TIP3     OH2      OT      -0.834000       15.9994           0   0.00000       0.00000    
     27696 TIP3     927      TIP3     H1       HT       0.417000       1.00800           0   0.00000       0.00000    
     27697 TIP3     927      TIP3     H2       HT       0.417000       1.00800           0   0.00000     -0.301140E-02
     27698 TIP3     928      TIP3     OH2      OT      -0.834000       15.9994           0   0.00000       0.00000    
     27699 TIP3     928      TIP3     H1       HT       0.417000       1.00800           0   0.00000       0.00000    
     27700 TIP3     928      TIP3     H2       HT       0.417000       1.00800           0   0.00000     -0.301140E-02
     27701 TIP3     929      TIP3     OH2      OT      -0.834000       15.9994           0   0.00000       0.00000    
     27702 TIP3     929      TIP3     H1       HT       0.417000       1.00800           0   0.00000       0.00000    
     27703 TIP3     929      TIP3     H2       HT       0.417000       1.00800           0   0.00000     -0.301140E-02
     27704 TIP3     930      TIP3     OH2      OT      -0.834000       15.9994           0   0.00000       0.00000    
     27705 TIP3     930      TIP3     H1       HT       0.417000       1.00800           0   0.00000       0.00000    
     27706 TIP3     930      TIP3     H2       HT       0.417000       1.00800           0   0.00000     -0.301140E-02
     27707 TIP3     931      TIP3     OH2      OT      -0.834000       15.9994           0   0.00000       0.00000    
     27708 TIP3     931      TIP3     H1       HT       0.417000       1.00800           0   0.00000       0.00000    
     27709 TIP3     931      TIP3     H2       HT       0.417000       1.00800           0   0.00000     -0.301140E-02
     27710 TIP3     932      TIP3     OH2      OT      -0.834000       15.9994           0   0.00000       0.00000    
     27711 TIP3     932      TIP3     H1       HT       0.417000       1.00800           0   0.00000       0.00000    
     27712 TIP3     932      TIP3     H2       HT       0.417000       1.00800           0   0.00000     -0.301140E-02
     27713 TIP3     933      TIP3     OH2      OT      -0.834000       15.9994           0   0.00000       0.00000    
     27714 TIP3     933      TIP3     H1       HT       0.417000       1.00800           0   0.00000       0.00000    
     27715 TIP3     933      TIP3     H2       HT       0.417000       1.00800           0   0.00000     -0.301140E-02
     27716 TIP3     934      TIP3     OH2      OT      -0.834000       15.9994           0   0.00000       0.00000    
     27717 TIP3     934      TIP3     H1       HT       0.417000       1.00800           0   0.00000       0.00000    
     27718 TIP3     934      TIP3     H2       HT       0.417000       1.00800           0   0.00000     -0.301140E-02
     27719 TIP3     935      TIP3     OH2      OT      -0.834000       15.9994           0   0.00000       0.00000    
     27720 TIP3     935      TIP3     H1       HT       0.417000       1.00800           0   0.00000       0.00000    
     27721 TIP3     935      TIP3     H2       HT       0.417000       1.00800           0   0.00000     -0.301140E-02
     27722 TIP3     936      TIP3     OH2      OT      -0.834000       15.9994           0   0.00000       0.00000    
     27723 TIP3     936      TIP3     H1       HT       0.417000       1.00800           0   0.00000       0.00000    
     27724 TIP3     936      TIP3     H2       HT       0.417000       1.00800           0   0.00000     -0.301140E-02
     27725 TIP3     937      TIP3     OH2      OT      -0.834000       15.9994           0   0.00000       0.00000    
     27726 TIP3     937      TIP3     H1       HT       0.417000       1.00800           0   0.00000       0.00000    
     27727 TIP3     937      TIP3     H2       HT       0.417000       1.00800           0   0.00000     -0.301140E-02
     27728 TIP3     938      TIP3     OH2      OT      -0.834000       15.9994           0   0.00000       0.00000    
     27729 TIP3     938      TIP3     H1       HT       0.417000       1.00800           0   0.00000       0.00000    
     27730 TIP3     938      TIP3     H2       HT       0.417000       1.00800           0   0.00000     -0.301140E-02
     27731 TIP3     939      TIP3     OH2      OT      -0.834000       15.9994           0   0.00000       0.00000    
     27732 TIP3     939      TIP3     H1       HT       0.417000       1.00800           0   0.00000       0.00000    
     27733 TIP3     939      TIP3     H2       HT       0.417000       1.00800           0   0.00000     -0.301140E-02
     27734 TIP3     940      TIP3     OH2      OT      -0.834000       15.9994           0   0.00000       0.00000    
     27735 TIP3     940      TIP3     H1       HT       0.417000       1.00800           0   0.00000       0.00000    
     27736 TIP3     940      TIP3     H2       HT       0.417000       1.00800           0   0.00000     -0.301140E-02
     27737 TIP3     941      TIP3     OH2      OT      -0.834000       15.9994           0   0.00000       0.00000    
     27738 TIP3     941      TIP3     H1       HT       0.417000       1.00800           0   0.00000       0.00000    
     27739 TIP3     941      TIP3     H2       HT       0.417000       1.00800           0   0.00000     -0.301140E-02
     27740 TIP3     942      TIP3     OH2      OT      -0.834000       15.9994           0   0.00000       0.00000    
     27741 TIP3     942      TIP3     H1       HT       0.417000       1.00800           0   0.00000       0.00000    
     27742 TIP3     942      TIP3     H2       HT       0.417000       1.00800           0   0.00000     -0.301140E-02
     27743 TIP3     943      TIP3     OH2      OT      -0.834000       15.9994           0   0.00000       0.00000    
     27744 TIP3     943      TIP3     H1       HT       0.417000       1.00800           0   0.00000       0.00000    
     27745 TIP3     943      TIP3     H2       HT       0.417000       1.00800           0   0.00000     -0.301140E-02
     27746 TIP3     944      TIP3     OH2      OT      -0.834000       15.9994           0   0.00000       0.00000    
     27747 TIP3     944      TIP3     H1       HT       0.417000       1.00800           0   0.00000       0.00000    
     27748 TIP3     944      TIP3     H2       HT       0.417000       1.00800           0   0.00000     -0.301140E-02
     27749 TIP3     945      TIP3     OH2      OT      -0.834000       15.9994           0   0.00000       0.00000    
     27750 TIP3     945      TIP3     H1       HT       0.417000       1.00800           0   0.00000       0.00000    
     27751 TIP3     945      TIP3     H2       HT       0.417000       1.00800           0   0.00000     -0.301140E-02
     27752 TIP3     946      TIP3     OH2      OT      -0.834000       15.9994           0   0.00000       0.00000    
     27753 TIP3     946      TIP3     H1       HT       0.417000       1.00800           0   0.00000       0.00000    
     27754 TIP3     946      TIP3     H2       HT       0.417000       1.00800           0   0.00000     -0.301140E-02
     27755 TIP3     947      TIP3     OH2      OT      -0.834000       15.9994           0   0.00000       0.00000    
     27756 TIP3     947      TIP3     H1       HT       0.417000       1.00800           0   0.00000       0.00000    
     27757 TIP3     947      TIP3     H2       HT       0.417000       1.00800           0   0.00000     -0.301140E-02
     27758 TIP3     948      TIP3     OH2      OT      -0.834000       15.9994           0   0.00000       0.00000    
     27759 TIP3     948      TIP3     H1       HT       0.417000       1.00800           0   0.00000       0.00000    
     27760 TIP3     948      TIP3     H2       HT       0.417000       1.00800           0   0.00000     -0.301140E-02
     27761 TIP3     949      TIP3     OH2      OT      -0.834000       15.9994           0   0.00000       0.00000    
     27762 TIP3     949      TIP3     H1       HT       0.417000       1.00800           0   0.00000       0.00000    
     27763 TIP3     949      TIP3     H2       HT       0.417000       1.00800           0   0.00000     -0.301140E-02
     27764 TIP3     950      TIP3     OH2      OT      -0.834000       15.9994           0   0.00000       0.00000    
     27765 TIP3     950      TIP3     H1       HT       0.417000       1.00800           0   0.00000       0.00000    
     27766 TIP3     950      TIP3     H2       HT       0.417000       1.00800           0   0.00000     -0.301140E-02
     27767 TIP3     951      TIP3     OH2      OT      -0.834000       15.9994           0   0.00000       0.00000    
     27768 TIP3     951      TIP3     H1       HT       0.417000       1.00800           0   0.00000       0.00000    
     27769 TIP3     951      TIP3     H2       HT       0.417000       1.00800           0   0.00000     -0.301140E-02
     27770 TIP3     952      TIP3     OH2      OT      -0.834000       15.9994           0   0.00000       0.00000    
     27771 TIP3     952      TIP3     H1       HT       0.417000       1.00800           0   0.00000       0.00000    
     27772 TIP3     952      TIP3     H2       HT       0.417000       1.00800           0   0.00000     -0.301140E-02
     27773 TIP3     953      TIP3     OH2      OT      -0.834000       15.9994           0   0.00000       0.00000    
     27774 TIP3     953      TIP3     H1       HT       0.417000       1.00800           0   0.00000       0.00000    
     27775 TIP3     953      TIP3     H2       HT       0.417000       1.00800           0   0.00000     -0.301140E-02
     27776 TIP3     954      TIP3     OH2      OT      -0.834000       15.9994           0   0.00000       0.00000    
     27777 TIP3     954      TIP3     H1       HT       0.417000       1.00800           0   0.00000       0.00000    
     27778 TIP3     954      TIP3     H2       HT       0.417000       1.00800           0   0.00000     -0.301140E-02
     27779 TIP3     955      TIP3     OH2      OT      -0.834000       15.9994           0   0.00000       0.00000    
     27780 TIP3     955      TIP3     H1       HT       0.417000       1.00800           0   0.00000       0.00000    
     27781 TIP3     955      TIP3     H2       HT       0.417000       1.00800           0   0.00000     -0.301140E-02
     27782 TIP3     956      TIP3     OH2      OT      -0.834000       15.9994           0   0.00000       0.00000    
     27783 TIP3     956      TIP3     H1       HT       0.417000       1.00800           0   0.00000       0.00000    
     27784 TIP3     956      TIP3     H2       HT       0.417000       1.00800           0   0.00000     -0.301140E-02
     27785 TIP3     957      TIP3     OH2      OT      -0.834000       15.9994           0   0.00000       0.00000    
     27786 TIP3     957      TIP3     H1       HT       0.417000       1.00800           0   0.00000       0.00000    
     27787 TIP3     957      TIP3     H2       HT       0.417000       1.00800           0   0.00000     -0.301140E-02
     27788 TIP3     958      TIP3     OH2      OT      -0.834000       15.9994           0   0.00000       0.00000    
     27789 TIP3     958      TIP3     H1       HT       0.417000       1.00800           0   0.00000       0.00000    
     27790 TIP3     958      TIP3     H2       HT       0.417000       1.00800           0   0.00000     -0.301140E-02
     27791 TIP3     959      TIP3     OH2      OT      -0.834000       15.9994           0   0.00000       0.00000    
     27792 TIP3     959      TIP3     H1       HT       0.417000       1.00800           0   0.00000       0.00000    
     27793 TIP3     959      TIP3     H2       HT       0.417000       1.00800           0   0.00000     -0.301140E-02
     27794 TIP3     960      TIP3     OH2      OT      -0.834000       15.9994           0   0.00000       0.00000    
     27795 TIP3     960      TIP3     H1       HT       0.417000       1.00800           0   0.00000       0.00000    
     27796 TIP3     960      TIP3     H2       HT       0.417000       1.00800           0   0.00000     -0.301140E-02
     27797 TIP3     961      TIP3     OH2      OT      -0.834000       15.9994           0   0.00000       0.00000    
     27798 TIP3     961      TIP3     H1       HT       0.417000       1.00800           0   0.00000       0.00000    
     27799 TIP3     961      TIP3     H2       HT       0.417000       1.00800           0   0.00000     -0.301140E-02
     27800 TIP3     962      TIP3     OH2      OT      -0.834000       15.9994           0   0.00000       0.00000    
     27801 TIP3     962      TIP3     H1       HT       0.417000       1.00800           0   0.00000       0.00000    
     27802 TIP3     962      TIP3     H2       HT       0.417000       1.00800           0   0.00000     -0.301140E-02
     27803 TIP3     963      TIP3     OH2      OT      -0.834000       15.9994           0   0.00000       0.00000    
     27804 TIP3     963      TIP3     H1       HT       0.417000       1.00800           0   0.00000       0.00000    
     27805 TIP3     963      TIP3     H2       HT       0.417000       1.00800           0   0.00000     -0.301140E-02
     27806 TIP3     964      TIP3     OH2      OT      -0.834000       15.9994           0   0.00000       0.00000    
     27807 TIP3     964      TIP3     H1       HT       0.417000       1.00800           0   0.00000       0.00000    
     27808 TIP3     964      TIP3     H2       HT       0.417000       1.00800           0   0.00000     -0.301140E-02
     27809 TIP3     965      TIP3     OH2      OT      -0.834000       15.9994           0   0.00000       0.00000    
     27810 TIP3     965      TIP3     H1       HT       0.417000       1.00800           0   0.00000       0.00000    
     27811 TIP3     965      TIP3     H2       HT       0.417000       1.00800           0   0.00000     -0.301140E-02
     27812 TIP3     966      TIP3     OH2      OT      -0.834000       15.9994           0   0.00000       0.00000    
     27813 TIP3     966      TIP3     H1       HT       0.417000       1.00800           0   0.00000       0.00000    
     27814 TIP3     966      TIP3     H2       HT       0.417000       1.00800           0   0.00000     -0.301140E-02
     27815 TIP3     967      TIP3     OH2      OT      -0.834000       15.9994           0   0.00000       0.00000    
     27816 TIP3     967      TIP3     H1       HT       0.417000       1.00800           0   0.00000       0.00000    
     27817 TIP3     967      TIP3     H2       HT       0.417000       1.00800           0   0.00000     -0.301140E-02
     27818 TIP3     968      TIP3     OH2      OT      -0.834000       15.9994           0   0.00000       0.00000    
     27819 TIP3     968      TIP3     H1       HT       0.417000       1.00800           0   0.00000       0.00000    
     27820 TIP3     968      TIP3     H2       HT       0.417000       1.00800           0   0.00000     -0.301140E-02
     27821 TIP3     969      TIP3     OH2      OT      -0.834000       15.9994           0   0.00000       0.00000    
     27822 TIP3     969      TIP3     H1       HT       0.417000       1.00800           0   0.00000       0.00000    
     27823 TIP3     969      TIP3     H2       HT       0.417000       1.00800           0   0.00000     -0.301140E-02
     27824 TIP3     970      TIP3     OH2      OT      -0.834000       15.9994           0   0.00000       0.00000    
     27825 TIP3     970      TIP3     H1       HT       0.417000       1.00800           0   0.00000       0.00000    
     27826 TIP3     970      TIP3     H2       HT       0.417000       1.00800           0   0.00000     -0.301140E-02
     27827 TIP3     971      TIP3     OH2      OT      -0.834000       15.9994           0   0.00000       0.00000    
     27828 TIP3     971      TIP3     H1       HT       0.417000       1.00800           0   0.00000       0.00000    
     27829 TIP3     971      TIP3     H2       HT       0.417000       1.00800           0   0.00000     -0.301140E-02
     27830 TIP3     972      TIP3     OH2      OT      -0.834000       15.9994           0   0.00000       0.00000    
     27831 TIP3     972      TIP3     H1       HT       0.417000       1.00800           0   0.00000       0.00000    
     27832 TIP3     972      TIP3     H2       HT       0.417000       1.00800           0   0.00000     -0.301140E-02
     27833 TIP3     973      TIP3     OH2      OT      -0.834000       15.9994           0   0.00000       0.00000    
     27834 TIP3     973      TIP3     H1       HT       0.417000       1.00800           0   0.00000       0.00000    
     27835 TIP3     973      TIP3     H2       HT       0.417000       1.00800           0   0.00000     -0.301140E-02
     27836 TIP3     974      TIP3     OH2      OT      -0.834000       15.9994           0   0.00000       0.00000    
     27837 TIP3     974      TIP3     H1       HT       0.417000       1.00800           0   0.00000       0.00000    
     27838 TIP3     974      TIP3     H2       HT       0.417000       1.00800           0   0.00000     -0.301140E-02
     27839 TIP3     975      TIP3     OH2      OT      -0.834000       15.9994           0   0.00000       0.00000    
     27840 TIP3     975      TIP3     H1       HT       0.417000       1.00800           0   0.00000       0.00000    
     27841 TIP3     975      TIP3     H2       HT       0.417000       1.00800           0   0.00000     -0.301140E-02
     27842 TIP3     976      TIP3     OH2      OT      -0.834000       15.9994           0   0.00000       0.00000    
     27843 TIP3     976      TIP3     H1       HT       0.417000       1.00800           0   0.00000       0.00000    
     27844 TIP3     976      TIP3     H2       HT       0.417000       1.00800           0   0.00000     -0.301140E-02
     27845 TIP3     977      TIP3     OH2      OT      -0.834000       15.9994           0   0.00000       0.00000    
     27846 TIP3     977      TIP3     H1       HT       0.417000       1.00800           0   0.00000       0.00000    
     27847 TIP3     977      TIP3     H2       HT       0.417000       1.00800           0   0.00000     -0.301140E-02
     27848 TIP3     978      TIP3     OH2      OT      -0.834000       15.9994           0   0.00000       0.00000    
     27849 TIP3     978      TIP3     H1       HT       0.417000       1.00800           0   0.00000       0.00000    
     27850 TIP3     978      TIP3     H2       HT       0.417000       1.00800           0   0.00000     -0.301140E-02
     27851 TIP3     979      TIP3     OH2      OT      -0.834000       15.9994           0   0.00000       0.00000    
     27852 TIP3     979      TIP3     H1       HT       0.417000       1.00800           0   0.00000       0.00000    
     27853 TIP3     979      TIP3     H2       HT       0.417000       1.00800           0   0.00000     -0.301140E-02
     27854 TIP3     980      TIP3     OH2      OT      -0.834000       15.9994           0   0.00000       0.00000    
     27855 TIP3     980      TIP3     H1       HT       0.417000       1.00800           0   0.00000       0.00000    
     27856 TIP3     980      TIP3     H2       HT       0.417000       1.00800           0   0.00000     -0.301140E-02
     27857 TIP3     981      TIP3     OH2      OT      -0.834000       15.9994           0   0.00000       0.00000    
     27858 TIP3     981      TIP3     H1       HT       0.417000       1.00800           0   0.00000       0.00000    
     27859 TIP3     981      TIP3     H2       HT       0.417000       1.00800           0   0.00000     -0.301140E-02
     27860 TIP3     982      TIP3     OH2      OT      -0.834000       15.9994           0   0.00000       0.00000    
     27861 TIP3     982      TIP3     H1       HT       0.417000       1.00800           0   0.00000       0.00000    
     27862 TIP3     982      TIP3     H2       HT       0.417000       1.00800           0   0.00000     -0.301140E-02
     27863 TIP3     983      TIP3     OH2      OT      -0.834000       15.9994           0   0.00000       0.00000    
     27864 TIP3     983      TIP3     H1       HT       0.417000       1.00800           0   0.00000       0.00000    
     27865 TIP3     983      TIP3     H2       HT       0.417000       1.00800           0   0.00000     -0.301140E-02
     27866 TIP3     984      TIP3     OH2      OT      -0.834000       15.9994           0   0.00000       0.00000    
     27867 TIP3     984      TIP3     H1       HT       0.417000       1.00800           0   0.00000       0.00000    
     27868 TIP3     984      TIP3     H2       HT       0.417000       1.00800           0   0.00000     -0.301140E-02
     27869 TIP3     985      TIP3     OH2      OT      -0.834000       15.9994           0   0.00000       0.00000    
     27870 TIP3     985      TIP3     H1       HT       0.417000       1.00800           0   0.00000       0.00000    
     27871 TIP3     985      TIP3     H2       HT       0.417000       1.00800           0   0.00000     -0.301140E-02
     27872 TIP3     986      TIP3     OH2      OT      -0.834000       15.9994           0   0.00000       0.00000    
     27873 TIP3     986      TIP3     H1       HT       0.417000       1.00800           0   0.00000       0.00000    
     27874 TIP3     986      TIP3     H2       HT       0.417000       1.00800           0   0.00000     -0.301140E-02
     27875 TIP3     987      TIP3     OH2      OT      -0.834000       15.9994           0   0.00000       0.00000    
     27876 TIP3     987      TIP3     H1       HT       0.417000       1.00800           0   0.00000       0.00000    
     27877 TIP3     987      TIP3     H2       HT       0.417000       1.00800           0   0.00000     -0.301140E-02
     27878 TIP3     988      TIP3     OH2      OT      -0.834000       15.9994           0   0.00000       0.00000    
     27879 TIP3     988      TIP3     H1       HT       0.417000       1.00800           0   0.00000       0.00000    
     27880 TIP3     988      TIP3     H2       HT       0.417000       1.00800           0   0.00000     -0.301140E-02
     27881 TIP3     989      TIP3     OH2      OT      -0.834000       15.9994           0   0.00000       0.00000    
     27882 TIP3     989      TIP3     H1       HT       0.417000       1.00800           0   0.00000       0.00000    
     27883 TIP3     989      TIP3     H2       HT       0.417000       1.00800           0   0.00000     -0.301140E-02
     27884 TIP3     990      TIP3     OH2      OT      -0.834000       15.9994           0   0.00000       0.00000    
     27885 TIP3     990      TIP3     H1       HT       0.417000       1.00800           0   0.00000       0.00000    
     27886 TIP3     990      TIP3     H2       HT       0.417000       1.00800           0   0.00000     -0.301140E-02
     27887 TIP3     991      TIP3     OH2      OT      -0.834000       15.9994           0   0.00000       0.00000    
     27888 TIP3     991      TIP3     H1       HT       0.417000       1.00800           0   0.00000       0.00000    
     27889 TIP3     991      TIP3     H2       HT       0.417000       1.00800           0   0.00000     -0.301140E-02
     27890 TIP3     992      TIP3     OH2      OT      -0.834000       15.9994           0   0.00000       0.00000    
     27891 TIP3     992      TIP3     H1       HT       0.417000       1.00800           0   0.00000       0.00000    
     27892 TIP3     992      TIP3     H2       HT       0.417000       1.00800           0   0.00000     -0.301140E-02
     27893 TIP3     993      TIP3     OH2      OT      -0.834000       15.9994           0   0.00000       0.00000    
     27894 TIP3     993      TIP3     H1       HT       0.417000       1.00800           0   0.00000       0.00000    
     27895 TIP3     993      TIP3     H2       HT       0.417000       1.00800           0   0.00000     -0.301140E-02
     27896 TIP3     994      TIP3     OH2      OT      -0.834000       15.9994           0   0.00000       0.00000    
     27897 TIP3     994      TIP3     H1       HT       0.417000       1.00800           0   0.00000       0.00000    
     27898 TIP3     994      TIP3     H2       HT       0.417000       1.00800           0   0.00000     -0.301140E-02
     27899 TIP3     995      TIP3     OH2      OT      -0.834000       15.9994           0   0.00000       0.00000    
     27900 TIP3     995      TIP3     H1       HT       0.417000       1.00800           0   0.00000       0.00000    
     27901 TIP3     995      TIP3     H2       HT       0.417000       1.00800           0   0.00000     -0.301140E-02
     27902 TIP3     996      TIP3     OH2      OT      -0.834000       15.9994           0   0.00000       0.00000    
     27903 TIP3     996      TIP3     H1       HT       0.417000       1.00800           0   0.00000       0.00000    
     27904 TIP3     996      TIP3     H2       HT       0.417000       1.00800           0   0.00000     -0.301140E-02
     27905 TIP3     997      TIP3     OH2      OT      -0.834000       15.9994           0   0.00000       0.00000    
     27906 TIP3     997      TIP3     H1       HT       0.417000       1.00800           0   0.00000       0.00000    
     27907 TIP3     997      TIP3     H2       HT       0.417000       1.00800           0   0.00000     -0.301140E-02
     27908 TIP3     998      TIP3     OH2      OT      -0.834000       15.9994           0   0.00000       0.00000    
     27909 TIP3     998      TIP3     H1       HT       0.417000       1.00800           0   0.00000       0.00000    
     27910 TIP3     998      TIP3     H2       HT       0.417000       1.00800           0   0.00000     -0.301140E-02
     27911 TIP3     999      TIP3     OH2      OT      -0.834000       15.9994           0   0.00000       0.00000    
     27912 TIP3     999      TIP3     H1       HT       0.417000       1.00800           0   0.00000       0.00000    
     27913 TIP3     999      TIP3     H2       HT       0.417000       1.00800           0   0.00000     -0.301140E-02
     27914 TIP3     1000     TIP3     OH2      OT      -0.834000       15.9994           0   0.00000       0.00000    
     27915 TIP3     1000     TIP3     H1       HT       0.417000       1.00800           0   0.00000       0.00000    
     27916 TIP3     1000     TIP3     H2       HT       0.417000       1.00800           0   0.00000     -0.301140E-02
     27917 TIP3     1001     TIP3     OH2      OT      -0.834000       15.9994           0   0.00000       0.00000    
     27918 TIP3     1001     TIP3     H1       HT       0.417000       1.00800           0   0.00000       0.00000    
     27919 TIP3     1001     TIP3     H2       HT       0.417000       1.00800           0   0.00000     -0.301140E-02
     27920 TIP3     1002     TIP3     OH2      OT      -0.834000       15.9994           0   0.00000       0.00000    
     27921 TIP3     1002     TIP3     H1       HT       0.417000       1.00800           0   0.00000       0.00000    
     27922 TIP3     1002     TIP3     H2       HT       0.417000       1.00800           0   0.00000     -0.301140E-02
     27923 TIP3     1003     TIP3     OH2      OT      -0.834000       15.9994           0   0.00000       0.00000    
     27924 TIP3     1003     TIP3     H1       HT       0.417000       1.00800           0   0.00000       0.00000    
     27925 TIP3     1003     TIP3     H2       HT       0.417000       1.00800           0   0.00000     -0.301140E-02
     27926 TIP3     1004     TIP3     OH2      OT      -0.834000       15.9994           0   0.00000       0.00000    
     27927 TIP3     1004     TIP3     H1       HT       0.417000       1.00800           0   0.00000       0.00000    
     27928 TIP3     1004     TIP3     H2       HT       0.417000       1.00800           0   0.00000     -0.301140E-02
     27929 TIP3     1005     TIP3     OH2      OT      -0.834000       15.9994           0   0.00000       0.00000    
     27930 TIP3     1005     TIP3     H1       HT       0.417000       1.00800           0   0.00000       0.00000    
     27931 TIP3     1005     TIP3     H2       HT       0.417000       1.00800           0   0.00000     -0.301140E-02
     27932 TIP3     1006     TIP3     OH2      OT      -0.834000       15.9994           0   0.00000       0.00000    
     27933 TIP3     1006     TIP3     H1       HT       0.417000       1.00800           0   0.00000       0.00000    
     27934 TIP3     1006     TIP3     H2       HT       0.417000       1.00800           0   0.00000     -0.301140E-02
     27935 TIP3     1007     TIP3     OH2      OT      -0.834000       15.9994           0   0.00000       0.00000    
     27936 TIP3     1007     TIP3     H1       HT       0.417000       1.00800           0   0.00000       0.00000    
     27937 TIP3     1007     TIP3     H2       HT       0.417000       1.00800           0   0.00000     -0.301140E-02
     27938 TIP3     1008     TIP3     OH2      OT      -0.834000       15.9994           0   0.00000       0.00000    
     27939 TIP3     1008     TIP3     H1       HT       0.417000       1.00800           0   0.00000       0.00000    
     27940 TIP3     1008     TIP3     H2       HT       0.417000       1.00800           0   0.00000     -0.301140E-02
     27941 TIP3     1009     TIP3     OH2      OT      -0.834000       15.9994           0   0.00000       0.00000    
     27942 TIP3     1009     TIP3     H1       HT       0.417000       1.00800           0   0.00000       0.00000    
     27943 TIP3     1009     TIP3     H2       HT       0.417000       1.00800           0   0.00000     -0.301140E-02
     27944 TIP3     1010     TIP3     OH2      OT      -0.834000       15.9994           0   0.00000       0.00000    
     27945 TIP3     1010     TIP3     H1       HT       0.417000       1.00800           0   0.00000       0.00000    
     27946 TIP3     1010     TIP3     H2       HT       0.417000       1.00800           0   0.00000     -0.301140E-02
     27947 TIP3     1011     TIP3     OH2      OT      -0.834000       15.9994           0   0.00000       0.00000    
     27948 TIP3     1011     TIP3     H1       HT       0.417000       1.00800           0   0.00000       0.00000    
     27949 TIP3     1011     TIP3     H2       HT       0.417000       1.00800           0   0.00000     -0.301140E-02
     27950 TIP3     1012     TIP3     OH2      OT      -0.834000       15.9994           0   0.00000       0.00000    
     27951 TIP3     1012     TIP3     H1       HT       0.417000       1.00800           0   0.00000       0.00000    
     27952 TIP3     1012     TIP3     H2       HT       0.417000       1.00800           0   0.00000     -0.301140E-02
     27953 TIP3     1013     TIP3     OH2      OT      -0.834000       15.9994           0   0.00000       0.00000    
     27954 TIP3     1013     TIP3     H1       HT       0.417000       1.00800           0   0.00000       0.00000    
     27955 TIP3     1013     TIP3     H2       HT       0.417000       1.00800           0   0.00000     -0.301140E-02
     27956 TIP3     1014     TIP3     OH2      OT      -0.834000       15.9994           0   0.00000       0.00000    
     27957 TIP3     1014     TIP3     H1       HT       0.417000       1.00800           0   0.00000       0.00000    
     27958 TIP3     1014     TIP3     H2       HT       0.417000       1.00800           0   0.00000     -0.301140E-02
     27959 TIP3     1015     TIP3     OH2      OT      -0.834000       15.9994           0   0.00000       0.00000    
     27960 TIP3     1015     TIP3     H1       HT       0.417000       1.00800           0   0.00000       0.00000    
     27961 TIP3     1015     TIP3     H2       HT       0.417000       1.00800           0   0.00000     -0.301140E-02
     27962 TIP3     1016     TIP3     OH2      OT      -0.834000       15.9994           0   0.00000       0.00000    
     27963 TIP3     1016     TIP3     H1       HT       0.417000       1.00800           0   0.00000       0.00000    
     27964 TIP3     1016     TIP3     H2       HT       0.417000       1.00800           0   0.00000     -0.301140E-02
     27965 TIP3     1017     TIP3     OH2      OT      -0.834000       15.9994           0   0.00000       0.00000    
     27966 TIP3     1017     TIP3     H1       HT       0.417000       1.00800           0   0.00000       0.00000    
     27967 TIP3     1017     TIP3     H2       HT       0.417000       1.00800           0   0.00000     -0.301140E-02
     27968 TIP3     1018     TIP3     OH2      OT      -0.834000       15.9994           0   0.00000       0.00000    
     27969 TIP3     1018     TIP3     H1       HT       0.417000       1.00800           0   0.00000       0.00000    
     27970 TIP3     1018     TIP3     H2       HT       0.417000       1.00800           0   0.00000     -0.301140E-02
     27971 TIP3     1019     TIP3     OH2      OT      -0.834000       15.9994           0   0.00000       0.00000    
     27972 TIP3     1019     TIP3     H1       HT       0.417000       1.00800           0   0.00000       0.00000    
     27973 TIP3     1019     TIP3     H2       HT       0.417000       1.00800           0   0.00000     -0.301140E-02
     27974 TIP3     1020     TIP3     OH2      OT      -0.834000       15.9994           0   0.00000       0.00000    
     27975 TIP3     1020     TIP3     H1       HT       0.417000       1.00800           0   0.00000       0.00000    
     27976 TIP3     1020     TIP3     H2       HT       0.417000       1.00800           0   0.00000     -0.301140E-02
     27977 TIP3     1021     TIP3     OH2      OT      -0.834000       15.9994           0   0.00000       0.00000    
     27978 TIP3     1021     TIP3     H1       HT       0.417000       1.00800           0   0.00000       0.00000    
     27979 TIP3     1021     TIP3     H2       HT       0.417000       1.00800           0   0.00000     -0.301140E-02
     27980 TIP3     1022     TIP3     OH2      OT      -0.834000       15.9994           0   0.00000       0.00000    
     27981 TIP3     1022     TIP3     H1       HT       0.417000       1.00800           0   0.00000       0.00000    
     27982 TIP3     1022     TIP3     H2       HT       0.417000       1.00800           0   0.00000     -0.301140E-02
     27983 TIP3     1023     TIP3     OH2      OT      -0.834000       15.9994           0   0.00000       0.00000    
     27984 TIP3     1023     TIP3     H1       HT       0.417000       1.00800           0   0.00000       0.00000    
     27985 TIP3     1023     TIP3     H2       HT       0.417000       1.00800           0   0.00000     -0.301140E-02
     27986 TIP3     1024     TIP3     OH2      OT      -0.834000       15.9994           0   0.00000       0.00000    
     27987 TIP3     1024     TIP3     H1       HT       0.417000       1.00800           0   0.00000       0.00000    
     27988 TIP3     1024     TIP3     H2       HT       0.417000       1.00800           0   0.00000     -0.301140E-02
     27989 TIP3     1025     TIP3     OH2      OT      -0.834000       15.9994           0   0.00000       0.00000    
     27990 TIP3     1025     TIP3     H1       HT       0.417000       1.00800           0   0.00000       0.00000    
     27991 TIP3     1025     TIP3     H2       HT       0.417000       1.00800           0   0.00000     -0.301140E-02
     27992 TIP3     1026     TIP3     OH2      OT      -0.834000       15.9994           0   0.00000       0.00000    
     27993 TIP3     1026     TIP3     H1       HT       0.417000       1.00800           0   0.00000       0.00000    
     27994 TIP3     1026     TIP3     H2       HT       0.417000       1.00800           0   0.00000     -0.301140E-02
     27995 TIP3     1027     TIP3     OH2      OT      -0.834000       15.9994           0   0.00000       0.00000    
     27996 TIP3     1027     TIP3     H1       HT       0.417000       1.00800           0   0.00000       0.00000    
     27997 TIP3     1027     TIP3     H2       HT       0.417000       1.00800           0   0.00000     -0.301140E-02
     27998 TIP3     1028     TIP3     OH2      OT      -0.834000       15.9994           0   0.00000       0.00000    
     27999 TIP3     1028     TIP3     H1       HT       0.417000       1.00800           0   0.00000       0.00000    
     28000 TIP3     1028     TIP3     H2       HT       0.417000       1.00800           0   0.00000     -0.301140E-02
     28001 TIP3     1029     TIP3     OH2      OT      -0.834000       15.9994           0   0.00000       0.00000    
     28002 TIP3     1029     TIP3     H1       HT       0.417000       1.00800           0   0.00000       0.00000    
     28003 TIP3     1029     TIP3     H2       HT       0.417000       1.00800           0   0.00000     -0.301140E-02
     28004 TIP3     1030     TIP3     OH2      OT      -0.834000       15.9994           0   0.00000       0.00000    
     28005 TIP3     1030     TIP3     H1       HT       0.417000       1.00800           0   0.00000       0.00000    
     28006 TIP3     1030     TIP3     H2       HT       0.417000       1.00800           0   0.00000     -0.301140E-02
     28007 TIP3     1031     TIP3     OH2      OT      -0.834000       15.9994           0   0.00000       0.00000    
     28008 TIP3     1031     TIP3     H1       HT       0.417000       1.00800           0   0.00000       0.00000    
     28009 TIP3     1031     TIP3     H2       HT       0.417000       1.00800           0   0.00000     -0.301140E-02
     28010 TIP3     1032     TIP3     OH2      OT      -0.834000       15.9994           0   0.00000       0.00000    
     28011 TIP3     1032     TIP3     H1       HT       0.417000       1.00800           0   0.00000       0.00000    
     28012 TIP3     1032     TIP3     H2       HT       0.417000       1.00800           0   0.00000     -0.301140E-02
     28013 TIP3     1033     TIP3     OH2      OT      -0.834000       15.9994           0   0.00000       0.00000    
     28014 TIP3     1033     TIP3     H1       HT       0.417000       1.00800           0   0.00000       0.00000    
     28015 TIP3     1033     TIP3     H2       HT       0.417000       1.00800           0   0.00000     -0.301140E-02
     28016 TIP3     1034     TIP3     OH2      OT      -0.834000       15.9994           0   0.00000       0.00000    
     28017 TIP3     1034     TIP3     H1       HT       0.417000       1.00800           0   0.00000       0.00000    
     28018 TIP3     1034     TIP3     H2       HT       0.417000       1.00800           0   0.00000     -0.301140E-02
     28019 TIP3     1035     TIP3     OH2      OT      -0.834000       15.9994           0   0.00000       0.00000    
     28020 TIP3     1035     TIP3     H1       HT       0.417000       1.00800           0   0.00000       0.00000    
     28021 TIP3     1035     TIP3     H2       HT       0.417000       1.00800           0   0.00000     -0.301140E-02
     28022 TIP3     1036     TIP3     OH2      OT      -0.834000       15.9994           0   0.00000       0.00000    
     28023 TIP3     1036     TIP3     H1       HT       0.417000       1.00800           0   0.00000       0.00000    
     28024 TIP3     1036     TIP3     H2       HT       0.417000       1.00800           0   0.00000     -0.301140E-02
     28025 TIP3     1037     TIP3     OH2      OT      -0.834000       15.9994           0   0.00000       0.00000    
     28026 TIP3     1037     TIP3     H1       HT       0.417000       1.00800           0   0.00000       0.00000    
     28027 TIP3     1037     TIP3     H2       HT       0.417000       1.00800           0   0.00000     -0.301140E-02
     28028 TIP3     1038     TIP3     OH2      OT      -0.834000       15.9994           0   0.00000       0.00000    
     28029 TIP3     1038     TIP3     H1       HT       0.417000       1.00800           0   0.00000       0.00000    
     28030 TIP3     1038     TIP3     H2       HT       0.417000       1.00800           0   0.00000     -0.301140E-02
     28031 TIP3     1039     TIP3     OH2      OT      -0.834000       15.9994           0   0.00000       0.00000    
     28032 TIP3     1039     TIP3     H1       HT       0.417000       1.00800           0   0.00000       0.00000    
     28033 TIP3     1039     TIP3     H2       HT       0.417000       1.00800           0   0.00000     -0.301140E-02
     28034 TIP3     1040     TIP3     OH2      OT      -0.834000       15.9994           0   0.00000       0.00000    
     28035 TIP3     1040     TIP3     H1       HT       0.417000       1.00800           0   0.00000       0.00000    
     28036 TIP3     1040     TIP3     H2       HT       0.417000       1.00800           0   0.00000     -0.301140E-02
     28037 TIP3     1041     TIP3     OH2      OT      -0.834000       15.9994           0   0.00000       0.00000    
     28038 TIP3     1041     TIP3     H1       HT       0.417000       1.00800           0   0.00000       0.00000    
     28039 TIP3     1041     TIP3     H2       HT       0.417000       1.00800           0   0.00000     -0.301140E-02
     28040 TIP3     1042     TIP3     OH2      OT      -0.834000       15.9994           0   0.00000       0.00000    
     28041 TIP3     1042     TIP3     H1       HT       0.417000       1.00800           0   0.00000       0.00000    
     28042 TIP3     1042     TIP3     H2       HT       0.417000       1.00800           0   0.00000     -0.301140E-02
     28043 TIP3     1043     TIP3     OH2      OT      -0.834000       15.9994           0   0.00000       0.00000    
     28044 TIP3     1043     TIP3     H1       HT       0.417000       1.00800           0   0.00000       0.00000    
     28045 TIP3     1043     TIP3     H2       HT       0.417000       1.00800           0   0.00000     -0.301140E-02
     28046 TIP3     1044     TIP3     OH2      OT      -0.834000       15.9994           0   0.00000       0.00000    
     28047 TIP3     1044     TIP3     H1       HT       0.417000       1.00800           0   0.00000       0.00000    
     28048 TIP3     1044     TIP3     H2       HT       0.417000       1.00800           0   0.00000     -0.301140E-02
     28049 TIP3     1045     TIP3     OH2      OT      -0.834000       15.9994           0   0.00000       0.00000    
     28050 TIP3     1045     TIP3     H1       HT       0.417000       1.00800           0   0.00000       0.00000    
     28051 TIP3     1045     TIP3     H2       HT       0.417000       1.00800           0   0.00000     -0.301140E-02
     28052 TIP3     1046     TIP3     OH2      OT      -0.834000       15.9994           0   0.00000       0.00000    
     28053 TIP3     1046     TIP3     H1       HT       0.417000       1.00800           0   0.00000       0.00000    
     28054 TIP3     1046     TIP3     H2       HT       0.417000       1.00800           0   0.00000     -0.301140E-02
     28055 TIP3     1047     TIP3     OH2      OT      -0.834000       15.9994           0   0.00000       0.00000    
     28056 TIP3     1047     TIP3     H1       HT       0.417000       1.00800           0   0.00000       0.00000    
     28057 TIP3     1047     TIP3     H2       HT       0.417000       1.00800           0   0.00000     -0.301140E-02
     28058 TIP3     1048     TIP3     OH2      OT      -0.834000       15.9994           0   0.00000       0.00000    
     28059 TIP3     1048     TIP3     H1       HT       0.417000       1.00800           0   0.00000       0.00000    
     28060 TIP3     1048     TIP3     H2       HT       0.417000       1.00800           0   0.00000     -0.301140E-02
     28061 TIP3     1049     TIP3     OH2      OT      -0.834000       15.9994           0   0.00000       0.00000    
     28062 TIP3     1049     TIP3     H1       HT       0.417000       1.00800           0   0.00000       0.00000    
     28063 TIP3     1049     TIP3     H2       HT       0.417000       1.00800           0   0.00000     -0.301140E-02
     28064 TIP3     1050     TIP3     OH2      OT      -0.834000       15.9994           0   0.00000       0.00000    
     28065 TIP3     1050     TIP3     H1       HT       0.417000       1.00800           0   0.00000       0.00000    
     28066 TIP3     1050     TIP3     H2       HT       0.417000       1.00800           0   0.00000     -0.301140E-02
     28067 TIP3     1051     TIP3     OH2      OT      -0.834000       15.9994           0   0.00000       0.00000    
     28068 TIP3     1051     TIP3     H1       HT       0.417000       1.00800           0   0.00000       0.00000    
     28069 TIP3     1051     TIP3     H2       HT       0.417000       1.00800           0   0.00000     -0.301140E-02
     28070 TIP3     1052     TIP3     OH2      OT      -0.834000       15.9994           0   0.00000       0.00000    
     28071 TIP3     1052     TIP3     H1       HT       0.417000       1.00800           0   0.00000       0.00000    
     28072 TIP3     1052     TIP3     H2       HT       0.417000       1.00800           0   0.00000     -0.301140E-02
     28073 TIP3     1053     TIP3     OH2      OT      -0.834000       15.9994           0   0.00000       0.00000    
     28074 TIP3     1053     TIP3     H1       HT       0.417000       1.00800           0   0.00000       0.00000    
     28075 TIP3     1053     TIP3     H2       HT       0.417000       1.00800           0   0.00000     -0.301140E-02
     28076 TIP3     1054     TIP3     OH2      OT      -0.834000       15.9994           0   0.00000       0.00000    
     28077 TIP3     1054     TIP3     H1       HT       0.417000       1.00800           0   0.00000       0.00000    
     28078 TIP3     1054     TIP3     H2       HT       0.417000       1.00800           0   0.00000     -0.301140E-02
     28079 TIP3     1055     TIP3     OH2      OT      -0.834000       15.9994           0   0.00000       0.00000    
     28080 TIP3     1055     TIP3     H1       HT       0.417000       1.00800           0   0.00000       0.00000    
     28081 TIP3     1055     TIP3     H2       HT       0.417000       1.00800           0   0.00000     -0.301140E-02
     28082 TIP3     1056     TIP3     OH2      OT      -0.834000       15.9994           0   0.00000       0.00000    
     28083 TIP3     1056     TIP3     H1       HT       0.417000       1.00800           0   0.00000       0.00000    
     28084 TIP3     1056     TIP3     H2       HT       0.417000       1.00800           0   0.00000     -0.301140E-02
     28085 TIP3     1057     TIP3     OH2      OT      -0.834000       15.9994           0   0.00000       0.00000    
     28086 TIP3     1057     TIP3     H1       HT       0.417000       1.00800           0   0.00000       0.00000    
     28087 TIP3     1057     TIP3     H2       HT       0.417000       1.00800           0   0.00000     -0.301140E-02
     28088 TIP3     1058     TIP3     OH2      OT      -0.834000       15.9994           0   0.00000       0.00000    
     28089 TIP3     1058     TIP3     H1       HT       0.417000       1.00800           0   0.00000       0.00000    
     28090 TIP3     1058     TIP3     H2       HT       0.417000       1.00800           0   0.00000     -0.301140E-02
     28091 TIP3     1059     TIP3     OH2      OT      -0.834000       15.9994           0   0.00000       0.00000    
     28092 TIP3     1059     TIP3     H1       HT       0.417000       1.00800           0   0.00000       0.00000    
     28093 TIP3     1059     TIP3     H2       HT       0.417000       1.00800           0   0.00000     -0.301140E-02
     28094 TIP3     1060     TIP3     OH2      OT      -0.834000       15.9994           0   0.00000       0.00000    
     28095 TIP3     1060     TIP3     H1       HT       0.417000       1.00800           0   0.00000       0.00000    
     28096 TIP3     1060     TIP3     H2       HT       0.417000       1.00800           0   0.00000     -0.301140E-02
     28097 TIP3     1061     TIP3     OH2      OT      -0.834000       15.9994           0   0.00000       0.00000    
     28098 TIP3     1061     TIP3     H1       HT       0.417000       1.00800           0   0.00000       0.00000    
     28099 TIP3     1061     TIP3     H2       HT       0.417000       1.00800           0   0.00000     -0.301140E-02
     28100 TIP3     1062     TIP3     OH2      OT      -0.834000       15.9994           0   0.00000       0.00000    
     28101 TIP3     1062     TIP3     H1       HT       0.417000       1.00800           0   0.00000       0.00000    
     28102 TIP3     1062     TIP3     H2       HT       0.417000       1.00800           0   0.00000     -0.301140E-02
     28103 TIP3     1063     TIP3     OH2      OT      -0.834000       15.9994           0   0.00000       0.00000    
     28104 TIP3     1063     TIP3     H1       HT       0.417000       1.00800           0   0.00000       0.00000    
     28105 TIP3     1063     TIP3     H2       HT       0.417000       1.00800           0   0.00000     -0.301140E-02
     28106 TIP3     1064     TIP3     OH2      OT      -0.834000       15.9994           0   0.00000       0.00000    
     28107 TIP3     1064     TIP3     H1       HT       0.417000       1.00800           0   0.00000       0.00000    
     28108 TIP3     1064     TIP3     H2       HT       0.417000       1.00800           0   0.00000     -0.301140E-02
     28109 TIP3     1065     TIP3     OH2      OT      -0.834000       15.9994           0   0.00000       0.00000    
     28110 TIP3     1065     TIP3     H1       HT       0.417000       1.00800           0   0.00000       0.00000    
     28111 TIP3     1065     TIP3     H2       HT       0.417000       1.00800           0   0.00000     -0.301140E-02
     28112 TIP3     1066     TIP3     OH2      OT      -0.834000       15.9994           0   0.00000       0.00000    
     28113 TIP3     1066     TIP3     H1       HT       0.417000       1.00800           0   0.00000       0.00000    
     28114 TIP3     1066     TIP3     H2       HT       0.417000       1.00800           0   0.00000     -0.301140E-02
     28115 TIP3     1067     TIP3     OH2      OT      -0.834000       15.9994           0   0.00000       0.00000    
     28116 TIP3     1067     TIP3     H1       HT       0.417000       1.00800           0   0.00000       0.00000    
     28117 TIP3     1067     TIP3     H2       HT       0.417000       1.00800           0   0.00000     -0.301140E-02
     28118 TIP3     1068     TIP3     OH2      OT      -0.834000       15.9994           0   0.00000       0.00000    
     28119 TIP3     1068     TIP3     H1       HT       0.417000       1.00800           0   0.00000       0.00000    
     28120 TIP3     1068     TIP3     H2       HT       0.417000       1.00800           0   0.00000     -0.301140E-02
     28121 TIP3     1069     TIP3     OH2      OT      -0.834000       15.9994           0   0.00000       0.00000    
     28122 TIP3     1069     TIP3     H1       HT       0.417000       1.00800           0   0.00000       0.00000    
     28123 TIP3     1069     TIP3     H2       HT       0.417000       1.00800           0   0.00000     -0.301140E-02
     28124 TIP3     1070     TIP3     OH2      OT      -0.834000       15.9994           0   0.00000       0.00000    
     28125 TIP3     1070     TIP3     H1       HT       0.417000       1.00800           0   0.00000       0.00000    
     28126 TIP3     1070     TIP3     H2       HT       0.417000       1.00800           0   0.00000     -0.301140E-02
     28127 TIP3     1071     TIP3     OH2      OT      -0.834000       15.9994           0   0.00000       0.00000    
     28128 TIP3     1071     TIP3     H1       HT       0.417000       1.00800           0   0.00000       0.00000    
     28129 TIP3     1071     TIP3     H2       HT       0.417000       1.00800           0   0.00000     -0.301140E-02
     28130 TIP3     1072     TIP3     OH2      OT      -0.834000       15.9994           0   0.00000       0.00000    
     28131 TIP3     1072     TIP3     H1       HT       0.417000       1.00800           0   0.00000       0.00000    
     28132 TIP3     1072     TIP3     H2       HT       0.417000       1.00800           0   0.00000     -0.301140E-02
     28133 TIP3     1073     TIP3     OH2      OT      -0.834000       15.9994           0   0.00000       0.00000    
     28134 TIP3     1073     TIP3     H1       HT       0.417000       1.00800           0   0.00000       0.00000    
     28135 TIP3     1073     TIP3     H2       HT       0.417000       1.00800           0   0.00000     -0.301140E-02
     28136 TIP3     1074     TIP3     OH2      OT      -0.834000       15.9994           0   0.00000       0.00000    
     28137 TIP3     1074     TIP3     H1       HT       0.417000       1.00800           0   0.00000       0.00000    
     28138 TIP3     1074     TIP3     H2       HT       0.417000       1.00800           0   0.00000     -0.301140E-02
     28139 TIP3     1075     TIP3     OH2      OT      -0.834000       15.9994           0   0.00000       0.00000    
     28140 TIP3     1075     TIP3     H1       HT       0.417000       1.00800           0   0.00000       0.00000    
     28141 TIP3     1075     TIP3     H2       HT       0.417000       1.00800           0   0.00000     -0.301140E-02
     28142 TIP3     1076     TIP3     OH2      OT      -0.834000       15.9994           0   0.00000       0.00000    
     28143 TIP3     1076     TIP3     H1       HT       0.417000       1.00800           0   0.00000       0.00000    
     28144 TIP3     1076     TIP3     H2       HT       0.417000       1.00800           0   0.00000     -0.301140E-02
     28145 TIP3     1077     TIP3     OH2      OT      -0.834000       15.9994           0   0.00000       0.00000    
     28146 TIP3     1077     TIP3     H1       HT       0.417000       1.00800           0   0.00000       0.00000    
     28147 TIP3     1077     TIP3     H2       HT       0.417000       1.00800           0   0.00000     -0.301140E-02
     28148 TIP3     1078     TIP3     OH2      OT      -0.834000       15.9994           0   0.00000       0.00000    
     28149 TIP3     1078     TIP3     H1       HT       0.417000       1.00800           0   0.00000       0.00000    
     28150 TIP3     1078     TIP3     H2       HT       0.417000       1.00800           0   0.00000     -0.301140E-02
     28151 TIP3     1079     TIP3     OH2      OT      -0.834000       15.9994           0   0.00000       0.00000    
     28152 TIP3     1079     TIP3     H1       HT       0.417000       1.00800           0   0.00000       0.00000    
     28153 TIP3     1079     TIP3     H2       HT       0.417000       1.00800           0   0.00000     -0.301140E-02
     28154 TIP3     1080     TIP3     OH2      OT      -0.834000       15.9994           0   0.00000       0.00000    
     28155 TIP3     1080     TIP3     H1       HT       0.417000       1.00800           0   0.00000       0.00000    
     28156 TIP3     1080     TIP3     H2       HT       0.417000       1.00800           0   0.00000     -0.301140E-02
     28157 TIP3     1081     TIP3     OH2      OT      -0.834000       15.9994           0   0.00000       0.00000    
     28158 TIP3     1081     TIP3     H1       HT       0.417000       1.00800           0   0.00000       0.00000    
     28159 TIP3     1081     TIP3     H2       HT       0.417000       1.00800           0   0.00000     -0.301140E-02
     28160 TIP3     1082     TIP3     OH2      OT      -0.834000       15.9994           0   0.00000       0.00000    
     28161 TIP3     1082     TIP3     H1       HT       0.417000       1.00800           0   0.00000       0.00000    
     28162 TIP3     1082     TIP3     H2       HT       0.417000       1.00800           0   0.00000     -0.301140E-02
     28163 TIP3     1083     TIP3     OH2      OT      -0.834000       15.9994           0   0.00000       0.00000    
     28164 TIP3     1083     TIP3     H1       HT       0.417000       1.00800           0   0.00000       0.00000    
     28165 TIP3     1083     TIP3     H2       HT       0.417000       1.00800           0   0.00000     -0.301140E-02
     28166 TIP3     1084     TIP3     OH2      OT      -0.834000       15.9994           0   0.00000       0.00000    
     28167 TIP3     1084     TIP3     H1       HT       0.417000       1.00800           0   0.00000       0.00000    
     28168 TIP3     1084     TIP3     H2       HT       0.417000       1.00800           0   0.00000     -0.301140E-02
     28169 TIP3     1085     TIP3     OH2      OT      -0.834000       15.9994           0   0.00000       0.00000    
     28170 TIP3     1085     TIP3     H1       HT       0.417000       1.00800           0   0.00000       0.00000    
     28171 TIP3     1085     TIP3     H2       HT       0.417000       1.00800           0   0.00000     -0.301140E-02
     28172 TIP3     1086     TIP3     OH2      OT      -0.834000       15.9994           0   0.00000       0.00000    
     28173 TIP3     1086     TIP3     H1       HT       0.417000       1.00800           0   0.00000       0.00000    
     28174 TIP3     1086     TIP3     H2       HT       0.417000       1.00800           0   0.00000     -0.301140E-02
     28175 TIP3     1087     TIP3     OH2      OT      -0.834000       15.9994           0   0.00000       0.00000    
     28176 TIP3     1087     TIP3     H1       HT       0.417000       1.00800           0   0.00000       0.00000    
     28177 TIP3     1087     TIP3     H2       HT       0.417000       1.00800           0   0.00000     -0.301140E-02
     28178 TIP3     1088     TIP3     OH2      OT      -0.834000       15.9994           0   0.00000       0.00000    
     28179 TIP3     1088     TIP3     H1       HT       0.417000       1.00800           0   0.00000       0.00000    
     28180 TIP3     1088     TIP3     H2       HT       0.417000       1.00800           0   0.00000     -0.301140E-02
     28181 TIP3     1089     TIP3     OH2      OT      -0.834000       15.9994           0   0.00000       0.00000    
     28182 TIP3     1089     TIP3     H1       HT       0.417000       1.00800           0   0.00000       0.00000    
     28183 TIP3     1089     TIP3     H2       HT       0.417000       1.00800           0   0.00000     -0.301140E-02
     28184 TIP3     1090     TIP3     OH2      OT      -0.834000       15.9994           0   0.00000       0.00000    
     28185 TIP3     1090     TIP3     H1       HT       0.417000       1.00800           0   0.00000       0.00000    
     28186 TIP3     1090     TIP3     H2       HT       0.417000       1.00800           0   0.00000     -0.301140E-02
     28187 TIP3     1091     TIP3     OH2      OT      -0.834000       15.9994           0   0.00000       0.00000    
     28188 TIP3     1091     TIP3     H1       HT       0.417000       1.00800           0   0.00000       0.00000    
     28189 TIP3     1091     TIP3     H2       HT       0.417000       1.00800           0   0.00000     -0.301140E-02
     28190 TIP3     1092     TIP3     OH2      OT      -0.834000       15.9994           0   0.00000       0.00000    
     28191 TIP3     1092     TIP3     H1       HT       0.417000       1.00800           0   0.00000       0.00000    
     28192 TIP3     1092     TIP3     H2       HT       0.417000       1.00800           0   0.00000     -0.301140E-02
     28193 TIP3     1093     TIP3     OH2      OT      -0.834000       15.9994           0   0.00000       0.00000    
     28194 TIP3     1093     TIP3     H1       HT       0.417000       1.00800           0   0.00000       0.00000    
     28195 TIP3     1093     TIP3     H2       HT       0.417000       1.00800           0   0.00000     -0.301140E-02
     28196 TIP3     1094     TIP3     OH2      OT      -0.834000       15.9994           0   0.00000       0.00000    
     28197 TIP3     1094     TIP3     H1       HT       0.417000       1.00800           0   0.00000       0.00000    
     28198 TIP3     1094     TIP3     H2       HT       0.417000       1.00800           0   0.00000     -0.301140E-02
     28199 TIP3     1095     TIP3     OH2      OT      -0.834000       15.9994           0   0.00000       0.00000    
     28200 TIP3     1095     TIP3     H1       HT       0.417000       1.00800           0   0.00000       0.00000    
     28201 TIP3     1095     TIP3     H2       HT       0.417000       1.00800           0   0.00000     -0.301140E-02
     28202 TIP3     1096     TIP3     OH2      OT      -0.834000       15.9994           0   0.00000       0.00000    
     28203 TIP3     1096     TIP3     H1       HT       0.417000       1.00800           0   0.00000       0.00000    
     28204 TIP3     1096     TIP3     H2       HT       0.417000       1.00800           0   0.00000     -0.301140E-02
     28205 TIP3     1097     TIP3     OH2      OT      -0.834000       15.9994           0   0.00000       0.00000    
     28206 TIP3     1097     TIP3     H1       HT       0.417000       1.00800           0   0.00000       0.00000    
     28207 TIP3     1097     TIP3     H2       HT       0.417000       1.00800           0   0.00000     -0.301140E-02
     28208 TIP3     1098     TIP3     OH2      OT      -0.834000       15.9994           0   0.00000       0.00000    
     28209 TIP3     1098     TIP3     H1       HT       0.417000       1.00800           0   0.00000       0.00000    
     28210 TIP3     1098     TIP3     H2       HT       0.417000       1.00800           0   0.00000     -0.301140E-02
     28211 TIP3     1099     TIP3     OH2      OT      -0.834000       15.9994           0   0.00000       0.00000    
     28212 TIP3     1099     TIP3     H1       HT       0.417000       1.00800           0   0.00000       0.00000    
     28213 TIP3     1099     TIP3     H2       HT       0.417000       1.00800           0   0.00000     -0.301140E-02
     28214 TIP3     1100     TIP3     OH2      OT      -0.834000       15.9994           0   0.00000       0.00000    
     28215 TIP3     1100     TIP3     H1       HT       0.417000       1.00800           0   0.00000       0.00000    
     28216 TIP3     1100     TIP3     H2       HT       0.417000       1.00800           0   0.00000     -0.301140E-02
     28217 TIP3     1101     TIP3     OH2      OT      -0.834000       15.9994           0   0.00000       0.00000    
     28218 TIP3     1101     TIP3     H1       HT       0.417000       1.00800           0   0.00000       0.00000    
     28219 TIP3     1101     TIP3     H2       HT       0.417000       1.00800           0   0.00000     -0.301140E-02
     28220 TIP3     1102     TIP3     OH2      OT      -0.834000       15.9994           0   0.00000       0.00000    
     28221 TIP3     1102     TIP3     H1       HT       0.417000       1.00800           0   0.00000       0.00000    
     28222 TIP3     1102     TIP3     H2       HT       0.417000       1.00800           0   0.00000     -0.301140E-02
     28223 TIP3     1103     TIP3     OH2      OT      -0.834000       15.9994           0   0.00000       0.00000    
     28224 TIP3     1103     TIP3     H1       HT       0.417000       1.00800           0   0.00000       0.00000    
     28225 TIP3     1103     TIP3     H2       HT       0.417000       1.00800           0   0.00000     -0.301140E-02
     28226 TIP3     1104     TIP3     OH2      OT      -0.834000       15.9994           0   0.00000       0.00000    
     28227 TIP3     1104     TIP3     H1       HT       0.417000       1.00800           0   0.00000       0.00000    
     28228 TIP3     1104     TIP3     H2       HT       0.417000       1.00800           0   0.00000     -0.301140E-02
     28229 TIP3     1105     TIP3     OH2      OT      -0.834000       15.9994           0   0.00000       0.00000    
     28230 TIP3     1105     TIP3     H1       HT       0.417000       1.00800           0   0.00000       0.00000    
     28231 TIP3     1105     TIP3     H2       HT       0.417000       1.00800           0   0.00000     -0.301140E-02
     28232 TIP3     1106     TIP3     OH2      OT      -0.834000       15.9994           0   0.00000       0.00000    
     28233 TIP3     1106     TIP3     H1       HT       0.417000       1.00800           0   0.00000       0.00000    
     28234 TIP3     1106     TIP3     H2       HT       0.417000       1.00800           0   0.00000     -0.301140E-02
     28235 TIP3     1107     TIP3     OH2      OT      -0.834000       15.9994           0   0.00000       0.00000    
     28236 TIP3     1107     TIP3     H1       HT       0.417000       1.00800           0   0.00000       0.00000    
     28237 TIP3     1107     TIP3     H2       HT       0.417000       1.00800           0   0.00000     -0.301140E-02
     28238 TIP3     1108     TIP3     OH2      OT      -0.834000       15.9994           0   0.00000       0.00000    
     28239 TIP3     1108     TIP3     H1       HT       0.417000       1.00800           0   0.00000       0.00000    
     28240 TIP3     1108     TIP3     H2       HT       0.417000       1.00800           0   0.00000     -0.301140E-02
     28241 TIP3     1109     TIP3     OH2      OT      -0.834000       15.9994           0   0.00000       0.00000    
     28242 TIP3     1109     TIP3     H1       HT       0.417000       1.00800           0   0.00000       0.00000    
     28243 TIP3     1109     TIP3     H2       HT       0.417000       1.00800           0   0.00000     -0.301140E-02
     28244 TIP3     1110     TIP3     OH2      OT      -0.834000       15.9994           0   0.00000       0.00000    
     28245 TIP3     1110     TIP3     H1       HT       0.417000       1.00800           0   0.00000       0.00000    
     28246 TIP3     1110     TIP3     H2       HT       0.417000       1.00800           0   0.00000     -0.301140E-02
     28247 TIP3     1111     TIP3     OH2      OT      -0.834000       15.9994           0   0.00000       0.00000    
     28248 TIP3     1111     TIP3     H1       HT       0.417000       1.00800           0   0.00000       0.00000    
     28249 TIP3     1111     TIP3     H2       HT       0.417000       1.00800           0   0.00000     -0.301140E-02
     28250 TIP3     1112     TIP3     OH2      OT      -0.834000       15.9994           0   0.00000       0.00000    
     28251 TIP3     1112     TIP3     H1       HT       0.417000       1.00800           0   0.00000       0.00000    
     28252 TIP3     1112     TIP3     H2       HT       0.417000       1.00800           0   0.00000     -0.301140E-02
     28253 TIP3     1113     TIP3     OH2      OT      -0.834000       15.9994           0   0.00000       0.00000    
     28254 TIP3     1113     TIP3     H1       HT       0.417000       1.00800           0   0.00000       0.00000    
     28255 TIP3     1113     TIP3     H2       HT       0.417000       1.00800           0   0.00000     -0.301140E-02
     28256 TIP3     1114     TIP3     OH2      OT      -0.834000       15.9994           0   0.00000       0.00000    
     28257 TIP3     1114     TIP3     H1       HT       0.417000       1.00800           0   0.00000       0.00000    
     28258 TIP3     1114     TIP3     H2       HT       0.417000       1.00800           0   0.00000     -0.301140E-02
     28259 TIP3     1115     TIP3     OH2      OT      -0.834000       15.9994           0   0.00000       0.00000    
     28260 TIP3     1115     TIP3     H1       HT       0.417000       1.00800           0   0.00000       0.00000    
     28261 TIP3     1115     TIP3     H2       HT       0.417000       1.00800           0   0.00000     -0.301140E-02
     28262 TIP3     1116     TIP3     OH2      OT      -0.834000       15.9994           0   0.00000       0.00000    
     28263 TIP3     1116     TIP3     H1       HT       0.417000       1.00800           0   0.00000       0.00000    
     28264 TIP3     1116     TIP3     H2       HT       0.417000       1.00800           0   0.00000     -0.301140E-02
     28265 TIP3     1117     TIP3     OH2      OT      -0.834000       15.9994           0   0.00000       0.00000    
     28266 TIP3     1117     TIP3     H1       HT       0.417000       1.00800           0   0.00000       0.00000    
     28267 TIP3     1117     TIP3     H2       HT       0.417000       1.00800           0   0.00000     -0.301140E-02
     28268 TIP3     1118     TIP3     OH2      OT      -0.834000       15.9994           0   0.00000       0.00000    
     28269 TIP3     1118     TIP3     H1       HT       0.417000       1.00800           0   0.00000       0.00000    
     28270 TIP3     1118     TIP3     H2       HT       0.417000       1.00800           0   0.00000     -0.301140E-02
     28271 TIP3     1119     TIP3     OH2      OT      -0.834000       15.9994           0   0.00000       0.00000    
     28272 TIP3     1119     TIP3     H1       HT       0.417000       1.00800           0   0.00000       0.00000    
     28273 TIP3     1119     TIP3     H2       HT       0.417000       1.00800           0   0.00000     -0.301140E-02
     28274 TIP3     1120     TIP3     OH2      OT      -0.834000       15.9994           0   0.00000       0.00000    
     28275 TIP3     1120     TIP3     H1       HT       0.417000       1.00800           0   0.00000       0.00000    
     28276 TIP3     1120     TIP3     H2       HT       0.417000       1.00800           0   0.00000     -0.301140E-02
     28277 TIP3     1121     TIP3     OH2      OT      -0.834000       15.9994           0   0.00000       0.00000    
     28278 TIP3     1121     TIP3     H1       HT       0.417000       1.00800           0   0.00000       0.00000    
     28279 TIP3     1121     TIP3     H2       HT       0.417000       1.00800           0   0.00000     -0.301140E-02
     28280 TIP3     1122     TIP3     OH2      OT      -0.834000       15.9994           0   0.00000       0.00000    
     28281 TIP3     1122     TIP3     H1       HT       0.417000       1.00800           0   0.00000       0.00000    
     28282 TIP3     1122     TIP3     H2       HT       0.417000       1.00800           0   0.00000     -0.301140E-02
     28283 TIP3     1123     TIP3     OH2      OT      -0.834000       15.9994           0   0.00000       0.00000    
     28284 TIP3     1123     TIP3     H1       HT       0.417000       1.00800           0   0.00000       0.00000    
     28285 TIP3     1123     TIP3     H2       HT       0.417000       1.00800           0   0.00000     -0.301140E-02
     28286 TIP3     1124     TIP3     OH2      OT      -0.834000       15.9994           0   0.00000       0.00000    
     28287 TIP3     1124     TIP3     H1       HT       0.417000       1.00800           0   0.00000       0.00000    
     28288 TIP3     1124     TIP3     H2       HT       0.417000       1.00800           0   0.00000     -0.301140E-02
     28289 TIP3     1125     TIP3     OH2      OT      -0.834000       15.9994           0   0.00000       0.00000    
     28290 TIP3     1125     TIP3     H1       HT       0.417000       1.00800           0   0.00000       0.00000    
     28291 TIP3     1125     TIP3     H2       HT       0.417000       1.00800           0   0.00000     -0.301140E-02
     28292 TIP3     1126     TIP3     OH2      OT      -0.834000       15.9994           0   0.00000       0.00000    
     28293 TIP3     1126     TIP3     H1       HT       0.417000       1.00800           0   0.00000       0.00000    
     28294 TIP3     1126     TIP3     H2       HT       0.417000       1.00800           0   0.00000     -0.301140E-02
     28295 TIP3     1127     TIP3     OH2      OT      -0.834000       15.9994           0   0.00000       0.00000    
     28296 TIP3     1127     TIP3     H1       HT       0.417000       1.00800           0   0.00000       0.00000    
     28297 TIP3     1127     TIP3     H2       HT       0.417000       1.00800           0   0.00000     -0.301140E-02
     28298 TIP3     1128     TIP3     OH2      OT      -0.834000       15.9994           0   0.00000       0.00000    
     28299 TIP3     1128     TIP3     H1       HT       0.417000       1.00800           0   0.00000       0.00000    
     28300 TIP3     1128     TIP3     H2       HT       0.417000       1.00800           0   0.00000     -0.301140E-02
     28301 TIP3     1129     TIP3     OH2      OT      -0.834000       15.9994           0   0.00000       0.00000    
     28302 TIP3     1129     TIP3     H1       HT       0.417000       1.00800           0   0.00000       0.00000    
     28303 TIP3     1129     TIP3     H2       HT       0.417000       1.00800           0   0.00000     -0.301140E-02
     28304 TIP3     1130     TIP3     OH2      OT      -0.834000       15.9994           0   0.00000       0.00000    
     28305 TIP3     1130     TIP3     H1       HT       0.417000       1.00800           0   0.00000       0.00000    
     28306 TIP3     1130     TIP3     H2       HT       0.417000       1.00800           0   0.00000     -0.301140E-02
     28307 TIP3     1131     TIP3     OH2      OT      -0.834000       15.9994           0   0.00000       0.00000    
     28308 TIP3     1131     TIP3     H1       HT       0.417000       1.00800           0   0.00000       0.00000    
     28309 TIP3     1131     TIP3     H2       HT       0.417000       1.00800           0   0.00000     -0.301140E-02
     28310 TIP3     1132     TIP3     OH2      OT      -0.834000       15.9994           0   0.00000       0.00000    
     28311 TIP3     1132     TIP3     H1       HT       0.417000       1.00800           0   0.00000       0.00000    
     28312 TIP3     1132     TIP3     H2       HT       0.417000       1.00800           0   0.00000     -0.301140E-02
     28313 TIP3     1133     TIP3     OH2      OT      -0.834000       15.9994           0   0.00000       0.00000    
     28314 TIP3     1133     TIP3     H1       HT       0.417000       1.00800           0   0.00000       0.00000    
     28315 TIP3     1133     TIP3     H2       HT       0.417000       1.00800           0   0.00000     -0.301140E-02
     28316 TIP3     1134     TIP3     OH2      OT      -0.834000       15.9994           0   0.00000       0.00000    
     28317 TIP3     1134     TIP3     H1       HT       0.417000       1.00800           0   0.00000       0.00000    
     28318 TIP3     1134     TIP3     H2       HT       0.417000       1.00800           0   0.00000     -0.301140E-02
     28319 TIP3     1135     TIP3     OH2      OT      -0.834000       15.9994           0   0.00000       0.00000    
     28320 TIP3     1135     TIP3     H1       HT       0.417000       1.00800           0   0.00000       0.00000    
     28321 TIP3     1135     TIP3     H2       HT       0.417000       1.00800           0   0.00000     -0.301140E-02
     28322 TIP3     1136     TIP3     OH2      OT      -0.834000       15.9994           0   0.00000       0.00000    
     28323 TIP3     1136     TIP3     H1       HT       0.417000       1.00800           0   0.00000       0.00000    
     28324 TIP3     1136     TIP3     H2       HT       0.417000       1.00800           0   0.00000     -0.301140E-02
     28325 TIP3     1137     TIP3     OH2      OT      -0.834000       15.9994           0   0.00000       0.00000    
     28326 TIP3     1137     TIP3     H1       HT       0.417000       1.00800           0   0.00000       0.00000    
     28327 TIP3     1137     TIP3     H2       HT       0.417000       1.00800           0   0.00000     -0.301140E-02
     28328 TIP3     1138     TIP3     OH2      OT      -0.834000       15.9994           0   0.00000       0.00000    
     28329 TIP3     1138     TIP3     H1       HT       0.417000       1.00800           0   0.00000       0.00000    
     28330 TIP3     1138     TIP3     H2       HT       0.417000       1.00800           0   0.00000     -0.301140E-02
     28331 TIP3     1139     TIP3     OH2      OT      -0.834000       15.9994           0   0.00000       0.00000    
     28332 TIP3     1139     TIP3     H1       HT       0.417000       1.00800           0   0.00000       0.00000    
     28333 TIP3     1139     TIP3     H2       HT       0.417000       1.00800           0   0.00000     -0.301140E-02
     28334 TIP3     1140     TIP3     OH2      OT      -0.834000       15.9994           0   0.00000       0.00000    
     28335 TIP3     1140     TIP3     H1       HT       0.417000       1.00800           0   0.00000       0.00000    
     28336 TIP3     1140     TIP3     H2       HT       0.417000       1.00800           0   0.00000     -0.301140E-02
     28337 TIP3     1141     TIP3     OH2      OT      -0.834000       15.9994           0   0.00000       0.00000    
     28338 TIP3     1141     TIP3     H1       HT       0.417000       1.00800           0   0.00000       0.00000    
     28339 TIP3     1141     TIP3     H2       HT       0.417000       1.00800           0   0.00000     -0.301140E-02
     28340 TIP3     1142     TIP3     OH2      OT      -0.834000       15.9994           0   0.00000       0.00000    
     28341 TIP3     1142     TIP3     H1       HT       0.417000       1.00800           0   0.00000       0.00000    
     28342 TIP3     1142     TIP3     H2       HT       0.417000       1.00800           0   0.00000     -0.301140E-02
     28343 TIP3     1143     TIP3     OH2      OT      -0.834000       15.9994           0   0.00000       0.00000    
     28344 TIP3     1143     TIP3     H1       HT       0.417000       1.00800           0   0.00000       0.00000    
     28345 TIP3     1143     TIP3     H2       HT       0.417000       1.00800           0   0.00000     -0.301140E-02
     28346 TIP3     1144     TIP3     OH2      OT      -0.834000       15.9994           0   0.00000       0.00000    
     28347 TIP3     1144     TIP3     H1       HT       0.417000       1.00800           0   0.00000       0.00000    
     28348 TIP3     1144     TIP3     H2       HT       0.417000       1.00800           0   0.00000     -0.301140E-02
     28349 TIP3     1145     TIP3     OH2      OT      -0.834000       15.9994           0   0.00000       0.00000    
     28350 TIP3     1145     TIP3     H1       HT       0.417000       1.00800           0   0.00000       0.00000    
     28351 TIP3     1145     TIP3     H2       HT       0.417000       1.00800           0   0.00000     -0.301140E-02
     28352 TIP3     1146     TIP3     OH2      OT      -0.834000       15.9994           0   0.00000       0.00000    
     28353 TIP3     1146     TIP3     H1       HT       0.417000       1.00800           0   0.00000       0.00000    
     28354 TIP3     1146     TIP3     H2       HT       0.417000       1.00800           0   0.00000     -0.301140E-02
     28355 TIP3     1147     TIP3     OH2      OT      -0.834000       15.9994           0   0.00000       0.00000    
     28356 TIP3     1147     TIP3     H1       HT       0.417000       1.00800           0   0.00000       0.00000    
     28357 TIP3     1147     TIP3     H2       HT       0.417000       1.00800           0   0.00000     -0.301140E-02
     28358 TIP3     1148     TIP3     OH2      OT      -0.834000       15.9994           0   0.00000       0.00000    
     28359 TIP3     1148     TIP3     H1       HT       0.417000       1.00800           0   0.00000       0.00000    
     28360 TIP3     1148     TIP3     H2       HT       0.417000       1.00800           0   0.00000     -0.301140E-02
     28361 TIP3     1149     TIP3     OH2      OT      -0.834000       15.9994           0   0.00000       0.00000    
     28362 TIP3     1149     TIP3     H1       HT       0.417000       1.00800           0   0.00000       0.00000    
     28363 TIP3     1149     TIP3     H2       HT       0.417000       1.00800           0   0.00000     -0.301140E-02
     28364 TIP3     1150     TIP3     OH2      OT      -0.834000       15.9994           0   0.00000       0.00000    
     28365 TIP3     1150     TIP3     H1       HT       0.417000       1.00800           0   0.00000       0.00000    
     28366 TIP3     1150     TIP3     H2       HT       0.417000       1.00800           0   0.00000     -0.301140E-02
     28367 TIP3     1151     TIP3     OH2      OT      -0.834000       15.9994           0   0.00000       0.00000    
     28368 TIP3     1151     TIP3     H1       HT       0.417000       1.00800           0   0.00000       0.00000    
     28369 TIP3     1151     TIP3     H2       HT       0.417000       1.00800           0   0.00000     -0.301140E-02
     28370 TIP3     1152     TIP3     OH2      OT      -0.834000       15.9994           0   0.00000       0.00000    
     28371 TIP3     1152     TIP3     H1       HT       0.417000       1.00800           0   0.00000       0.00000    
     28372 TIP3     1152     TIP3     H2       HT       0.417000       1.00800           0   0.00000     -0.301140E-02
     28373 TIP3     1153     TIP3     OH2      OT      -0.834000       15.9994           0   0.00000       0.00000    
     28374 TIP3     1153     TIP3     H1       HT       0.417000       1.00800           0   0.00000       0.00000    
     28375 TIP3     1153     TIP3     H2       HT       0.417000       1.00800           0   0.00000     -0.301140E-02
     28376 TIP3     1154     TIP3     OH2      OT      -0.834000       15.9994           0   0.00000       0.00000    
     28377 TIP3     1154     TIP3     H1       HT       0.417000       1.00800           0   0.00000       0.00000    
     28378 TIP3     1154     TIP3     H2       HT       0.417000       1.00800           0   0.00000     -0.301140E-02
     28379 TIP3     1155     TIP3     OH2      OT      -0.834000       15.9994           0   0.00000       0.00000    
     28380 TIP3     1155     TIP3     H1       HT       0.417000       1.00800           0   0.00000       0.00000    
     28381 TIP3     1155     TIP3     H2       HT       0.417000       1.00800           0   0.00000     -0.301140E-02
     28382 TIP3     1156     TIP3     OH2      OT      -0.834000       15.9994           0   0.00000       0.00000    
     28383 TIP3     1156     TIP3     H1       HT       0.417000       1.00800           0   0.00000       0.00000    
     28384 TIP3     1156     TIP3     H2       HT       0.417000       1.00800           0   0.00000     -0.301140E-02
     28385 TIP3     1157     TIP3     OH2      OT      -0.834000       15.9994           0   0.00000       0.00000    
     28386 TIP3     1157     TIP3     H1       HT       0.417000       1.00800           0   0.00000       0.00000    
     28387 TIP3     1157     TIP3     H2       HT       0.417000       1.00800           0   0.00000     -0.301140E-02
     28388 TIP3     1158     TIP3     OH2      OT      -0.834000       15.9994           0   0.00000       0.00000    
     28389 TIP3     1158     TIP3     H1       HT       0.417000       1.00800           0   0.00000       0.00000    
     28390 TIP3     1158     TIP3     H2       HT       0.417000       1.00800           0   0.00000     -0.301140E-02
     28391 TIP3     1159     TIP3     OH2      OT      -0.834000       15.9994           0   0.00000       0.00000    
     28392 TIP3     1159     TIP3     H1       HT       0.417000       1.00800           0   0.00000       0.00000    
     28393 TIP3     1159     TIP3     H2       HT       0.417000       1.00800           0   0.00000     -0.301140E-02
     28394 TIP3     1160     TIP3     OH2      OT      -0.834000       15.9994           0   0.00000       0.00000    
     28395 TIP3     1160     TIP3     H1       HT       0.417000       1.00800           0   0.00000       0.00000    
     28396 TIP3     1160     TIP3     H2       HT       0.417000       1.00800           0   0.00000     -0.301140E-02
     28397 TIP3     1161     TIP3     OH2      OT      -0.834000       15.9994           0   0.00000       0.00000    
     28398 TIP3     1161     TIP3     H1       HT       0.417000       1.00800           0   0.00000       0.00000    
     28399 TIP3     1161     TIP3     H2       HT       0.417000       1.00800           0   0.00000     -0.301140E-02
     28400 TIP3     1162     TIP3     OH2      OT      -0.834000       15.9994           0   0.00000       0.00000    
     28401 TIP3     1162     TIP3     H1       HT       0.417000       1.00800           0   0.00000       0.00000    
     28402 TIP3     1162     TIP3     H2       HT       0.417000       1.00800           0   0.00000     -0.301140E-02
     28403 TIP3     1163     TIP3     OH2      OT      -0.834000       15.9994           0   0.00000       0.00000    
     28404 TIP3     1163     TIP3     H1       HT       0.417000       1.00800           0   0.00000       0.00000    
     28405 TIP3     1163     TIP3     H2       HT       0.417000       1.00800           0   0.00000     -0.301140E-02
     28406 TIP3     1164     TIP3     OH2      OT      -0.834000       15.9994           0   0.00000       0.00000    
     28407 TIP3     1164     TIP3     H1       HT       0.417000       1.00800           0   0.00000       0.00000    
     28408 TIP3     1164     TIP3     H2       HT       0.417000       1.00800           0   0.00000     -0.301140E-02
     28409 TIP3     1165     TIP3     OH2      OT      -0.834000       15.9994           0   0.00000       0.00000    
     28410 TIP3     1165     TIP3     H1       HT       0.417000       1.00800           0   0.00000       0.00000    
     28411 TIP3     1165     TIP3     H2       HT       0.417000       1.00800           0   0.00000     -0.301140E-02
     28412 TIP3     1166     TIP3     OH2      OT      -0.834000       15.9994           0   0.00000       0.00000    
     28413 TIP3     1166     TIP3     H1       HT       0.417000       1.00800           0   0.00000       0.00000    
     28414 TIP3     1166     TIP3     H2       HT       0.417000       1.00800           0   0.00000     -0.301140E-02
     28415 TIP3     1167     TIP3     OH2      OT      -0.834000       15.9994           0   0.00000       0.00000    
     28416 TIP3     1167     TIP3     H1       HT       0.417000       1.00800           0   0.00000       0.00000    
     28417 TIP3     1167     TIP3     H2       HT       0.417000       1.00800           0   0.00000     -0.301140E-02
     28418 TIP3     1168     TIP3     OH2      OT      -0.834000       15.9994           0   0.00000       0.00000    
     28419 TIP3     1168     TIP3     H1       HT       0.417000       1.00800           0   0.00000       0.00000    
     28420 TIP3     1168     TIP3     H2       HT       0.417000       1.00800           0   0.00000     -0.301140E-02
     28421 TIP3     1169     TIP3     OH2      OT      -0.834000       15.9994           0   0.00000       0.00000    
     28422 TIP3     1169     TIP3     H1       HT       0.417000       1.00800           0   0.00000       0.00000    
     28423 TIP3     1169     TIP3     H2       HT       0.417000       1.00800           0   0.00000     -0.301140E-02
     28424 TIP3     1170     TIP3     OH2      OT      -0.834000       15.9994           0   0.00000       0.00000    
     28425 TIP3     1170     TIP3     H1       HT       0.417000       1.00800           0   0.00000       0.00000    
     28426 TIP3     1170     TIP3     H2       HT       0.417000       1.00800           0   0.00000     -0.301140E-02
     28427 TIP3     1171     TIP3     OH2      OT      -0.834000       15.9994           0   0.00000       0.00000    
     28428 TIP3     1171     TIP3     H1       HT       0.417000       1.00800           0   0.00000       0.00000    
     28429 TIP3     1171     TIP3     H2       HT       0.417000       1.00800           0   0.00000     -0.301140E-02
     28430 TIP3     1172     TIP3     OH2      OT      -0.834000       15.9994           0   0.00000       0.00000    
     28431 TIP3     1172     TIP3     H1       HT       0.417000       1.00800           0   0.00000       0.00000    
     28432 TIP3     1172     TIP3     H2       HT       0.417000       1.00800           0   0.00000     -0.301140E-02
     28433 TIP3     1173     TIP3     OH2      OT      -0.834000       15.9994           0   0.00000       0.00000    
     28434 TIP3     1173     TIP3     H1       HT       0.417000       1.00800           0   0.00000       0.00000    
     28435 TIP3     1173     TIP3     H2       HT       0.417000       1.00800           0   0.00000     -0.301140E-02
     28436 TIP3     1174     TIP3     OH2      OT      -0.834000       15.9994           0   0.00000       0.00000    
     28437 TIP3     1174     TIP3     H1       HT       0.417000       1.00800           0   0.00000       0.00000    
     28438 TIP3     1174     TIP3     H2       HT       0.417000       1.00800           0   0.00000     -0.301140E-02
     28439 TIP3     1175     TIP3     OH2      OT      -0.834000       15.9994           0   0.00000       0.00000    
     28440 TIP3     1175     TIP3     H1       HT       0.417000       1.00800           0   0.00000       0.00000    
     28441 TIP3     1175     TIP3     H2       HT       0.417000       1.00800           0   0.00000     -0.301140E-02
     28442 TIP3     1176     TIP3     OH2      OT      -0.834000       15.9994           0   0.00000       0.00000    
     28443 TIP3     1176     TIP3     H1       HT       0.417000       1.00800           0   0.00000       0.00000    
     28444 TIP3     1176     TIP3     H2       HT       0.417000       1.00800           0   0.00000     -0.301140E-02
     28445 TIP3     1177     TIP3     OH2      OT      -0.834000       15.9994           0   0.00000       0.00000    
     28446 TIP3     1177     TIP3     H1       HT       0.417000       1.00800           0   0.00000       0.00000    
     28447 TIP3     1177     TIP3     H2       HT       0.417000       1.00800           0   0.00000     -0.301140E-02
     28448 TIP3     1178     TIP3     OH2      OT      -0.834000       15.9994           0   0.00000       0.00000    
     28449 TIP3     1178     TIP3     H1       HT       0.417000       1.00800           0   0.00000       0.00000    
     28450 TIP3     1178     TIP3     H2       HT       0.417000       1.00800           0   0.00000     -0.301140E-02
     28451 TIP3     1179     TIP3     OH2      OT      -0.834000       15.9994           0   0.00000       0.00000    
     28452 TIP3     1179     TIP3     H1       HT       0.417000       1.00800           0   0.00000       0.00000    
     28453 TIP3     1179     TIP3     H2       HT       0.417000       1.00800           0   0.00000     -0.301140E-02
     28454 TIP3     1180     TIP3     OH2      OT      -0.834000       15.9994           0   0.00000       0.00000    
     28455 TIP3     1180     TIP3     H1       HT       0.417000       1.00800           0   0.00000       0.00000    
     28456 TIP3     1180     TIP3     H2       HT       0.417000       1.00800           0   0.00000     -0.301140E-02
     28457 TIP3     1181     TIP3     OH2      OT      -0.834000       15.9994           0   0.00000       0.00000    
     28458 TIP3     1181     TIP3     H1       HT       0.417000       1.00800           0   0.00000       0.00000    
     28459 TIP3     1181     TIP3     H2       HT       0.417000       1.00800           0   0.00000     -0.301140E-02
     28460 TIP3     1182     TIP3     OH2      OT      -0.834000       15.9994           0   0.00000       0.00000    
     28461 TIP3     1182     TIP3     H1       HT       0.417000       1.00800           0   0.00000       0.00000    
     28462 TIP3     1182     TIP3     H2       HT       0.417000       1.00800           0   0.00000     -0.301140E-02
     28463 TIP3     1183     TIP3     OH2      OT      -0.834000       15.9994           0   0.00000       0.00000    
     28464 TIP3     1183     TIP3     H1       HT       0.417000       1.00800           0   0.00000       0.00000    
     28465 TIP3     1183     TIP3     H2       HT       0.417000       1.00800           0   0.00000     -0.301140E-02
     28466 TIP3     1184     TIP3     OH2      OT      -0.834000       15.9994           0   0.00000       0.00000    
     28467 TIP3     1184     TIP3     H1       HT       0.417000       1.00800           0   0.00000       0.00000    
     28468 TIP3     1184     TIP3     H2       HT       0.417000       1.00800           0   0.00000     -0.301140E-02
     28469 TIP3     1185     TIP3     OH2      OT      -0.834000       15.9994           0   0.00000       0.00000    
     28470 TIP3     1185     TIP3     H1       HT       0.417000       1.00800           0   0.00000       0.00000    
     28471 TIP3     1185     TIP3     H2       HT       0.417000       1.00800           0   0.00000     -0.301140E-02
     28472 TIP3     1186     TIP3     OH2      OT      -0.834000       15.9994           0   0.00000       0.00000    
     28473 TIP3     1186     TIP3     H1       HT       0.417000       1.00800           0   0.00000       0.00000    
     28474 TIP3     1186     TIP3     H2       HT       0.417000       1.00800           0   0.00000     -0.301140E-02
     28475 TIP3     1187     TIP3     OH2      OT      -0.834000       15.9994           0   0.00000       0.00000    
     28476 TIP3     1187     TIP3     H1       HT       0.417000       1.00800           0   0.00000       0.00000    
     28477 TIP3     1187     TIP3     H2       HT       0.417000       1.00800           0   0.00000     -0.301140E-02
     28478 TIP3     1188     TIP3     OH2      OT      -0.834000       15.9994           0   0.00000       0.00000    
     28479 TIP3     1188     TIP3     H1       HT       0.417000       1.00800           0   0.00000       0.00000    
     28480 TIP3     1188     TIP3     H2       HT       0.417000       1.00800           0   0.00000     -0.301140E-02
     28481 TIP3     1189     TIP3     OH2      OT      -0.834000       15.9994           0   0.00000       0.00000    
     28482 TIP3     1189     TIP3     H1       HT       0.417000       1.00800           0   0.00000       0.00000    
     28483 TIP3     1189     TIP3     H2       HT       0.417000       1.00800           0   0.00000     -0.301140E-02
     28484 TIP3     1190     TIP3     OH2      OT      -0.834000       15.9994           0   0.00000       0.00000    
     28485 TIP3     1190     TIP3     H1       HT       0.417000       1.00800           0   0.00000       0.00000    
     28486 TIP3     1190     TIP3     H2       HT       0.417000       1.00800           0   0.00000     -0.301140E-02
     28487 TIP3     1191     TIP3     OH2      OT      -0.834000       15.9994           0   0.00000       0.00000    
     28488 TIP3     1191     TIP3     H1       HT       0.417000       1.00800           0   0.00000       0.00000    
     28489 TIP3     1191     TIP3     H2       HT       0.417000       1.00800           0   0.00000     -0.301140E-02
     28490 TIP3     1192     TIP3     OH2      OT      -0.834000       15.9994           0   0.00000       0.00000    
     28491 TIP3     1192     TIP3     H1       HT       0.417000       1.00800           0   0.00000       0.00000    
     28492 TIP3     1192     TIP3     H2       HT       0.417000       1.00800           0   0.00000     -0.301140E-02
     28493 TIP3     1193     TIP3     OH2      OT      -0.834000       15.9994           0   0.00000       0.00000    
     28494 TIP3     1193     TIP3     H1       HT       0.417000       1.00800           0   0.00000       0.00000    
     28495 TIP3     1193     TIP3     H2       HT       0.417000       1.00800           0   0.00000     -0.301140E-02
     28496 TIP3     1194     TIP3     OH2      OT      -0.834000       15.9994           0   0.00000       0.00000    
     28497 TIP3     1194     TIP3     H1       HT       0.417000       1.00800           0   0.00000       0.00000    
     28498 TIP3     1194     TIP3     H2       HT       0.417000       1.00800           0   0.00000     -0.301140E-02
     28499 TIP3     1195     TIP3     OH2      OT      -0.834000       15.9994           0   0.00000       0.00000    
     28500 TIP3     1195     TIP3     H1       HT       0.417000       1.00800           0   0.00000       0.00000    
     28501 TIP3     1195     TIP3     H2       HT       0.417000       1.00800           0   0.00000     -0.301140E-02
     28502 TIP3     1196     TIP3     OH2      OT      -0.834000       15.9994           0   0.00000       0.00000    
     28503 TIP3     1196     TIP3     H1       HT       0.417000       1.00800           0   0.00000       0.00000    
     28504 TIP3     1196     TIP3     H2       HT       0.417000       1.00800           0   0.00000     -0.301140E-02
     28505 TIP3     1197     TIP3     OH2      OT      -0.834000       15.9994           0   0.00000       0.00000    
     28506 TIP3     1197     TIP3     H1       HT       0.417000       1.00800           0   0.00000       0.00000    
     28507 TIP3     1197     TIP3     H2       HT       0.417000       1.00800           0   0.00000     -0.301140E-02
     28508 TIP3     1198     TIP3     OH2      OT      -0.834000       15.9994           0   0.00000       0.00000    
     28509 TIP3     1198     TIP3     H1       HT       0.417000       1.00800           0   0.00000       0.00000    
     28510 TIP3     1198     TIP3     H2       HT       0.417000       1.00800           0   0.00000     -0.301140E-02
     28511 TIP3     1199     TIP3     OH2      OT      -0.834000       15.9994           0   0.00000       0.00000    
     28512 TIP3     1199     TIP3     H1       HT       0.417000       1.00800           0   0.00000       0.00000    
     28513 TIP3     1199     TIP3     H2       HT       0.417000       1.00800           0   0.00000     -0.301140E-02
     28514 TIP3     1200     TIP3     OH2      OT      -0.834000       15.9994           0   0.00000       0.00000    
     28515 TIP3     1200     TIP3     H1       HT       0.417000       1.00800           0   0.00000       0.00000    
     28516 TIP3     1200     TIP3     H2       HT       0.417000       1.00800           0   0.00000     -0.301140E-02
     28517 TIP3     1201     TIP3     OH2      OT      -0.834000       15.9994           0   0.00000       0.00000    
     28518 TIP3     1201     TIP3     H1       HT       0.417000       1.00800           0   0.00000       0.00000    
     28519 TIP3     1201     TIP3     H2       HT       0.417000       1.00800           0   0.00000     -0.301140E-02
     28520 TIP3     1202     TIP3     OH2      OT      -0.834000       15.9994           0   0.00000       0.00000    
     28521 TIP3     1202     TIP3     H1       HT       0.417000       1.00800           0   0.00000       0.00000    
     28522 TIP3     1202     TIP3     H2       HT       0.417000       1.00800           0   0.00000     -0.301140E-02
     28523 TIP3     1203     TIP3     OH2      OT      -0.834000       15.9994           0   0.00000       0.00000    
     28524 TIP3     1203     TIP3     H1       HT       0.417000       1.00800           0   0.00000       0.00000    
     28525 TIP3     1203     TIP3     H2       HT       0.417000       1.00800           0   0.00000     -0.301140E-02
     28526 TIP3     1204     TIP3     OH2      OT      -0.834000       15.9994           0   0.00000       0.00000    
     28527 TIP3     1204     TIP3     H1       HT       0.417000       1.00800           0   0.00000       0.00000    
     28528 TIP3     1204     TIP3     H2       HT       0.417000       1.00800           0   0.00000     -0.301140E-02
     28529 TIP3     1205     TIP3     OH2      OT      -0.834000       15.9994           0   0.00000       0.00000    
     28530 TIP3     1205     TIP3     H1       HT       0.417000       1.00800           0   0.00000       0.00000    
     28531 TIP3     1205     TIP3     H2       HT       0.417000       1.00800           0   0.00000     -0.301140E-02
     28532 TIP3     1206     TIP3     OH2      OT      -0.834000       15.9994           0   0.00000       0.00000    
     28533 TIP3     1206     TIP3     H1       HT       0.417000       1.00800           0   0.00000       0.00000    
     28534 TIP3     1206     TIP3     H2       HT       0.417000       1.00800           0   0.00000     -0.301140E-02
     28535 TIP3     1207     TIP3     OH2      OT      -0.834000       15.9994           0   0.00000       0.00000    
     28536 TIP3     1207     TIP3     H1       HT       0.417000       1.00800           0   0.00000       0.00000    
     28537 TIP3     1207     TIP3     H2       HT       0.417000       1.00800           0   0.00000     -0.301140E-02
     28538 TIP3     1208     TIP3     OH2      OT      -0.834000       15.9994           0   0.00000       0.00000    
     28539 TIP3     1208     TIP3     H1       HT       0.417000       1.00800           0   0.00000       0.00000    
     28540 TIP3     1208     TIP3     H2       HT       0.417000       1.00800           0   0.00000     -0.301140E-02
     28541 TIP3     1209     TIP3     OH2      OT      -0.834000       15.9994           0   0.00000       0.00000    
     28542 TIP3     1209     TIP3     H1       HT       0.417000       1.00800           0   0.00000       0.00000    
     28543 TIP3     1209     TIP3     H2       HT       0.417000       1.00800           0   0.00000     -0.301140E-02
     28544 TIP3     1210     TIP3     OH2      OT      -0.834000       15.9994           0   0.00000       0.00000    
     28545 TIP3     1210     TIP3     H1       HT       0.417000       1.00800           0   0.00000       0.00000    
     28546 TIP3     1210     TIP3     H2       HT       0.417000       1.00800           0   0.00000     -0.301140E-02
     28547 TIP3     1211     TIP3     OH2      OT      -0.834000       15.9994           0   0.00000       0.00000    
     28548 TIP3     1211     TIP3     H1       HT       0.417000       1.00800           0   0.00000       0.00000    
     28549 TIP3     1211     TIP3     H2       HT       0.417000       1.00800           0   0.00000     -0.301140E-02
     28550 TIP3     1212     TIP3     OH2      OT      -0.834000       15.9994           0   0.00000       0.00000    
     28551 TIP3     1212     TIP3     H1       HT       0.417000       1.00800           0   0.00000       0.00000    
     28552 TIP3     1212     TIP3     H2       HT       0.417000       1.00800           0   0.00000     -0.301140E-02
     28553 TIP3     1213     TIP3     OH2      OT      -0.834000       15.9994           0   0.00000       0.00000    
     28554 TIP3     1213     TIP3     H1       HT       0.417000       1.00800           0   0.00000       0.00000    
     28555 TIP3     1213     TIP3     H2       HT       0.417000       1.00800           0   0.00000     -0.301140E-02
     28556 TIP3     1214     TIP3     OH2      OT      -0.834000       15.9994           0   0.00000       0.00000    
     28557 TIP3     1214     TIP3     H1       HT       0.417000       1.00800           0   0.00000       0.00000    
     28558 TIP3     1214     TIP3     H2       HT       0.417000       1.00800           0   0.00000     -0.301140E-02
     28559 TIP3     1215     TIP3     OH2      OT      -0.834000       15.9994           0   0.00000       0.00000    
     28560 TIP3     1215     TIP3     H1       HT       0.417000       1.00800           0   0.00000       0.00000    
     28561 TIP3     1215     TIP3     H2       HT       0.417000       1.00800           0   0.00000     -0.301140E-02
     28562 TIP3     1216     TIP3     OH2      OT      -0.834000       15.9994           0   0.00000       0.00000    
     28563 TIP3     1216     TIP3     H1       HT       0.417000       1.00800           0   0.00000       0.00000    
     28564 TIP3     1216     TIP3     H2       HT       0.417000       1.00800           0   0.00000     -0.301140E-02
     28565 TIP3     1217     TIP3     OH2      OT      -0.834000       15.9994           0   0.00000       0.00000    
     28566 TIP3     1217     TIP3     H1       HT       0.417000       1.00800           0   0.00000       0.00000    
     28567 TIP3     1217     TIP3     H2       HT       0.417000       1.00800           0   0.00000     -0.301140E-02
     28568 TIP3     1218     TIP3     OH2      OT      -0.834000       15.9994           0   0.00000       0.00000    
     28569 TIP3     1218     TIP3     H1       HT       0.417000       1.00800           0   0.00000       0.00000    
     28570 TIP3     1218     TIP3     H2       HT       0.417000       1.00800           0   0.00000     -0.301140E-02
     28571 TIP3     1219     TIP3     OH2      OT      -0.834000       15.9994           0   0.00000       0.00000    
     28572 TIP3     1219     TIP3     H1       HT       0.417000       1.00800           0   0.00000       0.00000    
     28573 TIP3     1219     TIP3     H2       HT       0.417000       1.00800           0   0.00000     -0.301140E-02
     28574 TIP3     1220     TIP3     OH2      OT      -0.834000       15.9994           0   0.00000       0.00000    
     28575 TIP3     1220     TIP3     H1       HT       0.417000       1.00800           0   0.00000       0.00000    
     28576 TIP3     1220     TIP3     H2       HT       0.417000       1.00800           0   0.00000     -0.301140E-02
     28577 TIP3     1221     TIP3     OH2      OT      -0.834000       15.9994           0   0.00000       0.00000    
     28578 TIP3     1221     TIP3     H1       HT       0.417000       1.00800           0   0.00000       0.00000    
     28579 TIP3     1221     TIP3     H2       HT       0.417000       1.00800           0   0.00000     -0.301140E-02
     28580 TIP3     1222     TIP3     OH2      OT      -0.834000       15.9994           0   0.00000       0.00000    
     28581 TIP3     1222     TIP3     H1       HT       0.417000       1.00800           0   0.00000       0.00000    
     28582 TIP3     1222     TIP3     H2       HT       0.417000       1.00800           0   0.00000     -0.301140E-02
     28583 TIP3     1223     TIP3     OH2      OT      -0.834000       15.9994           0   0.00000       0.00000    
     28584 TIP3     1223     TIP3     H1       HT       0.417000       1.00800           0   0.00000       0.00000    
     28585 TIP3     1223     TIP3     H2       HT       0.417000       1.00800           0   0.00000     -0.301140E-02
     28586 TIP3     1224     TIP3     OH2      OT      -0.834000       15.9994           0   0.00000       0.00000    
     28587 TIP3     1224     TIP3     H1       HT       0.417000       1.00800           0   0.00000       0.00000    
     28588 TIP3     1224     TIP3     H2       HT       0.417000       1.00800           0   0.00000     -0.301140E-02
     28589 TIP3     1225     TIP3     OH2      OT      -0.834000       15.9994           0   0.00000       0.00000    
     28590 TIP3     1225     TIP3     H1       HT       0.417000       1.00800           0   0.00000       0.00000    
     28591 TIP3     1225     TIP3     H2       HT       0.417000       1.00800           0   0.00000     -0.301140E-02
     28592 TIP3     1226     TIP3     OH2      OT      -0.834000       15.9994           0   0.00000       0.00000    
     28593 TIP3     1226     TIP3     H1       HT       0.417000       1.00800           0   0.00000       0.00000    
     28594 TIP3     1226     TIP3     H2       HT       0.417000       1.00800           0   0.00000     -0.301140E-02
     28595 TIP3     1227     TIP3     OH2      OT      -0.834000       15.9994           0   0.00000       0.00000    
     28596 TIP3     1227     TIP3     H1       HT       0.417000       1.00800           0   0.00000       0.00000    
     28597 TIP3     1227     TIP3     H2       HT       0.417000       1.00800           0   0.00000     -0.301140E-02
     28598 TIP3     1228     TIP3     OH2      OT      -0.834000       15.9994           0   0.00000       0.00000    
     28599 TIP3     1228     TIP3     H1       HT       0.417000       1.00800           0   0.00000       0.00000    
     28600 TIP3     1228     TIP3     H2       HT       0.417000       1.00800           0   0.00000     -0.301140E-02
     28601 TIP3     1229     TIP3     OH2      OT      -0.834000       15.9994           0   0.00000       0.00000    
     28602 TIP3     1229     TIP3     H1       HT       0.417000       1.00800           0   0.00000       0.00000    
     28603 TIP3     1229     TIP3     H2       HT       0.417000       1.00800           0   0.00000     -0.301140E-02
     28604 TIP3     1230     TIP3     OH2      OT      -0.834000       15.9994           0   0.00000       0.00000    
     28605 TIP3     1230     TIP3     H1       HT       0.417000       1.00800           0   0.00000       0.00000    
     28606 TIP3     1230     TIP3     H2       HT       0.417000       1.00800           0   0.00000     -0.301140E-02
     28607 TIP3     1231     TIP3     OH2      OT      -0.834000       15.9994           0   0.00000       0.00000    
     28608 TIP3     1231     TIP3     H1       HT       0.417000       1.00800           0   0.00000       0.00000    
     28609 TIP3     1231     TIP3     H2       HT       0.417000       1.00800           0   0.00000     -0.301140E-02
     28610 TIP3     1232     TIP3     OH2      OT      -0.834000       15.9994           0   0.00000       0.00000    
     28611 TIP3     1232     TIP3     H1       HT       0.417000       1.00800           0   0.00000       0.00000    
     28612 TIP3     1232     TIP3     H2       HT       0.417000       1.00800           0   0.00000     -0.301140E-02
     28613 TIP3     1233     TIP3     OH2      OT      -0.834000       15.9994           0   0.00000       0.00000    
     28614 TIP3     1233     TIP3     H1       HT       0.417000       1.00800           0   0.00000       0.00000    
     28615 TIP3     1233     TIP3     H2       HT       0.417000       1.00800           0   0.00000     -0.301140E-02
     28616 TIP3     1234     TIP3     OH2      OT      -0.834000       15.9994           0   0.00000       0.00000    
     28617 TIP3     1234     TIP3     H1       HT       0.417000       1.00800           0   0.00000       0.00000    
     28618 TIP3     1234     TIP3     H2       HT       0.417000       1.00800           0   0.00000     -0.301140E-02
     28619 TIP3     1235     TIP3     OH2      OT      -0.834000       15.9994           0   0.00000       0.00000    
     28620 TIP3     1235     TIP3     H1       HT       0.417000       1.00800           0   0.00000       0.00000    
     28621 TIP3     1235     TIP3     H2       HT       0.417000       1.00800           0   0.00000     -0.301140E-02
     28622 TIP3     1236     TIP3     OH2      OT      -0.834000       15.9994           0   0.00000       0.00000    
     28623 TIP3     1236     TIP3     H1       HT       0.417000       1.00800           0   0.00000       0.00000    
     28624 TIP3     1236     TIP3     H2       HT       0.417000       1.00800           0   0.00000     -0.301140E-02
     28625 TIP3     1237     TIP3     OH2      OT      -0.834000       15.9994           0   0.00000       0.00000    
     28626 TIP3     1237     TIP3     H1       HT       0.417000       1.00800           0   0.00000       0.00000    
     28627 TIP3     1237     TIP3     H2       HT       0.417000       1.00800           0   0.00000     -0.301140E-02
     28628 TIP3     1238     TIP3     OH2      OT      -0.834000       15.9994           0   0.00000       0.00000    
     28629 TIP3     1238     TIP3     H1       HT       0.417000       1.00800           0   0.00000       0.00000    
     28630 TIP3     1238     TIP3     H2       HT       0.417000       1.00800           0   0.00000     -0.301140E-02
     28631 TIP3     1239     TIP3     OH2      OT      -0.834000       15.9994           0   0.00000       0.00000    
     28632 TIP3     1239     TIP3     H1       HT       0.417000       1.00800           0   0.00000       0.00000    
     28633 TIP3     1239     TIP3     H2       HT       0.417000       1.00800           0   0.00000     -0.301140E-02
     28634 TIP3     1240     TIP3     OH2      OT      -0.834000       15.9994           0   0.00000       0.00000    
     28635 TIP3     1240     TIP3     H1       HT       0.417000       1.00800           0   0.00000       0.00000    
     28636 TIP3     1240     TIP3     H2       HT       0.417000       1.00800           0   0.00000     -0.301140E-02
     28637 TIP3     1241     TIP3     OH2      OT      -0.834000       15.9994           0   0.00000       0.00000    
     28638 TIP3     1241     TIP3     H1       HT       0.417000       1.00800           0   0.00000       0.00000    
     28639 TIP3     1241     TIP3     H2       HT       0.417000       1.00800           0   0.00000     -0.301140E-02
     28640 TIP3     1242     TIP3     OH2      OT      -0.834000       15.9994           0   0.00000       0.00000    
     28641 TIP3     1242     TIP3     H1       HT       0.417000       1.00800           0   0.00000       0.00000    
     28642 TIP3     1242     TIP3     H2       HT       0.417000       1.00800           0   0.00000     -0.301140E-02
     28643 TIP3     1243     TIP3     OH2      OT      -0.834000       15.9994           0   0.00000       0.00000    
     28644 TIP3     1243     TIP3     H1       HT       0.417000       1.00800           0   0.00000       0.00000    
     28645 TIP3     1243     TIP3     H2       HT       0.417000       1.00800           0   0.00000     -0.301140E-02
     28646 TIP3     1244     TIP3     OH2      OT      -0.834000       15.9994           0   0.00000       0.00000    
     28647 TIP3     1244     TIP3     H1       HT       0.417000       1.00800           0   0.00000       0.00000    
     28648 TIP3     1244     TIP3     H2       HT       0.417000       1.00800           0   0.00000     -0.301140E-02
     28649 TIP3     1245     TIP3     OH2      OT      -0.834000       15.9994           0   0.00000       0.00000    
     28650 TIP3     1245     TIP3     H1       HT       0.417000       1.00800           0   0.00000       0.00000    
     28651 TIP3     1245     TIP3     H2       HT       0.417000       1.00800           0   0.00000     -0.301140E-02
     28652 TIP3     1246     TIP3     OH2      OT      -0.834000       15.9994           0   0.00000       0.00000    
     28653 TIP3     1246     TIP3     H1       HT       0.417000       1.00800           0   0.00000       0.00000    
     28654 TIP3     1246     TIP3     H2       HT       0.417000       1.00800           0   0.00000     -0.301140E-02
     28655 TIP3     1247     TIP3     OH2      OT      -0.834000       15.9994           0   0.00000       0.00000    
     28656 TIP3     1247     TIP3     H1       HT       0.417000       1.00800           0   0.00000       0.00000    
     28657 TIP3     1247     TIP3     H2       HT       0.417000       1.00800           0   0.00000     -0.301140E-02
     28658 TIP3     1248     TIP3     OH2      OT      -0.834000       15.9994           0   0.00000       0.00000    
     28659 TIP3     1248     TIP3     H1       HT       0.417000       1.00800           0   0.00000       0.00000    
     28660 TIP3     1248     TIP3     H2       HT       0.417000       1.00800           0   0.00000     -0.301140E-02
     28661 TIP3     1249     TIP3     OH2      OT      -0.834000       15.9994           0   0.00000       0.00000    
     28662 TIP3     1249     TIP3     H1       HT       0.417000       1.00800           0   0.00000       0.00000    
     28663 TIP3     1249     TIP3     H2       HT       0.417000       1.00800           0   0.00000     -0.301140E-02
     28664 TIP3     1250     TIP3     OH2      OT      -0.834000       15.9994           0   0.00000       0.00000    
     28665 TIP3     1250     TIP3     H1       HT       0.417000       1.00800           0   0.00000       0.00000    
     28666 TIP3     1250     TIP3     H2       HT       0.417000       1.00800           0   0.00000     -0.301140E-02
     28667 TIP3     1251     TIP3     OH2      OT      -0.834000       15.9994           0   0.00000       0.00000    
     28668 TIP3     1251     TIP3     H1       HT       0.417000       1.00800           0   0.00000       0.00000    
     28669 TIP3     1251     TIP3     H2       HT       0.417000       1.00800           0   0.00000     -0.301140E-02
     28670 TIP3     1252     TIP3     OH2      OT      -0.834000       15.9994           0   0.00000       0.00000    
     28671 TIP3     1252     TIP3     H1       HT       0.417000       1.00800           0   0.00000       0.00000    
     28672 TIP3     1252     TIP3     H2       HT       0.417000       1.00800           0   0.00000     -0.301140E-02
     28673 TIP3     1253     TIP3     OH2      OT      -0.834000       15.9994           0   0.00000       0.00000    
     28674 TIP3     1253     TIP3     H1       HT       0.417000       1.00800           0   0.00000       0.00000    
     28675 TIP3     1253     TIP3     H2       HT       0.417000       1.00800           0   0.00000     -0.301140E-02
     28676 TIP3     1254     TIP3     OH2      OT      -0.834000       15.9994           0   0.00000       0.00000    
     28677 TIP3     1254     TIP3     H1       HT       0.417000       1.00800           0   0.00000       0.00000    
     28678 TIP3     1254     TIP3     H2       HT       0.417000       1.00800           0   0.00000     -0.301140E-02
     28679 TIP3     1255     TIP3     OH2      OT      -0.834000       15.9994           0   0.00000       0.00000    
     28680 TIP3     1255     TIP3     H1       HT       0.417000       1.00800           0   0.00000       0.00000    
     28681 TIP3     1255     TIP3     H2       HT       0.417000       1.00800           0   0.00000     -0.301140E-02
     28682 TIP3     1256     TIP3     OH2      OT      -0.834000       15.9994           0   0.00000       0.00000    
     28683 TIP3     1256     TIP3     H1       HT       0.417000       1.00800           0   0.00000       0.00000    
     28684 TIP3     1256     TIP3     H2       HT       0.417000       1.00800           0   0.00000     -0.301140E-02
     28685 TIP3     1257     TIP3     OH2      OT      -0.834000       15.9994           0   0.00000       0.00000    
     28686 TIP3     1257     TIP3     H1       HT       0.417000       1.00800           0   0.00000       0.00000    
     28687 TIP3     1257     TIP3     H2       HT       0.417000       1.00800           0   0.00000     -0.301140E-02
     28688 TIP3     1258     TIP3     OH2      OT      -0.834000       15.9994           0   0.00000       0.00000    
     28689 TIP3     1258     TIP3     H1       HT       0.417000       1.00800           0   0.00000       0.00000    
     28690 TIP3     1258     TIP3     H2       HT       0.417000       1.00800           0   0.00000     -0.301140E-02
     28691 TIP3     1259     TIP3     OH2      OT      -0.834000       15.9994           0   0.00000       0.00000    
     28692 TIP3     1259     TIP3     H1       HT       0.417000       1.00800           0   0.00000       0.00000    
     28693 TIP3     1259     TIP3     H2       HT       0.417000       1.00800           0   0.00000     -0.301140E-02
     28694 TIP3     1260     TIP3     OH2      OT      -0.834000       15.9994           0   0.00000       0.00000    
     28695 TIP3     1260     TIP3     H1       HT       0.417000       1.00800           0   0.00000       0.00000    
     28696 TIP3     1260     TIP3     H2       HT       0.417000       1.00800           0   0.00000     -0.301140E-02
     28697 TIP3     1261     TIP3     OH2      OT      -0.834000       15.9994           0   0.00000       0.00000    
     28698 TIP3     1261     TIP3     H1       HT       0.417000       1.00800           0   0.00000       0.00000    
     28699 TIP3     1261     TIP3     H2       HT       0.417000       1.00800           0   0.00000     -0.301140E-02
     28700 TIP3     1262     TIP3     OH2      OT      -0.834000       15.9994           0   0.00000       0.00000    
     28701 TIP3     1262     TIP3     H1       HT       0.417000       1.00800           0   0.00000       0.00000    
     28702 TIP3     1262     TIP3     H2       HT       0.417000       1.00800           0   0.00000     -0.301140E-02
     28703 TIP3     1263     TIP3     OH2      OT      -0.834000       15.9994           0   0.00000       0.00000    
     28704 TIP3     1263     TIP3     H1       HT       0.417000       1.00800           0   0.00000       0.00000    
     28705 TIP3     1263     TIP3     H2       HT       0.417000       1.00800           0   0.00000     -0.301140E-02
     28706 TIP3     1264     TIP3     OH2      OT      -0.834000       15.9994           0   0.00000       0.00000    
     28707 TIP3     1264     TIP3     H1       HT       0.417000       1.00800           0   0.00000       0.00000    
     28708 TIP3     1264     TIP3     H2       HT       0.417000       1.00800           0   0.00000     -0.301140E-02
     28709 TIP3     1265     TIP3     OH2      OT      -0.834000       15.9994           0   0.00000       0.00000    
     28710 TIP3     1265     TIP3     H1       HT       0.417000       1.00800           0   0.00000       0.00000    
     28711 TIP3     1265     TIP3     H2       HT       0.417000       1.00800           0   0.00000     -0.301140E-02
     28712 TIP3     1266     TIP3     OH2      OT      -0.834000       15.9994           0   0.00000       0.00000    
     28713 TIP3     1266     TIP3     H1       HT       0.417000       1.00800           0   0.00000       0.00000    
     28714 TIP3     1266     TIP3     H2       HT       0.417000       1.00800           0   0.00000     -0.301140E-02
     28715 TIP3     1267     TIP3     OH2      OT      -0.834000       15.9994           0   0.00000       0.00000    
     28716 TIP3     1267     TIP3     H1       HT       0.417000       1.00800           0   0.00000       0.00000    
     28717 TIP3     1267     TIP3     H2       HT       0.417000       1.00800           0   0.00000     -0.301140E-02
     28718 TIP3     1268     TIP3     OH2      OT      -0.834000       15.9994           0   0.00000       0.00000    
     28719 TIP3     1268     TIP3     H1       HT       0.417000       1.00800           0   0.00000       0.00000    
     28720 TIP3     1268     TIP3     H2       HT       0.417000       1.00800           0   0.00000     -0.301140E-02
     28721 TIP3     1269     TIP3     OH2      OT      -0.834000       15.9994           0   0.00000       0.00000    
     28722 TIP3     1269     TIP3     H1       HT       0.417000       1.00800           0   0.00000       0.00000    
     28723 TIP3     1269     TIP3     H2       HT       0.417000       1.00800           0   0.00000     -0.301140E-02
     28724 TIP3     1270     TIP3     OH2      OT      -0.834000       15.9994           0   0.00000       0.00000    
     28725 TIP3     1270     TIP3     H1       HT       0.417000       1.00800           0   0.00000       0.00000    
     28726 TIP3     1270     TIP3     H2       HT       0.417000       1.00800           0   0.00000     -0.301140E-02
     28727 TIP3     1271     TIP3     OH2      OT      -0.834000       15.9994           0   0.00000       0.00000    
     28728 TIP3     1271     TIP3     H1       HT       0.417000       1.00800           0   0.00000       0.00000    
     28729 TIP3     1271     TIP3     H2       HT       0.417000       1.00800           0   0.00000     -0.301140E-02
     28730 TIP3     1272     TIP3     OH2      OT      -0.834000       15.9994           0   0.00000       0.00000    
     28731 TIP3     1272     TIP3     H1       HT       0.417000       1.00800           0   0.00000       0.00000    
     28732 TIP3     1272     TIP3     H2       HT       0.417000       1.00800           0   0.00000     -0.301140E-02
     28733 TIP3     1273     TIP3     OH2      OT      -0.834000       15.9994           0   0.00000       0.00000    
     28734 TIP3     1273     TIP3     H1       HT       0.417000       1.00800           0   0.00000       0.00000    
     28735 TIP3     1273     TIP3     H2       HT       0.417000       1.00800           0   0.00000     -0.301140E-02
     28736 TIP3     1274     TIP3     OH2      OT      -0.834000       15.9994           0   0.00000       0.00000    
     28737 TIP3     1274     TIP3     H1       HT       0.417000       1.00800           0   0.00000       0.00000    
     28738 TIP3     1274     TIP3     H2       HT       0.417000       1.00800           0   0.00000     -0.301140E-02
     28739 TIP3     1275     TIP3     OH2      OT      -0.834000       15.9994           0   0.00000       0.00000    
     28740 TIP3     1275     TIP3     H1       HT       0.417000       1.00800           0   0.00000       0.00000    
     28741 TIP3     1275     TIP3     H2       HT       0.417000       1.00800           0   0.00000     -0.301140E-02
     28742 TIP3     1276     TIP3     OH2      OT      -0.834000       15.9994           0   0.00000       0.00000    
     28743 TIP3     1276     TIP3     H1       HT       0.417000       1.00800           0   0.00000       0.00000    
     28744 TIP3     1276     TIP3     H2       HT       0.417000       1.00800           0   0.00000     -0.301140E-02
     28745 TIP3     1277     TIP3     OH2      OT      -0.834000       15.9994           0   0.00000       0.00000    
     28746 TIP3     1277     TIP3     H1       HT       0.417000       1.00800           0   0.00000       0.00000    
     28747 TIP3     1277     TIP3     H2       HT       0.417000       1.00800           0   0.00000     -0.301140E-02
     28748 TIP3     1278     TIP3     OH2      OT      -0.834000       15.9994           0   0.00000       0.00000    
     28749 TIP3     1278     TIP3     H1       HT       0.417000       1.00800           0   0.00000       0.00000    
     28750 TIP3     1278     TIP3     H2       HT       0.417000       1.00800           0   0.00000     -0.301140E-02
     28751 TIP3     1279     TIP3     OH2      OT      -0.834000       15.9994           0   0.00000       0.00000    
     28752 TIP3     1279     TIP3     H1       HT       0.417000       1.00800           0   0.00000       0.00000    
     28753 TIP3     1279     TIP3     H2       HT       0.417000       1.00800           0   0.00000     -0.301140E-02
     28754 TIP3     1280     TIP3     OH2      OT      -0.834000       15.9994           0   0.00000       0.00000    
     28755 TIP3     1280     TIP3     H1       HT       0.417000       1.00800           0   0.00000       0.00000    
     28756 TIP3     1280     TIP3     H2       HT       0.417000       1.00800           0   0.00000     -0.301140E-02
     28757 TIP3     1281     TIP3     OH2      OT      -0.834000       15.9994           0   0.00000       0.00000    
     28758 TIP3     1281     TIP3     H1       HT       0.417000       1.00800           0   0.00000       0.00000    
     28759 TIP3     1281     TIP3     H2       HT       0.417000       1.00800           0   0.00000     -0.301140E-02
     28760 TIP3     1282     TIP3     OH2      OT      -0.834000       15.9994           0   0.00000       0.00000    
     28761 TIP3     1282     TIP3     H1       HT       0.417000       1.00800           0   0.00000       0.00000    
     28762 TIP3     1282     TIP3     H2       HT       0.417000       1.00800           0   0.00000     -0.301140E-02
     28763 TIP3     1283     TIP3     OH2      OT      -0.834000       15.9994           0   0.00000       0.00000    
     28764 TIP3     1283     TIP3     H1       HT       0.417000       1.00800           0   0.00000       0.00000    
     28765 TIP3     1283     TIP3     H2       HT       0.417000       1.00800           0   0.00000     -0.301140E-02
     28766 TIP3     1284     TIP3     OH2      OT      -0.834000       15.9994           0   0.00000       0.00000    
     28767 TIP3     1284     TIP3     H1       HT       0.417000       1.00800           0   0.00000       0.00000    
     28768 TIP3     1284     TIP3     H2       HT       0.417000       1.00800           0   0.00000     -0.301140E-02
     28769 TIP3     1285     TIP3     OH2      OT      -0.834000       15.9994           0   0.00000       0.00000    
     28770 TIP3     1285     TIP3     H1       HT       0.417000       1.00800           0   0.00000       0.00000    
     28771 TIP3     1285     TIP3     H2       HT       0.417000       1.00800           0   0.00000     -0.301140E-02
     28772 TIP3     1286     TIP3     OH2      OT      -0.834000       15.9994           0   0.00000       0.00000    
     28773 TIP3     1286     TIP3     H1       HT       0.417000       1.00800           0   0.00000       0.00000    
     28774 TIP3     1286     TIP3     H2       HT       0.417000       1.00800           0   0.00000     -0.301140E-02
     28775 TIP3     1287     TIP3     OH2      OT      -0.834000       15.9994           0   0.00000       0.00000    
     28776 TIP3     1287     TIP3     H1       HT       0.417000       1.00800           0   0.00000       0.00000    
     28777 TIP3     1287     TIP3     H2       HT       0.417000       1.00800           0   0.00000     -0.301140E-02
     28778 TIP3     1288     TIP3     OH2      OT      -0.834000       15.9994           0   0.00000       0.00000    
     28779 TIP3     1288     TIP3     H1       HT       0.417000       1.00800           0   0.00000       0.00000    
     28780 TIP3     1288     TIP3     H2       HT       0.417000       1.00800           0   0.00000     -0.301140E-02
     28781 TIP3     1289     TIP3     OH2      OT      -0.834000       15.9994           0   0.00000       0.00000    
     28782 TIP3     1289     TIP3     H1       HT       0.417000       1.00800           0   0.00000       0.00000    
     28783 TIP3     1289     TIP3     H2       HT       0.417000       1.00800           0   0.00000     -0.301140E-02
     28784 TIP3     1290     TIP3     OH2      OT      -0.834000       15.9994           0   0.00000       0.00000    
     28785 TIP3     1290     TIP3     H1       HT       0.417000       1.00800           0   0.00000       0.00000    
     28786 TIP3     1290     TIP3     H2       HT       0.417000       1.00800           0   0.00000     -0.301140E-02
     28787 TIP3     1291     TIP3     OH2      OT      -0.834000       15.9994           0   0.00000       0.00000    
     28788 TIP3     1291     TIP3     H1       HT       0.417000       1.00800           0   0.00000       0.00000    
     28789 TIP3     1291     TIP3     H2       HT       0.417000       1.00800           0   0.00000     -0.301140E-02
     28790 TIP3     1292     TIP3     OH2      OT      -0.834000       15.9994           0   0.00000       0.00000    
     28791 TIP3     1292     TIP3     H1       HT       0.417000       1.00800           0   0.00000       0.00000    
     28792 TIP3     1292     TIP3     H2       HT       0.417000       1.00800           0   0.00000     -0.301140E-02
     28793 TIP3     1293     TIP3     OH2      OT      -0.834000       15.9994           0   0.00000       0.00000    
     28794 TIP3     1293     TIP3     H1       HT       0.417000       1.00800           0   0.00000       0.00000    
     28795 TIP3     1293     TIP3     H2       HT       0.417000       1.00800           0   0.00000     -0.301140E-02
     28796 TIP3     1294     TIP3     OH2      OT      -0.834000       15.9994           0   0.00000       0.00000    
     28797 TIP3     1294     TIP3     H1       HT       0.417000       1.00800           0   0.00000       0.00000    
     28798 TIP3     1294     TIP3     H2       HT       0.417000       1.00800           0   0.00000     -0.301140E-02
     28799 TIP3     1295     TIP3     OH2      OT      -0.834000       15.9994           0   0.00000       0.00000    
     28800 TIP3     1295     TIP3     H1       HT       0.417000       1.00800           0   0.00000       0.00000    
     28801 TIP3     1295     TIP3     H2       HT       0.417000       1.00800           0   0.00000     -0.301140E-02
     28802 TIP3     1296     TIP3     OH2      OT      -0.834000       15.9994           0   0.00000       0.00000    
     28803 TIP3     1296     TIP3     H1       HT       0.417000       1.00800           0   0.00000       0.00000    
     28804 TIP3     1296     TIP3     H2       HT       0.417000       1.00800           0   0.00000     -0.301140E-02
     28805 TIP3     1297     TIP3     OH2      OT      -0.834000       15.9994           0   0.00000       0.00000    
     28806 TIP3     1297     TIP3     H1       HT       0.417000       1.00800           0   0.00000       0.00000    
     28807 TIP3     1297     TIP3     H2       HT       0.417000       1.00800           0   0.00000     -0.301140E-02
     28808 TIP3     1298     TIP3     OH2      OT      -0.834000       15.9994           0   0.00000       0.00000    
     28809 TIP3     1298     TIP3     H1       HT       0.417000       1.00800           0   0.00000       0.00000    
     28810 TIP3     1298     TIP3     H2       HT       0.417000       1.00800           0   0.00000     -0.301140E-02
     28811 TIP3     1299     TIP3     OH2      OT      -0.834000       15.9994           0   0.00000       0.00000    
     28812 TIP3     1299     TIP3     H1       HT       0.417000       1.00800           0   0.00000       0.00000    
     28813 TIP3     1299     TIP3     H2       HT       0.417000       1.00800           0   0.00000     -0.301140E-02
     28814 TIP3     1300     TIP3     OH2      OT      -0.834000       15.9994           0   0.00000       0.00000    
     28815 TIP3     1300     TIP3     H1       HT       0.417000       1.00800           0   0.00000       0.00000    
     28816 TIP3     1300     TIP3     H2       HT       0.417000       1.00800           0   0.00000     -0.301140E-02
     28817 TIP3     1301     TIP3     OH2      OT      -0.834000       15.9994           0   0.00000       0.00000    
     28818 TIP3     1301     TIP3     H1       HT       0.417000       1.00800           0   0.00000       0.00000    
     28819 TIP3     1301     TIP3     H2       HT       0.417000       1.00800           0   0.00000     -0.301140E-02
     28820 TIP3     1302     TIP3     OH2      OT      -0.834000       15.9994           0   0.00000       0.00000    
     28821 TIP3     1302     TIP3     H1       HT       0.417000       1.00800           0   0.00000       0.00000    
     28822 TIP3     1302     TIP3     H2       HT       0.417000       1.00800           0   0.00000     -0.301140E-02
     28823 TIP3     1303     TIP3     OH2      OT      -0.834000       15.9994           0   0.00000       0.00000    
     28824 TIP3     1303     TIP3     H1       HT       0.417000       1.00800           0   0.00000       0.00000    
     28825 TIP3     1303     TIP3     H2       HT       0.417000       1.00800           0   0.00000     -0.301140E-02
     28826 TIP3     1304     TIP3     OH2      OT      -0.834000       15.9994           0   0.00000       0.00000    
     28827 TIP3     1304     TIP3     H1       HT       0.417000       1.00800           0   0.00000       0.00000    
     28828 TIP3     1304     TIP3     H2       HT       0.417000       1.00800           0   0.00000     -0.301140E-02
     28829 TIP3     1305     TIP3     OH2      OT      -0.834000       15.9994           0   0.00000       0.00000    
     28830 TIP3     1305     TIP3     H1       HT       0.417000       1.00800           0   0.00000       0.00000    
     28831 TIP3     1305     TIP3     H2       HT       0.417000       1.00800           0   0.00000     -0.301140E-02
     28832 TIP3     1306     TIP3     OH2      OT      -0.834000       15.9994           0   0.00000       0.00000    
     28833 TIP3     1306     TIP3     H1       HT       0.417000       1.00800           0   0.00000       0.00000    
     28834 TIP3     1306     TIP3     H2       HT       0.417000       1.00800           0   0.00000     -0.301140E-02
     28835 TIP3     1307     TIP3     OH2      OT      -0.834000       15.9994           0   0.00000       0.00000    
     28836 TIP3     1307     TIP3     H1       HT       0.417000       1.00800           0   0.00000       0.00000    
     28837 TIP3     1307     TIP3     H2       HT       0.417000       1.00800           0   0.00000     -0.301140E-02
     28838 TIP3     1308     TIP3     OH2      OT      -0.834000       15.9994           0   0.00000       0.00000    
     28839 TIP3     1308     TIP3     H1       HT       0.417000       1.00800           0   0.00000       0.00000    
     28840 TIP3     1308     TIP3     H2       HT       0.417000       1.00800           0   0.00000     -0.301140E-02
     28841 TIP3     1309     TIP3     OH2      OT      -0.834000       15.9994           0   0.00000       0.00000    
     28842 TIP3     1309     TIP3     H1       HT       0.417000       1.00800           0   0.00000       0.00000    
     28843 TIP3     1309     TIP3     H2       HT       0.417000       1.00800           0   0.00000     -0.301140E-02
     28844 TIP3     1310     TIP3     OH2      OT      -0.834000       15.9994           0   0.00000       0.00000    
     28845 TIP3     1310     TIP3     H1       HT       0.417000       1.00800           0   0.00000       0.00000    
     28846 TIP3     1310     TIP3     H2       HT       0.417000       1.00800           0   0.00000     -0.301140E-02
     28847 TIP3     1311     TIP3     OH2      OT      -0.834000       15.9994           0   0.00000       0.00000    
     28848 TIP3     1311     TIP3     H1       HT       0.417000       1.00800           0   0.00000       0.00000    
     28849 TIP3     1311     TIP3     H2       HT       0.417000       1.00800           0   0.00000     -0.301140E-02
     28850 TIP3     1312     TIP3     OH2      OT      -0.834000       15.9994           0   0.00000       0.00000    
     28851 TIP3     1312     TIP3     H1       HT       0.417000       1.00800           0   0.00000       0.00000    
     28852 TIP3     1312     TIP3     H2       HT       0.417000       1.00800           0   0.00000     -0.301140E-02
     28853 TIP3     1313     TIP3     OH2      OT      -0.834000       15.9994           0   0.00000       0.00000    
     28854 TIP3     1313     TIP3     H1       HT       0.417000       1.00800           0   0.00000       0.00000    
     28855 TIP3     1313     TIP3     H2       HT       0.417000       1.00800           0   0.00000     -0.301140E-02
     28856 TIP3     1314     TIP3     OH2      OT      -0.834000       15.9994           0   0.00000       0.00000    
     28857 TIP3     1314     TIP3     H1       HT       0.417000       1.00800           0   0.00000       0.00000    
     28858 TIP3     1314     TIP3     H2       HT       0.417000       1.00800           0   0.00000     -0.301140E-02
     28859 TIP3     1315     TIP3     OH2      OT      -0.834000       15.9994           0   0.00000       0.00000    
     28860 TIP3     1315     TIP3     H1       HT       0.417000       1.00800           0   0.00000       0.00000    
     28861 TIP3     1315     TIP3     H2       HT       0.417000       1.00800           0   0.00000     -0.301140E-02
     28862 TIP3     1316     TIP3     OH2      OT      -0.834000       15.9994           0   0.00000       0.00000    
     28863 TIP3     1316     TIP3     H1       HT       0.417000       1.00800           0   0.00000       0.00000    
     28864 TIP3     1316     TIP3     H2       HT       0.417000       1.00800           0   0.00000     -0.301140E-02
     28865 TIP3     1317     TIP3     OH2      OT      -0.834000       15.9994           0   0.00000       0.00000    
     28866 TIP3     1317     TIP3     H1       HT       0.417000       1.00800           0   0.00000       0.00000    
     28867 TIP3     1317     TIP3     H2       HT       0.417000       1.00800           0   0.00000     -0.301140E-02
     28868 TIP3     1318     TIP3     OH2      OT      -0.834000       15.9994           0   0.00000       0.00000    
     28869 TIP3     1318     TIP3     H1       HT       0.417000       1.00800           0   0.00000       0.00000    
     28870 TIP3     1318     TIP3     H2       HT       0.417000       1.00800           0   0.00000     -0.301140E-02
     28871 TIP3     1319     TIP3     OH2      OT      -0.834000       15.9994           0   0.00000       0.00000    
     28872 TIP3     1319     TIP3     H1       HT       0.417000       1.00800           0   0.00000       0.00000    
     28873 TIP3     1319     TIP3     H2       HT       0.417000       1.00800           0   0.00000     -0.301140E-02
     28874 TIP3     1320     TIP3     OH2      OT      -0.834000       15.9994           0   0.00000       0.00000    
     28875 TIP3     1320     TIP3     H1       HT       0.417000       1.00800           0   0.00000       0.00000    
     28876 TIP3     1320     TIP3     H2       HT       0.417000       1.00800           0   0.00000     -0.301140E-02
     28877 TIP3     1321     TIP3     OH2      OT      -0.834000       15.9994           0   0.00000       0.00000    
     28878 TIP3     1321     TIP3     H1       HT       0.417000       1.00800           0   0.00000       0.00000    
     28879 TIP3     1321     TIP3     H2       HT       0.417000       1.00800           0   0.00000     -0.301140E-02
     28880 TIP3     1322     TIP3     OH2      OT      -0.834000       15.9994           0   0.00000       0.00000    
     28881 TIP3     1322     TIP3     H1       HT       0.417000       1.00800           0   0.00000       0.00000    
     28882 TIP3     1322     TIP3     H2       HT       0.417000       1.00800           0   0.00000     -0.301140E-02
     28883 TIP3     1323     TIP3     OH2      OT      -0.834000       15.9994           0   0.00000       0.00000    
     28884 TIP3     1323     TIP3     H1       HT       0.417000       1.00800           0   0.00000       0.00000    
     28885 TIP3     1323     TIP3     H2       HT       0.417000       1.00800           0   0.00000     -0.301140E-02
     28886 TIP3     1324     TIP3     OH2      OT      -0.834000       15.9994           0   0.00000       0.00000    
     28887 TIP3     1324     TIP3     H1       HT       0.417000       1.00800           0   0.00000       0.00000    
     28888 TIP3     1324     TIP3     H2       HT       0.417000       1.00800           0   0.00000     -0.301140E-02
     28889 TIP3     1325     TIP3     OH2      OT      -0.834000       15.9994           0   0.00000       0.00000    
     28890 TIP3     1325     TIP3     H1       HT       0.417000       1.00800           0   0.00000       0.00000    
     28891 TIP3     1325     TIP3     H2       HT       0.417000       1.00800           0   0.00000     -0.301140E-02
     28892 TIP3     1326     TIP3     OH2      OT      -0.834000       15.9994           0   0.00000       0.00000    
     28893 TIP3     1326     TIP3     H1       HT       0.417000       1.00800           0   0.00000       0.00000    
     28894 TIP3     1326     TIP3     H2       HT       0.417000       1.00800           0   0.00000     -0.301140E-02
     28895 TIP3     1327     TIP3     OH2      OT      -0.834000       15.9994           0   0.00000       0.00000    
     28896 TIP3     1327     TIP3     H1       HT       0.417000       1.00800           0   0.00000       0.00000    
     28897 TIP3     1327     TIP3     H2       HT       0.417000       1.00800           0   0.00000     -0.301140E-02
     28898 TIP3     1328     TIP3     OH2      OT      -0.834000       15.9994           0   0.00000       0.00000    
     28899 TIP3     1328     TIP3     H1       HT       0.417000       1.00800           0   0.00000       0.00000    
     28900 TIP3     1328     TIP3     H2       HT       0.417000       1.00800           0   0.00000     -0.301140E-02
     28901 TIP3     1329     TIP3     OH2      OT      -0.834000       15.9994           0   0.00000       0.00000    
     28902 TIP3     1329     TIP3     H1       HT       0.417000       1.00800           0   0.00000       0.00000    
     28903 TIP3     1329     TIP3     H2       HT       0.417000       1.00800           0   0.00000     -0.301140E-02
     28904 TIP3     1330     TIP3     OH2      OT      -0.834000       15.9994           0   0.00000       0.00000    
     28905 TIP3     1330     TIP3     H1       HT       0.417000       1.00800           0   0.00000       0.00000    
     28906 TIP3     1330     TIP3     H2       HT       0.417000       1.00800           0   0.00000     -0.301140E-02
     28907 TIP3     1331     TIP3     OH2      OT      -0.834000       15.9994           0   0.00000       0.00000    
     28908 TIP3     1331     TIP3     H1       HT       0.417000       1.00800           0   0.00000       0.00000    
     28909 TIP3     1331     TIP3     H2       HT       0.417000       1.00800           0   0.00000     -0.301140E-02
     28910 TIP3     1332     TIP3     OH2      OT      -0.834000       15.9994           0   0.00000       0.00000    
     28911 TIP3     1332     TIP3     H1       HT       0.417000       1.00800           0   0.00000       0.00000    
     28912 TIP3     1332     TIP3     H2       HT       0.417000       1.00800           0   0.00000     -0.301140E-02
     28913 TIP3     1333     TIP3     OH2      OT      -0.834000       15.9994           0   0.00000       0.00000    
     28914 TIP3     1333     TIP3     H1       HT       0.417000       1.00800           0   0.00000       0.00000    
     28915 TIP3     1333     TIP3     H2       HT       0.417000       1.00800           0   0.00000     -0.301140E-02
     28916 TIP3     1334     TIP3     OH2      OT      -0.834000       15.9994           0   0.00000       0.00000    
     28917 TIP3     1334     TIP3     H1       HT       0.417000       1.00800           0   0.00000       0.00000    
     28918 TIP3     1334     TIP3     H2       HT       0.417000       1.00800           0   0.00000     -0.301140E-02
     28919 TIP3     1335     TIP3     OH2      OT      -0.834000       15.9994           0   0.00000       0.00000    
     28920 TIP3     1335     TIP3     H1       HT       0.417000       1.00800           0   0.00000       0.00000    
     28921 TIP3     1335     TIP3     H2       HT       0.417000       1.00800           0   0.00000     -0.301140E-02
     28922 TIP3     1336     TIP3     OH2      OT      -0.834000       15.9994           0   0.00000       0.00000    
     28923 TIP3     1336     TIP3     H1       HT       0.417000       1.00800           0   0.00000       0.00000    
     28924 TIP3     1336     TIP3     H2       HT       0.417000       1.00800           0   0.00000     -0.301140E-02
     28925 TIP3     1337     TIP3     OH2      OT      -0.834000       15.9994           0   0.00000       0.00000    
     28926 TIP3     1337     TIP3     H1       HT       0.417000       1.00800           0   0.00000       0.00000    
     28927 TIP3     1337     TIP3     H2       HT       0.417000       1.00800           0   0.00000     -0.301140E-02
     28928 TIP3     1338     TIP3     OH2      OT      -0.834000       15.9994           0   0.00000       0.00000    
     28929 TIP3     1338     TIP3     H1       HT       0.417000       1.00800           0   0.00000       0.00000    
     28930 TIP3     1338     TIP3     H2       HT       0.417000       1.00800           0   0.00000     -0.301140E-02
     28931 TIP3     1339     TIP3     OH2      OT      -0.834000       15.9994           0   0.00000       0.00000    
     28932 TIP3     1339     TIP3     H1       HT       0.417000       1.00800           0   0.00000       0.00000    
     28933 TIP3     1339     TIP3     H2       HT       0.417000       1.00800           0   0.00000     -0.301140E-02
     28934 TIP3     1340     TIP3     OH2      OT      -0.834000       15.9994           0   0.00000       0.00000    
     28935 TIP3     1340     TIP3     H1       HT       0.417000       1.00800           0   0.00000       0.00000    
     28936 TIP3     1340     TIP3     H2       HT       0.417000       1.00800           0   0.00000     -0.301140E-02
     28937 TIP3     1341     TIP3     OH2      OT      -0.834000       15.9994           0   0.00000       0.00000    
     28938 TIP3     1341     TIP3     H1       HT       0.417000       1.00800           0   0.00000       0.00000    
     28939 TIP3     1341     TIP3     H2       HT       0.417000       1.00800           0   0.00000     -0.301140E-02
     28940 TIP3     1342     TIP3     OH2      OT      -0.834000       15.9994           0   0.00000       0.00000    
     28941 TIP3     1342     TIP3     H1       HT       0.417000       1.00800           0   0.00000       0.00000    
     28942 TIP3     1342     TIP3     H2       HT       0.417000       1.00800           0   0.00000     -0.301140E-02
     28943 TIP3     1343     TIP3     OH2      OT      -0.834000       15.9994           0   0.00000       0.00000    
     28944 TIP3     1343     TIP3     H1       HT       0.417000       1.00800           0   0.00000       0.00000    
     28945 TIP3     1343     TIP3     H2       HT       0.417000       1.00800           0   0.00000     -0.301140E-02
     28946 TIP3     1344     TIP3     OH2      OT      -0.834000       15.9994           0   0.00000       0.00000    
     28947 TIP3     1344     TIP3     H1       HT       0.417000       1.00800           0   0.00000       0.00000    
     28948 TIP3     1344     TIP3     H2       HT       0.417000       1.00800           0   0.00000     -0.301140E-02
     28949 TIP3     1345     TIP3     OH2      OT      -0.834000       15.9994           0   0.00000       0.00000    
     28950 TIP3     1345     TIP3     H1       HT       0.417000       1.00800           0   0.00000       0.00000    
     28951 TIP3     1345     TIP3     H2       HT       0.417000       1.00800           0   0.00000     -0.301140E-02
     28952 TIP3     1346     TIP3     OH2      OT      -0.834000       15.9994           0   0.00000       0.00000    
     28953 TIP3     1346     TIP3     H1       HT       0.417000       1.00800           0   0.00000       0.00000    
     28954 TIP3     1346     TIP3     H2       HT       0.417000       1.00800           0   0.00000     -0.301140E-02
     28955 TIP3     1347     TIP3     OH2      OT      -0.834000       15.9994           0   0.00000       0.00000    
     28956 TIP3     1347     TIP3     H1       HT       0.417000       1.00800           0   0.00000       0.00000    
     28957 TIP3     1347     TIP3     H2       HT       0.417000       1.00800           0   0.00000     -0.301140E-02
     28958 TIP3     1348     TIP3     OH2      OT      -0.834000       15.9994           0   0.00000       0.00000    
     28959 TIP3     1348     TIP3     H1       HT       0.417000       1.00800           0   0.00000       0.00000    
     28960 TIP3     1348     TIP3     H2       HT       0.417000       1.00800           0   0.00000     -0.301140E-02
     28961 TIP3     1349     TIP3     OH2      OT      -0.834000       15.9994           0   0.00000       0.00000    
     28962 TIP3     1349     TIP3     H1       HT       0.417000       1.00800           0   0.00000       0.00000    
     28963 TIP3     1349     TIP3     H2       HT       0.417000       1.00800           0   0.00000     -0.301140E-02
     28964 TIP3     1350     TIP3     OH2      OT      -0.834000       15.9994           0   0.00000       0.00000    
     28965 TIP3     1350     TIP3     H1       HT       0.417000       1.00800           0   0.00000       0.00000    
     28966 TIP3     1350     TIP3     H2       HT       0.417000       1.00800           0   0.00000     -0.301140E-02
     28967 TIP3     1351     TIP3     OH2      OT      -0.834000       15.9994           0   0.00000       0.00000    
     28968 TIP3     1351     TIP3     H1       HT       0.417000       1.00800           0   0.00000       0.00000    
     28969 TIP3     1351     TIP3     H2       HT       0.417000       1.00800           0   0.00000     -0.301140E-02
     28970 TIP3     1352     TIP3     OH2      OT      -0.834000       15.9994           0   0.00000       0.00000    
     28971 TIP3     1352     TIP3     H1       HT       0.417000       1.00800           0   0.00000       0.00000    
     28972 TIP3     1352     TIP3     H2       HT       0.417000       1.00800           0   0.00000     -0.301140E-02
     28973 TIP3     1353     TIP3     OH2      OT      -0.834000       15.9994           0   0.00000       0.00000    
     28974 TIP3     1353     TIP3     H1       HT       0.417000       1.00800           0   0.00000       0.00000    
     28975 TIP3     1353     TIP3     H2       HT       0.417000       1.00800           0   0.00000     -0.301140E-02
     28976 TIP3     1354     TIP3     OH2      OT      -0.834000       15.9994           0   0.00000       0.00000    
     28977 TIP3     1354     TIP3     H1       HT       0.417000       1.00800           0   0.00000       0.00000    
     28978 TIP3     1354     TIP3     H2       HT       0.417000       1.00800           0   0.00000     -0.301140E-02
     28979 TIP3     1355     TIP3     OH2      OT      -0.834000       15.9994           0   0.00000       0.00000    
     28980 TIP3     1355     TIP3     H1       HT       0.417000       1.00800           0   0.00000       0.00000    
     28981 TIP3     1355     TIP3     H2       HT       0.417000       1.00800           0   0.00000     -0.301140E-02
     28982 TIP3     1356     TIP3     OH2      OT      -0.834000       15.9994           0   0.00000       0.00000    
     28983 TIP3     1356     TIP3     H1       HT       0.417000       1.00800           0   0.00000       0.00000    
     28984 TIP3     1356     TIP3     H2       HT       0.417000       1.00800           0   0.00000     -0.301140E-02
     28985 TIP3     1357     TIP3     OH2      OT      -0.834000       15.9994           0   0.00000       0.00000    
     28986 TIP3     1357     TIP3     H1       HT       0.417000       1.00800           0   0.00000       0.00000    
     28987 TIP3     1357     TIP3     H2       HT       0.417000       1.00800           0   0.00000     -0.301140E-02
     28988 TIP3     1358     TIP3     OH2      OT      -0.834000       15.9994           0   0.00000       0.00000    
     28989 TIP3     1358     TIP3     H1       HT       0.417000       1.00800           0   0.00000       0.00000    
     28990 TIP3     1358     TIP3     H2       HT       0.417000       1.00800           0   0.00000     -0.301140E-02
     28991 TIP3     1359     TIP3     OH2      OT      -0.834000       15.9994           0   0.00000       0.00000    
     28992 TIP3     1359     TIP3     H1       HT       0.417000       1.00800           0   0.00000       0.00000    
     28993 TIP3     1359     TIP3     H2       HT       0.417000       1.00800           0   0.00000     -0.301140E-02
     28994 TIP3     1360     TIP3     OH2      OT      -0.834000       15.9994           0   0.00000       0.00000    
     28995 TIP3     1360     TIP3     H1       HT       0.417000       1.00800           0   0.00000       0.00000    
     28996 TIP3     1360     TIP3     H2       HT       0.417000       1.00800           0   0.00000     -0.301140E-02
     28997 TIP3     1361     TIP3     OH2      OT      -0.834000       15.9994           0   0.00000       0.00000    
     28998 TIP3     1361     TIP3     H1       HT       0.417000       1.00800           0   0.00000       0.00000    
     28999 TIP3     1361     TIP3     H2       HT       0.417000       1.00800           0   0.00000     -0.301140E-02
     29000 TIP3     1362     TIP3     OH2      OT      -0.834000       15.9994           0   0.00000       0.00000    
     29001 TIP3     1362     TIP3     H1       HT       0.417000       1.00800           0   0.00000       0.00000    
     29002 TIP3     1362     TIP3     H2       HT       0.417000       1.00800           0   0.00000     -0.301140E-02
     29003 TIP3     1363     TIP3     OH2      OT      -0.834000       15.9994           0   0.00000       0.00000    
     29004 TIP3     1363     TIP3     H1       HT       0.417000       1.00800           0   0.00000       0.00000    
     29005 TIP3     1363     TIP3     H2       HT       0.417000       1.00800           0   0.00000     -0.301140E-02
     29006 TIP3     1364     TIP3     OH2      OT      -0.834000       15.9994           0   0.00000       0.00000    
     29007 TIP3     1364     TIP3     H1       HT       0.417000       1.00800           0   0.00000       0.00000    
     29008 TIP3     1364     TIP3     H2       HT       0.417000       1.00800           0   0.00000     -0.301140E-02
     29009 TIP3     1365     TIP3     OH2      OT      -0.834000       15.9994           0   0.00000       0.00000    
     29010 TIP3     1365     TIP3     H1       HT       0.417000       1.00800           0   0.00000       0.00000    
     29011 TIP3     1365     TIP3     H2       HT       0.417000       1.00800           0   0.00000     -0.301140E-02
     29012 TIP3     1366     TIP3     OH2      OT      -0.834000       15.9994           0   0.00000       0.00000    
     29013 TIP3     1366     TIP3     H1       HT       0.417000       1.00800           0   0.00000       0.00000    
     29014 TIP3     1366     TIP3     H2       HT       0.417000       1.00800           0   0.00000     -0.301140E-02
     29015 TIP3     1367     TIP3     OH2      OT      -0.834000       15.9994           0   0.00000       0.00000    
     29016 TIP3     1367     TIP3     H1       HT       0.417000       1.00800           0   0.00000       0.00000    
     29017 TIP3     1367     TIP3     H2       HT       0.417000       1.00800           0   0.00000     -0.301140E-02
     29018 TIP3     1368     TIP3     OH2      OT      -0.834000       15.9994           0   0.00000       0.00000    
     29019 TIP3     1368     TIP3     H1       HT       0.417000       1.00800           0   0.00000       0.00000    
     29020 TIP3     1368     TIP3     H2       HT       0.417000       1.00800           0   0.00000     -0.301140E-02
     29021 TIP3     1369     TIP3     OH2      OT      -0.834000       15.9994           0   0.00000       0.00000    
     29022 TIP3     1369     TIP3     H1       HT       0.417000       1.00800           0   0.00000       0.00000    
     29023 TIP3     1369     TIP3     H2       HT       0.417000       1.00800           0   0.00000     -0.301140E-02
     29024 TIP3     1370     TIP3     OH2      OT      -0.834000       15.9994           0   0.00000       0.00000    
     29025 TIP3     1370     TIP3     H1       HT       0.417000       1.00800           0   0.00000       0.00000    
     29026 TIP3     1370     TIP3     H2       HT       0.417000       1.00800           0   0.00000     -0.301140E-02
     29027 TIP3     1371     TIP3     OH2      OT      -0.834000       15.9994           0   0.00000       0.00000    
     29028 TIP3     1371     TIP3     H1       HT       0.417000       1.00800           0   0.00000       0.00000    
     29029 TIP3     1371     TIP3     H2       HT       0.417000       1.00800           0   0.00000     -0.301140E-02
     29030 TIP3     1372     TIP3     OH2      OT      -0.834000       15.9994           0   0.00000       0.00000    
     29031 TIP3     1372     TIP3     H1       HT       0.417000       1.00800           0   0.00000       0.00000    
     29032 TIP3     1372     TIP3     H2       HT       0.417000       1.00800           0   0.00000     -0.301140E-02
     29033 TIP3     1373     TIP3     OH2      OT      -0.834000       15.9994           0   0.00000       0.00000    
     29034 TIP3     1373     TIP3     H1       HT       0.417000       1.00800           0   0.00000       0.00000    
     29035 TIP3     1373     TIP3     H2       HT       0.417000       1.00800           0   0.00000     -0.301140E-02
     29036 TIP3     1374     TIP3     OH2      OT      -0.834000       15.9994           0   0.00000       0.00000    
     29037 TIP3     1374     TIP3     H1       HT       0.417000       1.00800           0   0.00000       0.00000    
     29038 TIP3     1374     TIP3     H2       HT       0.417000       1.00800           0   0.00000     -0.301140E-02
     29039 TIP3     1375     TIP3     OH2      OT      -0.834000       15.9994           0   0.00000       0.00000    
     29040 TIP3     1375     TIP3     H1       HT       0.417000       1.00800           0   0.00000       0.00000    
     29041 TIP3     1375     TIP3     H2       HT       0.417000       1.00800           0   0.00000     -0.301140E-02
     29042 TIP3     1376     TIP3     OH2      OT      -0.834000       15.9994           0   0.00000       0.00000    
     29043 TIP3     1376     TIP3     H1       HT       0.417000       1.00800           0   0.00000       0.00000    
     29044 TIP3     1376     TIP3     H2       HT       0.417000       1.00800           0   0.00000     -0.301140E-02
     29045 TIP3     1377     TIP3     OH2      OT      -0.834000       15.9994           0   0.00000       0.00000    
     29046 TIP3     1377     TIP3     H1       HT       0.417000       1.00800           0   0.00000       0.00000    
     29047 TIP3     1377     TIP3     H2       HT       0.417000       1.00800           0   0.00000     -0.301140E-02
     29048 TIP3     1378     TIP3     OH2      OT      -0.834000       15.9994           0   0.00000       0.00000    
     29049 TIP3     1378     TIP3     H1       HT       0.417000       1.00800           0   0.00000       0.00000    
     29050 TIP3     1378     TIP3     H2       HT       0.417000       1.00800           0   0.00000     -0.301140E-02
     29051 TIP3     1379     TIP3     OH2      OT      -0.834000       15.9994           0   0.00000       0.00000    
     29052 TIP3     1379     TIP3     H1       HT       0.417000       1.00800           0   0.00000       0.00000    
     29053 TIP3     1379     TIP3     H2       HT       0.417000       1.00800           0   0.00000     -0.301140E-02
     29054 TIP3     1380     TIP3     OH2      OT      -0.834000       15.9994           0   0.00000       0.00000    
     29055 TIP3     1380     TIP3     H1       HT       0.417000       1.00800           0   0.00000       0.00000    
     29056 TIP3     1380     TIP3     H2       HT       0.417000       1.00800           0   0.00000     -0.301140E-02
     29057 TIP3     1381     TIP3     OH2      OT      -0.834000       15.9994           0   0.00000       0.00000    
     29058 TIP3     1381     TIP3     H1       HT       0.417000       1.00800           0   0.00000       0.00000    
     29059 TIP3     1381     TIP3     H2       HT       0.417000       1.00800           0   0.00000     -0.301140E-02
     29060 TIP3     1382     TIP3     OH2      OT      -0.834000       15.9994           0   0.00000       0.00000    
     29061 TIP3     1382     TIP3     H1       HT       0.417000       1.00800           0   0.00000       0.00000    
     29062 TIP3     1382     TIP3     H2       HT       0.417000       1.00800           0   0.00000     -0.301140E-02
     29063 TIP3     1383     TIP3     OH2      OT      -0.834000       15.9994           0   0.00000       0.00000    
     29064 TIP3     1383     TIP3     H1       HT       0.417000       1.00800           0   0.00000       0.00000    
     29065 TIP3     1383     TIP3     H2       HT       0.417000       1.00800           0   0.00000     -0.301140E-02
     29066 TIP3     1384     TIP3     OH2      OT      -0.834000       15.9994           0   0.00000       0.00000    
     29067 TIP3     1384     TIP3     H1       HT       0.417000       1.00800           0   0.00000       0.00000    
     29068 TIP3     1384     TIP3     H2       HT       0.417000       1.00800           0   0.00000     -0.301140E-02
     29069 TIP3     1385     TIP3     OH2      OT      -0.834000       15.9994           0   0.00000       0.00000    
     29070 TIP3     1385     TIP3     H1       HT       0.417000       1.00800           0   0.00000       0.00000    
     29071 TIP3     1385     TIP3     H2       HT       0.417000       1.00800           0   0.00000     -0.301140E-02
     29072 TIP3     1386     TIP3     OH2      OT      -0.834000       15.9994           0   0.00000       0.00000    
     29073 TIP3     1386     TIP3     H1       HT       0.417000       1.00800           0   0.00000       0.00000    
     29074 TIP3     1386     TIP3     H2       HT       0.417000       1.00800           0   0.00000     -0.301140E-02
     29075 TIP3     1387     TIP3     OH2      OT      -0.834000       15.9994           0   0.00000       0.00000    
     29076 TIP3     1387     TIP3     H1       HT       0.417000       1.00800           0   0.00000       0.00000    
     29077 TIP3     1387     TIP3     H2       HT       0.417000       1.00800           0   0.00000     -0.301140E-02
     29078 TIP3     1388     TIP3     OH2      OT      -0.834000       15.9994           0   0.00000       0.00000    
     29079 TIP3     1388     TIP3     H1       HT       0.417000       1.00800           0   0.00000       0.00000    
     29080 TIP3     1388     TIP3     H2       HT       0.417000       1.00800           0   0.00000     -0.301140E-02
     29081 TIP3     1389     TIP3     OH2      OT      -0.834000       15.9994           0   0.00000       0.00000    
     29082 TIP3     1389     TIP3     H1       HT       0.417000       1.00800           0   0.00000       0.00000    
     29083 TIP3     1389     TIP3     H2       HT       0.417000       1.00800           0   0.00000     -0.301140E-02
     29084 TIP3     1390     TIP3     OH2      OT      -0.834000       15.9994           0   0.00000       0.00000    
     29085 TIP3     1390     TIP3     H1       HT       0.417000       1.00800           0   0.00000       0.00000    
     29086 TIP3     1390     TIP3     H2       HT       0.417000       1.00800           0   0.00000     -0.301140E-02
     29087 TIP3     1391     TIP3     OH2      OT      -0.834000       15.9994           0   0.00000       0.00000    
     29088 TIP3     1391     TIP3     H1       HT       0.417000       1.00800           0   0.00000       0.00000    
     29089 TIP3     1391     TIP3     H2       HT       0.417000       1.00800           0   0.00000     -0.301140E-02
     29090 TIP3     1392     TIP3     OH2      OT      -0.834000       15.9994           0   0.00000       0.00000    
     29091 TIP3     1392     TIP3     H1       HT       0.417000       1.00800           0   0.00000       0.00000    
     29092 TIP3     1392     TIP3     H2       HT       0.417000       1.00800           0   0.00000     -0.301140E-02
     29093 TIP3     1393     TIP3     OH2      OT      -0.834000       15.9994           0   0.00000       0.00000    
     29094 TIP3     1393     TIP3     H1       HT       0.417000       1.00800           0   0.00000       0.00000    
     29095 TIP3     1393     TIP3     H2       HT       0.417000       1.00800           0   0.00000     -0.301140E-02
     29096 TIP3     1394     TIP3     OH2      OT      -0.834000       15.9994           0   0.00000       0.00000    
     29097 TIP3     1394     TIP3     H1       HT       0.417000       1.00800           0   0.00000       0.00000    
     29098 TIP3     1394     TIP3     H2       HT       0.417000       1.00800           0   0.00000     -0.301140E-02
     29099 TIP3     1395     TIP3     OH2      OT      -0.834000       15.9994           0   0.00000       0.00000    
     29100 TIP3     1395     TIP3     H1       HT       0.417000       1.00800           0   0.00000       0.00000    
     29101 TIP3     1395     TIP3     H2       HT       0.417000       1.00800           0   0.00000     -0.301140E-02
     29102 TIP3     1396     TIP3     OH2      OT      -0.834000       15.9994           0   0.00000       0.00000    
     29103 TIP3     1396     TIP3     H1       HT       0.417000       1.00800           0   0.00000       0.00000    
     29104 TIP3     1396     TIP3     H2       HT       0.417000       1.00800           0   0.00000     -0.301140E-02
     29105 TIP3     1397     TIP3     OH2      OT      -0.834000       15.9994           0   0.00000       0.00000    
     29106 TIP3     1397     TIP3     H1       HT       0.417000       1.00800           0   0.00000       0.00000    
     29107 TIP3     1397     TIP3     H2       HT       0.417000       1.00800           0   0.00000     -0.301140E-02
     29108 TIP3     1398     TIP3     OH2      OT      -0.834000       15.9994           0   0.00000       0.00000    
     29109 TIP3     1398     TIP3     H1       HT       0.417000       1.00800           0   0.00000       0.00000    
     29110 TIP3     1398     TIP3     H2       HT       0.417000       1.00800           0   0.00000     -0.301140E-02
     29111 TIP3     1399     TIP3     OH2      OT      -0.834000       15.9994           0   0.00000       0.00000    
     29112 TIP3     1399     TIP3     H1       HT       0.417000       1.00800           0   0.00000       0.00000    
     29113 TIP3     1399     TIP3     H2       HT       0.417000       1.00800           0   0.00000     -0.301140E-02
     29114 TIP3     1400     TIP3     OH2      OT      -0.834000       15.9994           0   0.00000       0.00000    
     29115 TIP3     1400     TIP3     H1       HT       0.417000       1.00800           0   0.00000       0.00000    
     29116 TIP3     1400     TIP3     H2       HT       0.417000       1.00800           0   0.00000     -0.301140E-02
     29117 TIP3     1401     TIP3     OH2      OT      -0.834000       15.9994           0   0.00000       0.00000    
     29118 TIP3     1401     TIP3     H1       HT       0.417000       1.00800           0   0.00000       0.00000    
     29119 TIP3     1401     TIP3     H2       HT       0.417000       1.00800           0   0.00000     -0.301140E-02
     29120 TIP3     1402     TIP3     OH2      OT      -0.834000       15.9994           0   0.00000       0.00000    
     29121 TIP3     1402     TIP3     H1       HT       0.417000       1.00800           0   0.00000       0.00000    
     29122 TIP3     1402     TIP3     H2       HT       0.417000       1.00800           0   0.00000     -0.301140E-02
     29123 TIP3     1403     TIP3     OH2      OT      -0.834000       15.9994           0   0.00000       0.00000    
     29124 TIP3     1403     TIP3     H1       HT       0.417000       1.00800           0   0.00000       0.00000    
     29125 TIP3     1403     TIP3     H2       HT       0.417000       1.00800           0   0.00000     -0.301140E-02
     29126 TIP3     1404     TIP3     OH2      OT      -0.834000       15.9994           0   0.00000       0.00000    
     29127 TIP3     1404     TIP3     H1       HT       0.417000       1.00800           0   0.00000       0.00000    
     29128 TIP3     1404     TIP3     H2       HT       0.417000       1.00800           0   0.00000     -0.301140E-02
     29129 TIP3     1405     TIP3     OH2      OT      -0.834000       15.9994           0   0.00000       0.00000    
     29130 TIP3     1405     TIP3     H1       HT       0.417000       1.00800           0   0.00000       0.00000    
     29131 TIP3     1405     TIP3     H2       HT       0.417000       1.00800           0   0.00000     -0.301140E-02
     29132 TIP3     1406     TIP3     OH2      OT      -0.834000       15.9994           0   0.00000       0.00000    
     29133 TIP3     1406     TIP3     H1       HT       0.417000       1.00800           0   0.00000       0.00000    
     29134 TIP3     1406     TIP3     H2       HT       0.417000       1.00800           0   0.00000     -0.301140E-02
     29135 TIP3     1407     TIP3     OH2      OT      -0.834000       15.9994           0   0.00000       0.00000    
     29136 TIP3     1407     TIP3     H1       HT       0.417000       1.00800           0   0.00000       0.00000    
     29137 TIP3     1407     TIP3     H2       HT       0.417000       1.00800           0   0.00000     -0.301140E-02
     29138 TIP3     1408     TIP3     OH2      OT      -0.834000       15.9994           0   0.00000       0.00000    
     29139 TIP3     1408     TIP3     H1       HT       0.417000       1.00800           0   0.00000       0.00000    
     29140 TIP3     1408     TIP3     H2       HT       0.417000       1.00800           0   0.00000     -0.301140E-02
     29141 TIP3     1409     TIP3     OH2      OT      -0.834000       15.9994           0   0.00000       0.00000    
     29142 TIP3     1409     TIP3     H1       HT       0.417000       1.00800           0   0.00000       0.00000    
     29143 TIP3     1409     TIP3     H2       HT       0.417000       1.00800           0   0.00000     -0.301140E-02
     29144 TIP3     1410     TIP3     OH2      OT      -0.834000       15.9994           0   0.00000       0.00000    
     29145 TIP3     1410     TIP3     H1       HT       0.417000       1.00800           0   0.00000       0.00000    
     29146 TIP3     1410     TIP3     H2       HT       0.417000       1.00800           0   0.00000     -0.301140E-02
     29147 TIP3     1411     TIP3     OH2      OT      -0.834000       15.9994           0   0.00000       0.00000    
     29148 TIP3     1411     TIP3     H1       HT       0.417000       1.00800           0   0.00000       0.00000    
     29149 TIP3     1411     TIP3     H2       HT       0.417000       1.00800           0   0.00000     -0.301140E-02
     29150 TIP3     1412     TIP3     OH2      OT      -0.834000       15.9994           0   0.00000       0.00000    
     29151 TIP3     1412     TIP3     H1       HT       0.417000       1.00800           0   0.00000       0.00000    
     29152 TIP3     1412     TIP3     H2       HT       0.417000       1.00800           0   0.00000     -0.301140E-02
     29153 TIP3     1413     TIP3     OH2      OT      -0.834000       15.9994           0   0.00000       0.00000    
     29154 TIP3     1413     TIP3     H1       HT       0.417000       1.00800           0   0.00000       0.00000    
     29155 TIP3     1413     TIP3     H2       HT       0.417000       1.00800           0   0.00000     -0.301140E-02
     29156 TIP3     1414     TIP3     OH2      OT      -0.834000       15.9994           0   0.00000       0.00000    
     29157 TIP3     1414     TIP3     H1       HT       0.417000       1.00800           0   0.00000       0.00000    
     29158 TIP3     1414     TIP3     H2       HT       0.417000       1.00800           0   0.00000     -0.301140E-02
     29159 TIP3     1415     TIP3     OH2      OT      -0.834000       15.9994           0   0.00000       0.00000    
     29160 TIP3     1415     TIP3     H1       HT       0.417000       1.00800           0   0.00000       0.00000    
     29161 TIP3     1415     TIP3     H2       HT       0.417000       1.00800           0   0.00000     -0.301140E-02
     29162 TIP3     1416     TIP3     OH2      OT      -0.834000       15.9994           0   0.00000       0.00000    
     29163 TIP3     1416     TIP3     H1       HT       0.417000       1.00800           0   0.00000       0.00000    
     29164 TIP3     1416     TIP3     H2       HT       0.417000       1.00800           0   0.00000     -0.301140E-02
     29165 TIP3     1417     TIP3     OH2      OT      -0.834000       15.9994           0   0.00000       0.00000    
     29166 TIP3     1417     TIP3     H1       HT       0.417000       1.00800           0   0.00000       0.00000    
     29167 TIP3     1417     TIP3     H2       HT       0.417000       1.00800           0   0.00000     -0.301140E-02
     29168 TIP3     1418     TIP3     OH2      OT      -0.834000       15.9994           0   0.00000       0.00000    
     29169 TIP3     1418     TIP3     H1       HT       0.417000       1.00800           0   0.00000       0.00000    
     29170 TIP3     1418     TIP3     H2       HT       0.417000       1.00800           0   0.00000     -0.301140E-02
     29171 TIP3     1419     TIP3     OH2      OT      -0.834000       15.9994           0   0.00000       0.00000    
     29172 TIP3     1419     TIP3     H1       HT       0.417000       1.00800           0   0.00000       0.00000    
     29173 TIP3     1419     TIP3     H2       HT       0.417000       1.00800           0   0.00000     -0.301140E-02
     29174 TIP3     1420     TIP3     OH2      OT      -0.834000       15.9994           0   0.00000       0.00000    
     29175 TIP3     1420     TIP3     H1       HT       0.417000       1.00800           0   0.00000       0.00000    
     29176 TIP3     1420     TIP3     H2       HT       0.417000       1.00800           0   0.00000     -0.301140E-02
     29177 TIP3     1421     TIP3     OH2      OT      -0.834000       15.9994           0   0.00000       0.00000    
     29178 TIP3     1421     TIP3     H1       HT       0.417000       1.00800           0   0.00000       0.00000    
     29179 TIP3     1421     TIP3     H2       HT       0.417000       1.00800           0   0.00000     -0.301140E-02
     29180 TIP3     1422     TIP3     OH2      OT      -0.834000       15.9994           0   0.00000       0.00000    
     29181 TIP3     1422     TIP3     H1       HT       0.417000       1.00800           0   0.00000       0.00000    
     29182 TIP3     1422     TIP3     H2       HT       0.417000       1.00800           0   0.00000     -0.301140E-02
     29183 TIP3     1423     TIP3     OH2      OT      -0.834000       15.9994           0   0.00000       0.00000    
     29184 TIP3     1423     TIP3     H1       HT       0.417000       1.00800           0   0.00000       0.00000    
     29185 TIP3     1423     TIP3     H2       HT       0.417000       1.00800           0   0.00000     -0.301140E-02
     29186 TIP3     1424     TIP3     OH2      OT      -0.834000       15.9994           0   0.00000       0.00000    
     29187 TIP3     1424     TIP3     H1       HT       0.417000       1.00800           0   0.00000       0.00000    
     29188 TIP3     1424     TIP3     H2       HT       0.417000       1.00800           0   0.00000     -0.301140E-02
     29189 TIP3     1425     TIP3     OH2      OT      -0.834000       15.9994           0   0.00000       0.00000    
     29190 TIP3     1425     TIP3     H1       HT       0.417000       1.00800           0   0.00000       0.00000    
     29191 TIP3     1425     TIP3     H2       HT       0.417000       1.00800           0   0.00000     -0.301140E-02
     29192 TIP3     1426     TIP3     OH2      OT      -0.834000       15.9994           0   0.00000       0.00000    
     29193 TIP3     1426     TIP3     H1       HT       0.417000       1.00800           0   0.00000       0.00000    
     29194 TIP3     1426     TIP3     H2       HT       0.417000       1.00800           0   0.00000     -0.301140E-02
     29195 TIP3     1427     TIP3     OH2      OT      -0.834000       15.9994           0   0.00000       0.00000    
     29196 TIP3     1427     TIP3     H1       HT       0.417000       1.00800           0   0.00000       0.00000    
     29197 TIP3     1427     TIP3     H2       HT       0.417000       1.00800           0   0.00000     -0.301140E-02
     29198 TIP3     1428     TIP3     OH2      OT      -0.834000       15.9994           0   0.00000       0.00000    
     29199 TIP3     1428     TIP3     H1       HT       0.417000       1.00800           0   0.00000       0.00000    
     29200 TIP3     1428     TIP3     H2       HT       0.417000       1.00800           0   0.00000     -0.301140E-02
     29201 TIP3     1429     TIP3     OH2      OT      -0.834000       15.9994           0   0.00000       0.00000    
     29202 TIP3     1429     TIP3     H1       HT       0.417000       1.00800           0   0.00000       0.00000    
     29203 TIP3     1429     TIP3     H2       HT       0.417000       1.00800           0   0.00000     -0.301140E-02
     29204 TIP3     1430     TIP3     OH2      OT      -0.834000       15.9994           0   0.00000       0.00000    
     29205 TIP3     1430     TIP3     H1       HT       0.417000       1.00800           0   0.00000       0.00000    
     29206 TIP3     1430     TIP3     H2       HT       0.417000       1.00800           0   0.00000     -0.301140E-02
     29207 TIP3     1431     TIP3     OH2      OT      -0.834000       15.9994           0   0.00000       0.00000    
     29208 TIP3     1431     TIP3     H1       HT       0.417000       1.00800           0   0.00000       0.00000    
     29209 TIP3     1431     TIP3     H2       HT       0.417000       1.00800           0   0.00000     -0.301140E-02
     29210 TIP3     1432     TIP3     OH2      OT      -0.834000       15.9994           0   0.00000       0.00000    
     29211 TIP3     1432     TIP3     H1       HT       0.417000       1.00800           0   0.00000       0.00000    
     29212 TIP3     1432     TIP3     H2       HT       0.417000       1.00800           0   0.00000     -0.301140E-02
     29213 TIP3     1433     TIP3     OH2      OT      -0.834000       15.9994           0   0.00000       0.00000    
     29214 TIP3     1433     TIP3     H1       HT       0.417000       1.00800           0   0.00000       0.00000    
     29215 TIP3     1433     TIP3     H2       HT       0.417000       1.00800           0   0.00000     -0.301140E-02
     29216 TIP3     1434     TIP3     OH2      OT      -0.834000       15.9994           0   0.00000       0.00000    
     29217 TIP3     1434     TIP3     H1       HT       0.417000       1.00800           0   0.00000       0.00000    
     29218 TIP3     1434     TIP3     H2       HT       0.417000       1.00800           0   0.00000     -0.301140E-02
     29219 TIP3     1435     TIP3     OH2      OT      -0.834000       15.9994           0   0.00000       0.00000    
     29220 TIP3     1435     TIP3     H1       HT       0.417000       1.00800           0   0.00000       0.00000    
     29221 TIP3     1435     TIP3     H2       HT       0.417000       1.00800           0   0.00000     -0.301140E-02
     29222 TIP3     1436     TIP3     OH2      OT      -0.834000       15.9994           0   0.00000       0.00000    
     29223 TIP3     1436     TIP3     H1       HT       0.417000       1.00800           0   0.00000       0.00000    
     29224 TIP3     1436     TIP3     H2       HT       0.417000       1.00800           0   0.00000     -0.301140E-02
     29225 TIP3     1437     TIP3     OH2      OT      -0.834000       15.9994           0   0.00000       0.00000    
     29226 TIP3     1437     TIP3     H1       HT       0.417000       1.00800           0   0.00000       0.00000    
     29227 TIP3     1437     TIP3     H2       HT       0.417000       1.00800           0   0.00000     -0.301140E-02
     29228 TIP3     1438     TIP3     OH2      OT      -0.834000       15.9994           0   0.00000       0.00000    
     29229 TIP3     1438     TIP3     H1       HT       0.417000       1.00800           0   0.00000       0.00000    
     29230 TIP3     1438     TIP3     H2       HT       0.417000       1.00800           0   0.00000     -0.301140E-02
     29231 TIP3     1439     TIP3     OH2      OT      -0.834000       15.9994           0   0.00000       0.00000    
     29232 TIP3     1439     TIP3     H1       HT       0.417000       1.00800           0   0.00000       0.00000    
     29233 TIP3     1439     TIP3     H2       HT       0.417000       1.00800           0   0.00000     -0.301140E-02
     29234 TIP3     1440     TIP3     OH2      OT      -0.834000       15.9994           0   0.00000       0.00000    
     29235 TIP3     1440     TIP3     H1       HT       0.417000       1.00800           0   0.00000       0.00000    
     29236 TIP3     1440     TIP3     H2       HT       0.417000       1.00800           0   0.00000     -0.301140E-02
     29237 TIP3     1441     TIP3     OH2      OT      -0.834000       15.9994           0   0.00000       0.00000    
     29238 TIP3     1441     TIP3     H1       HT       0.417000       1.00800           0   0.00000       0.00000    
     29239 TIP3     1441     TIP3     H2       HT       0.417000       1.00800           0   0.00000     -0.301140E-02
     29240 TIP3     1442     TIP3     OH2      OT      -0.834000       15.9994           0   0.00000       0.00000    
     29241 TIP3     1442     TIP3     H1       HT       0.417000       1.00800           0   0.00000       0.00000    
     29242 TIP3     1442     TIP3     H2       HT       0.417000       1.00800           0   0.00000     -0.301140E-02
     29243 TIP3     1443     TIP3     OH2      OT      -0.834000       15.9994           0   0.00000       0.00000    
     29244 TIP3     1443     TIP3     H1       HT       0.417000       1.00800           0   0.00000       0.00000    
     29245 TIP3     1443     TIP3     H2       HT       0.417000       1.00800           0   0.00000     -0.301140E-02
     29246 TIP3     1444     TIP3     OH2      OT      -0.834000       15.9994           0   0.00000       0.00000    
     29247 TIP3     1444     TIP3     H1       HT       0.417000       1.00800           0   0.00000       0.00000    
     29248 TIP3     1444     TIP3     H2       HT       0.417000       1.00800           0   0.00000     -0.301140E-02
     29249 TIP3     1445     TIP3     OH2      OT      -0.834000       15.9994           0   0.00000       0.00000    
     29250 TIP3     1445     TIP3     H1       HT       0.417000       1.00800           0   0.00000       0.00000    
     29251 TIP3     1445     TIP3     H2       HT       0.417000       1.00800           0   0.00000     -0.301140E-02
     29252 TIP3     1446     TIP3     OH2      OT      -0.834000       15.9994           0   0.00000       0.00000    
     29253 TIP3     1446     TIP3     H1       HT       0.417000       1.00800           0   0.00000       0.00000    
     29254 TIP3     1446     TIP3     H2       HT       0.417000       1.00800           0   0.00000     -0.301140E-02
     29255 TIP3     1447     TIP3     OH2      OT      -0.834000       15.9994           0   0.00000       0.00000    
     29256 TIP3     1447     TIP3     H1       HT       0.417000       1.00800           0   0.00000       0.00000    
     29257 TIP3     1447     TIP3     H2       HT       0.417000       1.00800           0   0.00000     -0.301140E-02
     29258 TIP3     1448     TIP3     OH2      OT      -0.834000       15.9994           0   0.00000       0.00000    
     29259 TIP3     1448     TIP3     H1       HT       0.417000       1.00800           0   0.00000       0.00000    
     29260 TIP3     1448     TIP3     H2       HT       0.417000       1.00800           0   0.00000     -0.301140E-02
     29261 TIP3     1449     TIP3     OH2      OT      -0.834000       15.9994           0   0.00000       0.00000    
     29262 TIP3     1449     TIP3     H1       HT       0.417000       1.00800           0   0.00000       0.00000    
     29263 TIP3     1449     TIP3     H2       HT       0.417000       1.00800           0   0.00000     -0.301140E-02
     29264 TIP3     1450     TIP3     OH2      OT      -0.834000       15.9994           0   0.00000       0.00000    
     29265 TIP3     1450     TIP3     H1       HT       0.417000       1.00800           0   0.00000       0.00000    
     29266 TIP3     1450     TIP3     H2       HT       0.417000       1.00800           0   0.00000     -0.301140E-02
     29267 TIP3     1451     TIP3     OH2      OT      -0.834000       15.9994           0   0.00000       0.00000    
     29268 TIP3     1451     TIP3     H1       HT       0.417000       1.00800           0   0.00000       0.00000    
     29269 TIP3     1451     TIP3     H2       HT       0.417000       1.00800           0   0.00000     -0.301140E-02
     29270 TIP3     1452     TIP3     OH2      OT      -0.834000       15.9994           0   0.00000       0.00000    
     29271 TIP3     1452     TIP3     H1       HT       0.417000       1.00800           0   0.00000       0.00000    
     29272 TIP3     1452     TIP3     H2       HT       0.417000       1.00800           0   0.00000     -0.301140E-02
     29273 TIP3     1453     TIP3     OH2      OT      -0.834000       15.9994           0   0.00000       0.00000    
     29274 TIP3     1453     TIP3     H1       HT       0.417000       1.00800           0   0.00000       0.00000    
     29275 TIP3     1453     TIP3     H2       HT       0.417000       1.00800           0   0.00000     -0.301140E-02
     29276 TIP3     1454     TIP3     OH2      OT      -0.834000       15.9994           0   0.00000       0.00000    
     29277 TIP3     1454     TIP3     H1       HT       0.417000       1.00800           0   0.00000       0.00000    
     29278 TIP3     1454     TIP3     H2       HT       0.417000       1.00800           0   0.00000     -0.301140E-02
     29279 TIP3     1455     TIP3     OH2      OT      -0.834000       15.9994           0   0.00000       0.00000    
     29280 TIP3     1455     TIP3     H1       HT       0.417000       1.00800           0   0.00000       0.00000    
     29281 TIP3     1455     TIP3     H2       HT       0.417000       1.00800           0   0.00000     -0.301140E-02
     29282 TIP3     1456     TIP3     OH2      OT      -0.834000       15.9994           0   0.00000       0.00000    
     29283 TIP3     1456     TIP3     H1       HT       0.417000       1.00800           0   0.00000       0.00000    
     29284 TIP3     1456     TIP3     H2       HT       0.417000       1.00800           0   0.00000     -0.301140E-02
     29285 TIP3     1457     TIP3     OH2      OT      -0.834000       15.9994           0   0.00000       0.00000    
     29286 TIP3     1457     TIP3     H1       HT       0.417000       1.00800           0   0.00000       0.00000    
     29287 TIP3     1457     TIP3     H2       HT       0.417000       1.00800           0   0.00000     -0.301140E-02
     29288 TIP3     1458     TIP3     OH2      OT      -0.834000       15.9994           0   0.00000       0.00000    
     29289 TIP3     1458     TIP3     H1       HT       0.417000       1.00800           0   0.00000       0.00000    
     29290 TIP3     1458     TIP3     H2       HT       0.417000       1.00800           0   0.00000     -0.301140E-02
     29291 TIP3     1459     TIP3     OH2      OT      -0.834000       15.9994           0   0.00000       0.00000    
     29292 TIP3     1459     TIP3     H1       HT       0.417000       1.00800           0   0.00000       0.00000    
     29293 TIP3     1459     TIP3     H2       HT       0.417000       1.00800           0   0.00000     -0.301140E-02
     29294 TIP3     1460     TIP3     OH2      OT      -0.834000       15.9994           0   0.00000       0.00000    
     29295 TIP3     1460     TIP3     H1       HT       0.417000       1.00800           0   0.00000       0.00000    
     29296 TIP3     1460     TIP3     H2       HT       0.417000       1.00800           0   0.00000     -0.301140E-02
     29297 TIP3     1461     TIP3     OH2      OT      -0.834000       15.9994           0   0.00000       0.00000    
     29298 TIP3     1461     TIP3     H1       HT       0.417000       1.00800           0   0.00000       0.00000    
     29299 TIP3     1461     TIP3     H2       HT       0.417000       1.00800           0   0.00000     -0.301140E-02
     29300 TIP3     1462     TIP3     OH2      OT      -0.834000       15.9994           0   0.00000       0.00000    
     29301 TIP3     1462     TIP3     H1       HT       0.417000       1.00800           0   0.00000       0.00000    
     29302 TIP3     1462     TIP3     H2       HT       0.417000       1.00800           0   0.00000     -0.301140E-02
     29303 TIP3     1463     TIP3     OH2      OT      -0.834000       15.9994           0   0.00000       0.00000    
     29304 TIP3     1463     TIP3     H1       HT       0.417000       1.00800           0   0.00000       0.00000    
     29305 TIP3     1463     TIP3     H2       HT       0.417000       1.00800           0   0.00000     -0.301140E-02
     29306 TIP3     1464     TIP3     OH2      OT      -0.834000       15.9994           0   0.00000       0.00000    
     29307 TIP3     1464     TIP3     H1       HT       0.417000       1.00800           0   0.00000       0.00000    
     29308 TIP3     1464     TIP3     H2       HT       0.417000       1.00800           0   0.00000     -0.301140E-02
     29309 TIP3     1465     TIP3     OH2      OT      -0.834000       15.9994           0   0.00000       0.00000    
     29310 TIP3     1465     TIP3     H1       HT       0.417000       1.00800           0   0.00000       0.00000    
     29311 TIP3     1465     TIP3     H2       HT       0.417000       1.00800           0   0.00000     -0.301140E-02
     29312 TIP3     1466     TIP3     OH2      OT      -0.834000       15.9994           0   0.00000       0.00000    
     29313 TIP3     1466     TIP3     H1       HT       0.417000       1.00800           0   0.00000       0.00000    
     29314 TIP3     1466     TIP3     H2       HT       0.417000       1.00800           0   0.00000     -0.301140E-02
     29315 TIP3     1467     TIP3     OH2      OT      -0.834000       15.9994           0   0.00000       0.00000    
     29316 TIP3     1467     TIP3     H1       HT       0.417000       1.00800           0   0.00000       0.00000    
     29317 TIP3     1467     TIP3     H2       HT       0.417000       1.00800           0   0.00000     -0.301140E-02
     29318 TIP3     1468     TIP3     OH2      OT      -0.834000       15.9994           0   0.00000       0.00000    
     29319 TIP3     1468     TIP3     H1       HT       0.417000       1.00800           0   0.00000       0.00000    
     29320 TIP3     1468     TIP3     H2       HT       0.417000       1.00800           0   0.00000     -0.301140E-02
     29321 TIP3     1469     TIP3     OH2      OT      -0.834000       15.9994           0   0.00000       0.00000    
     29322 TIP3     1469     TIP3     H1       HT       0.417000       1.00800           0   0.00000       0.00000    
     29323 TIP3     1469     TIP3     H2       HT       0.417000       1.00800           0   0.00000     -0.301140E-02
     29324 TIP3     1470     TIP3     OH2      OT      -0.834000       15.9994           0   0.00000       0.00000    
     29325 TIP3     1470     TIP3     H1       HT       0.417000       1.00800           0   0.00000       0.00000    
     29326 TIP3     1470     TIP3     H2       HT       0.417000       1.00800           0   0.00000     -0.301140E-02
     29327 TIP3     1471     TIP3     OH2      OT      -0.834000       15.9994           0   0.00000       0.00000    
     29328 TIP3     1471     TIP3     H1       HT       0.417000       1.00800           0   0.00000       0.00000    
     29329 TIP3     1471     TIP3     H2       HT       0.417000       1.00800           0   0.00000     -0.301140E-02
     29330 TIP3     1472     TIP3     OH2      OT      -0.834000       15.9994           0   0.00000       0.00000    
     29331 TIP3     1472     TIP3     H1       HT       0.417000       1.00800           0   0.00000       0.00000    
     29332 TIP3     1472     TIP3     H2       HT       0.417000       1.00800           0   0.00000     -0.301140E-02
     29333 TIP3     1473     TIP3     OH2      OT      -0.834000       15.9994           0   0.00000       0.00000    
     29334 TIP3     1473     TIP3     H1       HT       0.417000       1.00800           0   0.00000       0.00000    
     29335 TIP3     1473     TIP3     H2       HT       0.417000       1.00800           0   0.00000     -0.301140E-02
     29336 TIP3     1474     TIP3     OH2      OT      -0.834000       15.9994           0   0.00000       0.00000    
     29337 TIP3     1474     TIP3     H1       HT       0.417000       1.00800           0   0.00000       0.00000    
     29338 TIP3     1474     TIP3     H2       HT       0.417000       1.00800           0   0.00000     -0.301140E-02
     29339 TIP3     1475     TIP3     OH2      OT      -0.834000       15.9994           0   0.00000       0.00000    
     29340 TIP3     1475     TIP3     H1       HT       0.417000       1.00800           0   0.00000       0.00000    
     29341 TIP3     1475     TIP3     H2       HT       0.417000       1.00800           0   0.00000     -0.301140E-02
     29342 TIP3     1476     TIP3     OH2      OT      -0.834000       15.9994           0   0.00000       0.00000    
     29343 TIP3     1476     TIP3     H1       HT       0.417000       1.00800           0   0.00000       0.00000    
     29344 TIP3     1476     TIP3     H2       HT       0.417000       1.00800           0   0.00000     -0.301140E-02
     29345 TIP3     1477     TIP3     OH2      OT      -0.834000       15.9994           0   0.00000       0.00000    
     29346 TIP3     1477     TIP3     H1       HT       0.417000       1.00800           0   0.00000       0.00000    
     29347 TIP3     1477     TIP3     H2       HT       0.417000       1.00800           0   0.00000     -0.301140E-02
     29348 TIP3     1478     TIP3     OH2      OT      -0.834000       15.9994           0   0.00000       0.00000    
     29349 TIP3     1478     TIP3     H1       HT       0.417000       1.00800           0   0.00000       0.00000    
     29350 TIP3     1478     TIP3     H2       HT       0.417000       1.00800           0   0.00000     -0.301140E-02
     29351 TIP3     1479     TIP3     OH2      OT      -0.834000       15.9994           0   0.00000       0.00000    
     29352 TIP3     1479     TIP3     H1       HT       0.417000       1.00800           0   0.00000       0.00000    
     29353 TIP3     1479     TIP3     H2       HT       0.417000       1.00800           0   0.00000     -0.301140E-02
     29354 TIP3     1480     TIP3     OH2      OT      -0.834000       15.9994           0   0.00000       0.00000    
     29355 TIP3     1480     TIP3     H1       HT       0.417000       1.00800           0   0.00000       0.00000    
     29356 TIP3     1480     TIP3     H2       HT       0.417000       1.00800           0   0.00000     -0.301140E-02
     29357 TIP3     1481     TIP3     OH2      OT      -0.834000       15.9994           0   0.00000       0.00000    
     29358 TIP3     1481     TIP3     H1       HT       0.417000       1.00800           0   0.00000       0.00000    
     29359 TIP3     1481     TIP3     H2       HT       0.417000       1.00800           0   0.00000     -0.301140E-02
     29360 TIP3     1482     TIP3     OH2      OT      -0.834000       15.9994           0   0.00000       0.00000    
     29361 TIP3     1482     TIP3     H1       HT       0.417000       1.00800           0   0.00000       0.00000    
     29362 TIP3     1482     TIP3     H2       HT       0.417000       1.00800           0   0.00000     -0.301140E-02
     29363 TIP3     1483     TIP3     OH2      OT      -0.834000       15.9994           0   0.00000       0.00000    
     29364 TIP3     1483     TIP3     H1       HT       0.417000       1.00800           0   0.00000       0.00000    
     29365 TIP3     1483     TIP3     H2       HT       0.417000       1.00800           0   0.00000     -0.301140E-02
     29366 TIP3     1484     TIP3     OH2      OT      -0.834000       15.9994           0   0.00000       0.00000    
     29367 TIP3     1484     TIP3     H1       HT       0.417000       1.00800           0   0.00000       0.00000    
     29368 TIP3     1484     TIP3     H2       HT       0.417000       1.00800           0   0.00000     -0.301140E-02
     29369 TIP3     1485     TIP3     OH2      OT      -0.834000       15.9994           0   0.00000       0.00000    
     29370 TIP3     1485     TIP3     H1       HT       0.417000       1.00800           0   0.00000       0.00000    
     29371 TIP3     1485     TIP3     H2       HT       0.417000       1.00800           0   0.00000     -0.301140E-02
     29372 TIP3     1486     TIP3     OH2      OT      -0.834000       15.9994           0   0.00000       0.00000    
     29373 TIP3     1486     TIP3     H1       HT       0.417000       1.00800           0   0.00000       0.00000    
     29374 TIP3     1486     TIP3     H2       HT       0.417000       1.00800           0   0.00000     -0.301140E-02
     29375 TIP3     1487     TIP3     OH2      OT      -0.834000       15.9994           0   0.00000       0.00000    
     29376 TIP3     1487     TIP3     H1       HT       0.417000       1.00800           0   0.00000       0.00000    
     29377 TIP3     1487     TIP3     H2       HT       0.417000       1.00800           0   0.00000     -0.301140E-02
     29378 TIP3     1488     TIP3     OH2      OT      -0.834000       15.9994           0   0.00000       0.00000    
     29379 TIP3     1488     TIP3     H1       HT       0.417000       1.00800           0   0.00000       0.00000    
     29380 TIP3     1488     TIP3     H2       HT       0.417000       1.00800           0   0.00000     -0.301140E-02
     29381 TIP3     1489     TIP3     OH2      OT      -0.834000       15.9994           0   0.00000       0.00000    
     29382 TIP3     1489     TIP3     H1       HT       0.417000       1.00800           0   0.00000       0.00000    
     29383 TIP3     1489     TIP3     H2       HT       0.417000       1.00800           0   0.00000     -0.301140E-02
     29384 TIP3     1490     TIP3     OH2      OT      -0.834000       15.9994           0   0.00000       0.00000    
     29385 TIP3     1490     TIP3     H1       HT       0.417000       1.00800           0   0.00000       0.00000    
     29386 TIP3     1490     TIP3     H2       HT       0.417000       1.00800           0   0.00000     -0.301140E-02
     29387 TIP3     1491     TIP3     OH2      OT      -0.834000       15.9994           0   0.00000       0.00000    
     29388 TIP3     1491     TIP3     H1       HT       0.417000       1.00800           0   0.00000       0.00000    
     29389 TIP3     1491     TIP3     H2       HT       0.417000       1.00800           0   0.00000     -0.301140E-02
     29390 TIP3     1492     TIP3     OH2      OT      -0.834000       15.9994           0   0.00000       0.00000    
     29391 TIP3     1492     TIP3     H1       HT       0.417000       1.00800           0   0.00000       0.00000    
     29392 TIP3     1492     TIP3     H2       HT       0.417000       1.00800           0   0.00000     -0.301140E-02
     29393 TIP3     1493     TIP3     OH2      OT      -0.834000       15.9994           0   0.00000       0.00000    
     29394 TIP3     1493     TIP3     H1       HT       0.417000       1.00800           0   0.00000       0.00000    
     29395 TIP3     1493     TIP3     H2       HT       0.417000       1.00800           0   0.00000     -0.301140E-02
     29396 TIP3     1494     TIP3     OH2      OT      -0.834000       15.9994           0   0.00000       0.00000    
     29397 TIP3     1494     TIP3     H1       HT       0.417000       1.00800           0   0.00000       0.00000    
     29398 TIP3     1494     TIP3     H2       HT       0.417000       1.00800           0   0.00000     -0.301140E-02
     29399 TIP3     1495     TIP3     OH2      OT      -0.834000       15.9994           0   0.00000       0.00000    
     29400 TIP3     1495     TIP3     H1       HT       0.417000       1.00800           0   0.00000       0.00000    
     29401 TIP3     1495     TIP3     H2       HT       0.417000       1.00800           0   0.00000     -0.301140E-02
     29402 TIP3     1496     TIP3     OH2      OT      -0.834000       15.9994           0   0.00000       0.00000    
     29403 TIP3     1496     TIP3     H1       HT       0.417000       1.00800           0   0.00000       0.00000    
     29404 TIP3     1496     TIP3     H2       HT       0.417000       1.00800           0   0.00000     -0.301140E-02
     29405 TIP3     1497     TIP3     OH2      OT      -0.834000       15.9994           0   0.00000       0.00000    
     29406 TIP3     1497     TIP3     H1       HT       0.417000       1.00800           0   0.00000       0.00000    
     29407 TIP3     1497     TIP3     H2       HT       0.417000       1.00800           0   0.00000     -0.301140E-02
     29408 TIP3     1498     TIP3     OH2      OT      -0.834000       15.9994           0   0.00000       0.00000    
     29409 TIP3     1498     TIP3     H1       HT       0.417000       1.00800           0   0.00000       0.00000    
     29410 TIP3     1498     TIP3     H2       HT       0.417000       1.00800           0   0.00000     -0.301140E-02
     29411 TIP3     1499     TIP3     OH2      OT      -0.834000       15.9994           0   0.00000       0.00000    
     29412 TIP3     1499     TIP3     H1       HT       0.417000       1.00800           0   0.00000       0.00000    
     29413 TIP3     1499     TIP3     H2       HT       0.417000       1.00800           0   0.00000     -0.301140E-02
     29414 TIP3     1500     TIP3     OH2      OT      -0.834000       15.9994           0   0.00000       0.00000    
     29415 TIP3     1500     TIP3     H1       HT       0.417000       1.00800           0   0.00000       0.00000    
     29416 TIP3     1500     TIP3     H2       HT       0.417000       1.00800           0   0.00000     -0.301140E-02
     29417 TIP3     1501     TIP3     OH2      OT      -0.834000       15.9994           0   0.00000       0.00000    
     29418 TIP3     1501     TIP3     H1       HT       0.417000       1.00800           0   0.00000       0.00000    
     29419 TIP3     1501     TIP3     H2       HT       0.417000       1.00800           0   0.00000     -0.301140E-02
     29420 TIP3     1502     TIP3     OH2      OT      -0.834000       15.9994           0   0.00000       0.00000    
     29421 TIP3     1502     TIP3     H1       HT       0.417000       1.00800           0   0.00000       0.00000    
     29422 TIP3     1502     TIP3     H2       HT       0.417000       1.00800           0   0.00000     -0.301140E-02
     29423 TIP3     1503     TIP3     OH2      OT      -0.834000       15.9994           0   0.00000       0.00000    
     29424 TIP3     1503     TIP3     H1       HT       0.417000       1.00800           0   0.00000       0.00000    
     29425 TIP3     1503     TIP3     H2       HT       0.417000       1.00800           0   0.00000     -0.301140E-02
     29426 TIP3     1504     TIP3     OH2      OT      -0.834000       15.9994           0   0.00000       0.00000    
     29427 TIP3     1504     TIP3     H1       HT       0.417000       1.00800           0   0.00000       0.00000    
     29428 TIP3     1504     TIP3     H2       HT       0.417000       1.00800           0   0.00000     -0.301140E-02
     29429 TIP3     1505     TIP3     OH2      OT      -0.834000       15.9994           0   0.00000       0.00000    
     29430 TIP3     1505     TIP3     H1       HT       0.417000       1.00800           0   0.00000       0.00000    
     29431 TIP3     1505     TIP3     H2       HT       0.417000       1.00800           0   0.00000     -0.301140E-02
     29432 TIP3     1506     TIP3     OH2      OT      -0.834000       15.9994           0   0.00000       0.00000    
     29433 TIP3     1506     TIP3     H1       HT       0.417000       1.00800           0   0.00000       0.00000    
     29434 TIP3     1506     TIP3     H2       HT       0.417000       1.00800           0   0.00000     -0.301140E-02
     29435 TIP3     1507     TIP3     OH2      OT      -0.834000       15.9994           0   0.00000       0.00000    
     29436 TIP3     1507     TIP3     H1       HT       0.417000       1.00800           0   0.00000       0.00000    
     29437 TIP3     1507     TIP3     H2       HT       0.417000       1.00800           0   0.00000     -0.301140E-02
     29438 TIP3     1508     TIP3     OH2      OT      -0.834000       15.9994           0   0.00000       0.00000    
     29439 TIP3     1508     TIP3     H1       HT       0.417000       1.00800           0   0.00000       0.00000    
     29440 TIP3     1508     TIP3     H2       HT       0.417000       1.00800           0   0.00000     -0.301140E-02
     29441 TIP3     1509     TIP3     OH2      OT      -0.834000       15.9994           0   0.00000       0.00000    
     29442 TIP3     1509     TIP3     H1       HT       0.417000       1.00800           0   0.00000       0.00000    
     29443 TIP3     1509     TIP3     H2       HT       0.417000       1.00800           0   0.00000     -0.301140E-02
     29444 TIP3     1510     TIP3     OH2      OT      -0.834000       15.9994           0   0.00000       0.00000    
     29445 TIP3     1510     TIP3     H1       HT       0.417000       1.00800           0   0.00000       0.00000    
     29446 TIP3     1510     TIP3     H2       HT       0.417000       1.00800           0   0.00000     -0.301140E-02
     29447 TIP3     1511     TIP3     OH2      OT      -0.834000       15.9994           0   0.00000       0.00000    
     29448 TIP3     1511     TIP3     H1       HT       0.417000       1.00800           0   0.00000       0.00000    
     29449 TIP3     1511     TIP3     H2       HT       0.417000       1.00800           0   0.00000     -0.301140E-02
     29450 TIP3     1512     TIP3     OH2      OT      -0.834000       15.9994           0   0.00000       0.00000    
     29451 TIP3     1512     TIP3     H1       HT       0.417000       1.00800           0   0.00000       0.00000    
     29452 TIP3     1512     TIP3     H2       HT       0.417000       1.00800           0   0.00000     -0.301140E-02
     29453 TIP3     1513     TIP3     OH2      OT      -0.834000       15.9994           0   0.00000       0.00000    
     29454 TIP3     1513     TIP3     H1       HT       0.417000       1.00800           0   0.00000       0.00000    
     29455 TIP3     1513     TIP3     H2       HT       0.417000       1.00800           0   0.00000     -0.301140E-02
     29456 TIP3     1514     TIP3     OH2      OT      -0.834000       15.9994           0   0.00000       0.00000    
     29457 TIP3     1514     TIP3     H1       HT       0.417000       1.00800           0   0.00000       0.00000    
     29458 TIP3     1514     TIP3     H2       HT       0.417000       1.00800           0   0.00000     -0.301140E-02
     29459 TIP3     1515     TIP3     OH2      OT      -0.834000       15.9994           0   0.00000       0.00000    
     29460 TIP3     1515     TIP3     H1       HT       0.417000       1.00800           0   0.00000       0.00000    
     29461 TIP3     1515     TIP3     H2       HT       0.417000       1.00800           0   0.00000     -0.301140E-02
     29462 TIP3     1516     TIP3     OH2      OT      -0.834000       15.9994           0   0.00000       0.00000    
     29463 TIP3     1516     TIP3     H1       HT       0.417000       1.00800           0   0.00000       0.00000    
     29464 TIP3     1516     TIP3     H2       HT       0.417000       1.00800           0   0.00000     -0.301140E-02
     29465 TIP3     1517     TIP3     OH2      OT      -0.834000       15.9994           0   0.00000       0.00000    
     29466 TIP3     1517     TIP3     H1       HT       0.417000       1.00800           0   0.00000       0.00000    
     29467 TIP3     1517     TIP3     H2       HT       0.417000       1.00800           0   0.00000     -0.301140E-02
     29468 TIP3     1518     TIP3     OH2      OT      -0.834000       15.9994           0   0.00000       0.00000    
     29469 TIP3     1518     TIP3     H1       HT       0.417000       1.00800           0   0.00000       0.00000    
     29470 TIP3     1518     TIP3     H2       HT       0.417000       1.00800           0   0.00000     -0.301140E-02
     29471 TIP3     1519     TIP3     OH2      OT      -0.834000       15.9994           0   0.00000       0.00000    
     29472 TIP3     1519     TIP3     H1       HT       0.417000       1.00800           0   0.00000       0.00000    
     29473 TIP3     1519     TIP3     H2       HT       0.417000       1.00800           0   0.00000     -0.301140E-02
     29474 TIP3     1520     TIP3     OH2      OT      -0.834000       15.9994           0   0.00000       0.00000    
     29475 TIP3     1520     TIP3     H1       HT       0.417000       1.00800           0   0.00000       0.00000    
     29476 TIP3     1520     TIP3     H2       HT       0.417000       1.00800           0   0.00000     -0.301140E-02
     29477 TIP3     1521     TIP3     OH2      OT      -0.834000       15.9994           0   0.00000       0.00000    
     29478 TIP3     1521     TIP3     H1       HT       0.417000       1.00800           0   0.00000       0.00000    
     29479 TIP3     1521     TIP3     H2       HT       0.417000       1.00800           0   0.00000     -0.301140E-02
     29480 TIP3     1522     TIP3     OH2      OT      -0.834000       15.9994           0   0.00000       0.00000    
     29481 TIP3     1522     TIP3     H1       HT       0.417000       1.00800           0   0.00000       0.00000    
     29482 TIP3     1522     TIP3     H2       HT       0.417000       1.00800           0   0.00000     -0.301140E-02
     29483 TIP3     1523     TIP3     OH2      OT      -0.834000       15.9994           0   0.00000       0.00000    
     29484 TIP3     1523     TIP3     H1       HT       0.417000       1.00800           0   0.00000       0.00000    
     29485 TIP3     1523     TIP3     H2       HT       0.417000       1.00800           0   0.00000     -0.301140E-02
     29486 TIP3     1524     TIP3     OH2      OT      -0.834000       15.9994           0   0.00000       0.00000    
     29487 TIP3     1524     TIP3     H1       HT       0.417000       1.00800           0   0.00000       0.00000    
     29488 TIP3     1524     TIP3     H2       HT       0.417000       1.00800           0   0.00000     -0.301140E-02
     29489 TIP3     1525     TIP3     OH2      OT      -0.834000       15.9994           0   0.00000       0.00000    
     29490 TIP3     1525     TIP3     H1       HT       0.417000       1.00800           0   0.00000       0.00000    
     29491 TIP3     1525     TIP3     H2       HT       0.417000       1.00800           0   0.00000     -0.301140E-02
     29492 TIP3     1526     TIP3     OH2      OT      -0.834000       15.9994           0   0.00000       0.00000    
     29493 TIP3     1526     TIP3     H1       HT       0.417000       1.00800           0   0.00000       0.00000    
     29494 TIP3     1526     TIP3     H2       HT       0.417000       1.00800           0   0.00000     -0.301140E-02
     29495 TIP3     1527     TIP3     OH2      OT      -0.834000       15.9994           0   0.00000       0.00000    
     29496 TIP3     1527     TIP3     H1       HT       0.417000       1.00800           0   0.00000       0.00000    
     29497 TIP3     1527     TIP3     H2       HT       0.417000       1.00800           0   0.00000     -0.301140E-02
     29498 TIP3     1528     TIP3     OH2      OT      -0.834000       15.9994           0   0.00000       0.00000    
     29499 TIP3     1528     TIP3     H1       HT       0.417000       1.00800           0   0.00000       0.00000    
     29500 TIP3     1528     TIP3     H2       HT       0.417000       1.00800           0   0.00000     -0.301140E-02
     29501 TIP3     1529     TIP3     OH2      OT      -0.834000       15.9994           0   0.00000       0.00000    
     29502 TIP3     1529     TIP3     H1       HT       0.417000       1.00800           0   0.00000       0.00000    
     29503 TIP3     1529     TIP3     H2       HT       0.417000       1.00800           0   0.00000     -0.301140E-02
     29504 TIP3     1530     TIP3     OH2      OT      -0.834000       15.9994           0   0.00000       0.00000    
     29505 TIP3     1530     TIP3     H1       HT       0.417000       1.00800           0   0.00000       0.00000    
     29506 TIP3     1530     TIP3     H2       HT       0.417000       1.00800           0   0.00000     -0.301140E-02
     29507 TIP3     1531     TIP3     OH2      OT      -0.834000       15.9994           0   0.00000       0.00000    
     29508 TIP3     1531     TIP3     H1       HT       0.417000       1.00800           0   0.00000       0.00000    
     29509 TIP3     1531     TIP3     H2       HT       0.417000       1.00800           0   0.00000     -0.301140E-02
     29510 TIP3     1532     TIP3     OH2      OT      -0.834000       15.9994           0   0.00000       0.00000    
     29511 TIP3     1532     TIP3     H1       HT       0.417000       1.00800           0   0.00000       0.00000    
     29512 TIP3     1532     TIP3     H2       HT       0.417000       1.00800           0   0.00000     -0.301140E-02
     29513 TIP3     1533     TIP3     OH2      OT      -0.834000       15.9994           0   0.00000       0.00000    
     29514 TIP3     1533     TIP3     H1       HT       0.417000       1.00800           0   0.00000       0.00000    
     29515 TIP3     1533     TIP3     H2       HT       0.417000       1.00800           0   0.00000     -0.301140E-02
     29516 TIP3     1534     TIP3     OH2      OT      -0.834000       15.9994           0   0.00000       0.00000    
     29517 TIP3     1534     TIP3     H1       HT       0.417000       1.00800           0   0.00000       0.00000    
     29518 TIP3     1534     TIP3     H2       HT       0.417000       1.00800           0   0.00000     -0.301140E-02
     29519 TIP3     1535     TIP3     OH2      OT      -0.834000       15.9994           0   0.00000       0.00000    
     29520 TIP3     1535     TIP3     H1       HT       0.417000       1.00800           0   0.00000       0.00000    
     29521 TIP3     1535     TIP3     H2       HT       0.417000       1.00800           0   0.00000     -0.301140E-02
     29522 TIP3     1536     TIP3     OH2      OT      -0.834000       15.9994           0   0.00000       0.00000    
     29523 TIP3     1536     TIP3     H1       HT       0.417000       1.00800           0   0.00000       0.00000    
     29524 TIP3     1536     TIP3     H2       HT       0.417000       1.00800           0   0.00000     -0.301140E-02
     29525 TIP3     1537     TIP3     OH2      OT      -0.834000       15.9994           0   0.00000       0.00000    
     29526 TIP3     1537     TIP3     H1       HT       0.417000       1.00800           0   0.00000       0.00000    
     29527 TIP3     1537     TIP3     H2       HT       0.417000       1.00800           0   0.00000     -0.301140E-02
     29528 TIP3     1538     TIP3     OH2      OT      -0.834000       15.9994           0   0.00000       0.00000    
     29529 TIP3     1538     TIP3     H1       HT       0.417000       1.00800           0   0.00000       0.00000    
     29530 TIP3     1538     TIP3     H2       HT       0.417000       1.00800           0   0.00000     -0.301140E-02
     29531 TIP3     1539     TIP3     OH2      OT      -0.834000       15.9994           0   0.00000       0.00000    
     29532 TIP3     1539     TIP3     H1       HT       0.417000       1.00800           0   0.00000       0.00000    
     29533 TIP3     1539     TIP3     H2       HT       0.417000       1.00800           0   0.00000     -0.301140E-02
     29534 TIP3     1540     TIP3     OH2      OT      -0.834000       15.9994           0   0.00000       0.00000    
     29535 TIP3     1540     TIP3     H1       HT       0.417000       1.00800           0   0.00000       0.00000    
     29536 TIP3     1540     TIP3     H2       HT       0.417000       1.00800           0   0.00000     -0.301140E-02
     29537 TIP3     1541     TIP3     OH2      OT      -0.834000       15.9994           0   0.00000       0.00000    
     29538 TIP3     1541     TIP3     H1       HT       0.417000       1.00800           0   0.00000       0.00000    
     29539 TIP3     1541     TIP3     H2       HT       0.417000       1.00800           0   0.00000     -0.301140E-02
     29540 TIP3     1542     TIP3     OH2      OT      -0.834000       15.9994           0   0.00000       0.00000    
     29541 TIP3     1542     TIP3     H1       HT       0.417000       1.00800           0   0.00000       0.00000    
     29542 TIP3     1542     TIP3     H2       HT       0.417000       1.00800           0   0.00000     -0.301140E-02
     29543 TIP3     1543     TIP3     OH2      OT      -0.834000       15.9994           0   0.00000       0.00000    
     29544 TIP3     1543     TIP3     H1       HT       0.417000       1.00800           0   0.00000       0.00000    
     29545 TIP3     1543     TIP3     H2       HT       0.417000       1.00800           0   0.00000     -0.301140E-02
     29546 TIP3     1544     TIP3     OH2      OT      -0.834000       15.9994           0   0.00000       0.00000    
     29547 TIP3     1544     TIP3     H1       HT       0.417000       1.00800           0   0.00000       0.00000    
     29548 TIP3     1544     TIP3     H2       HT       0.417000       1.00800           0   0.00000     -0.301140E-02
     29549 TIP3     1545     TIP3     OH2      OT      -0.834000       15.9994           0   0.00000       0.00000    
     29550 TIP3     1545     TIP3     H1       HT       0.417000       1.00800           0   0.00000       0.00000    
     29551 TIP3     1545     TIP3     H2       HT       0.417000       1.00800           0   0.00000     -0.301140E-02
     29552 TIP3     1546     TIP3     OH2      OT      -0.834000       15.9994           0   0.00000       0.00000    
     29553 TIP3     1546     TIP3     H1       HT       0.417000       1.00800           0   0.00000       0.00000    
     29554 TIP3     1546     TIP3     H2       HT       0.417000       1.00800           0   0.00000     -0.301140E-02
     29555 TIP3     1547     TIP3     OH2      OT      -0.834000       15.9994           0   0.00000       0.00000    
     29556 TIP3     1547     TIP3     H1       HT       0.417000       1.00800           0   0.00000       0.00000    
     29557 TIP3     1547     TIP3     H2       HT       0.417000       1.00800           0   0.00000     -0.301140E-02
     29558 TIP3     1548     TIP3     OH2      OT      -0.834000       15.9994           0   0.00000       0.00000    
     29559 TIP3     1548     TIP3     H1       HT       0.417000       1.00800           0   0.00000       0.00000    
     29560 TIP3     1548     TIP3     H2       HT       0.417000       1.00800           0   0.00000     -0.301140E-02
     29561 TIP3     1549     TIP3     OH2      OT      -0.834000       15.9994           0   0.00000       0.00000    
     29562 TIP3     1549     TIP3     H1       HT       0.417000       1.00800           0   0.00000       0.00000    
     29563 TIP3     1549     TIP3     H2       HT       0.417000       1.00800           0   0.00000     -0.301140E-02
     29564 TIP3     1550     TIP3     OH2      OT      -0.834000       15.9994           0   0.00000       0.00000    
     29565 TIP3     1550     TIP3     H1       HT       0.417000       1.00800           0   0.00000       0.00000    
     29566 TIP3     1550     TIP3     H2       HT       0.417000       1.00800           0   0.00000     -0.301140E-02
     29567 TIP3     1551     TIP3     OH2      OT      -0.834000       15.9994           0   0.00000       0.00000    
     29568 TIP3     1551     TIP3     H1       HT       0.417000       1.00800           0   0.00000       0.00000    
     29569 TIP3     1551     TIP3     H2       HT       0.417000       1.00800           0   0.00000     -0.301140E-02
     29570 TIP3     1552     TIP3     OH2      OT      -0.834000       15.9994           0   0.00000       0.00000    
     29571 TIP3     1552     TIP3     H1       HT       0.417000       1.00800           0   0.00000       0.00000    
     29572 TIP3     1552     TIP3     H2       HT       0.417000       1.00800           0   0.00000     -0.301140E-02
     29573 TIP3     1553     TIP3     OH2      OT      -0.834000       15.9994           0   0.00000       0.00000    
     29574 TIP3     1553     TIP3     H1       HT       0.417000       1.00800           0   0.00000       0.00000    
     29575 TIP3     1553     TIP3     H2       HT       0.417000       1.00800           0   0.00000     -0.301140E-02
     29576 TIP3     1554     TIP3     OH2      OT      -0.834000       15.9994           0   0.00000       0.00000    
     29577 TIP3     1554     TIP3     H1       HT       0.417000       1.00800           0   0.00000       0.00000    
     29578 TIP3     1554     TIP3     H2       HT       0.417000       1.00800           0   0.00000     -0.301140E-02
     29579 TIP3     1555     TIP3     OH2      OT      -0.834000       15.9994           0   0.00000       0.00000    
     29580 TIP3     1555     TIP3     H1       HT       0.417000       1.00800           0   0.00000       0.00000    
     29581 TIP3     1555     TIP3     H2       HT       0.417000       1.00800           0   0.00000     -0.301140E-02
     29582 TIP3     1556     TIP3     OH2      OT      -0.834000       15.9994           0   0.00000       0.00000    
     29583 TIP3     1556     TIP3     H1       HT       0.417000       1.00800           0   0.00000       0.00000    
     29584 TIP3     1556     TIP3     H2       HT       0.417000       1.00800           0   0.00000     -0.301140E-02
     29585 TIP3     1557     TIP3     OH2      OT      -0.834000       15.9994           0   0.00000       0.00000    
     29586 TIP3     1557     TIP3     H1       HT       0.417000       1.00800           0   0.00000       0.00000    
     29587 TIP3     1557     TIP3     H2       HT       0.417000       1.00800           0   0.00000     -0.301140E-02
     29588 TIP3     1558     TIP3     OH2      OT      -0.834000       15.9994           0   0.00000       0.00000    
     29589 TIP3     1558     TIP3     H1       HT       0.417000       1.00800           0   0.00000       0.00000    
     29590 TIP3     1558     TIP3     H2       HT       0.417000       1.00800           0   0.00000     -0.301140E-02
     29591 TIP3     1559     TIP3     OH2      OT      -0.834000       15.9994           0   0.00000       0.00000    
     29592 TIP3     1559     TIP3     H1       HT       0.417000       1.00800           0   0.00000       0.00000    
     29593 TIP3     1559     TIP3     H2       HT       0.417000       1.00800           0   0.00000     -0.301140E-02
     29594 TIP3     1560     TIP3     OH2      OT      -0.834000       15.9994           0   0.00000       0.00000    
     29595 TIP3     1560     TIP3     H1       HT       0.417000       1.00800           0   0.00000       0.00000    
     29596 TIP3     1560     TIP3     H2       HT       0.417000       1.00800           0   0.00000     -0.301140E-02
     29597 TIP3     1561     TIP3     OH2      OT      -0.834000       15.9994           0   0.00000       0.00000    
     29598 TIP3     1561     TIP3     H1       HT       0.417000       1.00800           0   0.00000       0.00000    
     29599 TIP3     1561     TIP3     H2       HT       0.417000       1.00800           0   0.00000     -0.301140E-02
     29600 TIP3     1562     TIP3     OH2      OT      -0.834000       15.9994           0   0.00000       0.00000    
     29601 TIP3     1562     TIP3     H1       HT       0.417000       1.00800           0   0.00000       0.00000    
     29602 TIP3     1562     TIP3     H2       HT       0.417000       1.00800           0   0.00000     -0.301140E-02
     29603 TIP3     1563     TIP3     OH2      OT      -0.834000       15.9994           0   0.00000       0.00000    
     29604 TIP3     1563     TIP3     H1       HT       0.417000       1.00800           0   0.00000       0.00000    
     29605 TIP3     1563     TIP3     H2       HT       0.417000       1.00800           0   0.00000     -0.301140E-02
     29606 TIP3     1564     TIP3     OH2      OT      -0.834000       15.9994           0   0.00000       0.00000    
     29607 TIP3     1564     TIP3     H1       HT       0.417000       1.00800           0   0.00000       0.00000    
     29608 TIP3     1564     TIP3     H2       HT       0.417000       1.00800           0   0.00000     -0.301140E-02
     29609 TIP3     1565     TIP3     OH2      OT      -0.834000       15.9994           0   0.00000       0.00000    
     29610 TIP3     1565     TIP3     H1       HT       0.417000       1.00800           0   0.00000       0.00000    
     29611 TIP3     1565     TIP3     H2       HT       0.417000       1.00800           0   0.00000     -0.301140E-02
     29612 TIP3     1566     TIP3     OH2      OT      -0.834000       15.9994           0   0.00000       0.00000    
     29613 TIP3     1566     TIP3     H1       HT       0.417000       1.00800           0   0.00000       0.00000    
     29614 TIP3     1566     TIP3     H2       HT       0.417000       1.00800           0   0.00000     -0.301140E-02
     29615 TIP3     1567     TIP3     OH2      OT      -0.834000       15.9994           0   0.00000       0.00000    
     29616 TIP3     1567     TIP3     H1       HT       0.417000       1.00800           0   0.00000       0.00000    
     29617 TIP3     1567     TIP3     H2       HT       0.417000       1.00800           0   0.00000     -0.301140E-02
     29618 TIP3     1568     TIP3     OH2      OT      -0.834000       15.9994           0   0.00000       0.00000    
     29619 TIP3     1568     TIP3     H1       HT       0.417000       1.00800           0   0.00000       0.00000    
     29620 TIP3     1568     TIP3     H2       HT       0.417000       1.00800           0   0.00000     -0.301140E-02
     29621 TIP3     1569     TIP3     OH2      OT      -0.834000       15.9994           0   0.00000       0.00000    
     29622 TIP3     1569     TIP3     H1       HT       0.417000       1.00800           0   0.00000       0.00000    
     29623 TIP3     1569     TIP3     H2       HT       0.417000       1.00800           0   0.00000     -0.301140E-02
     29624 TIP3     1570     TIP3     OH2      OT      -0.834000       15.9994           0   0.00000       0.00000    
     29625 TIP3     1570     TIP3     H1       HT       0.417000       1.00800           0   0.00000       0.00000    
     29626 TIP3     1570     TIP3     H2       HT       0.417000       1.00800           0   0.00000     -0.301140E-02
     29627 TIP3     1571     TIP3     OH2      OT      -0.834000       15.9994           0   0.00000       0.00000    
     29628 TIP3     1571     TIP3     H1       HT       0.417000       1.00800           0   0.00000       0.00000    
     29629 TIP3     1571     TIP3     H2       HT       0.417000       1.00800           0   0.00000     -0.301140E-02
     29630 TIP3     1572     TIP3     OH2      OT      -0.834000       15.9994           0   0.00000       0.00000    
     29631 TIP3     1572     TIP3     H1       HT       0.417000       1.00800           0   0.00000       0.00000    
     29632 TIP3     1572     TIP3     H2       HT       0.417000       1.00800           0   0.00000     -0.301140E-02
     29633 TIP3     1573     TIP3     OH2      OT      -0.834000       15.9994           0   0.00000       0.00000    
     29634 TIP3     1573     TIP3     H1       HT       0.417000       1.00800           0   0.00000       0.00000    
     29635 TIP3     1573     TIP3     H2       HT       0.417000       1.00800           0   0.00000     -0.301140E-02
     29636 TIP3     1574     TIP3     OH2      OT      -0.834000       15.9994           0   0.00000       0.00000    
     29637 TIP3     1574     TIP3     H1       HT       0.417000       1.00800           0   0.00000       0.00000    
     29638 TIP3     1574     TIP3     H2       HT       0.417000       1.00800           0   0.00000     -0.301140E-02
     29639 TIP3     1575     TIP3     OH2      OT      -0.834000       15.9994           0   0.00000       0.00000    
     29640 TIP3     1575     TIP3     H1       HT       0.417000       1.00800           0   0.00000       0.00000    
     29641 TIP3     1575     TIP3     H2       HT       0.417000       1.00800           0   0.00000     -0.301140E-02
     29642 TIP3     1576     TIP3     OH2      OT      -0.834000       15.9994           0   0.00000       0.00000    
     29643 TIP3     1576     TIP3     H1       HT       0.417000       1.00800           0   0.00000       0.00000    
     29644 TIP3     1576     TIP3     H2       HT       0.417000       1.00800           0   0.00000     -0.301140E-02
     29645 TIP3     1577     TIP3     OH2      OT      -0.834000       15.9994           0   0.00000       0.00000    
     29646 TIP3     1577     TIP3     H1       HT       0.417000       1.00800           0   0.00000       0.00000    
     29647 TIP3     1577     TIP3     H2       HT       0.417000       1.00800           0   0.00000     -0.301140E-02
     29648 TIP3     1578     TIP3     OH2      OT      -0.834000       15.9994           0   0.00000       0.00000    
     29649 TIP3     1578     TIP3     H1       HT       0.417000       1.00800           0   0.00000       0.00000    
     29650 TIP3     1578     TIP3     H2       HT       0.417000       1.00800           0   0.00000     -0.301140E-02
     29651 TIP3     1579     TIP3     OH2      OT      -0.834000       15.9994           0   0.00000       0.00000    
     29652 TIP3     1579     TIP3     H1       HT       0.417000       1.00800           0   0.00000       0.00000    
     29653 TIP3     1579     TIP3     H2       HT       0.417000       1.00800           0   0.00000     -0.301140E-02
     29654 TIP3     1580     TIP3     OH2      OT      -0.834000       15.9994           0   0.00000       0.00000    
     29655 TIP3     1580     TIP3     H1       HT       0.417000       1.00800           0   0.00000       0.00000    
     29656 TIP3     1580     TIP3     H2       HT       0.417000       1.00800           0   0.00000     -0.301140E-02
     29657 TIP3     1581     TIP3     OH2      OT      -0.834000       15.9994           0   0.00000       0.00000    
     29658 TIP3     1581     TIP3     H1       HT       0.417000       1.00800           0   0.00000       0.00000    
     29659 TIP3     1581     TIP3     H2       HT       0.417000       1.00800           0   0.00000     -0.301140E-02
     29660 TIP3     1582     TIP3     OH2      OT      -0.834000       15.9994           0   0.00000       0.00000    
     29661 TIP3     1582     TIP3     H1       HT       0.417000       1.00800           0   0.00000       0.00000    
     29662 TIP3     1582     TIP3     H2       HT       0.417000       1.00800           0   0.00000     -0.301140E-02
     29663 TIP3     1583     TIP3     OH2      OT      -0.834000       15.9994           0   0.00000       0.00000    
     29664 TIP3     1583     TIP3     H1       HT       0.417000       1.00800           0   0.00000       0.00000    
     29665 TIP3     1583     TIP3     H2       HT       0.417000       1.00800           0   0.00000     -0.301140E-02
     29666 TIP3     1584     TIP3     OH2      OT      -0.834000       15.9994           0   0.00000       0.00000    
     29667 TIP3     1584     TIP3     H1       HT       0.417000       1.00800           0   0.00000       0.00000    
     29668 TIP3     1584     TIP3     H2       HT       0.417000       1.00800           0   0.00000     -0.301140E-02
     29669 TIP3     1585     TIP3     OH2      OT      -0.834000       15.9994           0   0.00000       0.00000    
     29670 TIP3     1585     TIP3     H1       HT       0.417000       1.00800           0   0.00000       0.00000    
     29671 TIP3     1585     TIP3     H2       HT       0.417000       1.00800           0   0.00000     -0.301140E-02
     29672 TIP3     1586     TIP3     OH2      OT      -0.834000       15.9994           0   0.00000       0.00000    
     29673 TIP3     1586     TIP3     H1       HT       0.417000       1.00800           0   0.00000       0.00000    
     29674 TIP3     1586     TIP3     H2       HT       0.417000       1.00800           0   0.00000     -0.301140E-02
     29675 TIP3     1587     TIP3     OH2      OT      -0.834000       15.9994           0   0.00000       0.00000    
     29676 TIP3     1587     TIP3     H1       HT       0.417000       1.00800           0   0.00000       0.00000    
     29677 TIP3     1587     TIP3     H2       HT       0.417000       1.00800           0   0.00000     -0.301140E-02
     29678 TIP3     1588     TIP3     OH2      OT      -0.834000       15.9994           0   0.00000       0.00000    
     29679 TIP3     1588     TIP3     H1       HT       0.417000       1.00800           0   0.00000       0.00000    
     29680 TIP3     1588     TIP3     H2       HT       0.417000       1.00800           0   0.00000     -0.301140E-02
     29681 TIP3     1589     TIP3     OH2      OT      -0.834000       15.9994           0   0.00000       0.00000    
     29682 TIP3     1589     TIP3     H1       HT       0.417000       1.00800           0   0.00000       0.00000    
     29683 TIP3     1589     TIP3     H2       HT       0.417000       1.00800           0   0.00000     -0.301140E-02
     29684 TIP3     1590     TIP3     OH2      OT      -0.834000       15.9994           0   0.00000       0.00000    
     29685 TIP3     1590     TIP3     H1       HT       0.417000       1.00800           0   0.00000       0.00000    
     29686 TIP3     1590     TIP3     H2       HT       0.417000       1.00800           0   0.00000     -0.301140E-02
     29687 TIP3     1591     TIP3     OH2      OT      -0.834000       15.9994           0   0.00000       0.00000    
     29688 TIP3     1591     TIP3     H1       HT       0.417000       1.00800           0   0.00000       0.00000    
     29689 TIP3     1591     TIP3     H2       HT       0.417000       1.00800           0   0.00000     -0.301140E-02
     29690 TIP3     1592     TIP3     OH2      OT      -0.834000       15.9994           0   0.00000       0.00000    
     29691 TIP3     1592     TIP3     H1       HT       0.417000       1.00800           0   0.00000       0.00000    
     29692 TIP3     1592     TIP3     H2       HT       0.417000       1.00800           0   0.00000     -0.301140E-02
     29693 TIP3     1593     TIP3     OH2      OT      -0.834000       15.9994           0   0.00000       0.00000    
     29694 TIP3     1593     TIP3     H1       HT       0.417000       1.00800           0   0.00000       0.00000    
     29695 TIP3     1593     TIP3     H2       HT       0.417000       1.00800           0   0.00000     -0.301140E-02
     29696 TIP3     1594     TIP3     OH2      OT      -0.834000       15.9994           0   0.00000       0.00000    
     29697 TIP3     1594     TIP3     H1       HT       0.417000       1.00800           0   0.00000       0.00000    
     29698 TIP3     1594     TIP3     H2       HT       0.417000       1.00800           0   0.00000     -0.301140E-02
     29699 TIP3     1595     TIP3     OH2      OT      -0.834000       15.9994           0   0.00000       0.00000    
     29700 TIP3     1595     TIP3     H1       HT       0.417000       1.00800           0   0.00000       0.00000    
     29701 TIP3     1595     TIP3     H2       HT       0.417000       1.00800           0   0.00000     -0.301140E-02
     29702 TIP3     1596     TIP3     OH2      OT      -0.834000       15.9994           0   0.00000       0.00000    
     29703 TIP3     1596     TIP3     H1       HT       0.417000       1.00800           0   0.00000       0.00000    
     29704 TIP3     1596     TIP3     H2       HT       0.417000       1.00800           0   0.00000     -0.301140E-02
     29705 TIP3     1597     TIP3     OH2      OT      -0.834000       15.9994           0   0.00000       0.00000    
     29706 TIP3     1597     TIP3     H1       HT       0.417000       1.00800           0   0.00000       0.00000    
     29707 TIP3     1597     TIP3     H2       HT       0.417000       1.00800           0   0.00000     -0.301140E-02
     29708 TIP3     1598     TIP3     OH2      OT      -0.834000       15.9994           0   0.00000       0.00000    
     29709 TIP3     1598     TIP3     H1       HT       0.417000       1.00800           0   0.00000       0.00000    
     29710 TIP3     1598     TIP3     H2       HT       0.417000       1.00800           0   0.00000     -0.301140E-02
     29711 TIP3     1599     TIP3     OH2      OT      -0.834000       15.9994           0   0.00000       0.00000    
     29712 TIP3     1599     TIP3     H1       HT       0.417000       1.00800           0   0.00000       0.00000    
     29713 TIP3     1599     TIP3     H2       HT       0.417000       1.00800           0   0.00000     -0.301140E-02
     29714 TIP3     1600     TIP3     OH2      OT      -0.834000       15.9994           0   0.00000       0.00000    
     29715 TIP3     1600     TIP3     H1       HT       0.417000       1.00800           0   0.00000       0.00000    
     29716 TIP3     1600     TIP3     H2       HT       0.417000       1.00800           0   0.00000     -0.301140E-02
     29717 TIP3     1601     TIP3     OH2      OT      -0.834000       15.9994           0   0.00000       0.00000    
     29718 TIP3     1601     TIP3     H1       HT       0.417000       1.00800           0   0.00000       0.00000    
     29719 TIP3     1601     TIP3     H2       HT       0.417000       1.00800           0   0.00000     -0.301140E-02
     29720 TIP3     1602     TIP3     OH2      OT      -0.834000       15.9994           0   0.00000       0.00000    
     29721 TIP3     1602     TIP3     H1       HT       0.417000       1.00800           0   0.00000       0.00000    
     29722 TIP3     1602     TIP3     H2       HT       0.417000       1.00800           0   0.00000     -0.301140E-02
     29723 TIP3     1603     TIP3     OH2      OT      -0.834000       15.9994           0   0.00000       0.00000    
     29724 TIP3     1603     TIP3     H1       HT       0.417000       1.00800           0   0.00000       0.00000    
     29725 TIP3     1603     TIP3     H2       HT       0.417000       1.00800           0   0.00000     -0.301140E-02
     29726 TIP3     1604     TIP3     OH2      OT      -0.834000       15.9994           0   0.00000       0.00000    
     29727 TIP3     1604     TIP3     H1       HT       0.417000       1.00800           0   0.00000       0.00000    
     29728 TIP3     1604     TIP3     H2       HT       0.417000       1.00800           0   0.00000     -0.301140E-02
     29729 TIP3     1605     TIP3     OH2      OT      -0.834000       15.9994           0   0.00000       0.00000    
     29730 TIP3     1605     TIP3     H1       HT       0.417000       1.00800           0   0.00000       0.00000    
     29731 TIP3     1605     TIP3     H2       HT       0.417000       1.00800           0   0.00000     -0.301140E-02
     29732 TIP3     1606     TIP3     OH2      OT      -0.834000       15.9994           0   0.00000       0.00000    
     29733 TIP3     1606     TIP3     H1       HT       0.417000       1.00800           0   0.00000       0.00000    
     29734 TIP3     1606     TIP3     H2       HT       0.417000       1.00800           0   0.00000     -0.301140E-02
     29735 TIP3     1607     TIP3     OH2      OT      -0.834000       15.9994           0   0.00000       0.00000    
     29736 TIP3     1607     TIP3     H1       HT       0.417000       1.00800           0   0.00000       0.00000    
     29737 TIP3     1607     TIP3     H2       HT       0.417000       1.00800           0   0.00000     -0.301140E-02
     29738 TIP3     1608     TIP3     OH2      OT      -0.834000       15.9994           0   0.00000       0.00000    
     29739 TIP3     1608     TIP3     H1       HT       0.417000       1.00800           0   0.00000       0.00000    
     29740 TIP3     1608     TIP3     H2       HT       0.417000       1.00800           0   0.00000     -0.301140E-02
     29741 TIP3     1609     TIP3     OH2      OT      -0.834000       15.9994           0   0.00000       0.00000    
     29742 TIP3     1609     TIP3     H1       HT       0.417000       1.00800           0   0.00000       0.00000    
     29743 TIP3     1609     TIP3     H2       HT       0.417000       1.00800           0   0.00000     -0.301140E-02
     29744 TIP3     1610     TIP3     OH2      OT      -0.834000       15.9994           0   0.00000       0.00000    
     29745 TIP3     1610     TIP3     H1       HT       0.417000       1.00800           0   0.00000       0.00000    
     29746 TIP3     1610     TIP3     H2       HT       0.417000       1.00800           0   0.00000     -0.301140E-02
     29747 TIP3     1611     TIP3     OH2      OT      -0.834000       15.9994           0   0.00000       0.00000    
     29748 TIP3     1611     TIP3     H1       HT       0.417000       1.00800           0   0.00000       0.00000    
     29749 TIP3     1611     TIP3     H2       HT       0.417000       1.00800           0   0.00000     -0.301140E-02
     29750 TIP3     1612     TIP3     OH2      OT      -0.834000       15.9994           0   0.00000       0.00000    
     29751 TIP3     1612     TIP3     H1       HT       0.417000       1.00800           0   0.00000       0.00000    
     29752 TIP3     1612     TIP3     H2       HT       0.417000       1.00800           0   0.00000     -0.301140E-02
     29753 TIP3     1613     TIP3     OH2      OT      -0.834000       15.9994           0   0.00000       0.00000    
     29754 TIP3     1613     TIP3     H1       HT       0.417000       1.00800           0   0.00000       0.00000    
     29755 TIP3     1613     TIP3     H2       HT       0.417000       1.00800           0   0.00000     -0.301140E-02
     29756 TIP3     1614     TIP3     OH2      OT      -0.834000       15.9994           0   0.00000       0.00000    
     29757 TIP3     1614     TIP3     H1       HT       0.417000       1.00800           0   0.00000       0.00000    
     29758 TIP3     1614     TIP3     H2       HT       0.417000       1.00800           0   0.00000     -0.301140E-02
     29759 TIP3     1615     TIP3     OH2      OT      -0.834000       15.9994           0   0.00000       0.00000    
     29760 TIP3     1615     TIP3     H1       HT       0.417000       1.00800           0   0.00000       0.00000    
     29761 TIP3     1615     TIP3     H2       HT       0.417000       1.00800           0   0.00000     -0.301140E-02
     29762 TIP3     1616     TIP3     OH2      OT      -0.834000       15.9994           0   0.00000       0.00000    
     29763 TIP3     1616     TIP3     H1       HT       0.417000       1.00800           0   0.00000       0.00000    
     29764 TIP3     1616     TIP3     H2       HT       0.417000       1.00800           0   0.00000     -0.301140E-02
     29765 TIP3     1617     TIP3     OH2      OT      -0.834000       15.9994           0   0.00000       0.00000    
     29766 TIP3     1617     TIP3     H1       HT       0.417000       1.00800           0   0.00000       0.00000    
     29767 TIP3     1617     TIP3     H2       HT       0.417000       1.00800           0   0.00000     -0.301140E-02
     29768 TIP3     1618     TIP3     OH2      OT      -0.834000       15.9994           0   0.00000       0.00000    
     29769 TIP3     1618     TIP3     H1       HT       0.417000       1.00800           0   0.00000       0.00000    
     29770 TIP3     1618     TIP3     H2       HT       0.417000       1.00800           0   0.00000     -0.301140E-02
     29771 TIP3     1619     TIP3     OH2      OT      -0.834000       15.9994           0   0.00000       0.00000    
     29772 TIP3     1619     TIP3     H1       HT       0.417000       1.00800           0   0.00000       0.00000    
     29773 TIP3     1619     TIP3     H2       HT       0.417000       1.00800           0   0.00000     -0.301140E-02
     29774 TIP3     1620     TIP3     OH2      OT      -0.834000       15.9994           0   0.00000       0.00000    
     29775 TIP3     1620     TIP3     H1       HT       0.417000       1.00800           0   0.00000       0.00000    
     29776 TIP3     1620     TIP3     H2       HT       0.417000       1.00800           0   0.00000     -0.301140E-02
     29777 TIP3     1621     TIP3     OH2      OT      -0.834000       15.9994           0   0.00000       0.00000    
     29778 TIP3     1621     TIP3     H1       HT       0.417000       1.00800           0   0.00000       0.00000    
     29779 TIP3     1621     TIP3     H2       HT       0.417000       1.00800           0   0.00000     -0.301140E-02
     29780 TIP3     1622     TIP3     OH2      OT      -0.834000       15.9994           0   0.00000       0.00000    
     29781 TIP3     1622     TIP3     H1       HT       0.417000       1.00800           0   0.00000       0.00000    
     29782 TIP3     1622     TIP3     H2       HT       0.417000       1.00800           0   0.00000     -0.301140E-02
     29783 TIP3     1623     TIP3     OH2      OT      -0.834000       15.9994           0   0.00000       0.00000    
     29784 TIP3     1623     TIP3     H1       HT       0.417000       1.00800           0   0.00000       0.00000    
     29785 TIP3     1623     TIP3     H2       HT       0.417000       1.00800           0   0.00000     -0.301140E-02
     29786 TIP3     1624     TIP3     OH2      OT      -0.834000       15.9994           0   0.00000       0.00000    
     29787 TIP3     1624     TIP3     H1       HT       0.417000       1.00800           0   0.00000       0.00000    
     29788 TIP3     1624     TIP3     H2       HT       0.417000       1.00800           0   0.00000     -0.301140E-02
     29789 TIP3     1625     TIP3     OH2      OT      -0.834000       15.9994           0   0.00000       0.00000    
     29790 TIP3     1625     TIP3     H1       HT       0.417000       1.00800           0   0.00000       0.00000    
     29791 TIP3     1625     TIP3     H2       HT       0.417000       1.00800           0   0.00000     -0.301140E-02
     29792 TIP3     1626     TIP3     OH2      OT      -0.834000       15.9994           0   0.00000       0.00000    
     29793 TIP3     1626     TIP3     H1       HT       0.417000       1.00800           0   0.00000       0.00000    
     29794 TIP3     1626     TIP3     H2       HT       0.417000       1.00800           0   0.00000     -0.301140E-02
     29795 TIP3     1627     TIP3     OH2      OT      -0.834000       15.9994           0   0.00000       0.00000    
     29796 TIP3     1627     TIP3     H1       HT       0.417000       1.00800           0   0.00000       0.00000    
     29797 TIP3     1627     TIP3     H2       HT       0.417000       1.00800           0   0.00000     -0.301140E-02
     29798 TIP3     1628     TIP3     OH2      OT      -0.834000       15.9994           0   0.00000       0.00000    
     29799 TIP3     1628     TIP3     H1       HT       0.417000       1.00800           0   0.00000       0.00000    
     29800 TIP3     1628     TIP3     H2       HT       0.417000       1.00800           0   0.00000     -0.301140E-02
     29801 TIP3     1629     TIP3     OH2      OT      -0.834000       15.9994           0   0.00000       0.00000    
     29802 TIP3     1629     TIP3     H1       HT       0.417000       1.00800           0   0.00000       0.00000    
     29803 TIP3     1629     TIP3     H2       HT       0.417000       1.00800           0   0.00000     -0.301140E-02
     29804 TIP3     1630     TIP3     OH2      OT      -0.834000       15.9994           0   0.00000       0.00000    
     29805 TIP3     1630     TIP3     H1       HT       0.417000       1.00800           0   0.00000       0.00000    
     29806 TIP3     1630     TIP3     H2       HT       0.417000       1.00800           0   0.00000     -0.301140E-02
     29807 TIP3     1631     TIP3     OH2      OT      -0.834000       15.9994           0   0.00000       0.00000    
     29808 TIP3     1631     TIP3     H1       HT       0.417000       1.00800           0   0.00000       0.00000    
     29809 TIP3     1631     TIP3     H2       HT       0.417000       1.00800           0   0.00000     -0.301140E-02
     29810 TIP3     1632     TIP3     OH2      OT      -0.834000       15.9994           0   0.00000       0.00000    
     29811 TIP3     1632     TIP3     H1       HT       0.417000       1.00800           0   0.00000       0.00000    
     29812 TIP3     1632     TIP3     H2       HT       0.417000       1.00800           0   0.00000     -0.301140E-02
     29813 TIP3     1633     TIP3     OH2      OT      -0.834000       15.9994           0   0.00000       0.00000    
     29814 TIP3     1633     TIP3     H1       HT       0.417000       1.00800           0   0.00000       0.00000    
     29815 TIP3     1633     TIP3     H2       HT       0.417000       1.00800           0   0.00000     -0.301140E-02
     29816 TIP3     1634     TIP3     OH2      OT      -0.834000       15.9994           0   0.00000       0.00000    
     29817 TIP3     1634     TIP3     H1       HT       0.417000       1.00800           0   0.00000       0.00000    
     29818 TIP3     1634     TIP3     H2       HT       0.417000       1.00800           0   0.00000     -0.301140E-02
     29819 TIP3     1635     TIP3     OH2      OT      -0.834000       15.9994           0   0.00000       0.00000    
     29820 TIP3     1635     TIP3     H1       HT       0.417000       1.00800           0   0.00000       0.00000    
     29821 TIP3     1635     TIP3     H2       HT       0.417000       1.00800           0   0.00000     -0.301140E-02
     29822 TIP3     1636     TIP3     OH2      OT      -0.834000       15.9994           0   0.00000       0.00000    
     29823 TIP3     1636     TIP3     H1       HT       0.417000       1.00800           0   0.00000       0.00000    
     29824 TIP3     1636     TIP3     H2       HT       0.417000       1.00800           0   0.00000     -0.301140E-02
     29825 TIP3     1637     TIP3     OH2      OT      -0.834000       15.9994           0   0.00000       0.00000    
     29826 TIP3     1637     TIP3     H1       HT       0.417000       1.00800           0   0.00000       0.00000    
     29827 TIP3     1637     TIP3     H2       HT       0.417000       1.00800           0   0.00000     -0.301140E-02
     29828 TIP3     1638     TIP3     OH2      OT      -0.834000       15.9994           0   0.00000       0.00000    
     29829 TIP3     1638     TIP3     H1       HT       0.417000       1.00800           0   0.00000       0.00000    
     29830 TIP3     1638     TIP3     H2       HT       0.417000       1.00800           0   0.00000     -0.301140E-02
     29831 TIP3     1639     TIP3     OH2      OT      -0.834000       15.9994           0   0.00000       0.00000    
     29832 TIP3     1639     TIP3     H1       HT       0.417000       1.00800           0   0.00000       0.00000    
     29833 TIP3     1639     TIP3     H2       HT       0.417000       1.00800           0   0.00000     -0.301140E-02
     29834 TIP3     1640     TIP3     OH2      OT      -0.834000       15.9994           0   0.00000       0.00000    
     29835 TIP3     1640     TIP3     H1       HT       0.417000       1.00800           0   0.00000       0.00000    
     29836 TIP3     1640     TIP3     H2       HT       0.417000       1.00800           0   0.00000     -0.301140E-02
     29837 TIP3     1641     TIP3     OH2      OT      -0.834000       15.9994           0   0.00000       0.00000    
     29838 TIP3     1641     TIP3     H1       HT       0.417000       1.00800           0   0.00000       0.00000    
     29839 TIP3     1641     TIP3     H2       HT       0.417000       1.00800           0   0.00000     -0.301140E-02
     29840 TIP3     1642     TIP3     OH2      OT      -0.834000       15.9994           0   0.00000       0.00000    
     29841 TIP3     1642     TIP3     H1       HT       0.417000       1.00800           0   0.00000       0.00000    
     29842 TIP3     1642     TIP3     H2       HT       0.417000       1.00800           0   0.00000     -0.301140E-02
     29843 TIP3     1643     TIP3     OH2      OT      -0.834000       15.9994           0   0.00000       0.00000    
     29844 TIP3     1643     TIP3     H1       HT       0.417000       1.00800           0   0.00000       0.00000    
     29845 TIP3     1643     TIP3     H2       HT       0.417000       1.00800           0   0.00000     -0.301140E-02
     29846 TIP3     1644     TIP3     OH2      OT      -0.834000       15.9994           0   0.00000       0.00000    
     29847 TIP3     1644     TIP3     H1       HT       0.417000       1.00800           0   0.00000       0.00000    
     29848 TIP3     1644     TIP3     H2       HT       0.417000       1.00800           0   0.00000     -0.301140E-02
     29849 TIP3     1645     TIP3     OH2      OT      -0.834000       15.9994           0   0.00000       0.00000    
     29850 TIP3     1645     TIP3     H1       HT       0.417000       1.00800           0   0.00000       0.00000    
     29851 TIP3     1645     TIP3     H2       HT       0.417000       1.00800           0   0.00000     -0.301140E-02
     29852 TIP3     1646     TIP3     OH2      OT      -0.834000       15.9994           0   0.00000       0.00000    
     29853 TIP3     1646     TIP3     H1       HT       0.417000       1.00800           0   0.00000       0.00000    
     29854 TIP3     1646     TIP3     H2       HT       0.417000       1.00800           0   0.00000     -0.301140E-02
     29855 TIP3     1647     TIP3     OH2      OT      -0.834000       15.9994           0   0.00000       0.00000    
     29856 TIP3     1647     TIP3     H1       HT       0.417000       1.00800           0   0.00000       0.00000    
     29857 TIP3     1647     TIP3     H2       HT       0.417000       1.00800           0   0.00000     -0.301140E-02
     29858 TIP3     1648     TIP3     OH2      OT      -0.834000       15.9994           0   0.00000       0.00000    
     29859 TIP3     1648     TIP3     H1       HT       0.417000       1.00800           0   0.00000       0.00000    
     29860 TIP3     1648     TIP3     H2       HT       0.417000       1.00800           0   0.00000     -0.301140E-02
     29861 TIP3     1649     TIP3     OH2      OT      -0.834000       15.9994           0   0.00000       0.00000    
     29862 TIP3     1649     TIP3     H1       HT       0.417000       1.00800           0   0.00000       0.00000    
     29863 TIP3     1649     TIP3     H2       HT       0.417000       1.00800           0   0.00000     -0.301140E-02
     29864 TIP3     1650     TIP3     OH2      OT      -0.834000       15.9994           0   0.00000       0.00000    
     29865 TIP3     1650     TIP3     H1       HT       0.417000       1.00800           0   0.00000       0.00000    
     29866 TIP3     1650     TIP3     H2       HT       0.417000       1.00800           0   0.00000     -0.301140E-02
     29867 TIP3     1651     TIP3     OH2      OT      -0.834000       15.9994           0   0.00000       0.00000    
     29868 TIP3     1651     TIP3     H1       HT       0.417000       1.00800           0   0.00000       0.00000    
     29869 TIP3     1651     TIP3     H2       HT       0.417000       1.00800           0   0.00000     -0.301140E-02
     29870 TIP3     1652     TIP3     OH2      OT      -0.834000       15.9994           0   0.00000       0.00000    
     29871 TIP3     1652     TIP3     H1       HT       0.417000       1.00800           0   0.00000       0.00000    
     29872 TIP3     1652     TIP3     H2       HT       0.417000       1.00800           0   0.00000     -0.301140E-02
     29873 TIP3     1653     TIP3     OH2      OT      -0.834000       15.9994           0   0.00000       0.00000    
     29874 TIP3     1653     TIP3     H1       HT       0.417000       1.00800           0   0.00000       0.00000    
     29875 TIP3     1653     TIP3     H2       HT       0.417000       1.00800           0   0.00000     -0.301140E-02
     29876 TIP3     1654     TIP3     OH2      OT      -0.834000       15.9994           0   0.00000       0.00000    
     29877 TIP3     1654     TIP3     H1       HT       0.417000       1.00800           0   0.00000       0.00000    
     29878 TIP3     1654     TIP3     H2       HT       0.417000       1.00800           0   0.00000     -0.301140E-02
     29879 TIP3     1655     TIP3     OH2      OT      -0.834000       15.9994           0   0.00000       0.00000    
     29880 TIP3     1655     TIP3     H1       HT       0.417000       1.00800           0   0.00000       0.00000    
     29881 TIP3     1655     TIP3     H2       HT       0.417000       1.00800           0   0.00000     -0.301140E-02
     29882 TIP3     1656     TIP3     OH2      OT      -0.834000       15.9994           0   0.00000       0.00000    
     29883 TIP3     1656     TIP3     H1       HT       0.417000       1.00800           0   0.00000       0.00000    
     29884 TIP3     1656     TIP3     H2       HT       0.417000       1.00800           0   0.00000     -0.301140E-02
     29885 TIP3     1657     TIP3     OH2      OT      -0.834000       15.9994           0   0.00000       0.00000    
     29886 TIP3     1657     TIP3     H1       HT       0.417000       1.00800           0   0.00000       0.00000    
     29887 TIP3     1657     TIP3     H2       HT       0.417000       1.00800           0   0.00000     -0.301140E-02
     29888 TIP3     1658     TIP3     OH2      OT      -0.834000       15.9994           0   0.00000       0.00000    
     29889 TIP3     1658     TIP3     H1       HT       0.417000       1.00800           0   0.00000       0.00000    
     29890 TIP3     1658     TIP3     H2       HT       0.417000       1.00800           0   0.00000     -0.301140E-02
     29891 TIP3     1659     TIP3     OH2      OT      -0.834000       15.9994           0   0.00000       0.00000    
     29892 TIP3     1659     TIP3     H1       HT       0.417000       1.00800           0   0.00000       0.00000    
     29893 TIP3     1659     TIP3     H2       HT       0.417000       1.00800           0   0.00000     -0.301140E-02
     29894 TIP3     1660     TIP3     OH2      OT      -0.834000       15.9994           0   0.00000       0.00000    
     29895 TIP3     1660     TIP3     H1       HT       0.417000       1.00800           0   0.00000       0.00000    
     29896 TIP3     1660     TIP3     H2       HT       0.417000       1.00800           0   0.00000     -0.301140E-02
     29897 TIP3     1661     TIP3     OH2      OT      -0.834000       15.9994           0   0.00000       0.00000    
     29898 TIP3     1661     TIP3     H1       HT       0.417000       1.00800           0   0.00000       0.00000    
     29899 TIP3     1661     TIP3     H2       HT       0.417000       1.00800           0   0.00000     -0.301140E-02
     29900 TIP3     1662     TIP3     OH2      OT      -0.834000       15.9994           0   0.00000       0.00000    
     29901 TIP3     1662     TIP3     H1       HT       0.417000       1.00800           0   0.00000       0.00000    
     29902 TIP3     1662     TIP3     H2       HT       0.417000       1.00800           0   0.00000     -0.301140E-02
     29903 TIP3     1663     TIP3     OH2      OT      -0.834000       15.9994           0   0.00000       0.00000    
     29904 TIP3     1663     TIP3     H1       HT       0.417000       1.00800           0   0.00000       0.00000    
     29905 TIP3     1663     TIP3     H2       HT       0.417000       1.00800           0   0.00000     -0.301140E-02
     29906 TIP3     1664     TIP3     OH2      OT      -0.834000       15.9994           0   0.00000       0.00000    
     29907 TIP3     1664     TIP3     H1       HT       0.417000       1.00800           0   0.00000       0.00000    
     29908 TIP3     1664     TIP3     H2       HT       0.417000       1.00800           0   0.00000     -0.301140E-02
     29909 TIP3     1665     TIP3     OH2      OT      -0.834000       15.9994           0   0.00000       0.00000    
     29910 TIP3     1665     TIP3     H1       HT       0.417000       1.00800           0   0.00000       0.00000    
     29911 TIP3     1665     TIP3     H2       HT       0.417000       1.00800           0   0.00000     -0.301140E-02
     29912 TIP3     1666     TIP3     OH2      OT      -0.834000       15.9994           0   0.00000       0.00000    
     29913 TIP3     1666     TIP3     H1       HT       0.417000       1.00800           0   0.00000       0.00000    
     29914 TIP3     1666     TIP3     H2       HT       0.417000       1.00800           0   0.00000     -0.301140E-02
     29915 TIP3     1667     TIP3     OH2      OT      -0.834000       15.9994           0   0.00000       0.00000    
     29916 TIP3     1667     TIP3     H1       HT       0.417000       1.00800           0   0.00000       0.00000    
     29917 TIP3     1667     TIP3     H2       HT       0.417000       1.00800           0   0.00000     -0.301140E-02
     29918 TIP3     1668     TIP3     OH2      OT      -0.834000       15.9994           0   0.00000       0.00000    
     29919 TIP3     1668     TIP3     H1       HT       0.417000       1.00800           0   0.00000       0.00000    
     29920 TIP3     1668     TIP3     H2       HT       0.417000       1.00800           0   0.00000     -0.301140E-02
     29921 TIP3     1669     TIP3     OH2      OT      -0.834000       15.9994           0   0.00000       0.00000    
     29922 TIP3     1669     TIP3     H1       HT       0.417000       1.00800           0   0.00000       0.00000    
     29923 TIP3     1669     TIP3     H2       HT       0.417000       1.00800           0   0.00000     -0.301140E-02
     29924 TIP3     1670     TIP3     OH2      OT      -0.834000       15.9994           0   0.00000       0.00000    
     29925 TIP3     1670     TIP3     H1       HT       0.417000       1.00800           0   0.00000       0.00000    
     29926 TIP3     1670     TIP3     H2       HT       0.417000       1.00800           0   0.00000     -0.301140E-02
     29927 TIP3     1671     TIP3     OH2      OT      -0.834000       15.9994           0   0.00000       0.00000    
     29928 TIP3     1671     TIP3     H1       HT       0.417000       1.00800           0   0.00000       0.00000    
     29929 TIP3     1671     TIP3     H2       HT       0.417000       1.00800           0   0.00000     -0.301140E-02
     29930 TIP3     1672     TIP3     OH2      OT      -0.834000       15.9994           0   0.00000       0.00000    
     29931 TIP3     1672     TIP3     H1       HT       0.417000       1.00800           0   0.00000       0.00000    
     29932 TIP3     1672     TIP3     H2       HT       0.417000       1.00800           0   0.00000     -0.301140E-02
     29933 TIP3     1673     TIP3     OH2      OT      -0.834000       15.9994           0   0.00000       0.00000    
     29934 TIP3     1673     TIP3     H1       HT       0.417000       1.00800           0   0.00000       0.00000    
     29935 TIP3     1673     TIP3     H2       HT       0.417000       1.00800           0   0.00000     -0.301140E-02
     29936 TIP3     1674     TIP3     OH2      OT      -0.834000       15.9994           0   0.00000       0.00000    
     29937 TIP3     1674     TIP3     H1       HT       0.417000       1.00800           0   0.00000       0.00000    
     29938 TIP3     1674     TIP3     H2       HT       0.417000       1.00800           0   0.00000     -0.301140E-02
     29939 TIP3     1675     TIP3     OH2      OT      -0.834000       15.9994           0   0.00000       0.00000    
     29940 TIP3     1675     TIP3     H1       HT       0.417000       1.00800           0   0.00000       0.00000    
     29941 TIP3     1675     TIP3     H2       HT       0.417000       1.00800           0   0.00000     -0.301140E-02
     29942 TIP3     1676     TIP3     OH2      OT      -0.834000       15.9994           0   0.00000       0.00000    
     29943 TIP3     1676     TIP3     H1       HT       0.417000       1.00800           0   0.00000       0.00000    
     29944 TIP3     1676     TIP3     H2       HT       0.417000       1.00800           0   0.00000     -0.301140E-02
     29945 TIP3     1677     TIP3     OH2      OT      -0.834000       15.9994           0   0.00000       0.00000    
     29946 TIP3     1677     TIP3     H1       HT       0.417000       1.00800           0   0.00000       0.00000    
     29947 TIP3     1677     TIP3     H2       HT       0.417000       1.00800           0   0.00000     -0.301140E-02
     29948 TIP3     1678     TIP3     OH2      OT      -0.834000       15.9994           0   0.00000       0.00000    
     29949 TIP3     1678     TIP3     H1       HT       0.417000       1.00800           0   0.00000       0.00000    
     29950 TIP3     1678     TIP3     H2       HT       0.417000       1.00800           0   0.00000     -0.301140E-02
     29951 TIP3     1679     TIP3     OH2      OT      -0.834000       15.9994           0   0.00000       0.00000    
     29952 TIP3     1679     TIP3     H1       HT       0.417000       1.00800           0   0.00000       0.00000    
     29953 TIP3     1679     TIP3     H2       HT       0.417000       1.00800           0   0.00000     -0.301140E-02
     29954 TIP3     1680     TIP3     OH2      OT      -0.834000       15.9994           0   0.00000       0.00000    
     29955 TIP3     1680     TIP3     H1       HT       0.417000       1.00800           0   0.00000       0.00000    
     29956 TIP3     1680     TIP3     H2       HT       0.417000       1.00800           0   0.00000     -0.301140E-02
     29957 TIP3     1681     TIP3     OH2      OT      -0.834000       15.9994           0   0.00000       0.00000    
     29958 TIP3     1681     TIP3     H1       HT       0.417000       1.00800           0   0.00000       0.00000    
     29959 TIP3     1681     TIP3     H2       HT       0.417000       1.00800           0   0.00000     -0.301140E-02
     29960 TIP3     1682     TIP3     OH2      OT      -0.834000       15.9994           0   0.00000       0.00000    
     29961 TIP3     1682     TIP3     H1       HT       0.417000       1.00800           0   0.00000       0.00000    
     29962 TIP3     1682     TIP3     H2       HT       0.417000       1.00800           0   0.00000     -0.301140E-02
     29963 TIP3     1683     TIP3     OH2      OT      -0.834000       15.9994           0   0.00000       0.00000    
     29964 TIP3     1683     TIP3     H1       HT       0.417000       1.00800           0   0.00000       0.00000    
     29965 TIP3     1683     TIP3     H2       HT       0.417000       1.00800           0   0.00000     -0.301140E-02
     29966 TIP3     1684     TIP3     OH2      OT      -0.834000       15.9994           0   0.00000       0.00000    
     29967 TIP3     1684     TIP3     H1       HT       0.417000       1.00800           0   0.00000       0.00000    
     29968 TIP3     1684     TIP3     H2       HT       0.417000       1.00800           0   0.00000     -0.301140E-02
     29969 TIP3     1685     TIP3     OH2      OT      -0.834000       15.9994           0   0.00000       0.00000    
     29970 TIP3     1685     TIP3     H1       HT       0.417000       1.00800           0   0.00000       0.00000    
     29971 TIP3     1685     TIP3     H2       HT       0.417000       1.00800           0   0.00000     -0.301140E-02
     29972 TIP3     1686     TIP3     OH2      OT      -0.834000       15.9994           0   0.00000       0.00000    
     29973 TIP3     1686     TIP3     H1       HT       0.417000       1.00800           0   0.00000       0.00000    
     29974 TIP3     1686     TIP3     H2       HT       0.417000       1.00800           0   0.00000     -0.301140E-02
     29975 TIP3     1687     TIP3     OH2      OT      -0.834000       15.9994           0   0.00000       0.00000    
     29976 TIP3     1687     TIP3     H1       HT       0.417000       1.00800           0   0.00000       0.00000    
     29977 TIP3     1687     TIP3     H2       HT       0.417000       1.00800           0   0.00000     -0.301140E-02
     29978 TIP3     1688     TIP3     OH2      OT      -0.834000       15.9994           0   0.00000       0.00000    
     29979 TIP3     1688     TIP3     H1       HT       0.417000       1.00800           0   0.00000       0.00000    
     29980 TIP3     1688     TIP3     H2       HT       0.417000       1.00800           0   0.00000     -0.301140E-02
     29981 TIP3     1689     TIP3     OH2      OT      -0.834000       15.9994           0   0.00000       0.00000    
     29982 TIP3     1689     TIP3     H1       HT       0.417000       1.00800           0   0.00000       0.00000    
     29983 TIP3     1689     TIP3     H2       HT       0.417000       1.00800           0   0.00000     -0.301140E-02
     29984 TIP3     1690     TIP3     OH2      OT      -0.834000       15.9994           0   0.00000       0.00000    
     29985 TIP3     1690     TIP3     H1       HT       0.417000       1.00800           0   0.00000       0.00000    
     29986 TIP3     1690     TIP3     H2       HT       0.417000       1.00800           0   0.00000     -0.301140E-02
     29987 TIP3     1691     TIP3     OH2      OT      -0.834000       15.9994           0   0.00000       0.00000    
     29988 TIP3     1691     TIP3     H1       HT       0.417000       1.00800           0   0.00000       0.00000    
     29989 TIP3     1691     TIP3     H2       HT       0.417000       1.00800           0   0.00000     -0.301140E-02
     29990 TIP3     1692     TIP3     OH2      OT      -0.834000       15.9994           0   0.00000       0.00000    
     29991 TIP3     1692     TIP3     H1       HT       0.417000       1.00800           0   0.00000       0.00000    
     29992 TIP3     1692     TIP3     H2       HT       0.417000       1.00800           0   0.00000     -0.301140E-02
     29993 TIP3     1693     TIP3     OH2      OT      -0.834000       15.9994           0   0.00000       0.00000    
     29994 TIP3     1693     TIP3     H1       HT       0.417000       1.00800           0   0.00000       0.00000    
     29995 TIP3     1693     TIP3     H2       HT       0.417000       1.00800           0   0.00000     -0.301140E-02
     29996 TIP3     1694     TIP3     OH2      OT      -0.834000       15.9994           0   0.00000       0.00000    
     29997 TIP3     1694     TIP3     H1       HT       0.417000       1.00800           0   0.00000       0.00000    
     29998 TIP3     1694     TIP3     H2       HT       0.417000       1.00800           0   0.00000     -0.301140E-02
     29999 TIP3     1695     TIP3     OH2      OT      -0.834000       15.9994           0   0.00000       0.00000    
     30000 TIP3     1695     TIP3     H1       HT       0.417000       1.00800           0   0.00000       0.00000    
     30001 TIP3     1695     TIP3     H2       HT       0.417000       1.00800           0   0.00000     -0.301140E-02
     30002 TIP3     1696     TIP3     OH2      OT      -0.834000       15.9994           0   0.00000       0.00000    
     30003 TIP3     1696     TIP3     H1       HT       0.417000       1.00800           0   0.00000       0.00000    
     30004 TIP3     1696     TIP3     H2       HT       0.417000       1.00800           0   0.00000     -0.301140E-02
     30005 TIP3     1697     TIP3     OH2      OT      -0.834000       15.9994           0   0.00000       0.00000    
     30006 TIP3     1697     TIP3     H1       HT       0.417000       1.00800           0   0.00000       0.00000    
     30007 TIP3     1697     TIP3     H2       HT       0.417000       1.00800           0   0.00000     -0.301140E-02
     30008 TIP3     1698     TIP3     OH2      OT      -0.834000       15.9994           0   0.00000       0.00000    
     30009 TIP3     1698     TIP3     H1       HT       0.417000       1.00800           0   0.00000       0.00000    
     30010 TIP3     1698     TIP3     H2       HT       0.417000       1.00800           0   0.00000     -0.301140E-02
     30011 TIP3     1699     TIP3     OH2      OT      -0.834000       15.9994           0   0.00000       0.00000    
     30012 TIP3     1699     TIP3     H1       HT       0.417000       1.00800           0   0.00000       0.00000    
     30013 TIP3     1699     TIP3     H2       HT       0.417000       1.00800           0   0.00000     -0.301140E-02
     30014 TIP3     1700     TIP3     OH2      OT      -0.834000       15.9994           0   0.00000       0.00000    
     30015 TIP3     1700     TIP3     H1       HT       0.417000       1.00800           0   0.00000       0.00000    
     30016 TIP3     1700     TIP3     H2       HT       0.417000       1.00800           0   0.00000     -0.301140E-02
     30017 TIP3     1701     TIP3     OH2      OT      -0.834000       15.9994           0   0.00000       0.00000    
     30018 TIP3     1701     TIP3     H1       HT       0.417000       1.00800           0   0.00000       0.00000    
     30019 TIP3     1701     TIP3     H2       HT       0.417000       1.00800           0   0.00000     -0.301140E-02
     30020 TIP3     1702     TIP3     OH2      OT      -0.834000       15.9994           0   0.00000       0.00000    
     30021 TIP3     1702     TIP3     H1       HT       0.417000       1.00800           0   0.00000       0.00000    
     30022 TIP3     1702     TIP3     H2       HT       0.417000       1.00800           0   0.00000     -0.301140E-02
     30023 TIP3     1703     TIP3     OH2      OT      -0.834000       15.9994           0   0.00000       0.00000    
     30024 TIP3     1703     TIP3     H1       HT       0.417000       1.00800           0   0.00000       0.00000    
     30025 TIP3     1703     TIP3     H2       HT       0.417000       1.00800           0   0.00000     -0.301140E-02
     30026 TIP3     1704     TIP3     OH2      OT      -0.834000       15.9994           0   0.00000       0.00000    
     30027 TIP3     1704     TIP3     H1       HT       0.417000       1.00800           0   0.00000       0.00000    
     30028 TIP3     1704     TIP3     H2       HT       0.417000       1.00800           0   0.00000     -0.301140E-02
     30029 TIP3     1705     TIP3     OH2      OT      -0.834000       15.9994           0   0.00000       0.00000    
     30030 TIP3     1705     TIP3     H1       HT       0.417000       1.00800           0   0.00000       0.00000    
     30031 TIP3     1705     TIP3     H2       HT       0.417000       1.00800           0   0.00000     -0.301140E-02
     30032 TIP3     1706     TIP3     OH2      OT      -0.834000       15.9994           0   0.00000       0.00000    
     30033 TIP3     1706     TIP3     H1       HT       0.417000       1.00800           0   0.00000       0.00000    
     30034 TIP3     1706     TIP3     H2       HT       0.417000       1.00800           0   0.00000     -0.301140E-02
     30035 TIP3     1707     TIP3     OH2      OT      -0.834000       15.9994           0   0.00000       0.00000    
     30036 TIP3     1707     TIP3     H1       HT       0.417000       1.00800           0   0.00000       0.00000    
     30037 TIP3     1707     TIP3     H2       HT       0.417000       1.00800           0   0.00000     -0.301140E-02
     30038 TIP3     1708     TIP3     OH2      OT      -0.834000       15.9994           0   0.00000       0.00000    
     30039 TIP3     1708     TIP3     H1       HT       0.417000       1.00800           0   0.00000       0.00000    
     30040 TIP3     1708     TIP3     H2       HT       0.417000       1.00800           0   0.00000     -0.301140E-02
     30041 TIP3     1709     TIP3     OH2      OT      -0.834000       15.9994           0   0.00000       0.00000    
     30042 TIP3     1709     TIP3     H1       HT       0.417000       1.00800           0   0.00000       0.00000    
     30043 TIP3     1709     TIP3     H2       HT       0.417000       1.00800           0   0.00000     -0.301140E-02
     30044 TIP3     1710     TIP3     OH2      OT      -0.834000       15.9994           0   0.00000       0.00000    
     30045 TIP3     1710     TIP3     H1       HT       0.417000       1.00800           0   0.00000       0.00000    
     30046 TIP3     1710     TIP3     H2       HT       0.417000       1.00800           0   0.00000     -0.301140E-02
     30047 TIP3     1711     TIP3     OH2      OT      -0.834000       15.9994           0   0.00000       0.00000    
     30048 TIP3     1711     TIP3     H1       HT       0.417000       1.00800           0   0.00000       0.00000    
     30049 TIP3     1711     TIP3     H2       HT       0.417000       1.00800           0   0.00000     -0.301140E-02
     30050 TIP3     1712     TIP3     OH2      OT      -0.834000       15.9994           0   0.00000       0.00000    
     30051 TIP3     1712     TIP3     H1       HT       0.417000       1.00800           0   0.00000       0.00000    
     30052 TIP3     1712     TIP3     H2       HT       0.417000       1.00800           0   0.00000     -0.301140E-02
     30053 TIP3     1713     TIP3     OH2      OT      -0.834000       15.9994           0   0.00000       0.00000    
     30054 TIP3     1713     TIP3     H1       HT       0.417000       1.00800           0   0.00000       0.00000    
     30055 TIP3     1713     TIP3     H2       HT       0.417000       1.00800           0   0.00000     -0.301140E-02
     30056 TIP3     1714     TIP3     OH2      OT      -0.834000       15.9994           0   0.00000       0.00000    
     30057 TIP3     1714     TIP3     H1       HT       0.417000       1.00800           0   0.00000       0.00000    
     30058 TIP3     1714     TIP3     H2       HT       0.417000       1.00800           0   0.00000     -0.301140E-02
     30059 TIP3     1715     TIP3     OH2      OT      -0.834000       15.9994           0   0.00000       0.00000    
     30060 TIP3     1715     TIP3     H1       HT       0.417000       1.00800           0   0.00000       0.00000    
     30061 TIP3     1715     TIP3     H2       HT       0.417000       1.00800           0   0.00000     -0.301140E-02
     30062 TIP3     1716     TIP3     OH2      OT      -0.834000       15.9994           0   0.00000       0.00000    
     30063 TIP3     1716     TIP3     H1       HT       0.417000       1.00800           0   0.00000       0.00000    
     30064 TIP3     1716     TIP3     H2       HT       0.417000       1.00800           0   0.00000     -0.301140E-02
     30065 TIP3     1717     TIP3     OH2      OT      -0.834000       15.9994           0   0.00000       0.00000    
     30066 TIP3     1717     TIP3     H1       HT       0.417000       1.00800           0   0.00000       0.00000    
     30067 TIP3     1717     TIP3     H2       HT       0.417000       1.00800           0   0.00000     -0.301140E-02
     30068 TIP3     1718     TIP3     OH2      OT      -0.834000       15.9994           0   0.00000       0.00000    
     30069 TIP3     1718     TIP3     H1       HT       0.417000       1.00800           0   0.00000       0.00000    
     30070 TIP3     1718     TIP3     H2       HT       0.417000       1.00800           0   0.00000     -0.301140E-02
     30071 TIP3     1719     TIP3     OH2      OT      -0.834000       15.9994           0   0.00000       0.00000    
     30072 TIP3     1719     TIP3     H1       HT       0.417000       1.00800           0   0.00000       0.00000    
     30073 TIP3     1719     TIP3     H2       HT       0.417000       1.00800           0   0.00000     -0.301140E-02
     30074 TIP3     1720     TIP3     OH2      OT      -0.834000       15.9994           0   0.00000       0.00000    
     30075 TIP3     1720     TIP3     H1       HT       0.417000       1.00800           0   0.00000       0.00000    
     30076 TIP3     1720     TIP3     H2       HT       0.417000       1.00800           0   0.00000     -0.301140E-02
     30077 TIP3     1721     TIP3     OH2      OT      -0.834000       15.9994           0   0.00000       0.00000    
     30078 TIP3     1721     TIP3     H1       HT       0.417000       1.00800           0   0.00000       0.00000    
     30079 TIP3     1721     TIP3     H2       HT       0.417000       1.00800           0   0.00000     -0.301140E-02
     30080 TIP3     1722     TIP3     OH2      OT      -0.834000       15.9994           0   0.00000       0.00000    
     30081 TIP3     1722     TIP3     H1       HT       0.417000       1.00800           0   0.00000       0.00000    
     30082 TIP3     1722     TIP3     H2       HT       0.417000       1.00800           0   0.00000     -0.301140E-02
     30083 TIP3     1723     TIP3     OH2      OT      -0.834000       15.9994           0   0.00000       0.00000    
     30084 TIP3     1723     TIP3     H1       HT       0.417000       1.00800           0   0.00000       0.00000    
     30085 TIP3     1723     TIP3     H2       HT       0.417000       1.00800           0   0.00000     -0.301140E-02
     30086 TIP3     1724     TIP3     OH2      OT      -0.834000       15.9994           0   0.00000       0.00000    
     30087 TIP3     1724     TIP3     H1       HT       0.417000       1.00800           0   0.00000       0.00000    
     30088 TIP3     1724     TIP3     H2       HT       0.417000       1.00800           0   0.00000     -0.301140E-02
     30089 TIP3     1725     TIP3     OH2      OT      -0.834000       15.9994           0   0.00000       0.00000    
     30090 TIP3     1725     TIP3     H1       HT       0.417000       1.00800           0   0.00000       0.00000    
     30091 TIP3     1725     TIP3     H2       HT       0.417000       1.00800           0   0.00000     -0.301140E-02
     30092 TIP3     1726     TIP3     OH2      OT      -0.834000       15.9994           0   0.00000       0.00000    
     30093 TIP3     1726     TIP3     H1       HT       0.417000       1.00800           0   0.00000       0.00000    
     30094 TIP3     1726     TIP3     H2       HT       0.417000       1.00800           0   0.00000     -0.301140E-02
     30095 TIP3     1727     TIP3     OH2      OT      -0.834000       15.9994           0   0.00000       0.00000    
     30096 TIP3     1727     TIP3     H1       HT       0.417000       1.00800           0   0.00000       0.00000    
     30097 TIP3     1727     TIP3     H2       HT       0.417000       1.00800           0   0.00000     -0.301140E-02
     30098 TIP3     1728     TIP3     OH2      OT      -0.834000       15.9994           0   0.00000       0.00000    
     30099 TIP3     1728     TIP3     H1       HT       0.417000       1.00800           0   0.00000       0.00000    
     30100 TIP3     1728     TIP3     H2       HT       0.417000       1.00800           0   0.00000     -0.301140E-02
     30101 TIP3     1729     TIP3     OH2      OT      -0.834000       15.9994           0   0.00000       0.00000    
     30102 TIP3     1729     TIP3     H1       HT       0.417000       1.00800           0   0.00000       0.00000    
     30103 TIP3     1729     TIP3     H2       HT       0.417000       1.00800           0   0.00000     -0.301140E-02
     30104 TIP3     1730     TIP3     OH2      OT      -0.834000       15.9994           0   0.00000       0.00000    
     30105 TIP3     1730     TIP3     H1       HT       0.417000       1.00800           0   0.00000       0.00000    
     30106 TIP3     1730     TIP3     H2       HT       0.417000       1.00800           0   0.00000     -0.301140E-02
     30107 TIP3     1731     TIP3     OH2      OT      -0.834000       15.9994           0   0.00000       0.00000    
     30108 TIP3     1731     TIP3     H1       HT       0.417000       1.00800           0   0.00000       0.00000    
     30109 TIP3     1731     TIP3     H2       HT       0.417000       1.00800           0   0.00000     -0.301140E-02
     30110 TIP3     1732     TIP3     OH2      OT      -0.834000       15.9994           0   0.00000       0.00000    
     30111 TIP3     1732     TIP3     H1       HT       0.417000       1.00800           0   0.00000       0.00000    
     30112 TIP3     1732     TIP3     H2       HT       0.417000       1.00800           0   0.00000     -0.301140E-02
     30113 TIP3     1733     TIP3     OH2      OT      -0.834000       15.9994           0   0.00000       0.00000    
     30114 TIP3     1733     TIP3     H1       HT       0.417000       1.00800           0   0.00000       0.00000    
     30115 TIP3     1733     TIP3     H2       HT       0.417000       1.00800           0   0.00000     -0.301140E-02
     30116 TIP3     1734     TIP3     OH2      OT      -0.834000       15.9994           0   0.00000       0.00000    
     30117 TIP3     1734     TIP3     H1       HT       0.417000       1.00800           0   0.00000       0.00000    
     30118 TIP3     1734     TIP3     H2       HT       0.417000       1.00800           0   0.00000     -0.301140E-02
     30119 TIP3     1735     TIP3     OH2      OT      -0.834000       15.9994           0   0.00000       0.00000    
     30120 TIP3     1735     TIP3     H1       HT       0.417000       1.00800           0   0.00000       0.00000    
     30121 TIP3     1735     TIP3     H2       HT       0.417000       1.00800           0   0.00000     -0.301140E-02
     30122 TIP3     1736     TIP3     OH2      OT      -0.834000       15.9994           0   0.00000       0.00000    
     30123 TIP3     1736     TIP3     H1       HT       0.417000       1.00800           0   0.00000       0.00000    
     30124 TIP3     1736     TIP3     H2       HT       0.417000       1.00800           0   0.00000     -0.301140E-02
     30125 TIP3     1737     TIP3     OH2      OT      -0.834000       15.9994           0   0.00000       0.00000    
     30126 TIP3     1737     TIP3     H1       HT       0.417000       1.00800           0   0.00000       0.00000    
     30127 TIP3     1737     TIP3     H2       HT       0.417000       1.00800           0   0.00000     -0.301140E-02
     30128 TIP3     1738     TIP3     OH2      OT      -0.834000       15.9994           0   0.00000       0.00000    
     30129 TIP3     1738     TIP3     H1       HT       0.417000       1.00800           0   0.00000       0.00000    
     30130 TIP3     1738     TIP3     H2       HT       0.417000       1.00800           0   0.00000     -0.301140E-02
     30131 TIP3     1739     TIP3     OH2      OT      -0.834000       15.9994           0   0.00000       0.00000    
     30132 TIP3     1739     TIP3     H1       HT       0.417000       1.00800           0   0.00000       0.00000    
     30133 TIP3     1739     TIP3     H2       HT       0.417000       1.00800           0   0.00000     -0.301140E-02
     30134 TIP3     1740     TIP3     OH2      OT      -0.834000       15.9994           0   0.00000       0.00000    
     30135 TIP3     1740     TIP3     H1       HT       0.417000       1.00800           0   0.00000       0.00000    
     30136 TIP3     1740     TIP3     H2       HT       0.417000       1.00800           0   0.00000     -0.301140E-02
     30137 TIP3     1741     TIP3     OH2      OT      -0.834000       15.9994           0   0.00000       0.00000    
     30138 TIP3     1741     TIP3     H1       HT       0.417000       1.00800           0   0.00000       0.00000    
     30139 TIP3     1741     TIP3     H2       HT       0.417000       1.00800           0   0.00000     -0.301140E-02
     30140 TIP3     1742     TIP3     OH2      OT      -0.834000       15.9994           0   0.00000       0.00000    
     30141 TIP3     1742     TIP3     H1       HT       0.417000       1.00800           0   0.00000       0.00000    
     30142 TIP3     1742     TIP3     H2       HT       0.417000       1.00800           0   0.00000     -0.301140E-02
     30143 TIP3     1743     TIP3     OH2      OT      -0.834000       15.9994           0   0.00000       0.00000    
     30144 TIP3     1743     TIP3     H1       HT       0.417000       1.00800           0   0.00000       0.00000    
     30145 TIP3     1743     TIP3     H2       HT       0.417000       1.00800           0   0.00000     -0.301140E-02
     30146 TIP3     1744     TIP3     OH2      OT      -0.834000       15.9994           0   0.00000       0.00000    
     30147 TIP3     1744     TIP3     H1       HT       0.417000       1.00800           0   0.00000       0.00000    
     30148 TIP3     1744     TIP3     H2       HT       0.417000       1.00800           0   0.00000     -0.301140E-02
     30149 TIP3     1745     TIP3     OH2      OT      -0.834000       15.9994           0   0.00000       0.00000    
     30150 TIP3     1745     TIP3     H1       HT       0.417000       1.00800           0   0.00000       0.00000    
     30151 TIP3     1745     TIP3     H2       HT       0.417000       1.00800           0   0.00000     -0.301140E-02
     30152 TIP3     1746     TIP3     OH2      OT      -0.834000       15.9994           0   0.00000       0.00000    
     30153 TIP3     1746     TIP3     H1       HT       0.417000       1.00800           0   0.00000       0.00000    
     30154 TIP3     1746     TIP3     H2       HT       0.417000       1.00800           0   0.00000     -0.301140E-02
     30155 TIP3     1747     TIP3     OH2      OT      -0.834000       15.9994           0   0.00000       0.00000    
     30156 TIP3     1747     TIP3     H1       HT       0.417000       1.00800           0   0.00000       0.00000    
     30157 TIP3     1747     TIP3     H2       HT       0.417000       1.00800           0   0.00000     -0.301140E-02
     30158 TIP3     1748     TIP3     OH2      OT      -0.834000       15.9994           0   0.00000       0.00000    
     30159 TIP3     1748     TIP3     H1       HT       0.417000       1.00800           0   0.00000       0.00000    
     30160 TIP3     1748     TIP3     H2       HT       0.417000       1.00800           0   0.00000     -0.301140E-02
     30161 TIP3     1749     TIP3     OH2      OT      -0.834000       15.9994           0   0.00000       0.00000    
     30162 TIP3     1749     TIP3     H1       HT       0.417000       1.00800           0   0.00000       0.00000    
     30163 TIP3     1749     TIP3     H2       HT       0.417000       1.00800           0   0.00000     -0.301140E-02
     30164 TIP3     1750     TIP3     OH2      OT      -0.834000       15.9994           0   0.00000       0.00000    
     30165 TIP3     1750     TIP3     H1       HT       0.417000       1.00800           0   0.00000       0.00000    
     30166 TIP3     1750     TIP3     H2       HT       0.417000       1.00800           0   0.00000     -0.301140E-02
     30167 TIP3     1751     TIP3     OH2      OT      -0.834000       15.9994           0   0.00000       0.00000    
     30168 TIP3     1751     TIP3     H1       HT       0.417000       1.00800           0   0.00000       0.00000    
     30169 TIP3     1751     TIP3     H2       HT       0.417000       1.00800           0   0.00000     -0.301140E-02
     30170 TIP3     1752     TIP3     OH2      OT      -0.834000       15.9994           0   0.00000       0.00000    
     30171 TIP3     1752     TIP3     H1       HT       0.417000       1.00800           0   0.00000       0.00000    
     30172 TIP3     1752     TIP3     H2       HT       0.417000       1.00800           0   0.00000     -0.301140E-02
     30173 TIP3     1753     TIP3     OH2      OT      -0.834000       15.9994           0   0.00000       0.00000    
     30174 TIP3     1753     TIP3     H1       HT       0.417000       1.00800           0   0.00000       0.00000    
     30175 TIP3     1753     TIP3     H2       HT       0.417000       1.00800           0   0.00000     -0.301140E-02
     30176 TIP3     1754     TIP3     OH2      OT      -0.834000       15.9994           0   0.00000       0.00000    
     30177 TIP3     1754     TIP3     H1       HT       0.417000       1.00800           0   0.00000       0.00000    
     30178 TIP3     1754     TIP3     H2       HT       0.417000       1.00800           0   0.00000     -0.301140E-02
     30179 TIP3     1755     TIP3     OH2      OT      -0.834000       15.9994           0   0.00000       0.00000    
     30180 TIP3     1755     TIP3     H1       HT       0.417000       1.00800           0   0.00000       0.00000    
     30181 TIP3     1755     TIP3     H2       HT       0.417000       1.00800           0   0.00000     -0.301140E-02
     30182 TIP3     1756     TIP3     OH2      OT      -0.834000       15.9994           0   0.00000       0.00000    
     30183 TIP3     1756     TIP3     H1       HT       0.417000       1.00800           0   0.00000       0.00000    
     30184 TIP3     1756     TIP3     H2       HT       0.417000       1.00800           0   0.00000     -0.301140E-02
     30185 TIP3     1757     TIP3     OH2      OT      -0.834000       15.9994           0   0.00000       0.00000    
     30186 TIP3     1757     TIP3     H1       HT       0.417000       1.00800           0   0.00000       0.00000    
     30187 TIP3     1757     TIP3     H2       HT       0.417000       1.00800           0   0.00000     -0.301140E-02
     30188 TIP3     1758     TIP3     OH2      OT      -0.834000       15.9994           0   0.00000       0.00000    
     30189 TIP3     1758     TIP3     H1       HT       0.417000       1.00800           0   0.00000       0.00000    
     30190 TIP3     1758     TIP3     H2       HT       0.417000       1.00800           0   0.00000     -0.301140E-02
     30191 TIP3     1759     TIP3     OH2      OT      -0.834000       15.9994           0   0.00000       0.00000    
     30192 TIP3     1759     TIP3     H1       HT       0.417000       1.00800           0   0.00000       0.00000    
     30193 TIP3     1759     TIP3     H2       HT       0.417000       1.00800           0   0.00000     -0.301140E-02
     30194 TIP3     1760     TIP3     OH2      OT      -0.834000       15.9994           0   0.00000       0.00000    
     30195 TIP3     1760     TIP3     H1       HT       0.417000       1.00800           0   0.00000       0.00000    
     30196 TIP3     1760     TIP3     H2       HT       0.417000       1.00800           0   0.00000     -0.301140E-02
     30197 TIP3     1761     TIP3     OH2      OT      -0.834000       15.9994           0   0.00000       0.00000    
     30198 TIP3     1761     TIP3     H1       HT       0.417000       1.00800           0   0.00000       0.00000    
     30199 TIP3     1761     TIP3     H2       HT       0.417000       1.00800           0   0.00000     -0.301140E-02
     30200 TIP3     1762     TIP3     OH2      OT      -0.834000       15.9994           0   0.00000       0.00000    
     30201 TIP3     1762     TIP3     H1       HT       0.417000       1.00800           0   0.00000       0.00000    
     30202 TIP3     1762     TIP3     H2       HT       0.417000       1.00800           0   0.00000     -0.301140E-02
     30203 TIP3     1763     TIP3     OH2      OT      -0.834000       15.9994           0   0.00000       0.00000    
     30204 TIP3     1763     TIP3     H1       HT       0.417000       1.00800           0   0.00000       0.00000    
     30205 TIP3     1763     TIP3     H2       HT       0.417000       1.00800           0   0.00000     -0.301140E-02
     30206 TIP3     1764     TIP3     OH2      OT      -0.834000       15.9994           0   0.00000       0.00000    
     30207 TIP3     1764     TIP3     H1       HT       0.417000       1.00800           0   0.00000       0.00000    
     30208 TIP3     1764     TIP3     H2       HT       0.417000       1.00800           0   0.00000     -0.301140E-02
     30209 TIP3     1765     TIP3     OH2      OT      -0.834000       15.9994           0   0.00000       0.00000    
     30210 TIP3     1765     TIP3     H1       HT       0.417000       1.00800           0   0.00000       0.00000    
     30211 TIP3     1765     TIP3     H2       HT       0.417000       1.00800           0   0.00000     -0.301140E-02
     30212 TIP3     1766     TIP3     OH2      OT      -0.834000       15.9994           0   0.00000       0.00000    
     30213 TIP3     1766     TIP3     H1       HT       0.417000       1.00800           0   0.00000       0.00000    
     30214 TIP3     1766     TIP3     H2       HT       0.417000       1.00800           0   0.00000     -0.301140E-02
     30215 TIP3     1767     TIP3     OH2      OT      -0.834000       15.9994           0   0.00000       0.00000    
     30216 TIP3     1767     TIP3     H1       HT       0.417000       1.00800           0   0.00000       0.00000    
     30217 TIP3     1767     TIP3     H2       HT       0.417000       1.00800           0   0.00000     -0.301140E-02
     30218 TIP3     1768     TIP3     OH2      OT      -0.834000       15.9994           0   0.00000       0.00000    
     30219 TIP3     1768     TIP3     H1       HT       0.417000       1.00800           0   0.00000       0.00000    
     30220 TIP3     1768     TIP3     H2       HT       0.417000       1.00800           0   0.00000     -0.301140E-02
     30221 TIP3     1769     TIP3     OH2      OT      -0.834000       15.9994           0   0.00000       0.00000    
     30222 TIP3     1769     TIP3     H1       HT       0.417000       1.00800           0   0.00000       0.00000    
     30223 TIP3     1769     TIP3     H2       HT       0.417000       1.00800           0   0.00000     -0.301140E-02
     30224 TIP3     1770     TIP3     OH2      OT      -0.834000       15.9994           0   0.00000       0.00000    
     30225 TIP3     1770     TIP3     H1       HT       0.417000       1.00800           0   0.00000       0.00000    
     30226 TIP3     1770     TIP3     H2       HT       0.417000       1.00800           0   0.00000     -0.301140E-02
     30227 TIP3     1771     TIP3     OH2      OT      -0.834000       15.9994           0   0.00000       0.00000    
     30228 TIP3     1771     TIP3     H1       HT       0.417000       1.00800           0   0.00000       0.00000    
     30229 TIP3     1771     TIP3     H2       HT       0.417000       1.00800           0   0.00000     -0.301140E-02
     30230 TIP3     1772     TIP3     OH2      OT      -0.834000       15.9994           0   0.00000       0.00000    
     30231 TIP3     1772     TIP3     H1       HT       0.417000       1.00800           0   0.00000       0.00000    
     30232 TIP3     1772     TIP3     H2       HT       0.417000       1.00800           0   0.00000     -0.301140E-02
     30233 TIP3     1773     TIP3     OH2      OT      -0.834000       15.9994           0   0.00000       0.00000    
     30234 TIP3     1773     TIP3     H1       HT       0.417000       1.00800           0   0.00000       0.00000    
     30235 TIP3     1773     TIP3     H2       HT       0.417000       1.00800           0   0.00000     -0.301140E-02
     30236 TIP3     1774     TIP3     OH2      OT      -0.834000       15.9994           0   0.00000       0.00000    
     30237 TIP3     1774     TIP3     H1       HT       0.417000       1.00800           0   0.00000       0.00000    
     30238 TIP3     1774     TIP3     H2       HT       0.417000       1.00800           0   0.00000     -0.301140E-02
     30239 TIP3     1775     TIP3     OH2      OT      -0.834000       15.9994           0   0.00000       0.00000    
     30240 TIP3     1775     TIP3     H1       HT       0.417000       1.00800           0   0.00000       0.00000    
     30241 TIP3     1775     TIP3     H2       HT       0.417000       1.00800           0   0.00000     -0.301140E-02
     30242 TIP3     1776     TIP3     OH2      OT      -0.834000       15.9994           0   0.00000       0.00000    
     30243 TIP3     1776     TIP3     H1       HT       0.417000       1.00800           0   0.00000       0.00000    
     30244 TIP3     1776     TIP3     H2       HT       0.417000       1.00800           0   0.00000     -0.301140E-02
     30245 TIP3     1777     TIP3     OH2      OT      -0.834000       15.9994           0   0.00000       0.00000    
     30246 TIP3     1777     TIP3     H1       HT       0.417000       1.00800           0   0.00000       0.00000    
     30247 TIP3     1777     TIP3     H2       HT       0.417000       1.00800           0   0.00000     -0.301140E-02
     30248 TIP3     1778     TIP3     OH2      OT      -0.834000       15.9994           0   0.00000       0.00000    
     30249 TIP3     1778     TIP3     H1       HT       0.417000       1.00800           0   0.00000       0.00000    
     30250 TIP3     1778     TIP3     H2       HT       0.417000       1.00800           0   0.00000     -0.301140E-02
     30251 TIP3     1779     TIP3     OH2      OT      -0.834000       15.9994           0   0.00000       0.00000    
     30252 TIP3     1779     TIP3     H1       HT       0.417000       1.00800           0   0.00000       0.00000    
     30253 TIP3     1779     TIP3     H2       HT       0.417000       1.00800           0   0.00000     -0.301140E-02
     30254 TIP3     1780     TIP3     OH2      OT      -0.834000       15.9994           0   0.00000       0.00000    
     30255 TIP3     1780     TIP3     H1       HT       0.417000       1.00800           0   0.00000       0.00000    
     30256 TIP3     1780     TIP3     H2       HT       0.417000       1.00800           0   0.00000     -0.301140E-02
     30257 TIP3     1781     TIP3     OH2      OT      -0.834000       15.9994           0   0.00000       0.00000    
     30258 TIP3     1781     TIP3     H1       HT       0.417000       1.00800           0   0.00000       0.00000    
     30259 TIP3     1781     TIP3     H2       HT       0.417000       1.00800           0   0.00000     -0.301140E-02
     30260 TIP3     1782     TIP3     OH2      OT      -0.834000       15.9994           0   0.00000       0.00000    
     30261 TIP3     1782     TIP3     H1       HT       0.417000       1.00800           0   0.00000       0.00000    
     30262 TIP3     1782     TIP3     H2       HT       0.417000       1.00800           0   0.00000     -0.301140E-02
     30263 TIP3     1783     TIP3     OH2      OT      -0.834000       15.9994           0   0.00000       0.00000    
     30264 TIP3     1783     TIP3     H1       HT       0.417000       1.00800           0   0.00000       0.00000    
     30265 TIP3     1783     TIP3     H2       HT       0.417000       1.00800           0   0.00000     -0.301140E-02
     30266 TIP3     1784     TIP3     OH2      OT      -0.834000       15.9994           0   0.00000       0.00000    
     30267 TIP3     1784     TIP3     H1       HT       0.417000       1.00800           0   0.00000       0.00000    
     30268 TIP3     1784     TIP3     H2       HT       0.417000       1.00800           0   0.00000     -0.301140E-02
     30269 TIP3     1785     TIP3     OH2      OT      -0.834000       15.9994           0   0.00000       0.00000    
     30270 TIP3     1785     TIP3     H1       HT       0.417000       1.00800           0   0.00000       0.00000    
     30271 TIP3     1785     TIP3     H2       HT       0.417000       1.00800           0   0.00000     -0.301140E-02
     30272 TIP3     1786     TIP3     OH2      OT      -0.834000       15.9994           0   0.00000       0.00000    
     30273 TIP3     1786     TIP3     H1       HT       0.417000       1.00800           0   0.00000       0.00000    
     30274 TIP3     1786     TIP3     H2       HT       0.417000       1.00800           0   0.00000     -0.301140E-02
     30275 TIP3     1787     TIP3     OH2      OT      -0.834000       15.9994           0   0.00000       0.00000    
     30276 TIP3     1787     TIP3     H1       HT       0.417000       1.00800           0   0.00000       0.00000    
     30277 TIP3     1787     TIP3     H2       HT       0.417000       1.00800           0   0.00000     -0.301140E-02
     30278 TIP3     1788     TIP3     OH2      OT      -0.834000       15.9994           0   0.00000       0.00000    
     30279 TIP3     1788     TIP3     H1       HT       0.417000       1.00800           0   0.00000       0.00000    
     30280 TIP3     1788     TIP3     H2       HT       0.417000       1.00800           0   0.00000     -0.301140E-02
     30281 TIP3     1789     TIP3     OH2      OT      -0.834000       15.9994           0   0.00000       0.00000    
     30282 TIP3     1789     TIP3     H1       HT       0.417000       1.00800           0   0.00000       0.00000    
     30283 TIP3     1789     TIP3     H2       HT       0.417000       1.00800           0   0.00000     -0.301140E-02
     30284 TIP3     1790     TIP3     OH2      OT      -0.834000       15.9994           0   0.00000       0.00000    
     30285 TIP3     1790     TIP3     H1       HT       0.417000       1.00800           0   0.00000       0.00000    
     30286 TIP3     1790     TIP3     H2       HT       0.417000       1.00800           0   0.00000     -0.301140E-02
     30287 TIP3     1791     TIP3     OH2      OT      -0.834000       15.9994           0   0.00000       0.00000    
     30288 TIP3     1791     TIP3     H1       HT       0.417000       1.00800           0   0.00000       0.00000    
     30289 TIP3     1791     TIP3     H2       HT       0.417000       1.00800           0   0.00000     -0.301140E-02
     30290 TIP3     1792     TIP3     OH2      OT      -0.834000       15.9994           0   0.00000       0.00000    
     30291 TIP3     1792     TIP3     H1       HT       0.417000       1.00800           0   0.00000       0.00000    
     30292 TIP3     1792     TIP3     H2       HT       0.417000       1.00800           0   0.00000     -0.301140E-02
     30293 TIP3     1793     TIP3     OH2      OT      -0.834000       15.9994           0   0.00000       0.00000    
     30294 TIP3     1793     TIP3     H1       HT       0.417000       1.00800           0   0.00000       0.00000    
     30295 TIP3     1793     TIP3     H2       HT       0.417000       1.00800           0   0.00000     -0.301140E-02
     30296 TIP3     1794     TIP3     OH2      OT      -0.834000       15.9994           0   0.00000       0.00000    
     30297 TIP3     1794     TIP3     H1       HT       0.417000       1.00800           0   0.00000       0.00000    
     30298 TIP3     1794     TIP3     H2       HT       0.417000       1.00800           0   0.00000     -0.301140E-02
     30299 TIP3     1795     TIP3     OH2      OT      -0.834000       15.9994           0   0.00000       0.00000    
     30300 TIP3     1795     TIP3     H1       HT       0.417000       1.00800           0   0.00000       0.00000    
     30301 TIP3     1795     TIP3     H2       HT       0.417000       1.00800           0   0.00000     -0.301140E-02
     30302 TIP3     1796     TIP3     OH2      OT      -0.834000       15.9994           0   0.00000       0.00000    
     30303 TIP3     1796     TIP3     H1       HT       0.417000       1.00800           0   0.00000       0.00000    
     30304 TIP3     1796     TIP3     H2       HT       0.417000       1.00800           0   0.00000     -0.301140E-02
     30305 TIP3     1797     TIP3     OH2      OT      -0.834000       15.9994           0   0.00000       0.00000    
     30306 TIP3     1797     TIP3     H1       HT       0.417000       1.00800           0   0.00000       0.00000    
     30307 TIP3     1797     TIP3     H2       HT       0.417000       1.00800           0   0.00000     -0.301140E-02
     30308 TIP3     1798     TIP3     OH2      OT      -0.834000       15.9994           0   0.00000       0.00000    
     30309 TIP3     1798     TIP3     H1       HT       0.417000       1.00800           0   0.00000       0.00000    
     30310 TIP3     1798     TIP3     H2       HT       0.417000       1.00800           0   0.00000     -0.301140E-02
     30311 TIP3     1799     TIP3     OH2      OT      -0.834000       15.9994           0   0.00000       0.00000    
     30312 TIP3     1799     TIP3     H1       HT       0.417000       1.00800           0   0.00000       0.00000    
     30313 TIP3     1799     TIP3     H2       HT       0.417000       1.00800           0   0.00000     -0.301140E-02
     30314 TIP3     1800     TIP3     OH2      OT      -0.834000       15.9994           0   0.00000       0.00000    
     30315 TIP3     1800     TIP3     H1       HT       0.417000       1.00800           0   0.00000       0.00000    
     30316 TIP3     1800     TIP3     H2       HT       0.417000       1.00800           0   0.00000     -0.301140E-02
     30317 TIP3     1801     TIP3     OH2      OT      -0.834000       15.9994           0   0.00000       0.00000    
     30318 TIP3     1801     TIP3     H1       HT       0.417000       1.00800           0   0.00000       0.00000    
     30319 TIP3     1801     TIP3     H2       HT       0.417000       1.00800           0   0.00000     -0.301140E-02
     30320 TIP3     1802     TIP3     OH2      OT      -0.834000       15.9994           0   0.00000       0.00000    
     30321 TIP3     1802     TIP3     H1       HT       0.417000       1.00800           0   0.00000       0.00000    
     30322 TIP3     1802     TIP3     H2       HT       0.417000       1.00800           0   0.00000     -0.301140E-02
     30323 TIP3     1803     TIP3     OH2      OT      -0.834000       15.9994           0   0.00000       0.00000    
     30324 TIP3     1803     TIP3     H1       HT       0.417000       1.00800           0   0.00000       0.00000    
     30325 TIP3     1803     TIP3     H2       HT       0.417000       1.00800           0   0.00000     -0.301140E-02
     30326 TIP3     1804     TIP3     OH2      OT      -0.834000       15.9994           0   0.00000       0.00000    
     30327 TIP3     1804     TIP3     H1       HT       0.417000       1.00800           0   0.00000       0.00000    
     30328 TIP3     1804     TIP3     H2       HT       0.417000       1.00800           0   0.00000     -0.301140E-02
     30329 TIP3     1805     TIP3     OH2      OT      -0.834000       15.9994           0   0.00000       0.00000    
     30330 TIP3     1805     TIP3     H1       HT       0.417000       1.00800           0   0.00000       0.00000    
     30331 TIP3     1805     TIP3     H2       HT       0.417000       1.00800           0   0.00000     -0.301140E-02
     30332 TIP3     1806     TIP3     OH2      OT      -0.834000       15.9994           0   0.00000       0.00000    
     30333 TIP3     1806     TIP3     H1       HT       0.417000       1.00800           0   0.00000       0.00000    
     30334 TIP3     1806     TIP3     H2       HT       0.417000       1.00800           0   0.00000     -0.301140E-02
     30335 TIP3     1807     TIP3     OH2      OT      -0.834000       15.9994           0   0.00000       0.00000    
     30336 TIP3     1807     TIP3     H1       HT       0.417000       1.00800           0   0.00000       0.00000    
     30337 TIP3     1807     TIP3     H2       HT       0.417000       1.00800           0   0.00000     -0.301140E-02
     30338 TIP3     1808     TIP3     OH2      OT      -0.834000       15.9994           0   0.00000       0.00000    
     30339 TIP3     1808     TIP3     H1       HT       0.417000       1.00800           0   0.00000       0.00000    
     30340 TIP3     1808     TIP3     H2       HT       0.417000       1.00800           0   0.00000     -0.301140E-02
     30341 TIP3     1809     TIP3     OH2      OT      -0.834000       15.9994           0   0.00000       0.00000    
     30342 TIP3     1809     TIP3     H1       HT       0.417000       1.00800           0   0.00000       0.00000    
     30343 TIP3     1809     TIP3     H2       HT       0.417000       1.00800           0   0.00000     -0.301140E-02
     30344 TIP3     1810     TIP3     OH2      OT      -0.834000       15.9994           0   0.00000       0.00000    
     30345 TIP3     1810     TIP3     H1       HT       0.417000       1.00800           0   0.00000       0.00000    
     30346 TIP3     1810     TIP3     H2       HT       0.417000       1.00800           0   0.00000     -0.301140E-02
     30347 TIP3     1811     TIP3     OH2      OT      -0.834000       15.9994           0   0.00000       0.00000    
     30348 TIP3     1811     TIP3     H1       HT       0.417000       1.00800           0   0.00000       0.00000    
     30349 TIP3     1811     TIP3     H2       HT       0.417000       1.00800           0   0.00000     -0.301140E-02
     30350 TIP3     1812     TIP3     OH2      OT      -0.834000       15.9994           0   0.00000       0.00000    
     30351 TIP3     1812     TIP3     H1       HT       0.417000       1.00800           0   0.00000       0.00000    
     30352 TIP3     1812     TIP3     H2       HT       0.417000       1.00800           0   0.00000     -0.301140E-02
     30353 TIP3     1813     TIP3     OH2      OT      -0.834000       15.9994           0   0.00000       0.00000    
     30354 TIP3     1813     TIP3     H1       HT       0.417000       1.00800           0   0.00000       0.00000    
     30355 TIP3     1813     TIP3     H2       HT       0.417000       1.00800           0   0.00000     -0.301140E-02
     30356 TIP3     1814     TIP3     OH2      OT      -0.834000       15.9994           0   0.00000       0.00000    
     30357 TIP3     1814     TIP3     H1       HT       0.417000       1.00800           0   0.00000       0.00000    
     30358 TIP3     1814     TIP3     H2       HT       0.417000       1.00800           0   0.00000     -0.301140E-02
     30359 TIP3     1815     TIP3     OH2      OT      -0.834000       15.9994           0   0.00000       0.00000    
     30360 TIP3     1815     TIP3     H1       HT       0.417000       1.00800           0   0.00000       0.00000    
     30361 TIP3     1815     TIP3     H2       HT       0.417000       1.00800           0   0.00000     -0.301140E-02
     30362 TIP3     1816     TIP3     OH2      OT      -0.834000       15.9994           0   0.00000       0.00000    
     30363 TIP3     1816     TIP3     H1       HT       0.417000       1.00800           0   0.00000       0.00000    
     30364 TIP3     1816     TIP3     H2       HT       0.417000       1.00800           0   0.00000     -0.301140E-02
     30365 TIP3     1817     TIP3     OH2      OT      -0.834000       15.9994           0   0.00000       0.00000    
     30366 TIP3     1817     TIP3     H1       HT       0.417000       1.00800           0   0.00000       0.00000    
     30367 TIP3     1817     TIP3     H2       HT       0.417000       1.00800           0   0.00000     -0.301140E-02
     30368 TIP3     1818     TIP3     OH2      OT      -0.834000       15.9994           0   0.00000       0.00000    
     30369 TIP3     1818     TIP3     H1       HT       0.417000       1.00800           0   0.00000       0.00000    
     30370 TIP3     1818     TIP3     H2       HT       0.417000       1.00800           0   0.00000     -0.301140E-02
     30371 TIP3     1819     TIP3     OH2      OT      -0.834000       15.9994           0   0.00000       0.00000    
     30372 TIP3     1819     TIP3     H1       HT       0.417000       1.00800           0   0.00000       0.00000    
     30373 TIP3     1819     TIP3     H2       HT       0.417000       1.00800           0   0.00000     -0.301140E-02
     30374 TIP3     1820     TIP3     OH2      OT      -0.834000       15.9994           0   0.00000       0.00000    
     30375 TIP3     1820     TIP3     H1       HT       0.417000       1.00800           0   0.00000       0.00000    
     30376 TIP3     1820     TIP3     H2       HT       0.417000       1.00800           0   0.00000     -0.301140E-02
     30377 TIP3     1821     TIP3     OH2      OT      -0.834000       15.9994           0   0.00000       0.00000    
     30378 TIP3     1821     TIP3     H1       HT       0.417000       1.00800           0   0.00000       0.00000    
     30379 TIP3     1821     TIP3     H2       HT       0.417000       1.00800           0   0.00000     -0.301140E-02
     30380 TIP3     1822     TIP3     OH2      OT      -0.834000       15.9994           0   0.00000       0.00000    
     30381 TIP3     1822     TIP3     H1       HT       0.417000       1.00800           0   0.00000       0.00000    
     30382 TIP3     1822     TIP3     H2       HT       0.417000       1.00800           0   0.00000     -0.301140E-02
     30383 TIP3     1823     TIP3     OH2      OT      -0.834000       15.9994           0   0.00000       0.00000    
     30384 TIP3     1823     TIP3     H1       HT       0.417000       1.00800           0   0.00000       0.00000    
     30385 TIP3     1823     TIP3     H2       HT       0.417000       1.00800           0   0.00000     -0.301140E-02
     30386 TIP3     1824     TIP3     OH2      OT      -0.834000       15.9994           0   0.00000       0.00000    
     30387 TIP3     1824     TIP3     H1       HT       0.417000       1.00800           0   0.00000       0.00000    
     30388 TIP3     1824     TIP3     H2       HT       0.417000       1.00800           0   0.00000     -0.301140E-02
     30389 TIP3     1825     TIP3     OH2      OT      -0.834000       15.9994           0   0.00000       0.00000    
     30390 TIP3     1825     TIP3     H1       HT       0.417000       1.00800           0   0.00000       0.00000    
     30391 TIP3     1825     TIP3     H2       HT       0.417000       1.00800           0   0.00000     -0.301140E-02
     30392 TIP3     1826     TIP3     OH2      OT      -0.834000       15.9994           0   0.00000       0.00000    
     30393 TIP3     1826     TIP3     H1       HT       0.417000       1.00800           0   0.00000       0.00000    
     30394 TIP3     1826     TIP3     H2       HT       0.417000       1.00800           0   0.00000     -0.301140E-02
     30395 TIP3     1827     TIP3     OH2      OT      -0.834000       15.9994           0   0.00000       0.00000    
     30396 TIP3     1827     TIP3     H1       HT       0.417000       1.00800           0   0.00000       0.00000    
     30397 TIP3     1827     TIP3     H2       HT       0.417000       1.00800           0   0.00000     -0.301140E-02
     30398 TIP3     1828     TIP3     OH2      OT      -0.834000       15.9994           0   0.00000       0.00000    
     30399 TIP3     1828     TIP3     H1       HT       0.417000       1.00800           0   0.00000       0.00000    
     30400 TIP3     1828     TIP3     H2       HT       0.417000       1.00800           0   0.00000     -0.301140E-02
     30401 TIP3     1829     TIP3     OH2      OT      -0.834000       15.9994           0   0.00000       0.00000    
     30402 TIP3     1829     TIP3     H1       HT       0.417000       1.00800           0   0.00000       0.00000    
     30403 TIP3     1829     TIP3     H2       HT       0.417000       1.00800           0   0.00000     -0.301140E-02
     30404 TIP3     1830     TIP3     OH2      OT      -0.834000       15.9994           0   0.00000       0.00000    
     30405 TIP3     1830     TIP3     H1       HT       0.417000       1.00800           0   0.00000       0.00000    
     30406 TIP3     1830     TIP3     H2       HT       0.417000       1.00800           0   0.00000     -0.301140E-02
     30407 TIP3     1831     TIP3     OH2      OT      -0.834000       15.9994           0   0.00000       0.00000    
     30408 TIP3     1831     TIP3     H1       HT       0.417000       1.00800           0   0.00000       0.00000    
     30409 TIP3     1831     TIP3     H2       HT       0.417000       1.00800           0   0.00000     -0.301140E-02
     30410 TIP3     1832     TIP3     OH2      OT      -0.834000       15.9994           0   0.00000       0.00000    
     30411 TIP3     1832     TIP3     H1       HT       0.417000       1.00800           0   0.00000       0.00000    
     30412 TIP3     1832     TIP3     H2       HT       0.417000       1.00800           0   0.00000     -0.301140E-02
     30413 TIP3     1833     TIP3     OH2      OT      -0.834000       15.9994           0   0.00000       0.00000    
     30414 TIP3     1833     TIP3     H1       HT       0.417000       1.00800           0   0.00000       0.00000    
     30415 TIP3     1833     TIP3     H2       HT       0.417000       1.00800           0   0.00000     -0.301140E-02
     30416 TIP3     1834     TIP3     OH2      OT      -0.834000       15.9994           0   0.00000       0.00000    
     30417 TIP3     1834     TIP3     H1       HT       0.417000       1.00800           0   0.00000       0.00000    
     30418 TIP3     1834     TIP3     H2       HT       0.417000       1.00800           0   0.00000     -0.301140E-02
     30419 TIP3     1835     TIP3     OH2      OT      -0.834000       15.9994           0   0.00000       0.00000    
     30420 TIP3     1835     TIP3     H1       HT       0.417000       1.00800           0   0.00000       0.00000    
     30421 TIP3     1835     TIP3     H2       HT       0.417000       1.00800           0   0.00000     -0.301140E-02
     30422 TIP3     1836     TIP3     OH2      OT      -0.834000       15.9994           0   0.00000       0.00000    
     30423 TIP3     1836     TIP3     H1       HT       0.417000       1.00800           0   0.00000       0.00000    
     30424 TIP3     1836     TIP3     H2       HT       0.417000       1.00800           0   0.00000     -0.301140E-02
     30425 TIP3     1837     TIP3     OH2      OT      -0.834000       15.9994           0   0.00000       0.00000    
     30426 TIP3     1837     TIP3     H1       HT       0.417000       1.00800           0   0.00000       0.00000    
     30427 TIP3     1837     TIP3     H2       HT       0.417000       1.00800           0   0.00000     -0.301140E-02
     30428 TIP3     1838     TIP3     OH2      OT      -0.834000       15.9994           0   0.00000       0.00000    
     30429 TIP3     1838     TIP3     H1       HT       0.417000       1.00800           0   0.00000       0.00000    
     30430 TIP3     1838     TIP3     H2       HT       0.417000       1.00800           0   0.00000     -0.301140E-02
     30431 TIP3     1839     TIP3     OH2      OT      -0.834000       15.9994           0   0.00000       0.00000    
     30432 TIP3     1839     TIP3     H1       HT       0.417000       1.00800           0   0.00000       0.00000    
     30433 TIP3     1839     TIP3     H2       HT       0.417000       1.00800           0   0.00000     -0.301140E-02
     30434 TIP3     1840     TIP3     OH2      OT      -0.834000       15.9994           0   0.00000       0.00000    
     30435 TIP3     1840     TIP3     H1       HT       0.417000       1.00800           0   0.00000       0.00000    
     30436 TIP3     1840     TIP3     H2       HT       0.417000       1.00800           0   0.00000     -0.301140E-02
     30437 TIP3     1841     TIP3     OH2      OT      -0.834000       15.9994           0   0.00000       0.00000    
     30438 TIP3     1841     TIP3     H1       HT       0.417000       1.00800           0   0.00000       0.00000    
     30439 TIP3     1841     TIP3     H2       HT       0.417000       1.00800           0   0.00000     -0.301140E-02
     30440 TIP3     1842     TIP3     OH2      OT      -0.834000       15.9994           0   0.00000       0.00000    
     30441 TIP3     1842     TIP3     H1       HT       0.417000       1.00800           0   0.00000       0.00000    
     30442 TIP3     1842     TIP3     H2       HT       0.417000       1.00800           0   0.00000     -0.301140E-02
     30443 TIP3     1843     TIP3     OH2      OT      -0.834000       15.9994           0   0.00000       0.00000    
     30444 TIP3     1843     TIP3     H1       HT       0.417000       1.00800           0   0.00000       0.00000    
     30445 TIP3     1843     TIP3     H2       HT       0.417000       1.00800           0   0.00000     -0.301140E-02
     30446 TIP3     1844     TIP3     OH2      OT      -0.834000       15.9994           0   0.00000       0.00000    
     30447 TIP3     1844     TIP3     H1       HT       0.417000       1.00800           0   0.00000       0.00000    
     30448 TIP3     1844     TIP3     H2       HT       0.417000       1.00800           0   0.00000     -0.301140E-02
     30449 TIP3     1845     TIP3     OH2      OT      -0.834000       15.9994           0   0.00000       0.00000    
     30450 TIP3     1845     TIP3     H1       HT       0.417000       1.00800           0   0.00000       0.00000    
     30451 TIP3     1845     TIP3     H2       HT       0.417000       1.00800           0   0.00000     -0.301140E-02
     30452 TIP3     1846     TIP3     OH2      OT      -0.834000       15.9994           0   0.00000       0.00000    
     30453 TIP3     1846     TIP3     H1       HT       0.417000       1.00800           0   0.00000       0.00000    
     30454 TIP3     1846     TIP3     H2       HT       0.417000       1.00800           0   0.00000     -0.301140E-02
     30455 TIP3     1847     TIP3     OH2      OT      -0.834000       15.9994           0   0.00000       0.00000    
     30456 TIP3     1847     TIP3     H1       HT       0.417000       1.00800           0   0.00000       0.00000    
     30457 TIP3     1847     TIP3     H2       HT       0.417000       1.00800           0   0.00000     -0.301140E-02
     30458 TIP3     1848     TIP3     OH2      OT      -0.834000       15.9994           0   0.00000       0.00000    
     30459 TIP3     1848     TIP3     H1       HT       0.417000       1.00800           0   0.00000       0.00000    
     30460 TIP3     1848     TIP3     H2       HT       0.417000       1.00800           0   0.00000     -0.301140E-02
     30461 TIP3     1849     TIP3     OH2      OT      -0.834000       15.9994           0   0.00000       0.00000    
     30462 TIP3     1849     TIP3     H1       HT       0.417000       1.00800           0   0.00000       0.00000    
     30463 TIP3     1849     TIP3     H2       HT       0.417000       1.00800           0   0.00000     -0.301140E-02
     30464 TIP3     1850     TIP3     OH2      OT      -0.834000       15.9994           0   0.00000       0.00000    
     30465 TIP3     1850     TIP3     H1       HT       0.417000       1.00800           0   0.00000       0.00000    
     30466 TIP3     1850     TIP3     H2       HT       0.417000       1.00800           0   0.00000     -0.301140E-02
     30467 TIP3     1851     TIP3     OH2      OT      -0.834000       15.9994           0   0.00000       0.00000    
     30468 TIP3     1851     TIP3     H1       HT       0.417000       1.00800           0   0.00000       0.00000    
     30469 TIP3     1851     TIP3     H2       HT       0.417000       1.00800           0   0.00000     -0.301140E-02
     30470 TIP3     1852     TIP3     OH2      OT      -0.834000       15.9994           0   0.00000       0.00000    
     30471 TIP3     1852     TIP3     H1       HT       0.417000       1.00800           0   0.00000       0.00000    
     30472 TIP3     1852     TIP3     H2       HT       0.417000       1.00800           0   0.00000     -0.301140E-02
     30473 TIP3     1853     TIP3     OH2      OT      -0.834000       15.9994           0   0.00000       0.00000    
     30474 TIP3     1853     TIP3     H1       HT       0.417000       1.00800           0   0.00000       0.00000    
     30475 TIP3     1853     TIP3     H2       HT       0.417000       1.00800           0   0.00000     -0.301140E-02
     30476 TIP3     1854     TIP3     OH2      OT      -0.834000       15.9994           0   0.00000       0.00000    
     30477 TIP3     1854     TIP3     H1       HT       0.417000       1.00800           0   0.00000       0.00000    
     30478 TIP3     1854     TIP3     H2       HT       0.417000       1.00800           0   0.00000     -0.301140E-02
     30479 TIP3     1855     TIP3     OH2      OT      -0.834000       15.9994           0   0.00000       0.00000    
     30480 TIP3     1855     TIP3     H1       HT       0.417000       1.00800           0   0.00000       0.00000    
     30481 TIP3     1855     TIP3     H2       HT       0.417000       1.00800           0   0.00000     -0.301140E-02
     30482 TIP3     1856     TIP3     OH2      OT      -0.834000       15.9994           0   0.00000       0.00000    
     30483 TIP3     1856     TIP3     H1       HT       0.417000       1.00800           0   0.00000       0.00000    
     30484 TIP3     1856     TIP3     H2       HT       0.417000       1.00800           0   0.00000     -0.301140E-02
     30485 TIP3     1857     TIP3     OH2      OT      -0.834000       15.9994           0   0.00000       0.00000    
     30486 TIP3     1857     TIP3     H1       HT       0.417000       1.00800           0   0.00000       0.00000    
     30487 TIP3     1857     TIP3     H2       HT       0.417000       1.00800           0   0.00000     -0.301140E-02
     30488 TIP3     1858     TIP3     OH2      OT      -0.834000       15.9994           0   0.00000       0.00000    
     30489 TIP3     1858     TIP3     H1       HT       0.417000       1.00800           0   0.00000       0.00000    
     30490 TIP3     1858     TIP3     H2       HT       0.417000       1.00800           0   0.00000     -0.301140E-02
     30491 TIP3     1859     TIP3     OH2      OT      -0.834000       15.9994           0   0.00000       0.00000    
     30492 TIP3     1859     TIP3     H1       HT       0.417000       1.00800           0   0.00000       0.00000    
     30493 TIP3     1859     TIP3     H2       HT       0.417000       1.00800           0   0.00000     -0.301140E-02
     30494 TIP3     1860     TIP3     OH2      OT      -0.834000       15.9994           0   0.00000       0.00000    
     30495 TIP3     1860     TIP3     H1       HT       0.417000       1.00800           0   0.00000       0.00000    
     30496 TIP3     1860     TIP3     H2       HT       0.417000       1.00800           0   0.00000     -0.301140E-02
     30497 TIP3     1861     TIP3     OH2      OT      -0.834000       15.9994           0   0.00000       0.00000    
     30498 TIP3     1861     TIP3     H1       HT       0.417000       1.00800           0   0.00000       0.00000    
     30499 TIP3     1861     TIP3     H2       HT       0.417000       1.00800           0   0.00000     -0.301140E-02
     30500 TIP3     1862     TIP3     OH2      OT      -0.834000       15.9994           0   0.00000       0.00000    
     30501 TIP3     1862     TIP3     H1       HT       0.417000       1.00800           0   0.00000       0.00000    
     30502 TIP3     1862     TIP3     H2       HT       0.417000       1.00800           0   0.00000     -0.301140E-02
     30503 TIP3     1863     TIP3     OH2      OT      -0.834000       15.9994           0   0.00000       0.00000    
     30504 TIP3     1863     TIP3     H1       HT       0.417000       1.00800           0   0.00000       0.00000    
     30505 TIP3     1863     TIP3     H2       HT       0.417000       1.00800           0   0.00000     -0.301140E-02
     30506 TIP3     1864     TIP3     OH2      OT      -0.834000       15.9994           0   0.00000       0.00000    
     30507 TIP3     1864     TIP3     H1       HT       0.417000       1.00800           0   0.00000       0.00000    
     30508 TIP3     1864     TIP3     H2       HT       0.417000       1.00800           0   0.00000     -0.301140E-02
     30509 TIP3     1865     TIP3     OH2      OT      -0.834000       15.9994           0   0.00000       0.00000    
     30510 TIP3     1865     TIP3     H1       HT       0.417000       1.00800           0   0.00000       0.00000    
     30511 TIP3     1865     TIP3     H2       HT       0.417000       1.00800           0   0.00000     -0.301140E-02
     30512 TIP3     1866     TIP3     OH2      OT      -0.834000       15.9994           0   0.00000       0.00000    
     30513 TIP3     1866     TIP3     H1       HT       0.417000       1.00800           0   0.00000       0.00000    
     30514 TIP3     1866     TIP3     H2       HT       0.417000       1.00800           0   0.00000     -0.301140E-02
     30515 TIP3     1867     TIP3     OH2      OT      -0.834000       15.9994           0   0.00000       0.00000    
     30516 TIP3     1867     TIP3     H1       HT       0.417000       1.00800           0   0.00000       0.00000    
     30517 TIP3     1867     TIP3     H2       HT       0.417000       1.00800           0   0.00000     -0.301140E-02
     30518 TIP3     1868     TIP3     OH2      OT      -0.834000       15.9994           0   0.00000       0.00000    
     30519 TIP3     1868     TIP3     H1       HT       0.417000       1.00800           0   0.00000       0.00000    
     30520 TIP3     1868     TIP3     H2       HT       0.417000       1.00800           0   0.00000     -0.301140E-02
     30521 TIP3     1869     TIP3     OH2      OT      -0.834000       15.9994           0   0.00000       0.00000    
     30522 TIP3     1869     TIP3     H1       HT       0.417000       1.00800           0   0.00000       0.00000    
     30523 TIP3     1869     TIP3     H2       HT       0.417000       1.00800           0   0.00000     -0.301140E-02
     30524 TIP3     1870     TIP3     OH2      OT      -0.834000       15.9994           0   0.00000       0.00000    
     30525 TIP3     1870     TIP3     H1       HT       0.417000       1.00800           0   0.00000       0.00000    
     30526 TIP3     1870     TIP3     H2       HT       0.417000       1.00800           0   0.00000     -0.301140E-02
     30527 TIP3     1871     TIP3     OH2      OT      -0.834000       15.9994           0   0.00000       0.00000    
     30528 TIP3     1871     TIP3     H1       HT       0.417000       1.00800           0   0.00000       0.00000    
     30529 TIP3     1871     TIP3     H2       HT       0.417000       1.00800           0   0.00000     -0.301140E-02
     30530 TIP3     1872     TIP3     OH2      OT      -0.834000       15.9994           0   0.00000       0.00000    
     30531 TIP3     1872     TIP3     H1       HT       0.417000       1.00800           0   0.00000       0.00000    
     30532 TIP3     1872     TIP3     H2       HT       0.417000       1.00800           0   0.00000     -0.301140E-02
     30533 TIP3     1873     TIP3     OH2      OT      -0.834000       15.9994           0   0.00000       0.00000    
     30534 TIP3     1873     TIP3     H1       HT       0.417000       1.00800           0   0.00000       0.00000    
     30535 TIP3     1873     TIP3     H2       HT       0.417000       1.00800           0   0.00000     -0.301140E-02
     30536 TIP3     1874     TIP3     OH2      OT      -0.834000       15.9994           0   0.00000       0.00000    
     30537 TIP3     1874     TIP3     H1       HT       0.417000       1.00800           0   0.00000       0.00000    
     30538 TIP3     1874     TIP3     H2       HT       0.417000       1.00800           0   0.00000     -0.301140E-02
     30539 TIP3     1875     TIP3     OH2      OT      -0.834000       15.9994           0   0.00000       0.00000    
     30540 TIP3     1875     TIP3     H1       HT       0.417000       1.00800           0   0.00000       0.00000    
     30541 TIP3     1875     TIP3     H2       HT       0.417000       1.00800           0   0.00000     -0.301140E-02
     30542 TIP3     1876     TIP3     OH2      OT      -0.834000       15.9994           0   0.00000       0.00000    
     30543 TIP3     1876     TIP3     H1       HT       0.417000       1.00800           0   0.00000       0.00000    
     30544 TIP3     1876     TIP3     H2       HT       0.417000       1.00800           0   0.00000     -0.301140E-02
     30545 TIP3     1877     TIP3     OH2      OT      -0.834000       15.9994           0   0.00000       0.00000    
     30546 TIP3     1877     TIP3     H1       HT       0.417000       1.00800           0   0.00000       0.00000    
     30547 TIP3     1877     TIP3     H2       HT       0.417000       1.00800           0   0.00000     -0.301140E-02
     30548 TIP3     1878     TIP3     OH2      OT      -0.834000       15.9994           0   0.00000       0.00000    
     30549 TIP3     1878     TIP3     H1       HT       0.417000       1.00800           0   0.00000       0.00000    
     30550 TIP3     1878     TIP3     H2       HT       0.417000       1.00800           0   0.00000     -0.301140E-02
     30551 TIP3     1879     TIP3     OH2      OT      -0.834000       15.9994           0   0.00000       0.00000    
     30552 TIP3     1879     TIP3     H1       HT       0.417000       1.00800           0   0.00000       0.00000    
     30553 TIP3     1879     TIP3     H2       HT       0.417000       1.00800           0   0.00000     -0.301140E-02
     30554 TIP3     1880     TIP3     OH2      OT      -0.834000       15.9994           0   0.00000       0.00000    
     30555 TIP3     1880     TIP3     H1       HT       0.417000       1.00800           0   0.00000       0.00000    
     30556 TIP3     1880     TIP3     H2       HT       0.417000       1.00800           0   0.00000     -0.301140E-02
     30557 TIP3     1881     TIP3     OH2      OT      -0.834000       15.9994           0   0.00000       0.00000    
     30558 TIP3     1881     TIP3     H1       HT       0.417000       1.00800           0   0.00000       0.00000    
     30559 TIP3     1881     TIP3     H2       HT       0.417000       1.00800           0   0.00000     -0.301140E-02
     30560 TIP3     1882     TIP3     OH2      OT      -0.834000       15.9994           0   0.00000       0.00000    
     30561 TIP3     1882     TIP3     H1       HT       0.417000       1.00800           0   0.00000       0.00000    
     30562 TIP3     1882     TIP3     H2       HT       0.417000       1.00800           0   0.00000     -0.301140E-02
     30563 TIP3     1883     TIP3     OH2      OT      -0.834000       15.9994           0   0.00000       0.00000    
     30564 TIP3     1883     TIP3     H1       HT       0.417000       1.00800           0   0.00000       0.00000    
     30565 TIP3     1883     TIP3     H2       HT       0.417000       1.00800           0   0.00000     -0.301140E-02
     30566 TIP3     1884     TIP3     OH2      OT      -0.834000       15.9994           0   0.00000       0.00000    
     30567 TIP3     1884     TIP3     H1       HT       0.417000       1.00800           0   0.00000       0.00000    
     30568 TIP3     1884     TIP3     H2       HT       0.417000       1.00800           0   0.00000     -0.301140E-02
     30569 TIP3     1885     TIP3     OH2      OT      -0.834000       15.9994           0   0.00000       0.00000    
     30570 TIP3     1885     TIP3     H1       HT       0.417000       1.00800           0   0.00000       0.00000    
     30571 TIP3     1885     TIP3     H2       HT       0.417000       1.00800           0   0.00000     -0.301140E-02
     30572 TIP3     1886     TIP3     OH2      OT      -0.834000       15.9994           0   0.00000       0.00000    
     30573 TIP3     1886     TIP3     H1       HT       0.417000       1.00800           0   0.00000       0.00000    
     30574 TIP3     1886     TIP3     H2       HT       0.417000       1.00800           0   0.00000     -0.301140E-02
     30575 TIP3     1887     TIP3     OH2      OT      -0.834000       15.9994           0   0.00000       0.00000    
     30576 TIP3     1887     TIP3     H1       HT       0.417000       1.00800           0   0.00000       0.00000    
     30577 TIP3     1887     TIP3     H2       HT       0.417000       1.00800           0   0.00000     -0.301140E-02
     30578 TIP3     1888     TIP3     OH2      OT      -0.834000       15.9994           0   0.00000       0.00000    
     30579 TIP3     1888     TIP3     H1       HT       0.417000       1.00800           0   0.00000       0.00000    
     30580 TIP3     1888     TIP3     H2       HT       0.417000       1.00800           0   0.00000     -0.301140E-02
     30581 TIP3     1889     TIP3     OH2      OT      -0.834000       15.9994           0   0.00000       0.00000    
     30582 TIP3     1889     TIP3     H1       HT       0.417000       1.00800           0   0.00000       0.00000    
     30583 TIP3     1889     TIP3     H2       HT       0.417000       1.00800           0   0.00000     -0.301140E-02
     30584 TIP3     1890     TIP3     OH2      OT      -0.834000       15.9994           0   0.00000       0.00000    
     30585 TIP3     1890     TIP3     H1       HT       0.417000       1.00800           0   0.00000       0.00000    
     30586 TIP3     1890     TIP3     H2       HT       0.417000       1.00800           0   0.00000     -0.301140E-02
     30587 TIP3     1891     TIP3     OH2      OT      -0.834000       15.9994           0   0.00000       0.00000    
     30588 TIP3     1891     TIP3     H1       HT       0.417000       1.00800           0   0.00000       0.00000    
     30589 TIP3     1891     TIP3     H2       HT       0.417000       1.00800           0   0.00000     -0.301140E-02
     30590 TIP3     1892     TIP3     OH2      OT      -0.834000       15.9994           0   0.00000       0.00000    
     30591 TIP3     1892     TIP3     H1       HT       0.417000       1.00800           0   0.00000       0.00000    
     30592 TIP3     1892     TIP3     H2       HT       0.417000       1.00800           0   0.00000     -0.301140E-02
     30593 TIP3     1893     TIP3     OH2      OT      -0.834000       15.9994           0   0.00000       0.00000    
     30594 TIP3     1893     TIP3     H1       HT       0.417000       1.00800           0   0.00000       0.00000    
     30595 TIP3     1893     TIP3     H2       HT       0.417000       1.00800           0   0.00000     -0.301140E-02
     30596 TIP3     1894     TIP3     OH2      OT      -0.834000       15.9994           0   0.00000       0.00000    
     30597 TIP3     1894     TIP3     H1       HT       0.417000       1.00800           0   0.00000       0.00000    
     30598 TIP3     1894     TIP3     H2       HT       0.417000       1.00800           0   0.00000     -0.301140E-02
     30599 TIP3     1895     TIP3     OH2      OT      -0.834000       15.9994           0   0.00000       0.00000    
     30600 TIP3     1895     TIP3     H1       HT       0.417000       1.00800           0   0.00000       0.00000    
     30601 TIP3     1895     TIP3     H2       HT       0.417000       1.00800           0   0.00000     -0.301140E-02
     30602 TIP3     1896     TIP3     OH2      OT      -0.834000       15.9994           0   0.00000       0.00000    
     30603 TIP3     1896     TIP3     H1       HT       0.417000       1.00800           0   0.00000       0.00000    
     30604 TIP3     1896     TIP3     H2       HT       0.417000       1.00800           0   0.00000     -0.301140E-02
     30605 TIP3     1897     TIP3     OH2      OT      -0.834000       15.9994           0   0.00000       0.00000    
     30606 TIP3     1897     TIP3     H1       HT       0.417000       1.00800           0   0.00000       0.00000    
     30607 TIP3     1897     TIP3     H2       HT       0.417000       1.00800           0   0.00000     -0.301140E-02
     30608 TIP3     1898     TIP3     OH2      OT      -0.834000       15.9994           0   0.00000       0.00000    
     30609 TIP3     1898     TIP3     H1       HT       0.417000       1.00800           0   0.00000       0.00000    
     30610 TIP3     1898     TIP3     H2       HT       0.417000       1.00800           0   0.00000     -0.301140E-02
     30611 TIP3     1899     TIP3     OH2      OT      -0.834000       15.9994           0   0.00000       0.00000    
     30612 TIP3     1899     TIP3     H1       HT       0.417000       1.00800           0   0.00000       0.00000    
     30613 TIP3     1899     TIP3     H2       HT       0.417000       1.00800           0   0.00000     -0.301140E-02
     30614 TIP3     1900     TIP3     OH2      OT      -0.834000       15.9994           0   0.00000       0.00000    
     30615 TIP3     1900     TIP3     H1       HT       0.417000       1.00800           0   0.00000       0.00000    
     30616 TIP3     1900     TIP3     H2       HT       0.417000       1.00800           0   0.00000     -0.301140E-02
     30617 TIP3     1901     TIP3     OH2      OT      -0.834000       15.9994           0   0.00000       0.00000    
     30618 TIP3     1901     TIP3     H1       HT       0.417000       1.00800           0   0.00000       0.00000    
     30619 TIP3     1901     TIP3     H2       HT       0.417000       1.00800           0   0.00000     -0.301140E-02
     30620 TIP3     1902     TIP3     OH2      OT      -0.834000       15.9994           0   0.00000       0.00000    
     30621 TIP3     1902     TIP3     H1       HT       0.417000       1.00800           0   0.00000       0.00000    
     30622 TIP3     1902     TIP3     H2       HT       0.417000       1.00800           0   0.00000     -0.301140E-02
     30623 TIP3     1903     TIP3     OH2      OT      -0.834000       15.9994           0   0.00000       0.00000    
     30624 TIP3     1903     TIP3     H1       HT       0.417000       1.00800           0   0.00000       0.00000    
     30625 TIP3     1903     TIP3     H2       HT       0.417000       1.00800           0   0.00000     -0.301140E-02
     30626 TIP3     1904     TIP3     OH2      OT      -0.834000       15.9994           0   0.00000       0.00000    
     30627 TIP3     1904     TIP3     H1       HT       0.417000       1.00800           0   0.00000       0.00000    
     30628 TIP3     1904     TIP3     H2       HT       0.417000       1.00800           0   0.00000     -0.301140E-02
     30629 TIP3     1905     TIP3     OH2      OT      -0.834000       15.9994           0   0.00000       0.00000    
     30630 TIP3     1905     TIP3     H1       HT       0.417000       1.00800           0   0.00000       0.00000    
     30631 TIP3     1905     TIP3     H2       HT       0.417000       1.00800           0   0.00000     -0.301140E-02
     30632 TIP3     1906     TIP3     OH2      OT      -0.834000       15.9994           0   0.00000       0.00000    
     30633 TIP3     1906     TIP3     H1       HT       0.417000       1.00800           0   0.00000       0.00000    
     30634 TIP3     1906     TIP3     H2       HT       0.417000       1.00800           0   0.00000     -0.301140E-02
     30635 TIP3     1907     TIP3     OH2      OT      -0.834000       15.9994           0   0.00000       0.00000    
     30636 TIP3     1907     TIP3     H1       HT       0.417000       1.00800           0   0.00000       0.00000    
     30637 TIP3     1907     TIP3     H2       HT       0.417000       1.00800           0   0.00000     -0.301140E-02
     30638 TIP3     1908     TIP3     OH2      OT      -0.834000       15.9994           0   0.00000       0.00000    
     30639 TIP3     1908     TIP3     H1       HT       0.417000       1.00800           0   0.00000       0.00000    
     30640 TIP3     1908     TIP3     H2       HT       0.417000       1.00800           0   0.00000     -0.301140E-02
     30641 TIP3     1909     TIP3     OH2      OT      -0.834000       15.9994           0   0.00000       0.00000    
     30642 TIP3     1909     TIP3     H1       HT       0.417000       1.00800           0   0.00000       0.00000    
     30643 TIP3     1909     TIP3     H2       HT       0.417000       1.00800           0   0.00000     -0.301140E-02
     30644 TIP3     1910     TIP3     OH2      OT      -0.834000       15.9994           0   0.00000       0.00000    
     30645 TIP3     1910     TIP3     H1       HT       0.417000       1.00800           0   0.00000       0.00000    
     30646 TIP3     1910     TIP3     H2       HT       0.417000       1.00800           0   0.00000     -0.301140E-02
     30647 TIP3     1911     TIP3     OH2      OT      -0.834000       15.9994           0   0.00000       0.00000    
     30648 TIP3     1911     TIP3     H1       HT       0.417000       1.00800           0   0.00000       0.00000    
     30649 TIP3     1911     TIP3     H2       HT       0.417000       1.00800           0   0.00000     -0.301140E-02
     30650 TIP3     1912     TIP3     OH2      OT      -0.834000       15.9994           0   0.00000       0.00000    
     30651 TIP3     1912     TIP3     H1       HT       0.417000       1.00800           0   0.00000       0.00000    
     30652 TIP3     1912     TIP3     H2       HT       0.417000       1.00800           0   0.00000     -0.301140E-02
     30653 TIP3     1913     TIP3     OH2      OT      -0.834000       15.9994           0   0.00000       0.00000    
     30654 TIP3     1913     TIP3     H1       HT       0.417000       1.00800           0   0.00000       0.00000    
     30655 TIP3     1913     TIP3     H2       HT       0.417000       1.00800           0   0.00000     -0.301140E-02
     30656 TIP3     1914     TIP3     OH2      OT      -0.834000       15.9994           0   0.00000       0.00000    
     30657 TIP3     1914     TIP3     H1       HT       0.417000       1.00800           0   0.00000       0.00000    
     30658 TIP3     1914     TIP3     H2       HT       0.417000       1.00800           0   0.00000     -0.301140E-02
     30659 TIP3     1915     TIP3     OH2      OT      -0.834000       15.9994           0   0.00000       0.00000    
     30660 TIP3     1915     TIP3     H1       HT       0.417000       1.00800           0   0.00000       0.00000    
     30661 TIP3     1915     TIP3     H2       HT       0.417000       1.00800           0   0.00000     -0.301140E-02
     30662 TIP3     1916     TIP3     OH2      OT      -0.834000       15.9994           0   0.00000       0.00000    
     30663 TIP3     1916     TIP3     H1       HT       0.417000       1.00800           0   0.00000       0.00000    
     30664 TIP3     1916     TIP3     H2       HT       0.417000       1.00800           0   0.00000     -0.301140E-02
     30665 TIP3     1917     TIP3     OH2      OT      -0.834000       15.9994           0   0.00000       0.00000    
     30666 TIP3     1917     TIP3     H1       HT       0.417000       1.00800           0   0.00000       0.00000    
     30667 TIP3     1917     TIP3     H2       HT       0.417000       1.00800           0   0.00000     -0.301140E-02
     30668 TIP3     1918     TIP3     OH2      OT      -0.834000       15.9994           0   0.00000       0.00000    
     30669 TIP3     1918     TIP3     H1       HT       0.417000       1.00800           0   0.00000       0.00000    
     30670 TIP3     1918     TIP3     H2       HT       0.417000       1.00800           0   0.00000     -0.301140E-02
     30671 TIP3     1919     TIP3     OH2      OT      -0.834000       15.9994           0   0.00000       0.00000    
     30672 TIP3     1919     TIP3     H1       HT       0.417000       1.00800           0   0.00000       0.00000    
     30673 TIP3     1919     TIP3     H2       HT       0.417000       1.00800           0   0.00000     -0.301140E-02
     30674 TIP3     1920     TIP3     OH2      OT      -0.834000       15.9994           0   0.00000       0.00000    
     30675 TIP3     1920     TIP3     H1       HT       0.417000       1.00800           0   0.00000       0.00000    
     30676 TIP3     1920     TIP3     H2       HT       0.417000       1.00800           0   0.00000     -0.301140E-02
     30677 TIP3     1921     TIP3     OH2      OT      -0.834000       15.9994           0   0.00000       0.00000    
     30678 TIP3     1921     TIP3     H1       HT       0.417000       1.00800           0   0.00000       0.00000    
     30679 TIP3     1921     TIP3     H2       HT       0.417000       1.00800           0   0.00000     -0.301140E-02
     30680 TIP3     1922     TIP3     OH2      OT      -0.834000       15.9994           0   0.00000       0.00000    
     30681 TIP3     1922     TIP3     H1       HT       0.417000       1.00800           0   0.00000       0.00000    
     30682 TIP3     1922     TIP3     H2       HT       0.417000       1.00800           0   0.00000     -0.301140E-02
     30683 TIP3     1923     TIP3     OH2      OT      -0.834000       15.9994           0   0.00000       0.00000    
     30684 TIP3     1923     TIP3     H1       HT       0.417000       1.00800           0   0.00000       0.00000    
     30685 TIP3     1923     TIP3     H2       HT       0.417000       1.00800           0   0.00000     -0.301140E-02
     30686 TIP3     1924     TIP3     OH2      OT      -0.834000       15.9994           0   0.00000       0.00000    
     30687 TIP3     1924     TIP3     H1       HT       0.417000       1.00800           0   0.00000       0.00000    
     30688 TIP3     1924     TIP3     H2       HT       0.417000       1.00800           0   0.00000     -0.301140E-02
     30689 TIP3     1925     TIP3     OH2      OT      -0.834000       15.9994           0   0.00000       0.00000    
     30690 TIP3     1925     TIP3     H1       HT       0.417000       1.00800           0   0.00000       0.00000    
     30691 TIP3     1925     TIP3     H2       HT       0.417000       1.00800           0   0.00000     -0.301140E-02
     30692 TIP3     1926     TIP3     OH2      OT      -0.834000       15.9994           0   0.00000       0.00000    
     30693 TIP3     1926     TIP3     H1       HT       0.417000       1.00800           0   0.00000       0.00000    
     30694 TIP3     1926     TIP3     H2       HT       0.417000       1.00800           0   0.00000     -0.301140E-02
     30695 TIP3     1927     TIP3     OH2      OT      -0.834000       15.9994           0   0.00000       0.00000    
     30696 TIP3     1927     TIP3     H1       HT       0.417000       1.00800           0   0.00000       0.00000    
     30697 TIP3     1927     TIP3     H2       HT       0.417000       1.00800           0   0.00000     -0.301140E-02
     30698 TIP3     1928     TIP3     OH2      OT      -0.834000       15.9994           0   0.00000       0.00000    
     30699 TIP3     1928     TIP3     H1       HT       0.417000       1.00800           0   0.00000       0.00000    
     30700 TIP3     1928     TIP3     H2       HT       0.417000       1.00800           0   0.00000     -0.301140E-02
     30701 TIP3     1929     TIP3     OH2      OT      -0.834000       15.9994           0   0.00000       0.00000    
     30702 TIP3     1929     TIP3     H1       HT       0.417000       1.00800           0   0.00000       0.00000    
     30703 TIP3     1929     TIP3     H2       HT       0.417000       1.00800           0   0.00000     -0.301140E-02
     30704 TIP3     1930     TIP3     OH2      OT      -0.834000       15.9994           0   0.00000       0.00000    
     30705 TIP3     1930     TIP3     H1       HT       0.417000       1.00800           0   0.00000       0.00000    
     30706 TIP3     1930     TIP3     H2       HT       0.417000       1.00800           0   0.00000     -0.301140E-02
     30707 TIP3     1931     TIP3     OH2      OT      -0.834000       15.9994           0   0.00000       0.00000    
     30708 TIP3     1931     TIP3     H1       HT       0.417000       1.00800           0   0.00000       0.00000    
     30709 TIP3     1931     TIP3     H2       HT       0.417000       1.00800           0   0.00000     -0.301140E-02
     30710 TIP3     1932     TIP3     OH2      OT      -0.834000       15.9994           0   0.00000       0.00000    
     30711 TIP3     1932     TIP3     H1       HT       0.417000       1.00800           0   0.00000       0.00000    
     30712 TIP3     1932     TIP3     H2       HT       0.417000       1.00800           0   0.00000     -0.301140E-02
     30713 TIP3     1933     TIP3     OH2      OT      -0.834000       15.9994           0   0.00000       0.00000    
     30714 TIP3     1933     TIP3     H1       HT       0.417000       1.00800           0   0.00000       0.00000    
     30715 TIP3     1933     TIP3     H2       HT       0.417000       1.00800           0   0.00000     -0.301140E-02
     30716 TIP3     1934     TIP3     OH2      OT      -0.834000       15.9994           0   0.00000       0.00000    
     30717 TIP3     1934     TIP3     H1       HT       0.417000       1.00800           0   0.00000       0.00000    
     30718 TIP3     1934     TIP3     H2       HT       0.417000       1.00800           0   0.00000     -0.301140E-02
     30719 TIP3     1935     TIP3     OH2      OT      -0.834000       15.9994           0   0.00000       0.00000    
     30720 TIP3     1935     TIP3     H1       HT       0.417000       1.00800           0   0.00000       0.00000    
     30721 TIP3     1935     TIP3     H2       HT       0.417000       1.00800           0   0.00000     -0.301140E-02
     30722 TIP3     1936     TIP3     OH2      OT      -0.834000       15.9994           0   0.00000       0.00000    
     30723 TIP3     1936     TIP3     H1       HT       0.417000       1.00800           0   0.00000       0.00000    
     30724 TIP3     1936     TIP3     H2       HT       0.417000       1.00800           0   0.00000     -0.301140E-02
     30725 TIP3     1937     TIP3     OH2      OT      -0.834000       15.9994           0   0.00000       0.00000    
     30726 TIP3     1937     TIP3     H1       HT       0.417000       1.00800           0   0.00000       0.00000    
     30727 TIP3     1937     TIP3     H2       HT       0.417000       1.00800           0   0.00000     -0.301140E-02
     30728 TIP3     1938     TIP3     OH2      OT      -0.834000       15.9994           0   0.00000       0.00000    
     30729 TIP3     1938     TIP3     H1       HT       0.417000       1.00800           0   0.00000       0.00000    
     30730 TIP3     1938     TIP3     H2       HT       0.417000       1.00800           0   0.00000     -0.301140E-02
     30731 TIP3     1939     TIP3     OH2      OT      -0.834000       15.9994           0   0.00000       0.00000    
     30732 TIP3     1939     TIP3     H1       HT       0.417000       1.00800           0   0.00000       0.00000    
     30733 TIP3     1939     TIP3     H2       HT       0.417000       1.00800           0   0.00000     -0.301140E-02
     30734 TIP3     1940     TIP3     OH2      OT      -0.834000       15.9994           0   0.00000       0.00000    
     30735 TIP3     1940     TIP3     H1       HT       0.417000       1.00800           0   0.00000       0.00000    
     30736 TIP3     1940     TIP3     H2       HT       0.417000       1.00800           0   0.00000     -0.301140E-02
     30737 TIP3     1941     TIP3     OH2      OT      -0.834000       15.9994           0   0.00000       0.00000    
     30738 TIP3     1941     TIP3     H1       HT       0.417000       1.00800           0   0.00000       0.00000    
     30739 TIP3     1941     TIP3     H2       HT       0.417000       1.00800           0   0.00000     -0.301140E-02
     30740 TIP3     1942     TIP3     OH2      OT      -0.834000       15.9994           0   0.00000       0.00000    
     30741 TIP3     1942     TIP3     H1       HT       0.417000       1.00800           0   0.00000       0.00000    
     30742 TIP3     1942     TIP3     H2       HT       0.417000       1.00800           0   0.00000     -0.301140E-02
     30743 TIP3     1943     TIP3     OH2      OT      -0.834000       15.9994           0   0.00000       0.00000    
     30744 TIP3     1943     TIP3     H1       HT       0.417000       1.00800           0   0.00000       0.00000    
     30745 TIP3     1943     TIP3     H2       HT       0.417000       1.00800           0   0.00000     -0.301140E-02
     30746 TIP3     1944     TIP3     OH2      OT      -0.834000       15.9994           0   0.00000       0.00000    
     30747 TIP3     1944     TIP3     H1       HT       0.417000       1.00800           0   0.00000       0.00000    
     30748 TIP3     1944     TIP3     H2       HT       0.417000       1.00800           0   0.00000     -0.301140E-02
     30749 TIP3     1945     TIP3     OH2      OT      -0.834000       15.9994           0   0.00000       0.00000    
     30750 TIP3     1945     TIP3     H1       HT       0.417000       1.00800           0   0.00000       0.00000    
     30751 TIP3     1945     TIP3     H2       HT       0.417000       1.00800           0   0.00000     -0.301140E-02
     30752 TIP3     1946     TIP3     OH2      OT      -0.834000       15.9994           0   0.00000       0.00000    
     30753 TIP3     1946     TIP3     H1       HT       0.417000       1.00800           0   0.00000       0.00000    
     30754 TIP3     1946     TIP3     H2       HT       0.417000       1.00800           0   0.00000     -0.301140E-02
     30755 TIP3     1947     TIP3     OH2      OT      -0.834000       15.9994           0   0.00000       0.00000    
     30756 TIP3     1947     TIP3     H1       HT       0.417000       1.00800           0   0.00000       0.00000    
     30757 TIP3     1947     TIP3     H2       HT       0.417000       1.00800           0   0.00000     -0.301140E-02
     30758 TIP3     1948     TIP3     OH2      OT      -0.834000       15.9994           0   0.00000       0.00000    
     30759 TIP3     1948     TIP3     H1       HT       0.417000       1.00800           0   0.00000       0.00000    
     30760 TIP3     1948     TIP3     H2       HT       0.417000       1.00800           0   0.00000     -0.301140E-02
     30761 TIP3     1949     TIP3     OH2      OT      -0.834000       15.9994           0   0.00000       0.00000    
     30762 TIP3     1949     TIP3     H1       HT       0.417000       1.00800           0   0.00000       0.00000    
     30763 TIP3     1949     TIP3     H2       HT       0.417000       1.00800           0   0.00000     -0.301140E-02
     30764 TIP3     1950     TIP3     OH2      OT      -0.834000       15.9994           0   0.00000       0.00000    
     30765 TIP3     1950     TIP3     H1       HT       0.417000       1.00800           0   0.00000       0.00000    
     30766 TIP3     1950     TIP3     H2       HT       0.417000       1.00800           0   0.00000     -0.301140E-02
     30767 TIP3     1951     TIP3     OH2      OT      -0.834000       15.9994           0   0.00000       0.00000    
     30768 TIP3     1951     TIP3     H1       HT       0.417000       1.00800           0   0.00000       0.00000    
     30769 TIP3     1951     TIP3     H2       HT       0.417000       1.00800           0   0.00000     -0.301140E-02
     30770 TIP3     1952     TIP3     OH2      OT      -0.834000       15.9994           0   0.00000       0.00000    
     30771 TIP3     1952     TIP3     H1       HT       0.417000       1.00800           0   0.00000       0.00000    
     30772 TIP3     1952     TIP3     H2       HT       0.417000       1.00800           0   0.00000     -0.301140E-02
     30773 TIP3     1953     TIP3     OH2      OT      -0.834000       15.9994           0   0.00000       0.00000    
     30774 TIP3     1953     TIP3     H1       HT       0.417000       1.00800           0   0.00000       0.00000    
     30775 TIP3     1953     TIP3     H2       HT       0.417000       1.00800           0   0.00000     -0.301140E-02
     30776 TIP3     1954     TIP3     OH2      OT      -0.834000       15.9994           0   0.00000       0.00000    
     30777 TIP3     1954     TIP3     H1       HT       0.417000       1.00800           0   0.00000       0.00000    
     30778 TIP3     1954     TIP3     H2       HT       0.417000       1.00800           0   0.00000     -0.301140E-02
     30779 TIP3     1955     TIP3     OH2      OT      -0.834000       15.9994           0   0.00000       0.00000    
     30780 TIP3     1955     TIP3     H1       HT       0.417000       1.00800           0   0.00000       0.00000    
     30781 TIP3     1955     TIP3     H2       HT       0.417000       1.00800           0   0.00000     -0.301140E-02
     30782 TIP3     1956     TIP3     OH2      OT      -0.834000       15.9994           0   0.00000       0.00000    
     30783 TIP3     1956     TIP3     H1       HT       0.417000       1.00800           0   0.00000       0.00000    
     30784 TIP3     1956     TIP3     H2       HT       0.417000       1.00800           0   0.00000     -0.301140E-02
     30785 TIP3     1957     TIP3     OH2      OT      -0.834000       15.9994           0   0.00000       0.00000    
     30786 TIP3     1957     TIP3     H1       HT       0.417000       1.00800           0   0.00000       0.00000    
     30787 TIP3     1957     TIP3     H2       HT       0.417000       1.00800           0   0.00000     -0.301140E-02
     30788 TIP3     1958     TIP3     OH2      OT      -0.834000       15.9994           0   0.00000       0.00000    
     30789 TIP3     1958     TIP3     H1       HT       0.417000       1.00800           0   0.00000       0.00000    
     30790 TIP3     1958     TIP3     H2       HT       0.417000       1.00800           0   0.00000     -0.301140E-02
     30791 TIP3     1959     TIP3     OH2      OT      -0.834000       15.9994           0   0.00000       0.00000    
     30792 TIP3     1959     TIP3     H1       HT       0.417000       1.00800           0   0.00000       0.00000    
     30793 TIP3     1959     TIP3     H2       HT       0.417000       1.00800           0   0.00000     -0.301140E-02
     30794 TIP3     1960     TIP3     OH2      OT      -0.834000       15.9994           0   0.00000       0.00000    
     30795 TIP3     1960     TIP3     H1       HT       0.417000       1.00800           0   0.00000       0.00000    
     30796 TIP3     1960     TIP3     H2       HT       0.417000       1.00800           0   0.00000     -0.301140E-02
     30797 TIP3     1961     TIP3     OH2      OT      -0.834000       15.9994           0   0.00000       0.00000    
     30798 TIP3     1961     TIP3     H1       HT       0.417000       1.00800           0   0.00000       0.00000    
     30799 TIP3     1961     TIP3     H2       HT       0.417000       1.00800           0   0.00000     -0.301140E-02
     30800 TIP3     1962     TIP3     OH2      OT      -0.834000       15.9994           0   0.00000       0.00000    
     30801 TIP3     1962     TIP3     H1       HT       0.417000       1.00800           0   0.00000       0.00000    
     30802 TIP3     1962     TIP3     H2       HT       0.417000       1.00800           0   0.00000     -0.301140E-02
     30803 TIP3     1963     TIP3     OH2      OT      -0.834000       15.9994           0   0.00000       0.00000    
     30804 TIP3     1963     TIP3     H1       HT       0.417000       1.00800           0   0.00000       0.00000    
     30805 TIP3     1963     TIP3     H2       HT       0.417000       1.00800           0   0.00000     -0.301140E-02
     30806 TIP3     1964     TIP3     OH2      OT      -0.834000       15.9994           0   0.00000       0.00000    
     30807 TIP3     1964     TIP3     H1       HT       0.417000       1.00800           0   0.00000       0.00000    
     30808 TIP3     1964     TIP3     H2       HT       0.417000       1.00800           0   0.00000     -0.301140E-02
     30809 TIP3     1965     TIP3     OH2      OT      -0.834000       15.9994           0   0.00000       0.00000    
     30810 TIP3     1965     TIP3     H1       HT       0.417000       1.00800           0   0.00000       0.00000    
     30811 TIP3     1965     TIP3     H2       HT       0.417000       1.00800           0   0.00000     -0.301140E-02
     30812 TIP3     1966     TIP3     OH2      OT      -0.834000       15.9994           0   0.00000       0.00000    
     30813 TIP3     1966     TIP3     H1       HT       0.417000       1.00800           0   0.00000       0.00000    
     30814 TIP3     1966     TIP3     H2       HT       0.417000       1.00800           0   0.00000     -0.301140E-02
     30815 TIP3     1967     TIP3     OH2      OT      -0.834000       15.9994           0   0.00000       0.00000    
     30816 TIP3     1967     TIP3     H1       HT       0.417000       1.00800           0   0.00000       0.00000    
     30817 TIP3     1967     TIP3     H2       HT       0.417000       1.00800           0   0.00000     -0.301140E-02
     30818 TIP3     1968     TIP3     OH2      OT      -0.834000       15.9994           0   0.00000       0.00000    
     30819 TIP3     1968     TIP3     H1       HT       0.417000       1.00800           0   0.00000       0.00000    
     30820 TIP3     1968     TIP3     H2       HT       0.417000       1.00800           0   0.00000     -0.301140E-02
     30821 TIP3     1969     TIP3     OH2      OT      -0.834000       15.9994           0   0.00000       0.00000    
     30822 TIP3     1969     TIP3     H1       HT       0.417000       1.00800           0   0.00000       0.00000    
     30823 TIP3     1969     TIP3     H2       HT       0.417000       1.00800           0   0.00000     -0.301140E-02
     30824 TIP3     1970     TIP3     OH2      OT      -0.834000       15.9994           0   0.00000       0.00000    
     30825 TIP3     1970     TIP3     H1       HT       0.417000       1.00800           0   0.00000       0.00000    
     30826 TIP3     1970     TIP3     H2       HT       0.417000       1.00800           0   0.00000     -0.301140E-02
     30827 TIP3     1971     TIP3     OH2      OT      -0.834000       15.9994           0   0.00000       0.00000    
     30828 TIP3     1971     TIP3     H1       HT       0.417000       1.00800           0   0.00000       0.00000    
     30829 TIP3     1971     TIP3     H2       HT       0.417000       1.00800           0   0.00000     -0.301140E-02
     30830 TIP3     1972     TIP3     OH2      OT      -0.834000       15.9994           0   0.00000       0.00000    
     30831 TIP3     1972     TIP3     H1       HT       0.417000       1.00800           0   0.00000       0.00000    
     30832 TIP3     1972     TIP3     H2       HT       0.417000       1.00800           0   0.00000     -0.301140E-02
     30833 TIP3     1973     TIP3     OH2      OT      -0.834000       15.9994           0   0.00000       0.00000    
     30834 TIP3     1973     TIP3     H1       HT       0.417000       1.00800           0   0.00000       0.00000    
     30835 TIP3     1973     TIP3     H2       HT       0.417000       1.00800           0   0.00000     -0.301140E-02
     30836 TIP3     1974     TIP3     OH2      OT      -0.834000       15.9994           0   0.00000       0.00000    
     30837 TIP3     1974     TIP3     H1       HT       0.417000       1.00800           0   0.00000       0.00000    
     30838 TIP3     1974     TIP3     H2       HT       0.417000       1.00800           0   0.00000     -0.301140E-02
     30839 TIP3     1975     TIP3     OH2      OT      -0.834000       15.9994           0   0.00000       0.00000    
     30840 TIP3     1975     TIP3     H1       HT       0.417000       1.00800           0   0.00000       0.00000    
     30841 TIP3     1975     TIP3     H2       HT       0.417000       1.00800           0   0.00000     -0.301140E-02
     30842 TIP3     1976     TIP3     OH2      OT      -0.834000       15.9994           0   0.00000       0.00000    
     30843 TIP3     1976     TIP3     H1       HT       0.417000       1.00800           0   0.00000       0.00000    
     30844 TIP3     1976     TIP3     H2       HT       0.417000       1.00800           0   0.00000     -0.301140E-02
     30845 TIP3     1977     TIP3     OH2      OT      -0.834000       15.9994           0   0.00000       0.00000    
     30846 TIP3     1977     TIP3     H1       HT       0.417000       1.00800           0   0.00000       0.00000    
     30847 TIP3     1977     TIP3     H2       HT       0.417000       1.00800           0   0.00000     -0.301140E-02
     30848 TIP3     1978     TIP3     OH2      OT      -0.834000       15.9994           0   0.00000       0.00000    
     30849 TIP3     1978     TIP3     H1       HT       0.417000       1.00800           0   0.00000       0.00000    
     30850 TIP3     1978     TIP3     H2       HT       0.417000       1.00800           0   0.00000     -0.301140E-02
     30851 TIP3     1979     TIP3     OH2      OT      -0.834000       15.9994           0   0.00000       0.00000    
     30852 TIP3     1979     TIP3     H1       HT       0.417000       1.00800           0   0.00000       0.00000    
     30853 TIP3     1979     TIP3     H2       HT       0.417000       1.00800           0   0.00000     -0.301140E-02
     30854 TIP3     1980     TIP3     OH2      OT      -0.834000       15.9994           0   0.00000       0.00000    
     30855 TIP3     1980     TIP3     H1       HT       0.417000       1.00800           0   0.00000       0.00000    
     30856 TIP3     1980     TIP3     H2       HT       0.417000       1.00800           0   0.00000     -0.301140E-02
     30857 TIP3     1981     TIP3     OH2      OT      -0.834000       15.9994           0   0.00000       0.00000    
     30858 TIP3     1981     TIP3     H1       HT       0.417000       1.00800           0   0.00000       0.00000    
     30859 TIP3     1981     TIP3     H2       HT       0.417000       1.00800           0   0.00000     -0.301140E-02
     30860 TIP3     1982     TIP3     OH2      OT      -0.834000       15.9994           0   0.00000       0.00000    
     30861 TIP3     1982     TIP3     H1       HT       0.417000       1.00800           0   0.00000       0.00000    
     30862 TIP3     1982     TIP3     H2       HT       0.417000       1.00800           0   0.00000     -0.301140E-02
     30863 TIP3     1983     TIP3     OH2      OT      -0.834000       15.9994           0   0.00000       0.00000    
     30864 TIP3     1983     TIP3     H1       HT       0.417000       1.00800           0   0.00000       0.00000    
     30865 TIP3     1983     TIP3     H2       HT       0.417000       1.00800           0   0.00000     -0.301140E-02
     30866 TIP3     1984     TIP3     OH2      OT      -0.834000       15.9994           0   0.00000       0.00000    
     30867 TIP3     1984     TIP3     H1       HT       0.417000       1.00800           0   0.00000       0.00000    
     30868 TIP3     1984     TIP3     H2       HT       0.417000       1.00800           0   0.00000     -0.301140E-02
     30869 TIP3     1985     TIP3     OH2      OT      -0.834000       15.9994           0   0.00000       0.00000    
     30870 TIP3     1985     TIP3     H1       HT       0.417000       1.00800           0   0.00000       0.00000    
     30871 TIP3     1985     TIP3     H2       HT       0.417000       1.00800           0   0.00000     -0.301140E-02
     30872 TIP3     1986     TIP3     OH2      OT      -0.834000       15.9994           0   0.00000       0.00000    
     30873 TIP3     1986     TIP3     H1       HT       0.417000       1.00800           0   0.00000       0.00000    
     30874 TIP3     1986     TIP3     H2       HT       0.417000       1.00800           0   0.00000     -0.301140E-02
     30875 TIP3     1987     TIP3     OH2      OT      -0.834000       15.9994           0   0.00000       0.00000    
     30876 TIP3     1987     TIP3     H1       HT       0.417000       1.00800           0   0.00000       0.00000    
     30877 TIP3     1987     TIP3     H2       HT       0.417000       1.00800           0   0.00000     -0.301140E-02
     30878 TIP3     1988     TIP3     OH2      OT      -0.834000       15.9994           0   0.00000       0.00000    
     30879 TIP3     1988     TIP3     H1       HT       0.417000       1.00800           0   0.00000       0.00000    
     30880 TIP3     1988     TIP3     H2       HT       0.417000       1.00800           0   0.00000     -0.301140E-02
     30881 TIP3     1989     TIP3     OH2      OT      -0.834000       15.9994           0   0.00000       0.00000    
     30882 TIP3     1989     TIP3     H1       HT       0.417000       1.00800           0   0.00000       0.00000    
     30883 TIP3     1989     TIP3     H2       HT       0.417000       1.00800           0   0.00000     -0.301140E-02
     30884 TIP3     1990     TIP3     OH2      OT      -0.834000       15.9994           0   0.00000       0.00000    
     30885 TIP3     1990     TIP3     H1       HT       0.417000       1.00800           0   0.00000       0.00000    
     30886 TIP3     1990     TIP3     H2       HT       0.417000       1.00800           0   0.00000     -0.301140E-02
     30887 TIP3     1991     TIP3     OH2      OT      -0.834000       15.9994           0   0.00000       0.00000    
     30888 TIP3     1991     TIP3     H1       HT       0.417000       1.00800           0   0.00000       0.00000    
     30889 TIP3     1991     TIP3     H2       HT       0.417000       1.00800           0   0.00000     -0.301140E-02
     30890 TIP3     1992     TIP3     OH2      OT      -0.834000       15.9994           0   0.00000       0.00000    
     30891 TIP3     1992     TIP3     H1       HT       0.417000       1.00800           0   0.00000       0.00000    
     30892 TIP3     1992     TIP3     H2       HT       0.417000       1.00800           0   0.00000     -0.301140E-02
     30893 TIP3     1993     TIP3     OH2      OT      -0.834000       15.9994           0   0.00000       0.00000    
     30894 TIP3     1993     TIP3     H1       HT       0.417000       1.00800           0   0.00000       0.00000    
     30895 TIP3     1993     TIP3     H2       HT       0.417000       1.00800           0   0.00000     -0.301140E-02
     30896 TIP3     1994     TIP3     OH2      OT      -0.834000       15.9994           0   0.00000       0.00000    
     30897 TIP3     1994     TIP3     H1       HT       0.417000       1.00800           0   0.00000       0.00000    
     30898 TIP3     1994     TIP3     H2       HT       0.417000       1.00800           0   0.00000     -0.301140E-02
     30899 TIP3     1995     TIP3     OH2      OT      -0.834000       15.9994           0   0.00000       0.00000    
     30900 TIP3     1995     TIP3     H1       HT       0.417000       1.00800           0   0.00000       0.00000    
     30901 TIP3     1995     TIP3     H2       HT       0.417000       1.00800           0   0.00000     -0.301140E-02
     30902 TIP3     1996     TIP3     OH2      OT      -0.834000       15.9994           0   0.00000       0.00000    
     30903 TIP3     1996     TIP3     H1       HT       0.417000       1.00800           0   0.00000       0.00000    
     30904 TIP3     1996     TIP3     H2       HT       0.417000       1.00800           0   0.00000     -0.301140E-02
     30905 TIP3     1997     TIP3     OH2      OT      -0.834000       15.9994           0   0.00000       0.00000    
     30906 TIP3     1997     TIP3     H1       HT       0.417000       1.00800           0   0.00000       0.00000    
     30907 TIP3     1997     TIP3     H2       HT       0.417000       1.00800           0   0.00000     -0.301140E-02
     30908 TIP3     1998     TIP3     OH2      OT      -0.834000       15.9994           0   0.00000       0.00000    
     30909 TIP3     1998     TIP3     H1       HT       0.417000       1.00800           0   0.00000       0.00000    
     30910 TIP3     1998     TIP3     H2       HT       0.417000       1.00800           0   0.00000     -0.301140E-02
     30911 TIP3     1999     TIP3     OH2      OT      -0.834000       15.9994           0   0.00000       0.00000    
     30912 TIP3     1999     TIP3     H1       HT       0.417000       1.00800           0   0.00000       0.00000    
     30913 TIP3     1999     TIP3     H2       HT       0.417000       1.00800           0   0.00000     -0.301140E-02
     30914 TIP3     2000     TIP3     OH2      OT      -0.834000       15.9994           0   0.00000       0.00000    
     30915 TIP3     2000     TIP3     H1       HT       0.417000       1.00800           0   0.00000       0.00000    
     30916 TIP3     2000     TIP3     H2       HT       0.417000       1.00800           0   0.00000     -0.301140E-02
     30917 TIP3     2001     TIP3     OH2      OT      -0.834000       15.9994           0   0.00000       0.00000    
     30918 TIP3     2001     TIP3     H1       HT       0.417000       1.00800           0   0.00000       0.00000    
     30919 TIP3     2001     TIP3     H2       HT       0.417000       1.00800           0   0.00000     -0.301140E-02
     30920 TIP3     2002     TIP3     OH2      OT      -0.834000       15.9994           0   0.00000       0.00000    
     30921 TIP3     2002     TIP3     H1       HT       0.417000       1.00800           0   0.00000       0.00000    
     30922 TIP3     2002     TIP3     H2       HT       0.417000       1.00800           0   0.00000     -0.301140E-02
     30923 TIP3     2003     TIP3     OH2      OT      -0.834000       15.9994           0   0.00000       0.00000    
     30924 TIP3     2003     TIP3     H1       HT       0.417000       1.00800           0   0.00000       0.00000    
     30925 TIP3     2003     TIP3     H2       HT       0.417000       1.00800           0   0.00000     -0.301140E-02
     30926 TIP3     2004     TIP3     OH2      OT      -0.834000       15.9994           0   0.00000       0.00000    
     30927 TIP3     2004     TIP3     H1       HT       0.417000       1.00800           0   0.00000       0.00000    
     30928 TIP3     2004     TIP3     H2       HT       0.417000       1.00800           0   0.00000     -0.301140E-02
     30929 TIP3     2005     TIP3     OH2      OT      -0.834000       15.9994           0   0.00000       0.00000    
     30930 TIP3     2005     TIP3     H1       HT       0.417000       1.00800           0   0.00000       0.00000    
     30931 TIP3     2005     TIP3     H2       HT       0.417000       1.00800           0   0.00000     -0.301140E-02
     30932 TIP3     2006     TIP3     OH2      OT      -0.834000       15.9994           0   0.00000       0.00000    
     30933 TIP3     2006     TIP3     H1       HT       0.417000       1.00800           0   0.00000       0.00000    
     30934 TIP3     2006     TIP3     H2       HT       0.417000       1.00800           0   0.00000     -0.301140E-02
     30935 TIP3     2007     TIP3     OH2      OT      -0.834000       15.9994           0   0.00000       0.00000    
     30936 TIP3     2007     TIP3     H1       HT       0.417000       1.00800           0   0.00000       0.00000    
     30937 TIP3     2007     TIP3     H2       HT       0.417000       1.00800           0   0.00000     -0.301140E-02
     30938 TIP3     2008     TIP3     OH2      OT      -0.834000       15.9994           0   0.00000       0.00000    
     30939 TIP3     2008     TIP3     H1       HT       0.417000       1.00800           0   0.00000       0.00000    
     30940 TIP3     2008     TIP3     H2       HT       0.417000       1.00800           0   0.00000     -0.301140E-02
     30941 TIP3     2009     TIP3     OH2      OT      -0.834000       15.9994           0   0.00000       0.00000    
     30942 TIP3     2009     TIP3     H1       HT       0.417000       1.00800           0   0.00000       0.00000    
     30943 TIP3     2009     TIP3     H2       HT       0.417000       1.00800           0   0.00000     -0.301140E-02
     30944 TIP3     2010     TIP3     OH2      OT      -0.834000       15.9994           0   0.00000       0.00000    
     30945 TIP3     2010     TIP3     H1       HT       0.417000       1.00800           0   0.00000       0.00000    
     30946 TIP3     2010     TIP3     H2       HT       0.417000       1.00800           0   0.00000     -0.301140E-02
     30947 TIP3     2011     TIP3     OH2      OT      -0.834000       15.9994           0   0.00000       0.00000    
     30948 TIP3     2011     TIP3     H1       HT       0.417000       1.00800           0   0.00000       0.00000    
     30949 TIP3     2011     TIP3     H2       HT       0.417000       1.00800           0   0.00000     -0.301140E-02
     30950 TIP3     2012     TIP3     OH2      OT      -0.834000       15.9994           0   0.00000       0.00000    
     30951 TIP3     2012     TIP3     H1       HT       0.417000       1.00800           0   0.00000       0.00000    
     30952 TIP3     2012     TIP3     H2       HT       0.417000       1.00800           0   0.00000     -0.301140E-02
     30953 TIP3     2013     TIP3     OH2      OT      -0.834000       15.9994           0   0.00000       0.00000    
     30954 TIP3     2013     TIP3     H1       HT       0.417000       1.00800           0   0.00000       0.00000    
     30955 TIP3     2013     TIP3     H2       HT       0.417000       1.00800           0   0.00000     -0.301140E-02
     30956 TIP3     2014     TIP3     OH2      OT      -0.834000       15.9994           0   0.00000       0.00000    
     30957 TIP3     2014     TIP3     H1       HT       0.417000       1.00800           0   0.00000       0.00000    
     30958 TIP3     2014     TIP3     H2       HT       0.417000       1.00800           0   0.00000     -0.301140E-02
     30959 TIP3     2015     TIP3     OH2      OT      -0.834000       15.9994           0   0.00000       0.00000    
     30960 TIP3     2015     TIP3     H1       HT       0.417000       1.00800           0   0.00000       0.00000    
     30961 TIP3     2015     TIP3     H2       HT       0.417000       1.00800           0   0.00000     -0.301140E-02
     30962 TIP3     2016     TIP3     OH2      OT      -0.834000       15.9994           0   0.00000       0.00000    
     30963 TIP3     2016     TIP3     H1       HT       0.417000       1.00800           0   0.00000       0.00000    
     30964 TIP3     2016     TIP3     H2       HT       0.417000       1.00800           0   0.00000     -0.301140E-02
     30965 TIP3     2017     TIP3     OH2      OT      -0.834000       15.9994           0   0.00000       0.00000    
     30966 TIP3     2017     TIP3     H1       HT       0.417000       1.00800           0   0.00000       0.00000    
     30967 TIP3     2017     TIP3     H2       HT       0.417000       1.00800           0   0.00000     -0.301140E-02
     30968 TIP3     2018     TIP3     OH2      OT      -0.834000       15.9994           0   0.00000       0.00000    
     30969 TIP3     2018     TIP3     H1       HT       0.417000       1.00800           0   0.00000       0.00000    
     30970 TIP3     2018     TIP3     H2       HT       0.417000       1.00800           0   0.00000     -0.301140E-02
     30971 TIP3     2019     TIP3     OH2      OT      -0.834000       15.9994           0   0.00000       0.00000    
     30972 TIP3     2019     TIP3     H1       HT       0.417000       1.00800           0   0.00000       0.00000    
     30973 TIP3     2019     TIP3     H2       HT       0.417000       1.00800           0   0.00000     -0.301140E-02
     30974 TIP3     2020     TIP3     OH2      OT      -0.834000       15.9994           0   0.00000       0.00000    
     30975 TIP3     2020     TIP3     H1       HT       0.417000       1.00800           0   0.00000       0.00000    
     30976 TIP3     2020     TIP3     H2       HT       0.417000       1.00800           0   0.00000     -0.301140E-02
     30977 TIP3     2021     TIP3     OH2      OT      -0.834000       15.9994           0   0.00000       0.00000    
     30978 TIP3     2021     TIP3     H1       HT       0.417000       1.00800           0   0.00000       0.00000    
     30979 TIP3     2021     TIP3     H2       HT       0.417000       1.00800           0   0.00000     -0.301140E-02
     30980 TIP3     2022     TIP3     OH2      OT      -0.834000       15.9994           0   0.00000       0.00000    
     30981 TIP3     2022     TIP3     H1       HT       0.417000       1.00800           0   0.00000       0.00000    
     30982 TIP3     2022     TIP3     H2       HT       0.417000       1.00800           0   0.00000     -0.301140E-02
     30983 TIP3     2023     TIP3     OH2      OT      -0.834000       15.9994           0   0.00000       0.00000    
     30984 TIP3     2023     TIP3     H1       HT       0.417000       1.00800           0   0.00000       0.00000    
     30985 TIP3     2023     TIP3     H2       HT       0.417000       1.00800           0   0.00000     -0.301140E-02
     30986 TIP3     2024     TIP3     OH2      OT      -0.834000       15.9994           0   0.00000       0.00000    
     30987 TIP3     2024     TIP3     H1       HT       0.417000       1.00800           0   0.00000       0.00000    
     30988 TIP3     2024     TIP3     H2       HT       0.417000       1.00800           0   0.00000     -0.301140E-02
     30989 TIP3     2025     TIP3     OH2      OT      -0.834000       15.9994           0   0.00000       0.00000    
     30990 TIP3     2025     TIP3     H1       HT       0.417000       1.00800           0   0.00000       0.00000    
     30991 TIP3     2025     TIP3     H2       HT       0.417000       1.00800           0   0.00000     -0.301140E-02
     30992 TIP3     2026     TIP3     OH2      OT      -0.834000       15.9994           0   0.00000       0.00000    
     30993 TIP3     2026     TIP3     H1       HT       0.417000       1.00800           0   0.00000       0.00000    
     30994 TIP3     2026     TIP3     H2       HT       0.417000       1.00800           0   0.00000     -0.301140E-02
     30995 TIP3     2027     TIP3     OH2      OT      -0.834000       15.9994           0   0.00000       0.00000    
     30996 TIP3     2027     TIP3     H1       HT       0.417000       1.00800           0   0.00000       0.00000    
     30997 TIP3     2027     TIP3     H2       HT       0.417000       1.00800           0   0.00000     -0.301140E-02
     30998 TIP3     2028     TIP3     OH2      OT      -0.834000       15.9994           0   0.00000       0.00000    
     30999 TIP3     2028     TIP3     H1       HT       0.417000       1.00800           0   0.00000       0.00000    
     31000 TIP3     2028     TIP3     H2       HT       0.417000       1.00800           0   0.00000     -0.301140E-02
     31001 TIP3     2029     TIP3     OH2      OT      -0.834000       15.9994           0   0.00000       0.00000    
     31002 TIP3     2029     TIP3     H1       HT       0.417000       1.00800           0   0.00000       0.00000    
     31003 TIP3     2029     TIP3     H2       HT       0.417000       1.00800           0   0.00000     -0.301140E-02
     31004 TIP3     2030     TIP3     OH2      OT      -0.834000       15.9994           0   0.00000       0.00000    
     31005 TIP3     2030     TIP3     H1       HT       0.417000       1.00800           0   0.00000       0.00000    
     31006 TIP3     2030     TIP3     H2       HT       0.417000       1.00800           0   0.00000     -0.301140E-02
     31007 TIP3     2031     TIP3     OH2      OT      -0.834000       15.9994           0   0.00000       0.00000    
     31008 TIP3     2031     TIP3     H1       HT       0.417000       1.00800           0   0.00000       0.00000    
     31009 TIP3     2031     TIP3     H2       HT       0.417000       1.00800           0   0.00000     -0.301140E-02
     31010 TIP3     2032     TIP3     OH2      OT      -0.834000       15.9994           0   0.00000       0.00000    
     31011 TIP3     2032     TIP3     H1       HT       0.417000       1.00800           0   0.00000       0.00000    
     31012 TIP3     2032     TIP3     H2       HT       0.417000       1.00800           0   0.00000     -0.301140E-02
     31013 TIP3     2033     TIP3     OH2      OT      -0.834000       15.9994           0   0.00000       0.00000    
     31014 TIP3     2033     TIP3     H1       HT       0.417000       1.00800           0   0.00000       0.00000    
     31015 TIP3     2033     TIP3     H2       HT       0.417000       1.00800           0   0.00000     -0.301140E-02
     31016 TIP3     2034     TIP3     OH2      OT      -0.834000       15.9994           0   0.00000       0.00000    
     31017 TIP3     2034     TIP3     H1       HT       0.417000       1.00800           0   0.00000       0.00000    
     31018 TIP3     2034     TIP3     H2       HT       0.417000       1.00800           0   0.00000     -0.301140E-02
     31019 TIP3     2035     TIP3     OH2      OT      -0.834000       15.9994           0   0.00000       0.00000    
     31020 TIP3     2035     TIP3     H1       HT       0.417000       1.00800           0   0.00000       0.00000    
     31021 TIP3     2035     TIP3     H2       HT       0.417000       1.00800           0   0.00000     -0.301140E-02
     31022 TIP3     2036     TIP3     OH2      OT      -0.834000       15.9994           0   0.00000       0.00000    
     31023 TIP3     2036     TIP3     H1       HT       0.417000       1.00800           0   0.00000       0.00000    
     31024 TIP3     2036     TIP3     H2       HT       0.417000       1.00800           0   0.00000     -0.301140E-02
     31025 TIP3     2037     TIP3     OH2      OT      -0.834000       15.9994           0   0.00000       0.00000    
     31026 TIP3     2037     TIP3     H1       HT       0.417000       1.00800           0   0.00000       0.00000    
     31027 TIP3     2037     TIP3     H2       HT       0.417000       1.00800           0   0.00000     -0.301140E-02
     31028 TIP3     2038     TIP3     OH2      OT      -0.834000       15.9994           0   0.00000       0.00000    
     31029 TIP3     2038     TIP3     H1       HT       0.417000       1.00800           0   0.00000       0.00000    
     31030 TIP3     2038     TIP3     H2       HT       0.417000       1.00800           0   0.00000     -0.301140E-02
     31031 TIP3     2039     TIP3     OH2      OT      -0.834000       15.9994           0   0.00000       0.00000    
     31032 TIP3     2039     TIP3     H1       HT       0.417000       1.00800           0   0.00000       0.00000    
     31033 TIP3     2039     TIP3     H2       HT       0.417000       1.00800           0   0.00000     -0.301140E-02
     31034 TIP3     2040     TIP3     OH2      OT      -0.834000       15.9994           0   0.00000       0.00000    
     31035 TIP3     2040     TIP3     H1       HT       0.417000       1.00800           0   0.00000       0.00000    
     31036 TIP3     2040     TIP3     H2       HT       0.417000       1.00800           0   0.00000     -0.301140E-02
     31037 TIP3     2041     TIP3     OH2      OT      -0.834000       15.9994           0   0.00000       0.00000    
     31038 TIP3     2041     TIP3     H1       HT       0.417000       1.00800           0   0.00000       0.00000    
     31039 TIP3     2041     TIP3     H2       HT       0.417000       1.00800           0   0.00000     -0.301140E-02
     31040 TIP3     2042     TIP3     OH2      OT      -0.834000       15.9994           0   0.00000       0.00000    
     31041 TIP3     2042     TIP3     H1       HT       0.417000       1.00800           0   0.00000       0.00000    
     31042 TIP3     2042     TIP3     H2       HT       0.417000       1.00800           0   0.00000     -0.301140E-02
     31043 TIP3     2043     TIP3     OH2      OT      -0.834000       15.9994           0   0.00000       0.00000    
     31044 TIP3     2043     TIP3     H1       HT       0.417000       1.00800           0   0.00000       0.00000    
     31045 TIP3     2043     TIP3     H2       HT       0.417000       1.00800           0   0.00000     -0.301140E-02
     31046 TIP3     2044     TIP3     OH2      OT      -0.834000       15.9994           0   0.00000       0.00000    
     31047 TIP3     2044     TIP3     H1       HT       0.417000       1.00800           0   0.00000       0.00000    
     31048 TIP3     2044     TIP3     H2       HT       0.417000       1.00800           0   0.00000     -0.301140E-02
     31049 TIP3     2045     TIP3     OH2      OT      -0.834000       15.9994           0   0.00000       0.00000    
     31050 TIP3     2045     TIP3     H1       HT       0.417000       1.00800           0   0.00000       0.00000    
     31051 TIP3     2045     TIP3     H2       HT       0.417000       1.00800           0   0.00000     -0.301140E-02
     31052 TIP3     2046     TIP3     OH2      OT      -0.834000       15.9994           0   0.00000       0.00000    
     31053 TIP3     2046     TIP3     H1       HT       0.417000       1.00800           0   0.00000       0.00000    
     31054 TIP3     2046     TIP3     H2       HT       0.417000       1.00800           0   0.00000     -0.301140E-02
     31055 TIP3     2047     TIP3     OH2      OT      -0.834000       15.9994           0   0.00000       0.00000    
     31056 TIP3     2047     TIP3     H1       HT       0.417000       1.00800           0   0.00000       0.00000    
     31057 TIP3     2047     TIP3     H2       HT       0.417000       1.00800           0   0.00000     -0.301140E-02
     31058 TIP3     2048     TIP3     OH2      OT      -0.834000       15.9994           0   0.00000       0.00000    
     31059 TIP3     2048     TIP3     H1       HT       0.417000       1.00800           0   0.00000       0.00000    
     31060 TIP3     2048     TIP3     H2       HT       0.417000       1.00800           0   0.00000     -0.301140E-02
     31061 TIP3     2049     TIP3     OH2      OT      -0.834000       15.9994           0   0.00000       0.00000    
     31062 TIP3     2049     TIP3     H1       HT       0.417000       1.00800           0   0.00000       0.00000    
     31063 TIP3     2049     TIP3     H2       HT       0.417000       1.00800           0   0.00000     -0.301140E-02
     31064 TIP3     2050     TIP3     OH2      OT      -0.834000       15.9994           0   0.00000       0.00000    
     31065 TIP3     2050     TIP3     H1       HT       0.417000       1.00800           0   0.00000       0.00000    
     31066 TIP3     2050     TIP3     H2       HT       0.417000       1.00800           0   0.00000     -0.301140E-02
     31067 TIP3     2051     TIP3     OH2      OT      -0.834000       15.9994           0   0.00000       0.00000    
     31068 TIP3     2051     TIP3     H1       HT       0.417000       1.00800           0   0.00000       0.00000    
     31069 TIP3     2051     TIP3     H2       HT       0.417000       1.00800           0   0.00000     -0.301140E-02
     31070 TIP3     2052     TIP3     OH2      OT      -0.834000       15.9994           0   0.00000       0.00000    
     31071 TIP3     2052     TIP3     H1       HT       0.417000       1.00800           0   0.00000       0.00000    
     31072 TIP3     2052     TIP3     H2       HT       0.417000       1.00800           0   0.00000     -0.301140E-02
     31073 TIP3     2053     TIP3     OH2      OT      -0.834000       15.9994           0   0.00000       0.00000    
     31074 TIP3     2053     TIP3     H1       HT       0.417000       1.00800           0   0.00000       0.00000    
     31075 TIP3     2053     TIP3     H2       HT       0.417000       1.00800           0   0.00000     -0.301140E-02
     31076 TIP3     2054     TIP3     OH2      OT      -0.834000       15.9994           0   0.00000       0.00000    
     31077 TIP3     2054     TIP3     H1       HT       0.417000       1.00800           0   0.00000       0.00000    
     31078 TIP3     2054     TIP3     H2       HT       0.417000       1.00800           0   0.00000     -0.301140E-02
     31079 TIP3     2055     TIP3     OH2      OT      -0.834000       15.9994           0   0.00000       0.00000    
     31080 TIP3     2055     TIP3     H1       HT       0.417000       1.00800           0   0.00000       0.00000    
     31081 TIP3     2055     TIP3     H2       HT       0.417000       1.00800           0   0.00000     -0.301140E-02
     31082 TIP3     2056     TIP3     OH2      OT      -0.834000       15.9994           0   0.00000       0.00000    
     31083 TIP3     2056     TIP3     H1       HT       0.417000       1.00800           0   0.00000       0.00000    
     31084 TIP3     2056     TIP3     H2       HT       0.417000       1.00800           0   0.00000     -0.301140E-02
     31085 TIP3     2057     TIP3     OH2      OT      -0.834000       15.9994           0   0.00000       0.00000    
     31086 TIP3     2057     TIP3     H1       HT       0.417000       1.00800           0   0.00000       0.00000    
     31087 TIP3     2057     TIP3     H2       HT       0.417000       1.00800           0   0.00000     -0.301140E-02
     31088 TIP3     2058     TIP3     OH2      OT      -0.834000       15.9994           0   0.00000       0.00000    
     31089 TIP3     2058     TIP3     H1       HT       0.417000       1.00800           0   0.00000       0.00000    
     31090 TIP3     2058     TIP3     H2       HT       0.417000       1.00800           0   0.00000     -0.301140E-02
     31091 TIP3     2059     TIP3     OH2      OT      -0.834000       15.9994           0   0.00000       0.00000    
     31092 TIP3     2059     TIP3     H1       HT       0.417000       1.00800           0   0.00000       0.00000    
     31093 TIP3     2059     TIP3     H2       HT       0.417000       1.00800           0   0.00000     -0.301140E-02
     31094 TIP3     2060     TIP3     OH2      OT      -0.834000       15.9994           0   0.00000       0.00000    
     31095 TIP3     2060     TIP3     H1       HT       0.417000       1.00800           0   0.00000       0.00000    
     31096 TIP3     2060     TIP3     H2       HT       0.417000       1.00800           0   0.00000     -0.301140E-02
     31097 TIP3     2061     TIP3     OH2      OT      -0.834000       15.9994           0   0.00000       0.00000    
     31098 TIP3     2061     TIP3     H1       HT       0.417000       1.00800           0   0.00000       0.00000    
     31099 TIP3     2061     TIP3     H2       HT       0.417000       1.00800           0   0.00000     -0.301140E-02
     31100 TIP3     2062     TIP3     OH2      OT      -0.834000       15.9994           0   0.00000       0.00000    
     31101 TIP3     2062     TIP3     H1       HT       0.417000       1.00800           0   0.00000       0.00000    
     31102 TIP3     2062     TIP3     H2       HT       0.417000       1.00800           0   0.00000     -0.301140E-02
     31103 TIP3     2063     TIP3     OH2      OT      -0.834000       15.9994           0   0.00000       0.00000    
     31104 TIP3     2063     TIP3     H1       HT       0.417000       1.00800           0   0.00000       0.00000    
     31105 TIP3     2063     TIP3     H2       HT       0.417000       1.00800           0   0.00000     -0.301140E-02
     31106 TIP3     2064     TIP3     OH2      OT      -0.834000       15.9994           0   0.00000       0.00000    
     31107 TIP3     2064     TIP3     H1       HT       0.417000       1.00800           0   0.00000       0.00000    
     31108 TIP3     2064     TIP3     H2       HT       0.417000       1.00800           0   0.00000     -0.301140E-02
     31109 TIP3     2065     TIP3     OH2      OT      -0.834000       15.9994           0   0.00000       0.00000    
     31110 TIP3     2065     TIP3     H1       HT       0.417000       1.00800           0   0.00000       0.00000    
     31111 TIP3     2065     TIP3     H2       HT       0.417000       1.00800           0   0.00000     -0.301140E-02
     31112 TIP3     2066     TIP3     OH2      OT      -0.834000       15.9994           0   0.00000       0.00000    
     31113 TIP3     2066     TIP3     H1       HT       0.417000       1.00800           0   0.00000       0.00000    
     31114 TIP3     2066     TIP3     H2       HT       0.417000       1.00800           0   0.00000     -0.301140E-02
     31115 TIP3     2067     TIP3     OH2      OT      -0.834000       15.9994           0   0.00000       0.00000    
     31116 TIP3     2067     TIP3     H1       HT       0.417000       1.00800           0   0.00000       0.00000    
     31117 TIP3     2067     TIP3     H2       HT       0.417000       1.00800           0   0.00000     -0.301140E-02
     31118 TIP3     2068     TIP3     OH2      OT      -0.834000       15.9994           0   0.00000       0.00000    
     31119 TIP3     2068     TIP3     H1       HT       0.417000       1.00800           0   0.00000       0.00000    
     31120 TIP3     2068     TIP3     H2       HT       0.417000       1.00800           0   0.00000     -0.301140E-02
     31121 TIP3     2069     TIP3     OH2      OT      -0.834000       15.9994           0   0.00000       0.00000    
     31122 TIP3     2069     TIP3     H1       HT       0.417000       1.00800           0   0.00000       0.00000    
     31123 TIP3     2069     TIP3     H2       HT       0.417000       1.00800           0   0.00000     -0.301140E-02
     31124 TIP3     2070     TIP3     OH2      OT      -0.834000       15.9994           0   0.00000       0.00000    
     31125 TIP3     2070     TIP3     H1       HT       0.417000       1.00800           0   0.00000       0.00000    
     31126 TIP3     2070     TIP3     H2       HT       0.417000       1.00800           0   0.00000     -0.301140E-02
     31127 TIP3     2071     TIP3     OH2      OT      -0.834000       15.9994           0   0.00000       0.00000    
     31128 TIP3     2071     TIP3     H1       HT       0.417000       1.00800           0   0.00000       0.00000    
     31129 TIP3     2071     TIP3     H2       HT       0.417000       1.00800           0   0.00000     -0.301140E-02
     31130 TIP3     2072     TIP3     OH2      OT      -0.834000       15.9994           0   0.00000       0.00000    
     31131 TIP3     2072     TIP3     H1       HT       0.417000       1.00800           0   0.00000       0.00000    
     31132 TIP3     2072     TIP3     H2       HT       0.417000       1.00800           0   0.00000     -0.301140E-02
     31133 TIP3     2073     TIP3     OH2      OT      -0.834000       15.9994           0   0.00000       0.00000    
     31134 TIP3     2073     TIP3     H1       HT       0.417000       1.00800           0   0.00000       0.00000    
     31135 TIP3     2073     TIP3     H2       HT       0.417000       1.00800           0   0.00000     -0.301140E-02
     31136 TIP3     2074     TIP3     OH2      OT      -0.834000       15.9994           0   0.00000       0.00000    
     31137 TIP3     2074     TIP3     H1       HT       0.417000       1.00800           0   0.00000       0.00000    
     31138 TIP3     2074     TIP3     H2       HT       0.417000       1.00800           0   0.00000     -0.301140E-02
     31139 TIP3     2075     TIP3     OH2      OT      -0.834000       15.9994           0   0.00000       0.00000    
     31140 TIP3     2075     TIP3     H1       HT       0.417000       1.00800           0   0.00000       0.00000    
     31141 TIP3     2075     TIP3     H2       HT       0.417000       1.00800           0   0.00000     -0.301140E-02
     31142 TIP3     2076     TIP3     OH2      OT      -0.834000       15.9994           0   0.00000       0.00000    
     31143 TIP3     2076     TIP3     H1       HT       0.417000       1.00800           0   0.00000       0.00000    
     31144 TIP3     2076     TIP3     H2       HT       0.417000       1.00800           0   0.00000     -0.301140E-02
     31145 TIP3     2077     TIP3     OH2      OT      -0.834000       15.9994           0   0.00000       0.00000    
     31146 TIP3     2077     TIP3     H1       HT       0.417000       1.00800           0   0.00000       0.00000    
     31147 TIP3     2077     TIP3     H2       HT       0.417000       1.00800           0   0.00000     -0.301140E-02
     31148 TIP3     2078     TIP3     OH2      OT      -0.834000       15.9994           0   0.00000       0.00000    
     31149 TIP3     2078     TIP3     H1       HT       0.417000       1.00800           0   0.00000       0.00000    
     31150 TIP3     2078     TIP3     H2       HT       0.417000       1.00800           0   0.00000     -0.301140E-02
     31151 TIP3     2079     TIP3     OH2      OT      -0.834000       15.9994           0   0.00000       0.00000    
     31152 TIP3     2079     TIP3     H1       HT       0.417000       1.00800           0   0.00000       0.00000    
     31153 TIP3     2079     TIP3     H2       HT       0.417000       1.00800           0   0.00000     -0.301140E-02
     31154 TIP3     2080     TIP3     OH2      OT      -0.834000       15.9994           0   0.00000       0.00000    
     31155 TIP3     2080     TIP3     H1       HT       0.417000       1.00800           0   0.00000       0.00000    
     31156 TIP3     2080     TIP3     H2       HT       0.417000       1.00800           0   0.00000     -0.301140E-02
     31157 TIP3     2081     TIP3     OH2      OT      -0.834000       15.9994           0   0.00000       0.00000    
     31158 TIP3     2081     TIP3     H1       HT       0.417000       1.00800           0   0.00000       0.00000    
     31159 TIP3     2081     TIP3     H2       HT       0.417000       1.00800           0   0.00000     -0.301140E-02
     31160 TIP3     2082     TIP3     OH2      OT      -0.834000       15.9994           0   0.00000       0.00000    
     31161 TIP3     2082     TIP3     H1       HT       0.417000       1.00800           0   0.00000       0.00000    
     31162 TIP3     2082     TIP3     H2       HT       0.417000       1.00800           0   0.00000     -0.301140E-02
     31163 TIP3     2083     TIP3     OH2      OT      -0.834000       15.9994           0   0.00000       0.00000    
     31164 TIP3     2083     TIP3     H1       HT       0.417000       1.00800           0   0.00000       0.00000    
     31165 TIP3     2083     TIP3     H2       HT       0.417000       1.00800           0   0.00000     -0.301140E-02
     31166 TIP3     2084     TIP3     OH2      OT      -0.834000       15.9994           0   0.00000       0.00000    
     31167 TIP3     2084     TIP3     H1       HT       0.417000       1.00800           0   0.00000       0.00000    
     31168 TIP3     2084     TIP3     H2       HT       0.417000       1.00800           0   0.00000     -0.301140E-02
     31169 TIP3     2085     TIP3     OH2      OT      -0.834000       15.9994           0   0.00000       0.00000    
     31170 TIP3     2085     TIP3     H1       HT       0.417000       1.00800           0   0.00000       0.00000    
     31171 TIP3     2085     TIP3     H2       HT       0.417000       1.00800           0   0.00000     -0.301140E-02
     31172 TIP3     2086     TIP3     OH2      OT      -0.834000       15.9994           0   0.00000       0.00000    
     31173 TIP3     2086     TIP3     H1       HT       0.417000       1.00800           0   0.00000       0.00000    
     31174 TIP3     2086     TIP3     H2       HT       0.417000       1.00800           0   0.00000     -0.301140E-02
     31175 TIP3     2087     TIP3     OH2      OT      -0.834000       15.9994           0   0.00000       0.00000    
     31176 TIP3     2087     TIP3     H1       HT       0.417000       1.00800           0   0.00000       0.00000    
     31177 TIP3     2087     TIP3     H2       HT       0.417000       1.00800           0   0.00000     -0.301140E-02
     31178 TIP3     2088     TIP3     OH2      OT      -0.834000       15.9994           0   0.00000       0.00000    
     31179 TIP3     2088     TIP3     H1       HT       0.417000       1.00800           0   0.00000       0.00000    
     31180 TIP3     2088     TIP3     H2       HT       0.417000       1.00800           0   0.00000     -0.301140E-02
     31181 TIP3     2089     TIP3     OH2      OT      -0.834000       15.9994           0   0.00000       0.00000    
     31182 TIP3     2089     TIP3     H1       HT       0.417000       1.00800           0   0.00000       0.00000    
     31183 TIP3     2089     TIP3     H2       HT       0.417000       1.00800           0   0.00000     -0.301140E-02
     31184 TIP3     2090     TIP3     OH2      OT      -0.834000       15.9994           0   0.00000       0.00000    
     31185 TIP3     2090     TIP3     H1       HT       0.417000       1.00800           0   0.00000       0.00000    
     31186 TIP3     2090     TIP3     H2       HT       0.417000       1.00800           0   0.00000     -0.301140E-02
     31187 TIP3     2091     TIP3     OH2      OT      -0.834000       15.9994           0   0.00000       0.00000    
     31188 TIP3     2091     TIP3     H1       HT       0.417000       1.00800           0   0.00000       0.00000    
     31189 TIP3     2091     TIP3     H2       HT       0.417000       1.00800           0   0.00000     -0.301140E-02
     31190 TIP3     2092     TIP3     OH2      OT      -0.834000       15.9994           0   0.00000       0.00000    
     31191 TIP3     2092     TIP3     H1       HT       0.417000       1.00800           0   0.00000       0.00000    
     31192 TIP3     2092     TIP3     H2       HT       0.417000       1.00800           0   0.00000     -0.301140E-02
     31193 TIP3     2093     TIP3     OH2      OT      -0.834000       15.9994           0   0.00000       0.00000    
     31194 TIP3     2093     TIP3     H1       HT       0.417000       1.00800           0   0.00000       0.00000    
     31195 TIP3     2093     TIP3     H2       HT       0.417000       1.00800           0   0.00000     -0.301140E-02
     31196 TIP3     2094     TIP3     OH2      OT      -0.834000       15.9994           0   0.00000       0.00000    
     31197 TIP3     2094     TIP3     H1       HT       0.417000       1.00800           0   0.00000       0.00000    
     31198 TIP3     2094     TIP3     H2       HT       0.417000       1.00800           0   0.00000     -0.301140E-02
     31199 TIP3     2095     TIP3     OH2      OT      -0.834000       15.9994           0   0.00000       0.00000    
     31200 TIP3     2095     TIP3     H1       HT       0.417000       1.00800           0   0.00000       0.00000    
     31201 TIP3     2095     TIP3     H2       HT       0.417000       1.00800           0   0.00000     -0.301140E-02
     31202 TIP3     2096     TIP3     OH2      OT      -0.834000       15.9994           0   0.00000       0.00000    
     31203 TIP3     2096     TIP3     H1       HT       0.417000       1.00800           0   0.00000       0.00000    
     31204 TIP3     2096     TIP3     H2       HT       0.417000       1.00800           0   0.00000     -0.301140E-02
     31205 TIP3     2097     TIP3     OH2      OT      -0.834000       15.9994           0   0.00000       0.00000    
     31206 TIP3     2097     TIP3     H1       HT       0.417000       1.00800           0   0.00000       0.00000    
     31207 TIP3     2097     TIP3     H2       HT       0.417000       1.00800           0   0.00000     -0.301140E-02
     31208 TIP3     2098     TIP3     OH2      OT      -0.834000       15.9994           0   0.00000       0.00000    
     31209 TIP3     2098     TIP3     H1       HT       0.417000       1.00800           0   0.00000       0.00000    
     31210 TIP3     2098     TIP3     H2       HT       0.417000       1.00800           0   0.00000     -0.301140E-02
     31211 TIP3     2099     TIP3     OH2      OT      -0.834000       15.9994           0   0.00000       0.00000    
     31212 TIP3     2099     TIP3     H1       HT       0.417000       1.00800           0   0.00000       0.00000    
     31213 TIP3     2099     TIP3     H2       HT       0.417000       1.00800           0   0.00000     -0.301140E-02
     31214 TIP3     2100     TIP3     OH2      OT      -0.834000       15.9994           0   0.00000       0.00000    
     31215 TIP3     2100     TIP3     H1       HT       0.417000       1.00800           0   0.00000       0.00000    
     31216 TIP3     2100     TIP3     H2       HT       0.417000       1.00800           0   0.00000     -0.301140E-02
     31217 TIP3     2101     TIP3     OH2      OT      -0.834000       15.9994           0   0.00000       0.00000    
     31218 TIP3     2101     TIP3     H1       HT       0.417000       1.00800           0   0.00000       0.00000    
     31219 TIP3     2101     TIP3     H2       HT       0.417000       1.00800           0   0.00000     -0.301140E-02
     31220 TIP3     2102     TIP3     OH2      OT      -0.834000       15.9994           0   0.00000       0.00000    
     31221 TIP3     2102     TIP3     H1       HT       0.417000       1.00800           0   0.00000       0.00000    
     31222 TIP3     2102     TIP3     H2       HT       0.417000       1.00800           0   0.00000     -0.301140E-02
     31223 TIP3     2103     TIP3     OH2      OT      -0.834000       15.9994           0   0.00000       0.00000    
     31224 TIP3     2103     TIP3     H1       HT       0.417000       1.00800           0   0.00000       0.00000    
     31225 TIP3     2103     TIP3     H2       HT       0.417000       1.00800           0   0.00000     -0.301140E-02
     31226 TIP3     2104     TIP3     OH2      OT      -0.834000       15.9994           0   0.00000       0.00000    
     31227 TIP3     2104     TIP3     H1       HT       0.417000       1.00800           0   0.00000       0.00000    
     31228 TIP3     2104     TIP3     H2       HT       0.417000       1.00800           0   0.00000     -0.301140E-02
     31229 TIP3     2105     TIP3     OH2      OT      -0.834000       15.9994           0   0.00000       0.00000    
     31230 TIP3     2105     TIP3     H1       HT       0.417000       1.00800           0   0.00000       0.00000    
     31231 TIP3     2105     TIP3     H2       HT       0.417000       1.00800           0   0.00000     -0.301140E-02
     31232 TIP3     2106     TIP3     OH2      OT      -0.834000       15.9994           0   0.00000       0.00000    
     31233 TIP3     2106     TIP3     H1       HT       0.417000       1.00800           0   0.00000       0.00000    
     31234 TIP3     2106     TIP3     H2       HT       0.417000       1.00800           0   0.00000     -0.301140E-02
     31235 TIP3     2107     TIP3     OH2      OT      -0.834000       15.9994           0   0.00000       0.00000    
     31236 TIP3     2107     TIP3     H1       HT       0.417000       1.00800           0   0.00000       0.00000    
     31237 TIP3     2107     TIP3     H2       HT       0.417000       1.00800           0   0.00000     -0.301140E-02
     31238 TIP3     2108     TIP3     OH2      OT      -0.834000       15.9994           0   0.00000       0.00000    
     31239 TIP3     2108     TIP3     H1       HT       0.417000       1.00800           0   0.00000       0.00000    
     31240 TIP3     2108     TIP3     H2       HT       0.417000       1.00800           0   0.00000     -0.301140E-02
     31241 TIP3     2109     TIP3     OH2      OT      -0.834000       15.9994           0   0.00000       0.00000    
     31242 TIP3     2109     TIP3     H1       HT       0.417000       1.00800           0   0.00000       0.00000    
     31243 TIP3     2109     TIP3     H2       HT       0.417000       1.00800           0   0.00000     -0.301140E-02
     31244 TIP3     2110     TIP3     OH2      OT      -0.834000       15.9994           0   0.00000       0.00000    
     31245 TIP3     2110     TIP3     H1       HT       0.417000       1.00800           0   0.00000       0.00000    
     31246 TIP3     2110     TIP3     H2       HT       0.417000       1.00800           0   0.00000     -0.301140E-02
     31247 TIP3     2111     TIP3     OH2      OT      -0.834000       15.9994           0   0.00000       0.00000    
     31248 TIP3     2111     TIP3     H1       HT       0.417000       1.00800           0   0.00000       0.00000    
     31249 TIP3     2111     TIP3     H2       HT       0.417000       1.00800           0   0.00000     -0.301140E-02
     31250 TIP3     2112     TIP3     OH2      OT      -0.834000       15.9994           0   0.00000       0.00000    
     31251 TIP3     2112     TIP3     H1       HT       0.417000       1.00800           0   0.00000       0.00000    
     31252 TIP3     2112     TIP3     H2       HT       0.417000       1.00800           0   0.00000     -0.301140E-02
     31253 TIP3     2113     TIP3     OH2      OT      -0.834000       15.9994           0   0.00000       0.00000    
     31254 TIP3     2113     TIP3     H1       HT       0.417000       1.00800           0   0.00000       0.00000    
     31255 TIP3     2113     TIP3     H2       HT       0.417000       1.00800           0   0.00000     -0.301140E-02
     31256 TIP3     2114     TIP3     OH2      OT      -0.834000       15.9994           0   0.00000       0.00000    
     31257 TIP3     2114     TIP3     H1       HT       0.417000       1.00800           0   0.00000       0.00000    
     31258 TIP3     2114     TIP3     H2       HT       0.417000       1.00800           0   0.00000     -0.301140E-02
     31259 TIP3     2115     TIP3     OH2      OT      -0.834000       15.9994           0   0.00000       0.00000    
     31260 TIP3     2115     TIP3     H1       HT       0.417000       1.00800           0   0.00000       0.00000    
     31261 TIP3     2115     TIP3     H2       HT       0.417000       1.00800           0   0.00000     -0.301140E-02
     31262 TIP3     2116     TIP3     OH2      OT      -0.834000       15.9994           0   0.00000       0.00000    
     31263 TIP3     2116     TIP3     H1       HT       0.417000       1.00800           0   0.00000       0.00000    
     31264 TIP3     2116     TIP3     H2       HT       0.417000       1.00800           0   0.00000     -0.301140E-02
     31265 TIP3     2117     TIP3     OH2      OT      -0.834000       15.9994           0   0.00000       0.00000    
     31266 TIP3     2117     TIP3     H1       HT       0.417000       1.00800           0   0.00000       0.00000    
     31267 TIP3     2117     TIP3     H2       HT       0.417000       1.00800           0   0.00000     -0.301140E-02
     31268 TIP3     2118     TIP3     OH2      OT      -0.834000       15.9994           0   0.00000       0.00000    
     31269 TIP3     2118     TIP3     H1       HT       0.417000       1.00800           0   0.00000       0.00000    
     31270 TIP3     2118     TIP3     H2       HT       0.417000       1.00800           0   0.00000     -0.301140E-02
     31271 TIP3     2119     TIP3     OH2      OT      -0.834000       15.9994           0   0.00000       0.00000    
     31272 TIP3     2119     TIP3     H1       HT       0.417000       1.00800           0   0.00000       0.00000    
     31273 TIP3     2119     TIP3     H2       HT       0.417000       1.00800           0   0.00000     -0.301140E-02
     31274 TIP3     2120     TIP3     OH2      OT      -0.834000       15.9994           0   0.00000       0.00000    
     31275 TIP3     2120     TIP3     H1       HT       0.417000       1.00800           0   0.00000       0.00000    
     31276 TIP3     2120     TIP3     H2       HT       0.417000       1.00800           0   0.00000     -0.301140E-02
     31277 TIP3     2121     TIP3     OH2      OT      -0.834000       15.9994           0   0.00000       0.00000    
     31278 TIP3     2121     TIP3     H1       HT       0.417000       1.00800           0   0.00000       0.00000    
     31279 TIP3     2121     TIP3     H2       HT       0.417000       1.00800           0   0.00000     -0.301140E-02
     31280 TIP3     2122     TIP3     OH2      OT      -0.834000       15.9994           0   0.00000       0.00000    
     31281 TIP3     2122     TIP3     H1       HT       0.417000       1.00800           0   0.00000       0.00000    
     31282 TIP3     2122     TIP3     H2       HT       0.417000       1.00800           0   0.00000     -0.301140E-02
     31283 TIP3     2123     TIP3     OH2      OT      -0.834000       15.9994           0   0.00000       0.00000    
     31284 TIP3     2123     TIP3     H1       HT       0.417000       1.00800           0   0.00000       0.00000    
     31285 TIP3     2123     TIP3     H2       HT       0.417000       1.00800           0   0.00000     -0.301140E-02
     31286 TIP3     2124     TIP3     OH2      OT      -0.834000       15.9994           0   0.00000       0.00000    
     31287 TIP3     2124     TIP3     H1       HT       0.417000       1.00800           0   0.00000       0.00000    
     31288 TIP3     2124     TIP3     H2       HT       0.417000       1.00800           0   0.00000     -0.301140E-02
     31289 TIP3     2125     TIP3     OH2      OT      -0.834000       15.9994           0   0.00000       0.00000    
     31290 TIP3     2125     TIP3     H1       HT       0.417000       1.00800           0   0.00000       0.00000    
     31291 TIP3     2125     TIP3     H2       HT       0.417000       1.00800           0   0.00000     -0.301140E-02
     31292 TIP3     2126     TIP3     OH2      OT      -0.834000       15.9994           0   0.00000       0.00000    
     31293 TIP3     2126     TIP3     H1       HT       0.417000       1.00800           0   0.00000       0.00000    
     31294 TIP3     2126     TIP3     H2       HT       0.417000       1.00800           0   0.00000     -0.301140E-02
     31295 TIP3     2127     TIP3     OH2      OT      -0.834000       15.9994           0   0.00000       0.00000    
     31296 TIP3     2127     TIP3     H1       HT       0.417000       1.00800           0   0.00000       0.00000    
     31297 TIP3     2127     TIP3     H2       HT       0.417000       1.00800           0   0.00000     -0.301140E-02
     31298 TIP3     2128     TIP3     OH2      OT      -0.834000       15.9994           0   0.00000       0.00000    
     31299 TIP3     2128     TIP3     H1       HT       0.417000       1.00800           0   0.00000       0.00000    
     31300 TIP3     2128     TIP3     H2       HT       0.417000       1.00800           0   0.00000     -0.301140E-02
     31301 TIP3     2129     TIP3     OH2      OT      -0.834000       15.9994           0   0.00000       0.00000    
     31302 TIP3     2129     TIP3     H1       HT       0.417000       1.00800           0   0.00000       0.00000    
     31303 TIP3     2129     TIP3     H2       HT       0.417000       1.00800           0   0.00000     -0.301140E-02
     31304 TIP3     2130     TIP3     OH2      OT      -0.834000       15.9994           0   0.00000       0.00000    
     31305 TIP3     2130     TIP3     H1       HT       0.417000       1.00800           0   0.00000       0.00000    
     31306 TIP3     2130     TIP3     H2       HT       0.417000       1.00800           0   0.00000     -0.301140E-02
     31307 TIP3     2131     TIP3     OH2      OT      -0.834000       15.9994           0   0.00000       0.00000    
     31308 TIP3     2131     TIP3     H1       HT       0.417000       1.00800           0   0.00000       0.00000    
     31309 TIP3     2131     TIP3     H2       HT       0.417000       1.00800           0   0.00000     -0.301140E-02
     31310 TIP3     2132     TIP3     OH2      OT      -0.834000       15.9994           0   0.00000       0.00000    
     31311 TIP3     2132     TIP3     H1       HT       0.417000       1.00800           0   0.00000       0.00000    
     31312 TIP3     2132     TIP3     H2       HT       0.417000       1.00800           0   0.00000     -0.301140E-02
     31313 TIP3     2133     TIP3     OH2      OT      -0.834000       15.9994           0   0.00000       0.00000    
     31314 TIP3     2133     TIP3     H1       HT       0.417000       1.00800           0   0.00000       0.00000    
     31315 TIP3     2133     TIP3     H2       HT       0.417000       1.00800           0   0.00000     -0.301140E-02
     31316 TIP3     2134     TIP3     OH2      OT      -0.834000       15.9994           0   0.00000       0.00000    
     31317 TIP3     2134     TIP3     H1       HT       0.417000       1.00800           0   0.00000       0.00000    
     31318 TIP3     2134     TIP3     H2       HT       0.417000       1.00800           0   0.00000     -0.301140E-02
     31319 TIP3     2135     TIP3     OH2      OT      -0.834000       15.9994           0   0.00000       0.00000    
     31320 TIP3     2135     TIP3     H1       HT       0.417000       1.00800           0   0.00000       0.00000    
     31321 TIP3     2135     TIP3     H2       HT       0.417000       1.00800           0   0.00000     -0.301140E-02
     31322 TIP3     2136     TIP3     OH2      OT      -0.834000       15.9994           0   0.00000       0.00000    
     31323 TIP3     2136     TIP3     H1       HT       0.417000       1.00800           0   0.00000       0.00000    
     31324 TIP3     2136     TIP3     H2       HT       0.417000       1.00800           0   0.00000     -0.301140E-02
     31325 TIP3     2137     TIP3     OH2      OT      -0.834000       15.9994           0   0.00000       0.00000    
     31326 TIP3     2137     TIP3     H1       HT       0.417000       1.00800           0   0.00000       0.00000    
     31327 TIP3     2137     TIP3     H2       HT       0.417000       1.00800           0   0.00000     -0.301140E-02
     31328 TIP3     2138     TIP3     OH2      OT      -0.834000       15.9994           0   0.00000       0.00000    
     31329 TIP3     2138     TIP3     H1       HT       0.417000       1.00800           0   0.00000       0.00000    
     31330 TIP3     2138     TIP3     H2       HT       0.417000       1.00800           0   0.00000     -0.301140E-02
     31331 TIP3     2139     TIP3     OH2      OT      -0.834000       15.9994           0   0.00000       0.00000    
     31332 TIP3     2139     TIP3     H1       HT       0.417000       1.00800           0   0.00000       0.00000    
     31333 TIP3     2139     TIP3     H2       HT       0.417000       1.00800           0   0.00000     -0.301140E-02
     31334 TIP3     2140     TIP3     OH2      OT      -0.834000       15.9994           0   0.00000       0.00000    
     31335 TIP3     2140     TIP3     H1       HT       0.417000       1.00800           0   0.00000       0.00000    
     31336 TIP3     2140     TIP3     H2       HT       0.417000       1.00800           0   0.00000     -0.301140E-02
     31337 TIP3     2141     TIP3     OH2      OT      -0.834000       15.9994           0   0.00000       0.00000    
     31338 TIP3     2141     TIP3     H1       HT       0.417000       1.00800           0   0.00000       0.00000    
     31339 TIP3     2141     TIP3     H2       HT       0.417000       1.00800           0   0.00000     -0.301140E-02
     31340 TIP3     2142     TIP3     OH2      OT      -0.834000       15.9994           0   0.00000       0.00000    
     31341 TIP3     2142     TIP3     H1       HT       0.417000       1.00800           0   0.00000       0.00000    
     31342 TIP3     2142     TIP3     H2       HT       0.417000       1.00800           0   0.00000     -0.301140E-02
     31343 TIP3     2143     TIP3     OH2      OT      -0.834000       15.9994           0   0.00000       0.00000    
     31344 TIP3     2143     TIP3     H1       HT       0.417000       1.00800           0   0.00000       0.00000    
     31345 TIP3     2143     TIP3     H2       HT       0.417000       1.00800           0   0.00000     -0.301140E-02
     31346 TIP3     2144     TIP3     OH2      OT      -0.834000       15.9994           0   0.00000       0.00000    
     31347 TIP3     2144     TIP3     H1       HT       0.417000       1.00800           0   0.00000       0.00000    
     31348 TIP3     2144     TIP3     H2       HT       0.417000       1.00800           0   0.00000     -0.301140E-02
     31349 TIP3     2145     TIP3     OH2      OT      -0.834000       15.9994           0   0.00000       0.00000    
     31350 TIP3     2145     TIP3     H1       HT       0.417000       1.00800           0   0.00000       0.00000    
     31351 TIP3     2145     TIP3     H2       HT       0.417000       1.00800           0   0.00000     -0.301140E-02
     31352 TIP3     2146     TIP3     OH2      OT      -0.834000       15.9994           0   0.00000       0.00000    
     31353 TIP3     2146     TIP3     H1       HT       0.417000       1.00800           0   0.00000       0.00000    
     31354 TIP3     2146     TIP3     H2       HT       0.417000       1.00800           0   0.00000     -0.301140E-02
     31355 TIP3     2147     TIP3     OH2      OT      -0.834000       15.9994           0   0.00000       0.00000    
     31356 TIP3     2147     TIP3     H1       HT       0.417000       1.00800           0   0.00000       0.00000    
     31357 TIP3     2147     TIP3     H2       HT       0.417000       1.00800           0   0.00000     -0.301140E-02
     31358 TIP3     2148     TIP3     OH2      OT      -0.834000       15.9994           0   0.00000       0.00000    
     31359 TIP3     2148     TIP3     H1       HT       0.417000       1.00800           0   0.00000       0.00000    
     31360 TIP3     2148     TIP3     H2       HT       0.417000       1.00800           0   0.00000     -0.301140E-02
     31361 TIP3     2149     TIP3     OH2      OT      -0.834000       15.9994           0   0.00000       0.00000    
     31362 TIP3     2149     TIP3     H1       HT       0.417000       1.00800           0   0.00000       0.00000    
     31363 TIP3     2149     TIP3     H2       HT       0.417000       1.00800           0   0.00000     -0.301140E-02
     31364 TIP3     2150     TIP3     OH2      OT      -0.834000       15.9994           0   0.00000       0.00000    
     31365 TIP3     2150     TIP3     H1       HT       0.417000       1.00800           0   0.00000       0.00000    
     31366 TIP3     2150     TIP3     H2       HT       0.417000       1.00800           0   0.00000     -0.301140E-02
     31367 TIP3     2151     TIP3     OH2      OT      -0.834000       15.9994           0   0.00000       0.00000    
     31368 TIP3     2151     TIP3     H1       HT       0.417000       1.00800           0   0.00000       0.00000    
     31369 TIP3     2151     TIP3     H2       HT       0.417000       1.00800           0   0.00000     -0.301140E-02
     31370 TIP3     2152     TIP3     OH2      OT      -0.834000       15.9994           0   0.00000       0.00000    
     31371 TIP3     2152     TIP3     H1       HT       0.417000       1.00800           0   0.00000       0.00000    
     31372 TIP3     2152     TIP3     H2       HT       0.417000       1.00800           0   0.00000     -0.301140E-02
     31373 TIP3     2153     TIP3     OH2      OT      -0.834000       15.9994           0   0.00000       0.00000    
     31374 TIP3     2153     TIP3     H1       HT       0.417000       1.00800           0   0.00000       0.00000    
     31375 TIP3     2153     TIP3     H2       HT       0.417000       1.00800           0   0.00000     -0.301140E-02
     31376 TIP3     2154     TIP3     OH2      OT      -0.834000       15.9994           0   0.00000       0.00000    
     31377 TIP3     2154     TIP3     H1       HT       0.417000       1.00800           0   0.00000       0.00000    
     31378 TIP3     2154     TIP3     H2       HT       0.417000       1.00800           0   0.00000     -0.301140E-02
     31379 TIP3     2155     TIP3     OH2      OT      -0.834000       15.9994           0   0.00000       0.00000    
     31380 TIP3     2155     TIP3     H1       HT       0.417000       1.00800           0   0.00000       0.00000    
     31381 TIP3     2155     TIP3     H2       HT       0.417000       1.00800           0   0.00000     -0.301140E-02
     31382 TIP3     2156     TIP3     OH2      OT      -0.834000       15.9994           0   0.00000       0.00000    
     31383 TIP3     2156     TIP3     H1       HT       0.417000       1.00800           0   0.00000       0.00000    
     31384 TIP3     2156     TIP3     H2       HT       0.417000       1.00800           0   0.00000     -0.301140E-02
     31385 TIP3     2157     TIP3     OH2      OT      -0.834000       15.9994           0   0.00000       0.00000    
     31386 TIP3     2157     TIP3     H1       HT       0.417000       1.00800           0   0.00000       0.00000    
     31387 TIP3     2157     TIP3     H2       HT       0.417000       1.00800           0   0.00000     -0.301140E-02
     31388 TIP3     2158     TIP3     OH2      OT      -0.834000       15.9994           0   0.00000       0.00000    
     31389 TIP3     2158     TIP3     H1       HT       0.417000       1.00800           0   0.00000       0.00000    
     31390 TIP3     2158     TIP3     H2       HT       0.417000       1.00800           0   0.00000     -0.301140E-02
     31391 TIP3     2159     TIP3     OH2      OT      -0.834000       15.9994           0   0.00000       0.00000    
     31392 TIP3     2159     TIP3     H1       HT       0.417000       1.00800           0   0.00000       0.00000    
     31393 TIP3     2159     TIP3     H2       HT       0.417000       1.00800           0   0.00000     -0.301140E-02
     31394 TIP3     2160     TIP3     OH2      OT      -0.834000       15.9994           0   0.00000       0.00000    
     31395 TIP3     2160     TIP3     H1       HT       0.417000       1.00800           0   0.00000       0.00000    
     31396 TIP3     2160     TIP3     H2       HT       0.417000       1.00800           0   0.00000     -0.301140E-02
     31397 TIP3     2161     TIP3     OH2      OT      -0.834000       15.9994           0   0.00000       0.00000    
     31398 TIP3     2161     TIP3     H1       HT       0.417000       1.00800           0   0.00000       0.00000    
     31399 TIP3     2161     TIP3     H2       HT       0.417000       1.00800           0   0.00000     -0.301140E-02
     31400 TIP3     2162     TIP3     OH2      OT      -0.834000       15.9994           0   0.00000       0.00000    
     31401 TIP3     2162     TIP3     H1       HT       0.417000       1.00800           0   0.00000       0.00000    
     31402 TIP3     2162     TIP3     H2       HT       0.417000       1.00800           0   0.00000     -0.301140E-02
     31403 TIP3     2163     TIP3     OH2      OT      -0.834000       15.9994           0   0.00000       0.00000    
     31404 TIP3     2163     TIP3     H1       HT       0.417000       1.00800           0   0.00000       0.00000    
     31405 TIP3     2163     TIP3     H2       HT       0.417000       1.00800           0   0.00000     -0.301140E-02
     31406 TIP3     2164     TIP3     OH2      OT      -0.834000       15.9994           0   0.00000       0.00000    
     31407 TIP3     2164     TIP3     H1       HT       0.417000       1.00800           0   0.00000       0.00000    
     31408 TIP3     2164     TIP3     H2       HT       0.417000       1.00800           0   0.00000     -0.301140E-02
     31409 TIP3     2165     TIP3     OH2      OT      -0.834000       15.9994           0   0.00000       0.00000    
     31410 TIP3     2165     TIP3     H1       HT       0.417000       1.00800           0   0.00000       0.00000    
     31411 TIP3     2165     TIP3     H2       HT       0.417000       1.00800           0   0.00000     -0.301140E-02
     31412 TIP3     2166     TIP3     OH2      OT      -0.834000       15.9994           0   0.00000       0.00000    
     31413 TIP3     2166     TIP3     H1       HT       0.417000       1.00800           0   0.00000       0.00000    
     31414 TIP3     2166     TIP3     H2       HT       0.417000       1.00800           0   0.00000     -0.301140E-02
     31415 TIP3     2167     TIP3     OH2      OT      -0.834000       15.9994           0   0.00000       0.00000    
     31416 TIP3     2167     TIP3     H1       HT       0.417000       1.00800           0   0.00000       0.00000    
     31417 TIP3     2167     TIP3     H2       HT       0.417000       1.00800           0   0.00000     -0.301140E-02
     31418 TIP3     2168     TIP3     OH2      OT      -0.834000       15.9994           0   0.00000       0.00000    
     31419 TIP3     2168     TIP3     H1       HT       0.417000       1.00800           0   0.00000       0.00000    
     31420 TIP3     2168     TIP3     H2       HT       0.417000       1.00800           0   0.00000     -0.301140E-02
     31421 TIP3     2169     TIP3     OH2      OT      -0.834000       15.9994           0   0.00000       0.00000    
     31422 TIP3     2169     TIP3     H1       HT       0.417000       1.00800           0   0.00000       0.00000    
     31423 TIP3     2169     TIP3     H2       HT       0.417000       1.00800           0   0.00000     -0.301140E-02
     31424 TIP3     2170     TIP3     OH2      OT      -0.834000       15.9994           0   0.00000       0.00000    
     31425 TIP3     2170     TIP3     H1       HT       0.417000       1.00800           0   0.00000       0.00000    
     31426 TIP3     2170     TIP3     H2       HT       0.417000       1.00800           0   0.00000     -0.301140E-02
     31427 TIP3     2171     TIP3     OH2      OT      -0.834000       15.9994           0   0.00000       0.00000    
     31428 TIP3     2171     TIP3     H1       HT       0.417000       1.00800           0   0.00000       0.00000    
     31429 TIP3     2171     TIP3     H2       HT       0.417000       1.00800           0   0.00000     -0.301140E-02
     31430 TIP3     2172     TIP3     OH2      OT      -0.834000       15.9994           0   0.00000       0.00000    
     31431 TIP3     2172     TIP3     H1       HT       0.417000       1.00800           0   0.00000       0.00000    
     31432 TIP3     2172     TIP3     H2       HT       0.417000       1.00800           0   0.00000     -0.301140E-02
     31433 TIP3     2173     TIP3     OH2      OT      -0.834000       15.9994           0   0.00000       0.00000    
     31434 TIP3     2173     TIP3     H1       HT       0.417000       1.00800           0   0.00000       0.00000    
     31435 TIP3     2173     TIP3     H2       HT       0.417000       1.00800           0   0.00000     -0.301140E-02
     31436 TIP3     2174     TIP3     OH2      OT      -0.834000       15.9994           0   0.00000       0.00000    
     31437 TIP3     2174     TIP3     H1       HT       0.417000       1.00800           0   0.00000       0.00000    
     31438 TIP3     2174     TIP3     H2       HT       0.417000       1.00800           0   0.00000     -0.301140E-02
     31439 TIP3     2175     TIP3     OH2      OT      -0.834000       15.9994           0   0.00000       0.00000    
     31440 TIP3     2175     TIP3     H1       HT       0.417000       1.00800           0   0.00000       0.00000    
     31441 TIP3     2175     TIP3     H2       HT       0.417000       1.00800           0   0.00000     -0.301140E-02
     31442 TIP3     2176     TIP3     OH2      OT      -0.834000       15.9994           0   0.00000       0.00000    
     31443 TIP3     2176     TIP3     H1       HT       0.417000       1.00800           0   0.00000       0.00000    
     31444 TIP3     2176     TIP3     H2       HT       0.417000       1.00800           0   0.00000     -0.301140E-02
     31445 TIP3     2177     TIP3     OH2      OT      -0.834000       15.9994           0   0.00000       0.00000    
     31446 TIP3     2177     TIP3     H1       HT       0.417000       1.00800           0   0.00000       0.00000    
     31447 TIP3     2177     TIP3     H2       HT       0.417000       1.00800           0   0.00000     -0.301140E-02
     31448 TIP3     2178     TIP3     OH2      OT      -0.834000       15.9994           0   0.00000       0.00000    
     31449 TIP3     2178     TIP3     H1       HT       0.417000       1.00800           0   0.00000       0.00000    
     31450 TIP3     2178     TIP3     H2       HT       0.417000       1.00800           0   0.00000     -0.301140E-02
     31451 TIP3     2179     TIP3     OH2      OT      -0.834000       15.9994           0   0.00000       0.00000    
     31452 TIP3     2179     TIP3     H1       HT       0.417000       1.00800           0   0.00000       0.00000    
     31453 TIP3     2179     TIP3     H2       HT       0.417000       1.00800           0   0.00000     -0.301140E-02
     31454 TIP3     2180     TIP3     OH2      OT      -0.834000       15.9994           0   0.00000       0.00000    
     31455 TIP3     2180     TIP3     H1       HT       0.417000       1.00800           0   0.00000       0.00000    
     31456 TIP3     2180     TIP3     H2       HT       0.417000       1.00800           0   0.00000     -0.301140E-02
     31457 TIP3     2181     TIP3     OH2      OT      -0.834000       15.9994           0   0.00000       0.00000    
     31458 TIP3     2181     TIP3     H1       HT       0.417000       1.00800           0   0.00000       0.00000    
     31459 TIP3     2181     TIP3     H2       HT       0.417000       1.00800           0   0.00000     -0.301140E-02
     31460 TIP3     2182     TIP3     OH2      OT      -0.834000       15.9994           0   0.00000       0.00000    
     31461 TIP3     2182     TIP3     H1       HT       0.417000       1.00800           0   0.00000       0.00000    
     31462 TIP3     2182     TIP3     H2       HT       0.417000       1.00800           0   0.00000     -0.301140E-02
     31463 TIP3     2183     TIP3     OH2      OT      -0.834000       15.9994           0   0.00000       0.00000    
     31464 TIP3     2183     TIP3     H1       HT       0.417000       1.00800           0   0.00000       0.00000    
     31465 TIP3     2183     TIP3     H2       HT       0.417000       1.00800           0   0.00000     -0.301140E-02
     31466 TIP3     2184     TIP3     OH2      OT      -0.834000       15.9994           0   0.00000       0.00000    
     31467 TIP3     2184     TIP3     H1       HT       0.417000       1.00800           0   0.00000       0.00000    
     31468 TIP3     2184     TIP3     H2       HT       0.417000       1.00800           0   0.00000     -0.301140E-02
     31469 TIP3     2185     TIP3     OH2      OT      -0.834000       15.9994           0   0.00000       0.00000    
     31470 TIP3     2185     TIP3     H1       HT       0.417000       1.00800           0   0.00000       0.00000    
     31471 TIP3     2185     TIP3     H2       HT       0.417000       1.00800           0   0.00000     -0.301140E-02
     31472 TIP3     2186     TIP3     OH2      OT      -0.834000       15.9994           0   0.00000       0.00000    
     31473 TIP3     2186     TIP3     H1       HT       0.417000       1.00800           0   0.00000       0.00000    
     31474 TIP3     2186     TIP3     H2       HT       0.417000       1.00800           0   0.00000     -0.301140E-02
     31475 TIP3     2187     TIP3     OH2      OT      -0.834000       15.9994           0   0.00000       0.00000    
     31476 TIP3     2187     TIP3     H1       HT       0.417000       1.00800           0   0.00000       0.00000    
     31477 TIP3     2187     TIP3     H2       HT       0.417000       1.00800           0   0.00000     -0.301140E-02
     31478 TIP3     2188     TIP3     OH2      OT      -0.834000       15.9994           0   0.00000       0.00000    
     31479 TIP3     2188     TIP3     H1       HT       0.417000       1.00800           0   0.00000       0.00000    
     31480 TIP3     2188     TIP3     H2       HT       0.417000       1.00800           0   0.00000     -0.301140E-02
     31481 TIP3     2189     TIP3     OH2      OT      -0.834000       15.9994           0   0.00000       0.00000    
     31482 TIP3     2189     TIP3     H1       HT       0.417000       1.00800           0   0.00000       0.00000    
     31483 TIP3     2189     TIP3     H2       HT       0.417000       1.00800           0   0.00000     -0.301140E-02
     31484 TIP3     2190     TIP3     OH2      OT      -0.834000       15.9994           0   0.00000       0.00000    
     31485 TIP3     2190     TIP3     H1       HT       0.417000       1.00800           0   0.00000       0.00000    
     31486 TIP3     2190     TIP3     H2       HT       0.417000       1.00800           0   0.00000     -0.301140E-02
     31487 TIP3     2191     TIP3     OH2      OT      -0.834000       15.9994           0   0.00000       0.00000    
     31488 TIP3     2191     TIP3     H1       HT       0.417000       1.00800           0   0.00000       0.00000    
     31489 TIP3     2191     TIP3     H2       HT       0.417000       1.00800           0   0.00000     -0.301140E-02
     31490 TIP3     2192     TIP3     OH2      OT      -0.834000       15.9994           0   0.00000       0.00000    
     31491 TIP3     2192     TIP3     H1       HT       0.417000       1.00800           0   0.00000       0.00000    
     31492 TIP3     2192     TIP3     H2       HT       0.417000       1.00800           0   0.00000     -0.301140E-02
     31493 TIP3     2193     TIP3     OH2      OT      -0.834000       15.9994           0   0.00000       0.00000    
     31494 TIP3     2193     TIP3     H1       HT       0.417000       1.00800           0   0.00000       0.00000    
     31495 TIP3     2193     TIP3     H2       HT       0.417000       1.00800           0   0.00000     -0.301140E-02
     31496 TIP3     2194     TIP3     OH2      OT      -0.834000       15.9994           0   0.00000       0.00000    
     31497 TIP3     2194     TIP3     H1       HT       0.417000       1.00800           0   0.00000       0.00000    
     31498 TIP3     2194     TIP3     H2       HT       0.417000       1.00800           0   0.00000     -0.301140E-02
     31499 TIP3     2195     TIP3     OH2      OT      -0.834000       15.9994           0   0.00000       0.00000    
     31500 TIP3     2195     TIP3     H1       HT       0.417000       1.00800           0   0.00000       0.00000    
     31501 TIP3     2195     TIP3     H2       HT       0.417000       1.00800           0   0.00000     -0.301140E-02
     31502 TIP3     2196     TIP3     OH2      OT      -0.834000       15.9994           0   0.00000       0.00000    
     31503 TIP3     2196     TIP3     H1       HT       0.417000       1.00800           0   0.00000       0.00000    
     31504 TIP3     2196     TIP3     H2       HT       0.417000       1.00800           0   0.00000     -0.301140E-02
     31505 TIP3     2197     TIP3     OH2      OT      -0.834000       15.9994           0   0.00000       0.00000    
     31506 TIP3     2197     TIP3     H1       HT       0.417000       1.00800           0   0.00000       0.00000    
     31507 TIP3     2197     TIP3     H2       HT       0.417000       1.00800           0   0.00000     -0.301140E-02
     31508 TIP3     2198     TIP3     OH2      OT      -0.834000       15.9994           0   0.00000       0.00000    
     31509 TIP3     2198     TIP3     H1       HT       0.417000       1.00800           0   0.00000       0.00000    
     31510 TIP3     2198     TIP3     H2       HT       0.417000       1.00800           0   0.00000     -0.301140E-02
     31511 TIP3     2199     TIP3     OH2      OT      -0.834000       15.9994           0   0.00000       0.00000    
     31512 TIP3     2199     TIP3     H1       HT       0.417000       1.00800           0   0.00000       0.00000    
     31513 TIP3     2199     TIP3     H2       HT       0.417000       1.00800           0   0.00000     -0.301140E-02
     31514 TIP3     2200     TIP3     OH2      OT      -0.834000       15.9994           0   0.00000       0.00000    
     31515 TIP3     2200     TIP3     H1       HT       0.417000       1.00800           0   0.00000       0.00000    
     31516 TIP3     2200     TIP3     H2       HT       0.417000       1.00800           0   0.00000     -0.301140E-02
     31517 TIP3     2201     TIP3     OH2      OT      -0.834000       15.9994           0   0.00000       0.00000    
     31518 TIP3     2201     TIP3     H1       HT       0.417000       1.00800           0   0.00000       0.00000    
     31519 TIP3     2201     TIP3     H2       HT       0.417000       1.00800           0   0.00000     -0.301140E-02
     31520 TIP3     2202     TIP3     OH2      OT      -0.834000       15.9994           0   0.00000       0.00000    
     31521 TIP3     2202     TIP3     H1       HT       0.417000       1.00800           0   0.00000       0.00000    
     31522 TIP3     2202     TIP3     H2       HT       0.417000       1.00800           0   0.00000     -0.301140E-02
     31523 TIP3     2203     TIP3     OH2      OT      -0.834000       15.9994           0   0.00000       0.00000    
     31524 TIP3     2203     TIP3     H1       HT       0.417000       1.00800           0   0.00000       0.00000    
     31525 TIP3     2203     TIP3     H2       HT       0.417000       1.00800           0   0.00000     -0.301140E-02
     31526 TIP3     2204     TIP3     OH2      OT      -0.834000       15.9994           0   0.00000       0.00000    
     31527 TIP3     2204     TIP3     H1       HT       0.417000       1.00800           0   0.00000       0.00000    
     31528 TIP3     2204     TIP3     H2       HT       0.417000       1.00800           0   0.00000     -0.301140E-02
     31529 TIP3     2205     TIP3     OH2      OT      -0.834000       15.9994           0   0.00000       0.00000    
     31530 TIP3     2205     TIP3     H1       HT       0.417000       1.00800           0   0.00000       0.00000    
     31531 TIP3     2205     TIP3     H2       HT       0.417000       1.00800           0   0.00000     -0.301140E-02
     31532 TIP3     2206     TIP3     OH2      OT      -0.834000       15.9994           0   0.00000       0.00000    
     31533 TIP3     2206     TIP3     H1       HT       0.417000       1.00800           0   0.00000       0.00000    
     31534 TIP3     2206     TIP3     H2       HT       0.417000       1.00800           0   0.00000     -0.301140E-02
     31535 TIP3     2207     TIP3     OH2      OT      -0.834000       15.9994           0   0.00000       0.00000    
     31536 TIP3     2207     TIP3     H1       HT       0.417000       1.00800           0   0.00000       0.00000    
     31537 TIP3     2207     TIP3     H2       HT       0.417000       1.00800           0   0.00000     -0.301140E-02
     31538 TIP3     2208     TIP3     OH2      OT      -0.834000       15.9994           0   0.00000       0.00000    
     31539 TIP3     2208     TIP3     H1       HT       0.417000       1.00800           0   0.00000       0.00000    
     31540 TIP3     2208     TIP3     H2       HT       0.417000       1.00800           0   0.00000     -0.301140E-02
     31541 TIP3     2209     TIP3     OH2      OT      -0.834000       15.9994           0   0.00000       0.00000    
     31542 TIP3     2209     TIP3     H1       HT       0.417000       1.00800           0   0.00000       0.00000    
     31543 TIP3     2209     TIP3     H2       HT       0.417000       1.00800           0   0.00000     -0.301140E-02
     31544 TIP3     2210     TIP3     OH2      OT      -0.834000       15.9994           0   0.00000       0.00000    
     31545 TIP3     2210     TIP3     H1       HT       0.417000       1.00800           0   0.00000       0.00000    
     31546 TIP3     2210     TIP3     H2       HT       0.417000       1.00800           0   0.00000     -0.301140E-02
     31547 TIP3     2211     TIP3     OH2      OT      -0.834000       15.9994           0   0.00000       0.00000    
     31548 TIP3     2211     TIP3     H1       HT       0.417000       1.00800           0   0.00000       0.00000    
     31549 TIP3     2211     TIP3     H2       HT       0.417000       1.00800           0   0.00000     -0.301140E-02
     31550 TIP3     2212     TIP3     OH2      OT      -0.834000       15.9994           0   0.00000       0.00000    
     31551 TIP3     2212     TIP3     H1       HT       0.417000       1.00800           0   0.00000       0.00000    
     31552 TIP3     2212     TIP3     H2       HT       0.417000       1.00800           0   0.00000     -0.301140E-02
     31553 TIP3     2213     TIP3     OH2      OT      -0.834000       15.9994           0   0.00000       0.00000    
     31554 TIP3     2213     TIP3     H1       HT       0.417000       1.00800           0   0.00000       0.00000    
     31555 TIP3     2213     TIP3     H2       HT       0.417000       1.00800           0   0.00000     -0.301140E-02
     31556 TIP3     2214     TIP3     OH2      OT      -0.834000       15.9994           0   0.00000       0.00000    
     31557 TIP3     2214     TIP3     H1       HT       0.417000       1.00800           0   0.00000       0.00000    
     31558 TIP3     2214     TIP3     H2       HT       0.417000       1.00800           0   0.00000     -0.301140E-02
     31559 TIP3     2215     TIP3     OH2      OT      -0.834000       15.9994           0   0.00000       0.00000    
     31560 TIP3     2215     TIP3     H1       HT       0.417000       1.00800           0   0.00000       0.00000    
     31561 TIP3     2215     TIP3     H2       HT       0.417000       1.00800           0   0.00000     -0.301140E-02
     31562 TIP3     2216     TIP3     OH2      OT      -0.834000       15.9994           0   0.00000       0.00000    
     31563 TIP3     2216     TIP3     H1       HT       0.417000       1.00800           0   0.00000       0.00000    
     31564 TIP3     2216     TIP3     H2       HT       0.417000       1.00800           0   0.00000     -0.301140E-02
     31565 TIP3     2217     TIP3     OH2      OT      -0.834000       15.9994           0   0.00000       0.00000    
     31566 TIP3     2217     TIP3     H1       HT       0.417000       1.00800           0   0.00000       0.00000    
     31567 TIP3     2217     TIP3     H2       HT       0.417000       1.00800           0   0.00000     -0.301140E-02
     31568 TIP3     2218     TIP3     OH2      OT      -0.834000       15.9994           0   0.00000       0.00000    
     31569 TIP3     2218     TIP3     H1       HT       0.417000       1.00800           0   0.00000       0.00000    
     31570 TIP3     2218     TIP3     H2       HT       0.417000       1.00800           0   0.00000     -0.301140E-02
     31571 TIP3     2219     TIP3     OH2      OT      -0.834000       15.9994           0   0.00000       0.00000    
     31572 TIP3     2219     TIP3     H1       HT       0.417000       1.00800           0   0.00000       0.00000    
     31573 TIP3     2219     TIP3     H2       HT       0.417000       1.00800           0   0.00000     -0.301140E-02
     31574 TIP3     2220     TIP3     OH2      OT      -0.834000       15.9994           0   0.00000       0.00000    
     31575 TIP3     2220     TIP3     H1       HT       0.417000       1.00800           0   0.00000       0.00000    
     31576 TIP3     2220     TIP3     H2       HT       0.417000       1.00800           0   0.00000     -0.301140E-02
     31577 TIP3     2221     TIP3     OH2      OT      -0.834000       15.9994           0   0.00000       0.00000    
     31578 TIP3     2221     TIP3     H1       HT       0.417000       1.00800           0   0.00000       0.00000    
     31579 TIP3     2221     TIP3     H2       HT       0.417000       1.00800           0   0.00000     -0.301140E-02
     31580 TIP3     2222     TIP3     OH2      OT      -0.834000       15.9994           0   0.00000       0.00000    
     31581 TIP3     2222     TIP3     H1       HT       0.417000       1.00800           0   0.00000       0.00000    
     31582 TIP3     2222     TIP3     H2       HT       0.417000       1.00800           0   0.00000     -0.301140E-02
     31583 TIP3     2223     TIP3     OH2      OT      -0.834000       15.9994           0   0.00000       0.00000    
     31584 TIP3     2223     TIP3     H1       HT       0.417000       1.00800           0   0.00000       0.00000    
     31585 TIP3     2223     TIP3     H2       HT       0.417000       1.00800           0   0.00000     -0.301140E-02
     31586 TIP3     2224     TIP3     OH2      OT      -0.834000       15.9994           0   0.00000       0.00000    
     31587 TIP3     2224     TIP3     H1       HT       0.417000       1.00800           0   0.00000       0.00000    
     31588 TIP3     2224     TIP3     H2       HT       0.417000       1.00800           0   0.00000     -0.301140E-02
     31589 TIP3     2225     TIP3     OH2      OT      -0.834000       15.9994           0   0.00000       0.00000    
     31590 TIP3     2225     TIP3     H1       HT       0.417000       1.00800           0   0.00000       0.00000    
     31591 TIP3     2225     TIP3     H2       HT       0.417000       1.00800           0   0.00000     -0.301140E-02
     31592 TIP3     2226     TIP3     OH2      OT      -0.834000       15.9994           0   0.00000       0.00000    
     31593 TIP3     2226     TIP3     H1       HT       0.417000       1.00800           0   0.00000       0.00000    
     31594 TIP3     2226     TIP3     H2       HT       0.417000       1.00800           0   0.00000     -0.301140E-02
     31595 TIP3     2227     TIP3     OH2      OT      -0.834000       15.9994           0   0.00000       0.00000    
     31596 TIP3     2227     TIP3     H1       HT       0.417000       1.00800           0   0.00000       0.00000    
     31597 TIP3     2227     TIP3     H2       HT       0.417000       1.00800           0   0.00000     -0.301140E-02
     31598 TIP3     2228     TIP3     OH2      OT      -0.834000       15.9994           0   0.00000       0.00000    
     31599 TIP3     2228     TIP3     H1       HT       0.417000       1.00800           0   0.00000       0.00000    
     31600 TIP3     2228     TIP3     H2       HT       0.417000       1.00800           0   0.00000     -0.301140E-02
     31601 TIP3     2229     TIP3     OH2      OT      -0.834000       15.9994           0   0.00000       0.00000    
     31602 TIP3     2229     TIP3     H1       HT       0.417000       1.00800           0   0.00000       0.00000    
     31603 TIP3     2229     TIP3     H2       HT       0.417000       1.00800           0   0.00000     -0.301140E-02
     31604 TIP3     2230     TIP3     OH2      OT      -0.834000       15.9994           0   0.00000       0.00000    
     31605 TIP3     2230     TIP3     H1       HT       0.417000       1.00800           0   0.00000       0.00000    
     31606 TIP3     2230     TIP3     H2       HT       0.417000       1.00800           0   0.00000     -0.301140E-02
     31607 TIP3     2231     TIP3     OH2      OT      -0.834000       15.9994           0   0.00000       0.00000    
     31608 TIP3     2231     TIP3     H1       HT       0.417000       1.00800           0   0.00000       0.00000    
     31609 TIP3     2231     TIP3     H2       HT       0.417000       1.00800           0   0.00000     -0.301140E-02
     31610 TIP3     2232     TIP3     OH2      OT      -0.834000       15.9994           0   0.00000       0.00000    
     31611 TIP3     2232     TIP3     H1       HT       0.417000       1.00800           0   0.00000       0.00000    
     31612 TIP3     2232     TIP3     H2       HT       0.417000       1.00800           0   0.00000     -0.301140E-02
     31613 TIP3     2233     TIP3     OH2      OT      -0.834000       15.9994           0   0.00000       0.00000    
     31614 TIP3     2233     TIP3     H1       HT       0.417000       1.00800           0   0.00000       0.00000    
     31615 TIP3     2233     TIP3     H2       HT       0.417000       1.00800           0   0.00000     -0.301140E-02
     31616 TIP3     2234     TIP3     OH2      OT      -0.834000       15.9994           0   0.00000       0.00000    
     31617 TIP3     2234     TIP3     H1       HT       0.417000       1.00800           0   0.00000       0.00000    
     31618 TIP3     2234     TIP3     H2       HT       0.417000       1.00800           0   0.00000     -0.301140E-02
     31619 TIP3     2235     TIP3     OH2      OT      -0.834000       15.9994           0   0.00000       0.00000    
     31620 TIP3     2235     TIP3     H1       HT       0.417000       1.00800           0   0.00000       0.00000    
     31621 TIP3     2235     TIP3     H2       HT       0.417000       1.00800           0   0.00000     -0.301140E-02
     31622 TIP3     2236     TIP3     OH2      OT      -0.834000       15.9994           0   0.00000       0.00000    
     31623 TIP3     2236     TIP3     H1       HT       0.417000       1.00800           0   0.00000       0.00000    
     31624 TIP3     2236     TIP3     H2       HT       0.417000       1.00800           0   0.00000     -0.301140E-02
     31625 TIP3     2237     TIP3     OH2      OT      -0.834000       15.9994           0   0.00000       0.00000    
     31626 TIP3     2237     TIP3     H1       HT       0.417000       1.00800           0   0.00000       0.00000    
     31627 TIP3     2237     TIP3     H2       HT       0.417000       1.00800           0   0.00000     -0.301140E-02
     31628 TIP3     2238     TIP3     OH2      OT      -0.834000       15.9994           0   0.00000       0.00000    
     31629 TIP3     2238     TIP3     H1       HT       0.417000       1.00800           0   0.00000       0.00000    
     31630 TIP3     2238     TIP3     H2       HT       0.417000       1.00800           0   0.00000     -0.301140E-02
     31631 TIP3     2239     TIP3     OH2      OT      -0.834000       15.9994           0   0.00000       0.00000    
     31632 TIP3     2239     TIP3     H1       HT       0.417000       1.00800           0   0.00000       0.00000    
     31633 TIP3     2239     TIP3     H2       HT       0.417000       1.00800           0   0.00000     -0.301140E-02
     31634 TIP3     2240     TIP3     OH2      OT      -0.834000       15.9994           0   0.00000       0.00000    
     31635 TIP3     2240     TIP3     H1       HT       0.417000       1.00800           0   0.00000       0.00000    
     31636 TIP3     2240     TIP3     H2       HT       0.417000       1.00800           0   0.00000     -0.301140E-02
     31637 TIP3     2241     TIP3     OH2      OT      -0.834000       15.9994           0   0.00000       0.00000    
     31638 TIP3     2241     TIP3     H1       HT       0.417000       1.00800           0   0.00000       0.00000    
     31639 TIP3     2241     TIP3     H2       HT       0.417000       1.00800           0   0.00000     -0.301140E-02
     31640 TIP3     2242     TIP3     OH2      OT      -0.834000       15.9994           0   0.00000       0.00000    
     31641 TIP3     2242     TIP3     H1       HT       0.417000       1.00800           0   0.00000       0.00000    
     31642 TIP3     2242     TIP3     H2       HT       0.417000       1.00800           0   0.00000     -0.301140E-02
     31643 TIP3     2243     TIP3     OH2      OT      -0.834000       15.9994           0   0.00000       0.00000    
     31644 TIP3     2243     TIP3     H1       HT       0.417000       1.00800           0   0.00000       0.00000    
     31645 TIP3     2243     TIP3     H2       HT       0.417000       1.00800           0   0.00000     -0.301140E-02
     31646 TIP3     2244     TIP3     OH2      OT      -0.834000       15.9994           0   0.00000       0.00000    
     31647 TIP3     2244     TIP3     H1       HT       0.417000       1.00800           0   0.00000       0.00000    
     31648 TIP3     2244     TIP3     H2       HT       0.417000       1.00800           0   0.00000     -0.301140E-02
     31649 TIP3     2245     TIP3     OH2      OT      -0.834000       15.9994           0   0.00000       0.00000    
     31650 TIP3     2245     TIP3     H1       HT       0.417000       1.00800           0   0.00000       0.00000    
     31651 TIP3     2245     TIP3     H2       HT       0.417000       1.00800           0   0.00000     -0.301140E-02
     31652 TIP3     2246     TIP3     OH2      OT      -0.834000       15.9994           0   0.00000       0.00000    
     31653 TIP3     2246     TIP3     H1       HT       0.417000       1.00800           0   0.00000       0.00000    
     31654 TIP3     2246     TIP3     H2       HT       0.417000       1.00800           0   0.00000     -0.301140E-02
     31655 TIP3     2247     TIP3     OH2      OT      -0.834000       15.9994           0   0.00000       0.00000    
     31656 TIP3     2247     TIP3     H1       HT       0.417000       1.00800           0   0.00000       0.00000    
     31657 TIP3     2247     TIP3     H2       HT       0.417000       1.00800           0   0.00000     -0.301140E-02
     31658 TIP3     2248     TIP3     OH2      OT      -0.834000       15.9994           0   0.00000       0.00000    
     31659 TIP3     2248     TIP3     H1       HT       0.417000       1.00800           0   0.00000       0.00000    
     31660 TIP3     2248     TIP3     H2       HT       0.417000       1.00800           0   0.00000     -0.301140E-02
     31661 TIP3     2249     TIP3     OH2      OT      -0.834000       15.9994           0   0.00000       0.00000    
     31662 TIP3     2249     TIP3     H1       HT       0.417000       1.00800           0   0.00000       0.00000    
     31663 TIP3     2249     TIP3     H2       HT       0.417000       1.00800           0   0.00000     -0.301140E-02
     31664 TIP3     2250     TIP3     OH2      OT      -0.834000       15.9994           0   0.00000       0.00000    
     31665 TIP3     2250     TIP3     H1       HT       0.417000       1.00800           0   0.00000       0.00000    
     31666 TIP3     2250     TIP3     H2       HT       0.417000       1.00800           0   0.00000     -0.301140E-02
     31667 TIP3     2251     TIP3     OH2      OT      -0.834000       15.9994           0   0.00000       0.00000    
     31668 TIP3     2251     TIP3     H1       HT       0.417000       1.00800           0   0.00000       0.00000    
     31669 TIP3     2251     TIP3     H2       HT       0.417000       1.00800           0   0.00000     -0.301140E-02
     31670 TIP3     2252     TIP3     OH2      OT      -0.834000       15.9994           0   0.00000       0.00000    
     31671 TIP3     2252     TIP3     H1       HT       0.417000       1.00800           0   0.00000       0.00000    
     31672 TIP3     2252     TIP3     H2       HT       0.417000       1.00800           0   0.00000     -0.301140E-02
     31673 TIP3     2253     TIP3     OH2      OT      -0.834000       15.9994           0   0.00000       0.00000    
     31674 TIP3     2253     TIP3     H1       HT       0.417000       1.00800           0   0.00000       0.00000    
     31675 TIP3     2253     TIP3     H2       HT       0.417000       1.00800           0   0.00000     -0.301140E-02
     31676 TIP3     2254     TIP3     OH2      OT      -0.834000       15.9994           0   0.00000       0.00000    
     31677 TIP3     2254     TIP3     H1       HT       0.417000       1.00800           0   0.00000       0.00000    
     31678 TIP3     2254     TIP3     H2       HT       0.417000       1.00800           0   0.00000     -0.301140E-02
     31679 TIP3     2255     TIP3     OH2      OT      -0.834000       15.9994           0   0.00000       0.00000    
     31680 TIP3     2255     TIP3     H1       HT       0.417000       1.00800           0   0.00000       0.00000    
     31681 TIP3     2255     TIP3     H2       HT       0.417000       1.00800           0   0.00000     -0.301140E-02
     31682 TIP3     2256     TIP3     OH2      OT      -0.834000       15.9994           0   0.00000       0.00000    
     31683 TIP3     2256     TIP3     H1       HT       0.417000       1.00800           0   0.00000       0.00000    
     31684 TIP3     2256     TIP3     H2       HT       0.417000       1.00800           0   0.00000     -0.301140E-02
     31685 TIP3     2257     TIP3     OH2      OT      -0.834000       15.9994           0   0.00000       0.00000    
     31686 TIP3     2257     TIP3     H1       HT       0.417000       1.00800           0   0.00000       0.00000    
     31687 TIP3     2257     TIP3     H2       HT       0.417000       1.00800           0   0.00000     -0.301140E-02
     31688 TIP3     2258     TIP3     OH2      OT      -0.834000       15.9994           0   0.00000       0.00000    
     31689 TIP3     2258     TIP3     H1       HT       0.417000       1.00800           0   0.00000       0.00000    
     31690 TIP3     2258     TIP3     H2       HT       0.417000       1.00800           0   0.00000     -0.301140E-02
     31691 TIP3     2259     TIP3     OH2      OT      -0.834000       15.9994           0   0.00000       0.00000    
     31692 TIP3     2259     TIP3     H1       HT       0.417000       1.00800           0   0.00000       0.00000    
     31693 TIP3     2259     TIP3     H2       HT       0.417000       1.00800           0   0.00000     -0.301140E-02
     31694 TIP3     2260     TIP3     OH2      OT      -0.834000       15.9994           0   0.00000       0.00000    
     31695 TIP3     2260     TIP3     H1       HT       0.417000       1.00800           0   0.00000       0.00000    
     31696 TIP3     2260     TIP3     H2       HT       0.417000       1.00800           0   0.00000     -0.301140E-02
     31697 TIP3     2261     TIP3     OH2      OT      -0.834000       15.9994           0   0.00000       0.00000    
     31698 TIP3     2261     TIP3     H1       HT       0.417000       1.00800           0   0.00000       0.00000    
     31699 TIP3     2261     TIP3     H2       HT       0.417000       1.00800           0   0.00000     -0.301140E-02
     31700 TIP3     2262     TIP3     OH2      OT      -0.834000       15.9994           0   0.00000       0.00000    
     31701 TIP3     2262     TIP3     H1       HT       0.417000       1.00800           0   0.00000       0.00000    
     31702 TIP3     2262     TIP3     H2       HT       0.417000       1.00800           0   0.00000     -0.301140E-02
     31703 TIP3     2263     TIP3     OH2      OT      -0.834000       15.9994           0   0.00000       0.00000    
     31704 TIP3     2263     TIP3     H1       HT       0.417000       1.00800           0   0.00000       0.00000    
     31705 TIP3     2263     TIP3     H2       HT       0.417000       1.00800           0   0.00000     -0.301140E-02
     31706 TIP3     2264     TIP3     OH2      OT      -0.834000       15.9994           0   0.00000       0.00000    
     31707 TIP3     2264     TIP3     H1       HT       0.417000       1.00800           0   0.00000       0.00000    
     31708 TIP3     2264     TIP3     H2       HT       0.417000       1.00800           0   0.00000     -0.301140E-02
     31709 TIP3     2265     TIP3     OH2      OT      -0.834000       15.9994           0   0.00000       0.00000    
     31710 TIP3     2265     TIP3     H1       HT       0.417000       1.00800           0   0.00000       0.00000    
     31711 TIP3     2265     TIP3     H2       HT       0.417000       1.00800           0   0.00000     -0.301140E-02
     31712 TIP3     2266     TIP3     OH2      OT      -0.834000       15.9994           0   0.00000       0.00000    
     31713 TIP3     2266     TIP3     H1       HT       0.417000       1.00800           0   0.00000       0.00000    
     31714 TIP3     2266     TIP3     H2       HT       0.417000       1.00800           0   0.00000     -0.301140E-02
     31715 TIP3     2267     TIP3     OH2      OT      -0.834000       15.9994           0   0.00000       0.00000    
     31716 TIP3     2267     TIP3     H1       HT       0.417000       1.00800           0   0.00000       0.00000    
     31717 TIP3     2267     TIP3     H2       HT       0.417000       1.00800           0   0.00000     -0.301140E-02
     31718 TIP3     2268     TIP3     OH2      OT      -0.834000       15.9994           0   0.00000       0.00000    
     31719 TIP3     2268     TIP3     H1       HT       0.417000       1.00800           0   0.00000       0.00000    
     31720 TIP3     2268     TIP3     H2       HT       0.417000       1.00800           0   0.00000     -0.301140E-02
     31721 TIP3     2269     TIP3     OH2      OT      -0.834000       15.9994           0   0.00000       0.00000    
     31722 TIP3     2269     TIP3     H1       HT       0.417000       1.00800           0   0.00000       0.00000    
     31723 TIP3     2269     TIP3     H2       HT       0.417000       1.00800           0   0.00000     -0.301140E-02
     31724 TIP3     2270     TIP3     OH2      OT      -0.834000       15.9994           0   0.00000       0.00000    
     31725 TIP3     2270     TIP3     H1       HT       0.417000       1.00800           0   0.00000       0.00000    
     31726 TIP3     2270     TIP3     H2       HT       0.417000       1.00800           0   0.00000     -0.301140E-02
     31727 TIP3     2271     TIP3     OH2      OT      -0.834000       15.9994           0   0.00000       0.00000    
     31728 TIP3     2271     TIP3     H1       HT       0.417000       1.00800           0   0.00000       0.00000    
     31729 TIP3     2271     TIP3     H2       HT       0.417000       1.00800           0   0.00000     -0.301140E-02
     31730 TIP3     2272     TIP3     OH2      OT      -0.834000       15.9994           0   0.00000       0.00000    
     31731 TIP3     2272     TIP3     H1       HT       0.417000       1.00800           0   0.00000       0.00000    
     31732 TIP3     2272     TIP3     H2       HT       0.417000       1.00800           0   0.00000     -0.301140E-02
     31733 TIP3     2273     TIP3     OH2      OT      -0.834000       15.9994           0   0.00000       0.00000    
     31734 TIP3     2273     TIP3     H1       HT       0.417000       1.00800           0   0.00000       0.00000    
     31735 TIP3     2273     TIP3     H2       HT       0.417000       1.00800           0   0.00000     -0.301140E-02
     31736 TIP3     2274     TIP3     OH2      OT      -0.834000       15.9994           0   0.00000       0.00000    
     31737 TIP3     2274     TIP3     H1       HT       0.417000       1.00800           0   0.00000       0.00000    
     31738 TIP3     2274     TIP3     H2       HT       0.417000       1.00800           0   0.00000     -0.301140E-02
     31739 TIP3     2275     TIP3     OH2      OT      -0.834000       15.9994           0   0.00000       0.00000    
     31740 TIP3     2275     TIP3     H1       HT       0.417000       1.00800           0   0.00000       0.00000    
     31741 TIP3     2275     TIP3     H2       HT       0.417000       1.00800           0   0.00000     -0.301140E-02
     31742 TIP3     2276     TIP3     OH2      OT      -0.834000       15.9994           0   0.00000       0.00000    
     31743 TIP3     2276     TIP3     H1       HT       0.417000       1.00800           0   0.00000       0.00000    
     31744 TIP3     2276     TIP3     H2       HT       0.417000       1.00800           0   0.00000     -0.301140E-02
     31745 TIP3     2277     TIP3     OH2      OT      -0.834000       15.9994           0   0.00000       0.00000    
     31746 TIP3     2277     TIP3     H1       HT       0.417000       1.00800           0   0.00000       0.00000    
     31747 TIP3     2277     TIP3     H2       HT       0.417000       1.00800           0   0.00000     -0.301140E-02
     31748 TIP3     2278     TIP3     OH2      OT      -0.834000       15.9994           0   0.00000       0.00000    
     31749 TIP3     2278     TIP3     H1       HT       0.417000       1.00800           0   0.00000       0.00000    
     31750 TIP3     2278     TIP3     H2       HT       0.417000       1.00800           0   0.00000     -0.301140E-02
     31751 TIP3     2279     TIP3     OH2      OT      -0.834000       15.9994           0   0.00000       0.00000    
     31752 TIP3     2279     TIP3     H1       HT       0.417000       1.00800           0   0.00000       0.00000    
     31753 TIP3     2279     TIP3     H2       HT       0.417000       1.00800           0   0.00000     -0.301140E-02
     31754 TIP3     2280     TIP3     OH2      OT      -0.834000       15.9994           0   0.00000       0.00000    
     31755 TIP3     2280     TIP3     H1       HT       0.417000       1.00800           0   0.00000       0.00000    
     31756 TIP3     2280     TIP3     H2       HT       0.417000       1.00800           0   0.00000     -0.301140E-02
     31757 TIP3     2281     TIP3     OH2      OT      -0.834000       15.9994           0   0.00000       0.00000    
     31758 TIP3     2281     TIP3     H1       HT       0.417000       1.00800           0   0.00000       0.00000    
     31759 TIP3     2281     TIP3     H2       HT       0.417000       1.00800           0   0.00000     -0.301140E-02
     31760 TIP3     2282     TIP3     OH2      OT      -0.834000       15.9994           0   0.00000       0.00000    
     31761 TIP3     2282     TIP3     H1       HT       0.417000       1.00800           0   0.00000       0.00000    
     31762 TIP3     2282     TIP3     H2       HT       0.417000       1.00800           0   0.00000     -0.301140E-02
     31763 TIP3     2283     TIP3     OH2      OT      -0.834000       15.9994           0   0.00000       0.00000    
     31764 TIP3     2283     TIP3     H1       HT       0.417000       1.00800           0   0.00000       0.00000    
     31765 TIP3     2283     TIP3     H2       HT       0.417000       1.00800           0   0.00000     -0.301140E-02
     31766 TIP3     2284     TIP3     OH2      OT      -0.834000       15.9994           0   0.00000       0.00000    
     31767 TIP3     2284     TIP3     H1       HT       0.417000       1.00800           0   0.00000       0.00000    
     31768 TIP3     2284     TIP3     H2       HT       0.417000       1.00800           0   0.00000     -0.301140E-02
     31769 TIP3     2285     TIP3     OH2      OT      -0.834000       15.9994           0   0.00000       0.00000    
     31770 TIP3     2285     TIP3     H1       HT       0.417000       1.00800           0   0.00000       0.00000    
     31771 TIP3     2285     TIP3     H2       HT       0.417000       1.00800           0   0.00000     -0.301140E-02
     31772 TIP3     2286     TIP3     OH2      OT      -0.834000       15.9994           0   0.00000       0.00000    
     31773 TIP3     2286     TIP3     H1       HT       0.417000       1.00800           0   0.00000       0.00000    
     31774 TIP3     2286     TIP3     H2       HT       0.417000       1.00800           0   0.00000     -0.301140E-02
     31775 TIP3     2287     TIP3     OH2      OT      -0.834000       15.9994           0   0.00000       0.00000    
     31776 TIP3     2287     TIP3     H1       HT       0.417000       1.00800           0   0.00000       0.00000    
     31777 TIP3     2287     TIP3     H2       HT       0.417000       1.00800           0   0.00000     -0.301140E-02
     31778 TIP3     2288     TIP3     OH2      OT      -0.834000       15.9994           0   0.00000       0.00000    
     31779 TIP3     2288     TIP3     H1       HT       0.417000       1.00800           0   0.00000       0.00000    
     31780 TIP3     2288     TIP3     H2       HT       0.417000       1.00800           0   0.00000     -0.301140E-02
     31781 TIP3     2289     TIP3     OH2      OT      -0.834000       15.9994           0   0.00000       0.00000    
     31782 TIP3     2289     TIP3     H1       HT       0.417000       1.00800           0   0.00000       0.00000    
     31783 TIP3     2289     TIP3     H2       HT       0.417000       1.00800           0   0.00000     -0.301140E-02
     31784 TIP3     2290     TIP3     OH2      OT      -0.834000       15.9994           0   0.00000       0.00000    
     31785 TIP3     2290     TIP3     H1       HT       0.417000       1.00800           0   0.00000       0.00000    
     31786 TIP3     2290     TIP3     H2       HT       0.417000       1.00800           0   0.00000     -0.301140E-02
     31787 TIP3     2291     TIP3     OH2      OT      -0.834000       15.9994           0   0.00000       0.00000    
     31788 TIP3     2291     TIP3     H1       HT       0.417000       1.00800           0   0.00000       0.00000    
     31789 TIP3     2291     TIP3     H2       HT       0.417000       1.00800           0   0.00000     -0.301140E-02
     31790 TIP3     2292     TIP3     OH2      OT      -0.834000       15.9994           0   0.00000       0.00000    
     31791 TIP3     2292     TIP3     H1       HT       0.417000       1.00800           0   0.00000       0.00000    
     31792 TIP3     2292     TIP3     H2       HT       0.417000       1.00800           0   0.00000     -0.301140E-02
     31793 TIP3     2293     TIP3     OH2      OT      -0.834000       15.9994           0   0.00000       0.00000    
     31794 TIP3     2293     TIP3     H1       HT       0.417000       1.00800           0   0.00000       0.00000    
     31795 TIP3     2293     TIP3     H2       HT       0.417000       1.00800           0   0.00000     -0.301140E-02
     31796 TIP3     2294     TIP3     OH2      OT      -0.834000       15.9994           0   0.00000       0.00000    
     31797 TIP3     2294     TIP3     H1       HT       0.417000       1.00800           0   0.00000       0.00000    
     31798 TIP3     2294     TIP3     H2       HT       0.417000       1.00800           0   0.00000     -0.301140E-02
     31799 TIP3     2295     TIP3     OH2      OT      -0.834000       15.9994           0   0.00000       0.00000    
     31800 TIP3     2295     TIP3     H1       HT       0.417000       1.00800           0   0.00000       0.00000    
     31801 TIP3     2295     TIP3     H2       HT       0.417000       1.00800           0   0.00000     -0.301140E-02
     31802 TIP3     2296     TIP3     OH2      OT      -0.834000       15.9994           0   0.00000       0.00000    
     31803 TIP3     2296     TIP3     H1       HT       0.417000       1.00800           0   0.00000       0.00000    
     31804 TIP3     2296     TIP3     H2       HT       0.417000       1.00800           0   0.00000     -0.301140E-02
     31805 TIP3     2297     TIP3     OH2      OT      -0.834000       15.9994           0   0.00000       0.00000    
     31806 TIP3     2297     TIP3     H1       HT       0.417000       1.00800           0   0.00000       0.00000    
     31807 TIP3     2297     TIP3     H2       HT       0.417000       1.00800           0   0.00000     -0.301140E-02
     31808 TIP3     2298     TIP3     OH2      OT      -0.834000       15.9994           0   0.00000       0.00000    
     31809 TIP3     2298     TIP3     H1       HT       0.417000       1.00800           0   0.00000       0.00000    
     31810 TIP3     2298     TIP3     H2       HT       0.417000       1.00800           0   0.00000     -0.301140E-02
     31811 TIP3     2299     TIP3     OH2      OT      -0.834000       15.9994           0   0.00000       0.00000    
     31812 TIP3     2299     TIP3     H1       HT       0.417000       1.00800           0   0.00000       0.00000    
     31813 TIP3     2299     TIP3     H2       HT       0.417000       1.00800           0   0.00000     -0.301140E-02
     31814 TIP3     2300     TIP3     OH2      OT      -0.834000       15.9994           0   0.00000       0.00000    
     31815 TIP3     2300     TIP3     H1       HT       0.417000       1.00800           0   0.00000       0.00000    
     31816 TIP3     2300     TIP3     H2       HT       0.417000       1.00800           0   0.00000     -0.301140E-02
     31817 TIP3     2301     TIP3     OH2      OT      -0.834000       15.9994           0   0.00000       0.00000    
     31818 TIP3     2301     TIP3     H1       HT       0.417000       1.00800           0   0.00000       0.00000    
     31819 TIP3     2301     TIP3     H2       HT       0.417000       1.00800           0   0.00000     -0.301140E-02
     31820 TIP3     2302     TIP3     OH2      OT      -0.834000       15.9994           0   0.00000       0.00000    
     31821 TIP3     2302     TIP3     H1       HT       0.417000       1.00800           0   0.00000       0.00000    
     31822 TIP3     2302     TIP3     H2       HT       0.417000       1.00800           0   0.00000     -0.301140E-02
     31823 TIP3     2303     TIP3     OH2      OT      -0.834000       15.9994           0   0.00000       0.00000    
     31824 TIP3     2303     TIP3     H1       HT       0.417000       1.00800           0   0.00000       0.00000    
     31825 TIP3     2303     TIP3     H2       HT       0.417000       1.00800           0   0.00000     -0.301140E-02
     31826 TIP3     2304     TIP3     OH2      OT      -0.834000       15.9994           0   0.00000       0.00000    
     31827 TIP3     2304     TIP3     H1       HT       0.417000       1.00800           0   0.00000       0.00000    
     31828 TIP3     2304     TIP3     H2       HT       0.417000       1.00800           0   0.00000     -0.301140E-02
     31829 TIP3     2305     TIP3     OH2      OT      -0.834000       15.9994           0   0.00000       0.00000    
     31830 TIP3     2305     TIP3     H1       HT       0.417000       1.00800           0   0.00000       0.00000    
     31831 TIP3     2305     TIP3     H2       HT       0.417000       1.00800           0   0.00000     -0.301140E-02
     31832 TIP3     2306     TIP3     OH2      OT      -0.834000       15.9994           0   0.00000       0.00000    
     31833 TIP3     2306     TIP3     H1       HT       0.417000       1.00800           0   0.00000       0.00000    
     31834 TIP3     2306     TIP3     H2       HT       0.417000       1.00800           0   0.00000     -0.301140E-02
     31835 TIP3     2307     TIP3     OH2      OT      -0.834000       15.9994           0   0.00000       0.00000    
     31836 TIP3     2307     TIP3     H1       HT       0.417000       1.00800           0   0.00000       0.00000    
     31837 TIP3     2307     TIP3     H2       HT       0.417000       1.00800           0   0.00000     -0.301140E-02
     31838 TIP3     2308     TIP3     OH2      OT      -0.834000       15.9994           0   0.00000       0.00000    
     31839 TIP3     2308     TIP3     H1       HT       0.417000       1.00800           0   0.00000       0.00000    
     31840 TIP3     2308     TIP3     H2       HT       0.417000       1.00800           0   0.00000     -0.301140E-02
     31841 TIP3     2309     TIP3     OH2      OT      -0.834000       15.9994           0   0.00000       0.00000    
     31842 TIP3     2309     TIP3     H1       HT       0.417000       1.00800           0   0.00000       0.00000    
     31843 TIP3     2309     TIP3     H2       HT       0.417000       1.00800           0   0.00000     -0.301140E-02
     31844 TIP3     2310     TIP3     OH2      OT      -0.834000       15.9994           0   0.00000       0.00000    
     31845 TIP3     2310     TIP3     H1       HT       0.417000       1.00800           0   0.00000       0.00000    
     31846 TIP3     2310     TIP3     H2       HT       0.417000       1.00800           0   0.00000     -0.301140E-02
     31847 TIP3     2311     TIP3     OH2      OT      -0.834000       15.9994           0   0.00000       0.00000    
     31848 TIP3     2311     TIP3     H1       HT       0.417000       1.00800           0   0.00000       0.00000    
     31849 TIP3     2311     TIP3     H2       HT       0.417000       1.00800           0   0.00000     -0.301140E-02
     31850 TIP3     2312     TIP3     OH2      OT      -0.834000       15.9994           0   0.00000       0.00000    
     31851 TIP3     2312     TIP3     H1       HT       0.417000       1.00800           0   0.00000       0.00000    
     31852 TIP3     2312     TIP3     H2       HT       0.417000       1.00800           0   0.00000     -0.301140E-02
     31853 TIP3     2313     TIP3     OH2      OT      -0.834000       15.9994           0   0.00000       0.00000    
     31854 TIP3     2313     TIP3     H1       HT       0.417000       1.00800           0   0.00000       0.00000    
     31855 TIP3     2313     TIP3     H2       HT       0.417000       1.00800           0   0.00000     -0.301140E-02
     31856 TIP3     2314     TIP3     OH2      OT      -0.834000       15.9994           0   0.00000       0.00000    
     31857 TIP3     2314     TIP3     H1       HT       0.417000       1.00800           0   0.00000       0.00000    
     31858 TIP3     2314     TIP3     H2       HT       0.417000       1.00800           0   0.00000     -0.301140E-02
     31859 TIP3     2315     TIP3     OH2      OT      -0.834000       15.9994           0   0.00000       0.00000    
     31860 TIP3     2315     TIP3     H1       HT       0.417000       1.00800           0   0.00000       0.00000    
     31861 TIP3     2315     TIP3     H2       HT       0.417000       1.00800           0   0.00000     -0.301140E-02
     31862 TIP3     2316     TIP3     OH2      OT      -0.834000       15.9994           0   0.00000       0.00000    
     31863 TIP3     2316     TIP3     H1       HT       0.417000       1.00800           0   0.00000       0.00000    
     31864 TIP3     2316     TIP3     H2       HT       0.417000       1.00800           0   0.00000     -0.301140E-02
     31865 TIP3     2317     TIP3     OH2      OT      -0.834000       15.9994           0   0.00000       0.00000    
     31866 TIP3     2317     TIP3     H1       HT       0.417000       1.00800           0   0.00000       0.00000    
     31867 TIP3     2317     TIP3     H2       HT       0.417000       1.00800           0   0.00000     -0.301140E-02
     31868 TIP3     2318     TIP3     OH2      OT      -0.834000       15.9994           0   0.00000       0.00000    
     31869 TIP3     2318     TIP3     H1       HT       0.417000       1.00800           0   0.00000       0.00000    
     31870 TIP3     2318     TIP3     H2       HT       0.417000       1.00800           0   0.00000     -0.301140E-02
     31871 TIP3     2319     TIP3     OH2      OT      -0.834000       15.9994           0   0.00000       0.00000    
     31872 TIP3     2319     TIP3     H1       HT       0.417000       1.00800           0   0.00000       0.00000    
     31873 TIP3     2319     TIP3     H2       HT       0.417000       1.00800           0   0.00000     -0.301140E-02
     31874 TIP3     2320     TIP3     OH2      OT      -0.834000       15.9994           0   0.00000       0.00000    
     31875 TIP3     2320     TIP3     H1       HT       0.417000       1.00800           0   0.00000       0.00000    
     31876 TIP3     2320     TIP3     H2       HT       0.417000       1.00800           0   0.00000     -0.301140E-02
     31877 TIP3     2321     TIP3     OH2      OT      -0.834000       15.9994           0   0.00000       0.00000    
     31878 TIP3     2321     TIP3     H1       HT       0.417000       1.00800           0   0.00000       0.00000    
     31879 TIP3     2321     TIP3     H2       HT       0.417000       1.00800           0   0.00000     -0.301140E-02
     31880 TIP3     2322     TIP3     OH2      OT      -0.834000       15.9994           0   0.00000       0.00000    
     31881 TIP3     2322     TIP3     H1       HT       0.417000       1.00800           0   0.00000       0.00000    
     31882 TIP3     2322     TIP3     H2       HT       0.417000       1.00800           0   0.00000     -0.301140E-02
     31883 TIP3     2323     TIP3     OH2      OT      -0.834000       15.9994           0   0.00000       0.00000    
     31884 TIP3     2323     TIP3     H1       HT       0.417000       1.00800           0   0.00000       0.00000    
     31885 TIP3     2323     TIP3     H2       HT       0.417000       1.00800           0   0.00000     -0.301140E-02
     31886 TIP3     2324     TIP3     OH2      OT      -0.834000       15.9994           0   0.00000       0.00000    
     31887 TIP3     2324     TIP3     H1       HT       0.417000       1.00800           0   0.00000       0.00000    
     31888 TIP3     2324     TIP3     H2       HT       0.417000       1.00800           0   0.00000     -0.301140E-02
     31889 TIP3     2325     TIP3     OH2      OT      -0.834000       15.9994           0   0.00000       0.00000    
     31890 TIP3     2325     TIP3     H1       HT       0.417000       1.00800           0   0.00000       0.00000    
     31891 TIP3     2325     TIP3     H2       HT       0.417000       1.00800           0   0.00000     -0.301140E-02
     31892 TIP3     2326     TIP3     OH2      OT      -0.834000       15.9994           0   0.00000       0.00000    
     31893 TIP3     2326     TIP3     H1       HT       0.417000       1.00800           0   0.00000       0.00000    
     31894 TIP3     2326     TIP3     H2       HT       0.417000       1.00800           0   0.00000     -0.301140E-02
     31895 TIP3     2327     TIP3     OH2      OT      -0.834000       15.9994           0   0.00000       0.00000    
     31896 TIP3     2327     TIP3     H1       HT       0.417000       1.00800           0   0.00000       0.00000    
     31897 TIP3     2327     TIP3     H2       HT       0.417000       1.00800           0   0.00000     -0.301140E-02
     31898 TIP3     2328     TIP3     OH2      OT      -0.834000       15.9994           0   0.00000       0.00000    
     31899 TIP3     2328     TIP3     H1       HT       0.417000       1.00800           0   0.00000       0.00000    
     31900 TIP3     2328     TIP3     H2       HT       0.417000       1.00800           0   0.00000     -0.301140E-02
     31901 TIP3     2329     TIP3     OH2      OT      -0.834000       15.9994           0   0.00000       0.00000    
     31902 TIP3     2329     TIP3     H1       HT       0.417000       1.00800           0   0.00000       0.00000    
     31903 TIP3     2329     TIP3     H2       HT       0.417000       1.00800           0   0.00000     -0.301140E-02
     31904 TIP3     2330     TIP3     OH2      OT      -0.834000       15.9994           0   0.00000       0.00000    
     31905 TIP3     2330     TIP3     H1       HT       0.417000       1.00800           0   0.00000       0.00000    
     31906 TIP3     2330     TIP3     H2       HT       0.417000       1.00800           0   0.00000     -0.301140E-02
     31907 TIP3     2331     TIP3     OH2      OT      -0.834000       15.9994           0   0.00000       0.00000    
     31908 TIP3     2331     TIP3     H1       HT       0.417000       1.00800           0   0.00000       0.00000    
     31909 TIP3     2331     TIP3     H2       HT       0.417000       1.00800           0   0.00000     -0.301140E-02
     31910 TIP3     2332     TIP3     OH2      OT      -0.834000       15.9994           0   0.00000       0.00000    
     31911 TIP3     2332     TIP3     H1       HT       0.417000       1.00800           0   0.00000       0.00000    
     31912 TIP3     2332     TIP3     H2       HT       0.417000       1.00800           0   0.00000     -0.301140E-02
     31913 TIP3     2333     TIP3     OH2      OT      -0.834000       15.9994           0   0.00000       0.00000    
     31914 TIP3     2333     TIP3     H1       HT       0.417000       1.00800           0   0.00000       0.00000    
     31915 TIP3     2333     TIP3     H2       HT       0.417000       1.00800           0   0.00000     -0.301140E-02
     31916 TIP3     2334     TIP3     OH2      OT      -0.834000       15.9994           0   0.00000       0.00000    
     31917 TIP3     2334     TIP3     H1       HT       0.417000       1.00800           0   0.00000       0.00000    
     31918 TIP3     2334     TIP3     H2       HT       0.417000       1.00800           0   0.00000     -0.301140E-02
     31919 TIP3     2335     TIP3     OH2      OT      -0.834000       15.9994           0   0.00000       0.00000    
     31920 TIP3     2335     TIP3     H1       HT       0.417000       1.00800           0   0.00000       0.00000    
     31921 TIP3     2335     TIP3     H2       HT       0.417000       1.00800           0   0.00000     -0.301140E-02
     31922 TIP3     2336     TIP3     OH2      OT      -0.834000       15.9994           0   0.00000       0.00000    
     31923 TIP3     2336     TIP3     H1       HT       0.417000       1.00800           0   0.00000       0.00000    
     31924 TIP3     2336     TIP3     H2       HT       0.417000       1.00800           0   0.00000     -0.301140E-02
     31925 TIP3     2337     TIP3     OH2      OT      -0.834000       15.9994           0   0.00000       0.00000    
     31926 TIP3     2337     TIP3     H1       HT       0.417000       1.00800           0   0.00000       0.00000    
     31927 TIP3     2337     TIP3     H2       HT       0.417000       1.00800           0   0.00000     -0.301140E-02
     31928 TIP3     2338     TIP3     OH2      OT      -0.834000       15.9994           0   0.00000       0.00000    
     31929 TIP3     2338     TIP3     H1       HT       0.417000       1.00800           0   0.00000       0.00000    
     31930 TIP3     2338     TIP3     H2       HT       0.417000       1.00800           0   0.00000     -0.301140E-02
     31931 TIP3     2339     TIP3     OH2      OT      -0.834000       15.9994           0   0.00000       0.00000    
     31932 TIP3     2339     TIP3     H1       HT       0.417000       1.00800           0   0.00000       0.00000    
     31933 TIP3     2339     TIP3     H2       HT       0.417000       1.00800           0   0.00000     -0.301140E-02
     31934 TIP3     2340     TIP3     OH2      OT      -0.834000       15.9994           0   0.00000       0.00000    
     31935 TIP3     2340     TIP3     H1       HT       0.417000       1.00800           0   0.00000       0.00000    
     31936 TIP3     2340     TIP3     H2       HT       0.417000       1.00800           0   0.00000     -0.301140E-02
     31937 TIP3     2341     TIP3     OH2      OT      -0.834000       15.9994           0   0.00000       0.00000    
     31938 TIP3     2341     TIP3     H1       HT       0.417000       1.00800           0   0.00000       0.00000    
     31939 TIP3     2341     TIP3     H2       HT       0.417000       1.00800           0   0.00000     -0.301140E-02
     31940 TIP3     2342     TIP3     OH2      OT      -0.834000       15.9994           0   0.00000       0.00000    
     31941 TIP3     2342     TIP3     H1       HT       0.417000       1.00800           0   0.00000       0.00000    
     31942 TIP3     2342     TIP3     H2       HT       0.417000       1.00800           0   0.00000     -0.301140E-02
     31943 TIP3     2343     TIP3     OH2      OT      -0.834000       15.9994           0   0.00000       0.00000    
     31944 TIP3     2343     TIP3     H1       HT       0.417000       1.00800           0   0.00000       0.00000    
     31945 TIP3     2343     TIP3     H2       HT       0.417000       1.00800           0   0.00000     -0.301140E-02
     31946 TIP3     2344     TIP3     OH2      OT      -0.834000       15.9994           0   0.00000       0.00000    
     31947 TIP3     2344     TIP3     H1       HT       0.417000       1.00800           0   0.00000       0.00000    
     31948 TIP3     2344     TIP3     H2       HT       0.417000       1.00800           0   0.00000     -0.301140E-02
     31949 TIP3     2345     TIP3     OH2      OT      -0.834000       15.9994           0   0.00000       0.00000    
     31950 TIP3     2345     TIP3     H1       HT       0.417000       1.00800           0   0.00000       0.00000    
     31951 TIP3     2345     TIP3     H2       HT       0.417000       1.00800           0   0.00000     -0.301140E-02
     31952 TIP3     2346     TIP3     OH2      OT      -0.834000       15.9994           0   0.00000       0.00000    
     31953 TIP3     2346     TIP3     H1       HT       0.417000       1.00800           0   0.00000       0.00000    
     31954 TIP3     2346     TIP3     H2       HT       0.417000       1.00800           0   0.00000     -0.301140E-02
     31955 TIP3     2347     TIP3     OH2      OT      -0.834000       15.9994           0   0.00000       0.00000    
     31956 TIP3     2347     TIP3     H1       HT       0.417000       1.00800           0   0.00000       0.00000    
     31957 TIP3     2347     TIP3     H2       HT       0.417000       1.00800           0   0.00000     -0.301140E-02
     31958 TIP3     2348     TIP3     OH2      OT      -0.834000       15.9994           0   0.00000       0.00000    
     31959 TIP3     2348     TIP3     H1       HT       0.417000       1.00800           0   0.00000       0.00000    
     31960 TIP3     2348     TIP3     H2       HT       0.417000       1.00800           0   0.00000     -0.301140E-02
     31961 TIP3     2349     TIP3     OH2      OT      -0.834000       15.9994           0   0.00000       0.00000    
     31962 TIP3     2349     TIP3     H1       HT       0.417000       1.00800           0   0.00000       0.00000    
     31963 TIP3     2349     TIP3     H2       HT       0.417000       1.00800           0   0.00000     -0.301140E-02
     31964 TIP3     2350     TIP3     OH2      OT      -0.834000       15.9994           0   0.00000       0.00000    
     31965 TIP3     2350     TIP3     H1       HT       0.417000       1.00800           0   0.00000       0.00000    
     31966 TIP3     2350     TIP3     H2       HT       0.417000       1.00800           0   0.00000     -0.301140E-02
     31967 TIP3     2351     TIP3     OH2      OT      -0.834000       15.9994           0   0.00000       0.00000    
     31968 TIP3     2351     TIP3     H1       HT       0.417000       1.00800           0   0.00000       0.00000    
     31969 TIP3     2351     TIP3     H2       HT       0.417000       1.00800           0   0.00000     -0.301140E-02
     31970 TIP3     2352     TIP3     OH2      OT      -0.834000       15.9994           0   0.00000       0.00000    
     31971 TIP3     2352     TIP3     H1       HT       0.417000       1.00800           0   0.00000       0.00000    
     31972 TIP3     2352     TIP3     H2       HT       0.417000       1.00800           0   0.00000     -0.301140E-02
     31973 TIP3     2353     TIP3     OH2      OT      -0.834000       15.9994           0   0.00000       0.00000    
     31974 TIP3     2353     TIP3     H1       HT       0.417000       1.00800           0   0.00000       0.00000    
     31975 TIP3     2353     TIP3     H2       HT       0.417000       1.00800           0   0.00000     -0.301140E-02
     31976 TIP3     2354     TIP3     OH2      OT      -0.834000       15.9994           0   0.00000       0.00000    
     31977 TIP3     2354     TIP3     H1       HT       0.417000       1.00800           0   0.00000       0.00000    
     31978 TIP3     2354     TIP3     H2       HT       0.417000       1.00800           0   0.00000     -0.301140E-02
     31979 TIP3     2355     TIP3     OH2      OT      -0.834000       15.9994           0   0.00000       0.00000    
     31980 TIP3     2355     TIP3     H1       HT       0.417000       1.00800           0   0.00000       0.00000    
     31981 TIP3     2355     TIP3     H2       HT       0.417000       1.00800           0   0.00000     -0.301140E-02
     31982 TIP3     2356     TIP3     OH2      OT      -0.834000       15.9994           0   0.00000       0.00000    
     31983 TIP3     2356     TIP3     H1       HT       0.417000       1.00800           0   0.00000       0.00000    
     31984 TIP3     2356     TIP3     H2       HT       0.417000       1.00800           0   0.00000     -0.301140E-02
     31985 TIP3     2357     TIP3     OH2      OT      -0.834000       15.9994           0   0.00000       0.00000    
     31986 TIP3     2357     TIP3     H1       HT       0.417000       1.00800           0   0.00000       0.00000    
     31987 TIP3     2357     TIP3     H2       HT       0.417000       1.00800           0   0.00000     -0.301140E-02
     31988 TIP3     2358     TIP3     OH2      OT      -0.834000       15.9994           0   0.00000       0.00000    
     31989 TIP3     2358     TIP3     H1       HT       0.417000       1.00800           0   0.00000       0.00000    
     31990 TIP3     2358     TIP3     H2       HT       0.417000       1.00800           0   0.00000     -0.301140E-02
     31991 TIP3     2359     TIP3     OH2      OT      -0.834000       15.9994           0   0.00000       0.00000    
     31992 TIP3     2359     TIP3     H1       HT       0.417000       1.00800           0   0.00000       0.00000    
     31993 TIP3     2359     TIP3     H2       HT       0.417000       1.00800           0   0.00000     -0.301140E-02
     31994 TIP3     2360     TIP3     OH2      OT      -0.834000       15.9994           0   0.00000       0.00000    
     31995 TIP3     2360     TIP3     H1       HT       0.417000       1.00800           0   0.00000       0.00000    
     31996 TIP3     2360     TIP3     H2       HT       0.417000       1.00800           0   0.00000     -0.301140E-02
     31997 TIP3     2361     TIP3     OH2      OT      -0.834000       15.9994           0   0.00000       0.00000    
     31998 TIP3     2361     TIP3     H1       HT       0.417000       1.00800           0   0.00000       0.00000    
     31999 TIP3     2361     TIP3     H2       HT       0.417000       1.00800           0   0.00000     -0.301140E-02
     32000 TIP3     2362     TIP3     OH2      OT      -0.834000       15.9994           0   0.00000       0.00000    
     32001 TIP3     2362     TIP3     H1       HT       0.417000       1.00800           0   0.00000       0.00000    
     32002 TIP3     2362     TIP3     H2       HT       0.417000       1.00800           0   0.00000     -0.301140E-02
     32003 TIP3     2363     TIP3     OH2      OT      -0.834000       15.9994           0   0.00000       0.00000    
     32004 TIP3     2363     TIP3     H1       HT       0.417000       1.00800           0   0.00000       0.00000    
     32005 TIP3     2363     TIP3     H2       HT       0.417000       1.00800           0   0.00000     -0.301140E-02
     32006 TIP3     2364     TIP3     OH2      OT      -0.834000       15.9994           0   0.00000       0.00000    
     32007 TIP3     2364     TIP3     H1       HT       0.417000       1.00800           0   0.00000       0.00000    
     32008 TIP3     2364     TIP3     H2       HT       0.417000       1.00800           0   0.00000     -0.301140E-02
     32009 TIP3     2365     TIP3     OH2      OT      -0.834000       15.9994           0   0.00000       0.00000    
     32010 TIP3     2365     TIP3     H1       HT       0.417000       1.00800           0   0.00000       0.00000    
     32011 TIP3     2365     TIP3     H2       HT       0.417000       1.00800           0   0.00000     -0.301140E-02
     32012 TIP3     2366     TIP3     OH2      OT      -0.834000       15.9994           0   0.00000       0.00000    
     32013 TIP3     2366     TIP3     H1       HT       0.417000       1.00800           0   0.00000       0.00000    
     32014 TIP3     2366     TIP3     H2       HT       0.417000       1.00800           0   0.00000     -0.301140E-02
     32015 TIP3     2367     TIP3     OH2      OT      -0.834000       15.9994           0   0.00000       0.00000    
     32016 TIP3     2367     TIP3     H1       HT       0.417000       1.00800           0   0.00000       0.00000    
     32017 TIP3     2367     TIP3     H2       HT       0.417000       1.00800           0   0.00000     -0.301140E-02
     32018 TIP3     2368     TIP3     OH2      OT      -0.834000       15.9994           0   0.00000       0.00000    
     32019 TIP3     2368     TIP3     H1       HT       0.417000       1.00800           0   0.00000       0.00000    
     32020 TIP3     2368     TIP3     H2       HT       0.417000       1.00800           0   0.00000     -0.301140E-02
     32021 TIP3     2369     TIP3     OH2      OT      -0.834000       15.9994           0   0.00000       0.00000    
     32022 TIP3     2369     TIP3     H1       HT       0.417000       1.00800           0   0.00000       0.00000    
     32023 TIP3     2369     TIP3     H2       HT       0.417000       1.00800           0   0.00000     -0.301140E-02
     32024 TIP3     2370     TIP3     OH2      OT      -0.834000       15.9994           0   0.00000       0.00000    
     32025 TIP3     2370     TIP3     H1       HT       0.417000       1.00800           0   0.00000       0.00000    
     32026 TIP3     2370     TIP3     H2       HT       0.417000       1.00800           0   0.00000     -0.301140E-02
     32027 TIP3     2371     TIP3     OH2      OT      -0.834000       15.9994           0   0.00000       0.00000    
     32028 TIP3     2371     TIP3     H1       HT       0.417000       1.00800           0   0.00000       0.00000    
     32029 TIP3     2371     TIP3     H2       HT       0.417000       1.00800           0   0.00000     -0.301140E-02
     32030 TIP3     2372     TIP3     OH2      OT      -0.834000       15.9994           0   0.00000       0.00000    
     32031 TIP3     2372     TIP3     H1       HT       0.417000       1.00800           0   0.00000       0.00000    
     32032 TIP3     2372     TIP3     H2       HT       0.417000       1.00800           0   0.00000     -0.301140E-02
     32033 TIP3     2373     TIP3     OH2      OT      -0.834000       15.9994           0   0.00000       0.00000    
     32034 TIP3     2373     TIP3     H1       HT       0.417000       1.00800           0   0.00000       0.00000    
     32035 TIP3     2373     TIP3     H2       HT       0.417000       1.00800           0   0.00000     -0.301140E-02
     32036 TIP3     2374     TIP3     OH2      OT      -0.834000       15.9994           0   0.00000       0.00000    
     32037 TIP3     2374     TIP3     H1       HT       0.417000       1.00800           0   0.00000       0.00000    
     32038 TIP3     2374     TIP3     H2       HT       0.417000       1.00800           0   0.00000     -0.301140E-02
     32039 TIP3     2375     TIP3     OH2      OT      -0.834000       15.9994           0   0.00000       0.00000    
     32040 TIP3     2375     TIP3     H1       HT       0.417000       1.00800           0   0.00000       0.00000    
     32041 TIP3     2375     TIP3     H2       HT       0.417000       1.00800           0   0.00000     -0.301140E-02
     32042 TIP3     2376     TIP3     OH2      OT      -0.834000       15.9994           0   0.00000       0.00000    
     32043 TIP3     2376     TIP3     H1       HT       0.417000       1.00800           0   0.00000       0.00000    
     32044 TIP3     2376     TIP3     H2       HT       0.417000       1.00800           0   0.00000     -0.301140E-02
     32045 TIP3     2377     TIP3     OH2      OT      -0.834000       15.9994           0   0.00000       0.00000    
     32046 TIP3     2377     TIP3     H1       HT       0.417000       1.00800           0   0.00000       0.00000    
     32047 TIP3     2377     TIP3     H2       HT       0.417000       1.00800           0   0.00000     -0.301140E-02
     32048 TIP3     2378     TIP3     OH2      OT      -0.834000       15.9994           0   0.00000       0.00000    
     32049 TIP3     2378     TIP3     H1       HT       0.417000       1.00800           0   0.00000       0.00000    
     32050 TIP3     2378     TIP3     H2       HT       0.417000       1.00800           0   0.00000     -0.301140E-02
     32051 TIP3     2379     TIP3     OH2      OT      -0.834000       15.9994           0   0.00000       0.00000    
     32052 TIP3     2379     TIP3     H1       HT       0.417000       1.00800           0   0.00000       0.00000    
     32053 TIP3     2379     TIP3     H2       HT       0.417000       1.00800           0   0.00000     -0.301140E-02
     32054 TIP3     2380     TIP3     OH2      OT      -0.834000       15.9994           0   0.00000       0.00000    
     32055 TIP3     2380     TIP3     H1       HT       0.417000       1.00800           0   0.00000       0.00000    
     32056 TIP3     2380     TIP3     H2       HT       0.417000       1.00800           0   0.00000     -0.301140E-02
     32057 TIP3     2381     TIP3     OH2      OT      -0.834000       15.9994           0   0.00000       0.00000    
     32058 TIP3     2381     TIP3     H1       HT       0.417000       1.00800           0   0.00000       0.00000    
     32059 TIP3     2381     TIP3     H2       HT       0.417000       1.00800           0   0.00000     -0.301140E-02
     32060 TIP3     2382     TIP3     OH2      OT      -0.834000       15.9994           0   0.00000       0.00000    
     32061 TIP3     2382     TIP3     H1       HT       0.417000       1.00800           0   0.00000       0.00000    
     32062 TIP3     2382     TIP3     H2       HT       0.417000       1.00800           0   0.00000     -0.301140E-02
     32063 TIP3     2383     TIP3     OH2      OT      -0.834000       15.9994           0   0.00000       0.00000    
     32064 TIP3     2383     TIP3     H1       HT       0.417000       1.00800           0   0.00000       0.00000    
     32065 TIP3     2383     TIP3     H2       HT       0.417000       1.00800           0   0.00000     -0.301140E-02
     32066 TIP3     2384     TIP3     OH2      OT      -0.834000       15.9994           0   0.00000       0.00000    
     32067 TIP3     2384     TIP3     H1       HT       0.417000       1.00800           0   0.00000       0.00000    
     32068 TIP3     2384     TIP3     H2       HT       0.417000       1.00800           0   0.00000     -0.301140E-02
     32069 TIP3     2385     TIP3     OH2      OT      -0.834000       15.9994           0   0.00000       0.00000    
     32070 TIP3     2385     TIP3     H1       HT       0.417000       1.00800           0   0.00000       0.00000    
     32071 TIP3     2385     TIP3     H2       HT       0.417000       1.00800           0   0.00000     -0.301140E-02
     32072 TIP3     2386     TIP3     OH2      OT      -0.834000       15.9994           0   0.00000       0.00000    
     32073 TIP3     2386     TIP3     H1       HT       0.417000       1.00800           0   0.00000       0.00000    
     32074 TIP3     2386     TIP3     H2       HT       0.417000       1.00800           0   0.00000     -0.301140E-02
     32075 TIP3     2387     TIP3     OH2      OT      -0.834000       15.9994           0   0.00000       0.00000    
     32076 TIP3     2387     TIP3     H1       HT       0.417000       1.00800           0   0.00000       0.00000    
     32077 TIP3     2387     TIP3     H2       HT       0.417000       1.00800           0   0.00000     -0.301140E-02
     32078 TIP3     2388     TIP3     OH2      OT      -0.834000       15.9994           0   0.00000       0.00000    
     32079 TIP3     2388     TIP3     H1       HT       0.417000       1.00800           0   0.00000       0.00000    
     32080 TIP3     2388     TIP3     H2       HT       0.417000       1.00800           0   0.00000     -0.301140E-02
     32081 TIP3     2389     TIP3     OH2      OT      -0.834000       15.9994           0   0.00000       0.00000    
     32082 TIP3     2389     TIP3     H1       HT       0.417000       1.00800           0   0.00000       0.00000    
     32083 TIP3     2389     TIP3     H2       HT       0.417000       1.00800           0   0.00000     -0.301140E-02
     32084 TIP3     2390     TIP3     OH2      OT      -0.834000       15.9994           0   0.00000       0.00000    
     32085 TIP3     2390     TIP3     H1       HT       0.417000       1.00800           0   0.00000       0.00000    
     32086 TIP3     2390     TIP3     H2       HT       0.417000       1.00800           0   0.00000     -0.301140E-02
     32087 TIP3     2391     TIP3     OH2      OT      -0.834000       15.9994           0   0.00000       0.00000    
     32088 TIP3     2391     TIP3     H1       HT       0.417000       1.00800           0   0.00000       0.00000    
     32089 TIP3     2391     TIP3     H2       HT       0.417000       1.00800           0   0.00000     -0.301140E-02
     32090 TIP3     2392     TIP3     OH2      OT      -0.834000       15.9994           0   0.00000       0.00000    
     32091 TIP3     2392     TIP3     H1       HT       0.417000       1.00800           0   0.00000       0.00000    
     32092 TIP3     2392     TIP3     H2       HT       0.417000       1.00800           0   0.00000     -0.301140E-02
     32093 TIP3     2393     TIP3     OH2      OT      -0.834000       15.9994           0   0.00000       0.00000    
     32094 TIP3     2393     TIP3     H1       HT       0.417000       1.00800           0   0.00000       0.00000    
     32095 TIP3     2393     TIP3     H2       HT       0.417000       1.00800           0   0.00000     -0.301140E-02
     32096 TIP3     2394     TIP3     OH2      OT      -0.834000       15.9994           0   0.00000       0.00000    
     32097 TIP3     2394     TIP3     H1       HT       0.417000       1.00800           0   0.00000       0.00000    
     32098 TIP3     2394     TIP3     H2       HT       0.417000       1.00800           0   0.00000     -0.301140E-02
     32099 TIP3     2395     TIP3     OH2      OT      -0.834000       15.9994           0   0.00000       0.00000    
     32100 TIP3     2395     TIP3     H1       HT       0.417000       1.00800           0   0.00000       0.00000    
     32101 TIP3     2395     TIP3     H2       HT       0.417000       1.00800           0   0.00000     -0.301140E-02
     32102 TIP3     2396     TIP3     OH2      OT      -0.834000       15.9994           0   0.00000       0.00000    
     32103 TIP3     2396     TIP3     H1       HT       0.417000       1.00800           0   0.00000       0.00000    
     32104 TIP3     2396     TIP3     H2       HT       0.417000       1.00800           0   0.00000     -0.301140E-02
     32105 TIP3     2397     TIP3     OH2      OT      -0.834000       15.9994           0   0.00000       0.00000    
     32106 TIP3     2397     TIP3     H1       HT       0.417000       1.00800           0   0.00000       0.00000    
     32107 TIP3     2397     TIP3     H2       HT       0.417000       1.00800           0   0.00000     -0.301140E-02
     32108 TIP3     2398     TIP3     OH2      OT      -0.834000       15.9994           0   0.00000       0.00000    
     32109 TIP3     2398     TIP3     H1       HT       0.417000       1.00800           0   0.00000       0.00000    
     32110 TIP3     2398     TIP3     H2       HT       0.417000       1.00800           0   0.00000     -0.301140E-02
     32111 TIP3     2399     TIP3     OH2      OT      -0.834000       15.9994           0   0.00000       0.00000    
     32112 TIP3     2399     TIP3     H1       HT       0.417000       1.00800           0   0.00000       0.00000    
     32113 TIP3     2399     TIP3     H2       HT       0.417000       1.00800           0   0.00000     -0.301140E-02
     32114 TIP3     2400     TIP3     OH2      OT      -0.834000       15.9994           0   0.00000       0.00000    
     32115 TIP3     2400     TIP3     H1       HT       0.417000       1.00800           0   0.00000       0.00000    
     32116 TIP3     2400     TIP3     H2       HT       0.417000       1.00800           0   0.00000     -0.301140E-02
     32117 TIP3     2401     TIP3     OH2      OT      -0.834000       15.9994           0   0.00000       0.00000    
     32118 TIP3     2401     TIP3     H1       HT       0.417000       1.00800           0   0.00000       0.00000    
     32119 TIP3     2401     TIP3     H2       HT       0.417000       1.00800           0   0.00000     -0.301140E-02
     32120 TIP3     2402     TIP3     OH2      OT      -0.834000       15.9994           0   0.00000       0.00000    
     32121 TIP3     2402     TIP3     H1       HT       0.417000       1.00800           0   0.00000       0.00000    
     32122 TIP3     2402     TIP3     H2       HT       0.417000       1.00800           0   0.00000     -0.301140E-02
     32123 TIP3     2403     TIP3     OH2      OT      -0.834000       15.9994           0   0.00000       0.00000    
     32124 TIP3     2403     TIP3     H1       HT       0.417000       1.00800           0   0.00000       0.00000    
     32125 TIP3     2403     TIP3     H2       HT       0.417000       1.00800           0   0.00000     -0.301140E-02
     32126 TIP3     2404     TIP3     OH2      OT      -0.834000       15.9994           0   0.00000       0.00000    
     32127 TIP3     2404     TIP3     H1       HT       0.417000       1.00800           0   0.00000       0.00000    
     32128 TIP3     2404     TIP3     H2       HT       0.417000       1.00800           0   0.00000     -0.301140E-02
     32129 TIP3     2405     TIP3     OH2      OT      -0.834000       15.9994           0   0.00000       0.00000    
     32130 TIP3     2405     TIP3     H1       HT       0.417000       1.00800           0   0.00000       0.00000    
     32131 TIP3     2405     TIP3     H2       HT       0.417000       1.00800           0   0.00000     -0.301140E-02
     32132 TIP3     2406     TIP3     OH2      OT      -0.834000       15.9994           0   0.00000       0.00000    
     32133 TIP3     2406     TIP3     H1       HT       0.417000       1.00800           0   0.00000       0.00000    
     32134 TIP3     2406     TIP3     H2       HT       0.417000       1.00800           0   0.00000     -0.301140E-02
     32135 TIP3     2407     TIP3     OH2      OT      -0.834000       15.9994           0   0.00000       0.00000    
     32136 TIP3     2407     TIP3     H1       HT       0.417000       1.00800           0   0.00000       0.00000    
     32137 TIP3     2407     TIP3     H2       HT       0.417000       1.00800           0   0.00000     -0.301140E-02
     32138 TIP3     2408     TIP3     OH2      OT      -0.834000       15.9994           0   0.00000       0.00000    
     32139 TIP3     2408     TIP3     H1       HT       0.417000       1.00800           0   0.00000       0.00000    
     32140 TIP3     2408     TIP3     H2       HT       0.417000       1.00800           0   0.00000     -0.301140E-02
     32141 TIP3     2409     TIP3     OH2      OT      -0.834000       15.9994           0   0.00000       0.00000    
     32142 TIP3     2409     TIP3     H1       HT       0.417000       1.00800           0   0.00000       0.00000    
     32143 TIP3     2409     TIP3     H2       HT       0.417000       1.00800           0   0.00000     -0.301140E-02
     32144 TIP3     2410     TIP3     OH2      OT      -0.834000       15.9994           0   0.00000       0.00000    
     32145 TIP3     2410     TIP3     H1       HT       0.417000       1.00800           0   0.00000       0.00000    
     32146 TIP3     2410     TIP3     H2       HT       0.417000       1.00800           0   0.00000     -0.301140E-02
     32147 TIP3     2411     TIP3     OH2      OT      -0.834000       15.9994           0   0.00000       0.00000    
     32148 TIP3     2411     TIP3     H1       HT       0.417000       1.00800           0   0.00000       0.00000    
     32149 TIP3     2411     TIP3     H2       HT       0.417000       1.00800           0   0.00000     -0.301140E-02
     32150 TIP3     2412     TIP3     OH2      OT      -0.834000       15.9994           0   0.00000       0.00000    
     32151 TIP3     2412     TIP3     H1       HT       0.417000       1.00800           0   0.00000       0.00000    
     32152 TIP3     2412     TIP3     H2       HT       0.417000       1.00800           0   0.00000     -0.301140E-02
     32153 TIP3     2413     TIP3     OH2      OT      -0.834000       15.9994           0   0.00000       0.00000    
     32154 TIP3     2413     TIP3     H1       HT       0.417000       1.00800           0   0.00000       0.00000    
     32155 TIP3     2413     TIP3     H2       HT       0.417000       1.00800           0   0.00000     -0.301140E-02
     32156 TIP3     2414     TIP3     OH2      OT      -0.834000       15.9994           0   0.00000       0.00000    
     32157 TIP3     2414     TIP3     H1       HT       0.417000       1.00800           0   0.00000       0.00000    
     32158 TIP3     2414     TIP3     H2       HT       0.417000       1.00800           0   0.00000     -0.301140E-02
     32159 TIP3     2415     TIP3     OH2      OT      -0.834000       15.9994           0   0.00000       0.00000    
     32160 TIP3     2415     TIP3     H1       HT       0.417000       1.00800           0   0.00000       0.00000    
     32161 TIP3     2415     TIP3     H2       HT       0.417000       1.00800           0   0.00000     -0.301140E-02
     32162 TIP3     2416     TIP3     OH2      OT      -0.834000       15.9994           0   0.00000       0.00000    
     32163 TIP3     2416     TIP3     H1       HT       0.417000       1.00800           0   0.00000       0.00000    
     32164 TIP3     2416     TIP3     H2       HT       0.417000       1.00800           0   0.00000     -0.301140E-02
     32165 TIP3     2417     TIP3     OH2      OT      -0.834000       15.9994           0   0.00000       0.00000    
     32166 TIP3     2417     TIP3     H1       HT       0.417000       1.00800           0   0.00000       0.00000    
     32167 TIP3     2417     TIP3     H2       HT       0.417000       1.00800           0   0.00000     -0.301140E-02
     32168 TIP3     2418     TIP3     OH2      OT      -0.834000       15.9994           0   0.00000       0.00000    
     32169 TIP3     2418     TIP3     H1       HT       0.417000       1.00800           0   0.00000       0.00000    
     32170 TIP3     2418     TIP3     H2       HT       0.417000       1.00800           0   0.00000     -0.301140E-02
     32171 TIP3     2419     TIP3     OH2      OT      -0.834000       15.9994           0   0.00000       0.00000    
     32172 TIP3     2419     TIP3     H1       HT       0.417000       1.00800           0   0.00000       0.00000    
     32173 TIP3     2419     TIP3     H2       HT       0.417000       1.00800           0   0.00000     -0.301140E-02
     32174 TIP3     2420     TIP3     OH2      OT      -0.834000       15.9994           0   0.00000       0.00000    
     32175 TIP3     2420     TIP3     H1       HT       0.417000       1.00800           0   0.00000       0.00000    
     32176 TIP3     2420     TIP3     H2       HT       0.417000       1.00800           0   0.00000     -0.301140E-02
     32177 TIP3     2421     TIP3     OH2      OT      -0.834000       15.9994           0   0.00000       0.00000    
     32178 TIP3     2421     TIP3     H1       HT       0.417000       1.00800           0   0.00000       0.00000    
     32179 TIP3     2421     TIP3     H2       HT       0.417000       1.00800           0   0.00000     -0.301140E-02
     32180 TIP3     2422     TIP3     OH2      OT      -0.834000       15.9994           0   0.00000       0.00000    
     32181 TIP3     2422     TIP3     H1       HT       0.417000       1.00800           0   0.00000       0.00000    
     32182 TIP3     2422     TIP3     H2       HT       0.417000       1.00800           0   0.00000     -0.301140E-02
     32183 TIP3     2423     TIP3     OH2      OT      -0.834000       15.9994           0   0.00000       0.00000    
     32184 TIP3     2423     TIP3     H1       HT       0.417000       1.00800           0   0.00000       0.00000    
     32185 TIP3     2423     TIP3     H2       HT       0.417000       1.00800           0   0.00000     -0.301140E-02
     32186 TIP3     2424     TIP3     OH2      OT      -0.834000       15.9994           0   0.00000       0.00000    
     32187 TIP3     2424     TIP3     H1       HT       0.417000       1.00800           0   0.00000       0.00000    
     32188 TIP3     2424     TIP3     H2       HT       0.417000       1.00800           0   0.00000     -0.301140E-02
     32189 TIP3     2425     TIP3     OH2      OT      -0.834000       15.9994           0   0.00000       0.00000    
     32190 TIP3     2425     TIP3     H1       HT       0.417000       1.00800           0   0.00000       0.00000    
     32191 TIP3     2425     TIP3     H2       HT       0.417000       1.00800           0   0.00000     -0.301140E-02
     32192 TIP3     2426     TIP3     OH2      OT      -0.834000       15.9994           0   0.00000       0.00000    
     32193 TIP3     2426     TIP3     H1       HT       0.417000       1.00800           0   0.00000       0.00000    
     32194 TIP3     2426     TIP3     H2       HT       0.417000       1.00800           0   0.00000     -0.301140E-02
     32195 TIP3     2427     TIP3     OH2      OT      -0.834000       15.9994           0   0.00000       0.00000    
     32196 TIP3     2427     TIP3     H1       HT       0.417000       1.00800           0   0.00000       0.00000    
     32197 TIP3     2427     TIP3     H2       HT       0.417000       1.00800           0   0.00000     -0.301140E-02
     32198 TIP3     2428     TIP3     OH2      OT      -0.834000       15.9994           0   0.00000       0.00000    
     32199 TIP3     2428     TIP3     H1       HT       0.417000       1.00800           0   0.00000       0.00000    
     32200 TIP3     2428     TIP3     H2       HT       0.417000       1.00800           0   0.00000     -0.301140E-02
     32201 TIP3     2429     TIP3     OH2      OT      -0.834000       15.9994           0   0.00000       0.00000    
     32202 TIP3     2429     TIP3     H1       HT       0.417000       1.00800           0   0.00000       0.00000    
     32203 TIP3     2429     TIP3     H2       HT       0.417000       1.00800           0   0.00000     -0.301140E-02
     32204 TIP3     2430     TIP3     OH2      OT      -0.834000       15.9994           0   0.00000       0.00000    
     32205 TIP3     2430     TIP3     H1       HT       0.417000       1.00800           0   0.00000       0.00000    
     32206 TIP3     2430     TIP3     H2       HT       0.417000       1.00800           0   0.00000     -0.301140E-02
     32207 TIP3     2431     TIP3     OH2      OT      -0.834000       15.9994           0   0.00000       0.00000    
     32208 TIP3     2431     TIP3     H1       HT       0.417000       1.00800           0   0.00000       0.00000    
     32209 TIP3     2431     TIP3     H2       HT       0.417000       1.00800           0   0.00000     -0.301140E-02
     32210 TIP3     2432     TIP3     OH2      OT      -0.834000       15.9994           0   0.00000       0.00000    
     32211 TIP3     2432     TIP3     H1       HT       0.417000       1.00800           0   0.00000       0.00000    
     32212 TIP3     2432     TIP3     H2       HT       0.417000       1.00800           0   0.00000     -0.301140E-02
     32213 TIP3     2433     TIP3     OH2      OT      -0.834000       15.9994           0   0.00000       0.00000    
     32214 TIP3     2433     TIP3     H1       HT       0.417000       1.00800           0   0.00000       0.00000    
     32215 TIP3     2433     TIP3     H2       HT       0.417000       1.00800           0   0.00000     -0.301140E-02
     32216 TIP3     2434     TIP3     OH2      OT      -0.834000       15.9994           0   0.00000       0.00000    
     32217 TIP3     2434     TIP3     H1       HT       0.417000       1.00800           0   0.00000       0.00000    
     32218 TIP3     2434     TIP3     H2       HT       0.417000       1.00800           0   0.00000     -0.301140E-02
     32219 TIP3     2435     TIP3     OH2      OT      -0.834000       15.9994           0   0.00000       0.00000    
     32220 TIP3     2435     TIP3     H1       HT       0.417000       1.00800           0   0.00000       0.00000    
     32221 TIP3     2435     TIP3     H2       HT       0.417000       1.00800           0   0.00000     -0.301140E-02
     32222 TIP3     2436     TIP3     OH2      OT      -0.834000       15.9994           0   0.00000       0.00000    
     32223 TIP3     2436     TIP3     H1       HT       0.417000       1.00800           0   0.00000       0.00000    
     32224 TIP3     2436     TIP3     H2       HT       0.417000       1.00800           0   0.00000     -0.301140E-02
     32225 TIP3     2437     TIP3     OH2      OT      -0.834000       15.9994           0   0.00000       0.00000    
     32226 TIP3     2437     TIP3     H1       HT       0.417000       1.00800           0   0.00000       0.00000    
     32227 TIP3     2437     TIP3     H2       HT       0.417000       1.00800           0   0.00000     -0.301140E-02
     32228 TIP3     2438     TIP3     OH2      OT      -0.834000       15.9994           0   0.00000       0.00000    
     32229 TIP3     2438     TIP3     H1       HT       0.417000       1.00800           0   0.00000       0.00000    
     32230 TIP3     2438     TIP3     H2       HT       0.417000       1.00800           0   0.00000     -0.301140E-02
     32231 TIP3     2439     TIP3     OH2      OT      -0.834000       15.9994           0   0.00000       0.00000    
     32232 TIP3     2439     TIP3     H1       HT       0.417000       1.00800           0   0.00000       0.00000    
     32233 TIP3     2439     TIP3     H2       HT       0.417000       1.00800           0   0.00000     -0.301140E-02
     32234 TIP3     2440     TIP3     OH2      OT      -0.834000       15.9994           0   0.00000       0.00000    
     32235 TIP3     2440     TIP3     H1       HT       0.417000       1.00800           0   0.00000       0.00000    
     32236 TIP3     2440     TIP3     H2       HT       0.417000       1.00800           0   0.00000     -0.301140E-02
     32237 TIP3     2441     TIP3     OH2      OT      -0.834000       15.9994           0   0.00000       0.00000    
     32238 TIP3     2441     TIP3     H1       HT       0.417000       1.00800           0   0.00000       0.00000    
     32239 TIP3     2441     TIP3     H2       HT       0.417000       1.00800           0   0.00000     -0.301140E-02
     32240 TIP3     2442     TIP3     OH2      OT      -0.834000       15.9994           0   0.00000       0.00000    
     32241 TIP3     2442     TIP3     H1       HT       0.417000       1.00800           0   0.00000       0.00000    
     32242 TIP3     2442     TIP3     H2       HT       0.417000       1.00800           0   0.00000     -0.301140E-02
     32243 TIP3     2443     TIP3     OH2      OT      -0.834000       15.9994           0   0.00000       0.00000    
     32244 TIP3     2443     TIP3     H1       HT       0.417000       1.00800           0   0.00000       0.00000    
     32245 TIP3     2443     TIP3     H2       HT       0.417000       1.00800           0   0.00000     -0.301140E-02
     32246 TIP3     2444     TIP3     OH2      OT      -0.834000       15.9994           0   0.00000       0.00000    
     32247 TIP3     2444     TIP3     H1       HT       0.417000       1.00800           0   0.00000       0.00000    
     32248 TIP3     2444     TIP3     H2       HT       0.417000       1.00800           0   0.00000     -0.301140E-02
     32249 TIP3     2445     TIP3     OH2      OT      -0.834000       15.9994           0   0.00000       0.00000    
     32250 TIP3     2445     TIP3     H1       HT       0.417000       1.00800           0   0.00000       0.00000    
     32251 TIP3     2445     TIP3     H2       HT       0.417000       1.00800           0   0.00000     -0.301140E-02
     32252 TIP3     2446     TIP3     OH2      OT      -0.834000       15.9994           0   0.00000       0.00000    
     32253 TIP3     2446     TIP3     H1       HT       0.417000       1.00800           0   0.00000       0.00000    
     32254 TIP3     2446     TIP3     H2       HT       0.417000       1.00800           0   0.00000     -0.301140E-02
     32255 TIP3     2447     TIP3     OH2      OT      -0.834000       15.9994           0   0.00000       0.00000    
     32256 TIP3     2447     TIP3     H1       HT       0.417000       1.00800           0   0.00000       0.00000    
     32257 TIP3     2447     TIP3     H2       HT       0.417000       1.00800           0   0.00000     -0.301140E-02
     32258 TIP3     2448     TIP3     OH2      OT      -0.834000       15.9994           0   0.00000       0.00000    
     32259 TIP3     2448     TIP3     H1       HT       0.417000       1.00800           0   0.00000       0.00000    
     32260 TIP3     2448     TIP3     H2       HT       0.417000       1.00800           0   0.00000     -0.301140E-02
     32261 TIP3     2449     TIP3     OH2      OT      -0.834000       15.9994           0   0.00000       0.00000    
     32262 TIP3     2449     TIP3     H1       HT       0.417000       1.00800           0   0.00000       0.00000    
     32263 TIP3     2449     TIP3     H2       HT       0.417000       1.00800           0   0.00000     -0.301140E-02
     32264 TIP3     2450     TIP3     OH2      OT      -0.834000       15.9994           0   0.00000       0.00000    
     32265 TIP3     2450     TIP3     H1       HT       0.417000       1.00800           0   0.00000       0.00000    
     32266 TIP3     2450     TIP3     H2       HT       0.417000       1.00800           0   0.00000     -0.301140E-02
     32267 TIP3     2451     TIP3     OH2      OT      -0.834000       15.9994           0   0.00000       0.00000    
     32268 TIP3     2451     TIP3     H1       HT       0.417000       1.00800           0   0.00000       0.00000    
     32269 TIP3     2451     TIP3     H2       HT       0.417000       1.00800           0   0.00000     -0.301140E-02
     32270 TIP3     2452     TIP3     OH2      OT      -0.834000       15.9994           0   0.00000       0.00000    
     32271 TIP3     2452     TIP3     H1       HT       0.417000       1.00800           0   0.00000       0.00000    
     32272 TIP3     2452     TIP3     H2       HT       0.417000       1.00800           0   0.00000     -0.301140E-02
     32273 TIP3     2453     TIP3     OH2      OT      -0.834000       15.9994           0   0.00000       0.00000    
     32274 TIP3     2453     TIP3     H1       HT       0.417000       1.00800           0   0.00000       0.00000    
     32275 TIP3     2453     TIP3     H2       HT       0.417000       1.00800           0   0.00000     -0.301140E-02
     32276 TIP3     2454     TIP3     OH2      OT      -0.834000       15.9994           0   0.00000       0.00000    
     32277 TIP3     2454     TIP3     H1       HT       0.417000       1.00800           0   0.00000       0.00000    
     32278 TIP3     2454     TIP3     H2       HT       0.417000       1.00800           0   0.00000     -0.301140E-02
     32279 TIP3     2455     TIP3     OH2      OT      -0.834000       15.9994           0   0.00000       0.00000    
     32280 TIP3     2455     TIP3     H1       HT       0.417000       1.00800           0   0.00000       0.00000    
     32281 TIP3     2455     TIP3     H2       HT       0.417000       1.00800           0   0.00000     -0.301140E-02
     32282 TIP3     2456     TIP3     OH2      OT      -0.834000       15.9994           0   0.00000       0.00000    
     32283 TIP3     2456     TIP3     H1       HT       0.417000       1.00800           0   0.00000       0.00000    
     32284 TIP3     2456     TIP3     H2       HT       0.417000       1.00800           0   0.00000     -0.301140E-02
     32285 TIP3     2457     TIP3     OH2      OT      -0.834000       15.9994           0   0.00000       0.00000    
     32286 TIP3     2457     TIP3     H1       HT       0.417000       1.00800           0   0.00000       0.00000    
     32287 TIP3     2457     TIP3     H2       HT       0.417000       1.00800           0   0.00000     -0.301140E-02
     32288 TIP3     2458     TIP3     OH2      OT      -0.834000       15.9994           0   0.00000       0.00000    
     32289 TIP3     2458     TIP3     H1       HT       0.417000       1.00800           0   0.00000       0.00000    
     32290 TIP3     2458     TIP3     H2       HT       0.417000       1.00800           0   0.00000     -0.301140E-02
     32291 TIP3     2459     TIP3     OH2      OT      -0.834000       15.9994           0   0.00000       0.00000    
     32292 TIP3     2459     TIP3     H1       HT       0.417000       1.00800           0   0.00000       0.00000    
     32293 TIP3     2459     TIP3     H2       HT       0.417000       1.00800           0   0.00000     -0.301140E-02
     32294 TIP3     2460     TIP3     OH2      OT      -0.834000       15.9994           0   0.00000       0.00000    
     32295 TIP3     2460     TIP3     H1       HT       0.417000       1.00800           0   0.00000       0.00000    
     32296 TIP3     2460     TIP3     H2       HT       0.417000       1.00800           0   0.00000     -0.301140E-02
     32297 TIP3     2461     TIP3     OH2      OT      -0.834000       15.9994           0   0.00000       0.00000    
     32298 TIP3     2461     TIP3     H1       HT       0.417000       1.00800           0   0.00000       0.00000    
     32299 TIP3     2461     TIP3     H2       HT       0.417000       1.00800           0   0.00000     -0.301140E-02
     32300 TIP3     2462     TIP3     OH2      OT      -0.834000       15.9994           0   0.00000       0.00000    
     32301 TIP3     2462     TIP3     H1       HT       0.417000       1.00800           0   0.00000       0.00000    
     32302 TIP3     2462     TIP3     H2       HT       0.417000       1.00800           0   0.00000     -0.301140E-02
     32303 TIP3     2463     TIP3     OH2      OT      -0.834000       15.9994           0   0.00000       0.00000    
     32304 TIP3     2463     TIP3     H1       HT       0.417000       1.00800           0   0.00000       0.00000    
     32305 TIP3     2463     TIP3     H2       HT       0.417000       1.00800           0   0.00000     -0.301140E-02
     32306 TIP3     2464     TIP3     OH2      OT      -0.834000       15.9994           0   0.00000       0.00000    
     32307 TIP3     2464     TIP3     H1       HT       0.417000       1.00800           0   0.00000       0.00000    
     32308 TIP3     2464     TIP3     H2       HT       0.417000       1.00800           0   0.00000     -0.301140E-02
     32309 TIP3     2465     TIP3     OH2      OT      -0.834000       15.9994           0   0.00000       0.00000    
     32310 TIP3     2465     TIP3     H1       HT       0.417000       1.00800           0   0.00000       0.00000    
     32311 TIP3     2465     TIP3     H2       HT       0.417000       1.00800           0   0.00000     -0.301140E-02
     32312 TIP3     2466     TIP3     OH2      OT      -0.834000       15.9994           0   0.00000       0.00000    
     32313 TIP3     2466     TIP3     H1       HT       0.417000       1.00800           0   0.00000       0.00000    
     32314 TIP3     2466     TIP3     H2       HT       0.417000       1.00800           0   0.00000     -0.301140E-02
     32315 TIP3     2467     TIP3     OH2      OT      -0.834000       15.9994           0   0.00000       0.00000    
     32316 TIP3     2467     TIP3     H1       HT       0.417000       1.00800           0   0.00000       0.00000    
     32317 TIP3     2467     TIP3     H2       HT       0.417000       1.00800           0   0.00000     -0.301140E-02
     32318 TIP3     2468     TIP3     OH2      OT      -0.834000       15.9994           0   0.00000       0.00000    
     32319 TIP3     2468     TIP3     H1       HT       0.417000       1.00800           0   0.00000       0.00000    
     32320 TIP3     2468     TIP3     H2       HT       0.417000       1.00800           0   0.00000     -0.301140E-02
     32321 TIP3     2469     TIP3     OH2      OT      -0.834000       15.9994           0   0.00000       0.00000    
     32322 TIP3     2469     TIP3     H1       HT       0.417000       1.00800           0   0.00000       0.00000    
     32323 TIP3     2469     TIP3     H2       HT       0.417000       1.00800           0   0.00000     -0.301140E-02
     32324 TIP3     2470     TIP3     OH2      OT      -0.834000       15.9994           0   0.00000       0.00000    
     32325 TIP3     2470     TIP3     H1       HT       0.417000       1.00800           0   0.00000       0.00000    
     32326 TIP3     2470     TIP3     H2       HT       0.417000       1.00800           0   0.00000     -0.301140E-02
     32327 TIP3     2471     TIP3     OH2      OT      -0.834000       15.9994           0   0.00000       0.00000    
     32328 TIP3     2471     TIP3     H1       HT       0.417000       1.00800           0   0.00000       0.00000    
     32329 TIP3     2471     TIP3     H2       HT       0.417000       1.00800           0   0.00000     -0.301140E-02
     32330 TIP3     2472     TIP3     OH2      OT      -0.834000       15.9994           0   0.00000       0.00000    
     32331 TIP3     2472     TIP3     H1       HT       0.417000       1.00800           0   0.00000       0.00000    
     32332 TIP3     2472     TIP3     H2       HT       0.417000       1.00800           0   0.00000     -0.301140E-02
     32333 TIP3     2473     TIP3     OH2      OT      -0.834000       15.9994           0   0.00000       0.00000    
     32334 TIP3     2473     TIP3     H1       HT       0.417000       1.00800           0   0.00000       0.00000    
     32335 TIP3     2473     TIP3     H2       HT       0.417000       1.00800           0   0.00000     -0.301140E-02
     32336 TIP3     2474     TIP3     OH2      OT      -0.834000       15.9994           0   0.00000       0.00000    
     32337 TIP3     2474     TIP3     H1       HT       0.417000       1.00800           0   0.00000       0.00000    
     32338 TIP3     2474     TIP3     H2       HT       0.417000       1.00800           0   0.00000     -0.301140E-02
     32339 TIP3     2475     TIP3     OH2      OT      -0.834000       15.9994           0   0.00000       0.00000    
     32340 TIP3     2475     TIP3     H1       HT       0.417000       1.00800           0   0.00000       0.00000    
     32341 TIP3     2475     TIP3     H2       HT       0.417000       1.00800           0   0.00000     -0.301140E-02
     32342 TIP3     2476     TIP3     OH2      OT      -0.834000       15.9994           0   0.00000       0.00000    
     32343 TIP3     2476     TIP3     H1       HT       0.417000       1.00800           0   0.00000       0.00000    
     32344 TIP3     2476     TIP3     H2       HT       0.417000       1.00800           0   0.00000     -0.301140E-02
     32345 TIP3     2477     TIP3     OH2      OT      -0.834000       15.9994           0   0.00000       0.00000    
     32346 TIP3     2477     TIP3     H1       HT       0.417000       1.00800           0   0.00000       0.00000    
     32347 TIP3     2477     TIP3     H2       HT       0.417000       1.00800           0   0.00000     -0.301140E-02
     32348 TIP3     2478     TIP3     OH2      OT      -0.834000       15.9994           0   0.00000       0.00000    
     32349 TIP3     2478     TIP3     H1       HT       0.417000       1.00800           0   0.00000       0.00000    
     32350 TIP3     2478     TIP3     H2       HT       0.417000       1.00800           0   0.00000     -0.301140E-02
     32351 TIP3     2479     TIP3     OH2      OT      -0.834000       15.9994           0   0.00000       0.00000    
     32352 TIP3     2479     TIP3     H1       HT       0.417000       1.00800           0   0.00000       0.00000    
     32353 TIP3     2479     TIP3     H2       HT       0.417000       1.00800           0   0.00000     -0.301140E-02
     32354 TIP3     2480     TIP3     OH2      OT      -0.834000       15.9994           0   0.00000       0.00000    
     32355 TIP3     2480     TIP3     H1       HT       0.417000       1.00800           0   0.00000       0.00000    
     32356 TIP3     2480     TIP3     H2       HT       0.417000       1.00800           0   0.00000     -0.301140E-02
     32357 TIP3     2481     TIP3     OH2      OT      -0.834000       15.9994           0   0.00000       0.00000    
     32358 TIP3     2481     TIP3     H1       HT       0.417000       1.00800           0   0.00000       0.00000    
     32359 TIP3     2481     TIP3     H2       HT       0.417000       1.00800           0   0.00000     -0.301140E-02
     32360 TIP3     2482     TIP3     OH2      OT      -0.834000       15.9994           0   0.00000       0.00000    
     32361 TIP3     2482     TIP3     H1       HT       0.417000       1.00800           0   0.00000       0.00000    
     32362 TIP3     2482     TIP3     H2       HT       0.417000       1.00800           0   0.00000     -0.301140E-02
     32363 TIP3     2483     TIP3     OH2      OT      -0.834000       15.9994           0   0.00000       0.00000    
     32364 TIP3     2483     TIP3     H1       HT       0.417000       1.00800           0   0.00000       0.00000    
     32365 TIP3     2483     TIP3     H2       HT       0.417000       1.00800           0   0.00000     -0.301140E-02
     32366 TIP3     2484     TIP3     OH2      OT      -0.834000       15.9994           0   0.00000       0.00000    
     32367 TIP3     2484     TIP3     H1       HT       0.417000       1.00800           0   0.00000       0.00000    
     32368 TIP3     2484     TIP3     H2       HT       0.417000       1.00800           0   0.00000     -0.301140E-02
     32369 TIP3     2485     TIP3     OH2      OT      -0.834000       15.9994           0   0.00000       0.00000    
     32370 TIP3     2485     TIP3     H1       HT       0.417000       1.00800           0   0.00000       0.00000    
     32371 TIP3     2485     TIP3     H2       HT       0.417000       1.00800           0   0.00000     -0.301140E-02
     32372 TIP3     2486     TIP3     OH2      OT      -0.834000       15.9994           0   0.00000       0.00000    
     32373 TIP3     2486     TIP3     H1       HT       0.417000       1.00800           0   0.00000       0.00000    
     32374 TIP3     2486     TIP3     H2       HT       0.417000       1.00800           0   0.00000     -0.301140E-02
     32375 TIP3     2487     TIP3     OH2      OT      -0.834000       15.9994           0   0.00000       0.00000    
     32376 TIP3     2487     TIP3     H1       HT       0.417000       1.00800           0   0.00000       0.00000    
     32377 TIP3     2487     TIP3     H2       HT       0.417000       1.00800           0   0.00000     -0.301140E-02
     32378 TIP3     2488     TIP3     OH2      OT      -0.834000       15.9994           0   0.00000       0.00000    
     32379 TIP3     2488     TIP3     H1       HT       0.417000       1.00800           0   0.00000       0.00000    
     32380 TIP3     2488     TIP3     H2       HT       0.417000       1.00800           0   0.00000     -0.301140E-02
     32381 TIP3     2489     TIP3     OH2      OT      -0.834000       15.9994           0   0.00000       0.00000    
     32382 TIP3     2489     TIP3     H1       HT       0.417000       1.00800           0   0.00000       0.00000    
     32383 TIP3     2489     TIP3     H2       HT       0.417000       1.00800           0   0.00000     -0.301140E-02
     32384 TIP3     2490     TIP3     OH2      OT      -0.834000       15.9994           0   0.00000       0.00000    
     32385 TIP3     2490     TIP3     H1       HT       0.417000       1.00800           0   0.00000       0.00000    
     32386 TIP3     2490     TIP3     H2       HT       0.417000       1.00800           0   0.00000     -0.301140E-02
     32387 TIP3     2491     TIP3     OH2      OT      -0.834000       15.9994           0   0.00000       0.00000    
     32388 TIP3     2491     TIP3     H1       HT       0.417000       1.00800           0   0.00000       0.00000    
     32389 TIP3     2491     TIP3     H2       HT       0.417000       1.00800           0   0.00000     -0.301140E-02
     32390 TIP3     2492     TIP3     OH2      OT      -0.834000       15.9994           0   0.00000       0.00000    
     32391 TIP3     2492     TIP3     H1       HT       0.417000       1.00800           0   0.00000       0.00000    
     32392 TIP3     2492     TIP3     H2       HT       0.417000       1.00800           0   0.00000     -0.301140E-02
     32393 TIP3     2493     TIP3     OH2      OT      -0.834000       15.9994           0   0.00000       0.00000    
     32394 TIP3     2493     TIP3     H1       HT       0.417000       1.00800           0   0.00000       0.00000    
     32395 TIP3     2493     TIP3     H2       HT       0.417000       1.00800           0   0.00000     -0.301140E-02
     32396 TIP3     2494     TIP3     OH2      OT      -0.834000       15.9994           0   0.00000       0.00000    
     32397 TIP3     2494     TIP3     H1       HT       0.417000       1.00800           0   0.00000       0.00000    
     32398 TIP3     2494     TIP3     H2       HT       0.417000       1.00800           0   0.00000     -0.301140E-02
     32399 TIP3     2495     TIP3     OH2      OT      -0.834000       15.9994           0   0.00000       0.00000    
     32400 TIP3     2495     TIP3     H1       HT       0.417000       1.00800           0   0.00000       0.00000    
     32401 TIP3     2495     TIP3     H2       HT       0.417000       1.00800           0   0.00000     -0.301140E-02
     32402 TIP3     2496     TIP3     OH2      OT      -0.834000       15.9994           0   0.00000       0.00000    
     32403 TIP3     2496     TIP3     H1       HT       0.417000       1.00800           0   0.00000       0.00000    
     32404 TIP3     2496     TIP3     H2       HT       0.417000       1.00800           0   0.00000     -0.301140E-02
     32405 TIP3     2497     TIP3     OH2      OT      -0.834000       15.9994           0   0.00000       0.00000    
     32406 TIP3     2497     TIP3     H1       HT       0.417000       1.00800           0   0.00000       0.00000    
     32407 TIP3     2497     TIP3     H2       HT       0.417000       1.00800           0   0.00000     -0.301140E-02
     32408 TIP3     2498     TIP3     OH2      OT      -0.834000       15.9994           0   0.00000       0.00000    
     32409 TIP3     2498     TIP3     H1       HT       0.417000       1.00800           0   0.00000       0.00000    
     32410 TIP3     2498     TIP3     H2       HT       0.417000       1.00800           0   0.00000     -0.301140E-02
     32411 TIP3     2499     TIP3     OH2      OT      -0.834000       15.9994           0   0.00000       0.00000    
     32412 TIP3     2499     TIP3     H1       HT       0.417000       1.00800           0   0.00000       0.00000    
     32413 TIP3     2499     TIP3     H2       HT       0.417000       1.00800           0   0.00000     -0.301140E-02
     32414 TIP3     2500     TIP3     OH2      OT      -0.834000       15.9994           0   0.00000       0.00000    
     32415 TIP3     2500     TIP3     H1       HT       0.417000       1.00800           0   0.00000       0.00000    
     32416 TIP3     2500     TIP3     H2       HT       0.417000       1.00800           0   0.00000     -0.301140E-02
     32417 TIP3     2501     TIP3     OH2      OT      -0.834000       15.9994           0   0.00000       0.00000    
     32418 TIP3     2501     TIP3     H1       HT       0.417000       1.00800           0   0.00000       0.00000    
     32419 TIP3     2501     TIP3     H2       HT       0.417000       1.00800           0   0.00000     -0.301140E-02
     32420 TIP3     2502     TIP3     OH2      OT      -0.834000       15.9994           0   0.00000       0.00000    
     32421 TIP3     2502     TIP3     H1       HT       0.417000       1.00800           0   0.00000       0.00000    
     32422 TIP3     2502     TIP3     H2       HT       0.417000       1.00800           0   0.00000     -0.301140E-02
     32423 TIP3     2503     TIP3     OH2      OT      -0.834000       15.9994           0   0.00000       0.00000    
     32424 TIP3     2503     TIP3     H1       HT       0.417000       1.00800           0   0.00000       0.00000    
     32425 TIP3     2503     TIP3     H2       HT       0.417000       1.00800           0   0.00000     -0.301140E-02
     32426 TIP3     2504     TIP3     OH2      OT      -0.834000       15.9994           0   0.00000       0.00000    
     32427 TIP3     2504     TIP3     H1       HT       0.417000       1.00800           0   0.00000       0.00000    
     32428 TIP3     2504     TIP3     H2       HT       0.417000       1.00800           0   0.00000     -0.301140E-02
     32429 TIP3     2505     TIP3     OH2      OT      -0.834000       15.9994           0   0.00000       0.00000    
     32430 TIP3     2505     TIP3     H1       HT       0.417000       1.00800           0   0.00000       0.00000    
     32431 TIP3     2505     TIP3     H2       HT       0.417000       1.00800           0   0.00000     -0.301140E-02
     32432 TIP3     2506     TIP3     OH2      OT      -0.834000       15.9994           0   0.00000       0.00000    
     32433 TIP3     2506     TIP3     H1       HT       0.417000       1.00800           0   0.00000       0.00000    
     32434 TIP3     2506     TIP3     H2       HT       0.417000       1.00800           0   0.00000     -0.301140E-02
     32435 TIP3     2507     TIP3     OH2      OT      -0.834000       15.9994           0   0.00000       0.00000    
     32436 TIP3     2507     TIP3     H1       HT       0.417000       1.00800           0   0.00000       0.00000    
     32437 TIP3     2507     TIP3     H2       HT       0.417000       1.00800           0   0.00000     -0.301140E-02
     32438 TIP3     2508     TIP3     OH2      OT      -0.834000       15.9994           0   0.00000       0.00000    
     32439 TIP3     2508     TIP3     H1       HT       0.417000       1.00800           0   0.00000       0.00000    
     32440 TIP3     2508     TIP3     H2       HT       0.417000       1.00800           0   0.00000     -0.301140E-02
     32441 TIP3     2509     TIP3     OH2      OT      -0.834000       15.9994           0   0.00000       0.00000    
     32442 TIP3     2509     TIP3     H1       HT       0.417000       1.00800           0   0.00000       0.00000    
     32443 TIP3     2509     TIP3     H2       HT       0.417000       1.00800           0   0.00000     -0.301140E-02
     32444 TIP3     2510     TIP3     OH2      OT      -0.834000       15.9994           0   0.00000       0.00000    
     32445 TIP3     2510     TIP3     H1       HT       0.417000       1.00800           0   0.00000       0.00000    
     32446 TIP3     2510     TIP3     H2       HT       0.417000       1.00800           0   0.00000     -0.301140E-02
     32447 TIP3     2511     TIP3     OH2      OT      -0.834000       15.9994           0   0.00000       0.00000    
     32448 TIP3     2511     TIP3     H1       HT       0.417000       1.00800           0   0.00000       0.00000    
     32449 TIP3     2511     TIP3     H2       HT       0.417000       1.00800           0   0.00000     -0.301140E-02
     32450 TIP3     2512     TIP3     OH2      OT      -0.834000       15.9994           0   0.00000       0.00000    
     32451 TIP3     2512     TIP3     H1       HT       0.417000       1.00800           0   0.00000       0.00000    
     32452 TIP3     2512     TIP3     H2       HT       0.417000       1.00800           0   0.00000     -0.301140E-02
     32453 TIP3     2513     TIP3     OH2      OT      -0.834000       15.9994           0   0.00000       0.00000    
     32454 TIP3     2513     TIP3     H1       HT       0.417000       1.00800           0   0.00000       0.00000    
     32455 TIP3     2513     TIP3     H2       HT       0.417000       1.00800           0   0.00000     -0.301140E-02
     32456 TIP3     2514     TIP3     OH2      OT      -0.834000       15.9994           0   0.00000       0.00000    
     32457 TIP3     2514     TIP3     H1       HT       0.417000       1.00800           0   0.00000       0.00000    
     32458 TIP3     2514     TIP3     H2       HT       0.417000       1.00800           0   0.00000     -0.301140E-02
     32459 TIP3     2515     TIP3     OH2      OT      -0.834000       15.9994           0   0.00000       0.00000    
     32460 TIP3     2515     TIP3     H1       HT       0.417000       1.00800           0   0.00000       0.00000    
     32461 TIP3     2515     TIP3     H2       HT       0.417000       1.00800           0   0.00000     -0.301140E-02
     32462 TIP3     2516     TIP3     OH2      OT      -0.834000       15.9994           0   0.00000       0.00000    
     32463 TIP3     2516     TIP3     H1       HT       0.417000       1.00800           0   0.00000       0.00000    
     32464 TIP3     2516     TIP3     H2       HT       0.417000       1.00800           0   0.00000     -0.301140E-02
     32465 TIP3     2517     TIP3     OH2      OT      -0.834000       15.9994           0   0.00000       0.00000    
     32466 TIP3     2517     TIP3     H1       HT       0.417000       1.00800           0   0.00000       0.00000    
     32467 TIP3     2517     TIP3     H2       HT       0.417000       1.00800           0   0.00000     -0.301140E-02
     32468 TIP3     2518     TIP3     OH2      OT      -0.834000       15.9994           0   0.00000       0.00000    
     32469 TIP3     2518     TIP3     H1       HT       0.417000       1.00800           0   0.00000       0.00000    
     32470 TIP3     2518     TIP3     H2       HT       0.417000       1.00800           0   0.00000     -0.301140E-02
     32471 TIP3     2519     TIP3     OH2      OT      -0.834000       15.9994           0   0.00000       0.00000    
     32472 TIP3     2519     TIP3     H1       HT       0.417000       1.00800           0   0.00000       0.00000    
     32473 TIP3     2519     TIP3     H2       HT       0.417000       1.00800           0   0.00000     -0.301140E-02
     32474 TIP3     2520     TIP3     OH2      OT      -0.834000       15.9994           0   0.00000       0.00000    
     32475 TIP3     2520     TIP3     H1       HT       0.417000       1.00800           0   0.00000       0.00000    
     32476 TIP3     2520     TIP3     H2       HT       0.417000       1.00800           0   0.00000     -0.301140E-02
     32477 TIP3     2521     TIP3     OH2      OT      -0.834000       15.9994           0   0.00000       0.00000    
     32478 TIP3     2521     TIP3     H1       HT       0.417000       1.00800           0   0.00000       0.00000    
     32479 TIP3     2521     TIP3     H2       HT       0.417000       1.00800           0   0.00000     -0.301140E-02
     32480 TIP3     2522     TIP3     OH2      OT      -0.834000       15.9994           0   0.00000       0.00000    
     32481 TIP3     2522     TIP3     H1       HT       0.417000       1.00800           0   0.00000       0.00000    
     32482 TIP3     2522     TIP3     H2       HT       0.417000       1.00800           0   0.00000     -0.301140E-02
     32483 TIP3     2523     TIP3     OH2      OT      -0.834000       15.9994           0   0.00000       0.00000    
     32484 TIP3     2523     TIP3     H1       HT       0.417000       1.00800           0   0.00000       0.00000    
     32485 TIP3     2523     TIP3     H2       HT       0.417000       1.00800           0   0.00000     -0.301140E-02
     32486 TIP3     2524     TIP3     OH2      OT      -0.834000       15.9994           0   0.00000       0.00000    
     32487 TIP3     2524     TIP3     H1       HT       0.417000       1.00800           0   0.00000       0.00000    
     32488 TIP3     2524     TIP3     H2       HT       0.417000       1.00800           0   0.00000     -0.301140E-02
     32489 TIP3     2525     TIP3     OH2      OT      -0.834000       15.9994           0   0.00000       0.00000    
     32490 TIP3     2525     TIP3     H1       HT       0.417000       1.00800           0   0.00000       0.00000    
     32491 TIP3     2525     TIP3     H2       HT       0.417000       1.00800           0   0.00000     -0.301140E-02
     32492 TIP3     2526     TIP3     OH2      OT      -0.834000       15.9994           0   0.00000       0.00000    
     32493 TIP3     2526     TIP3     H1       HT       0.417000       1.00800           0   0.00000       0.00000    
     32494 TIP3     2526     TIP3     H2       HT       0.417000       1.00800           0   0.00000     -0.301140E-02
     32495 TIP3     2527     TIP3     OH2      OT      -0.834000       15.9994           0   0.00000       0.00000    
     32496 TIP3     2527     TIP3     H1       HT       0.417000       1.00800           0   0.00000       0.00000    
     32497 TIP3     2527     TIP3     H2       HT       0.417000       1.00800           0   0.00000     -0.301140E-02
     32498 TIP3     2528     TIP3     OH2      OT      -0.834000       15.9994           0   0.00000       0.00000    
     32499 TIP3     2528     TIP3     H1       HT       0.417000       1.00800           0   0.00000       0.00000    
     32500 TIP3     2528     TIP3     H2       HT       0.417000       1.00800           0   0.00000     -0.301140E-02
     32501 TIP3     2529     TIP3     OH2      OT      -0.834000       15.9994           0   0.00000       0.00000    
     32502 TIP3     2529     TIP3     H1       HT       0.417000       1.00800           0   0.00000       0.00000    
     32503 TIP3     2529     TIP3     H2       HT       0.417000       1.00800           0   0.00000     -0.301140E-02
     32504 TIP3     2530     TIP3     OH2      OT      -0.834000       15.9994           0   0.00000       0.00000    
     32505 TIP3     2530     TIP3     H1       HT       0.417000       1.00800           0   0.00000       0.00000    
     32506 TIP3     2530     TIP3     H2       HT       0.417000       1.00800           0   0.00000     -0.301140E-02
     32507 TIP3     2531     TIP3     OH2      OT      -0.834000       15.9994           0   0.00000       0.00000    
     32508 TIP3     2531     TIP3     H1       HT       0.417000       1.00800           0   0.00000       0.00000    
     32509 TIP3     2531     TIP3     H2       HT       0.417000       1.00800           0   0.00000     -0.301140E-02
     32510 TIP3     2532     TIP3     OH2      OT      -0.834000       15.9994           0   0.00000       0.00000    
     32511 TIP3     2532     TIP3     H1       HT       0.417000       1.00800           0   0.00000       0.00000    
     32512 TIP3     2532     TIP3     H2       HT       0.417000       1.00800           0   0.00000     -0.301140E-02
     32513 TIP3     2533     TIP3     OH2      OT      -0.834000       15.9994           0   0.00000       0.00000    
     32514 TIP3     2533     TIP3     H1       HT       0.417000       1.00800           0   0.00000       0.00000    
     32515 TIP3     2533     TIP3     H2       HT       0.417000       1.00800           0   0.00000     -0.301140E-02
     32516 TIP3     2534     TIP3     OH2      OT      -0.834000       15.9994           0   0.00000       0.00000    
     32517 TIP3     2534     TIP3     H1       HT       0.417000       1.00800           0   0.00000       0.00000    
     32518 TIP3     2534     TIP3     H2       HT       0.417000       1.00800           0   0.00000     -0.301140E-02
     32519 TIP3     2535     TIP3     OH2      OT      -0.834000       15.9994           0   0.00000       0.00000    
     32520 TIP3     2535     TIP3     H1       HT       0.417000       1.00800           0   0.00000       0.00000    
     32521 TIP3     2535     TIP3     H2       HT       0.417000       1.00800           0   0.00000     -0.301140E-02
     32522 TIP3     2536     TIP3     OH2      OT      -0.834000       15.9994           0   0.00000       0.00000    
     32523 TIP3     2536     TIP3     H1       HT       0.417000       1.00800           0   0.00000       0.00000    
     32524 TIP3     2536     TIP3     H2       HT       0.417000       1.00800           0   0.00000     -0.301140E-02
     32525 TIP3     2537     TIP3     OH2      OT      -0.834000       15.9994           0   0.00000       0.00000    
     32526 TIP3     2537     TIP3     H1       HT       0.417000       1.00800           0   0.00000       0.00000    
     32527 TIP3     2537     TIP3     H2       HT       0.417000       1.00800           0   0.00000     -0.301140E-02
     32528 TIP3     2538     TIP3     OH2      OT      -0.834000       15.9994           0   0.00000       0.00000    
     32529 TIP3     2538     TIP3     H1       HT       0.417000       1.00800           0   0.00000       0.00000    
     32530 TIP3     2538     TIP3     H2       HT       0.417000       1.00800           0   0.00000     -0.301140E-02
     32531 TIP3     2539     TIP3     OH2      OT      -0.834000       15.9994           0   0.00000       0.00000    
     32532 TIP3     2539     TIP3     H1       HT       0.417000       1.00800           0   0.00000       0.00000    
     32533 TIP3     2539     TIP3     H2       HT       0.417000       1.00800           0   0.00000     -0.301140E-02
     32534 TIP3     2540     TIP3     OH2      OT      -0.834000       15.9994           0   0.00000       0.00000    
     32535 TIP3     2540     TIP3     H1       HT       0.417000       1.00800           0   0.00000       0.00000    
     32536 TIP3     2540     TIP3     H2       HT       0.417000       1.00800           0   0.00000     -0.301140E-02
     32537 TIP3     2541     TIP3     OH2      OT      -0.834000       15.9994           0   0.00000       0.00000    
     32538 TIP3     2541     TIP3     H1       HT       0.417000       1.00800           0   0.00000       0.00000    
     32539 TIP3     2541     TIP3     H2       HT       0.417000       1.00800           0   0.00000     -0.301140E-02
     32540 TIP3     2542     TIP3     OH2      OT      -0.834000       15.9994           0   0.00000       0.00000    
     32541 TIP3     2542     TIP3     H1       HT       0.417000       1.00800           0   0.00000       0.00000    
     32542 TIP3     2542     TIP3     H2       HT       0.417000       1.00800           0   0.00000     -0.301140E-02
     32543 TIP3     2543     TIP3     OH2      OT      -0.834000       15.9994           0   0.00000       0.00000    
     32544 TIP3     2543     TIP3     H1       HT       0.417000       1.00800           0   0.00000       0.00000    
     32545 TIP3     2543     TIP3     H2       HT       0.417000       1.00800           0   0.00000     -0.301140E-02
     32546 TIP3     2544     TIP3     OH2      OT      -0.834000       15.9994           0   0.00000       0.00000    
     32547 TIP3     2544     TIP3     H1       HT       0.417000       1.00800           0   0.00000       0.00000    
     32548 TIP3     2544     TIP3     H2       HT       0.417000       1.00800           0   0.00000     -0.301140E-02
     32549 TIP3     2545     TIP3     OH2      OT      -0.834000       15.9994           0   0.00000       0.00000    
     32550 TIP3     2545     TIP3     H1       HT       0.417000       1.00800           0   0.00000       0.00000    
     32551 TIP3     2545     TIP3     H2       HT       0.417000       1.00800           0   0.00000     -0.301140E-02
     32552 TIP3     2546     TIP3     OH2      OT      -0.834000       15.9994           0   0.00000       0.00000    
     32553 TIP3     2546     TIP3     H1       HT       0.417000       1.00800           0   0.00000       0.00000    
     32554 TIP3     2546     TIP3     H2       HT       0.417000       1.00800           0   0.00000     -0.301140E-02
     32555 TIP3     2547     TIP3     OH2      OT      -0.834000       15.9994           0   0.00000       0.00000    
     32556 TIP3     2547     TIP3     H1       HT       0.417000       1.00800           0   0.00000       0.00000    
     32557 TIP3     2547     TIP3     H2       HT       0.417000       1.00800           0   0.00000     -0.301140E-02
     32558 TIP3     2548     TIP3     OH2      OT      -0.834000       15.9994           0   0.00000       0.00000    
     32559 TIP3     2548     TIP3     H1       HT       0.417000       1.00800           0   0.00000       0.00000    
     32560 TIP3     2548     TIP3     H2       HT       0.417000       1.00800           0   0.00000     -0.301140E-02
     32561 TIP3     2549     TIP3     OH2      OT      -0.834000       15.9994           0   0.00000       0.00000    
     32562 TIP3     2549     TIP3     H1       HT       0.417000       1.00800           0   0.00000       0.00000    
     32563 TIP3     2549     TIP3     H2       HT       0.417000       1.00800           0   0.00000     -0.301140E-02
     32564 TIP3     2550     TIP3     OH2      OT      -0.834000       15.9994           0   0.00000       0.00000    
     32565 TIP3     2550     TIP3     H1       HT       0.417000       1.00800           0   0.00000       0.00000    
     32566 TIP3     2550     TIP3     H2       HT       0.417000       1.00800           0   0.00000     -0.301140E-02
     32567 TIP3     2551     TIP3     OH2      OT      -0.834000       15.9994           0   0.00000       0.00000    
     32568 TIP3     2551     TIP3     H1       HT       0.417000       1.00800           0   0.00000       0.00000    
     32569 TIP3     2551     TIP3     H2       HT       0.417000       1.00800           0   0.00000     -0.301140E-02
     32570 TIP3     2552     TIP3     OH2      OT      -0.834000       15.9994           0   0.00000       0.00000    
     32571 TIP3     2552     TIP3     H1       HT       0.417000       1.00800           0   0.00000       0.00000    
     32572 TIP3     2552     TIP3     H2       HT       0.417000       1.00800           0   0.00000     -0.301140E-02
     32573 TIP3     2553     TIP3     OH2      OT      -0.834000       15.9994           0   0.00000       0.00000    
     32574 TIP3     2553     TIP3     H1       HT       0.417000       1.00800           0   0.00000       0.00000    
     32575 TIP3     2553     TIP3     H2       HT       0.417000       1.00800           0   0.00000     -0.301140E-02
     32576 TIP3     2554     TIP3     OH2      OT      -0.834000       15.9994           0   0.00000       0.00000    
     32577 TIP3     2554     TIP3     H1       HT       0.417000       1.00800           0   0.00000       0.00000    
     32578 TIP3     2554     TIP3     H2       HT       0.417000       1.00800           0   0.00000     -0.301140E-02
     32579 TIP3     2555     TIP3     OH2      OT      -0.834000       15.9994           0   0.00000       0.00000    
     32580 TIP3     2555     TIP3     H1       HT       0.417000       1.00800           0   0.00000       0.00000    
     32581 TIP3     2555     TIP3     H2       HT       0.417000       1.00800           0   0.00000     -0.301140E-02
     32582 TIP3     2556     TIP3     OH2      OT      -0.834000       15.9994           0   0.00000       0.00000    
     32583 TIP3     2556     TIP3     H1       HT       0.417000       1.00800           0   0.00000       0.00000    
     32584 TIP3     2556     TIP3     H2       HT       0.417000       1.00800           0   0.00000     -0.301140E-02
     32585 TIP3     2557     TIP3     OH2      OT      -0.834000       15.9994           0   0.00000       0.00000    
     32586 TIP3     2557     TIP3     H1       HT       0.417000       1.00800           0   0.00000       0.00000    
     32587 TIP3     2557     TIP3     H2       HT       0.417000       1.00800           0   0.00000     -0.301140E-02
     32588 TIP3     2558     TIP3     OH2      OT      -0.834000       15.9994           0   0.00000       0.00000    
     32589 TIP3     2558     TIP3     H1       HT       0.417000       1.00800           0   0.00000       0.00000    
     32590 TIP3     2558     TIP3     H2       HT       0.417000       1.00800           0   0.00000     -0.301140E-02
     32591 TIP3     2559     TIP3     OH2      OT      -0.834000       15.9994           0   0.00000       0.00000    
     32592 TIP3     2559     TIP3     H1       HT       0.417000       1.00800           0   0.00000       0.00000    
     32593 TIP3     2559     TIP3     H2       HT       0.417000       1.00800           0   0.00000     -0.301140E-02
     32594 TIP3     2560     TIP3     OH2      OT      -0.834000       15.9994           0   0.00000       0.00000    
     32595 TIP3     2560     TIP3     H1       HT       0.417000       1.00800           0   0.00000       0.00000    
     32596 TIP3     2560     TIP3     H2       HT       0.417000       1.00800           0   0.00000     -0.301140E-02
     32597 TIP3     2561     TIP3     OH2      OT      -0.834000       15.9994           0   0.00000       0.00000    
     32598 TIP3     2561     TIP3     H1       HT       0.417000       1.00800           0   0.00000       0.00000    
     32599 TIP3     2561     TIP3     H2       HT       0.417000       1.00800           0   0.00000     -0.301140E-02
     32600 TIP3     2562     TIP3     OH2      OT      -0.834000       15.9994           0   0.00000       0.00000    
     32601 TIP3     2562     TIP3     H1       HT       0.417000       1.00800           0   0.00000       0.00000    
     32602 TIP3     2562     TIP3     H2       HT       0.417000       1.00800           0   0.00000     -0.301140E-02
     32603 TIP3     2563     TIP3     OH2      OT      -0.834000       15.9994           0   0.00000       0.00000    
     32604 TIP3     2563     TIP3     H1       HT       0.417000       1.00800           0   0.00000       0.00000    
     32605 TIP3     2563     TIP3     H2       HT       0.417000       1.00800           0   0.00000     -0.301140E-02
     32606 TIP3     2564     TIP3     OH2      OT      -0.834000       15.9994           0   0.00000       0.00000    
     32607 TIP3     2564     TIP3     H1       HT       0.417000       1.00800           0   0.00000       0.00000    
     32608 TIP3     2564     TIP3     H2       HT       0.417000       1.00800           0   0.00000     -0.301140E-02
     32609 TIP3     2565     TIP3     OH2      OT      -0.834000       15.9994           0   0.00000       0.00000    
     32610 TIP3     2565     TIP3     H1       HT       0.417000       1.00800           0   0.00000       0.00000    
     32611 TIP3     2565     TIP3     H2       HT       0.417000       1.00800           0   0.00000     -0.301140E-02
     32612 TIP3     2566     TIP3     OH2      OT      -0.834000       15.9994           0   0.00000       0.00000    
     32613 TIP3     2566     TIP3     H1       HT       0.417000       1.00800           0   0.00000       0.00000    
     32614 TIP3     2566     TIP3     H2       HT       0.417000       1.00800           0   0.00000     -0.301140E-02
     32615 TIP3     2567     TIP3     OH2      OT      -0.834000       15.9994           0   0.00000       0.00000    
     32616 TIP3     2567     TIP3     H1       HT       0.417000       1.00800           0   0.00000       0.00000    
     32617 TIP3     2567     TIP3     H2       HT       0.417000       1.00800           0   0.00000     -0.301140E-02
     32618 TIP3     2568     TIP3     OH2      OT      -0.834000       15.9994           0   0.00000       0.00000    
     32619 TIP3     2568     TIP3     H1       HT       0.417000       1.00800           0   0.00000       0.00000    
     32620 TIP3     2568     TIP3     H2       HT       0.417000       1.00800           0   0.00000     -0.301140E-02
     32621 TIP3     2569     TIP3     OH2      OT      -0.834000       15.9994           0   0.00000       0.00000    
     32622 TIP3     2569     TIP3     H1       HT       0.417000       1.00800           0   0.00000       0.00000    
     32623 TIP3     2569     TIP3     H2       HT       0.417000       1.00800           0   0.00000     -0.301140E-02
     32624 TIP3     2570     TIP3     OH2      OT      -0.834000       15.9994           0   0.00000       0.00000    
     32625 TIP3     2570     TIP3     H1       HT       0.417000       1.00800           0   0.00000       0.00000    
     32626 TIP3     2570     TIP3     H2       HT       0.417000       1.00800           0   0.00000     -0.301140E-02
     32627 TIP3     2571     TIP3     OH2      OT      -0.834000       15.9994           0   0.00000       0.00000    
     32628 TIP3     2571     TIP3     H1       HT       0.417000       1.00800           0   0.00000       0.00000    
     32629 TIP3     2571     TIP3     H2       HT       0.417000       1.00800           0   0.00000     -0.301140E-02
     32630 TIP3     2572     TIP3     OH2      OT      -0.834000       15.9994           0   0.00000       0.00000    
     32631 TIP3     2572     TIP3     H1       HT       0.417000       1.00800           0   0.00000       0.00000    
     32632 TIP3     2572     TIP3     H2       HT       0.417000       1.00800           0   0.00000     -0.301140E-02
     32633 TIP3     2573     TIP3     OH2      OT      -0.834000       15.9994           0   0.00000       0.00000    
     32634 TIP3     2573     TIP3     H1       HT       0.417000       1.00800           0   0.00000       0.00000    
     32635 TIP3     2573     TIP3     H2       HT       0.417000       1.00800           0   0.00000     -0.301140E-02
     32636 TIP3     2574     TIP3     OH2      OT      -0.834000       15.9994           0   0.00000       0.00000    
     32637 TIP3     2574     TIP3     H1       HT       0.417000       1.00800           0   0.00000       0.00000    
     32638 TIP3     2574     TIP3     H2       HT       0.417000       1.00800           0   0.00000     -0.301140E-02
     32639 TIP3     2575     TIP3     OH2      OT      -0.834000       15.9994           0   0.00000       0.00000    
     32640 TIP3     2575     TIP3     H1       HT       0.417000       1.00800           0   0.00000       0.00000    
     32641 TIP3     2575     TIP3     H2       HT       0.417000       1.00800           0   0.00000     -0.301140E-02
     32642 TIP3     2576     TIP3     OH2      OT      -0.834000       15.9994           0   0.00000       0.00000    
     32643 TIP3     2576     TIP3     H1       HT       0.417000       1.00800           0   0.00000       0.00000    
     32644 TIP3     2576     TIP3     H2       HT       0.417000       1.00800           0   0.00000     -0.301140E-02
     32645 TIP3     2577     TIP3     OH2      OT      -0.834000       15.9994           0   0.00000       0.00000    
     32646 TIP3     2577     TIP3     H1       HT       0.417000       1.00800           0   0.00000       0.00000    
     32647 TIP3     2577     TIP3     H2       HT       0.417000       1.00800           0   0.00000     -0.301140E-02
     32648 TIP3     2578     TIP3     OH2      OT      -0.834000       15.9994           0   0.00000       0.00000    
     32649 TIP3     2578     TIP3     H1       HT       0.417000       1.00800           0   0.00000       0.00000    
     32650 TIP3     2578     TIP3     H2       HT       0.417000       1.00800           0   0.00000     -0.301140E-02
     32651 TIP3     2579     TIP3     OH2      OT      -0.834000       15.9994           0   0.00000       0.00000    
     32652 TIP3     2579     TIP3     H1       HT       0.417000       1.00800           0   0.00000       0.00000    
     32653 TIP3     2579     TIP3     H2       HT       0.417000       1.00800           0   0.00000     -0.301140E-02
     32654 TIP3     2580     TIP3     OH2      OT      -0.834000       15.9994           0   0.00000       0.00000    
     32655 TIP3     2580     TIP3     H1       HT       0.417000       1.00800           0   0.00000       0.00000    
     32656 TIP3     2580     TIP3     H2       HT       0.417000       1.00800           0   0.00000     -0.301140E-02
     32657 TIP3     2581     TIP3     OH2      OT      -0.834000       15.9994           0   0.00000       0.00000    
     32658 TIP3     2581     TIP3     H1       HT       0.417000       1.00800           0   0.00000       0.00000    
     32659 TIP3     2581     TIP3     H2       HT       0.417000       1.00800           0   0.00000     -0.301140E-02
     32660 TIP3     2582     TIP3     OH2      OT      -0.834000       15.9994           0   0.00000       0.00000    
     32661 TIP3     2582     TIP3     H1       HT       0.417000       1.00800           0   0.00000       0.00000    
     32662 TIP3     2582     TIP3     H2       HT       0.417000       1.00800           0   0.00000     -0.301140E-02
     32663 TIP3     2583     TIP3     OH2      OT      -0.834000       15.9994           0   0.00000       0.00000    
     32664 TIP3     2583     TIP3     H1       HT       0.417000       1.00800           0   0.00000       0.00000    
     32665 TIP3     2583     TIP3     H2       HT       0.417000       1.00800           0   0.00000     -0.301140E-02
     32666 TIP3     2584     TIP3     OH2      OT      -0.834000       15.9994           0   0.00000       0.00000    
     32667 TIP3     2584     TIP3     H1       HT       0.417000       1.00800           0   0.00000       0.00000    
     32668 TIP3     2584     TIP3     H2       HT       0.417000       1.00800           0   0.00000     -0.301140E-02
     32669 TIP3     2585     TIP3     OH2      OT      -0.834000       15.9994           0   0.00000       0.00000    
     32670 TIP3     2585     TIP3     H1       HT       0.417000       1.00800           0   0.00000       0.00000    
     32671 TIP3     2585     TIP3     H2       HT       0.417000       1.00800           0   0.00000     -0.301140E-02
     32672 TIP3     2586     TIP3     OH2      OT      -0.834000       15.9994           0   0.00000       0.00000    
     32673 TIP3     2586     TIP3     H1       HT       0.417000       1.00800           0   0.00000       0.00000    
     32674 TIP3     2586     TIP3     H2       HT       0.417000       1.00800           0   0.00000     -0.301140E-02
     32675 TIP3     2587     TIP3     OH2      OT      -0.834000       15.9994           0   0.00000       0.00000    
     32676 TIP3     2587     TIP3     H1       HT       0.417000       1.00800           0   0.00000       0.00000    
     32677 TIP3     2587     TIP3     H2       HT       0.417000       1.00800           0   0.00000     -0.301140E-02
     32678 TIP3     2588     TIP3     OH2      OT      -0.834000       15.9994           0   0.00000       0.00000    
     32679 TIP3     2588     TIP3     H1       HT       0.417000       1.00800           0   0.00000       0.00000    
     32680 TIP3     2588     TIP3     H2       HT       0.417000       1.00800           0   0.00000     -0.301140E-02
     32681 TIP3     2589     TIP3     OH2      OT      -0.834000       15.9994           0   0.00000       0.00000    
     32682 TIP3     2589     TIP3     H1       HT       0.417000       1.00800           0   0.00000       0.00000    
     32683 TIP3     2589     TIP3     H2       HT       0.417000       1.00800           0   0.00000     -0.301140E-02
     32684 TIP3     2590     TIP3     OH2      OT      -0.834000       15.9994           0   0.00000       0.00000    
     32685 TIP3     2590     TIP3     H1       HT       0.417000       1.00800           0   0.00000       0.00000    
     32686 TIP3     2590     TIP3     H2       HT       0.417000       1.00800           0   0.00000     -0.301140E-02
     32687 TIP3     2591     TIP3     OH2      OT      -0.834000       15.9994           0   0.00000       0.00000    
     32688 TIP3     2591     TIP3     H1       HT       0.417000       1.00800           0   0.00000       0.00000    
     32689 TIP3     2591     TIP3     H2       HT       0.417000       1.00800           0   0.00000     -0.301140E-02
     32690 TIP3     2592     TIP3     OH2      OT      -0.834000       15.9994           0   0.00000       0.00000    
     32691 TIP3     2592     TIP3     H1       HT       0.417000       1.00800           0   0.00000       0.00000    
     32692 TIP3     2592     TIP3     H2       HT       0.417000       1.00800           0   0.00000     -0.301140E-02
     32693 TIP3     2593     TIP3     OH2      OT      -0.834000       15.9994           0   0.00000       0.00000    
     32694 TIP3     2593     TIP3     H1       HT       0.417000       1.00800           0   0.00000       0.00000    
     32695 TIP3     2593     TIP3     H2       HT       0.417000       1.00800           0   0.00000     -0.301140E-02
     32696 TIP3     2594     TIP3     OH2      OT      -0.834000       15.9994           0   0.00000       0.00000    
     32697 TIP3     2594     TIP3     H1       HT       0.417000       1.00800           0   0.00000       0.00000    
     32698 TIP3     2594     TIP3     H2       HT       0.417000       1.00800           0   0.00000     -0.301140E-02
     32699 TIP3     2595     TIP3     OH2      OT      -0.834000       15.9994           0   0.00000       0.00000    
     32700 TIP3     2595     TIP3     H1       HT       0.417000       1.00800           0   0.00000       0.00000    
     32701 TIP3     2595     TIP3     H2       HT       0.417000       1.00800           0   0.00000     -0.301140E-02
     32702 TIP3     2596     TIP3     OH2      OT      -0.834000       15.9994           0   0.00000       0.00000    
     32703 TIP3     2596     TIP3     H1       HT       0.417000       1.00800           0   0.00000       0.00000    
     32704 TIP3     2596     TIP3     H2       HT       0.417000       1.00800           0   0.00000     -0.301140E-02
     32705 TIP3     2597     TIP3     OH2      OT      -0.834000       15.9994           0   0.00000       0.00000    
     32706 TIP3     2597     TIP3     H1       HT       0.417000       1.00800           0   0.00000       0.00000    
     32707 TIP3     2597     TIP3     H2       HT       0.417000       1.00800           0   0.00000     -0.301140E-02
     32708 TIP3     2598     TIP3     OH2      OT      -0.834000       15.9994           0   0.00000       0.00000    
     32709 TIP3     2598     TIP3     H1       HT       0.417000       1.00800           0   0.00000       0.00000    
     32710 TIP3     2598     TIP3     H2       HT       0.417000       1.00800           0   0.00000     -0.301140E-02
     32711 TIP3     2599     TIP3     OH2      OT      -0.834000       15.9994           0   0.00000       0.00000    
     32712 TIP3     2599     TIP3     H1       HT       0.417000       1.00800           0   0.00000       0.00000    
     32713 TIP3     2599     TIP3     H2       HT       0.417000       1.00800           0   0.00000     -0.301140E-02
     32714 TIP3     2600     TIP3     OH2      OT      -0.834000       15.9994           0   0.00000       0.00000    
     32715 TIP3     2600     TIP3     H1       HT       0.417000       1.00800           0   0.00000       0.00000    
     32716 TIP3     2600     TIP3     H2       HT       0.417000       1.00800           0   0.00000     -0.301140E-02
     32717 TIP3     2601     TIP3     OH2      OT      -0.834000       15.9994           0   0.00000       0.00000    
     32718 TIP3     2601     TIP3     H1       HT       0.417000       1.00800           0   0.00000       0.00000    
     32719 TIP3     2601     TIP3     H2       HT       0.417000       1.00800           0   0.00000     -0.301140E-02
     32720 TIP3     2602     TIP3     OH2      OT      -0.834000       15.9994           0   0.00000       0.00000    
     32721 TIP3     2602     TIP3     H1       HT       0.417000       1.00800           0   0.00000       0.00000    
     32722 TIP3     2602     TIP3     H2       HT       0.417000       1.00800           0   0.00000     -0.301140E-02
     32723 TIP3     2603     TIP3     OH2      OT      -0.834000       15.9994           0   0.00000       0.00000    
     32724 TIP3     2603     TIP3     H1       HT       0.417000       1.00800           0   0.00000       0.00000    
     32725 TIP3     2603     TIP3     H2       HT       0.417000       1.00800           0   0.00000     -0.301140E-02
     32726 TIP3     2604     TIP3     OH2      OT      -0.834000       15.9994           0   0.00000       0.00000    
     32727 TIP3     2604     TIP3     H1       HT       0.417000       1.00800           0   0.00000       0.00000    
     32728 TIP3     2604     TIP3     H2       HT       0.417000       1.00800           0   0.00000     -0.301140E-02
     32729 TIP3     2605     TIP3     OH2      OT      -0.834000       15.9994           0   0.00000       0.00000    
     32730 TIP3     2605     TIP3     H1       HT       0.417000       1.00800           0   0.00000       0.00000    
     32731 TIP3     2605     TIP3     H2       HT       0.417000       1.00800           0   0.00000     -0.301140E-02
     32732 TIP3     2606     TIP3     OH2      OT      -0.834000       15.9994           0   0.00000       0.00000    
     32733 TIP3     2606     TIP3     H1       HT       0.417000       1.00800           0   0.00000       0.00000    
     32734 TIP3     2606     TIP3     H2       HT       0.417000       1.00800           0   0.00000     -0.301140E-02
     32735 TIP3     2607     TIP3     OH2      OT      -0.834000       15.9994           0   0.00000       0.00000    
     32736 TIP3     2607     TIP3     H1       HT       0.417000       1.00800           0   0.00000       0.00000    
     32737 TIP3     2607     TIP3     H2       HT       0.417000       1.00800           0   0.00000     -0.301140E-02
     32738 TIP3     2608     TIP3     OH2      OT      -0.834000       15.9994           0   0.00000       0.00000    
     32739 TIP3     2608     TIP3     H1       HT       0.417000       1.00800           0   0.00000       0.00000    
     32740 TIP3     2608     TIP3     H2       HT       0.417000       1.00800           0   0.00000     -0.301140E-02
     32741 TIP3     2609     TIP3     OH2      OT      -0.834000       15.9994           0   0.00000       0.00000    
     32742 TIP3     2609     TIP3     H1       HT       0.417000       1.00800           0   0.00000       0.00000    
     32743 TIP3     2609     TIP3     H2       HT       0.417000       1.00800           0   0.00000     -0.301140E-02
     32744 TIP3     2610     TIP3     OH2      OT      -0.834000       15.9994           0   0.00000       0.00000    
     32745 TIP3     2610     TIP3     H1       HT       0.417000       1.00800           0   0.00000       0.00000    
     32746 TIP3     2610     TIP3     H2       HT       0.417000       1.00800           0   0.00000     -0.301140E-02
     32747 TIP3     2611     TIP3     OH2      OT      -0.834000       15.9994           0   0.00000       0.00000    
     32748 TIP3     2611     TIP3     H1       HT       0.417000       1.00800           0   0.00000       0.00000    
     32749 TIP3     2611     TIP3     H2       HT       0.417000       1.00800           0   0.00000     -0.301140E-02
     32750 TIP3     2612     TIP3     OH2      OT      -0.834000       15.9994           0   0.00000       0.00000    
     32751 TIP3     2612     TIP3     H1       HT       0.417000       1.00800           0   0.00000       0.00000    
     32752 TIP3     2612     TIP3     H2       HT       0.417000       1.00800           0   0.00000     -0.301140E-02
     32753 TIP3     2613     TIP3     OH2      OT      -0.834000       15.9994           0   0.00000       0.00000    
     32754 TIP3     2613     TIP3     H1       HT       0.417000       1.00800           0   0.00000       0.00000    
     32755 TIP3     2613     TIP3     H2       HT       0.417000       1.00800           0   0.00000     -0.301140E-02
     32756 TIP3     2614     TIP3     OH2      OT      -0.834000       15.9994           0   0.00000       0.00000    
     32757 TIP3     2614     TIP3     H1       HT       0.417000       1.00800           0   0.00000       0.00000    
     32758 TIP3     2614     TIP3     H2       HT       0.417000       1.00800           0   0.00000     -0.301140E-02
     32759 TIP3     2615     TIP3     OH2      OT      -0.834000       15.9994           0   0.00000       0.00000    
     32760 TIP3     2615     TIP3     H1       HT       0.417000       1.00800           0   0.00000       0.00000    
     32761 TIP3     2615     TIP3     H2       HT       0.417000       1.00800           0   0.00000     -0.301140E-02
     32762 TIP3     2616     TIP3     OH2      OT      -0.834000       15.9994           0   0.00000       0.00000    
     32763 TIP3     2616     TIP3     H1       HT       0.417000       1.00800           0   0.00000       0.00000    
     32764 TIP3     2616     TIP3     H2       HT       0.417000       1.00800           0   0.00000     -0.301140E-02
     32765 TIP3     2617     TIP3     OH2      OT      -0.834000       15.9994           0   0.00000       0.00000    
     32766 TIP3     2617     TIP3     H1       HT       0.417000       1.00800           0   0.00000       0.00000    
     32767 TIP3     2617     TIP3     H2       HT       0.417000       1.00800           0   0.00000     -0.301140E-02
     32768 TIP3     2618     TIP3     OH2      OT      -0.834000       15.9994           0   0.00000       0.00000    
     32769 TIP3     2618     TIP3     H1       HT       0.417000       1.00800           0   0.00000       0.00000    
     32770 TIP3     2618     TIP3     H2       HT       0.417000       1.00800           0   0.00000     -0.301140E-02
     32771 TIP3     2619     TIP3     OH2      OT      -0.834000       15.9994           0   0.00000       0.00000    
     32772 TIP3     2619     TIP3     H1       HT       0.417000       1.00800           0   0.00000       0.00000    
     32773 TIP3     2619     TIP3     H2       HT       0.417000       1.00800           0   0.00000     -0.301140E-02
     32774 TIP3     2620     TIP3     OH2      OT      -0.834000       15.9994           0   0.00000       0.00000    
     32775 TIP3     2620     TIP3     H1       HT       0.417000       1.00800           0   0.00000       0.00000    
     32776 TIP3     2620     TIP3     H2       HT       0.417000       1.00800           0   0.00000     -0.301140E-02
     32777 TIP3     2621     TIP3     OH2      OT      -0.834000       15.9994           0   0.00000       0.00000    
     32778 TIP3     2621     TIP3     H1       HT       0.417000       1.00800           0   0.00000       0.00000    
     32779 TIP3     2621     TIP3     H2       HT       0.417000       1.00800           0   0.00000     -0.301140E-02
     32780 TIP3     2622     TIP3     OH2      OT      -0.834000       15.9994           0   0.00000       0.00000    
     32781 TIP3     2622     TIP3     H1       HT       0.417000       1.00800           0   0.00000       0.00000    
     32782 TIP3     2622     TIP3     H2       HT       0.417000       1.00800           0   0.00000     -0.301140E-02
     32783 TIP3     2623     TIP3     OH2      OT      -0.834000       15.9994           0   0.00000       0.00000    
     32784 TIP3     2623     TIP3     H1       HT       0.417000       1.00800           0   0.00000       0.00000    
     32785 TIP3     2623     TIP3     H2       HT       0.417000       1.00800           0   0.00000     -0.301140E-02
     32786 TIP3     2624     TIP3     OH2      OT      -0.834000       15.9994           0   0.00000       0.00000    
     32787 TIP3     2624     TIP3     H1       HT       0.417000       1.00800           0   0.00000       0.00000    
     32788 TIP3     2624     TIP3     H2       HT       0.417000       1.00800           0   0.00000     -0.301140E-02
     32789 TIP3     2625     TIP3     OH2      OT      -0.834000       15.9994           0   0.00000       0.00000    
     32790 TIP3     2625     TIP3     H1       HT       0.417000       1.00800           0   0.00000       0.00000    
     32791 TIP3     2625     TIP3     H2       HT       0.417000       1.00800           0   0.00000     -0.301140E-02
     32792 TIP3     2626     TIP3     OH2      OT      -0.834000       15.9994           0   0.00000       0.00000    
     32793 TIP3     2626     TIP3     H1       HT       0.417000       1.00800           0   0.00000       0.00000    
     32794 TIP3     2626     TIP3     H2       HT       0.417000       1.00800           0   0.00000     -0.301140E-02
     32795 TIP3     2627     TIP3     OH2      OT      -0.834000       15.9994           0   0.00000       0.00000    
     32796 TIP3     2627     TIP3     H1       HT       0.417000       1.00800           0   0.00000       0.00000    
     32797 TIP3     2627     TIP3     H2       HT       0.417000       1.00800           0   0.00000     -0.301140E-02
     32798 TIP3     2628     TIP3     OH2      OT      -0.834000       15.9994           0   0.00000       0.00000    
     32799 TIP3     2628     TIP3     H1       HT       0.417000       1.00800           0   0.00000       0.00000    
     32800 TIP3     2628     TIP3     H2       HT       0.417000       1.00800           0   0.00000     -0.301140E-02
     32801 TIP3     2629     TIP3     OH2      OT      -0.834000       15.9994           0   0.00000       0.00000    
     32802 TIP3     2629     TIP3     H1       HT       0.417000       1.00800           0   0.00000       0.00000    
     32803 TIP3     2629     TIP3     H2       HT       0.417000       1.00800           0   0.00000     -0.301140E-02
     32804 TIP3     2630     TIP3     OH2      OT      -0.834000       15.9994           0   0.00000       0.00000    
     32805 TIP3     2630     TIP3     H1       HT       0.417000       1.00800           0   0.00000       0.00000    
     32806 TIP3     2630     TIP3     H2       HT       0.417000       1.00800           0   0.00000     -0.301140E-02
     32807 TIP3     2631     TIP3     OH2      OT      -0.834000       15.9994           0   0.00000       0.00000    
     32808 TIP3     2631     TIP3     H1       HT       0.417000       1.00800           0   0.00000       0.00000    
     32809 TIP3     2631     TIP3     H2       HT       0.417000       1.00800           0   0.00000     -0.301140E-02
     32810 TIP3     2632     TIP3     OH2      OT      -0.834000       15.9994           0   0.00000       0.00000    
     32811 TIP3     2632     TIP3     H1       HT       0.417000       1.00800           0   0.00000       0.00000    
     32812 TIP3     2632     TIP3     H2       HT       0.417000       1.00800           0   0.00000     -0.301140E-02
     32813 TIP3     2633     TIP3     OH2      OT      -0.834000       15.9994           0   0.00000       0.00000    
     32814 TIP3     2633     TIP3     H1       HT       0.417000       1.00800           0   0.00000       0.00000    
     32815 TIP3     2633     TIP3     H2       HT       0.417000       1.00800           0   0.00000     -0.301140E-02
     32816 TIP3     2634     TIP3     OH2      OT      -0.834000       15.9994           0   0.00000       0.00000    
     32817 TIP3     2634     TIP3     H1       HT       0.417000       1.00800           0   0.00000       0.00000    
     32818 TIP3     2634     TIP3     H2       HT       0.417000       1.00800           0   0.00000     -0.301140E-02
     32819 TIP3     2635     TIP3     OH2      OT      -0.834000       15.9994           0   0.00000       0.00000    
     32820 TIP3     2635     TIP3     H1       HT       0.417000       1.00800           0   0.00000       0.00000    
     32821 TIP3     2635     TIP3     H2       HT       0.417000       1.00800           0   0.00000     -0.301140E-02
     32822 TIP3     2636     TIP3     OH2      OT      -0.834000       15.9994           0   0.00000       0.00000    
     32823 TIP3     2636     TIP3     H1       HT       0.417000       1.00800           0   0.00000       0.00000    
     32824 TIP3     2636     TIP3     H2       HT       0.417000       1.00800           0   0.00000     -0.301140E-02
     32825 TIP3     2637     TIP3     OH2      OT      -0.834000       15.9994           0   0.00000       0.00000    
     32826 TIP3     2637     TIP3     H1       HT       0.417000       1.00800           0   0.00000       0.00000    
     32827 TIP3     2637     TIP3     H2       HT       0.417000       1.00800           0   0.00000     -0.301140E-02
     32828 TIP3     2638     TIP3     OH2      OT      -0.834000       15.9994           0   0.00000       0.00000    
     32829 TIP3     2638     TIP3     H1       HT       0.417000       1.00800           0   0.00000       0.00000    
     32830 TIP3     2638     TIP3     H2       HT       0.417000       1.00800           0   0.00000     -0.301140E-02
     32831 TIP3     2639     TIP3     OH2      OT      -0.834000       15.9994           0   0.00000       0.00000    
     32832 TIP3     2639     TIP3     H1       HT       0.417000       1.00800           0   0.00000       0.00000    
     32833 TIP3     2639     TIP3     H2       HT       0.417000       1.00800           0   0.00000     -0.301140E-02
     32834 TIP3     2640     TIP3     OH2      OT      -0.834000       15.9994           0   0.00000       0.00000    
     32835 TIP3     2640     TIP3     H1       HT       0.417000       1.00800           0   0.00000       0.00000    
     32836 TIP3     2640     TIP3     H2       HT       0.417000       1.00800           0   0.00000     -0.301140E-02
     32837 TIP3     2641     TIP3     OH2      OT      -0.834000       15.9994           0   0.00000       0.00000    
     32838 TIP3     2641     TIP3     H1       HT       0.417000       1.00800           0   0.00000       0.00000    
     32839 TIP3     2641     TIP3     H2       HT       0.417000       1.00800           0   0.00000     -0.301140E-02
     32840 TIP3     2642     TIP3     OH2      OT      -0.834000       15.9994           0   0.00000       0.00000    
     32841 TIP3     2642     TIP3     H1       HT       0.417000       1.00800           0   0.00000       0.00000    
     32842 TIP3     2642     TIP3     H2       HT       0.417000       1.00800           0   0.00000     -0.301140E-02
     32843 TIP3     2643     TIP3     OH2      OT      -0.834000       15.9994           0   0.00000       0.00000    
     32844 TIP3     2643     TIP3     H1       HT       0.417000       1.00800           0   0.00000       0.00000    
     32845 TIP3     2643     TIP3     H2       HT       0.417000       1.00800           0   0.00000     -0.301140E-02
     32846 TIP3     2644     TIP3     OH2      OT      -0.834000       15.9994           0   0.00000       0.00000    
     32847 TIP3     2644     TIP3     H1       HT       0.417000       1.00800           0   0.00000       0.00000    
     32848 TIP3     2644     TIP3     H2       HT       0.417000       1.00800           0   0.00000     -0.301140E-02
     32849 TIP3     2645     TIP3     OH2      OT      -0.834000       15.9994           0   0.00000       0.00000    
     32850 TIP3     2645     TIP3     H1       HT       0.417000       1.00800           0   0.00000       0.00000    
     32851 TIP3     2645     TIP3     H2       HT       0.417000       1.00800           0   0.00000     -0.301140E-02
     32852 TIP3     2646     TIP3     OH2      OT      -0.834000       15.9994           0   0.00000       0.00000    
     32853 TIP3     2646     TIP3     H1       HT       0.417000       1.00800           0   0.00000       0.00000    
     32854 TIP3     2646     TIP3     H2       HT       0.417000       1.00800           0   0.00000     -0.301140E-02
     32855 TIP3     2647     TIP3     OH2      OT      -0.834000       15.9994           0   0.00000       0.00000    
     32856 TIP3     2647     TIP3     H1       HT       0.417000       1.00800           0   0.00000       0.00000    
     32857 TIP3     2647     TIP3     H2       HT       0.417000       1.00800           0   0.00000     -0.301140E-02
     32858 TIP3     2648     TIP3     OH2      OT      -0.834000       15.9994           0   0.00000       0.00000    
     32859 TIP3     2648     TIP3     H1       HT       0.417000       1.00800           0   0.00000       0.00000    
     32860 TIP3     2648     TIP3     H2       HT       0.417000       1.00800           0   0.00000     -0.301140E-02
     32861 TIP3     2649     TIP3     OH2      OT      -0.834000       15.9994           0   0.00000       0.00000    
     32862 TIP3     2649     TIP3     H1       HT       0.417000       1.00800           0   0.00000       0.00000    
     32863 TIP3     2649     TIP3     H2       HT       0.417000       1.00800           0   0.00000     -0.301140E-02
     32864 TIP3     2650     TIP3     OH2      OT      -0.834000       15.9994           0   0.00000       0.00000    
     32865 TIP3     2650     TIP3     H1       HT       0.417000       1.00800           0   0.00000       0.00000    
     32866 TIP3     2650     TIP3     H2       HT       0.417000       1.00800           0   0.00000     -0.301140E-02
     32867 TIP3     2651     TIP3     OH2      OT      -0.834000       15.9994           0   0.00000       0.00000    
     32868 TIP3     2651     TIP3     H1       HT       0.417000       1.00800           0   0.00000       0.00000    
     32869 TIP3     2651     TIP3     H2       HT       0.417000       1.00800           0   0.00000     -0.301140E-02
     32870 TIP3     2652     TIP3     OH2      OT      -0.834000       15.9994           0   0.00000       0.00000    
     32871 TIP3     2652     TIP3     H1       HT       0.417000       1.00800           0   0.00000       0.00000    
     32872 TIP3     2652     TIP3     H2       HT       0.417000       1.00800           0   0.00000     -0.301140E-02
     32873 TIP3     2653     TIP3     OH2      OT      -0.834000       15.9994           0   0.00000       0.00000    
     32874 TIP3     2653     TIP3     H1       HT       0.417000       1.00800           0   0.00000       0.00000    
     32875 TIP3     2653     TIP3     H2       HT       0.417000       1.00800           0   0.00000     -0.301140E-02
     32876 TIP3     2654     TIP3     OH2      OT      -0.834000       15.9994           0   0.00000       0.00000    
     32877 TIP3     2654     TIP3     H1       HT       0.417000       1.00800           0   0.00000       0.00000    
     32878 TIP3     2654     TIP3     H2       HT       0.417000       1.00800           0   0.00000     -0.301140E-02
     32879 TIP3     2655     TIP3     OH2      OT      -0.834000       15.9994           0   0.00000       0.00000    
     32880 TIP3     2655     TIP3     H1       HT       0.417000       1.00800           0   0.00000       0.00000    
     32881 TIP3     2655     TIP3     H2       HT       0.417000       1.00800           0   0.00000     -0.301140E-02
     32882 TIP3     2656     TIP3     OH2      OT      -0.834000       15.9994           0   0.00000       0.00000    
     32883 TIP3     2656     TIP3     H1       HT       0.417000       1.00800           0   0.00000       0.00000    
     32884 TIP3     2656     TIP3     H2       HT       0.417000       1.00800           0   0.00000     -0.301140E-02
     32885 TIP3     2657     TIP3     OH2      OT      -0.834000       15.9994           0   0.00000       0.00000    
     32886 TIP3     2657     TIP3     H1       HT       0.417000       1.00800           0   0.00000       0.00000    
     32887 TIP3     2657     TIP3     H2       HT       0.417000       1.00800           0   0.00000     -0.301140E-02
     32888 TIP3     2658     TIP3     OH2      OT      -0.834000       15.9994           0   0.00000       0.00000    
     32889 TIP3     2658     TIP3     H1       HT       0.417000       1.00800           0   0.00000       0.00000    
     32890 TIP3     2658     TIP3     H2       HT       0.417000       1.00800           0   0.00000     -0.301140E-02
     32891 TIP3     2659     TIP3     OH2      OT      -0.834000       15.9994           0   0.00000       0.00000    
     32892 TIP3     2659     TIP3     H1       HT       0.417000       1.00800           0   0.00000       0.00000    
     32893 TIP3     2659     TIP3     H2       HT       0.417000       1.00800           0   0.00000     -0.301140E-02
     32894 TIP3     2660     TIP3     OH2      OT      -0.834000       15.9994           0   0.00000       0.00000    
     32895 TIP3     2660     TIP3     H1       HT       0.417000       1.00800           0   0.00000       0.00000    
     32896 TIP3     2660     TIP3     H2       HT       0.417000       1.00800           0   0.00000     -0.301140E-02
     32897 TIP3     2661     TIP3     OH2      OT      -0.834000       15.9994           0   0.00000       0.00000    
     32898 TIP3     2661     TIP3     H1       HT       0.417000       1.00800           0   0.00000       0.00000    
     32899 TIP3     2661     TIP3     H2       HT       0.417000       1.00800           0   0.00000     -0.301140E-02
     32900 TIP3     2662     TIP3     OH2      OT      -0.834000       15.9994           0   0.00000       0.00000    
     32901 TIP3     2662     TIP3     H1       HT       0.417000       1.00800           0   0.00000       0.00000    
     32902 TIP3     2662     TIP3     H2       HT       0.417000       1.00800           0   0.00000     -0.301140E-02
     32903 TIP3     2663     TIP3     OH2      OT      -0.834000       15.9994           0   0.00000       0.00000    
     32904 TIP3     2663     TIP3     H1       HT       0.417000       1.00800           0   0.00000       0.00000    
     32905 TIP3     2663     TIP3     H2       HT       0.417000       1.00800           0   0.00000     -0.301140E-02
     32906 TIP3     2664     TIP3     OH2      OT      -0.834000       15.9994           0   0.00000       0.00000    
     32907 TIP3     2664     TIP3     H1       HT       0.417000       1.00800           0   0.00000       0.00000    
     32908 TIP3     2664     TIP3     H2       HT       0.417000       1.00800           0   0.00000     -0.301140E-02
     32909 TIP3     2665     TIP3     OH2      OT      -0.834000       15.9994           0   0.00000       0.00000    
     32910 TIP3     2665     TIP3     H1       HT       0.417000       1.00800           0   0.00000       0.00000    
     32911 TIP3     2665     TIP3     H2       HT       0.417000       1.00800           0   0.00000     -0.301140E-02
     32912 TIP3     2666     TIP3     OH2      OT      -0.834000       15.9994           0   0.00000       0.00000    
     32913 TIP3     2666     TIP3     H1       HT       0.417000       1.00800           0   0.00000       0.00000    
     32914 TIP3     2666     TIP3     H2       HT       0.417000       1.00800           0   0.00000     -0.301140E-02
     32915 TIP3     2667     TIP3     OH2      OT      -0.834000       15.9994           0   0.00000       0.00000    
     32916 TIP3     2667     TIP3     H1       HT       0.417000       1.00800           0   0.00000       0.00000    
     32917 TIP3     2667     TIP3     H2       HT       0.417000       1.00800           0   0.00000     -0.301140E-02
     32918 TIP3     2668     TIP3     OH2      OT      -0.834000       15.9994           0   0.00000       0.00000    
     32919 TIP3     2668     TIP3     H1       HT       0.417000       1.00800           0   0.00000       0.00000    
     32920 TIP3     2668     TIP3     H2       HT       0.417000       1.00800           0   0.00000     -0.301140E-02
     32921 TIP3     2669     TIP3     OH2      OT      -0.834000       15.9994           0   0.00000       0.00000    
     32922 TIP3     2669     TIP3     H1       HT       0.417000       1.00800           0   0.00000       0.00000    
     32923 TIP3     2669     TIP3     H2       HT       0.417000       1.00800           0   0.00000     -0.301140E-02
     32924 TIP3     2670     TIP3     OH2      OT      -0.834000       15.9994           0   0.00000       0.00000    
     32925 TIP3     2670     TIP3     H1       HT       0.417000       1.00800           0   0.00000       0.00000    
     32926 TIP3     2670     TIP3     H2       HT       0.417000       1.00800           0   0.00000     -0.301140E-02
     32927 TIP3     2671     TIP3     OH2      OT      -0.834000       15.9994           0   0.00000       0.00000    
     32928 TIP3     2671     TIP3     H1       HT       0.417000       1.00800           0   0.00000       0.00000    
     32929 TIP3     2671     TIP3     H2       HT       0.417000       1.00800           0   0.00000     -0.301140E-02
     32930 TIP3     2672     TIP3     OH2      OT      -0.834000       15.9994           0   0.00000       0.00000    
     32931 TIP3     2672     TIP3     H1       HT       0.417000       1.00800           0   0.00000       0.00000    
     32932 TIP3     2672     TIP3     H2       HT       0.417000       1.00800           0   0.00000     -0.301140E-02
     32933 TIP3     2673     TIP3     OH2      OT      -0.834000       15.9994           0   0.00000       0.00000    
     32934 TIP3     2673     TIP3     H1       HT       0.417000       1.00800           0   0.00000       0.00000    
     32935 TIP3     2673     TIP3     H2       HT       0.417000       1.00800           0   0.00000     -0.301140E-02
     32936 TIP3     2674     TIP3     OH2      OT      -0.834000       15.9994           0   0.00000       0.00000    
     32937 TIP3     2674     TIP3     H1       HT       0.417000       1.00800           0   0.00000       0.00000    
     32938 TIP3     2674     TIP3     H2       HT       0.417000       1.00800           0   0.00000     -0.301140E-02
     32939 TIP3     2675     TIP3     OH2      OT      -0.834000       15.9994           0   0.00000       0.00000    
     32940 TIP3     2675     TIP3     H1       HT       0.417000       1.00800           0   0.00000       0.00000    
     32941 TIP3     2675     TIP3     H2       HT       0.417000       1.00800           0   0.00000     -0.301140E-02
     32942 TIP3     2676     TIP3     OH2      OT      -0.834000       15.9994           0   0.00000       0.00000    
     32943 TIP3     2676     TIP3     H1       HT       0.417000       1.00800           0   0.00000       0.00000    
     32944 TIP3     2676     TIP3     H2       HT       0.417000       1.00800           0   0.00000     -0.301140E-02
     32945 TIP3     2677     TIP3     OH2      OT      -0.834000       15.9994           0   0.00000       0.00000    
     32946 TIP3     2677     TIP3     H1       HT       0.417000       1.00800           0   0.00000       0.00000    
     32947 TIP3     2677     TIP3     H2       HT       0.417000       1.00800           0   0.00000     -0.301140E-02
     32948 TIP3     2678     TIP3     OH2      OT      -0.834000       15.9994           0   0.00000       0.00000    
     32949 TIP3     2678     TIP3     H1       HT       0.417000       1.00800           0   0.00000       0.00000    
     32950 TIP3     2678     TIP3     H2       HT       0.417000       1.00800           0   0.00000     -0.301140E-02
     32951 TIP3     2679     TIP3     OH2      OT      -0.834000       15.9994           0   0.00000       0.00000    
     32952 TIP3     2679     TIP3     H1       HT       0.417000       1.00800           0   0.00000       0.00000    
     32953 TIP3     2679     TIP3     H2       HT       0.417000       1.00800           0   0.00000     -0.301140E-02
     32954 TIP3     2680     TIP3     OH2      OT      -0.834000       15.9994           0   0.00000       0.00000    
     32955 TIP3     2680     TIP3     H1       HT       0.417000       1.00800           0   0.00000       0.00000    
     32956 TIP3     2680     TIP3     H2       HT       0.417000       1.00800           0   0.00000     -0.301140E-02
     32957 TIP3     2681     TIP3     OH2      OT      -0.834000       15.9994           0   0.00000       0.00000    
     32958 TIP3     2681     TIP3     H1       HT       0.417000       1.00800           0   0.00000       0.00000    
     32959 TIP3     2681     TIP3     H2       HT       0.417000       1.00800           0   0.00000     -0.301140E-02
     32960 TIP3     2682     TIP3     OH2      OT      -0.834000       15.9994           0   0.00000       0.00000    
     32961 TIP3     2682     TIP3     H1       HT       0.417000       1.00800           0   0.00000       0.00000    
     32962 TIP3     2682     TIP3     H2       HT       0.417000       1.00800           0   0.00000     -0.301140E-02
     32963 TIP3     2683     TIP3     OH2      OT      -0.834000       15.9994           0   0.00000       0.00000    
     32964 TIP3     2683     TIP3     H1       HT       0.417000       1.00800           0   0.00000       0.00000    
     32965 TIP3     2683     TIP3     H2       HT       0.417000       1.00800           0   0.00000     -0.301140E-02
     32966 TIP3     2684     TIP3     OH2      OT      -0.834000       15.9994           0   0.00000       0.00000    
     32967 TIP3     2684     TIP3     H1       HT       0.417000       1.00800           0   0.00000       0.00000    
     32968 TIP3     2684     TIP3     H2       HT       0.417000       1.00800           0   0.00000     -0.301140E-02
     32969 TIP3     2685     TIP3     OH2      OT      -0.834000       15.9994           0   0.00000       0.00000    
     32970 TIP3     2685     TIP3     H1       HT       0.417000       1.00800           0   0.00000       0.00000    
     32971 TIP3     2685     TIP3     H2       HT       0.417000       1.00800           0   0.00000     -0.301140E-02
     32972 TIP3     2686     TIP3     OH2      OT      -0.834000       15.9994           0   0.00000       0.00000    
     32973 TIP3     2686     TIP3     H1       HT       0.417000       1.00800           0   0.00000       0.00000    
     32974 TIP3     2686     TIP3     H2       HT       0.417000       1.00800           0   0.00000     -0.301140E-02
     32975 TIP3     2687     TIP3     OH2      OT      -0.834000       15.9994           0   0.00000       0.00000    
     32976 TIP3     2687     TIP3     H1       HT       0.417000       1.00800           0   0.00000       0.00000    
     32977 TIP3     2687     TIP3     H2       HT       0.417000       1.00800           0   0.00000     -0.301140E-02
     32978 TIP3     2688     TIP3     OH2      OT      -0.834000       15.9994           0   0.00000       0.00000    
     32979 TIP3     2688     TIP3     H1       HT       0.417000       1.00800           0   0.00000       0.00000    
     32980 TIP3     2688     TIP3     H2       HT       0.417000       1.00800           0   0.00000     -0.301140E-02
     32981 TIP3     2689     TIP3     OH2      OT      -0.834000       15.9994           0   0.00000       0.00000    
     32982 TIP3     2689     TIP3     H1       HT       0.417000       1.00800           0   0.00000       0.00000    
     32983 TIP3     2689     TIP3     H2       HT       0.417000       1.00800           0   0.00000     -0.301140E-02
     32984 TIP3     2690     TIP3     OH2      OT      -0.834000       15.9994           0   0.00000       0.00000    
     32985 TIP3     2690     TIP3     H1       HT       0.417000       1.00800           0   0.00000       0.00000    
     32986 TIP3     2690     TIP3     H2       HT       0.417000       1.00800           0   0.00000     -0.301140E-02
     32987 TIP3     2691     TIP3     OH2      OT      -0.834000       15.9994           0   0.00000       0.00000    
     32988 TIP3     2691     TIP3     H1       HT       0.417000       1.00800           0   0.00000       0.00000    
     32989 TIP3     2691     TIP3     H2       HT       0.417000       1.00800           0   0.00000     -0.301140E-02
     32990 TIP3     2692     TIP3     OH2      OT      -0.834000       15.9994           0   0.00000       0.00000    
     32991 TIP3     2692     TIP3     H1       HT       0.417000       1.00800           0   0.00000       0.00000    
     32992 TIP3     2692     TIP3     H2       HT       0.417000       1.00800           0   0.00000     -0.301140E-02
     32993 TIP3     2693     TIP3     OH2      OT      -0.834000       15.9994           0   0.00000       0.00000    
     32994 TIP3     2693     TIP3     H1       HT       0.417000       1.00800           0   0.00000       0.00000    
     32995 TIP3     2693     TIP3     H2       HT       0.417000       1.00800           0   0.00000     -0.301140E-02
     32996 TIP3     2694     TIP3     OH2      OT      -0.834000       15.9994           0   0.00000       0.00000    
     32997 TIP3     2694     TIP3     H1       HT       0.417000       1.00800           0   0.00000       0.00000    
     32998 TIP3     2694     TIP3     H2       HT       0.417000       1.00800           0   0.00000     -0.301140E-02
     32999 TIP3     2695     TIP3     OH2      OT      -0.834000       15.9994           0   0.00000       0.00000    
     33000 TIP3     2695     TIP3     H1       HT       0.417000       1.00800           0   0.00000       0.00000    
     33001 TIP3     2695     TIP3     H2       HT       0.417000       1.00800           0   0.00000     -0.301140E-02
     33002 TIP3     2696     TIP3     OH2      OT      -0.834000       15.9994           0   0.00000       0.00000    
     33003 TIP3     2696     TIP3     H1       HT       0.417000       1.00800           0   0.00000       0.00000    
     33004 TIP3     2696     TIP3     H2       HT       0.417000       1.00800           0   0.00000     -0.301140E-02
     33005 TIP3     2697     TIP3     OH2      OT      -0.834000       15.9994           0   0.00000       0.00000    
     33006 TIP3     2697     TIP3     H1       HT       0.417000       1.00800           0   0.00000       0.00000    
     33007 TIP3     2697     TIP3     H2       HT       0.417000       1.00800           0   0.00000     -0.301140E-02
     33008 TIP3     2698     TIP3     OH2      OT      -0.834000       15.9994           0   0.00000       0.00000    
     33009 TIP3     2698     TIP3     H1       HT       0.417000       1.00800           0   0.00000       0.00000    
     33010 TIP3     2698     TIP3     H2       HT       0.417000       1.00800           0   0.00000     -0.301140E-02
     33011 TIP3     2699     TIP3     OH2      OT      -0.834000       15.9994           0   0.00000       0.00000    
     33012 TIP3     2699     TIP3     H1       HT       0.417000       1.00800           0   0.00000       0.00000    
     33013 TIP3     2699     TIP3     H2       HT       0.417000       1.00800           0   0.00000     -0.301140E-02
     33014 TIP3     2700     TIP3     OH2      OT      -0.834000       15.9994           0   0.00000       0.00000    
     33015 TIP3     2700     TIP3     H1       HT       0.417000       1.00800           0   0.00000       0.00000    
     33016 TIP3     2700     TIP3     H2       HT       0.417000       1.00800           0   0.00000     -0.301140E-02
     33017 TIP3     2701     TIP3     OH2      OT      -0.834000       15.9994           0   0.00000       0.00000    
     33018 TIP3     2701     TIP3     H1       HT       0.417000       1.00800           0   0.00000       0.00000    
     33019 TIP3     2701     TIP3     H2       HT       0.417000       1.00800           0   0.00000     -0.301140E-02
     33020 TIP3     2702     TIP3     OH2      OT      -0.834000       15.9994           0   0.00000       0.00000    
     33021 TIP3     2702     TIP3     H1       HT       0.417000       1.00800           0   0.00000       0.00000    
     33022 TIP3     2702     TIP3     H2       HT       0.417000       1.00800           0   0.00000     -0.301140E-02
     33023 TIP3     2703     TIP3     OH2      OT      -0.834000       15.9994           0   0.00000       0.00000    
     33024 TIP3     2703     TIP3     H1       HT       0.417000       1.00800           0   0.00000       0.00000    
     33025 TIP3     2703     TIP3     H2       HT       0.417000       1.00800           0   0.00000     -0.301140E-02
     33026 TIP3     2704     TIP3     OH2      OT      -0.834000       15.9994           0   0.00000       0.00000    
     33027 TIP3     2704     TIP3     H1       HT       0.417000       1.00800           0   0.00000       0.00000    
     33028 TIP3     2704     TIP3     H2       HT       0.417000       1.00800           0   0.00000     -0.301140E-02
     33029 TIP3     2705     TIP3     OH2      OT      -0.834000       15.9994           0   0.00000       0.00000    
     33030 TIP3     2705     TIP3     H1       HT       0.417000       1.00800           0   0.00000       0.00000    
     33031 TIP3     2705     TIP3     H2       HT       0.417000       1.00800           0   0.00000     -0.301140E-02
     33032 TIP3     2706     TIP3     OH2      OT      -0.834000       15.9994           0   0.00000       0.00000    
     33033 TIP3     2706     TIP3     H1       HT       0.417000       1.00800           0   0.00000       0.00000    
     33034 TIP3     2706     TIP3     H2       HT       0.417000       1.00800           0   0.00000     -0.301140E-02
     33035 TIP3     2707     TIP3     OH2      OT      -0.834000       15.9994           0   0.00000       0.00000    
     33036 TIP3     2707     TIP3     H1       HT       0.417000       1.00800           0   0.00000       0.00000    
     33037 TIP3     2707     TIP3     H2       HT       0.417000       1.00800           0   0.00000     -0.301140E-02
     33038 TIP3     2708     TIP3     OH2      OT      -0.834000       15.9994           0   0.00000       0.00000    
     33039 TIP3     2708     TIP3     H1       HT       0.417000       1.00800           0   0.00000       0.00000    
     33040 TIP3     2708     TIP3     H2       HT       0.417000       1.00800           0   0.00000     -0.301140E-02
     33041 TIP3     2709     TIP3     OH2      OT      -0.834000       15.9994           0   0.00000       0.00000    
     33042 TIP3     2709     TIP3     H1       HT       0.417000       1.00800           0   0.00000       0.00000    
     33043 TIP3     2709     TIP3     H2       HT       0.417000       1.00800           0   0.00000     -0.301140E-02
     33044 TIP3     2710     TIP3     OH2      OT      -0.834000       15.9994           0   0.00000       0.00000    
     33045 TIP3     2710     TIP3     H1       HT       0.417000       1.00800           0   0.00000       0.00000    
     33046 TIP3     2710     TIP3     H2       HT       0.417000       1.00800           0   0.00000     -0.301140E-02
     33047 TIP3     2711     TIP3     OH2      OT      -0.834000       15.9994           0   0.00000       0.00000    
     33048 TIP3     2711     TIP3     H1       HT       0.417000       1.00800           0   0.00000       0.00000    
     33049 TIP3     2711     TIP3     H2       HT       0.417000       1.00800           0   0.00000     -0.301140E-02
     33050 TIP3     2712     TIP3     OH2      OT      -0.834000       15.9994           0   0.00000       0.00000    
     33051 TIP3     2712     TIP3     H1       HT       0.417000       1.00800           0   0.00000       0.00000    
     33052 TIP3     2712     TIP3     H2       HT       0.417000       1.00800           0   0.00000     -0.301140E-02
     33053 TIP3     2713     TIP3     OH2      OT      -0.834000       15.9994           0   0.00000       0.00000    
     33054 TIP3     2713     TIP3     H1       HT       0.417000       1.00800           0   0.00000       0.00000    
     33055 TIP3     2713     TIP3     H2       HT       0.417000       1.00800           0   0.00000     -0.301140E-02
     33056 TIP3     2714     TIP3     OH2      OT      -0.834000       15.9994           0   0.00000       0.00000    
     33057 TIP3     2714     TIP3     H1       HT       0.417000       1.00800           0   0.00000       0.00000    
     33058 TIP3     2714     TIP3     H2       HT       0.417000       1.00800           0   0.00000     -0.301140E-02
     33059 TIP3     2715     TIP3     OH2      OT      -0.834000       15.9994           0   0.00000       0.00000    
     33060 TIP3     2715     TIP3     H1       HT       0.417000       1.00800           0   0.00000       0.00000    
     33061 TIP3     2715     TIP3     H2       HT       0.417000       1.00800           0   0.00000     -0.301140E-02
     33062 TIP3     2716     TIP3     OH2      OT      -0.834000       15.9994           0   0.00000       0.00000    
     33063 TIP3     2716     TIP3     H1       HT       0.417000       1.00800           0   0.00000       0.00000    
     33064 TIP3     2716     TIP3     H2       HT       0.417000       1.00800           0   0.00000     -0.301140E-02
     33065 TIP3     2717     TIP3     OH2      OT      -0.834000       15.9994           0   0.00000       0.00000    
     33066 TIP3     2717     TIP3     H1       HT       0.417000       1.00800           0   0.00000       0.00000    
     33067 TIP3     2717     TIP3     H2       HT       0.417000       1.00800           0   0.00000     -0.301140E-02
     33068 TIP3     2718     TIP3     OH2      OT      -0.834000       15.9994           0   0.00000       0.00000    
     33069 TIP3     2718     TIP3     H1       HT       0.417000       1.00800           0   0.00000       0.00000    
     33070 TIP3     2718     TIP3     H2       HT       0.417000       1.00800           0   0.00000     -0.301140E-02
     33071 TIP3     2719     TIP3     OH2      OT      -0.834000       15.9994           0   0.00000       0.00000    
     33072 TIP3     2719     TIP3     H1       HT       0.417000       1.00800           0   0.00000       0.00000    
     33073 TIP3     2719     TIP3     H2       HT       0.417000       1.00800           0   0.00000     -0.301140E-02
     33074 TIP3     2720     TIP3     OH2      OT      -0.834000       15.9994           0   0.00000       0.00000    
     33075 TIP3     2720     TIP3     H1       HT       0.417000       1.00800           0   0.00000       0.00000    
     33076 TIP3     2720     TIP3     H2       HT       0.417000       1.00800           0   0.00000     -0.301140E-02
     33077 TIP3     2721     TIP3     OH2      OT      -0.834000       15.9994           0   0.00000       0.00000    
     33078 TIP3     2721     TIP3     H1       HT       0.417000       1.00800           0   0.00000       0.00000    
     33079 TIP3     2721     TIP3     H2       HT       0.417000       1.00800           0   0.00000     -0.301140E-02
     33080 TIP3     2722     TIP3     OH2      OT      -0.834000       15.9994           0   0.00000       0.00000    
     33081 TIP3     2722     TIP3     H1       HT       0.417000       1.00800           0   0.00000       0.00000    
     33082 TIP3     2722     TIP3     H2       HT       0.417000       1.00800           0   0.00000     -0.301140E-02
     33083 TIP3     2723     TIP3     OH2      OT      -0.834000       15.9994           0   0.00000       0.00000    
     33084 TIP3     2723     TIP3     H1       HT       0.417000       1.00800           0   0.00000       0.00000    
     33085 TIP3     2723     TIP3     H2       HT       0.417000       1.00800           0   0.00000     -0.301140E-02
     33086 TIP3     2724     TIP3     OH2      OT      -0.834000       15.9994           0   0.00000       0.00000    
     33087 TIP3     2724     TIP3     H1       HT       0.417000       1.00800           0   0.00000       0.00000    
     33088 TIP3     2724     TIP3     H2       HT       0.417000       1.00800           0   0.00000     -0.301140E-02
     33089 TIP3     2725     TIP3     OH2      OT      -0.834000       15.9994           0   0.00000       0.00000    
     33090 TIP3     2725     TIP3     H1       HT       0.417000       1.00800           0   0.00000       0.00000    
     33091 TIP3     2725     TIP3     H2       HT       0.417000       1.00800           0   0.00000     -0.301140E-02
     33092 TIP3     2726     TIP3     OH2      OT      -0.834000       15.9994           0   0.00000       0.00000    
     33093 TIP3     2726     TIP3     H1       HT       0.417000       1.00800           0   0.00000       0.00000    
     33094 TIP3     2726     TIP3     H2       HT       0.417000       1.00800           0   0.00000     -0.301140E-02
     33095 TIP3     2727     TIP3     OH2      OT      -0.834000       15.9994           0   0.00000       0.00000    
     33096 TIP3     2727     TIP3     H1       HT       0.417000       1.00800           0   0.00000       0.00000    
     33097 TIP3     2727     TIP3     H2       HT       0.417000       1.00800           0   0.00000     -0.301140E-02
     33098 TIP3     2728     TIP3     OH2      OT      -0.834000       15.9994           0   0.00000       0.00000    
     33099 TIP3     2728     TIP3     H1       HT       0.417000       1.00800           0   0.00000       0.00000    
     33100 TIP3     2728     TIP3     H2       HT       0.417000       1.00800           0   0.00000     -0.301140E-02
     33101 TIP3     2729     TIP3     OH2      OT      -0.834000       15.9994           0   0.00000       0.00000    
     33102 TIP3     2729     TIP3     H1       HT       0.417000       1.00800           0   0.00000       0.00000    
     33103 TIP3     2729     TIP3     H2       HT       0.417000       1.00800           0   0.00000     -0.301140E-02
     33104 TIP3     2730     TIP3     OH2      OT      -0.834000       15.9994           0   0.00000       0.00000    
     33105 TIP3     2730     TIP3     H1       HT       0.417000       1.00800           0   0.00000       0.00000    
     33106 TIP3     2730     TIP3     H2       HT       0.417000       1.00800           0   0.00000     -0.301140E-02
     33107 TIP3     2731     TIP3     OH2      OT      -0.834000       15.9994           0   0.00000       0.00000    
     33108 TIP3     2731     TIP3     H1       HT       0.417000       1.00800           0   0.00000       0.00000    
     33109 TIP3     2731     TIP3     H2       HT       0.417000       1.00800           0   0.00000     -0.301140E-02
     33110 TIP3     2732     TIP3     OH2      OT      -0.834000       15.9994           0   0.00000       0.00000    
     33111 TIP3     2732     TIP3     H1       HT       0.417000       1.00800           0   0.00000       0.00000    
     33112 TIP3     2732     TIP3     H2       HT       0.417000       1.00800           0   0.00000     -0.301140E-02
     33113 TIP3     2733     TIP3     OH2      OT      -0.834000       15.9994           0   0.00000       0.00000    
     33114 TIP3     2733     TIP3     H1       HT       0.417000       1.00800           0   0.00000       0.00000    
     33115 TIP3     2733     TIP3     H2       HT       0.417000       1.00800           0   0.00000     -0.301140E-02
     33116 TIP3     2734     TIP3     OH2      OT      -0.834000       15.9994           0   0.00000       0.00000    
     33117 TIP3     2734     TIP3     H1       HT       0.417000       1.00800           0   0.00000       0.00000    
     33118 TIP3     2734     TIP3     H2       HT       0.417000       1.00800           0   0.00000     -0.301140E-02
     33119 TIP3     2735     TIP3     OH2      OT      -0.834000       15.9994           0   0.00000       0.00000    
     33120 TIP3     2735     TIP3     H1       HT       0.417000       1.00800           0   0.00000       0.00000    
     33121 TIP3     2735     TIP3     H2       HT       0.417000       1.00800           0   0.00000     -0.301140E-02
     33122 TIP3     2736     TIP3     OH2      OT      -0.834000       15.9994           0   0.00000       0.00000    
     33123 TIP3     2736     TIP3     H1       HT       0.417000       1.00800           0   0.00000       0.00000    
     33124 TIP3     2736     TIP3     H2       HT       0.417000       1.00800           0   0.00000     -0.301140E-02
     33125 TIP3     2737     TIP3     OH2      OT      -0.834000       15.9994           0   0.00000       0.00000    
     33126 TIP3     2737     TIP3     H1       HT       0.417000       1.00800           0   0.00000       0.00000    
     33127 TIP3     2737     TIP3     H2       HT       0.417000       1.00800           0   0.00000     -0.301140E-02
     33128 TIP3     2738     TIP3     OH2      OT      -0.834000       15.9994           0   0.00000       0.00000    
     33129 TIP3     2738     TIP3     H1       HT       0.417000       1.00800           0   0.00000       0.00000    
     33130 TIP3     2738     TIP3     H2       HT       0.417000       1.00800           0   0.00000     -0.301140E-02
     33131 TIP3     2739     TIP3     OH2      OT      -0.834000       15.9994           0   0.00000       0.00000    
     33132 TIP3     2739     TIP3     H1       HT       0.417000       1.00800           0   0.00000       0.00000    
     33133 TIP3     2739     TIP3     H2       HT       0.417000       1.00800           0   0.00000     -0.301140E-02
     33134 TIP3     2740     TIP3     OH2      OT      -0.834000       15.9994           0   0.00000       0.00000    
     33135 TIP3     2740     TIP3     H1       HT       0.417000       1.00800           0   0.00000       0.00000    
     33136 TIP3     2740     TIP3     H2       HT       0.417000       1.00800           0   0.00000     -0.301140E-02
     33137 TIP3     2741     TIP3     OH2      OT      -0.834000       15.9994           0   0.00000       0.00000    
     33138 TIP3     2741     TIP3     H1       HT       0.417000       1.00800           0   0.00000       0.00000    
     33139 TIP3     2741     TIP3     H2       HT       0.417000       1.00800           0   0.00000     -0.301140E-02
     33140 TIP3     2742     TIP3     OH2      OT      -0.834000       15.9994           0   0.00000       0.00000    
     33141 TIP3     2742     TIP3     H1       HT       0.417000       1.00800           0   0.00000       0.00000    
     33142 TIP3     2742     TIP3     H2       HT       0.417000       1.00800           0   0.00000     -0.301140E-02
     33143 TIP3     2743     TIP3     OH2      OT      -0.834000       15.9994           0   0.00000       0.00000    
     33144 TIP3     2743     TIP3     H1       HT       0.417000       1.00800           0   0.00000       0.00000    
     33145 TIP3     2743     TIP3     H2       HT       0.417000       1.00800           0   0.00000     -0.301140E-02
     33146 TIP3     2744     TIP3     OH2      OT      -0.834000       15.9994           0   0.00000       0.00000    
     33147 TIP3     2744     TIP3     H1       HT       0.417000       1.00800           0   0.00000       0.00000    
     33148 TIP3     2744     TIP3     H2       HT       0.417000       1.00800           0   0.00000     -0.301140E-02
     33149 TIP3     2745     TIP3     OH2      OT      -0.834000       15.9994           0   0.00000       0.00000    
     33150 TIP3     2745     TIP3     H1       HT       0.417000       1.00800           0   0.00000       0.00000    
     33151 TIP3     2745     TIP3     H2       HT       0.417000       1.00800           0   0.00000     -0.301140E-02
     33152 TIP3     2746     TIP3     OH2      OT      -0.834000       15.9994           0   0.00000       0.00000    
     33153 TIP3     2746     TIP3     H1       HT       0.417000       1.00800           0   0.00000       0.00000    
     33154 TIP3     2746     TIP3     H2       HT       0.417000       1.00800           0   0.00000     -0.301140E-02
     33155 TIP3     2747     TIP3     OH2      OT      -0.834000       15.9994           0   0.00000       0.00000    
     33156 TIP3     2747     TIP3     H1       HT       0.417000       1.00800           0   0.00000       0.00000    
     33157 TIP3     2747     TIP3     H2       HT       0.417000       1.00800           0   0.00000     -0.301140E-02
     33158 TIP3     2748     TIP3     OH2      OT      -0.834000       15.9994           0   0.00000       0.00000    
     33159 TIP3     2748     TIP3     H1       HT       0.417000       1.00800           0   0.00000       0.00000    
     33160 TIP3     2748     TIP3     H2       HT       0.417000       1.00800           0   0.00000     -0.301140E-02
     33161 TIP3     2749     TIP3     OH2      OT      -0.834000       15.9994           0   0.00000       0.00000    
     33162 TIP3     2749     TIP3     H1       HT       0.417000       1.00800           0   0.00000       0.00000    
     33163 TIP3     2749     TIP3     H2       HT       0.417000       1.00800           0   0.00000     -0.301140E-02
     33164 TIP3     2750     TIP3     OH2      OT      -0.834000       15.9994           0   0.00000       0.00000    
     33165 TIP3     2750     TIP3     H1       HT       0.417000       1.00800           0   0.00000       0.00000    
     33166 TIP3     2750     TIP3     H2       HT       0.417000       1.00800           0   0.00000     -0.301140E-02
     33167 TIP3     2751     TIP3     OH2      OT      -0.834000       15.9994           0   0.00000       0.00000    
     33168 TIP3     2751     TIP3     H1       HT       0.417000       1.00800           0   0.00000       0.00000    
     33169 TIP3     2751     TIP3     H2       HT       0.417000       1.00800           0   0.00000     -0.301140E-02
     33170 TIP3     2752     TIP3     OH2      OT      -0.834000       15.9994           0   0.00000       0.00000    
     33171 TIP3     2752     TIP3     H1       HT       0.417000       1.00800           0   0.00000       0.00000    
     33172 TIP3     2752     TIP3     H2       HT       0.417000       1.00800           0   0.00000     -0.301140E-02
     33173 TIP3     2753     TIP3     OH2      OT      -0.834000       15.9994           0   0.00000       0.00000    
     33174 TIP3     2753     TIP3     H1       HT       0.417000       1.00800           0   0.00000       0.00000    
     33175 TIP3     2753     TIP3     H2       HT       0.417000       1.00800           0   0.00000     -0.301140E-02
     33176 TIP3     2754     TIP3     OH2      OT      -0.834000       15.9994           0   0.00000       0.00000    
     33177 TIP3     2754     TIP3     H1       HT       0.417000       1.00800           0   0.00000       0.00000    
     33178 TIP3     2754     TIP3     H2       HT       0.417000       1.00800           0   0.00000     -0.301140E-02
     33179 TIP3     2755     TIP3     OH2      OT      -0.834000       15.9994           0   0.00000       0.00000    
     33180 TIP3     2755     TIP3     H1       HT       0.417000       1.00800           0   0.00000       0.00000    
     33181 TIP3     2755     TIP3     H2       HT       0.417000       1.00800           0   0.00000     -0.301140E-02
     33182 TIP3     2756     TIP3     OH2      OT      -0.834000       15.9994           0   0.00000       0.00000    
     33183 TIP3     2756     TIP3     H1       HT       0.417000       1.00800           0   0.00000       0.00000    
     33184 TIP3     2756     TIP3     H2       HT       0.417000       1.00800           0   0.00000     -0.301140E-02
     33185 TIP3     2757     TIP3     OH2      OT      -0.834000       15.9994           0   0.00000       0.00000    
     33186 TIP3     2757     TIP3     H1       HT       0.417000       1.00800           0   0.00000       0.00000    
     33187 TIP3     2757     TIP3     H2       HT       0.417000       1.00800           0   0.00000     -0.301140E-02
     33188 TIP3     2758     TIP3     OH2      OT      -0.834000       15.9994           0   0.00000       0.00000    
     33189 TIP3     2758     TIP3     H1       HT       0.417000       1.00800           0   0.00000       0.00000    
     33190 TIP3     2758     TIP3     H2       HT       0.417000       1.00800           0   0.00000     -0.301140E-02
     33191 TIP3     2759     TIP3     OH2      OT      -0.834000       15.9994           0   0.00000       0.00000    
     33192 TIP3     2759     TIP3     H1       HT       0.417000       1.00800           0   0.00000       0.00000    
     33193 TIP3     2759     TIP3     H2       HT       0.417000       1.00800           0   0.00000     -0.301140E-02
     33194 TIP3     2760     TIP3     OH2      OT      -0.834000       15.9994           0   0.00000       0.00000    
     33195 TIP3     2760     TIP3     H1       HT       0.417000       1.00800           0   0.00000       0.00000    
     33196 TIP3     2760     TIP3     H2       HT       0.417000       1.00800           0   0.00000     -0.301140E-02
     33197 TIP3     2761     TIP3     OH2      OT      -0.834000       15.9994           0   0.00000       0.00000    
     33198 TIP3     2761     TIP3     H1       HT       0.417000       1.00800           0   0.00000       0.00000    
     33199 TIP3     2761     TIP3     H2       HT       0.417000       1.00800           0   0.00000     -0.301140E-02
     33200 TIP3     2762     TIP3     OH2      OT      -0.834000       15.9994           0   0.00000       0.00000    
     33201 TIP3     2762     TIP3     H1       HT       0.417000       1.00800           0   0.00000       0.00000    
     33202 TIP3     2762     TIP3     H2       HT       0.417000       1.00800           0   0.00000     -0.301140E-02
     33203 TIP3     2763     TIP3     OH2      OT      -0.834000       15.9994           0   0.00000       0.00000    
     33204 TIP3     2763     TIP3     H1       HT       0.417000       1.00800           0   0.00000       0.00000    
     33205 TIP3     2763     TIP3     H2       HT       0.417000       1.00800           0   0.00000     -0.301140E-02
     33206 TIP3     2764     TIP3     OH2      OT      -0.834000       15.9994           0   0.00000       0.00000    
     33207 TIP3     2764     TIP3     H1       HT       0.417000       1.00800           0   0.00000       0.00000    
     33208 TIP3     2764     TIP3     H2       HT       0.417000       1.00800           0   0.00000     -0.301140E-02
     33209 TIP3     2765     TIP3     OH2      OT      -0.834000       15.9994           0   0.00000       0.00000    
     33210 TIP3     2765     TIP3     H1       HT       0.417000       1.00800           0   0.00000       0.00000    
     33211 TIP3     2765     TIP3     H2       HT       0.417000       1.00800           0   0.00000     -0.301140E-02
     33212 TIP3     2766     TIP3     OH2      OT      -0.834000       15.9994           0   0.00000       0.00000    
     33213 TIP3     2766     TIP3     H1       HT       0.417000       1.00800           0   0.00000       0.00000    
     33214 TIP3     2766     TIP3     H2       HT       0.417000       1.00800           0   0.00000     -0.301140E-02
     33215 TIP3     2767     TIP3     OH2      OT      -0.834000       15.9994           0   0.00000       0.00000    
     33216 TIP3     2767     TIP3     H1       HT       0.417000       1.00800           0   0.00000       0.00000    
     33217 TIP3     2767     TIP3     H2       HT       0.417000       1.00800           0   0.00000     -0.301140E-02
     33218 TIP3     2768     TIP3     OH2      OT      -0.834000       15.9994           0   0.00000       0.00000    
     33219 TIP3     2768     TIP3     H1       HT       0.417000       1.00800           0   0.00000       0.00000    
     33220 TIP3     2768     TIP3     H2       HT       0.417000       1.00800           0   0.00000     -0.301140E-02
     33221 TIP3     2769     TIP3     OH2      OT      -0.834000       15.9994           0   0.00000       0.00000    
     33222 TIP3     2769     TIP3     H1       HT       0.417000       1.00800           0   0.00000       0.00000    
     33223 TIP3     2769     TIP3     H2       HT       0.417000       1.00800           0   0.00000     -0.301140E-02
     33224 TIP3     2770     TIP3     OH2      OT      -0.834000       15.9994           0   0.00000       0.00000    
     33225 TIP3     2770     TIP3     H1       HT       0.417000       1.00800           0   0.00000       0.00000    
     33226 TIP3     2770     TIP3     H2       HT       0.417000       1.00800           0   0.00000     -0.301140E-02
     33227 TIP3     2771     TIP3     OH2      OT      -0.834000       15.9994           0   0.00000       0.00000    
     33228 TIP3     2771     TIP3     H1       HT       0.417000       1.00800           0   0.00000       0.00000    
     33229 TIP3     2771     TIP3     H2       HT       0.417000       1.00800           0   0.00000     -0.301140E-02
     33230 TIP3     2772     TIP3     OH2      OT      -0.834000       15.9994           0   0.00000       0.00000    
     33231 TIP3     2772     TIP3     H1       HT       0.417000       1.00800           0   0.00000       0.00000    
     33232 TIP3     2772     TIP3     H2       HT       0.417000       1.00800           0   0.00000     -0.301140E-02
     33233 TIP3     2773     TIP3     OH2      OT      -0.834000       15.9994           0   0.00000       0.00000    
     33234 TIP3     2773     TIP3     H1       HT       0.417000       1.00800           0   0.00000       0.00000    
     33235 TIP3     2773     TIP3     H2       HT       0.417000       1.00800           0   0.00000     -0.301140E-02
     33236 TIP3     2774     TIP3     OH2      OT      -0.834000       15.9994           0   0.00000       0.00000    
     33237 TIP3     2774     TIP3     H1       HT       0.417000       1.00800           0   0.00000       0.00000    
     33238 TIP3     2774     TIP3     H2       HT       0.417000       1.00800           0   0.00000     -0.301140E-02
     33239 TIP3     2775     TIP3     OH2      OT      -0.834000       15.9994           0   0.00000       0.00000    
     33240 TIP3     2775     TIP3     H1       HT       0.417000       1.00800           0   0.00000       0.00000    
     33241 TIP3     2775     TIP3     H2       HT       0.417000       1.00800           0   0.00000     -0.301140E-02
     33242 TIP3     2776     TIP3     OH2      OT      -0.834000       15.9994           0   0.00000       0.00000    
     33243 TIP3     2776     TIP3     H1       HT       0.417000       1.00800           0   0.00000       0.00000    
     33244 TIP3     2776     TIP3     H2       HT       0.417000       1.00800           0   0.00000     -0.301140E-02
     33245 TIP3     2777     TIP3     OH2      OT      -0.834000       15.9994           0   0.00000       0.00000    
     33246 TIP3     2777     TIP3     H1       HT       0.417000       1.00800           0   0.00000       0.00000    
     33247 TIP3     2777     TIP3     H2       HT       0.417000       1.00800           0   0.00000     -0.301140E-02
     33248 TIP3     2778     TIP3     OH2      OT      -0.834000       15.9994           0   0.00000       0.00000    
     33249 TIP3     2778     TIP3     H1       HT       0.417000       1.00800           0   0.00000       0.00000    
     33250 TIP3     2778     TIP3     H2       HT       0.417000       1.00800           0   0.00000     -0.301140E-02
     33251 TIP3     2779     TIP3     OH2      OT      -0.834000       15.9994           0   0.00000       0.00000    
     33252 TIP3     2779     TIP3     H1       HT       0.417000       1.00800           0   0.00000       0.00000    
     33253 TIP3     2779     TIP3     H2       HT       0.417000       1.00800           0   0.00000     -0.301140E-02
     33254 TIP3     2780     TIP3     OH2      OT      -0.834000       15.9994           0   0.00000       0.00000    
     33255 TIP3     2780     TIP3     H1       HT       0.417000       1.00800           0   0.00000       0.00000    
     33256 TIP3     2780     TIP3     H2       HT       0.417000       1.00800           0   0.00000     -0.301140E-02
     33257 TIP3     2781     TIP3     OH2      OT      -0.834000       15.9994           0   0.00000       0.00000    
     33258 TIP3     2781     TIP3     H1       HT       0.417000       1.00800           0   0.00000       0.00000    
     33259 TIP3     2781     TIP3     H2       HT       0.417000       1.00800           0   0.00000     -0.301140E-02
     33260 TIP3     2782     TIP3     OH2      OT      -0.834000       15.9994           0   0.00000       0.00000    
     33261 TIP3     2782     TIP3     H1       HT       0.417000       1.00800           0   0.00000       0.00000    
     33262 TIP3     2782     TIP3     H2       HT       0.417000       1.00800           0   0.00000     -0.301140E-02
     33263 TIP3     2783     TIP3     OH2      OT      -0.834000       15.9994           0   0.00000       0.00000    
     33264 TIP3     2783     TIP3     H1       HT       0.417000       1.00800           0   0.00000       0.00000    
     33265 TIP3     2783     TIP3     H2       HT       0.417000       1.00800           0   0.00000     -0.301140E-02
     33266 TIP3     2784     TIP3     OH2      OT      -0.834000       15.9994           0   0.00000       0.00000    
     33267 TIP3     2784     TIP3     H1       HT       0.417000       1.00800           0   0.00000       0.00000    
     33268 TIP3     2784     TIP3     H2       HT       0.417000       1.00800           0   0.00000     -0.301140E-02
     33269 TIP3     2785     TIP3     OH2      OT      -0.834000       15.9994           0   0.00000       0.00000    
     33270 TIP3     2785     TIP3     H1       HT       0.417000       1.00800           0   0.00000       0.00000    
     33271 TIP3     2785     TIP3     H2       HT       0.417000       1.00800           0   0.00000     -0.301140E-02
     33272 TIP3     2786     TIP3     OH2      OT      -0.834000       15.9994           0   0.00000       0.00000    
     33273 TIP3     2786     TIP3     H1       HT       0.417000       1.00800           0   0.00000       0.00000    
     33274 TIP3     2786     TIP3     H2       HT       0.417000       1.00800           0   0.00000     -0.301140E-02
     33275 TIP3     2787     TIP3     OH2      OT      -0.834000       15.9994           0   0.00000       0.00000    
     33276 TIP3     2787     TIP3     H1       HT       0.417000       1.00800           0   0.00000       0.00000    
     33277 TIP3     2787     TIP3     H2       HT       0.417000       1.00800           0   0.00000     -0.301140E-02
     33278 TIP3     2788     TIP3     OH2      OT      -0.834000       15.9994           0   0.00000       0.00000    
     33279 TIP3     2788     TIP3     H1       HT       0.417000       1.00800           0   0.00000       0.00000    
     33280 TIP3     2788     TIP3     H2       HT       0.417000       1.00800           0   0.00000     -0.301140E-02
     33281 TIP3     2789     TIP3     OH2      OT      -0.834000       15.9994           0   0.00000       0.00000    
     33282 TIP3     2789     TIP3     H1       HT       0.417000       1.00800           0   0.00000       0.00000    
     33283 TIP3     2789     TIP3     H2       HT       0.417000       1.00800           0   0.00000     -0.301140E-02
     33284 TIP3     2790     TIP3     OH2      OT      -0.834000       15.9994           0   0.00000       0.00000    
     33285 TIP3     2790     TIP3     H1       HT       0.417000       1.00800           0   0.00000       0.00000    
     33286 TIP3     2790     TIP3     H2       HT       0.417000       1.00800           0   0.00000     -0.301140E-02
     33287 TIP3     2791     TIP3     OH2      OT      -0.834000       15.9994           0   0.00000       0.00000    
     33288 TIP3     2791     TIP3     H1       HT       0.417000       1.00800           0   0.00000       0.00000    
     33289 TIP3     2791     TIP3     H2       HT       0.417000       1.00800           0   0.00000     -0.301140E-02
     33290 TIP3     2792     TIP3     OH2      OT      -0.834000       15.9994           0   0.00000       0.00000    
     33291 TIP3     2792     TIP3     H1       HT       0.417000       1.00800           0   0.00000       0.00000    
     33292 TIP3     2792     TIP3     H2       HT       0.417000       1.00800           0   0.00000     -0.301140E-02
     33293 TIP3     2793     TIP3     OH2      OT      -0.834000       15.9994           0   0.00000       0.00000    
     33294 TIP3     2793     TIP3     H1       HT       0.417000       1.00800           0   0.00000       0.00000    
     33295 TIP3     2793     TIP3     H2       HT       0.417000       1.00800           0   0.00000     -0.301140E-02
     33296 TIP3     2794     TIP3     OH2      OT      -0.834000       15.9994           0   0.00000       0.00000    
     33297 TIP3     2794     TIP3     H1       HT       0.417000       1.00800           0   0.00000       0.00000    
     33298 TIP3     2794     TIP3     H2       HT       0.417000       1.00800           0   0.00000     -0.301140E-02
     33299 TIP3     2795     TIP3     OH2      OT      -0.834000       15.9994           0   0.00000       0.00000    
     33300 TIP3     2795     TIP3     H1       HT       0.417000       1.00800           0   0.00000       0.00000    
     33301 TIP3     2795     TIP3     H2       HT       0.417000       1.00800           0   0.00000     -0.301140E-02
     33302 TIP3     2796     TIP3     OH2      OT      -0.834000       15.9994           0   0.00000       0.00000    
     33303 TIP3     2796     TIP3     H1       HT       0.417000       1.00800           0   0.00000       0.00000    
     33304 TIP3     2796     TIP3     H2       HT       0.417000       1.00800           0   0.00000     -0.301140E-02
     33305 TIP3     2797     TIP3     OH2      OT      -0.834000       15.9994           0   0.00000       0.00000    
     33306 TIP3     2797     TIP3     H1       HT       0.417000       1.00800           0   0.00000       0.00000    
     33307 TIP3     2797     TIP3     H2       HT       0.417000       1.00800           0   0.00000     -0.301140E-02
     33308 TIP3     2798     TIP3     OH2      OT      -0.834000       15.9994           0   0.00000       0.00000    
     33309 TIP3     2798     TIP3     H1       HT       0.417000       1.00800           0   0.00000       0.00000    
     33310 TIP3     2798     TIP3     H2       HT       0.417000       1.00800           0   0.00000     -0.301140E-02
     33311 TIP3     2799     TIP3     OH2      OT      -0.834000       15.9994           0   0.00000       0.00000    
     33312 TIP3     2799     TIP3     H1       HT       0.417000       1.00800           0   0.00000       0.00000    
     33313 TIP3     2799     TIP3     H2       HT       0.417000       1.00800           0   0.00000     -0.301140E-02
     33314 TIP3     2800     TIP3     OH2      OT      -0.834000       15.9994           0   0.00000       0.00000    
     33315 TIP3     2800     TIP3     H1       HT       0.417000       1.00800           0   0.00000       0.00000    
     33316 TIP3     2800     TIP3     H2       HT       0.417000       1.00800           0   0.00000     -0.301140E-02
     33317 TIP3     2801     TIP3     OH2      OT      -0.834000       15.9994           0   0.00000       0.00000    
     33318 TIP3     2801     TIP3     H1       HT       0.417000       1.00800           0   0.00000       0.00000    
     33319 TIP3     2801     TIP3     H2       HT       0.417000       1.00800           0   0.00000     -0.301140E-02
     33320 TIP3     2802     TIP3     OH2      OT      -0.834000       15.9994           0   0.00000       0.00000    
     33321 TIP3     2802     TIP3     H1       HT       0.417000       1.00800           0   0.00000       0.00000    
     33322 TIP3     2802     TIP3     H2       HT       0.417000       1.00800           0   0.00000     -0.301140E-02
     33323 TIP3     2803     TIP3     OH2      OT      -0.834000       15.9994           0   0.00000       0.00000    
     33324 TIP3     2803     TIP3     H1       HT       0.417000       1.00800           0   0.00000       0.00000    
     33325 TIP3     2803     TIP3     H2       HT       0.417000       1.00800           0   0.00000     -0.301140E-02
     33326 TIP3     2804     TIP3     OH2      OT      -0.834000       15.9994           0   0.00000       0.00000    
     33327 TIP3     2804     TIP3     H1       HT       0.417000       1.00800           0   0.00000       0.00000    
     33328 TIP3     2804     TIP3     H2       HT       0.417000       1.00800           0   0.00000     -0.301140E-02
     33329 TIP3     2805     TIP3     OH2      OT      -0.834000       15.9994           0   0.00000       0.00000    
     33330 TIP3     2805     TIP3     H1       HT       0.417000       1.00800           0   0.00000       0.00000    
     33331 TIP3     2805     TIP3     H2       HT       0.417000       1.00800           0   0.00000     -0.301140E-02
     33332 TIP3     2806     TIP3     OH2      OT      -0.834000       15.9994           0   0.00000       0.00000    
     33333 TIP3     2806     TIP3     H1       HT       0.417000       1.00800           0   0.00000       0.00000    
     33334 TIP3     2806     TIP3     H2       HT       0.417000       1.00800           0   0.00000     -0.301140E-02
     33335 TIP3     2807     TIP3     OH2      OT      -0.834000       15.9994           0   0.00000       0.00000    
     33336 TIP3     2807     TIP3     H1       HT       0.417000       1.00800           0   0.00000       0.00000    
     33337 TIP3     2807     TIP3     H2       HT       0.417000       1.00800           0   0.00000     -0.301140E-02
     33338 TIP3     2808     TIP3     OH2      OT      -0.834000       15.9994           0   0.00000       0.00000    
     33339 TIP3     2808     TIP3     H1       HT       0.417000       1.00800           0   0.00000       0.00000    
     33340 TIP3     2808     TIP3     H2       HT       0.417000       1.00800           0   0.00000     -0.301140E-02
     33341 TIP3     2809     TIP3     OH2      OT      -0.834000       15.9994           0   0.00000       0.00000    
     33342 TIP3     2809     TIP3     H1       HT       0.417000       1.00800           0   0.00000       0.00000    
     33343 TIP3     2809     TIP3     H2       HT       0.417000       1.00800           0   0.00000     -0.301140E-02
     33344 TIP3     2810     TIP3     OH2      OT      -0.834000       15.9994           0   0.00000       0.00000    
     33345 TIP3     2810     TIP3     H1       HT       0.417000       1.00800           0   0.00000       0.00000    
     33346 TIP3     2810     TIP3     H2       HT       0.417000       1.00800           0   0.00000     -0.301140E-02
     33347 TIP3     2811     TIP3     OH2      OT      -0.834000       15.9994           0   0.00000       0.00000    
     33348 TIP3     2811     TIP3     H1       HT       0.417000       1.00800           0   0.00000       0.00000    
     33349 TIP3     2811     TIP3     H2       HT       0.417000       1.00800           0   0.00000     -0.301140E-02
     33350 TIP3     2812     TIP3     OH2      OT      -0.834000       15.9994           0   0.00000       0.00000    
     33351 TIP3     2812     TIP3     H1       HT       0.417000       1.00800           0   0.00000       0.00000    
     33352 TIP3     2812     TIP3     H2       HT       0.417000       1.00800           0   0.00000     -0.301140E-02
     33353 TIP3     2813     TIP3     OH2      OT      -0.834000       15.9994           0   0.00000       0.00000    
     33354 TIP3     2813     TIP3     H1       HT       0.417000       1.00800           0   0.00000       0.00000    
     33355 TIP3     2813     TIP3     H2       HT       0.417000       1.00800           0   0.00000     -0.301140E-02
     33356 TIP3     2814     TIP3     OH2      OT      -0.834000       15.9994           0   0.00000       0.00000    
     33357 TIP3     2814     TIP3     H1       HT       0.417000       1.00800           0   0.00000       0.00000    
     33358 TIP3     2814     TIP3     H2       HT       0.417000       1.00800           0   0.00000     -0.301140E-02
     33359 TIP3     2815     TIP3     OH2      OT      -0.834000       15.9994           0   0.00000       0.00000    
     33360 TIP3     2815     TIP3     H1       HT       0.417000       1.00800           0   0.00000       0.00000    
     33361 TIP3     2815     TIP3     H2       HT       0.417000       1.00800           0   0.00000     -0.301140E-02
     33362 TIP3     2816     TIP3     OH2      OT      -0.834000       15.9994           0   0.00000       0.00000    
     33363 TIP3     2816     TIP3     H1       HT       0.417000       1.00800           0   0.00000       0.00000    
     33364 TIP3     2816     TIP3     H2       HT       0.417000       1.00800           0   0.00000     -0.301140E-02
     33365 TIP3     2817     TIP3     OH2      OT      -0.834000       15.9994           0   0.00000       0.00000    
     33366 TIP3     2817     TIP3     H1       HT       0.417000       1.00800           0   0.00000       0.00000    
     33367 TIP3     2817     TIP3     H2       HT       0.417000       1.00800           0   0.00000     -0.301140E-02
     33368 TIP3     2818     TIP3     OH2      OT      -0.834000       15.9994           0   0.00000       0.00000    
     33369 TIP3     2818     TIP3     H1       HT       0.417000       1.00800           0   0.00000       0.00000    
     33370 TIP3     2818     TIP3     H2       HT       0.417000       1.00800           0   0.00000     -0.301140E-02
     33371 TIP3     2819     TIP3     OH2      OT      -0.834000       15.9994           0   0.00000       0.00000    
     33372 TIP3     2819     TIP3     H1       HT       0.417000       1.00800           0   0.00000       0.00000    
     33373 TIP3     2819     TIP3     H2       HT       0.417000       1.00800           0   0.00000     -0.301140E-02
     33374 TIP3     2820     TIP3     OH2      OT      -0.834000       15.9994           0   0.00000       0.00000    
     33375 TIP3     2820     TIP3     H1       HT       0.417000       1.00800           0   0.00000       0.00000    
     33376 TIP3     2820     TIP3     H2       HT       0.417000       1.00800           0   0.00000     -0.301140E-02
     33377 TIP3     2821     TIP3     OH2      OT      -0.834000       15.9994           0   0.00000       0.00000    
     33378 TIP3     2821     TIP3     H1       HT       0.417000       1.00800           0   0.00000       0.00000    
     33379 TIP3     2821     TIP3     H2       HT       0.417000       1.00800           0   0.00000     -0.301140E-02
     33380 TIP3     2822     TIP3     OH2      OT      -0.834000       15.9994           0   0.00000       0.00000    
     33381 TIP3     2822     TIP3     H1       HT       0.417000       1.00800           0   0.00000       0.00000    
     33382 TIP3     2822     TIP3     H2       HT       0.417000       1.00800           0   0.00000     -0.301140E-02
     33383 TIP3     2823     TIP3     OH2      OT      -0.834000       15.9994           0   0.00000       0.00000    
     33384 TIP3     2823     TIP3     H1       HT       0.417000       1.00800           0   0.00000       0.00000    
     33385 TIP3     2823     TIP3     H2       HT       0.417000       1.00800           0   0.00000     -0.301140E-02
     33386 TIP3     2824     TIP3     OH2      OT      -0.834000       15.9994           0   0.00000       0.00000    
     33387 TIP3     2824     TIP3     H1       HT       0.417000       1.00800           0   0.00000       0.00000    
     33388 TIP3     2824     TIP3     H2       HT       0.417000       1.00800           0   0.00000     -0.301140E-02
     33389 TIP3     2825     TIP3     OH2      OT      -0.834000       15.9994           0   0.00000       0.00000    
     33390 TIP3     2825     TIP3     H1       HT       0.417000       1.00800           0   0.00000       0.00000    
     33391 TIP3     2825     TIP3     H2       HT       0.417000       1.00800           0   0.00000     -0.301140E-02
     33392 TIP3     2826     TIP3     OH2      OT      -0.834000       15.9994           0   0.00000       0.00000    
     33393 TIP3     2826     TIP3     H1       HT       0.417000       1.00800           0   0.00000       0.00000    
     33394 TIP3     2826     TIP3     H2       HT       0.417000       1.00800           0   0.00000     -0.301140E-02
     33395 TIP3     2827     TIP3     OH2      OT      -0.834000       15.9994           0   0.00000       0.00000    
     33396 TIP3     2827     TIP3     H1       HT       0.417000       1.00800           0   0.00000       0.00000    
     33397 TIP3     2827     TIP3     H2       HT       0.417000       1.00800           0   0.00000     -0.301140E-02
     33398 TIP3     2828     TIP3     OH2      OT      -0.834000       15.9994           0   0.00000       0.00000    
     33399 TIP3     2828     TIP3     H1       HT       0.417000       1.00800           0   0.00000       0.00000    
     33400 TIP3     2828     TIP3     H2       HT       0.417000       1.00800           0   0.00000     -0.301140E-02
     33401 TIP3     2829     TIP3     OH2      OT      -0.834000       15.9994           0   0.00000       0.00000    
     33402 TIP3     2829     TIP3     H1       HT       0.417000       1.00800           0   0.00000       0.00000    
     33403 TIP3     2829     TIP3     H2       HT       0.417000       1.00800           0   0.00000     -0.301140E-02
     33404 TIP3     2830     TIP3     OH2      OT      -0.834000       15.9994           0   0.00000       0.00000    
     33405 TIP3     2830     TIP3     H1       HT       0.417000       1.00800           0   0.00000       0.00000    
     33406 TIP3     2830     TIP3     H2       HT       0.417000       1.00800           0   0.00000     -0.301140E-02
     33407 TIP3     2831     TIP3     OH2      OT      -0.834000       15.9994           0   0.00000       0.00000    
     33408 TIP3     2831     TIP3     H1       HT       0.417000       1.00800           0   0.00000       0.00000    
     33409 TIP3     2831     TIP3     H2       HT       0.417000       1.00800           0   0.00000     -0.301140E-02
     33410 TIP3     2832     TIP3     OH2      OT      -0.834000       15.9994           0   0.00000       0.00000    
     33411 TIP3     2832     TIP3     H1       HT       0.417000       1.00800           0   0.00000       0.00000    
     33412 TIP3     2832     TIP3     H2       HT       0.417000       1.00800           0   0.00000     -0.301140E-02
     33413 TIP3     2833     TIP3     OH2      OT      -0.834000       15.9994           0   0.00000       0.00000    
     33414 TIP3     2833     TIP3     H1       HT       0.417000       1.00800           0   0.00000       0.00000    
     33415 TIP3     2833     TIP3     H2       HT       0.417000       1.00800           0   0.00000     -0.301140E-02
     33416 TIP3     2834     TIP3     OH2      OT      -0.834000       15.9994           0   0.00000       0.00000    
     33417 TIP3     2834     TIP3     H1       HT       0.417000       1.00800           0   0.00000       0.00000    
     33418 TIP3     2834     TIP3     H2       HT       0.417000       1.00800           0   0.00000     -0.301140E-02
     33419 TIP3     2835     TIP3     OH2      OT      -0.834000       15.9994           0   0.00000       0.00000    
     33420 TIP3     2835     TIP3     H1       HT       0.417000       1.00800           0   0.00000       0.00000    
     33421 TIP3     2835     TIP3     H2       HT       0.417000       1.00800           0   0.00000     -0.301140E-02
     33422 TIP3     2836     TIP3     OH2      OT      -0.834000       15.9994           0   0.00000       0.00000    
     33423 TIP3     2836     TIP3     H1       HT       0.417000       1.00800           0   0.00000       0.00000    
     33424 TIP3     2836     TIP3     H2       HT       0.417000       1.00800           0   0.00000     -0.301140E-02
     33425 TIP3     2837     TIP3     OH2      OT      -0.834000       15.9994           0   0.00000       0.00000    
     33426 TIP3     2837     TIP3     H1       HT       0.417000       1.00800           0   0.00000       0.00000    
     33427 TIP3     2837     TIP3     H2       HT       0.417000       1.00800           0   0.00000     -0.301140E-02
     33428 TIP3     2838     TIP3     OH2      OT      -0.834000       15.9994           0   0.00000       0.00000    
     33429 TIP3     2838     TIP3     H1       HT       0.417000       1.00800           0   0.00000       0.00000    
     33430 TIP3     2838     TIP3     H2       HT       0.417000       1.00800           0   0.00000     -0.301140E-02
     33431 TIP3     2839     TIP3     OH2      OT      -0.834000       15.9994           0   0.00000       0.00000    
     33432 TIP3     2839     TIP3     H1       HT       0.417000       1.00800           0   0.00000       0.00000    
     33433 TIP3     2839     TIP3     H2       HT       0.417000       1.00800           0   0.00000     -0.301140E-02
     33434 TIP3     2840     TIP3     OH2      OT      -0.834000       15.9994           0   0.00000       0.00000    
     33435 TIP3     2840     TIP3     H1       HT       0.417000       1.00800           0   0.00000       0.00000    
     33436 TIP3     2840     TIP3     H2       HT       0.417000       1.00800           0   0.00000     -0.301140E-02
     33437 TIP3     2841     TIP3     OH2      OT      -0.834000       15.9994           0   0.00000       0.00000    
     33438 TIP3     2841     TIP3     H1       HT       0.417000       1.00800           0   0.00000       0.00000    
     33439 TIP3     2841     TIP3     H2       HT       0.417000       1.00800           0   0.00000     -0.301140E-02
     33440 TIP3     2842     TIP3     OH2      OT      -0.834000       15.9994           0   0.00000       0.00000    
     33441 TIP3     2842     TIP3     H1       HT       0.417000       1.00800           0   0.00000       0.00000    
     33442 TIP3     2842     TIP3     H2       HT       0.417000       1.00800           0   0.00000     -0.301140E-02
     33443 TIP3     2843     TIP3     OH2      OT      -0.834000       15.9994           0   0.00000       0.00000    
     33444 TIP3     2843     TIP3     H1       HT       0.417000       1.00800           0   0.00000       0.00000    
     33445 TIP3     2843     TIP3     H2       HT       0.417000       1.00800           0   0.00000     -0.301140E-02
     33446 TIP3     2844     TIP3     OH2      OT      -0.834000       15.9994           0   0.00000       0.00000    
     33447 TIP3     2844     TIP3     H1       HT       0.417000       1.00800           0   0.00000       0.00000    
     33448 TIP3     2844     TIP3     H2       HT       0.417000       1.00800           0   0.00000     -0.301140E-02
     33449 TIP3     2845     TIP3     OH2      OT      -0.834000       15.9994           0   0.00000       0.00000    
     33450 TIP3     2845     TIP3     H1       HT       0.417000       1.00800           0   0.00000       0.00000    
     33451 TIP3     2845     TIP3     H2       HT       0.417000       1.00800           0   0.00000     -0.301140E-02
     33452 TIP3     2846     TIP3     OH2      OT      -0.834000       15.9994           0   0.00000       0.00000    
     33453 TIP3     2846     TIP3     H1       HT       0.417000       1.00800           0   0.00000       0.00000    
     33454 TIP3     2846     TIP3     H2       HT       0.417000       1.00800           0   0.00000     -0.301140E-02
     33455 TIP3     2847     TIP3     OH2      OT      -0.834000       15.9994           0   0.00000       0.00000    
     33456 TIP3     2847     TIP3     H1       HT       0.417000       1.00800           0   0.00000       0.00000    
     33457 TIP3     2847     TIP3     H2       HT       0.417000       1.00800           0   0.00000     -0.301140E-02
     33458 TIP3     2848     TIP3     OH2      OT      -0.834000       15.9994           0   0.00000       0.00000    
     33459 TIP3     2848     TIP3     H1       HT       0.417000       1.00800           0   0.00000       0.00000    
     33460 TIP3     2848     TIP3     H2       HT       0.417000       1.00800           0   0.00000     -0.301140E-02
     33461 TIP3     2849     TIP3     OH2      OT      -0.834000       15.9994           0   0.00000       0.00000    
     33462 TIP3     2849     TIP3     H1       HT       0.417000       1.00800           0   0.00000       0.00000    
     33463 TIP3     2849     TIP3     H2       HT       0.417000       1.00800           0   0.00000     -0.301140E-02
     33464 TIP3     2850     TIP3     OH2      OT      -0.834000       15.9994           0   0.00000       0.00000    
     33465 TIP3     2850     TIP3     H1       HT       0.417000       1.00800           0   0.00000       0.00000    
     33466 TIP3     2850     TIP3     H2       HT       0.417000       1.00800           0   0.00000     -0.301140E-02
     33467 TIP3     2851     TIP3     OH2      OT      -0.834000       15.9994           0   0.00000       0.00000    
     33468 TIP3     2851     TIP3     H1       HT       0.417000       1.00800           0   0.00000       0.00000    
     33469 TIP3     2851     TIP3     H2       HT       0.417000       1.00800           0   0.00000     -0.301140E-02
     33470 TIP3     2852     TIP3     OH2      OT      -0.834000       15.9994           0   0.00000       0.00000    
     33471 TIP3     2852     TIP3     H1       HT       0.417000       1.00800           0   0.00000       0.00000    
     33472 TIP3     2852     TIP3     H2       HT       0.417000       1.00800           0   0.00000     -0.301140E-02
     33473 TIP3     2853     TIP3     OH2      OT      -0.834000       15.9994           0   0.00000       0.00000    
     33474 TIP3     2853     TIP3     H1       HT       0.417000       1.00800           0   0.00000       0.00000    
     33475 TIP3     2853     TIP3     H2       HT       0.417000       1.00800           0   0.00000     -0.301140E-02
     33476 TIP3     2854     TIP3     OH2      OT      -0.834000       15.9994           0   0.00000       0.00000    
     33477 TIP3     2854     TIP3     H1       HT       0.417000       1.00800           0   0.00000       0.00000    
     33478 TIP3     2854     TIP3     H2       HT       0.417000       1.00800           0   0.00000     -0.301140E-02
     33479 TIP3     2855     TIP3     OH2      OT      -0.834000       15.9994           0   0.00000       0.00000    
     33480 TIP3     2855     TIP3     H1       HT       0.417000       1.00800           0   0.00000       0.00000    
     33481 TIP3     2855     TIP3     H2       HT       0.417000       1.00800           0   0.00000     -0.301140E-02
     33482 TIP3     2856     TIP3     OH2      OT      -0.834000       15.9994           0   0.00000       0.00000    
     33483 TIP3     2856     TIP3     H1       HT       0.417000       1.00800           0   0.00000       0.00000    
     33484 TIP3     2856     TIP3     H2       HT       0.417000       1.00800           0   0.00000     -0.301140E-02
     33485 TIP3     2857     TIP3     OH2      OT      -0.834000       15.9994           0   0.00000       0.00000    
     33486 TIP3     2857     TIP3     H1       HT       0.417000       1.00800           0   0.00000       0.00000    
     33487 TIP3     2857     TIP3     H2       HT       0.417000       1.00800           0   0.00000     -0.301140E-02
     33488 TIP3     2858     TIP3     OH2      OT      -0.834000       15.9994           0   0.00000       0.00000    
     33489 TIP3     2858     TIP3     H1       HT       0.417000       1.00800           0   0.00000       0.00000    
     33490 TIP3     2858     TIP3     H2       HT       0.417000       1.00800           0   0.00000     -0.301140E-02
     33491 TIP3     2859     TIP3     OH2      OT      -0.834000       15.9994           0   0.00000       0.00000    
     33492 TIP3     2859     TIP3     H1       HT       0.417000       1.00800           0   0.00000       0.00000    
     33493 TIP3     2859     TIP3     H2       HT       0.417000       1.00800           0   0.00000     -0.301140E-02
     33494 TIP3     2860     TIP3     OH2      OT      -0.834000       15.9994           0   0.00000       0.00000    
     33495 TIP3     2860     TIP3     H1       HT       0.417000       1.00800           0   0.00000       0.00000    
     33496 TIP3     2860     TIP3     H2       HT       0.417000       1.00800           0   0.00000     -0.301140E-02
     33497 TIP3     2861     TIP3     OH2      OT      -0.834000       15.9994           0   0.00000       0.00000    
     33498 TIP3     2861     TIP3     H1       HT       0.417000       1.00800           0   0.00000       0.00000    
     33499 TIP3     2861     TIP3     H2       HT       0.417000       1.00800           0   0.00000     -0.301140E-02
     33500 TIP3     2862     TIP3     OH2      OT      -0.834000       15.9994           0   0.00000       0.00000    
     33501 TIP3     2862     TIP3     H1       HT       0.417000       1.00800           0   0.00000       0.00000    
     33502 TIP3     2862     TIP3     H2       HT       0.417000       1.00800           0   0.00000     -0.301140E-02
     33503 TIP3     2863     TIP3     OH2      OT      -0.834000       15.9994           0   0.00000       0.00000    
     33504 TIP3     2863     TIP3     H1       HT       0.417000       1.00800           0   0.00000       0.00000    
     33505 TIP3     2863     TIP3     H2       HT       0.417000       1.00800           0   0.00000     -0.301140E-02
     33506 TIP3     2864     TIP3     OH2      OT      -0.834000       15.9994           0   0.00000       0.00000    
     33507 TIP3     2864     TIP3     H1       HT       0.417000       1.00800           0   0.00000       0.00000    
     33508 TIP3     2864     TIP3     H2       HT       0.417000       1.00800           0   0.00000     -0.301140E-02
     33509 TIP3     2865     TIP3     OH2      OT      -0.834000       15.9994           0   0.00000       0.00000    
     33510 TIP3     2865     TIP3     H1       HT       0.417000       1.00800           0   0.00000       0.00000    
     33511 TIP3     2865     TIP3     H2       HT       0.417000       1.00800           0   0.00000     -0.301140E-02
     33512 TIP3     2866     TIP3     OH2      OT      -0.834000       15.9994           0   0.00000       0.00000    
     33513 TIP3     2866     TIP3     H1       HT       0.417000       1.00800           0   0.00000       0.00000    
     33514 TIP3     2866     TIP3     H2       HT       0.417000       1.00800           0   0.00000     -0.301140E-02
     33515 TIP3     2867     TIP3     OH2      OT      -0.834000       15.9994           0   0.00000       0.00000    
     33516 TIP3     2867     TIP3     H1       HT       0.417000       1.00800           0   0.00000       0.00000    
     33517 TIP3     2867     TIP3     H2       HT       0.417000       1.00800           0   0.00000     -0.301140E-02
     33518 TIP3     2868     TIP3     OH2      OT      -0.834000       15.9994           0   0.00000       0.00000    
     33519 TIP3     2868     TIP3     H1       HT       0.417000       1.00800           0   0.00000       0.00000    
     33520 TIP3     2868     TIP3     H2       HT       0.417000       1.00800           0   0.00000     -0.301140E-02
     33521 TIP3     2869     TIP3     OH2      OT      -0.834000       15.9994           0   0.00000       0.00000    
     33522 TIP3     2869     TIP3     H1       HT       0.417000       1.00800           0   0.00000       0.00000    
     33523 TIP3     2869     TIP3     H2       HT       0.417000       1.00800           0   0.00000     -0.301140E-02
     33524 TIP3     2870     TIP3     OH2      OT      -0.834000       15.9994           0   0.00000       0.00000    
     33525 TIP3     2870     TIP3     H1       HT       0.417000       1.00800           0   0.00000       0.00000    
     33526 TIP3     2870     TIP3     H2       HT       0.417000       1.00800           0   0.00000     -0.301140E-02
     33527 TIP3     2871     TIP3     OH2      OT      -0.834000       15.9994           0   0.00000       0.00000    
     33528 TIP3     2871     TIP3     H1       HT       0.417000       1.00800           0   0.00000       0.00000    
     33529 TIP3     2871     TIP3     H2       HT       0.417000       1.00800           0   0.00000     -0.301140E-02
     33530 TIP3     2872     TIP3     OH2      OT      -0.834000       15.9994           0   0.00000       0.00000    
     33531 TIP3     2872     TIP3     H1       HT       0.417000       1.00800           0   0.00000       0.00000    
     33532 TIP3     2872     TIP3     H2       HT       0.417000       1.00800           0   0.00000     -0.301140E-02
     33533 TIP3     2873     TIP3     OH2      OT      -0.834000       15.9994           0   0.00000       0.00000    
     33534 TIP3     2873     TIP3     H1       HT       0.417000       1.00800           0   0.00000       0.00000    
     33535 TIP3     2873     TIP3     H2       HT       0.417000       1.00800           0   0.00000     -0.301140E-02
     33536 TIP3     2874     TIP3     OH2      OT      -0.834000       15.9994           0   0.00000       0.00000    
     33537 TIP3     2874     TIP3     H1       HT       0.417000       1.00800           0   0.00000       0.00000    
     33538 TIP3     2874     TIP3     H2       HT       0.417000       1.00800           0   0.00000     -0.301140E-02
     33539 TIP3     2875     TIP3     OH2      OT      -0.834000       15.9994           0   0.00000       0.00000    
     33540 TIP3     2875     TIP3     H1       HT       0.417000       1.00800           0   0.00000       0.00000    
     33541 TIP3     2875     TIP3     H2       HT       0.417000       1.00800           0   0.00000     -0.301140E-02
     33542 TIP3     2876     TIP3     OH2      OT      -0.834000       15.9994           0   0.00000       0.00000    
     33543 TIP3     2876     TIP3     H1       HT       0.417000       1.00800           0   0.00000       0.00000    
     33544 TIP3     2876     TIP3     H2       HT       0.417000       1.00800           0   0.00000     -0.301140E-02
     33545 TIP3     2877     TIP3     OH2      OT      -0.834000       15.9994           0   0.00000       0.00000    
     33546 TIP3     2877     TIP3     H1       HT       0.417000       1.00800           0   0.00000       0.00000    
     33547 TIP3     2877     TIP3     H2       HT       0.417000       1.00800           0   0.00000     -0.301140E-02
     33548 TIP3     2878     TIP3     OH2      OT      -0.834000       15.9994           0   0.00000       0.00000    
     33549 TIP3     2878     TIP3     H1       HT       0.417000       1.00800           0   0.00000       0.00000    
     33550 TIP3     2878     TIP3     H2       HT       0.417000       1.00800           0   0.00000     -0.301140E-02
     33551 TIP3     2879     TIP3     OH2      OT      -0.834000       15.9994           0   0.00000       0.00000    
     33552 TIP3     2879     TIP3     H1       HT       0.417000       1.00800           0   0.00000       0.00000    
     33553 TIP3     2879     TIP3     H2       HT       0.417000       1.00800           0   0.00000     -0.301140E-02
     33554 TIP3     2880     TIP3     OH2      OT      -0.834000       15.9994           0   0.00000       0.00000    
     33555 TIP3     2880     TIP3     H1       HT       0.417000       1.00800           0   0.00000       0.00000    
     33556 TIP3     2880     TIP3     H2       HT       0.417000       1.00800           0   0.00000     -0.301140E-02
     33557 TIP3     2881     TIP3     OH2      OT      -0.834000       15.9994           0   0.00000       0.00000    
     33558 TIP3     2881     TIP3     H1       HT       0.417000       1.00800           0   0.00000       0.00000    
     33559 TIP3     2881     TIP3     H2       HT       0.417000       1.00800           0   0.00000     -0.301140E-02
     33560 TIP3     2882     TIP3     OH2      OT      -0.834000       15.9994           0   0.00000       0.00000    
     33561 TIP3     2882     TIP3     H1       HT       0.417000       1.00800           0   0.00000       0.00000    
     33562 TIP3     2882     TIP3     H2       HT       0.417000       1.00800           0   0.00000     -0.301140E-02
     33563 TIP3     2883     TIP3     OH2      OT      -0.834000       15.9994           0   0.00000       0.00000    
     33564 TIP3     2883     TIP3     H1       HT       0.417000       1.00800           0   0.00000       0.00000    
     33565 TIP3     2883     TIP3     H2       HT       0.417000       1.00800           0   0.00000     -0.301140E-02
     33566 TIP3     2884     TIP3     OH2      OT      -0.834000       15.9994           0   0.00000       0.00000    
     33567 TIP3     2884     TIP3     H1       HT       0.417000       1.00800           0   0.00000       0.00000    
     33568 TIP3     2884     TIP3     H2       HT       0.417000       1.00800           0   0.00000     -0.301140E-02
     33569 TIP3     2885     TIP3     OH2      OT      -0.834000       15.9994           0   0.00000       0.00000    
     33570 TIP3     2885     TIP3     H1       HT       0.417000       1.00800           0   0.00000       0.00000    
     33571 TIP3     2885     TIP3     H2       HT       0.417000       1.00800           0   0.00000     -0.301140E-02
     33572 TIP3     2886     TIP3     OH2      OT      -0.834000       15.9994           0   0.00000       0.00000    
     33573 TIP3     2886     TIP3     H1       HT       0.417000       1.00800           0   0.00000       0.00000    
     33574 TIP3     2886     TIP3     H2       HT       0.417000       1.00800           0   0.00000     -0.301140E-02
     33575 TIP3     2887     TIP3     OH2      OT      -0.834000       15.9994           0   0.00000       0.00000    
     33576 TIP3     2887     TIP3     H1       HT       0.417000       1.00800           0   0.00000       0.00000    
     33577 TIP3     2887     TIP3     H2       HT       0.417000       1.00800           0   0.00000     -0.301140E-02
     33578 TIP3     2888     TIP3     OH2      OT      -0.834000       15.9994           0   0.00000       0.00000    
     33579 TIP3     2888     TIP3     H1       HT       0.417000       1.00800           0   0.00000       0.00000    
     33580 TIP3     2888     TIP3     H2       HT       0.417000       1.00800           0   0.00000     -0.301140E-02
     33581 TIP3     2889     TIP3     OH2      OT      -0.834000       15.9994           0   0.00000       0.00000    
     33582 TIP3     2889     TIP3     H1       HT       0.417000       1.00800           0   0.00000       0.00000    
     33583 TIP3     2889     TIP3     H2       HT       0.417000       1.00800           0   0.00000     -0.301140E-02
     33584 TIP3     2890     TIP3     OH2      OT      -0.834000       15.9994           0   0.00000       0.00000    
     33585 TIP3     2890     TIP3     H1       HT       0.417000       1.00800           0   0.00000       0.00000    
     33586 TIP3     2890     TIP3     H2       HT       0.417000       1.00800           0   0.00000     -0.301140E-02
     33587 TIP3     2891     TIP3     OH2      OT      -0.834000       15.9994           0   0.00000       0.00000    
     33588 TIP3     2891     TIP3     H1       HT       0.417000       1.00800           0   0.00000       0.00000    
     33589 TIP3     2891     TIP3     H2       HT       0.417000       1.00800           0   0.00000     -0.301140E-02
     33590 TIP3     2892     TIP3     OH2      OT      -0.834000       15.9994           0   0.00000       0.00000    
     33591 TIP3     2892     TIP3     H1       HT       0.417000       1.00800           0   0.00000       0.00000    
     33592 TIP3     2892     TIP3     H2       HT       0.417000       1.00800           0   0.00000     -0.301140E-02
     33593 TIP3     2893     TIP3     OH2      OT      -0.834000       15.9994           0   0.00000       0.00000    
     33594 TIP3     2893     TIP3     H1       HT       0.417000       1.00800           0   0.00000       0.00000    
     33595 TIP3     2893     TIP3     H2       HT       0.417000       1.00800           0   0.00000     -0.301140E-02
     33596 TIP3     2894     TIP3     OH2      OT      -0.834000       15.9994           0   0.00000       0.00000    
     33597 TIP3     2894     TIP3     H1       HT       0.417000       1.00800           0   0.00000       0.00000    
     33598 TIP3     2894     TIP3     H2       HT       0.417000       1.00800           0   0.00000     -0.301140E-02
     33599 TIP3     2895     TIP3     OH2      OT      -0.834000       15.9994           0   0.00000       0.00000    
     33600 TIP3     2895     TIP3     H1       HT       0.417000       1.00800           0   0.00000       0.00000    
     33601 TIP3     2895     TIP3     H2       HT       0.417000       1.00800           0   0.00000     -0.301140E-02
     33602 TIP3     2896     TIP3     OH2      OT      -0.834000       15.9994           0   0.00000       0.00000    
     33603 TIP3     2896     TIP3     H1       HT       0.417000       1.00800           0   0.00000       0.00000    
     33604 TIP3     2896     TIP3     H2       HT       0.417000       1.00800           0   0.00000     -0.301140E-02
     33605 TIP3     2897     TIP3     OH2      OT      -0.834000       15.9994           0   0.00000       0.00000    
     33606 TIP3     2897     TIP3     H1       HT       0.417000       1.00800           0   0.00000       0.00000    
     33607 TIP3     2897     TIP3     H2       HT       0.417000       1.00800           0   0.00000     -0.301140E-02
     33608 TIP3     2898     TIP3     OH2      OT      -0.834000       15.9994           0   0.00000       0.00000    
     33609 TIP3     2898     TIP3     H1       HT       0.417000       1.00800           0   0.00000       0.00000    
     33610 TIP3     2898     TIP3     H2       HT       0.417000       1.00800           0   0.00000     -0.301140E-02
     33611 TIP3     2899     TIP3     OH2      OT      -0.834000       15.9994           0   0.00000       0.00000    
     33612 TIP3     2899     TIP3     H1       HT       0.417000       1.00800           0   0.00000       0.00000    
     33613 TIP3     2899     TIP3     H2       HT       0.417000       1.00800           0   0.00000     -0.301140E-02
     33614 TIP3     2900     TIP3     OH2      OT      -0.834000       15.9994           0   0.00000       0.00000    
     33615 TIP3     2900     TIP3     H1       HT       0.417000       1.00800           0   0.00000       0.00000    
     33616 TIP3     2900     TIP3     H2       HT       0.417000       1.00800           0   0.00000     -0.301140E-02
     33617 TIP3     2901     TIP3     OH2      OT      -0.834000       15.9994           0   0.00000       0.00000    
     33618 TIP3     2901     TIP3     H1       HT       0.417000       1.00800           0   0.00000       0.00000    
     33619 TIP3     2901     TIP3     H2       HT       0.417000       1.00800           0   0.00000     -0.301140E-02
     33620 TIP3     2902     TIP3     OH2      OT      -0.834000       15.9994           0   0.00000       0.00000    
     33621 TIP3     2902     TIP3     H1       HT       0.417000       1.00800           0   0.00000       0.00000    
     33622 TIP3     2902     TIP3     H2       HT       0.417000       1.00800           0   0.00000     -0.301140E-02
     33623 TIP3     2903     TIP3     OH2      OT      -0.834000       15.9994           0   0.00000       0.00000    
     33624 TIP3     2903     TIP3     H1       HT       0.417000       1.00800           0   0.00000       0.00000    
     33625 TIP3     2903     TIP3     H2       HT       0.417000       1.00800           0   0.00000     -0.301140E-02
     33626 TIP3     2904     TIP3     OH2      OT      -0.834000       15.9994           0   0.00000       0.00000    
     33627 TIP3     2904     TIP3     H1       HT       0.417000       1.00800           0   0.00000       0.00000    
     33628 TIP3     2904     TIP3     H2       HT       0.417000       1.00800           0   0.00000     -0.301140E-02
     33629 TIP3     2905     TIP3     OH2      OT      -0.834000       15.9994           0   0.00000       0.00000    
     33630 TIP3     2905     TIP3     H1       HT       0.417000       1.00800           0   0.00000       0.00000    
     33631 TIP3     2905     TIP3     H2       HT       0.417000       1.00800           0   0.00000     -0.301140E-02
     33632 TIP3     2906     TIP3     OH2      OT      -0.834000       15.9994           0   0.00000       0.00000    
     33633 TIP3     2906     TIP3     H1       HT       0.417000       1.00800           0   0.00000       0.00000    
     33634 TIP3     2906     TIP3     H2       HT       0.417000       1.00800           0   0.00000     -0.301140E-02
     33635 TIP3     2907     TIP3     OH2      OT      -0.834000       15.9994           0   0.00000       0.00000    
     33636 TIP3     2907     TIP3     H1       HT       0.417000       1.00800           0   0.00000       0.00000    
     33637 TIP3     2907     TIP3     H2       HT       0.417000       1.00800           0   0.00000     -0.301140E-02
     33638 TIP3     2908     TIP3     OH2      OT      -0.834000       15.9994           0   0.00000       0.00000    
     33639 TIP3     2908     TIP3     H1       HT       0.417000       1.00800           0   0.00000       0.00000    
     33640 TIP3     2908     TIP3     H2       HT       0.417000       1.00800           0   0.00000     -0.301140E-02
     33641 TIP3     2909     TIP3     OH2      OT      -0.834000       15.9994           0   0.00000       0.00000    
     33642 TIP3     2909     TIP3     H1       HT       0.417000       1.00800           0   0.00000       0.00000    
     33643 TIP3     2909     TIP3     H2       HT       0.417000       1.00800           0   0.00000     -0.301140E-02
     33644 TIP3     2910     TIP3     OH2      OT      -0.834000       15.9994           0   0.00000       0.00000    
     33645 TIP3     2910     TIP3     H1       HT       0.417000       1.00800           0   0.00000       0.00000    
     33646 TIP3     2910     TIP3     H2       HT       0.417000       1.00800           0   0.00000     -0.301140E-02
     33647 TIP3     2911     TIP3     OH2      OT      -0.834000       15.9994           0   0.00000       0.00000    
     33648 TIP3     2911     TIP3     H1       HT       0.417000       1.00800           0   0.00000       0.00000    
     33649 TIP3     2911     TIP3     H2       HT       0.417000       1.00800           0   0.00000     -0.301140E-02
     33650 TIP3     2912     TIP3     OH2      OT      -0.834000       15.9994           0   0.00000       0.00000    
     33651 TIP3     2912     TIP3     H1       HT       0.417000       1.00800           0   0.00000       0.00000    
     33652 TIP3     2912     TIP3     H2       HT       0.417000       1.00800           0   0.00000     -0.301140E-02
     33653 TIP3     2913     TIP3     OH2      OT      -0.834000       15.9994           0   0.00000       0.00000    
     33654 TIP3     2913     TIP3     H1       HT       0.417000       1.00800           0   0.00000       0.00000    
     33655 TIP3     2913     TIP3     H2       HT       0.417000       1.00800           0   0.00000     -0.301140E-02
     33656 TIP3     2914     TIP3     OH2      OT      -0.834000       15.9994           0   0.00000       0.00000    
     33657 TIP3     2914     TIP3     H1       HT       0.417000       1.00800           0   0.00000       0.00000    
     33658 TIP3     2914     TIP3     H2       HT       0.417000       1.00800           0   0.00000     -0.301140E-02
     33659 TIP3     2915     TIP3     OH2      OT      -0.834000       15.9994           0   0.00000       0.00000    
     33660 TIP3     2915     TIP3     H1       HT       0.417000       1.00800           0   0.00000       0.00000    
     33661 TIP3     2915     TIP3     H2       HT       0.417000       1.00800           0   0.00000     -0.301140E-02
     33662 TIP3     2916     TIP3     OH2      OT      -0.834000       15.9994           0   0.00000       0.00000    
     33663 TIP3     2916     TIP3     H1       HT       0.417000       1.00800           0   0.00000       0.00000    
     33664 TIP3     2916     TIP3     H2       HT       0.417000       1.00800           0   0.00000     -0.301140E-02
     33665 TIP3     2917     TIP3     OH2      OT      -0.834000       15.9994           0   0.00000       0.00000    
     33666 TIP3     2917     TIP3     H1       HT       0.417000       1.00800           0   0.00000       0.00000    
     33667 TIP3     2917     TIP3     H2       HT       0.417000       1.00800           0   0.00000     -0.301140E-02
     33668 TIP3     2918     TIP3     OH2      OT      -0.834000       15.9994           0   0.00000       0.00000    
     33669 TIP3     2918     TIP3     H1       HT       0.417000       1.00800           0   0.00000       0.00000    
     33670 TIP3     2918     TIP3     H2       HT       0.417000       1.00800           0   0.00000     -0.301140E-02
     33671 TIP3     2919     TIP3     OH2      OT      -0.834000       15.9994           0   0.00000       0.00000    
     33672 TIP3     2919     TIP3     H1       HT       0.417000       1.00800           0   0.00000       0.00000    
     33673 TIP3     2919     TIP3     H2       HT       0.417000       1.00800           0   0.00000     -0.301140E-02
     33674 TIP3     2920     TIP3     OH2      OT      -0.834000       15.9994           0   0.00000       0.00000    
     33675 TIP3     2920     TIP3     H1       HT       0.417000       1.00800           0   0.00000       0.00000    
     33676 TIP3     2920     TIP3     H2       HT       0.417000       1.00800           0   0.00000     -0.301140E-02
     33677 TIP3     2921     TIP3     OH2      OT      -0.834000       15.9994           0   0.00000       0.00000    
     33678 TIP3     2921     TIP3     H1       HT       0.417000       1.00800           0   0.00000       0.00000    
     33679 TIP3     2921     TIP3     H2       HT       0.417000       1.00800           0   0.00000     -0.301140E-02
     33680 TIP3     2922     TIP3     OH2      OT      -0.834000       15.9994           0   0.00000       0.00000    
     33681 TIP3     2922     TIP3     H1       HT       0.417000       1.00800           0   0.00000       0.00000    
     33682 TIP3     2922     TIP3     H2       HT       0.417000       1.00800           0   0.00000     -0.301140E-02
     33683 TIP3     2923     TIP3     OH2      OT      -0.834000       15.9994           0   0.00000       0.00000    
     33684 TIP3     2923     TIP3     H1       HT       0.417000       1.00800           0   0.00000       0.00000    
     33685 TIP3     2923     TIP3     H2       HT       0.417000       1.00800           0   0.00000     -0.301140E-02
     33686 TIP3     2924     TIP3     OH2      OT      -0.834000       15.9994           0   0.00000       0.00000    
     33687 TIP3     2924     TIP3     H1       HT       0.417000       1.00800           0   0.00000       0.00000    
     33688 TIP3     2924     TIP3     H2       HT       0.417000       1.00800           0   0.00000     -0.301140E-02
     33689 TIP3     2925     TIP3     OH2      OT      -0.834000       15.9994           0   0.00000       0.00000    
     33690 TIP3     2925     TIP3     H1       HT       0.417000       1.00800           0   0.00000       0.00000    
     33691 TIP3     2925     TIP3     H2       HT       0.417000       1.00800           0   0.00000     -0.301140E-02
     33692 TIP3     2926     TIP3     OH2      OT      -0.834000       15.9994           0   0.00000       0.00000    
     33693 TIP3     2926     TIP3     H1       HT       0.417000       1.00800           0   0.00000       0.00000    
     33694 TIP3     2926     TIP3     H2       HT       0.417000       1.00800           0   0.00000     -0.301140E-02
     33695 TIP3     2927     TIP3     OH2      OT      -0.834000       15.9994           0   0.00000       0.00000    
     33696 TIP3     2927     TIP3     H1       HT       0.417000       1.00800           0   0.00000       0.00000    
     33697 TIP3     2927     TIP3     H2       HT       0.417000       1.00800           0   0.00000     -0.301140E-02
     33698 TIP3     2928     TIP3     OH2      OT      -0.834000       15.9994           0   0.00000       0.00000    
     33699 TIP3     2928     TIP3     H1       HT       0.417000       1.00800           0   0.00000       0.00000    
     33700 TIP3     2928     TIP3     H2       HT       0.417000       1.00800           0   0.00000     -0.301140E-02
     33701 TIP3     2929     TIP3     OH2      OT      -0.834000       15.9994           0   0.00000       0.00000    
     33702 TIP3     2929     TIP3     H1       HT       0.417000       1.00800           0   0.00000       0.00000    
     33703 TIP3     2929     TIP3     H2       HT       0.417000       1.00800           0   0.00000     -0.301140E-02
     33704 TIP3     2930     TIP3     OH2      OT      -0.834000       15.9994           0   0.00000       0.00000    
     33705 TIP3     2930     TIP3     H1       HT       0.417000       1.00800           0   0.00000       0.00000    
     33706 TIP3     2930     TIP3     H2       HT       0.417000       1.00800           0   0.00000     -0.301140E-02
     33707 TIP3     2931     TIP3     OH2      OT      -0.834000       15.9994           0   0.00000       0.00000    
     33708 TIP3     2931     TIP3     H1       HT       0.417000       1.00800           0   0.00000       0.00000    
     33709 TIP3     2931     TIP3     H2       HT       0.417000       1.00800           0   0.00000     -0.301140E-02
     33710 TIP3     2932     TIP3     OH2      OT      -0.834000       15.9994           0   0.00000       0.00000    
     33711 TIP3     2932     TIP3     H1       HT       0.417000       1.00800           0   0.00000       0.00000    
     33712 TIP3     2932     TIP3     H2       HT       0.417000       1.00800           0   0.00000     -0.301140E-02
     33713 TIP3     2933     TIP3     OH2      OT      -0.834000       15.9994           0   0.00000       0.00000    
     33714 TIP3     2933     TIP3     H1       HT       0.417000       1.00800           0   0.00000       0.00000    
     33715 TIP3     2933     TIP3     H2       HT       0.417000       1.00800           0   0.00000     -0.301140E-02
     33716 TIP3     2934     TIP3     OH2      OT      -0.834000       15.9994           0   0.00000       0.00000    
     33717 TIP3     2934     TIP3     H1       HT       0.417000       1.00800           0   0.00000       0.00000    
     33718 TIP3     2934     TIP3     H2       HT       0.417000       1.00800           0   0.00000     -0.301140E-02
     33719 TIP3     2935     TIP3     OH2      OT      -0.834000       15.9994           0   0.00000       0.00000    
     33720 TIP3     2935     TIP3     H1       HT       0.417000       1.00800           0   0.00000       0.00000    
     33721 TIP3     2935     TIP3     H2       HT       0.417000       1.00800           0   0.00000     -0.301140E-02
     33722 TIP3     2936     TIP3     OH2      OT      -0.834000       15.9994           0   0.00000       0.00000    
     33723 TIP3     2936     TIP3     H1       HT       0.417000       1.00800           0   0.00000       0.00000    
     33724 TIP3     2936     TIP3     H2       HT       0.417000       1.00800           0   0.00000     -0.301140E-02
     33725 TIP3     2937     TIP3     OH2      OT      -0.834000       15.9994           0   0.00000       0.00000    
     33726 TIP3     2937     TIP3     H1       HT       0.417000       1.00800           0   0.00000       0.00000    
     33727 TIP3     2937     TIP3     H2       HT       0.417000       1.00800           0   0.00000     -0.301140E-02
     33728 TIP3     2938     TIP3     OH2      OT      -0.834000       15.9994           0   0.00000       0.00000    
     33729 TIP3     2938     TIP3     H1       HT       0.417000       1.00800           0   0.00000       0.00000    
     33730 TIP3     2938     TIP3     H2       HT       0.417000       1.00800           0   0.00000     -0.301140E-02
     33731 TIP3     2939     TIP3     OH2      OT      -0.834000       15.9994           0   0.00000       0.00000    
     33732 TIP3     2939     TIP3     H1       HT       0.417000       1.00800           0   0.00000       0.00000    
     33733 TIP3     2939     TIP3     H2       HT       0.417000       1.00800           0   0.00000     -0.301140E-02
     33734 TIP3     2940     TIP3     OH2      OT      -0.834000       15.9994           0   0.00000       0.00000    
     33735 TIP3     2940     TIP3     H1       HT       0.417000       1.00800           0   0.00000       0.00000    
     33736 TIP3     2940     TIP3     H2       HT       0.417000       1.00800           0   0.00000     -0.301140E-02
     33737 TIP3     2941     TIP3     OH2      OT      -0.834000       15.9994           0   0.00000       0.00000    
     33738 TIP3     2941     TIP3     H1       HT       0.417000       1.00800           0   0.00000       0.00000    
     33739 TIP3     2941     TIP3     H2       HT       0.417000       1.00800           0   0.00000     -0.301140E-02
     33740 TIP3     2942     TIP3     OH2      OT      -0.834000       15.9994           0   0.00000       0.00000    
     33741 TIP3     2942     TIP3     H1       HT       0.417000       1.00800           0   0.00000       0.00000    
     33742 TIP3     2942     TIP3     H2       HT       0.417000       1.00800           0   0.00000     -0.301140E-02
     33743 TIP3     2943     TIP3     OH2      OT      -0.834000       15.9994           0   0.00000       0.00000    
     33744 TIP3     2943     TIP3     H1       HT       0.417000       1.00800           0   0.00000       0.00000    
     33745 TIP3     2943     TIP3     H2       HT       0.417000       1.00800           0   0.00000     -0.301140E-02
     33746 TIP3     2944     TIP3     OH2      OT      -0.834000       15.9994           0   0.00000       0.00000    
     33747 TIP3     2944     TIP3     H1       HT       0.417000       1.00800           0   0.00000       0.00000    
     33748 TIP3     2944     TIP3     H2       HT       0.417000       1.00800           0   0.00000     -0.301140E-02
     33749 TIP3     2945     TIP3     OH2      OT      -0.834000       15.9994           0   0.00000       0.00000    
     33750 TIP3     2945     TIP3     H1       HT       0.417000       1.00800           0   0.00000       0.00000    
     33751 TIP3     2945     TIP3     H2       HT       0.417000       1.00800           0   0.00000     -0.301140E-02
     33752 TIP3     2946     TIP3     OH2      OT      -0.834000       15.9994           0   0.00000       0.00000    
     33753 TIP3     2946     TIP3     H1       HT       0.417000       1.00800           0   0.00000       0.00000    
     33754 TIP3     2946     TIP3     H2       HT       0.417000       1.00800           0   0.00000     -0.301140E-02
     33755 TIP3     2947     TIP3     OH2      OT      -0.834000       15.9994           0   0.00000       0.00000    
     33756 TIP3     2947     TIP3     H1       HT       0.417000       1.00800           0   0.00000       0.00000    
     33757 TIP3     2947     TIP3     H2       HT       0.417000       1.00800           0   0.00000     -0.301140E-02
     33758 TIP3     2948     TIP3     OH2      OT      -0.834000       15.9994           0   0.00000       0.00000    
     33759 TIP3     2948     TIP3     H1       HT       0.417000       1.00800           0   0.00000       0.00000    
     33760 TIP3     2948     TIP3     H2       HT       0.417000       1.00800           0   0.00000     -0.301140E-02
     33761 TIP3     2949     TIP3     OH2      OT      -0.834000       15.9994           0   0.00000       0.00000    
     33762 TIP3     2949     TIP3     H1       HT       0.417000       1.00800           0   0.00000       0.00000    
     33763 TIP3     2949     TIP3     H2       HT       0.417000       1.00800           0   0.00000     -0.301140E-02
     33764 TIP3     2950     TIP3     OH2      OT      -0.834000       15.9994           0   0.00000       0.00000    
     33765 TIP3     2950     TIP3     H1       HT       0.417000       1.00800           0   0.00000       0.00000    
     33766 TIP3     2950     TIP3     H2       HT       0.417000       1.00800           0   0.00000     -0.301140E-02
     33767 TIP3     2951     TIP3     OH2      OT      -0.834000       15.9994           0   0.00000       0.00000    
     33768 TIP3     2951     TIP3     H1       HT       0.417000       1.00800           0   0.00000       0.00000    
     33769 TIP3     2951     TIP3     H2       HT       0.417000       1.00800           0   0.00000     -0.301140E-02
     33770 TIP3     2952     TIP3     OH2      OT      -0.834000       15.9994           0   0.00000       0.00000    
     33771 TIP3     2952     TIP3     H1       HT       0.417000       1.00800           0   0.00000       0.00000    
     33772 TIP3     2952     TIP3     H2       HT       0.417000       1.00800           0   0.00000     -0.301140E-02
     33773 TIP3     2953     TIP3     OH2      OT      -0.834000       15.9994           0   0.00000       0.00000    
     33774 TIP3     2953     TIP3     H1       HT       0.417000       1.00800           0   0.00000       0.00000    
     33775 TIP3     2953     TIP3     H2       HT       0.417000       1.00800           0   0.00000     -0.301140E-02
     33776 TIP3     2954     TIP3     OH2      OT      -0.834000       15.9994           0   0.00000       0.00000    
     33777 TIP3     2954     TIP3     H1       HT       0.417000       1.00800           0   0.00000       0.00000    
     33778 TIP3     2954     TIP3     H2       HT       0.417000       1.00800           0   0.00000     -0.301140E-02
     33779 TIP3     2955     TIP3     OH2      OT      -0.834000       15.9994           0   0.00000       0.00000    
     33780 TIP3     2955     TIP3     H1       HT       0.417000       1.00800           0   0.00000       0.00000    
     33781 TIP3     2955     TIP3     H2       HT       0.417000       1.00800           0   0.00000     -0.301140E-02
     33782 TIP3     2956     TIP3     OH2      OT      -0.834000       15.9994           0   0.00000       0.00000    
     33783 TIP3     2956     TIP3     H1       HT       0.417000       1.00800           0   0.00000       0.00000    
     33784 TIP3     2956     TIP3     H2       HT       0.417000       1.00800           0   0.00000     -0.301140E-02
     33785 TIP3     2957     TIP3     OH2      OT      -0.834000       15.9994           0   0.00000       0.00000    
     33786 TIP3     2957     TIP3     H1       HT       0.417000       1.00800           0   0.00000       0.00000    
     33787 TIP3     2957     TIP3     H2       HT       0.417000       1.00800           0   0.00000     -0.301140E-02
     33788 TIP3     2958     TIP3     OH2      OT      -0.834000       15.9994           0   0.00000       0.00000    
     33789 TIP3     2958     TIP3     H1       HT       0.417000       1.00800           0   0.00000       0.00000    
     33790 TIP3     2958     TIP3     H2       HT       0.417000       1.00800           0   0.00000     -0.301140E-02
     33791 TIP3     2959     TIP3     OH2      OT      -0.834000       15.9994           0   0.00000       0.00000    
     33792 TIP3     2959     TIP3     H1       HT       0.417000       1.00800           0   0.00000       0.00000    
     33793 TIP3     2959     TIP3     H2       HT       0.417000       1.00800           0   0.00000     -0.301140E-02
     33794 TIP3     2960     TIP3     OH2      OT      -0.834000       15.9994           0   0.00000       0.00000    
     33795 TIP3     2960     TIP3     H1       HT       0.417000       1.00800           0   0.00000       0.00000    
     33796 TIP3     2960     TIP3     H2       HT       0.417000       1.00800           0   0.00000     -0.301140E-02
     33797 TIP3     2961     TIP3     OH2      OT      -0.834000       15.9994           0   0.00000       0.00000    
     33798 TIP3     2961     TIP3     H1       HT       0.417000       1.00800           0   0.00000       0.00000    
     33799 TIP3     2961     TIP3     H2       HT       0.417000       1.00800           0   0.00000     -0.301140E-02
     33800 TIP3     2962     TIP3     OH2      OT      -0.834000       15.9994           0   0.00000       0.00000    
     33801 TIP3     2962     TIP3     H1       HT       0.417000       1.00800           0   0.00000       0.00000    
     33802 TIP3     2962     TIP3     H2       HT       0.417000       1.00800           0   0.00000     -0.301140E-02
     33803 TIP3     2963     TIP3     OH2      OT      -0.834000       15.9994           0   0.00000       0.00000    
     33804 TIP3     2963     TIP3     H1       HT       0.417000       1.00800           0   0.00000       0.00000    
     33805 TIP3     2963     TIP3     H2       HT       0.417000       1.00800           0   0.00000     -0.301140E-02
     33806 TIP3     2964     TIP3     OH2      OT      -0.834000       15.9994           0   0.00000       0.00000    
     33807 TIP3     2964     TIP3     H1       HT       0.417000       1.00800           0   0.00000       0.00000    
     33808 TIP3     2964     TIP3     H2       HT       0.417000       1.00800           0   0.00000     -0.301140E-02
     33809 TIP3     2965     TIP3     OH2      OT      -0.834000       15.9994           0   0.00000       0.00000    
     33810 TIP3     2965     TIP3     H1       HT       0.417000       1.00800           0   0.00000       0.00000    
     33811 TIP3     2965     TIP3     H2       HT       0.417000       1.00800           0   0.00000     -0.301140E-02
     33812 TIP3     2966     TIP3     OH2      OT      -0.834000       15.9994           0   0.00000       0.00000    
     33813 TIP3     2966     TIP3     H1       HT       0.417000       1.00800           0   0.00000       0.00000    
     33814 TIP3     2966     TIP3     H2       HT       0.417000       1.00800           0   0.00000     -0.301140E-02
     33815 TIP3     2967     TIP3     OH2      OT      -0.834000       15.9994           0   0.00000       0.00000    
     33816 TIP3     2967     TIP3     H1       HT       0.417000       1.00800           0   0.00000       0.00000    
     33817 TIP3     2967     TIP3     H2       HT       0.417000       1.00800           0   0.00000     -0.301140E-02
     33818 TIP3     2968     TIP3     OH2      OT      -0.834000       15.9994           0   0.00000       0.00000    
     33819 TIP3     2968     TIP3     H1       HT       0.417000       1.00800           0   0.00000       0.00000    
     33820 TIP3     2968     TIP3     H2       HT       0.417000       1.00800           0   0.00000     -0.301140E-02
     33821 TIP3     2969     TIP3     OH2      OT      -0.834000       15.9994           0   0.00000       0.00000    
     33822 TIP3     2969     TIP3     H1       HT       0.417000       1.00800           0   0.00000       0.00000    
     33823 TIP3     2969     TIP3     H2       HT       0.417000       1.00800           0   0.00000     -0.301140E-02
     33824 TIP3     2970     TIP3     OH2      OT      -0.834000       15.9994           0   0.00000       0.00000    
     33825 TIP3     2970     TIP3     H1       HT       0.417000       1.00800           0   0.00000       0.00000    
     33826 TIP3     2970     TIP3     H2       HT       0.417000       1.00800           0   0.00000     -0.301140E-02
     33827 TIP3     2971     TIP3     OH2      OT      -0.834000       15.9994           0   0.00000       0.00000    
     33828 TIP3     2971     TIP3     H1       HT       0.417000       1.00800           0   0.00000       0.00000    
     33829 TIP3     2971     TIP3     H2       HT       0.417000       1.00800           0   0.00000     -0.301140E-02
     33830 TIP3     2972     TIP3     OH2      OT      -0.834000       15.9994           0   0.00000       0.00000    
     33831 TIP3     2972     TIP3     H1       HT       0.417000       1.00800           0   0.00000       0.00000    
     33832 TIP3     2972     TIP3     H2       HT       0.417000       1.00800           0   0.00000     -0.301140E-02
     33833 TIP3     2973     TIP3     OH2      OT      -0.834000       15.9994           0   0.00000       0.00000    
     33834 TIP3     2973     TIP3     H1       HT       0.417000       1.00800           0   0.00000       0.00000    
     33835 TIP3     2973     TIP3     H2       HT       0.417000       1.00800           0   0.00000     -0.301140E-02
     33836 TIP3     2974     TIP3     OH2      OT      -0.834000       15.9994           0   0.00000       0.00000    
     33837 TIP3     2974     TIP3     H1       HT       0.417000       1.00800           0   0.00000       0.00000    
     33838 TIP3     2974     TIP3     H2       HT       0.417000       1.00800           0   0.00000     -0.301140E-02
     33839 TIP3     2975     TIP3     OH2      OT      -0.834000       15.9994           0   0.00000       0.00000    
     33840 TIP3     2975     TIP3     H1       HT       0.417000       1.00800           0   0.00000       0.00000    
     33841 TIP3     2975     TIP3     H2       HT       0.417000       1.00800           0   0.00000     -0.301140E-02
     33842 TIP3     2976     TIP3     OH2      OT      -0.834000       15.9994           0   0.00000       0.00000    
     33843 TIP3     2976     TIP3     H1       HT       0.417000       1.00800           0   0.00000       0.00000    
     33844 TIP3     2976     TIP3     H2       HT       0.417000       1.00800           0   0.00000     -0.301140E-02
     33845 TIP3     2977     TIP3     OH2      OT      -0.834000       15.9994           0   0.00000       0.00000    
     33846 TIP3     2977     TIP3     H1       HT       0.417000       1.00800           0   0.00000       0.00000    
     33847 TIP3     2977     TIP3     H2       HT       0.417000       1.00800           0   0.00000     -0.301140E-02
     33848 TIP3     2978     TIP3     OH2      OT      -0.834000       15.9994           0   0.00000       0.00000    
     33849 TIP3     2978     TIP3     H1       HT       0.417000       1.00800           0   0.00000       0.00000    
     33850 TIP3     2978     TIP3     H2       HT       0.417000       1.00800           0   0.00000     -0.301140E-02
     33851 TIP3     2979     TIP3     OH2      OT      -0.834000       15.9994           0   0.00000       0.00000    
     33852 TIP3     2979     TIP3     H1       HT       0.417000       1.00800           0   0.00000       0.00000    
     33853 TIP3     2979     TIP3     H2       HT       0.417000       1.00800           0   0.00000     -0.301140E-02
     33854 TIP3     2980     TIP3     OH2      OT      -0.834000       15.9994           0   0.00000       0.00000    
     33855 TIP3     2980     TIP3     H1       HT       0.417000       1.00800           0   0.00000       0.00000    
     33856 TIP3     2980     TIP3     H2       HT       0.417000       1.00800           0   0.00000     -0.301140E-02
     33857 TIP3     2981     TIP3     OH2      OT      -0.834000       15.9994           0   0.00000       0.00000    
     33858 TIP3     2981     TIP3     H1       HT       0.417000       1.00800           0   0.00000       0.00000    
     33859 TIP3     2981     TIP3     H2       HT       0.417000       1.00800           0   0.00000     -0.301140E-02
     33860 TIP3     2982     TIP3     OH2      OT      -0.834000       15.9994           0   0.00000       0.00000    
     33861 TIP3     2982     TIP3     H1       HT       0.417000       1.00800           0   0.00000       0.00000    
     33862 TIP3     2982     TIP3     H2       HT       0.417000       1.00800           0   0.00000     -0.301140E-02
     33863 TIP3     2983     TIP3     OH2      OT      -0.834000       15.9994           0   0.00000       0.00000    
     33864 TIP3     2983     TIP3     H1       HT       0.417000       1.00800           0   0.00000       0.00000    
     33865 TIP3     2983     TIP3     H2       HT       0.417000       1.00800           0   0.00000     -0.301140E-02
     33866 TIP3     2984     TIP3     OH2      OT      -0.834000       15.9994           0   0.00000       0.00000    
     33867 TIP3     2984     TIP3     H1       HT       0.417000       1.00800           0   0.00000       0.00000    
     33868 TIP3     2984     TIP3     H2       HT       0.417000       1.00800           0   0.00000     -0.301140E-02
     33869 TIP3     2985     TIP3     OH2      OT      -0.834000       15.9994           0   0.00000       0.00000    
     33870 TIP3     2985     TIP3     H1       HT       0.417000       1.00800           0   0.00000       0.00000    
     33871 TIP3     2985     TIP3     H2       HT       0.417000       1.00800           0   0.00000     -0.301140E-02
     33872 TIP3     2986     TIP3     OH2      OT      -0.834000       15.9994           0   0.00000       0.00000    
     33873 TIP3     2986     TIP3     H1       HT       0.417000       1.00800           0   0.00000       0.00000    
     33874 TIP3     2986     TIP3     H2       HT       0.417000       1.00800           0   0.00000     -0.301140E-02
     33875 TIP3     2987     TIP3     OH2      OT      -0.834000       15.9994           0   0.00000       0.00000    
     33876 TIP3     2987     TIP3     H1       HT       0.417000       1.00800           0   0.00000       0.00000    
     33877 TIP3     2987     TIP3     H2       HT       0.417000       1.00800           0   0.00000     -0.301140E-02
     33878 TIP3     2988     TIP3     OH2      OT      -0.834000       15.9994           0   0.00000       0.00000    
     33879 TIP3     2988     TIP3     H1       HT       0.417000       1.00800           0   0.00000       0.00000    
     33880 TIP3     2988     TIP3     H2       HT       0.417000       1.00800           0   0.00000     -0.301140E-02
     33881 TIP3     2989     TIP3     OH2      OT      -0.834000       15.9994           0   0.00000       0.00000    
     33882 TIP3     2989     TIP3     H1       HT       0.417000       1.00800           0   0.00000       0.00000    
     33883 TIP3     2989     TIP3     H2       HT       0.417000       1.00800           0   0.00000     -0.301140E-02
     33884 TIP3     2990     TIP3     OH2      OT      -0.834000       15.9994           0   0.00000       0.00000    
     33885 TIP3     2990     TIP3     H1       HT       0.417000       1.00800           0   0.00000       0.00000    
     33886 TIP3     2990     TIP3     H2       HT       0.417000       1.00800           0   0.00000     -0.301140E-02
     33887 TIP3     2991     TIP3     OH2      OT      -0.834000       15.9994           0   0.00000       0.00000    
     33888 TIP3     2991     TIP3     H1       HT       0.417000       1.00800           0   0.00000       0.00000    
     33889 TIP3     2991     TIP3     H2       HT       0.417000       1.00800           0   0.00000     -0.301140E-02
     33890 TIP3     2992     TIP3     OH2      OT      -0.834000       15.9994           0   0.00000       0.00000    
     33891 TIP3     2992     TIP3     H1       HT       0.417000       1.00800           0   0.00000       0.00000    
     33892 TIP3     2992     TIP3     H2       HT       0.417000       1.00800           0   0.00000     -0.301140E-02
     33893 TIP3     2993     TIP3     OH2      OT      -0.834000       15.9994           0   0.00000       0.00000    
     33894 TIP3     2993     TIP3     H1       HT       0.417000       1.00800           0   0.00000       0.00000    
     33895 TIP3     2993     TIP3     H2       HT       0.417000       1.00800           0   0.00000     -0.301140E-02
     33896 TIP3     2994     TIP3     OH2      OT      -0.834000       15.9994           0   0.00000       0.00000    
     33897 TIP3     2994     TIP3     H1       HT       0.417000       1.00800           0   0.00000       0.00000    
     33898 TIP3     2994     TIP3     H2       HT       0.417000       1.00800           0   0.00000     -0.301140E-02
     33899 TIP3     2995     TIP3     OH2      OT      -0.834000       15.9994           0   0.00000       0.00000    
     33900 TIP3     2995     TIP3     H1       HT       0.417000       1.00800           0   0.00000       0.00000    
     33901 TIP3     2995     TIP3     H2       HT       0.417000       1.00800           0   0.00000     -0.301140E-02
     33902 TIP3     2996     TIP3     OH2      OT      -0.834000       15.9994           0   0.00000       0.00000    
     33903 TIP3     2996     TIP3     H1       HT       0.417000       1.00800           0   0.00000       0.00000    
     33904 TIP3     2996     TIP3     H2       HT       0.417000       1.00800           0   0.00000     -0.301140E-02
     33905 TIP3     2997     TIP3     OH2      OT      -0.834000       15.9994           0   0.00000       0.00000    
     33906 TIP3     2997     TIP3     H1       HT       0.417000       1.00800           0   0.00000       0.00000    
     33907 TIP3     2997     TIP3     H2       HT       0.417000       1.00800           0   0.00000     -0.301140E-02
     33908 TIP3     2998     TIP3     OH2      OT      -0.834000       15.9994           0   0.00000       0.00000    
     33909 TIP3     2998     TIP3     H1       HT       0.417000       1.00800           0   0.00000       0.00000    
     33910 TIP3     2998     TIP3     H2       HT       0.417000       1.00800           0   0.00000     -0.301140E-02
     33911 TIP3     2999     TIP3     OH2      OT      -0.834000       15.9994           0   0.00000       0.00000    
     33912 TIP3     2999     TIP3     H1       HT       0.417000       1.00800           0   0.00000       0.00000    
     33913 TIP3     2999     TIP3     H2       HT       0.417000       1.00800           0   0.00000     -0.301140E-02
     33914 TIP3     3000     TIP3     OH2      OT      -0.834000       15.9994           0   0.00000       0.00000    
     33915 TIP3     3000     TIP3     H1       HT       0.417000       1.00800           0   0.00000       0.00000    
     33916 TIP3     3000     TIP3     H2       HT       0.417000       1.00800           0   0.00000     -0.301140E-02
     33917 TIP3     3001     TIP3     OH2      OT      -0.834000       15.9994           0   0.00000       0.00000    
     33918 TIP3     3001     TIP3     H1       HT       0.417000       1.00800           0   0.00000       0.00000    
     33919 TIP3     3001     TIP3     H2       HT       0.417000       1.00800           0   0.00000     -0.301140E-02
     33920 TIP3     3002     TIP3     OH2      OT      -0.834000       15.9994           0   0.00000       0.00000    
     33921 TIP3     3002     TIP3     H1       HT       0.417000       1.00800           0   0.00000       0.00000    
     33922 TIP3     3002     TIP3     H2       HT       0.417000       1.00800           0   0.00000     -0.301140E-02
     33923 TIP3     3003     TIP3     OH2      OT      -0.834000       15.9994           0   0.00000       0.00000    
     33924 TIP3     3003     TIP3     H1       HT       0.417000       1.00800           0   0.00000       0.00000    
     33925 TIP3     3003     TIP3     H2       HT       0.417000       1.00800           0   0.00000     -0.301140E-02
     33926 TIP3     3004     TIP3     OH2      OT      -0.834000       15.9994           0   0.00000       0.00000    
     33927 TIP3     3004     TIP3     H1       HT       0.417000       1.00800           0   0.00000       0.00000    
     33928 TIP3     3004     TIP3     H2       HT       0.417000       1.00800           0   0.00000     -0.301140E-02
     33929 TIP3     3005     TIP3     OH2      OT      -0.834000       15.9994           0   0.00000       0.00000    
     33930 TIP3     3005     TIP3     H1       HT       0.417000       1.00800           0   0.00000       0.00000    
     33931 TIP3     3005     TIP3     H2       HT       0.417000       1.00800           0   0.00000     -0.301140E-02
     33932 TIP3     3006     TIP3     OH2      OT      -0.834000       15.9994           0   0.00000       0.00000    
     33933 TIP3     3006     TIP3     H1       HT       0.417000       1.00800           0   0.00000       0.00000    
     33934 TIP3     3006     TIP3     H2       HT       0.417000       1.00800           0   0.00000     -0.301140E-02
     33935 TIP3     3007     TIP3     OH2      OT      -0.834000       15.9994           0   0.00000       0.00000    
     33936 TIP3     3007     TIP3     H1       HT       0.417000       1.00800           0   0.00000       0.00000    
     33937 TIP3     3007     TIP3     H2       HT       0.417000       1.00800           0   0.00000     -0.301140E-02
     33938 TIP3     3008     TIP3     OH2      OT      -0.834000       15.9994           0   0.00000       0.00000    
     33939 TIP3     3008     TIP3     H1       HT       0.417000       1.00800           0   0.00000       0.00000    
     33940 TIP3     3008     TIP3     H2       HT       0.417000       1.00800           0   0.00000     -0.301140E-02
     33941 TIP3     3009     TIP3     OH2      OT      -0.834000       15.9994           0   0.00000       0.00000    
     33942 TIP3     3009     TIP3     H1       HT       0.417000       1.00800           0   0.00000       0.00000    
     33943 TIP3     3009     TIP3     H2       HT       0.417000       1.00800           0   0.00000     -0.301140E-02
     33944 TIP3     3010     TIP3     OH2      OT      -0.834000       15.9994           0   0.00000       0.00000    
     33945 TIP3     3010     TIP3     H1       HT       0.417000       1.00800           0   0.00000       0.00000    
     33946 TIP3     3010     TIP3     H2       HT       0.417000       1.00800           0   0.00000     -0.301140E-02
     33947 TIP3     3011     TIP3     OH2      OT      -0.834000       15.9994           0   0.00000       0.00000    
     33948 TIP3     3011     TIP3     H1       HT       0.417000       1.00800           0   0.00000       0.00000    
     33949 TIP3     3011     TIP3     H2       HT       0.417000       1.00800           0   0.00000     -0.301140E-02
     33950 TIP3     3012     TIP3     OH2      OT      -0.834000       15.9994           0   0.00000       0.00000    
     33951 TIP3     3012     TIP3     H1       HT       0.417000       1.00800           0   0.00000       0.00000    
     33952 TIP3     3012     TIP3     H2       HT       0.417000       1.00800           0   0.00000     -0.301140E-02
     33953 TIP3     3013     TIP3     OH2      OT      -0.834000       15.9994           0   0.00000       0.00000    
     33954 TIP3     3013     TIP3     H1       HT       0.417000       1.00800           0   0.00000       0.00000    
     33955 TIP3     3013     TIP3     H2       HT       0.417000       1.00800           0   0.00000     -0.301140E-02
     33956 TIP3     3014     TIP3     OH2      OT      -0.834000       15.9994           0   0.00000       0.00000    
     33957 TIP3     3014     TIP3     H1       HT       0.417000       1.00800           0   0.00000       0.00000    
     33958 TIP3     3014     TIP3     H2       HT       0.417000       1.00800           0   0.00000     -0.301140E-02
     33959 TIP3     3015     TIP3     OH2      OT      -0.834000       15.9994           0   0.00000       0.00000    
     33960 TIP3     3015     TIP3     H1       HT       0.417000       1.00800           0   0.00000       0.00000    
     33961 TIP3     3015     TIP3     H2       HT       0.417000       1.00800           0   0.00000     -0.301140E-02
     33962 TIP3     3016     TIP3     OH2      OT      -0.834000       15.9994           0   0.00000       0.00000    
     33963 TIP3     3016     TIP3     H1       HT       0.417000       1.00800           0   0.00000       0.00000    
     33964 TIP3     3016     TIP3     H2       HT       0.417000       1.00800           0   0.00000     -0.301140E-02
     33965 TIP3     3017     TIP3     OH2      OT      -0.834000       15.9994           0   0.00000       0.00000    
     33966 TIP3     3017     TIP3     H1       HT       0.417000       1.00800           0   0.00000       0.00000    
     33967 TIP3     3017     TIP3     H2       HT       0.417000       1.00800           0   0.00000     -0.301140E-02
     33968 TIP3     3018     TIP3     OH2      OT      -0.834000       15.9994           0   0.00000       0.00000    
     33969 TIP3     3018     TIP3     H1       HT       0.417000       1.00800           0   0.00000       0.00000    
     33970 TIP3     3018     TIP3     H2       HT       0.417000       1.00800           0   0.00000     -0.301140E-02
     33971 TIP3     3019     TIP3     OH2      OT      -0.834000       15.9994           0   0.00000       0.00000    
     33972 TIP3     3019     TIP3     H1       HT       0.417000       1.00800           0   0.00000       0.00000    
     33973 TIP3     3019     TIP3     H2       HT       0.417000       1.00800           0   0.00000     -0.301140E-02
     33974 TIP3     3020     TIP3     OH2      OT      -0.834000       15.9994           0   0.00000       0.00000    
     33975 TIP3     3020     TIP3     H1       HT       0.417000       1.00800           0   0.00000       0.00000    
     33976 TIP3     3020     TIP3     H2       HT       0.417000       1.00800           0   0.00000     -0.301140E-02
     33977 TIP3     3021     TIP3     OH2      OT      -0.834000       15.9994           0   0.00000       0.00000    
     33978 TIP3     3021     TIP3     H1       HT       0.417000       1.00800           0   0.00000       0.00000    
     33979 TIP3     3021     TIP3     H2       HT       0.417000       1.00800           0   0.00000     -0.301140E-02
     33980 TIP3     3022     TIP3     OH2      OT      -0.834000       15.9994           0   0.00000       0.00000    
     33981 TIP3     3022     TIP3     H1       HT       0.417000       1.00800           0   0.00000       0.00000    
     33982 TIP3     3022     TIP3     H2       HT       0.417000       1.00800           0   0.00000     -0.301140E-02
     33983 TIP3     3023     TIP3     OH2      OT      -0.834000       15.9994           0   0.00000       0.00000    
     33984 TIP3     3023     TIP3     H1       HT       0.417000       1.00800           0   0.00000       0.00000    
     33985 TIP3     3023     TIP3     H2       HT       0.417000       1.00800           0   0.00000     -0.301140E-02
     33986 TIP3     3024     TIP3     OH2      OT      -0.834000       15.9994           0   0.00000       0.00000    
     33987 TIP3     3024     TIP3     H1       HT       0.417000       1.00800           0   0.00000       0.00000    
     33988 TIP3     3024     TIP3     H2       HT       0.417000       1.00800           0   0.00000     -0.301140E-02
     33989 TIP3     3025     TIP3     OH2      OT      -0.834000       15.9994           0   0.00000       0.00000    
     33990 TIP3     3025     TIP3     H1       HT       0.417000       1.00800           0   0.00000       0.00000    
     33991 TIP3     3025     TIP3     H2       HT       0.417000       1.00800           0   0.00000     -0.301140E-02
     33992 TIP3     3026     TIP3     OH2      OT      -0.834000       15.9994           0   0.00000       0.00000    
     33993 TIP3     3026     TIP3     H1       HT       0.417000       1.00800           0   0.00000       0.00000    
     33994 TIP3     3026     TIP3     H2       HT       0.417000       1.00800           0   0.00000     -0.301140E-02
     33995 TIP3     3027     TIP3     OH2      OT      -0.834000       15.9994           0   0.00000       0.00000    
     33996 TIP3     3027     TIP3     H1       HT       0.417000       1.00800           0   0.00000       0.00000    
     33997 TIP3     3027     TIP3     H2       HT       0.417000       1.00800           0   0.00000     -0.301140E-02
     33998 TIP3     3028     TIP3     OH2      OT      -0.834000       15.9994           0   0.00000       0.00000    
     33999 TIP3     3028     TIP3     H1       HT       0.417000       1.00800           0   0.00000       0.00000    
     34000 TIP3     3028     TIP3     H2       HT       0.417000       1.00800           0   0.00000     -0.301140E-02
     34001 TIP3     3029     TIP3     OH2      OT      -0.834000       15.9994           0   0.00000       0.00000    
     34002 TIP3     3029     TIP3     H1       HT       0.417000       1.00800           0   0.00000       0.00000    
     34003 TIP3     3029     TIP3     H2       HT       0.417000       1.00800           0   0.00000     -0.301140E-02
     34004 TIP3     3030     TIP3     OH2      OT      -0.834000       15.9994           0   0.00000       0.00000    
     34005 TIP3     3030     TIP3     H1       HT       0.417000       1.00800           0   0.00000       0.00000    
     34006 TIP3     3030     TIP3     H2       HT       0.417000       1.00800           0   0.00000     -0.301140E-02
     34007 TIP3     3031     TIP3     OH2      OT      -0.834000       15.9994           0   0.00000       0.00000    
     34008 TIP3     3031     TIP3     H1       HT       0.417000       1.00800           0   0.00000       0.00000    
     34009 TIP3     3031     TIP3     H2       HT       0.417000       1.00800           0   0.00000     -0.301140E-02
     34010 TIP3     3032     TIP3     OH2      OT      -0.834000       15.9994           0   0.00000       0.00000    
     34011 TIP3     3032     TIP3     H1       HT       0.417000       1.00800           0   0.00000       0.00000    
     34012 TIP3     3032     TIP3     H2       HT       0.417000       1.00800           0   0.00000     -0.301140E-02
     34013 TIP3     3033     TIP3     OH2      OT      -0.834000       15.9994           0   0.00000       0.00000    
     34014 TIP3     3033     TIP3     H1       HT       0.417000       1.00800           0   0.00000       0.00000    
     34015 TIP3     3033     TIP3     H2       HT       0.417000       1.00800           0   0.00000     -0.301140E-02
     34016 TIP3     3034     TIP3     OH2      OT      -0.834000       15.9994           0   0.00000       0.00000    
     34017 TIP3     3034     TIP3     H1       HT       0.417000       1.00800           0   0.00000       0.00000    
     34018 TIP3     3034     TIP3     H2       HT       0.417000       1.00800           0   0.00000     -0.301140E-02
     34019 TIP3     3035     TIP3     OH2      OT      -0.834000       15.9994           0   0.00000       0.00000    
     34020 TIP3     3035     TIP3     H1       HT       0.417000       1.00800           0   0.00000       0.00000    
     34021 TIP3     3035     TIP3     H2       HT       0.417000       1.00800           0   0.00000     -0.301140E-02
     34022 TIP3     3036     TIP3     OH2      OT      -0.834000       15.9994           0   0.00000       0.00000    
     34023 TIP3     3036     TIP3     H1       HT       0.417000       1.00800           0   0.00000       0.00000    
     34024 TIP3     3036     TIP3     H2       HT       0.417000       1.00800           0   0.00000     -0.301140E-02
     34025 TIP3     3037     TIP3     OH2      OT      -0.834000       15.9994           0   0.00000       0.00000    
     34026 TIP3     3037     TIP3     H1       HT       0.417000       1.00800           0   0.00000       0.00000    
     34027 TIP3     3037     TIP3     H2       HT       0.417000       1.00800           0   0.00000     -0.301140E-02
     34028 TIP3     3038     TIP3     OH2      OT      -0.834000       15.9994           0   0.00000       0.00000    
     34029 TIP3     3038     TIP3     H1       HT       0.417000       1.00800           0   0.00000       0.00000    
     34030 TIP3     3038     TIP3     H2       HT       0.417000       1.00800           0   0.00000     -0.301140E-02
     34031 TIP3     3039     TIP3     OH2      OT      -0.834000       15.9994           0   0.00000       0.00000    
     34032 TIP3     3039     TIP3     H1       HT       0.417000       1.00800           0   0.00000       0.00000    
     34033 TIP3     3039     TIP3     H2       HT       0.417000       1.00800           0   0.00000     -0.301140E-02
     34034 TIP3     3040     TIP3     OH2      OT      -0.834000       15.9994           0   0.00000       0.00000    
     34035 TIP3     3040     TIP3     H1       HT       0.417000       1.00800           0   0.00000       0.00000    
     34036 TIP3     3040     TIP3     H2       HT       0.417000       1.00800           0   0.00000     -0.301140E-02
     34037 TIP3     3041     TIP3     OH2      OT      -0.834000       15.9994           0   0.00000       0.00000    
     34038 TIP3     3041     TIP3     H1       HT       0.417000       1.00800           0   0.00000       0.00000    
     34039 TIP3     3041     TIP3     H2       HT       0.417000       1.00800           0   0.00000     -0.301140E-02
     34040 TIP3     3042     TIP3     OH2      OT      -0.834000       15.9994           0   0.00000       0.00000    
     34041 TIP3     3042     TIP3     H1       HT       0.417000       1.00800           0   0.00000       0.00000    
     34042 TIP3     3042     TIP3     H2       HT       0.417000       1.00800           0   0.00000     -0.301140E-02
     34043 TIP3     3043     TIP3     OH2      OT      -0.834000       15.9994           0   0.00000       0.00000    
     34044 TIP3     3043     TIP3     H1       HT       0.417000       1.00800           0   0.00000       0.00000    
     34045 TIP3     3043     TIP3     H2       HT       0.417000       1.00800           0   0.00000     -0.301140E-02
     34046 TIP3     3044     TIP3     OH2      OT      -0.834000       15.9994           0   0.00000       0.00000    
     34047 TIP3     3044     TIP3     H1       HT       0.417000       1.00800           0   0.00000       0.00000    
     34048 TIP3     3044     TIP3     H2       HT       0.417000       1.00800           0   0.00000     -0.301140E-02
     34049 TIP3     3045     TIP3     OH2      OT      -0.834000       15.9994           0   0.00000       0.00000    
     34050 TIP3     3045     TIP3     H1       HT       0.417000       1.00800           0   0.00000       0.00000    
     34051 TIP3     3045     TIP3     H2       HT       0.417000       1.00800           0   0.00000     -0.301140E-02
     34052 TIP3     3046     TIP3     OH2      OT      -0.834000       15.9994           0   0.00000       0.00000    
     34053 TIP3     3046     TIP3     H1       HT       0.417000       1.00800           0   0.00000       0.00000    
     34054 TIP3     3046     TIP3     H2       HT       0.417000       1.00800           0   0.00000     -0.301140E-02
     34055 TIP3     3047     TIP3     OH2      OT      -0.834000       15.9994           0   0.00000       0.00000    
     34056 TIP3     3047     TIP3     H1       HT       0.417000       1.00800           0   0.00000       0.00000    
     34057 TIP3     3047     TIP3     H2       HT       0.417000       1.00800           0   0.00000     -0.301140E-02
     34058 TIP3     3048     TIP3     OH2      OT      -0.834000       15.9994           0   0.00000       0.00000    
     34059 TIP3     3048     TIP3     H1       HT       0.417000       1.00800           0   0.00000       0.00000    
     34060 TIP3     3048     TIP3     H2       HT       0.417000       1.00800           0   0.00000     -0.301140E-02
     34061 TIP3     3049     TIP3     OH2      OT      -0.834000       15.9994           0   0.00000       0.00000    
     34062 TIP3     3049     TIP3     H1       HT       0.417000       1.00800           0   0.00000       0.00000    
     34063 TIP3     3049     TIP3     H2       HT       0.417000       1.00800           0   0.00000     -0.301140E-02
     34064 TIP3     3050     TIP3     OH2      OT      -0.834000       15.9994           0   0.00000       0.00000    
     34065 TIP3     3050     TIP3     H1       HT       0.417000       1.00800           0   0.00000       0.00000    
     34066 TIP3     3050     TIP3     H2       HT       0.417000       1.00800           0   0.00000     -0.301140E-02
     34067 TIP3     3051     TIP3     OH2      OT      -0.834000       15.9994           0   0.00000       0.00000    
     34068 TIP3     3051     TIP3     H1       HT       0.417000       1.00800           0   0.00000       0.00000    
     34069 TIP3     3051     TIP3     H2       HT       0.417000       1.00800           0   0.00000     -0.301140E-02
     34070 TIP3     3052     TIP3     OH2      OT      -0.834000       15.9994           0   0.00000       0.00000    
     34071 TIP3     3052     TIP3     H1       HT       0.417000       1.00800           0   0.00000       0.00000    
     34072 TIP3     3052     TIP3     H2       HT       0.417000       1.00800           0   0.00000     -0.301140E-02
     34073 TIP3     3053     TIP3     OH2      OT      -0.834000       15.9994           0   0.00000       0.00000    
     34074 TIP3     3053     TIP3     H1       HT       0.417000       1.00800           0   0.00000       0.00000    
     34075 TIP3     3053     TIP3     H2       HT       0.417000       1.00800           0   0.00000     -0.301140E-02
     34076 TIP3     3054     TIP3     OH2      OT      -0.834000       15.9994           0   0.00000       0.00000    
     34077 TIP3     3054     TIP3     H1       HT       0.417000       1.00800           0   0.00000       0.00000    
     34078 TIP3     3054     TIP3     H2       HT       0.417000       1.00800           0   0.00000     -0.301140E-02
     34079 TIP3     3055     TIP3     OH2      OT      -0.834000       15.9994           0   0.00000       0.00000    
     34080 TIP3     3055     TIP3     H1       HT       0.417000       1.00800           0   0.00000       0.00000    
     34081 TIP3     3055     TIP3     H2       HT       0.417000       1.00800           0   0.00000     -0.301140E-02
     34082 TIP3     3056     TIP3     OH2      OT      -0.834000       15.9994           0   0.00000       0.00000    
     34083 TIP3     3056     TIP3     H1       HT       0.417000       1.00800           0   0.00000       0.00000    
     34084 TIP3     3056     TIP3     H2       HT       0.417000       1.00800           0   0.00000     -0.301140E-02
     34085 TIP3     3057     TIP3     OH2      OT      -0.834000       15.9994           0   0.00000       0.00000    
     34086 TIP3     3057     TIP3     H1       HT       0.417000       1.00800           0   0.00000       0.00000    
     34087 TIP3     3057     TIP3     H2       HT       0.417000       1.00800           0   0.00000     -0.301140E-02
     34088 TIP3     3058     TIP3     OH2      OT      -0.834000       15.9994           0   0.00000       0.00000    
     34089 TIP3     3058     TIP3     H1       HT       0.417000       1.00800           0   0.00000       0.00000    
     34090 TIP3     3058     TIP3     H2       HT       0.417000       1.00800           0   0.00000     -0.301140E-02
     34091 TIP3     3059     TIP3     OH2      OT      -0.834000       15.9994           0   0.00000       0.00000    
     34092 TIP3     3059     TIP3     H1       HT       0.417000       1.00800           0   0.00000       0.00000    
     34093 TIP3     3059     TIP3     H2       HT       0.417000       1.00800           0   0.00000     -0.301140E-02
     34094 TIP3     3060     TIP3     OH2      OT      -0.834000       15.9994           0   0.00000       0.00000    
     34095 TIP3     3060     TIP3     H1       HT       0.417000       1.00800           0   0.00000       0.00000    
     34096 TIP3     3060     TIP3     H2       HT       0.417000       1.00800           0   0.00000     -0.301140E-02
     34097 TIP3     3061     TIP3     OH2      OT      -0.834000       15.9994           0   0.00000       0.00000    
     34098 TIP3     3061     TIP3     H1       HT       0.417000       1.00800           0   0.00000       0.00000    
     34099 TIP3     3061     TIP3     H2       HT       0.417000       1.00800           0   0.00000     -0.301140E-02
     34100 TIP3     3062     TIP3     OH2      OT      -0.834000       15.9994           0   0.00000       0.00000    
     34101 TIP3     3062     TIP3     H1       HT       0.417000       1.00800           0   0.00000       0.00000    
     34102 TIP3     3062     TIP3     H2       HT       0.417000       1.00800           0   0.00000     -0.301140E-02
     34103 TIP3     3063     TIP3     OH2      OT      -0.834000       15.9994           0   0.00000       0.00000    
     34104 TIP3     3063     TIP3     H1       HT       0.417000       1.00800           0   0.00000       0.00000    
     34105 TIP3     3063     TIP3     H2       HT       0.417000       1.00800           0   0.00000     -0.301140E-02
     34106 TIP3     3064     TIP3     OH2      OT      -0.834000       15.9994           0   0.00000       0.00000    
     34107 TIP3     3064     TIP3     H1       HT       0.417000       1.00800           0   0.00000       0.00000    
     34108 TIP3     3064     TIP3     H2       HT       0.417000       1.00800           0   0.00000     -0.301140E-02
     34109 TIP3     3065     TIP3     OH2      OT      -0.834000       15.9994           0   0.00000       0.00000    
     34110 TIP3     3065     TIP3     H1       HT       0.417000       1.00800           0   0.00000       0.00000    
     34111 TIP3     3065     TIP3     H2       HT       0.417000       1.00800           0   0.00000     -0.301140E-02
     34112 TIP3     3066     TIP3     OH2      OT      -0.834000       15.9994           0   0.00000       0.00000    
     34113 TIP3     3066     TIP3     H1       HT       0.417000       1.00800           0   0.00000       0.00000    
     34114 TIP3     3066     TIP3     H2       HT       0.417000       1.00800           0   0.00000     -0.301140E-02
     34115 TIP3     3067     TIP3     OH2      OT      -0.834000       15.9994           0   0.00000       0.00000    
     34116 TIP3     3067     TIP3     H1       HT       0.417000       1.00800           0   0.00000       0.00000    
     34117 TIP3     3067     TIP3     H2       HT       0.417000       1.00800           0   0.00000     -0.301140E-02
     34118 TIP3     3068     TIP3     OH2      OT      -0.834000       15.9994           0   0.00000       0.00000    
     34119 TIP3     3068     TIP3     H1       HT       0.417000       1.00800           0   0.00000       0.00000    
     34120 TIP3     3068     TIP3     H2       HT       0.417000       1.00800           0   0.00000     -0.301140E-02
     34121 TIP3     3069     TIP3     OH2      OT      -0.834000       15.9994           0   0.00000       0.00000    
     34122 TIP3     3069     TIP3     H1       HT       0.417000       1.00800           0   0.00000       0.00000    
     34123 TIP3     3069     TIP3     H2       HT       0.417000       1.00800           0   0.00000     -0.301140E-02
     34124 TIP3     3070     TIP3     OH2      OT      -0.834000       15.9994           0   0.00000       0.00000    
     34125 TIP3     3070     TIP3     H1       HT       0.417000       1.00800           0   0.00000       0.00000    
     34126 TIP3     3070     TIP3     H2       HT       0.417000       1.00800           0   0.00000     -0.301140E-02
     34127 TIP3     3071     TIP3     OH2      OT      -0.834000       15.9994           0   0.00000       0.00000    
     34128 TIP3     3071     TIP3     H1       HT       0.417000       1.00800           0   0.00000       0.00000    
     34129 TIP3     3071     TIP3     H2       HT       0.417000       1.00800           0   0.00000     -0.301140E-02
     34130 TIP3     3072     TIP3     OH2      OT      -0.834000       15.9994           0   0.00000       0.00000    
     34131 TIP3     3072     TIP3     H1       HT       0.417000       1.00800           0   0.00000       0.00000    
     34132 TIP3     3072     TIP3     H2       HT       0.417000       1.00800           0   0.00000     -0.301140E-02
     34133 TIP3     3073     TIP3     OH2      OT      -0.834000       15.9994           0   0.00000       0.00000    
     34134 TIP3     3073     TIP3     H1       HT       0.417000       1.00800           0   0.00000       0.00000    
     34135 TIP3     3073     TIP3     H2       HT       0.417000       1.00800           0   0.00000     -0.301140E-02
     34136 TIP3     3074     TIP3     OH2      OT      -0.834000       15.9994           0   0.00000       0.00000    
     34137 TIP3     3074     TIP3     H1       HT       0.417000       1.00800           0   0.00000       0.00000    
     34138 TIP3     3074     TIP3     H2       HT       0.417000       1.00800           0   0.00000     -0.301140E-02
     34139 TIP3     3075     TIP3     OH2      OT      -0.834000       15.9994           0   0.00000       0.00000    
     34140 TIP3     3075     TIP3     H1       HT       0.417000       1.00800           0   0.00000       0.00000    
     34141 TIP3     3075     TIP3     H2       HT       0.417000       1.00800           0   0.00000     -0.301140E-02
     34142 TIP3     3076     TIP3     OH2      OT      -0.834000       15.9994           0   0.00000       0.00000    
     34143 TIP3     3076     TIP3     H1       HT       0.417000       1.00800           0   0.00000       0.00000    
     34144 TIP3     3076     TIP3     H2       HT       0.417000       1.00800           0   0.00000     -0.301140E-02
     34145 TIP3     3077     TIP3     OH2      OT      -0.834000       15.9994           0   0.00000       0.00000    
     34146 TIP3     3077     TIP3     H1       HT       0.417000       1.00800           0   0.00000       0.00000    
     34147 TIP3     3077     TIP3     H2       HT       0.417000       1.00800           0   0.00000     -0.301140E-02
     34148 TIP3     3078     TIP3     OH2      OT      -0.834000       15.9994           0   0.00000       0.00000    
     34149 TIP3     3078     TIP3     H1       HT       0.417000       1.00800           0   0.00000       0.00000    
     34150 TIP3     3078     TIP3     H2       HT       0.417000       1.00800           0   0.00000     -0.301140E-02
     34151 TIP3     3079     TIP3     OH2      OT      -0.834000       15.9994           0   0.00000       0.00000    
     34152 TIP3     3079     TIP3     H1       HT       0.417000       1.00800           0   0.00000       0.00000    
     34153 TIP3     3079     TIP3     H2       HT       0.417000       1.00800           0   0.00000     -0.301140E-02
     34154 TIP3     3080     TIP3     OH2      OT      -0.834000       15.9994           0   0.00000       0.00000    
     34155 TIP3     3080     TIP3     H1       HT       0.417000       1.00800           0   0.00000       0.00000    
     34156 TIP3     3080     TIP3     H2       HT       0.417000       1.00800           0   0.00000     -0.301140E-02
     34157 TIP3     3081     TIP3     OH2      OT      -0.834000       15.9994           0   0.00000       0.00000    
     34158 TIP3     3081     TIP3     H1       HT       0.417000       1.00800           0   0.00000       0.00000    
     34159 TIP3     3081     TIP3     H2       HT       0.417000       1.00800           0   0.00000     -0.301140E-02
     34160 TIP3     3082     TIP3     OH2      OT      -0.834000       15.9994           0   0.00000       0.00000    
     34161 TIP3     3082     TIP3     H1       HT       0.417000       1.00800           0   0.00000       0.00000    
     34162 TIP3     3082     TIP3     H2       HT       0.417000       1.00800           0   0.00000     -0.301140E-02
     34163 TIP3     3083     TIP3     OH2      OT      -0.834000       15.9994           0   0.00000       0.00000    
     34164 TIP3     3083     TIP3     H1       HT       0.417000       1.00800           0   0.00000       0.00000    
     34165 TIP3     3083     TIP3     H2       HT       0.417000       1.00800           0   0.00000     -0.301140E-02
     34166 TIP3     3084     TIP3     OH2      OT      -0.834000       15.9994           0   0.00000       0.00000    
     34167 TIP3     3084     TIP3     H1       HT       0.417000       1.00800           0   0.00000       0.00000    
     34168 TIP3     3084     TIP3     H2       HT       0.417000       1.00800           0   0.00000     -0.301140E-02
     34169 TIP3     3085     TIP3     OH2      OT      -0.834000       15.9994           0   0.00000       0.00000    
     34170 TIP3     3085     TIP3     H1       HT       0.417000       1.00800           0   0.00000       0.00000    
     34171 TIP3     3085     TIP3     H2       HT       0.417000       1.00800           0   0.00000     -0.301140E-02
     34172 TIP3     3086     TIP3     OH2      OT      -0.834000       15.9994           0   0.00000       0.00000    
     34173 TIP3     3086     TIP3     H1       HT       0.417000       1.00800           0   0.00000       0.00000    
     34174 TIP3     3086     TIP3     H2       HT       0.417000       1.00800           0   0.00000     -0.301140E-02
     34175 TIP3     3087     TIP3     OH2      OT      -0.834000       15.9994           0   0.00000       0.00000    
     34176 TIP3     3087     TIP3     H1       HT       0.417000       1.00800           0   0.00000       0.00000    
     34177 TIP3     3087     TIP3     H2       HT       0.417000       1.00800           0   0.00000     -0.301140E-02
     34178 TIP3     3088     TIP3     OH2      OT      -0.834000       15.9994           0   0.00000       0.00000    
     34179 TIP3     3088     TIP3     H1       HT       0.417000       1.00800           0   0.00000       0.00000    
     34180 TIP3     3088     TIP3     H2       HT       0.417000       1.00800           0   0.00000     -0.301140E-02
     34181 TIP3     3089     TIP3     OH2      OT      -0.834000       15.9994           0   0.00000       0.00000    
     34182 TIP3     3089     TIP3     H1       HT       0.417000       1.00800           0   0.00000       0.00000    
     34183 TIP3     3089     TIP3     H2       HT       0.417000       1.00800           0   0.00000     -0.301140E-02
     34184 TIP3     3090     TIP3     OH2      OT      -0.834000       15.9994           0   0.00000       0.00000    
     34185 TIP3     3090     TIP3     H1       HT       0.417000       1.00800           0   0.00000       0.00000    
     34186 TIP3     3090     TIP3     H2       HT       0.417000       1.00800           0   0.00000     -0.301140E-02
     34187 TIP3     3091     TIP3     OH2      OT      -0.834000       15.9994           0   0.00000       0.00000    
     34188 TIP3     3091     TIP3     H1       HT       0.417000       1.00800           0   0.00000       0.00000    
     34189 TIP3     3091     TIP3     H2       HT       0.417000       1.00800           0   0.00000     -0.301140E-02
     34190 TIP3     3092     TIP3     OH2      OT      -0.834000       15.9994           0   0.00000       0.00000    
     34191 TIP3     3092     TIP3     H1       HT       0.417000       1.00800           0   0.00000       0.00000    
     34192 TIP3     3092     TIP3     H2       HT       0.417000       1.00800           0   0.00000     -0.301140E-02
     34193 TIP3     3093     TIP3     OH2      OT      -0.834000       15.9994           0   0.00000       0.00000    
     34194 TIP3     3093     TIP3     H1       HT       0.417000       1.00800           0   0.00000       0.00000    
     34195 TIP3     3093     TIP3     H2       HT       0.417000       1.00800           0   0.00000     -0.301140E-02
     34196 TIP3     3094     TIP3     OH2      OT      -0.834000       15.9994           0   0.00000       0.00000    
     34197 TIP3     3094     TIP3     H1       HT       0.417000       1.00800           0   0.00000       0.00000    
     34198 TIP3     3094     TIP3     H2       HT       0.417000       1.00800           0   0.00000     -0.301140E-02
     34199 TIP3     3095     TIP3     OH2      OT      -0.834000       15.9994           0   0.00000       0.00000    
     34200 TIP3     3095     TIP3     H1       HT       0.417000       1.00800           0   0.00000       0.00000    
     34201 TIP3     3095     TIP3     H2       HT       0.417000       1.00800           0   0.00000     -0.301140E-02
     34202 TIP3     3096     TIP3     OH2      OT      -0.834000       15.9994           0   0.00000       0.00000    
     34203 TIP3     3096     TIP3     H1       HT       0.417000       1.00800           0   0.00000       0.00000    
     34204 TIP3     3096     TIP3     H2       HT       0.417000       1.00800           0   0.00000     -0.301140E-02
     34205 TIP3     3097     TIP3     OH2      OT      -0.834000       15.9994           0   0.00000       0.00000    
     34206 TIP3     3097     TIP3     H1       HT       0.417000       1.00800           0   0.00000       0.00000    
     34207 TIP3     3097     TIP3     H2       HT       0.417000       1.00800           0   0.00000     -0.301140E-02
     34208 TIP3     3098     TIP3     OH2      OT      -0.834000       15.9994           0   0.00000       0.00000    
     34209 TIP3     3098     TIP3     H1       HT       0.417000       1.00800           0   0.00000       0.00000    
     34210 TIP3     3098     TIP3     H2       HT       0.417000       1.00800           0   0.00000     -0.301140E-02
     34211 TIP3     3099     TIP3     OH2      OT      -0.834000       15.9994           0   0.00000       0.00000    
     34212 TIP3     3099     TIP3     H1       HT       0.417000       1.00800           0   0.00000       0.00000    
     34213 TIP3     3099     TIP3     H2       HT       0.417000       1.00800           0   0.00000     -0.301140E-02
     34214 TIP3     3100     TIP3     OH2      OT      -0.834000       15.9994           0   0.00000       0.00000    
     34215 TIP3     3100     TIP3     H1       HT       0.417000       1.00800           0   0.00000       0.00000    
     34216 TIP3     3100     TIP3     H2       HT       0.417000       1.00800           0   0.00000     -0.301140E-02
     34217 TIP3     3101     TIP3     OH2      OT      -0.834000       15.9994           0   0.00000       0.00000    
     34218 TIP3     3101     TIP3     H1       HT       0.417000       1.00800           0   0.00000       0.00000    
     34219 TIP3     3101     TIP3     H2       HT       0.417000       1.00800           0   0.00000     -0.301140E-02
     34220 TIP3     3102     TIP3     OH2      OT      -0.834000       15.9994           0   0.00000       0.00000    
     34221 TIP3     3102     TIP3     H1       HT       0.417000       1.00800           0   0.00000       0.00000    
     34222 TIP3     3102     TIP3     H2       HT       0.417000       1.00800           0   0.00000     -0.301140E-02
     34223 TIP3     3103     TIP3     OH2      OT      -0.834000       15.9994           0   0.00000       0.00000    
     34224 TIP3     3103     TIP3     H1       HT       0.417000       1.00800           0   0.00000       0.00000    
     34225 TIP3     3103     TIP3     H2       HT       0.417000       1.00800           0   0.00000     -0.301140E-02
     34226 TIP3     3104     TIP3     OH2      OT      -0.834000       15.9994           0   0.00000       0.00000    
     34227 TIP3     3104     TIP3     H1       HT       0.417000       1.00800           0   0.00000       0.00000    
     34228 TIP3     3104     TIP3     H2       HT       0.417000       1.00800           0   0.00000     -0.301140E-02
     34229 TIP3     3105     TIP3     OH2      OT      -0.834000       15.9994           0   0.00000       0.00000    
     34230 TIP3     3105     TIP3     H1       HT       0.417000       1.00800           0   0.00000       0.00000    
     34231 TIP3     3105     TIP3     H2       HT       0.417000       1.00800           0   0.00000     -0.301140E-02
     34232 TIP3     3106     TIP3     OH2      OT      -0.834000       15.9994           0   0.00000       0.00000    
     34233 TIP3     3106     TIP3     H1       HT       0.417000       1.00800           0   0.00000       0.00000    
     34234 TIP3     3106     TIP3     H2       HT       0.417000       1.00800           0   0.00000     -0.301140E-02
     34235 TIP3     3107     TIP3     OH2      OT      -0.834000       15.9994           0   0.00000       0.00000    
     34236 TIP3     3107     TIP3     H1       HT       0.417000       1.00800           0   0.00000       0.00000    
     34237 TIP3     3107     TIP3     H2       HT       0.417000       1.00800           0   0.00000     -0.301140E-02
     34238 TIP3     3108     TIP3     OH2      OT      -0.834000       15.9994           0   0.00000       0.00000    
     34239 TIP3     3108     TIP3     H1       HT       0.417000       1.00800           0   0.00000       0.00000    
     34240 TIP3     3108     TIP3     H2       HT       0.417000       1.00800           0   0.00000     -0.301140E-02
     34241 TIP3     3109     TIP3     OH2      OT      -0.834000       15.9994           0   0.00000       0.00000    
     34242 TIP3     3109     TIP3     H1       HT       0.417000       1.00800           0   0.00000       0.00000    
     34243 TIP3     3109     TIP3     H2       HT       0.417000       1.00800           0   0.00000     -0.301140E-02
     34244 TIP3     3110     TIP3     OH2      OT      -0.834000       15.9994           0   0.00000       0.00000    
     34245 TIP3     3110     TIP3     H1       HT       0.417000       1.00800           0   0.00000       0.00000    
     34246 TIP3     3110     TIP3     H2       HT       0.417000       1.00800           0   0.00000     -0.301140E-02
     34247 TIP3     3111     TIP3     OH2      OT      -0.834000       15.9994           0   0.00000       0.00000    
     34248 TIP3     3111     TIP3     H1       HT       0.417000       1.00800           0   0.00000       0.00000    
     34249 TIP3     3111     TIP3     H2       HT       0.417000       1.00800           0   0.00000     -0.301140E-02
     34250 TIP3     3112     TIP3     OH2      OT      -0.834000       15.9994           0   0.00000       0.00000    
     34251 TIP3     3112     TIP3     H1       HT       0.417000       1.00800           0   0.00000       0.00000    
     34252 TIP3     3112     TIP3     H2       HT       0.417000       1.00800           0   0.00000     -0.301140E-02
     34253 TIP3     3113     TIP3     OH2      OT      -0.834000       15.9994           0   0.00000       0.00000    
     34254 TIP3     3113     TIP3     H1       HT       0.417000       1.00800           0   0.00000       0.00000    
     34255 TIP3     3113     TIP3     H2       HT       0.417000       1.00800           0   0.00000     -0.301140E-02
     34256 TIP3     3114     TIP3     OH2      OT      -0.834000       15.9994           0   0.00000       0.00000    
     34257 TIP3     3114     TIP3     H1       HT       0.417000       1.00800           0   0.00000       0.00000    
     34258 TIP3     3114     TIP3     H2       HT       0.417000       1.00800           0   0.00000     -0.301140E-02
     34259 TIP3     3115     TIP3     OH2      OT      -0.834000       15.9994           0   0.00000       0.00000    
     34260 TIP3     3115     TIP3     H1       HT       0.417000       1.00800           0   0.00000       0.00000    
     34261 TIP3     3115     TIP3     H2       HT       0.417000       1.00800           0   0.00000     -0.301140E-02
     34262 TIP3     3116     TIP3     OH2      OT      -0.834000       15.9994           0   0.00000       0.00000    
     34263 TIP3     3116     TIP3     H1       HT       0.417000       1.00800           0   0.00000       0.00000    
     34264 TIP3     3116     TIP3     H2       HT       0.417000       1.00800           0   0.00000     -0.301140E-02
     34265 TIP3     3117     TIP3     OH2      OT      -0.834000       15.9994           0   0.00000       0.00000    
     34266 TIP3     3117     TIP3     H1       HT       0.417000       1.00800           0   0.00000       0.00000    
     34267 TIP3     3117     TIP3     H2       HT       0.417000       1.00800           0   0.00000     -0.301140E-02
     34268 TIP3     3118     TIP3     OH2      OT      -0.834000       15.9994           0   0.00000       0.00000    
     34269 TIP3     3118     TIP3     H1       HT       0.417000       1.00800           0   0.00000       0.00000    
     34270 TIP3     3118     TIP3     H2       HT       0.417000       1.00800           0   0.00000     -0.301140E-02
     34271 TIP3     3119     TIP3     OH2      OT      -0.834000       15.9994           0   0.00000       0.00000    
     34272 TIP3     3119     TIP3     H1       HT       0.417000       1.00800           0   0.00000       0.00000    
     34273 TIP3     3119     TIP3     H2       HT       0.417000       1.00800           0   0.00000     -0.301140E-02
     34274 TIP3     3120     TIP3     OH2      OT      -0.834000       15.9994           0   0.00000       0.00000    
     34275 TIP3     3120     TIP3     H1       HT       0.417000       1.00800           0   0.00000       0.00000    
     34276 TIP3     3120     TIP3     H2       HT       0.417000       1.00800           0   0.00000     -0.301140E-02
     34277 TIP3     3121     TIP3     OH2      OT      -0.834000       15.9994           0   0.00000       0.00000    
     34278 TIP3     3121     TIP3     H1       HT       0.417000       1.00800           0   0.00000       0.00000    
     34279 TIP3     3121     TIP3     H2       HT       0.417000       1.00800           0   0.00000     -0.301140E-02
     34280 TIP3     3122     TIP3     OH2      OT      -0.834000       15.9994           0   0.00000       0.00000    
     34281 TIP3     3122     TIP3     H1       HT       0.417000       1.00800           0   0.00000       0.00000    
     34282 TIP3     3122     TIP3     H2       HT       0.417000       1.00800           0   0.00000     -0.301140E-02
     34283 TIP3     3123     TIP3     OH2      OT      -0.834000       15.9994           0   0.00000       0.00000    
     34284 TIP3     3123     TIP3     H1       HT       0.417000       1.00800           0   0.00000       0.00000    
     34285 TIP3     3123     TIP3     H2       HT       0.417000       1.00800           0   0.00000     -0.301140E-02
     34286 TIP3     3124     TIP3     OH2      OT      -0.834000       15.9994           0   0.00000       0.00000    
     34287 TIP3     3124     TIP3     H1       HT       0.417000       1.00800           0   0.00000       0.00000    
     34288 TIP3     3124     TIP3     H2       HT       0.417000       1.00800           0   0.00000     -0.301140E-02
     34289 TIP3     3125     TIP3     OH2      OT      -0.834000       15.9994           0   0.00000       0.00000    
     34290 TIP3     3125     TIP3     H1       HT       0.417000       1.00800           0   0.00000       0.00000    
     34291 TIP3     3125     TIP3     H2       HT       0.417000       1.00800           0   0.00000     -0.301140E-02
     34292 TIP3     3126     TIP3     OH2      OT      -0.834000       15.9994           0   0.00000       0.00000    
     34293 TIP3     3126     TIP3     H1       HT       0.417000       1.00800           0   0.00000       0.00000    
     34294 TIP3     3126     TIP3     H2       HT       0.417000       1.00800           0   0.00000     -0.301140E-02
     34295 TIP3     3127     TIP3     OH2      OT      -0.834000       15.9994           0   0.00000       0.00000    
     34296 TIP3     3127     TIP3     H1       HT       0.417000       1.00800           0   0.00000       0.00000    
     34297 TIP3     3127     TIP3     H2       HT       0.417000       1.00800           0   0.00000     -0.301140E-02
     34298 TIP3     3128     TIP3     OH2      OT      -0.834000       15.9994           0   0.00000       0.00000    
     34299 TIP3     3128     TIP3     H1       HT       0.417000       1.00800           0   0.00000       0.00000    
     34300 TIP3     3128     TIP3     H2       HT       0.417000       1.00800           0   0.00000     -0.301140E-02
     34301 TIP3     3129     TIP3     OH2      OT      -0.834000       15.9994           0   0.00000       0.00000    
     34302 TIP3     3129     TIP3     H1       HT       0.417000       1.00800           0   0.00000       0.00000    
     34303 TIP3     3129     TIP3     H2       HT       0.417000       1.00800           0   0.00000     -0.301140E-02
     34304 TIP3     3130     TIP3     OH2      OT      -0.834000       15.9994           0   0.00000       0.00000    
     34305 TIP3     3130     TIP3     H1       HT       0.417000       1.00800           0   0.00000       0.00000    
     34306 TIP3     3130     TIP3     H2       HT       0.417000       1.00800           0   0.00000     -0.301140E-02
     34307 TIP3     3131     TIP3     OH2      OT      -0.834000       15.9994           0   0.00000       0.00000    
     34308 TIP3     3131     TIP3     H1       HT       0.417000       1.00800           0   0.00000       0.00000    
     34309 TIP3     3131     TIP3     H2       HT       0.417000       1.00800           0   0.00000     -0.301140E-02
     34310 TIP3     3132     TIP3     OH2      OT      -0.834000       15.9994           0   0.00000       0.00000    
     34311 TIP3     3132     TIP3     H1       HT       0.417000       1.00800           0   0.00000       0.00000    
     34312 TIP3     3132     TIP3     H2       HT       0.417000       1.00800           0   0.00000     -0.301140E-02
     34313 TIP3     3133     TIP3     OH2      OT      -0.834000       15.9994           0   0.00000       0.00000    
     34314 TIP3     3133     TIP3     H1       HT       0.417000       1.00800           0   0.00000       0.00000    
     34315 TIP3     3133     TIP3     H2       HT       0.417000       1.00800           0   0.00000     -0.301140E-02
     34316 TIP3     3134     TIP3     OH2      OT      -0.834000       15.9994           0   0.00000       0.00000    
     34317 TIP3     3134     TIP3     H1       HT       0.417000       1.00800           0   0.00000       0.00000    
     34318 TIP3     3134     TIP3     H2       HT       0.417000       1.00800           0   0.00000     -0.301140E-02
     34319 TIP3     3135     TIP3     OH2      OT      -0.834000       15.9994           0   0.00000       0.00000    
     34320 TIP3     3135     TIP3     H1       HT       0.417000       1.00800           0   0.00000       0.00000    
     34321 TIP3     3135     TIP3     H2       HT       0.417000       1.00800           0   0.00000     -0.301140E-02
     34322 TIP3     3136     TIP3     OH2      OT      -0.834000       15.9994           0   0.00000       0.00000    
     34323 TIP3     3136     TIP3     H1       HT       0.417000       1.00800           0   0.00000       0.00000    
     34324 TIP3     3136     TIP3     H2       HT       0.417000       1.00800           0   0.00000     -0.301140E-02
     34325 TIP3     3137     TIP3     OH2      OT      -0.834000       15.9994           0   0.00000       0.00000    
     34326 TIP3     3137     TIP3     H1       HT       0.417000       1.00800           0   0.00000       0.00000    
     34327 TIP3     3137     TIP3     H2       HT       0.417000       1.00800           0   0.00000     -0.301140E-02
     34328 TIP3     3138     TIP3     OH2      OT      -0.834000       15.9994           0   0.00000       0.00000    
     34329 TIP3     3138     TIP3     H1       HT       0.417000       1.00800           0   0.00000       0.00000    
     34330 TIP3     3138     TIP3     H2       HT       0.417000       1.00800           0   0.00000     -0.301140E-02
     34331 TIP3     3139     TIP3     OH2      OT      -0.834000       15.9994           0   0.00000       0.00000    
     34332 TIP3     3139     TIP3     H1       HT       0.417000       1.00800           0   0.00000       0.00000    
     34333 TIP3     3139     TIP3     H2       HT       0.417000       1.00800           0   0.00000     -0.301140E-02
     34334 TIP3     3140     TIP3     OH2      OT      -0.834000       15.9994           0   0.00000       0.00000    
     34335 TIP3     3140     TIP3     H1       HT       0.417000       1.00800           0   0.00000       0.00000    
     34336 TIP3     3140     TIP3     H2       HT       0.417000       1.00800           0   0.00000     -0.301140E-02
     34337 TIP3     3141     TIP3     OH2      OT      -0.834000       15.9994           0   0.00000       0.00000    
     34338 TIP3     3141     TIP3     H1       HT       0.417000       1.00800           0   0.00000       0.00000    
     34339 TIP3     3141     TIP3     H2       HT       0.417000       1.00800           0   0.00000     -0.301140E-02
     34340 TIP3     3142     TIP3     OH2      OT      -0.834000       15.9994           0   0.00000       0.00000    
     34341 TIP3     3142     TIP3     H1       HT       0.417000       1.00800           0   0.00000       0.00000    
     34342 TIP3     3142     TIP3     H2       HT       0.417000       1.00800           0   0.00000     -0.301140E-02
     34343 TIP3     3143     TIP3     OH2      OT      -0.834000       15.9994           0   0.00000       0.00000    
     34344 TIP3     3143     TIP3     H1       HT       0.417000       1.00800           0   0.00000       0.00000    
     34345 TIP3     3143     TIP3     H2       HT       0.417000       1.00800           0   0.00000     -0.301140E-02
     34346 TIP3     3144     TIP3     OH2      OT      -0.834000       15.9994           0   0.00000       0.00000    
     34347 TIP3     3144     TIP3     H1       HT       0.417000       1.00800           0   0.00000       0.00000    
     34348 TIP3     3144     TIP3     H2       HT       0.417000       1.00800           0   0.00000     -0.301140E-02
     34349 TIP3     3145     TIP3     OH2      OT      -0.834000       15.9994           0   0.00000       0.00000    
     34350 TIP3     3145     TIP3     H1       HT       0.417000       1.00800           0   0.00000       0.00000    
     34351 TIP3     3145     TIP3     H2       HT       0.417000       1.00800           0   0.00000     -0.301140E-02
     34352 TIP3     3146     TIP3     OH2      OT      -0.834000       15.9994           0   0.00000       0.00000    
     34353 TIP3     3146     TIP3     H1       HT       0.417000       1.00800           0   0.00000       0.00000    
     34354 TIP3     3146     TIP3     H2       HT       0.417000       1.00800           0   0.00000     -0.301140E-02
     34355 TIP3     3147     TIP3     OH2      OT      -0.834000       15.9994           0   0.00000       0.00000    
     34356 TIP3     3147     TIP3     H1       HT       0.417000       1.00800           0   0.00000       0.00000    
     34357 TIP3     3147     TIP3     H2       HT       0.417000       1.00800           0   0.00000     -0.301140E-02
     34358 TIP3     3148     TIP3     OH2      OT      -0.834000       15.9994           0   0.00000       0.00000    
     34359 TIP3     3148     TIP3     H1       HT       0.417000       1.00800           0   0.00000       0.00000    
     34360 TIP3     3148     TIP3     H2       HT       0.417000       1.00800           0   0.00000     -0.301140E-02
     34361 TIP3     3149     TIP3     OH2      OT      -0.834000       15.9994           0   0.00000       0.00000    
     34362 TIP3     3149     TIP3     H1       HT       0.417000       1.00800           0   0.00000       0.00000    
     34363 TIP3     3149     TIP3     H2       HT       0.417000       1.00800           0   0.00000     -0.301140E-02
     34364 TIP3     3150     TIP3     OH2      OT      -0.834000       15.9994           0   0.00000       0.00000    
     34365 TIP3     3150     TIP3     H1       HT       0.417000       1.00800           0   0.00000       0.00000    
     34366 TIP3     3150     TIP3     H2       HT       0.417000       1.00800           0   0.00000     -0.301140E-02
     34367 TIP3     3151     TIP3     OH2      OT      -0.834000       15.9994           0   0.00000       0.00000    
     34368 TIP3     3151     TIP3     H1       HT       0.417000       1.00800           0   0.00000       0.00000    
     34369 TIP3     3151     TIP3     H2       HT       0.417000       1.00800           0   0.00000     -0.301140E-02
     34370 TIP3     3152     TIP3     OH2      OT      -0.834000       15.9994           0   0.00000       0.00000    
     34371 TIP3     3152     TIP3     H1       HT       0.417000       1.00800           0   0.00000       0.00000    
     34372 TIP3     3152     TIP3     H2       HT       0.417000       1.00800           0   0.00000     -0.301140E-02
     34373 TIP3     3153     TIP3     OH2      OT      -0.834000       15.9994           0   0.00000       0.00000    
     34374 TIP3     3153     TIP3     H1       HT       0.417000       1.00800           0   0.00000       0.00000    
     34375 TIP3     3153     TIP3     H2       HT       0.417000       1.00800           0   0.00000     -0.301140E-02
     34376 TIP3     3154     TIP3     OH2      OT      -0.834000       15.9994           0   0.00000       0.00000    
     34377 TIP3     3154     TIP3     H1       HT       0.417000       1.00800           0   0.00000       0.00000    
     34378 TIP3     3154     TIP3     H2       HT       0.417000       1.00800           0   0.00000     -0.301140E-02
     34379 TIP3     3155     TIP3     OH2      OT      -0.834000       15.9994           0   0.00000       0.00000    
     34380 TIP3     3155     TIP3     H1       HT       0.417000       1.00800           0   0.00000       0.00000    
     34381 TIP3     3155     TIP3     H2       HT       0.417000       1.00800           0   0.00000     -0.301140E-02
     34382 TIP3     3156     TIP3     OH2      OT      -0.834000       15.9994           0   0.00000       0.00000    
     34383 TIP3     3156     TIP3     H1       HT       0.417000       1.00800           0   0.00000       0.00000    
     34384 TIP3     3156     TIP3     H2       HT       0.417000       1.00800           0   0.00000     -0.301140E-02
     34385 TIP3     3157     TIP3     OH2      OT      -0.834000       15.9994           0   0.00000       0.00000    
     34386 TIP3     3157     TIP3     H1       HT       0.417000       1.00800           0   0.00000       0.00000    
     34387 TIP3     3157     TIP3     H2       HT       0.417000       1.00800           0   0.00000     -0.301140E-02
     34388 TIP3     3158     TIP3     OH2      OT      -0.834000       15.9994           0   0.00000       0.00000    
     34389 TIP3     3158     TIP3     H1       HT       0.417000       1.00800           0   0.00000       0.00000    
     34390 TIP3     3158     TIP3     H2       HT       0.417000       1.00800           0   0.00000     -0.301140E-02
     34391 TIP3     3159     TIP3     OH2      OT      -0.834000       15.9994           0   0.00000       0.00000    
     34392 TIP3     3159     TIP3     H1       HT       0.417000       1.00800           0   0.00000       0.00000    
     34393 TIP3     3159     TIP3     H2       HT       0.417000       1.00800           0   0.00000     -0.301140E-02
     34394 TIP3     3160     TIP3     OH2      OT      -0.834000       15.9994           0   0.00000       0.00000    
     34395 TIP3     3160     TIP3     H1       HT       0.417000       1.00800           0   0.00000       0.00000    
     34396 TIP3     3160     TIP3     H2       HT       0.417000       1.00800           0   0.00000     -0.301140E-02
     34397 TIP3     3161     TIP3     OH2      OT      -0.834000       15.9994           0   0.00000       0.00000    
     34398 TIP3     3161     TIP3     H1       HT       0.417000       1.00800           0   0.00000       0.00000    
     34399 TIP3     3161     TIP3     H2       HT       0.417000       1.00800           0   0.00000     -0.301140E-02
     34400 TIP3     3162     TIP3     OH2      OT      -0.834000       15.9994           0   0.00000       0.00000    
     34401 TIP3     3162     TIP3     H1       HT       0.417000       1.00800           0   0.00000       0.00000    
     34402 TIP3     3162     TIP3     H2       HT       0.417000       1.00800           0   0.00000     -0.301140E-02
     34403 TIP3     3163     TIP3     OH2      OT      -0.834000       15.9994           0   0.00000       0.00000    
     34404 TIP3     3163     TIP3     H1       HT       0.417000       1.00800           0   0.00000       0.00000    
     34405 TIP3     3163     TIP3     H2       HT       0.417000       1.00800           0   0.00000     -0.301140E-02
     34406 TIP3     3164     TIP3     OH2      OT      -0.834000       15.9994           0   0.00000       0.00000    
     34407 TIP3     3164     TIP3     H1       HT       0.417000       1.00800           0   0.00000       0.00000    
     34408 TIP3     3164     TIP3     H2       HT       0.417000       1.00800           0   0.00000     -0.301140E-02
     34409 TIP3     3165     TIP3     OH2      OT      -0.834000       15.9994           0   0.00000       0.00000    
     34410 TIP3     3165     TIP3     H1       HT       0.417000       1.00800           0   0.00000       0.00000    
     34411 TIP3     3165     TIP3     H2       HT       0.417000       1.00800           0   0.00000     -0.301140E-02
     34412 TIP3     3166     TIP3     OH2      OT      -0.834000       15.9994           0   0.00000       0.00000    
     34413 TIP3     3166     TIP3     H1       HT       0.417000       1.00800           0   0.00000       0.00000    
     34414 TIP3     3166     TIP3     H2       HT       0.417000       1.00800           0   0.00000     -0.301140E-02
     34415 TIP3     3167     TIP3     OH2      OT      -0.834000       15.9994           0   0.00000       0.00000    
     34416 TIP3     3167     TIP3     H1       HT       0.417000       1.00800           0   0.00000       0.00000    
     34417 TIP3     3167     TIP3     H2       HT       0.417000       1.00800           0   0.00000     -0.301140E-02
     34418 TIP3     3168     TIP3     OH2      OT      -0.834000       15.9994           0   0.00000       0.00000    
     34419 TIP3     3168     TIP3     H1       HT       0.417000       1.00800           0   0.00000       0.00000    
     34420 TIP3     3168     TIP3     H2       HT       0.417000       1.00800           0   0.00000     -0.301140E-02
     34421 TIP3     3169     TIP3     OH2      OT      -0.834000       15.9994           0   0.00000       0.00000    
     34422 TIP3     3169     TIP3     H1       HT       0.417000       1.00800           0   0.00000       0.00000    
     34423 TIP3     3169     TIP3     H2       HT       0.417000       1.00800           0   0.00000     -0.301140E-02
     34424 TIP3     3170     TIP3     OH2      OT      -0.834000       15.9994           0   0.00000       0.00000    
     34425 TIP3     3170     TIP3     H1       HT       0.417000       1.00800           0   0.00000       0.00000    
     34426 TIP3     3170     TIP3     H2       HT       0.417000       1.00800           0   0.00000     -0.301140E-02
     34427 TIP3     3171     TIP3     OH2      OT      -0.834000       15.9994           0   0.00000       0.00000    
     34428 TIP3     3171     TIP3     H1       HT       0.417000       1.00800           0   0.00000       0.00000    
     34429 TIP3     3171     TIP3     H2       HT       0.417000       1.00800           0   0.00000     -0.301140E-02
     34430 TIP3     3172     TIP3     OH2      OT      -0.834000       15.9994           0   0.00000       0.00000    
     34431 TIP3     3172     TIP3     H1       HT       0.417000       1.00800           0   0.00000       0.00000    
     34432 TIP3     3172     TIP3     H2       HT       0.417000       1.00800           0   0.00000     -0.301140E-02
     34433 TIP3     3173     TIP3     OH2      OT      -0.834000       15.9994           0   0.00000       0.00000    
     34434 TIP3     3173     TIP3     H1       HT       0.417000       1.00800           0   0.00000       0.00000    
     34435 TIP3     3173     TIP3     H2       HT       0.417000       1.00800           0   0.00000     -0.301140E-02
     34436 TIP3     3174     TIP3     OH2      OT      -0.834000       15.9994           0   0.00000       0.00000    
     34437 TIP3     3174     TIP3     H1       HT       0.417000       1.00800           0   0.00000       0.00000    
     34438 TIP3     3174     TIP3     H2       HT       0.417000       1.00800           0   0.00000     -0.301140E-02
     34439 TIP3     3175     TIP3     OH2      OT      -0.834000       15.9994           0   0.00000       0.00000    
     34440 TIP3     3175     TIP3     H1       HT       0.417000       1.00800           0   0.00000       0.00000    
     34441 TIP3     3175     TIP3     H2       HT       0.417000       1.00800           0   0.00000     -0.301140E-02
     34442 TIP3     3176     TIP3     OH2      OT      -0.834000       15.9994           0   0.00000       0.00000    
     34443 TIP3     3176     TIP3     H1       HT       0.417000       1.00800           0   0.00000       0.00000    
     34444 TIP3     3176     TIP3     H2       HT       0.417000       1.00800           0   0.00000     -0.301140E-02
     34445 TIP3     3177     TIP3     OH2      OT      -0.834000       15.9994           0   0.00000       0.00000    
     34446 TIP3     3177     TIP3     H1       HT       0.417000       1.00800           0   0.00000       0.00000    
     34447 TIP3     3177     TIP3     H2       HT       0.417000       1.00800           0   0.00000     -0.301140E-02
     34448 TIP3     3178     TIP3     OH2      OT      -0.834000       15.9994           0   0.00000       0.00000    
     34449 TIP3     3178     TIP3     H1       HT       0.417000       1.00800           0   0.00000       0.00000    
     34450 TIP3     3178     TIP3     H2       HT       0.417000       1.00800           0   0.00000     -0.301140E-02
     34451 TIP3     3179     TIP3     OH2      OT      -0.834000       15.9994           0   0.00000       0.00000    
     34452 TIP3     3179     TIP3     H1       HT       0.417000       1.00800           0   0.00000       0.00000    
     34453 TIP3     3179     TIP3     H2       HT       0.417000       1.00800           0   0.00000     -0.301140E-02
     34454 TIP3     3180     TIP3     OH2      OT      -0.834000       15.9994           0   0.00000       0.00000    
     34455 TIP3     3180     TIP3     H1       HT       0.417000       1.00800           0   0.00000       0.00000    
     34456 TIP3     3180     TIP3     H2       HT       0.417000       1.00800           0   0.00000     -0.301140E-02
     34457 TIP3     3181     TIP3     OH2      OT      -0.834000       15.9994           0   0.00000       0.00000    
     34458 TIP3     3181     TIP3     H1       HT       0.417000       1.00800           0   0.00000       0.00000    
     34459 TIP3     3181     TIP3     H2       HT       0.417000       1.00800           0   0.00000     -0.301140E-02
     34460 TIP3     3182     TIP3     OH2      OT      -0.834000       15.9994           0   0.00000       0.00000    
     34461 TIP3     3182     TIP3     H1       HT       0.417000       1.00800           0   0.00000       0.00000    
     34462 TIP3     3182     TIP3     H2       HT       0.417000       1.00800           0   0.00000     -0.301140E-02
     34463 TIP3     3183     TIP3     OH2      OT      -0.834000       15.9994           0   0.00000       0.00000    
     34464 TIP3     3183     TIP3     H1       HT       0.417000       1.00800           0   0.00000       0.00000    
     34465 TIP3     3183     TIP3     H2       HT       0.417000       1.00800           0   0.00000     -0.301140E-02
     34466 TIP3     3184     TIP3     OH2      OT      -0.834000       15.9994           0   0.00000       0.00000    
     34467 TIP3     3184     TIP3     H1       HT       0.417000       1.00800           0   0.00000       0.00000    
     34468 TIP3     3184     TIP3     H2       HT       0.417000       1.00800           0   0.00000     -0.301140E-02
     34469 TIP3     3185     TIP3     OH2      OT      -0.834000       15.9994           0   0.00000       0.00000    
     34470 TIP3     3185     TIP3     H1       HT       0.417000       1.00800           0   0.00000       0.00000    
     34471 TIP3     3185     TIP3     H2       HT       0.417000       1.00800           0   0.00000     -0.301140E-02
     34472 TIP3     3186     TIP3     OH2      OT      -0.834000       15.9994           0   0.00000       0.00000    
     34473 TIP3     3186     TIP3     H1       HT       0.417000       1.00800           0   0.00000       0.00000    
     34474 TIP3     3186     TIP3     H2       HT       0.417000       1.00800           0   0.00000     -0.301140E-02
     34475 TIP3     3187     TIP3     OH2      OT      -0.834000       15.9994           0   0.00000       0.00000    
     34476 TIP3     3187     TIP3     H1       HT       0.417000       1.00800           0   0.00000       0.00000    
     34477 TIP3     3187     TIP3     H2       HT       0.417000       1.00800           0   0.00000     -0.301140E-02
     34478 TIP3     3188     TIP3     OH2      OT      -0.834000       15.9994           0   0.00000       0.00000    
     34479 TIP3     3188     TIP3     H1       HT       0.417000       1.00800           0   0.00000       0.00000    
     34480 TIP3     3188     TIP3     H2       HT       0.417000       1.00800           0   0.00000     -0.301140E-02
     34481 TIP3     3189     TIP3     OH2      OT      -0.834000       15.9994           0   0.00000       0.00000    
     34482 TIP3     3189     TIP3     H1       HT       0.417000       1.00800           0   0.00000       0.00000    
     34483 TIP3     3189     TIP3     H2       HT       0.417000       1.00800           0   0.00000     -0.301140E-02
     34484 TIP3     3190     TIP3     OH2      OT      -0.834000       15.9994           0   0.00000       0.00000    
     34485 TIP3     3190     TIP3     H1       HT       0.417000       1.00800           0   0.00000       0.00000    
     34486 TIP3     3190     TIP3     H2       HT       0.417000       1.00800           0   0.00000     -0.301140E-02
     34487 TIP3     3191     TIP3     OH2      OT      -0.834000       15.9994           0   0.00000       0.00000    
     34488 TIP3     3191     TIP3     H1       HT       0.417000       1.00800           0   0.00000       0.00000    
     34489 TIP3     3191     TIP3     H2       HT       0.417000       1.00800           0   0.00000     -0.301140E-02
     34490 TIP3     3192     TIP3     OH2      OT      -0.834000       15.9994           0   0.00000       0.00000    
     34491 TIP3     3192     TIP3     H1       HT       0.417000       1.00800           0   0.00000       0.00000    
     34492 TIP3     3192     TIP3     H2       HT       0.417000       1.00800           0   0.00000     -0.301140E-02
     34493 TIP3     3193     TIP3     OH2      OT      -0.834000       15.9994           0   0.00000       0.00000    
     34494 TIP3     3193     TIP3     H1       HT       0.417000       1.00800           0   0.00000       0.00000    
     34495 TIP3     3193     TIP3     H2       HT       0.417000       1.00800           0   0.00000     -0.301140E-02
     34496 TIP3     3194     TIP3     OH2      OT      -0.834000       15.9994           0   0.00000       0.00000    
     34497 TIP3     3194     TIP3     H1       HT       0.417000       1.00800           0   0.00000       0.00000    
     34498 TIP3     3194     TIP3     H2       HT       0.417000       1.00800           0   0.00000     -0.301140E-02
     34499 TIP3     3195     TIP3     OH2      OT      -0.834000       15.9994           0   0.00000       0.00000    
     34500 TIP3     3195     TIP3     H1       HT       0.417000       1.00800           0   0.00000       0.00000    
     34501 TIP3     3195     TIP3     H2       HT       0.417000       1.00800           0   0.00000     -0.301140E-02
     34502 TIP3     3196     TIP3     OH2      OT      -0.834000       15.9994           0   0.00000       0.00000    
     34503 TIP3     3196     TIP3     H1       HT       0.417000       1.00800           0   0.00000       0.00000    
     34504 TIP3     3196     TIP3     H2       HT       0.417000       1.00800           0   0.00000     -0.301140E-02
     34505 TIP3     3197     TIP3     OH2      OT      -0.834000       15.9994           0   0.00000       0.00000    
     34506 TIP3     3197     TIP3     H1       HT       0.417000       1.00800           0   0.00000       0.00000    
     34507 TIP3     3197     TIP3     H2       HT       0.417000       1.00800           0   0.00000     -0.301140E-02
     34508 TIP3     3198     TIP3     OH2      OT      -0.834000       15.9994           0   0.00000       0.00000    
     34509 TIP3     3198     TIP3     H1       HT       0.417000       1.00800           0   0.00000       0.00000    
     34510 TIP3     3198     TIP3     H2       HT       0.417000       1.00800           0   0.00000     -0.301140E-02
     34511 TIP3     3199     TIP3     OH2      OT      -0.834000       15.9994           0   0.00000       0.00000    
     34512 TIP3     3199     TIP3     H1       HT       0.417000       1.00800           0   0.00000       0.00000    
     34513 TIP3     3199     TIP3     H2       HT       0.417000       1.00800           0   0.00000     -0.301140E-02
     34514 TIP3     3200     TIP3     OH2      OT      -0.834000       15.9994           0   0.00000       0.00000    
     34515 TIP3     3200     TIP3     H1       HT       0.417000       1.00800           0   0.00000       0.00000    
     34516 TIP3     3200     TIP3     H2       HT       0.417000       1.00800           0   0.00000     -0.301140E-02
     34517 TIP3     3201     TIP3     OH2      OT      -0.834000       15.9994           0   0.00000       0.00000    
     34518 TIP3     3201     TIP3     H1       HT       0.417000       1.00800           0   0.00000       0.00000    
     34519 TIP3     3201     TIP3     H2       HT       0.417000       1.00800           0   0.00000     -0.301140E-02
     34520 TIP3     3202     TIP3     OH2      OT      -0.834000       15.9994           0   0.00000       0.00000    
     34521 TIP3     3202     TIP3     H1       HT       0.417000       1.00800           0   0.00000       0.00000    
     34522 TIP3     3202     TIP3     H2       HT       0.417000       1.00800           0   0.00000     -0.301140E-02
     34523 TIP3     3203     TIP3     OH2      OT      -0.834000       15.9994           0   0.00000       0.00000    
     34524 TIP3     3203     TIP3     H1       HT       0.417000       1.00800           0   0.00000       0.00000    
     34525 TIP3     3203     TIP3     H2       HT       0.417000       1.00800           0   0.00000     -0.301140E-02
     34526 TIP3     3204     TIP3     OH2      OT      -0.834000       15.9994           0   0.00000       0.00000    
     34527 TIP3     3204     TIP3     H1       HT       0.417000       1.00800           0   0.00000       0.00000    
     34528 TIP3     3204     TIP3     H2       HT       0.417000       1.00800           0   0.00000     -0.301140E-02
     34529 TIP3     3205     TIP3     OH2      OT      -0.834000       15.9994           0   0.00000       0.00000    
     34530 TIP3     3205     TIP3     H1       HT       0.417000       1.00800           0   0.00000       0.00000    
     34531 TIP3     3205     TIP3     H2       HT       0.417000       1.00800           0   0.00000     -0.301140E-02
     34532 TIP3     3206     TIP3     OH2      OT      -0.834000       15.9994           0   0.00000       0.00000    
     34533 TIP3     3206     TIP3     H1       HT       0.417000       1.00800           0   0.00000       0.00000    
     34534 TIP3     3206     TIP3     H2       HT       0.417000       1.00800           0   0.00000     -0.301140E-02
     34535 TIP3     3207     TIP3     OH2      OT      -0.834000       15.9994           0   0.00000       0.00000    
     34536 TIP3     3207     TIP3     H1       HT       0.417000       1.00800           0   0.00000       0.00000    
     34537 TIP3     3207     TIP3     H2       HT       0.417000       1.00800           0   0.00000     -0.301140E-02
     34538 TIP3     3208     TIP3     OH2      OT      -0.834000       15.9994           0   0.00000       0.00000    
     34539 TIP3     3208     TIP3     H1       HT       0.417000       1.00800           0   0.00000       0.00000    
     34540 TIP3     3208     TIP3     H2       HT       0.417000       1.00800           0   0.00000     -0.301140E-02
     34541 TIP3     3209     TIP3     OH2      OT      -0.834000       15.9994           0   0.00000       0.00000    
     34542 TIP3     3209     TIP3     H1       HT       0.417000       1.00800           0   0.00000       0.00000    
     34543 TIP3     3209     TIP3     H2       HT       0.417000       1.00800           0   0.00000     -0.301140E-02
     34544 TIP3     3210     TIP3     OH2      OT      -0.834000       15.9994           0   0.00000       0.00000    
     34545 TIP3     3210     TIP3     H1       HT       0.417000       1.00800           0   0.00000       0.00000    
     34546 TIP3     3210     TIP3     H2       HT       0.417000       1.00800           0   0.00000     -0.301140E-02
     34547 TIP3     3211     TIP3     OH2      OT      -0.834000       15.9994           0   0.00000       0.00000    
     34548 TIP3     3211     TIP3     H1       HT       0.417000       1.00800           0   0.00000       0.00000    
     34549 TIP3     3211     TIP3     H2       HT       0.417000       1.00800           0   0.00000     -0.301140E-02
     34550 TIP3     3212     TIP3     OH2      OT      -0.834000       15.9994           0   0.00000       0.00000    
     34551 TIP3     3212     TIP3     H1       HT       0.417000       1.00800           0   0.00000       0.00000    
     34552 TIP3     3212     TIP3     H2       HT       0.417000       1.00800           0   0.00000     -0.301140E-02
     34553 TIP3     3213     TIP3     OH2      OT      -0.834000       15.9994           0   0.00000       0.00000    
     34554 TIP3     3213     TIP3     H1       HT       0.417000       1.00800           0   0.00000       0.00000    
     34555 TIP3     3213     TIP3     H2       HT       0.417000       1.00800           0   0.00000     -0.301140E-02
     34556 TIP3     3214     TIP3     OH2      OT      -0.834000       15.9994           0   0.00000       0.00000    
     34557 TIP3     3214     TIP3     H1       HT       0.417000       1.00800           0   0.00000       0.00000    
     34558 TIP3     3214     TIP3     H2       HT       0.417000       1.00800           0   0.00000     -0.301140E-02
     34559 TIP3     3215     TIP3     OH2      OT      -0.834000       15.9994           0   0.00000       0.00000    
     34560 TIP3     3215     TIP3     H1       HT       0.417000       1.00800           0   0.00000       0.00000    
     34561 TIP3     3215     TIP3     H2       HT       0.417000       1.00800           0   0.00000     -0.301140E-02
     34562 TIP3     3216     TIP3     OH2      OT      -0.834000       15.9994           0   0.00000       0.00000    
     34563 TIP3     3216     TIP3     H1       HT       0.417000       1.00800           0   0.00000       0.00000    
     34564 TIP3     3216     TIP3     H2       HT       0.417000       1.00800           0   0.00000     -0.301140E-02
     34565 TIP3     3217     TIP3     OH2      OT      -0.834000       15.9994           0   0.00000       0.00000    
     34566 TIP3     3217     TIP3     H1       HT       0.417000       1.00800           0   0.00000       0.00000    
     34567 TIP3     3217     TIP3     H2       HT       0.417000       1.00800           0   0.00000     -0.301140E-02
     34568 TIP3     3218     TIP3     OH2      OT      -0.834000       15.9994           0   0.00000       0.00000    
     34569 TIP3     3218     TIP3     H1       HT       0.417000       1.00800           0   0.00000       0.00000    
     34570 TIP3     3218     TIP3     H2       HT       0.417000       1.00800           0   0.00000     -0.301140E-02
     34571 TIP3     3219     TIP3     OH2      OT      -0.834000       15.9994           0   0.00000       0.00000    
     34572 TIP3     3219     TIP3     H1       HT       0.417000       1.00800           0   0.00000       0.00000    
     34573 TIP3     3219     TIP3     H2       HT       0.417000       1.00800           0   0.00000     -0.301140E-02
     34574 TIP3     3220     TIP3     OH2      OT      -0.834000       15.9994           0   0.00000       0.00000    
     34575 TIP3     3220     TIP3     H1       HT       0.417000       1.00800           0   0.00000       0.00000    
     34576 TIP3     3220     TIP3     H2       HT       0.417000       1.00800           0   0.00000     -0.301140E-02
     34577 TIP3     3221     TIP3     OH2      OT      -0.834000       15.9994           0   0.00000       0.00000    
     34578 TIP3     3221     TIP3     H1       HT       0.417000       1.00800           0   0.00000       0.00000    
     34579 TIP3     3221     TIP3     H2       HT       0.417000       1.00800           0   0.00000     -0.301140E-02
     34580 TIP3     3222     TIP3     OH2      OT      -0.834000       15.9994           0   0.00000       0.00000    
     34581 TIP3     3222     TIP3     H1       HT       0.417000       1.00800           0   0.00000       0.00000    
     34582 TIP3     3222     TIP3     H2       HT       0.417000       1.00800           0   0.00000     -0.301140E-02
     34583 TIP3     3223     TIP3     OH2      OT      -0.834000       15.9994           0   0.00000       0.00000    
     34584 TIP3     3223     TIP3     H1       HT       0.417000       1.00800           0   0.00000       0.00000    
     34585 TIP3     3223     TIP3     H2       HT       0.417000       1.00800           0   0.00000     -0.301140E-02
     34586 TIP3     3224     TIP3     OH2      OT      -0.834000       15.9994           0   0.00000       0.00000    
     34587 TIP3     3224     TIP3     H1       HT       0.417000       1.00800           0   0.00000       0.00000    
     34588 TIP3     3224     TIP3     H2       HT       0.417000       1.00800           0   0.00000     -0.301140E-02
     34589 TIP3     3225     TIP3     OH2      OT      -0.834000       15.9994           0   0.00000       0.00000    
     34590 TIP3     3225     TIP3     H1       HT       0.417000       1.00800           0   0.00000       0.00000    
     34591 TIP3     3225     TIP3     H2       HT       0.417000       1.00800           0   0.00000     -0.301140E-02
     34592 TIP3     3226     TIP3     OH2      OT      -0.834000       15.9994           0   0.00000       0.00000    
     34593 TIP3     3226     TIP3     H1       HT       0.417000       1.00800           0   0.00000       0.00000    
     34594 TIP3     3226     TIP3     H2       HT       0.417000       1.00800           0   0.00000     -0.301140E-02
     34595 TIP3     3227     TIP3     OH2      OT      -0.834000       15.9994           0   0.00000       0.00000    
     34596 TIP3     3227     TIP3     H1       HT       0.417000       1.00800           0   0.00000       0.00000    
     34597 TIP3     3227     TIP3     H2       HT       0.417000       1.00800           0   0.00000     -0.301140E-02
     34598 TIP3     3228     TIP3     OH2      OT      -0.834000       15.9994           0   0.00000       0.00000    
     34599 TIP3     3228     TIP3     H1       HT       0.417000       1.00800           0   0.00000       0.00000    
     34600 TIP3     3228     TIP3     H2       HT       0.417000       1.00800           0   0.00000     -0.301140E-02
     34601 TIP3     3229     TIP3     OH2      OT      -0.834000       15.9994           0   0.00000       0.00000    
     34602 TIP3     3229     TIP3     H1       HT       0.417000       1.00800           0   0.00000       0.00000    
     34603 TIP3     3229     TIP3     H2       HT       0.417000       1.00800           0   0.00000     -0.301140E-02
     34604 TIP3     3230     TIP3     OH2      OT      -0.834000       15.9994           0   0.00000       0.00000    
     34605 TIP3     3230     TIP3     H1       HT       0.417000       1.00800           0   0.00000       0.00000    
     34606 TIP3     3230     TIP3     H2       HT       0.417000       1.00800           0   0.00000     -0.301140E-02
     34607 TIP3     3231     TIP3     OH2      OT      -0.834000       15.9994           0   0.00000       0.00000    
     34608 TIP3     3231     TIP3     H1       HT       0.417000       1.00800           0   0.00000       0.00000    
     34609 TIP3     3231     TIP3     H2       HT       0.417000       1.00800           0   0.00000     -0.301140E-02
     34610 TIP3     3232     TIP3     OH2      OT      -0.834000       15.9994           0   0.00000       0.00000    
     34611 TIP3     3232     TIP3     H1       HT       0.417000       1.00800           0   0.00000       0.00000    
     34612 TIP3     3232     TIP3     H2       HT       0.417000       1.00800           0   0.00000     -0.301140E-02
     34613 TIP3     3233     TIP3     OH2      OT      -0.834000       15.9994           0   0.00000       0.00000    
     34614 TIP3     3233     TIP3     H1       HT       0.417000       1.00800           0   0.00000       0.00000    
     34615 TIP3     3233     TIP3     H2       HT       0.417000       1.00800           0   0.00000     -0.301140E-02
     34616 TIP3     3234     TIP3     OH2      OT      -0.834000       15.9994           0   0.00000       0.00000    
     34617 TIP3     3234     TIP3     H1       HT       0.417000       1.00800           0   0.00000       0.00000    
     34618 TIP3     3234     TIP3     H2       HT       0.417000       1.00800           0   0.00000     -0.301140E-02
     34619 TIP3     3235     TIP3     OH2      OT      -0.834000       15.9994           0   0.00000       0.00000    
     34620 TIP3     3235     TIP3     H1       HT       0.417000       1.00800           0   0.00000       0.00000    
     34621 TIP3     3235     TIP3     H2       HT       0.417000       1.00800           0   0.00000     -0.301140E-02
     34622 TIP3     3236     TIP3     OH2      OT      -0.834000       15.9994           0   0.00000       0.00000    
     34623 TIP3     3236     TIP3     H1       HT       0.417000       1.00800           0   0.00000       0.00000    
     34624 TIP3     3236     TIP3     H2       HT       0.417000       1.00800           0   0.00000     -0.301140E-02
     34625 TIP3     3237     TIP3     OH2      OT      -0.834000       15.9994           0   0.00000       0.00000    
     34626 TIP3     3237     TIP3     H1       HT       0.417000       1.00800           0   0.00000       0.00000    
     34627 TIP3     3237     TIP3     H2       HT       0.417000       1.00800           0   0.00000     -0.301140E-02
     34628 TIP3     3238     TIP3     OH2      OT      -0.834000       15.9994           0   0.00000       0.00000    
     34629 TIP3     3238     TIP3     H1       HT       0.417000       1.00800           0   0.00000       0.00000    
     34630 TIP3     3238     TIP3     H2       HT       0.417000       1.00800           0   0.00000     -0.301140E-02
     34631 TIP3     3239     TIP3     OH2      OT      -0.834000       15.9994           0   0.00000       0.00000    
     34632 TIP3     3239     TIP3     H1       HT       0.417000       1.00800           0   0.00000       0.00000    
     34633 TIP3     3239     TIP3     H2       HT       0.417000       1.00800           0   0.00000     -0.301140E-02
     34634 TIP3     3240     TIP3     OH2      OT      -0.834000       15.9994           0   0.00000       0.00000    
     34635 TIP3     3240     TIP3     H1       HT       0.417000       1.00800           0   0.00000       0.00000    
     34636 TIP3     3240     TIP3     H2       HT       0.417000       1.00800           0   0.00000     -0.301140E-02
     34637 TIP3     3241     TIP3     OH2      OT      -0.834000       15.9994           0   0.00000       0.00000    
     34638 TIP3     3241     TIP3     H1       HT       0.417000       1.00800           0   0.00000       0.00000    
     34639 TIP3     3241     TIP3     H2       HT       0.417000       1.00800           0   0.00000     -0.301140E-02
     34640 TIP3     3242     TIP3     OH2      OT      -0.834000       15.9994           0   0.00000       0.00000    
     34641 TIP3     3242     TIP3     H1       HT       0.417000       1.00800           0   0.00000       0.00000    
     34642 TIP3     3242     TIP3     H2       HT       0.417000       1.00800           0   0.00000     -0.301140E-02
     34643 TIP3     3243     TIP3     OH2      OT      -0.834000       15.9994           0   0.00000       0.00000    
     34644 TIP3     3243     TIP3     H1       HT       0.417000       1.00800           0   0.00000       0.00000    
     34645 TIP3     3243     TIP3     H2       HT       0.417000       1.00800           0   0.00000     -0.301140E-02
     34646 TIP3     3244     TIP3     OH2      OT      -0.834000       15.9994           0   0.00000       0.00000    
     34647 TIP3     3244     TIP3     H1       HT       0.417000       1.00800           0   0.00000       0.00000    
     34648 TIP3     3244     TIP3     H2       HT       0.417000       1.00800           0   0.00000     -0.301140E-02
     34649 TIP3     3245     TIP3     OH2      OT      -0.834000       15.9994           0   0.00000       0.00000    
     34650 TIP3     3245     TIP3     H1       HT       0.417000       1.00800           0   0.00000       0.00000    
     34651 TIP3     3245     TIP3     H2       HT       0.417000       1.00800           0   0.00000     -0.301140E-02
     34652 TIP3     3246     TIP3     OH2      OT      -0.834000       15.9994           0   0.00000       0.00000    
     34653 TIP3     3246     TIP3     H1       HT       0.417000       1.00800           0   0.00000       0.00000    
     34654 TIP3     3246     TIP3     H2       HT       0.417000       1.00800           0   0.00000     -0.301140E-02
     34655 TIP3     3247     TIP3     OH2      OT      -0.834000       15.9994           0   0.00000       0.00000    
     34656 TIP3     3247     TIP3     H1       HT       0.417000       1.00800           0   0.00000       0.00000    
     34657 TIP3     3247     TIP3     H2       HT       0.417000       1.00800           0   0.00000     -0.301140E-02
     34658 TIP3     3248     TIP3     OH2      OT      -0.834000       15.9994           0   0.00000       0.00000    
     34659 TIP3     3248     TIP3     H1       HT       0.417000       1.00800           0   0.00000       0.00000    
     34660 TIP3     3248     TIP3     H2       HT       0.417000       1.00800           0   0.00000     -0.301140E-02
     34661 TIP3     3249     TIP3     OH2      OT      -0.834000       15.9994           0   0.00000       0.00000    
     34662 TIP3     3249     TIP3     H1       HT       0.417000       1.00800           0   0.00000       0.00000    
     34663 TIP3     3249     TIP3     H2       HT       0.417000       1.00800           0   0.00000     -0.301140E-02
     34664 TIP3     3250     TIP3     OH2      OT      -0.834000       15.9994           0   0.00000       0.00000    
     34665 TIP3     3250     TIP3     H1       HT       0.417000       1.00800           0   0.00000       0.00000    
     34666 TIP3     3250     TIP3     H2       HT       0.417000       1.00800           0   0.00000     -0.301140E-02
     34667 TIP3     3251     TIP3     OH2      OT      -0.834000       15.9994           0   0.00000       0.00000    
     34668 TIP3     3251     TIP3     H1       HT       0.417000       1.00800           0   0.00000       0.00000    
     34669 TIP3     3251     TIP3     H2       HT       0.417000       1.00800           0   0.00000     -0.301140E-02
     34670 TIP3     3252     TIP3     OH2      OT      -0.834000       15.9994           0   0.00000       0.00000    
     34671 TIP3     3252     TIP3     H1       HT       0.417000       1.00800           0   0.00000       0.00000    
     34672 TIP3     3252     TIP3     H2       HT       0.417000       1.00800           0   0.00000     -0.301140E-02
     34673 TIP3     3253     TIP3     OH2      OT      -0.834000       15.9994           0   0.00000       0.00000    
     34674 TIP3     3253     TIP3     H1       HT       0.417000       1.00800           0   0.00000       0.00000    
     34675 TIP3     3253     TIP3     H2       HT       0.417000       1.00800           0   0.00000     -0.301140E-02
     34676 TIP3     3254     TIP3     OH2      OT      -0.834000       15.9994           0   0.00000       0.00000    
     34677 TIP3     3254     TIP3     H1       HT       0.417000       1.00800           0   0.00000       0.00000    
     34678 TIP3     3254     TIP3     H2       HT       0.417000       1.00800           0   0.00000     -0.301140E-02
     34679 TIP3     3255     TIP3     OH2      OT      -0.834000       15.9994           0   0.00000       0.00000    
     34680 TIP3     3255     TIP3     H1       HT       0.417000       1.00800           0   0.00000       0.00000    
     34681 TIP3     3255     TIP3     H2       HT       0.417000       1.00800           0   0.00000     -0.301140E-02
     34682 TIP3     3256     TIP3     OH2      OT      -0.834000       15.9994           0   0.00000       0.00000    
     34683 TIP3     3256     TIP3     H1       HT       0.417000       1.00800           0   0.00000       0.00000    
     34684 TIP3     3256     TIP3     H2       HT       0.417000       1.00800           0   0.00000     -0.301140E-02
     34685 TIP3     3257     TIP3     OH2      OT      -0.834000       15.9994           0   0.00000       0.00000    
     34686 TIP3     3257     TIP3     H1       HT       0.417000       1.00800           0   0.00000       0.00000    
     34687 TIP3     3257     TIP3     H2       HT       0.417000       1.00800           0   0.00000     -0.301140E-02
     34688 TIP3     3258     TIP3     OH2      OT      -0.834000       15.9994           0   0.00000       0.00000    
     34689 TIP3     3258     TIP3     H1       HT       0.417000       1.00800           0   0.00000       0.00000    
     34690 TIP3     3258     TIP3     H2       HT       0.417000       1.00800           0   0.00000     -0.301140E-02
     34691 TIP3     3259     TIP3     OH2      OT      -0.834000       15.9994           0   0.00000       0.00000    
     34692 TIP3     3259     TIP3     H1       HT       0.417000       1.00800           0   0.00000       0.00000    
     34693 TIP3     3259     TIP3     H2       HT       0.417000       1.00800           0   0.00000     -0.301140E-02
     34694 TIP3     3260     TIP3     OH2      OT      -0.834000       15.9994           0   0.00000       0.00000    
     34695 TIP3     3260     TIP3     H1       HT       0.417000       1.00800           0   0.00000       0.00000    
     34696 TIP3     3260     TIP3     H2       HT       0.417000       1.00800           0   0.00000     -0.301140E-02
     34697 TIP3     3261     TIP3     OH2      OT      -0.834000       15.9994           0   0.00000       0.00000    
     34698 TIP3     3261     TIP3     H1       HT       0.417000       1.00800           0   0.00000       0.00000    
     34699 TIP3     3261     TIP3     H2       HT       0.417000       1.00800           0   0.00000     -0.301140E-02
     34700 TIP3     3262     TIP3     OH2      OT      -0.834000       15.9994           0   0.00000       0.00000    
     34701 TIP3     3262     TIP3     H1       HT       0.417000       1.00800           0   0.00000       0.00000    
     34702 TIP3     3262     TIP3     H2       HT       0.417000       1.00800           0   0.00000     -0.301140E-02
     34703 TIP3     3263     TIP3     OH2      OT      -0.834000       15.9994           0   0.00000       0.00000    
     34704 TIP3     3263     TIP3     H1       HT       0.417000       1.00800           0   0.00000       0.00000    
     34705 TIP3     3263     TIP3     H2       HT       0.417000       1.00800           0   0.00000     -0.301140E-02
     34706 TIP3     3264     TIP3     OH2      OT      -0.834000       15.9994           0   0.00000       0.00000    
     34707 TIP3     3264     TIP3     H1       HT       0.417000       1.00800           0   0.00000       0.00000    
     34708 TIP3     3264     TIP3     H2       HT       0.417000       1.00800           0   0.00000     -0.301140E-02
     34709 TIP3     3265     TIP3     OH2      OT      -0.834000       15.9994           0   0.00000       0.00000    
     34710 TIP3     3265     TIP3     H1       HT       0.417000       1.00800           0   0.00000       0.00000    
     34711 TIP3     3265     TIP3     H2       HT       0.417000       1.00800           0   0.00000     -0.301140E-02
     34712 TIP3     3266     TIP3     OH2      OT      -0.834000       15.9994           0   0.00000       0.00000    
     34713 TIP3     3266     TIP3     H1       HT       0.417000       1.00800           0   0.00000       0.00000    
     34714 TIP3     3266     TIP3     H2       HT       0.417000       1.00800           0   0.00000     -0.301140E-02
     34715 TIP3     3267     TIP3     OH2      OT      -0.834000       15.9994           0   0.00000       0.00000    
     34716 TIP3     3267     TIP3     H1       HT       0.417000       1.00800           0   0.00000       0.00000    
     34717 TIP3     3267     TIP3     H2       HT       0.417000       1.00800           0   0.00000     -0.301140E-02
     34718 TIP3     3268     TIP3     OH2      OT      -0.834000       15.9994           0   0.00000       0.00000    
     34719 TIP3     3268     TIP3     H1       HT       0.417000       1.00800           0   0.00000       0.00000    
     34720 TIP3     3268     TIP3     H2       HT       0.417000       1.00800           0   0.00000     -0.301140E-02
     34721 TIP3     3269     TIP3     OH2      OT      -0.834000       15.9994           0   0.00000       0.00000    
     34722 TIP3     3269     TIP3     H1       HT       0.417000       1.00800           0   0.00000       0.00000    
     34723 TIP3     3269     TIP3     H2       HT       0.417000       1.00800           0   0.00000     -0.301140E-02
     34724 TIP3     3270     TIP3     OH2      OT      -0.834000       15.9994           0   0.00000       0.00000    
     34725 TIP3     3270     TIP3     H1       HT       0.417000       1.00800           0   0.00000       0.00000    
     34726 TIP3     3270     TIP3     H2       HT       0.417000       1.00800           0   0.00000     -0.301140E-02
     34727 TIP3     3271     TIP3     OH2      OT      -0.834000       15.9994           0   0.00000       0.00000    
     34728 TIP3     3271     TIP3     H1       HT       0.417000       1.00800           0   0.00000       0.00000    
     34729 TIP3     3271     TIP3     H2       HT       0.417000       1.00800           0   0.00000     -0.301140E-02
     34730 TIP3     3272     TIP3     OH2      OT      -0.834000       15.9994           0   0.00000       0.00000    
     34731 TIP3     3272     TIP3     H1       HT       0.417000       1.00800           0   0.00000       0.00000    
     34732 TIP3     3272     TIP3     H2       HT       0.417000       1.00800           0   0.00000     -0.301140E-02
     34733 TIP3     3273     TIP3     OH2      OT      -0.834000       15.9994           0   0.00000       0.00000    
     34734 TIP3     3273     TIP3     H1       HT       0.417000       1.00800           0   0.00000       0.00000    
     34735 TIP3     3273     TIP3     H2       HT       0.417000       1.00800           0   0.00000     -0.301140E-02
     34736 TIP3     3274     TIP3     OH2      OT      -0.834000       15.9994           0   0.00000       0.00000    
     34737 TIP3     3274     TIP3     H1       HT       0.417000       1.00800           0   0.00000       0.00000    
     34738 TIP3     3274     TIP3     H2       HT       0.417000       1.00800           0   0.00000     -0.301140E-02
     34739 TIP3     3275     TIP3     OH2      OT      -0.834000       15.9994           0   0.00000       0.00000    
     34740 TIP3     3275     TIP3     H1       HT       0.417000       1.00800           0   0.00000       0.00000    
     34741 TIP3     3275     TIP3     H2       HT       0.417000       1.00800           0   0.00000     -0.301140E-02
     34742 TIP3     3276     TIP3     OH2      OT      -0.834000       15.9994           0   0.00000       0.00000    
     34743 TIP3     3276     TIP3     H1       HT       0.417000       1.00800           0   0.00000       0.00000    
     34744 TIP3     3276     TIP3     H2       HT       0.417000       1.00800           0   0.00000     -0.301140E-02
     34745 TIP3     3277     TIP3     OH2      OT      -0.834000       15.9994           0   0.00000       0.00000    
     34746 TIP3     3277     TIP3     H1       HT       0.417000       1.00800           0   0.00000       0.00000    
     34747 TIP3     3277     TIP3     H2       HT       0.417000       1.00800           0   0.00000     -0.301140E-02
     34748 TIP3     3278     TIP3     OH2      OT      -0.834000       15.9994           0   0.00000       0.00000    
     34749 TIP3     3278     TIP3     H1       HT       0.417000       1.00800           0   0.00000       0.00000    
     34750 TIP3     3278     TIP3     H2       HT       0.417000       1.00800           0   0.00000     -0.301140E-02
     34751 TIP3     3279     TIP3     OH2      OT      -0.834000       15.9994           0   0.00000       0.00000    
     34752 TIP3     3279     TIP3     H1       HT       0.417000       1.00800           0   0.00000       0.00000    
     34753 TIP3     3279     TIP3     H2       HT       0.417000       1.00800           0   0.00000     -0.301140E-02
     34754 TIP3     3280     TIP3     OH2      OT      -0.834000       15.9994           0   0.00000       0.00000    
     34755 TIP3     3280     TIP3     H1       HT       0.417000       1.00800           0   0.00000       0.00000    
     34756 TIP3     3280     TIP3     H2       HT       0.417000       1.00800           0   0.00000     -0.301140E-02
     34757 TIP3     3281     TIP3     OH2      OT      -0.834000       15.9994           0   0.00000       0.00000    
     34758 TIP3     3281     TIP3     H1       HT       0.417000       1.00800           0   0.00000       0.00000    
     34759 TIP3     3281     TIP3     H2       HT       0.417000       1.00800           0   0.00000     -0.301140E-02
     34760 TIP3     3282     TIP3     OH2      OT      -0.834000       15.9994           0   0.00000       0.00000    
     34761 TIP3     3282     TIP3     H1       HT       0.417000       1.00800           0   0.00000       0.00000    
     34762 TIP3     3282     TIP3     H2       HT       0.417000       1.00800           0   0.00000     -0.301140E-02
     34763 TIP3     3283     TIP3     OH2      OT      -0.834000       15.9994           0   0.00000       0.00000    
     34764 TIP3     3283     TIP3     H1       HT       0.417000       1.00800           0   0.00000       0.00000    
     34765 TIP3     3283     TIP3     H2       HT       0.417000       1.00800           0   0.00000     -0.301140E-02
     34766 TIP3     3284     TIP3     OH2      OT      -0.834000       15.9994           0   0.00000       0.00000    
     34767 TIP3     3284     TIP3     H1       HT       0.417000       1.00800           0   0.00000       0.00000    
     34768 TIP3     3284     TIP3     H2       HT       0.417000       1.00800           0   0.00000     -0.301140E-02
     34769 TIP3     3285     TIP3     OH2      OT      -0.834000       15.9994           0   0.00000       0.00000    
     34770 TIP3     3285     TIP3     H1       HT       0.417000       1.00800           0   0.00000       0.00000    
     34771 TIP3     3285     TIP3     H2       HT       0.417000       1.00800           0   0.00000     -0.301140E-02
     34772 TIP3     3286     TIP3     OH2      OT      -0.834000       15.9994           0   0.00000       0.00000    
     34773 TIP3     3286     TIP3     H1       HT       0.417000       1.00800           0   0.00000       0.00000    
     34774 TIP3     3286     TIP3     H2       HT       0.417000       1.00800           0   0.00000     -0.301140E-02
     34775 TIP3     3287     TIP3     OH2      OT      -0.834000       15.9994           0   0.00000       0.00000    
     34776 TIP3     3287     TIP3     H1       HT       0.417000       1.00800           0   0.00000       0.00000    
     34777 TIP3     3287     TIP3     H2       HT       0.417000       1.00800           0   0.00000     -0.301140E-02
     34778 TIP3     3288     TIP3     OH2      OT      -0.834000       15.9994           0   0.00000       0.00000    
     34779 TIP3     3288     TIP3     H1       HT       0.417000       1.00800           0   0.00000       0.00000    
     34780 TIP3     3288     TIP3     H2       HT       0.417000       1.00800           0   0.00000     -0.301140E-02
     34781 TIP3     3289     TIP3     OH2      OT      -0.834000       15.9994           0   0.00000       0.00000    
     34782 TIP3     3289     TIP3     H1       HT       0.417000       1.00800           0   0.00000       0.00000    
     34783 TIP3     3289     TIP3     H2       HT       0.417000       1.00800           0   0.00000     -0.301140E-02
     34784 TIP3     3290     TIP3     OH2      OT      -0.834000       15.9994           0   0.00000       0.00000    
     34785 TIP3     3290     TIP3     H1       HT       0.417000       1.00800           0   0.00000       0.00000    
     34786 TIP3     3290     TIP3     H2       HT       0.417000       1.00800           0   0.00000     -0.301140E-02
     34787 TIP3     3291     TIP3     OH2      OT      -0.834000       15.9994           0   0.00000       0.00000    
     34788 TIP3     3291     TIP3     H1       HT       0.417000       1.00800           0   0.00000       0.00000    
     34789 TIP3     3291     TIP3     H2       HT       0.417000       1.00800           0   0.00000     -0.301140E-02
     34790 TIP3     3292     TIP3     OH2      OT      -0.834000       15.9994           0   0.00000       0.00000    
     34791 TIP3     3292     TIP3     H1       HT       0.417000       1.00800           0   0.00000       0.00000    
     34792 TIP3     3292     TIP3     H2       HT       0.417000       1.00800           0   0.00000     -0.301140E-02
     34793 TIP3     3293     TIP3     OH2      OT      -0.834000       15.9994           0   0.00000       0.00000    
     34794 TIP3     3293     TIP3     H1       HT       0.417000       1.00800           0   0.00000       0.00000    
     34795 TIP3     3293     TIP3     H2       HT       0.417000       1.00800           0   0.00000     -0.301140E-02
     34796 TIP3     3294     TIP3     OH2      OT      -0.834000       15.9994           0   0.00000       0.00000    
     34797 TIP3     3294     TIP3     H1       HT       0.417000       1.00800           0   0.00000       0.00000    
     34798 TIP3     3294     TIP3     H2       HT       0.417000       1.00800           0   0.00000     -0.301140E-02
     34799 TIP3     3295     TIP3     OH2      OT      -0.834000       15.9994           0   0.00000       0.00000    
     34800 TIP3     3295     TIP3     H1       HT       0.417000       1.00800           0   0.00000       0.00000    
     34801 TIP3     3295     TIP3     H2       HT       0.417000       1.00800           0   0.00000     -0.301140E-02
     34802 TIP3     3296     TIP3     OH2      OT      -0.834000       15.9994           0   0.00000       0.00000    
     34803 TIP3     3296     TIP3     H1       HT       0.417000       1.00800           0   0.00000       0.00000    
     34804 TIP3     3296     TIP3     H2       HT       0.417000       1.00800           0   0.00000     -0.301140E-02
     34805 TIP3     3297     TIP3     OH2      OT      -0.834000       15.9994           0   0.00000       0.00000    
     34806 TIP3     3297     TIP3     H1       HT       0.417000       1.00800           0   0.00000       0.00000    
     34807 TIP3     3297     TIP3     H2       HT       0.417000       1.00800           0   0.00000     -0.301140E-02
     34808 TIP3     3298     TIP3     OH2      OT      -0.834000       15.9994           0   0.00000       0.00000    
     34809 TIP3     3298     TIP3     H1       HT       0.417000       1.00800           0   0.00000       0.00000    
     34810 TIP3     3298     TIP3     H2       HT       0.417000       1.00800           0   0.00000     -0.301140E-02
     34811 TIP3     3299     TIP3     OH2      OT      -0.834000       15.9994           0   0.00000       0.00000    
     34812 TIP3     3299     TIP3     H1       HT       0.417000       1.00800           0   0.00000       0.00000    
     34813 TIP3     3299     TIP3     H2       HT       0.417000       1.00800           0   0.00000     -0.301140E-02
     34814 TIP3     3300     TIP3     OH2      OT      -0.834000       15.9994           0   0.00000       0.00000    
     34815 TIP3     3300     TIP3     H1       HT       0.417000       1.00800           0   0.00000       0.00000    
     34816 TIP3     3300     TIP3     H2       HT       0.417000       1.00800           0   0.00000     -0.301140E-02
     34817 TIP3     3301     TIP3     OH2      OT      -0.834000       15.9994           0   0.00000       0.00000    
     34818 TIP3     3301     TIP3     H1       HT       0.417000       1.00800           0   0.00000       0.00000    
     34819 TIP3     3301     TIP3     H2       HT       0.417000       1.00800           0   0.00000     -0.301140E-02
     34820 TIP3     3302     TIP3     OH2      OT      -0.834000       15.9994           0   0.00000       0.00000    
     34821 TIP3     3302     TIP3     H1       HT       0.417000       1.00800           0   0.00000       0.00000    
     34822 TIP3     3302     TIP3     H2       HT       0.417000       1.00800           0   0.00000     -0.301140E-02
     34823 TIP3     3303     TIP3     OH2      OT      -0.834000       15.9994           0   0.00000       0.00000    
     34824 TIP3     3303     TIP3     H1       HT       0.417000       1.00800           0   0.00000       0.00000    
     34825 TIP3     3303     TIP3     H2       HT       0.417000       1.00800           0   0.00000     -0.301140E-02
     34826 TIP3     3304     TIP3     OH2      OT      -0.834000       15.9994           0   0.00000       0.00000    
     34827 TIP3     3304     TIP3     H1       HT       0.417000       1.00800           0   0.00000       0.00000    
     34828 TIP3     3304     TIP3     H2       HT       0.417000       1.00800           0   0.00000     -0.301140E-02
     34829 TIP3     3305     TIP3     OH2      OT      -0.834000       15.9994           0   0.00000       0.00000    
     34830 TIP3     3305     TIP3     H1       HT       0.417000       1.00800           0   0.00000       0.00000    
     34831 TIP3     3305     TIP3     H2       HT       0.417000       1.00800           0   0.00000     -0.301140E-02
     34832 TIP3     3306     TIP3     OH2      OT      -0.834000       15.9994           0   0.00000       0.00000    
     34833 TIP3     3306     TIP3     H1       HT       0.417000       1.00800           0   0.00000       0.00000    
     34834 TIP3     3306     TIP3     H2       HT       0.417000       1.00800           0   0.00000     -0.301140E-02
     34835 TIP3     3307     TIP3     OH2      OT      -0.834000       15.9994           0   0.00000       0.00000    
     34836 TIP3     3307     TIP3     H1       HT       0.417000       1.00800           0   0.00000       0.00000    
     34837 TIP3     3307     TIP3     H2       HT       0.417000       1.00800           0   0.00000     -0.301140E-02
     34838 TIP3     3308     TIP3     OH2      OT      -0.834000       15.9994           0   0.00000       0.00000    
     34839 TIP3     3308     TIP3     H1       HT       0.417000       1.00800           0   0.00000       0.00000    
     34840 TIP3     3308     TIP3     H2       HT       0.417000       1.00800           0   0.00000     -0.301140E-02
     34841 TIP3     3309     TIP3     OH2      OT      -0.834000       15.9994           0   0.00000       0.00000    
     34842 TIP3     3309     TIP3     H1       HT       0.417000       1.00800           0   0.00000       0.00000    
     34843 TIP3     3309     TIP3     H2       HT       0.417000       1.00800           0   0.00000     -0.301140E-02
     34844 TIP3     3310     TIP3     OH2      OT      -0.834000       15.9994           0   0.00000       0.00000    
     34845 TIP3     3310     TIP3     H1       HT       0.417000       1.00800           0   0.00000       0.00000    
     34846 TIP3     3310     TIP3     H2       HT       0.417000       1.00800           0   0.00000     -0.301140E-02
     34847 TIP3     3311     TIP3     OH2      OT      -0.834000       15.9994           0   0.00000       0.00000    
     34848 TIP3     3311     TIP3     H1       HT       0.417000       1.00800           0   0.00000       0.00000    
     34849 TIP3     3311     TIP3     H2       HT       0.417000       1.00800           0   0.00000     -0.301140E-02
     34850 TIP3     3312     TIP3     OH2      OT      -0.834000       15.9994           0   0.00000       0.00000    
     34851 TIP3     3312     TIP3     H1       HT       0.417000       1.00800           0   0.00000       0.00000    
     34852 TIP3     3312     TIP3     H2       HT       0.417000       1.00800           0   0.00000     -0.301140E-02
     34853 TIP3     3313     TIP3     OH2      OT      -0.834000       15.9994           0   0.00000       0.00000    
     34854 TIP3     3313     TIP3     H1       HT       0.417000       1.00800           0   0.00000       0.00000    
     34855 TIP3     3313     TIP3     H2       HT       0.417000       1.00800           0   0.00000     -0.301140E-02
     34856 TIP3     3314     TIP3     OH2      OT      -0.834000       15.9994           0   0.00000       0.00000    
     34857 TIP3     3314     TIP3     H1       HT       0.417000       1.00800           0   0.00000       0.00000    
     34858 TIP3     3314     TIP3     H2       HT       0.417000       1.00800           0   0.00000     -0.301140E-02
     34859 TIP3     3315     TIP3     OH2      OT      -0.834000       15.9994           0   0.00000       0.00000    
     34860 TIP3     3315     TIP3     H1       HT       0.417000       1.00800           0   0.00000       0.00000    
     34861 TIP3     3315     TIP3     H2       HT       0.417000       1.00800           0   0.00000     -0.301140E-02
     34862 TIP3     3316     TIP3     OH2      OT      -0.834000       15.9994           0   0.00000       0.00000    
     34863 TIP3     3316     TIP3     H1       HT       0.417000       1.00800           0   0.00000       0.00000    
     34864 TIP3     3316     TIP3     H2       HT       0.417000       1.00800           0   0.00000     -0.301140E-02
     34865 TIP3     3317     TIP3     OH2      OT      -0.834000       15.9994           0   0.00000       0.00000    
     34866 TIP3     3317     TIP3     H1       HT       0.417000       1.00800           0   0.00000       0.00000    
     34867 TIP3     3317     TIP3     H2       HT       0.417000       1.00800           0   0.00000     -0.301140E-02
     34868 TIP3     3318     TIP3     OH2      OT      -0.834000       15.9994           0   0.00000       0.00000    
     34869 TIP3     3318     TIP3     H1       HT       0.417000       1.00800           0   0.00000       0.00000    
     34870 TIP3     3318     TIP3     H2       HT       0.417000       1.00800           0   0.00000     -0.301140E-02
     34871 TIP3     3319     TIP3     OH2      OT      -0.834000       15.9994           0   0.00000       0.00000    
     34872 TIP3     3319     TIP3     H1       HT       0.417000       1.00800           0   0.00000       0.00000    
     34873 TIP3     3319     TIP3     H2       HT       0.417000       1.00800           0   0.00000     -0.301140E-02
     34874 TIP3     3320     TIP3     OH2      OT      -0.834000       15.9994           0   0.00000       0.00000    
     34875 TIP3     3320     TIP3     H1       HT       0.417000       1.00800           0   0.00000       0.00000    
     34876 TIP3     3320     TIP3     H2       HT       0.417000       1.00800           0   0.00000     -0.301140E-02
     34877 TIP3     3321     TIP3     OH2      OT      -0.834000       15.9994           0   0.00000       0.00000    
     34878 TIP3     3321     TIP3     H1       HT       0.417000       1.00800           0   0.00000       0.00000    
     34879 TIP3     3321     TIP3     H2       HT       0.417000       1.00800           0   0.00000     -0.301140E-02
     34880 TIP3     3322     TIP3     OH2      OT      -0.834000       15.9994           0   0.00000       0.00000    
     34881 TIP3     3322     TIP3     H1       HT       0.417000       1.00800           0   0.00000       0.00000    
     34882 TIP3     3322     TIP3     H2       HT       0.417000       1.00800           0   0.00000     -0.301140E-02
     34883 TIP3     3323     TIP3     OH2      OT      -0.834000       15.9994           0   0.00000       0.00000    
     34884 TIP3     3323     TIP3     H1       HT       0.417000       1.00800           0   0.00000       0.00000    
     34885 TIP3     3323     TIP3     H2       HT       0.417000       1.00800           0   0.00000     -0.301140E-02
     34886 TIP3     3324     TIP3     OH2      OT      -0.834000       15.9994           0   0.00000       0.00000    
     34887 TIP3     3324     TIP3     H1       HT       0.417000       1.00800           0   0.00000       0.00000    
     34888 TIP3     3324     TIP3     H2       HT       0.417000       1.00800           0   0.00000     -0.301140E-02
     34889 TIP3     3325     TIP3     OH2      OT      -0.834000       15.9994           0   0.00000       0.00000    
     34890 TIP3     3325     TIP3     H1       HT       0.417000       1.00800           0   0.00000       0.00000    
     34891 TIP3     3325     TIP3     H2       HT       0.417000       1.00800           0   0.00000     -0.301140E-02
     34892 TIP3     3326     TIP3     OH2      OT      -0.834000       15.9994           0   0.00000       0.00000    
     34893 TIP3     3326     TIP3     H1       HT       0.417000       1.00800           0   0.00000       0.00000    
     34894 TIP3     3326     TIP3     H2       HT       0.417000       1.00800           0   0.00000     -0.301140E-02
     34895 TIP3     3327     TIP3     OH2      OT      -0.834000       15.9994           0   0.00000       0.00000    
     34896 TIP3     3327     TIP3     H1       HT       0.417000       1.00800           0   0.00000       0.00000    
     34897 TIP3     3327     TIP3     H2       HT       0.417000       1.00800           0   0.00000     -0.301140E-02
     34898 TIP3     3328     TIP3     OH2      OT      -0.834000       15.9994           0   0.00000       0.00000    
     34899 TIP3     3328     TIP3     H1       HT       0.417000       1.00800           0   0.00000       0.00000    
     34900 TIP3     3328     TIP3     H2       HT       0.417000       1.00800           0   0.00000     -0.301140E-02
     34901 TIP3     3329     TIP3     OH2      OT      -0.834000       15.9994           0   0.00000       0.00000    
     34902 TIP3     3329     TIP3     H1       HT       0.417000       1.00800           0   0.00000       0.00000    
     34903 TIP3     3329     TIP3     H2       HT       0.417000       1.00800           0   0.00000     -0.301140E-02
     34904 TIP3     3330     TIP3     OH2      OT      -0.834000       15.9994           0   0.00000       0.00000    
     34905 TIP3     3330     TIP3     H1       HT       0.417000       1.00800           0   0.00000       0.00000    
     34906 TIP3     3330     TIP3     H2       HT       0.417000       1.00800           0   0.00000     -0.301140E-02
     34907 TIP3     3331     TIP3     OH2      OT      -0.834000       15.9994           0   0.00000       0.00000    
     34908 TIP3     3331     TIP3     H1       HT       0.417000       1.00800           0   0.00000       0.00000    
     34909 TIP3     3331     TIP3     H2       HT       0.417000       1.00800           0   0.00000     -0.301140E-02
     34910 TIP3     3332     TIP3     OH2      OT      -0.834000       15.9994           0   0.00000       0.00000    
     34911 TIP3     3332     TIP3     H1       HT       0.417000       1.00800           0   0.00000       0.00000    
     34912 TIP3     3332     TIP3     H2       HT       0.417000       1.00800           0   0.00000     -0.301140E-02
     34913 TIP3     3333     TIP3     OH2      OT      -0.834000       15.9994           0   0.00000       0.00000    
     34914 TIP3     3333     TIP3     H1       HT       0.417000       1.00800           0   0.00000       0.00000    
     34915 TIP3     3333     TIP3     H2       HT       0.417000       1.00800           0   0.00000     -0.301140E-02
     34916 TIP3     3334     TIP3     OH2      OT      -0.834000       15.9994           0   0.00000       0.00000    
     34917 TIP3     3334     TIP3     H1       HT       0.417000       1.00800           0   0.00000       0.00000    
     34918 TIP3     3334     TIP3     H2       HT       0.417000       1.00800           0   0.00000     -0.301140E-02
     34919 TIP3     3335     TIP3     OH2      OT      -0.834000       15.9994           0   0.00000       0.00000    
     34920 TIP3     3335     TIP3     H1       HT       0.417000       1.00800           0   0.00000       0.00000    
     34921 TIP3     3335     TIP3     H2       HT       0.417000       1.00800           0   0.00000     -0.301140E-02
     34922 TIP3     3336     TIP3     OH2      OT      -0.834000       15.9994           0   0.00000       0.00000    
     34923 TIP3     3336     TIP3     H1       HT       0.417000       1.00800           0   0.00000       0.00000    
     34924 TIP3     3336     TIP3     H2       HT       0.417000       1.00800           0   0.00000     -0.301140E-02
     34925 TIP3     3337     TIP3     OH2      OT      -0.834000       15.9994           0   0.00000       0.00000    
     34926 TIP3     3337     TIP3     H1       HT       0.417000       1.00800           0   0.00000       0.00000    
     34927 TIP3     3337     TIP3     H2       HT       0.417000       1.00800           0   0.00000     -0.301140E-02
     34928 TIP3     3338     TIP3     OH2      OT      -0.834000       15.9994           0   0.00000       0.00000    
     34929 TIP3     3338     TIP3     H1       HT       0.417000       1.00800           0   0.00000       0.00000    
     34930 TIP3     3338     TIP3     H2       HT       0.417000       1.00800           0   0.00000     -0.301140E-02
     34931 TIP3     3339     TIP3     OH2      OT      -0.834000       15.9994           0   0.00000       0.00000    
     34932 TIP3     3339     TIP3     H1       HT       0.417000       1.00800           0   0.00000       0.00000    
     34933 TIP3     3339     TIP3     H2       HT       0.417000       1.00800           0   0.00000     -0.301140E-02
     34934 TIP3     3340     TIP3     OH2      OT      -0.834000       15.9994           0   0.00000       0.00000    
     34935 TIP3     3340     TIP3     H1       HT       0.417000       1.00800           0   0.00000       0.00000    
     34936 TIP3     3340     TIP3     H2       HT       0.417000       1.00800           0   0.00000     -0.301140E-02
     34937 TIP3     3341     TIP3     OH2      OT      -0.834000       15.9994           0   0.00000       0.00000    
     34938 TIP3     3341     TIP3     H1       HT       0.417000       1.00800           0   0.00000       0.00000    
     34939 TIP3     3341     TIP3     H2       HT       0.417000       1.00800           0   0.00000     -0.301140E-02
     34940 TIP3     3342     TIP3     OH2      OT      -0.834000       15.9994           0   0.00000       0.00000    
     34941 TIP3     3342     TIP3     H1       HT       0.417000       1.00800           0   0.00000       0.00000    
     34942 TIP3     3342     TIP3     H2       HT       0.417000       1.00800           0   0.00000     -0.301140E-02
     34943 TIP3     3343     TIP3     OH2      OT      -0.834000       15.9994           0   0.00000       0.00000    
     34944 TIP3     3343     TIP3     H1       HT       0.417000       1.00800           0   0.00000       0.00000    
     34945 TIP3     3343     TIP3     H2       HT       0.417000       1.00800           0   0.00000     -0.301140E-02
     34946 TIP3     3344     TIP3     OH2      OT      -0.834000       15.9994           0   0.00000       0.00000    
     34947 TIP3     3344     TIP3     H1       HT       0.417000       1.00800           0   0.00000       0.00000    
     34948 TIP3     3344     TIP3     H2       HT       0.417000       1.00800           0   0.00000     -0.301140E-02
     34949 TIP3     3345     TIP3     OH2      OT      -0.834000       15.9994           0   0.00000       0.00000    
     34950 TIP3     3345     TIP3     H1       HT       0.417000       1.00800           0   0.00000       0.00000    
     34951 TIP3     3345     TIP3     H2       HT       0.417000       1.00800           0   0.00000     -0.301140E-02
     34952 TIP3     3346     TIP3     OH2      OT      -0.834000       15.9994           0   0.00000       0.00000    
     34953 TIP3     3346     TIP3     H1       HT       0.417000       1.00800           0   0.00000       0.00000    
     34954 TIP3     3346     TIP3     H2       HT       0.417000       1.00800           0   0.00000     -0.301140E-02
     34955 TIP3     3347     TIP3     OH2      OT      -0.834000       15.9994           0   0.00000       0.00000    
     34956 TIP3     3347     TIP3     H1       HT       0.417000       1.00800           0   0.00000       0.00000    
     34957 TIP3     3347     TIP3     H2       HT       0.417000       1.00800           0   0.00000     -0.301140E-02
     34958 TIP3     3348     TIP3     OH2      OT      -0.834000       15.9994           0   0.00000       0.00000    
     34959 TIP3     3348     TIP3     H1       HT       0.417000       1.00800           0   0.00000       0.00000    
     34960 TIP3     3348     TIP3     H2       HT       0.417000       1.00800           0   0.00000     -0.301140E-02
     34961 TIP3     3349     TIP3     OH2      OT      -0.834000       15.9994           0   0.00000       0.00000    
     34962 TIP3     3349     TIP3     H1       HT       0.417000       1.00800           0   0.00000       0.00000    
     34963 TIP3     3349     TIP3     H2       HT       0.417000       1.00800           0   0.00000     -0.301140E-02
     34964 TIP3     3350     TIP3     OH2      OT      -0.834000       15.9994           0   0.00000       0.00000    
     34965 TIP3     3350     TIP3     H1       HT       0.417000       1.00800           0   0.00000       0.00000    
     34966 TIP3     3350     TIP3     H2       HT       0.417000       1.00800           0   0.00000     -0.301140E-02
     34967 TIP3     3351     TIP3     OH2      OT      -0.834000       15.9994           0   0.00000       0.00000    
     34968 TIP3     3351     TIP3     H1       HT       0.417000       1.00800           0   0.00000       0.00000    
     34969 TIP3     3351     TIP3     H2       HT       0.417000       1.00800           0   0.00000     -0.301140E-02
     34970 TIP3     3352     TIP3     OH2      OT      -0.834000       15.9994           0   0.00000       0.00000    
     34971 TIP3     3352     TIP3     H1       HT       0.417000       1.00800           0   0.00000       0.00000    
     34972 TIP3     3352     TIP3     H2       HT       0.417000       1.00800           0   0.00000     -0.301140E-02
     34973 TIP3     3353     TIP3     OH2      OT      -0.834000       15.9994           0   0.00000       0.00000    
     34974 TIP3     3353     TIP3     H1       HT       0.417000       1.00800           0   0.00000       0.00000    
     34975 TIP3     3353     TIP3     H2       HT       0.417000       1.00800           0   0.00000     -0.301140E-02
     34976 TIP3     3354     TIP3     OH2      OT      -0.834000       15.9994           0   0.00000       0.00000    
     34977 TIP3     3354     TIP3     H1       HT       0.417000       1.00800           0   0.00000       0.00000    
     34978 TIP3     3354     TIP3     H2       HT       0.417000       1.00800           0   0.00000     -0.301140E-02
     34979 TIP3     3355     TIP3     OH2      OT      -0.834000       15.9994           0   0.00000       0.00000    
     34980 TIP3     3355     TIP3     H1       HT       0.417000       1.00800           0   0.00000       0.00000    
     34981 TIP3     3355     TIP3     H2       HT       0.417000       1.00800           0   0.00000     -0.301140E-02
     34982 TIP3     3356     TIP3     OH2      OT      -0.834000       15.9994           0   0.00000       0.00000    
     34983 TIP3     3356     TIP3     H1       HT       0.417000       1.00800           0   0.00000       0.00000    
     34984 TIP3     3356     TIP3     H2       HT       0.417000       1.00800           0   0.00000     -0.301140E-02
     34985 TIP3     3357     TIP3     OH2      OT      -0.834000       15.9994           0   0.00000       0.00000    
     34986 TIP3     3357     TIP3     H1       HT       0.417000       1.00800           0   0.00000       0.00000    
     34987 TIP3     3357     TIP3     H2       HT       0.417000       1.00800           0   0.00000     -0.301140E-02
     34988 TIP3     3358     TIP3     OH2      OT      -0.834000       15.9994           0   0.00000       0.00000    
     34989 TIP3     3358     TIP3     H1       HT       0.417000       1.00800           0   0.00000       0.00000    
     34990 TIP3     3358     TIP3     H2       HT       0.417000       1.00800           0   0.00000     -0.301140E-02
     34991 TIP3     3359     TIP3     OH2      OT      -0.834000       15.9994           0   0.00000       0.00000    
     34992 TIP3     3359     TIP3     H1       HT       0.417000       1.00800           0   0.00000       0.00000    
     34993 TIP3     3359     TIP3     H2       HT       0.417000       1.00800           0   0.00000     -0.301140E-02
     34994 TIP3     3360     TIP3     OH2      OT      -0.834000       15.9994           0   0.00000       0.00000    
     34995 TIP3     3360     TIP3     H1       HT       0.417000       1.00800           0   0.00000       0.00000    
     34996 TIP3     3360     TIP3     H2       HT       0.417000       1.00800           0   0.00000     -0.301140E-02
     34997 TIP3     3361     TIP3     OH2      OT      -0.834000       15.9994           0   0.00000       0.00000    
     34998 TIP3     3361     TIP3     H1       HT       0.417000       1.00800           0   0.00000       0.00000    
     34999 TIP3     3361     TIP3     H2       HT       0.417000       1.00800           0   0.00000     -0.301140E-02
     35000 TIP3     3362     TIP3     OH2      OT      -0.834000       15.9994           0   0.00000       0.00000    
     35001 TIP3     3362     TIP3     H1       HT       0.417000       1.00800           0   0.00000       0.00000    
     35002 TIP3     3362     TIP3     H2       HT       0.417000       1.00800           0   0.00000     -0.301140E-02
     35003 TIP3     3363     TIP3     OH2      OT      -0.834000       15.9994           0   0.00000       0.00000    
     35004 TIP3     3363     TIP3     H1       HT       0.417000       1.00800           0   0.00000       0.00000    
     35005 TIP3     3363     TIP3     H2       HT       0.417000       1.00800           0   0.00000     -0.301140E-02
     35006 TIP3     3364     TIP3     OH2      OT      -0.834000       15.9994           0   0.00000       0.00000    
     35007 TIP3     3364     TIP3     H1       HT       0.417000       1.00800           0   0.00000       0.00000    
     35008 TIP3     3364     TIP3     H2       HT       0.417000       1.00800           0   0.00000     -0.301140E-02
     35009 TIP3     3365     TIP3     OH2      OT      -0.834000       15.9994           0   0.00000       0.00000    
     35010 TIP3     3365     TIP3     H1       HT       0.417000       1.00800           0   0.00000       0.00000    
     35011 TIP3     3365     TIP3     H2       HT       0.417000       1.00800           0   0.00000     -0.301140E-02
     35012 TIP3     3366     TIP3     OH2      OT      -0.834000       15.9994           0   0.00000       0.00000    
     35013 TIP3     3366     TIP3     H1       HT       0.417000       1.00800           0   0.00000       0.00000    
     35014 TIP3     3366     TIP3     H2       HT       0.417000       1.00800           0   0.00000     -0.301140E-02
     35015 TIP3     3367     TIP3     OH2      OT      -0.834000       15.9994           0   0.00000       0.00000    
     35016 TIP3     3367     TIP3     H1       HT       0.417000       1.00800           0   0.00000       0.00000    
     35017 TIP3     3367     TIP3     H2       HT       0.417000       1.00800           0   0.00000     -0.301140E-02
     35018 TIP3     3368     TIP3     OH2      OT      -0.834000       15.9994           0   0.00000       0.00000    
     35019 TIP3     3368     TIP3     H1       HT       0.417000       1.00800           0   0.00000       0.00000    
     35020 TIP3     3368     TIP3     H2       HT       0.417000       1.00800           0   0.00000     -0.301140E-02
     35021 TIP3     3369     TIP3     OH2      OT      -0.834000       15.9994           0   0.00000       0.00000    
     35022 TIP3     3369     TIP3     H1       HT       0.417000       1.00800           0   0.00000       0.00000    
     35023 TIP3     3369     TIP3     H2       HT       0.417000       1.00800           0   0.00000     -0.301140E-02
     35024 TIP3     3370     TIP3     OH2      OT      -0.834000       15.9994           0   0.00000       0.00000    
     35025 TIP3     3370     TIP3     H1       HT       0.417000       1.00800           0   0.00000       0.00000    
     35026 TIP3     3370     TIP3     H2       HT       0.417000       1.00800           0   0.00000     -0.301140E-02
     35027 TIP3     3371     TIP3     OH2      OT      -0.834000       15.9994           0   0.00000       0.00000    
     35028 TIP3     3371     TIP3     H1       HT       0.417000       1.00800           0   0.00000       0.00000    
     35029 TIP3     3371     TIP3     H2       HT       0.417000       1.00800           0   0.00000     -0.301140E-02
     35030 TIP3     3372     TIP3     OH2      OT      -0.834000       15.9994           0   0.00000       0.00000    
     35031 TIP3     3372     TIP3     H1       HT       0.417000       1.00800           0   0.00000       0.00000    
     35032 TIP3     3372     TIP3     H2       HT       0.417000       1.00800           0   0.00000     -0.301140E-02
     35033 TIP3     3373     TIP3     OH2      OT      -0.834000       15.9994           0   0.00000       0.00000    
     35034 TIP3     3373     TIP3     H1       HT       0.417000       1.00800           0   0.00000       0.00000    
     35035 TIP3     3373     TIP3     H2       HT       0.417000       1.00800           0   0.00000     -0.301140E-02
     35036 TIP3     3374     TIP3     OH2      OT      -0.834000       15.9994           0   0.00000       0.00000    
     35037 TIP3     3374     TIP3     H1       HT       0.417000       1.00800           0   0.00000       0.00000    
     35038 TIP3     3374     TIP3     H2       HT       0.417000       1.00800           0   0.00000     -0.301140E-02
     35039 TIP3     3375     TIP3     OH2      OT      -0.834000       15.9994           0   0.00000       0.00000    
     35040 TIP3     3375     TIP3     H1       HT       0.417000       1.00800           0   0.00000       0.00000    
     35041 TIP3     3375     TIP3     H2       HT       0.417000       1.00800           0   0.00000     -0.301140E-02
     35042 TIP3     3376     TIP3     OH2      OT      -0.834000       15.9994           0   0.00000       0.00000    
     35043 TIP3     3376     TIP3     H1       HT       0.417000       1.00800           0   0.00000       0.00000    
     35044 TIP3     3376     TIP3     H2       HT       0.417000       1.00800           0   0.00000     -0.301140E-02
     35045 TIP3     3377     TIP3     OH2      OT      -0.834000       15.9994           0   0.00000       0.00000    
     35046 TIP3     3377     TIP3     H1       HT       0.417000       1.00800           0   0.00000       0.00000    
     35047 TIP3     3377     TIP3     H2       HT       0.417000       1.00800           0   0.00000     -0.301140E-02
     35048 TIP3     3378     TIP3     OH2      OT      -0.834000       15.9994           0   0.00000       0.00000    
     35049 TIP3     3378     TIP3     H1       HT       0.417000       1.00800           0   0.00000       0.00000    
     35050 TIP3     3378     TIP3     H2       HT       0.417000       1.00800           0   0.00000     -0.301140E-02
     35051 TIP3     3379     TIP3     OH2      OT      -0.834000       15.9994           0   0.00000       0.00000    
     35052 TIP3     3379     TIP3     H1       HT       0.417000       1.00800           0   0.00000       0.00000    
     35053 TIP3     3379     TIP3     H2       HT       0.417000       1.00800           0   0.00000     -0.301140E-02
     35054 TIP3     3380     TIP3     OH2      OT      -0.834000       15.9994           0   0.00000       0.00000    
     35055 TIP3     3380     TIP3     H1       HT       0.417000       1.00800           0   0.00000       0.00000    
     35056 TIP3     3380     TIP3     H2       HT       0.417000       1.00800           0   0.00000     -0.301140E-02
     35057 TIP3     3381     TIP3     OH2      OT      -0.834000       15.9994           0   0.00000       0.00000    
     35058 TIP3     3381     TIP3     H1       HT       0.417000       1.00800           0   0.00000       0.00000    
     35059 TIP3     3381     TIP3     H2       HT       0.417000       1.00800           0   0.00000     -0.301140E-02
     35060 TIP3     3382     TIP3     OH2      OT      -0.834000       15.9994           0   0.00000       0.00000    
     35061 TIP3     3382     TIP3     H1       HT       0.417000       1.00800           0   0.00000       0.00000    
     35062 TIP3     3382     TIP3     H2       HT       0.417000       1.00800           0   0.00000     -0.301140E-02
     35063 TIP3     3383     TIP3     OH2      OT      -0.834000       15.9994           0   0.00000       0.00000    
     35064 TIP3     3383     TIP3     H1       HT       0.417000       1.00800           0   0.00000       0.00000    
     35065 TIP3     3383     TIP3     H2       HT       0.417000       1.00800           0   0.00000     -0.301140E-02
     35066 TIP3     3384     TIP3     OH2      OT      -0.834000       15.9994           0   0.00000       0.00000    
     35067 TIP3     3384     TIP3     H1       HT       0.417000       1.00800           0   0.00000       0.00000    
     35068 TIP3     3384     TIP3     H2       HT       0.417000       1.00800           0   0.00000     -0.301140E-02
     35069 TIP3     3385     TIP3     OH2      OT      -0.834000       15.9994           0   0.00000       0.00000    
     35070 TIP3     3385     TIP3     H1       HT       0.417000       1.00800           0   0.00000       0.00000    
     35071 TIP3     3385     TIP3     H2       HT       0.417000       1.00800           0   0.00000     -0.301140E-02
     35072 TIP3     3386     TIP3     OH2      OT      -0.834000       15.9994           0   0.00000       0.00000    
     35073 TIP3     3386     TIP3     H1       HT       0.417000       1.00800           0   0.00000       0.00000    
     35074 TIP3     3386     TIP3     H2       HT       0.417000       1.00800           0   0.00000     -0.301140E-02
     35075 TIP3     3387     TIP3     OH2      OT      -0.834000       15.9994           0   0.00000       0.00000    
     35076 TIP3     3387     TIP3     H1       HT       0.417000       1.00800           0   0.00000       0.00000    
     35077 TIP3     3387     TIP3     H2       HT       0.417000       1.00800           0   0.00000     -0.301140E-02
     35078 TIP3     3388     TIP3     OH2      OT      -0.834000       15.9994           0   0.00000       0.00000    
     35079 TIP3     3388     TIP3     H1       HT       0.417000       1.00800           0   0.00000       0.00000    
     35080 TIP3     3388     TIP3     H2       HT       0.417000       1.00800           0   0.00000     -0.301140E-02
     35081 TIP3     3389     TIP3     OH2      OT      -0.834000       15.9994           0   0.00000       0.00000    
     35082 TIP3     3389     TIP3     H1       HT       0.417000       1.00800           0   0.00000       0.00000    
     35083 TIP3     3389     TIP3     H2       HT       0.417000       1.00800           0   0.00000     -0.301140E-02
     35084 TIP3     3390     TIP3     OH2      OT      -0.834000       15.9994           0   0.00000       0.00000    
     35085 TIP3     3390     TIP3     H1       HT       0.417000       1.00800           0   0.00000       0.00000    
     35086 TIP3     3390     TIP3     H2       HT       0.417000       1.00800           0   0.00000     -0.301140E-02
     35087 TIP3     3391     TIP3     OH2      OT      -0.834000       15.9994           0   0.00000       0.00000    
     35088 TIP3     3391     TIP3     H1       HT       0.417000       1.00800           0   0.00000       0.00000    
     35089 TIP3     3391     TIP3     H2       HT       0.417000       1.00800           0   0.00000     -0.301140E-02
     35090 TIP3     3392     TIP3     OH2      OT      -0.834000       15.9994           0   0.00000       0.00000    
     35091 TIP3     3392     TIP3     H1       HT       0.417000       1.00800           0   0.00000       0.00000    
     35092 TIP3     3392     TIP3     H2       HT       0.417000       1.00800           0   0.00000     -0.301140E-02
     35093 TIP3     3393     TIP3     OH2      OT      -0.834000       15.9994           0   0.00000       0.00000    
     35094 TIP3     3393     TIP3     H1       HT       0.417000       1.00800           0   0.00000       0.00000    
     35095 TIP3     3393     TIP3     H2       HT       0.417000       1.00800           0   0.00000     -0.301140E-02
     35096 TIP3     3394     TIP3     OH2      OT      -0.834000       15.9994           0   0.00000       0.00000    
     35097 TIP3     3394     TIP3     H1       HT       0.417000       1.00800           0   0.00000       0.00000    
     35098 TIP3     3394     TIP3     H2       HT       0.417000       1.00800           0   0.00000     -0.301140E-02
     35099 TIP3     3395     TIP3     OH2      OT      -0.834000       15.9994           0   0.00000       0.00000    
     35100 TIP3     3395     TIP3     H1       HT       0.417000       1.00800           0   0.00000       0.00000    
     35101 TIP3     3395     TIP3     H2       HT       0.417000       1.00800           0   0.00000     -0.301140E-02
     35102 TIP3     3396     TIP3     OH2      OT      -0.834000       15.9994           0   0.00000       0.00000    
     35103 TIP3     3396     TIP3     H1       HT       0.417000       1.00800           0   0.00000       0.00000    
     35104 TIP3     3396     TIP3     H2       HT       0.417000       1.00800           0   0.00000     -0.301140E-02
     35105 TIP3     3397     TIP3     OH2      OT      -0.834000       15.9994           0   0.00000       0.00000    
     35106 TIP3     3397     TIP3     H1       HT       0.417000       1.00800           0   0.00000       0.00000    
     35107 TIP3     3397     TIP3     H2       HT       0.417000       1.00800           0   0.00000     -0.301140E-02
     35108 TIP3     3398     TIP3     OH2      OT      -0.834000       15.9994           0   0.00000       0.00000    
     35109 TIP3     3398     TIP3     H1       HT       0.417000       1.00800           0   0.00000       0.00000    
     35110 TIP3     3398     TIP3     H2       HT       0.417000       1.00800           0   0.00000     -0.301140E-02
     35111 TIP3     3399     TIP3     OH2      OT      -0.834000       15.9994           0   0.00000       0.00000    
     35112 TIP3     3399     TIP3     H1       HT       0.417000       1.00800           0   0.00000       0.00000    
     35113 TIP3     3399     TIP3     H2       HT       0.417000       1.00800           0   0.00000     -0.301140E-02
     35114 TIP3     3400     TIP3     OH2      OT      -0.834000       15.9994           0   0.00000       0.00000    
     35115 TIP3     3400     TIP3     H1       HT       0.417000       1.00800           0   0.00000       0.00000    
     35116 TIP3     3400     TIP3     H2       HT       0.417000       1.00800           0   0.00000     -0.301140E-02
     35117 TIP3     3401     TIP3     OH2      OT      -0.834000       15.9994           0   0.00000       0.00000    
     35118 TIP3     3401     TIP3     H1       HT       0.417000       1.00800           0   0.00000       0.00000    
     35119 TIP3     3401     TIP3     H2       HT       0.417000       1.00800           0   0.00000     -0.301140E-02
     35120 TIP3     3402     TIP3     OH2      OT      -0.834000       15.9994           0   0.00000       0.00000    
     35121 TIP3     3402     TIP3     H1       HT       0.417000       1.00800           0   0.00000       0.00000    
     35122 TIP3     3402     TIP3     H2       HT       0.417000       1.00800           0   0.00000     -0.301140E-02
     35123 TIP3     3403     TIP3     OH2      OT      -0.834000       15.9994           0   0.00000       0.00000    
     35124 TIP3     3403     TIP3     H1       HT       0.417000       1.00800           0   0.00000       0.00000    
     35125 TIP3     3403     TIP3     H2       HT       0.417000       1.00800           0   0.00000     -0.301140E-02
     35126 TIP3     3404     TIP3     OH2      OT      -0.834000       15.9994           0   0.00000       0.00000    
     35127 TIP3     3404     TIP3     H1       HT       0.417000       1.00800           0   0.00000       0.00000    
     35128 TIP3     3404     TIP3     H2       HT       0.417000       1.00800           0   0.00000     -0.301140E-02
     35129 TIP3     3405     TIP3     OH2      OT      -0.834000       15.9994           0   0.00000       0.00000    
     35130 TIP3     3405     TIP3     H1       HT       0.417000       1.00800           0   0.00000       0.00000    
     35131 TIP3     3405     TIP3     H2       HT       0.417000       1.00800           0   0.00000     -0.301140E-02
     35132 TIP3     3406     TIP3     OH2      OT      -0.834000       15.9994           0   0.00000       0.00000    
     35133 TIP3     3406     TIP3     H1       HT       0.417000       1.00800           0   0.00000       0.00000    
     35134 TIP3     3406     TIP3     H2       HT       0.417000       1.00800           0   0.00000     -0.301140E-02
     35135 TIP3     3407     TIP3     OH2      OT      -0.834000       15.9994           0   0.00000       0.00000    
     35136 TIP3     3407     TIP3     H1       HT       0.417000       1.00800           0   0.00000       0.00000    
     35137 TIP3     3407     TIP3     H2       HT       0.417000       1.00800           0   0.00000     -0.301140E-02
     35138 TIP3     3408     TIP3     OH2      OT      -0.834000       15.9994           0   0.00000       0.00000    
     35139 TIP3     3408     TIP3     H1       HT       0.417000       1.00800           0   0.00000       0.00000    
     35140 TIP3     3408     TIP3     H2       HT       0.417000       1.00800           0   0.00000     -0.301140E-02
     35141 TIP3     3409     TIP3     OH2      OT      -0.834000       15.9994           0   0.00000       0.00000    
     35142 TIP3     3409     TIP3     H1       HT       0.417000       1.00800           0   0.00000       0.00000    
     35143 TIP3     3409     TIP3     H2       HT       0.417000       1.00800           0   0.00000     -0.301140E-02
     35144 TIP3     3410     TIP3     OH2      OT      -0.834000       15.9994           0   0.00000       0.00000    
     35145 TIP3     3410     TIP3     H1       HT       0.417000       1.00800           0   0.00000       0.00000    
     35146 TIP3     3410     TIP3     H2       HT       0.417000       1.00800           0   0.00000     -0.301140E-02
     35147 TIP3     3411     TIP3     OH2      OT      -0.834000       15.9994           0   0.00000       0.00000    
     35148 TIP3     3411     TIP3     H1       HT       0.417000       1.00800           0   0.00000       0.00000    
     35149 TIP3     3411     TIP3     H2       HT       0.417000       1.00800           0   0.00000     -0.301140E-02
     35150 TIP3     3412     TIP3     OH2      OT      -0.834000       15.9994           0   0.00000       0.00000    
     35151 TIP3     3412     TIP3     H1       HT       0.417000       1.00800           0   0.00000       0.00000    
     35152 TIP3     3412     TIP3     H2       HT       0.417000       1.00800           0   0.00000     -0.301140E-02
     35153 TIP3     3413     TIP3     OH2      OT      -0.834000       15.9994           0   0.00000       0.00000    
     35154 TIP3     3413     TIP3     H1       HT       0.417000       1.00800           0   0.00000       0.00000    
     35155 TIP3     3413     TIP3     H2       HT       0.417000       1.00800           0   0.00000     -0.301140E-02
     35156 TIP3     3414     TIP3     OH2      OT      -0.834000       15.9994           0   0.00000       0.00000    
     35157 TIP3     3414     TIP3     H1       HT       0.417000       1.00800           0   0.00000       0.00000    
     35158 TIP3     3414     TIP3     H2       HT       0.417000       1.00800           0   0.00000     -0.301140E-02
     35159 TIP3     3415     TIP3     OH2      OT      -0.834000       15.9994           0   0.00000       0.00000    
     35160 TIP3     3415     TIP3     H1       HT       0.417000       1.00800           0   0.00000       0.00000    
     35161 TIP3     3415     TIP3     H2       HT       0.417000       1.00800           0   0.00000     -0.301140E-02
     35162 TIP3     3416     TIP3     OH2      OT      -0.834000       15.9994           0   0.00000       0.00000    
     35163 TIP3     3416     TIP3     H1       HT       0.417000       1.00800           0   0.00000       0.00000    
     35164 TIP3     3416     TIP3     H2       HT       0.417000       1.00800           0   0.00000     -0.301140E-02
     35165 TIP3     3417     TIP3     OH2      OT      -0.834000       15.9994           0   0.00000       0.00000    
     35166 TIP3     3417     TIP3     H1       HT       0.417000       1.00800           0   0.00000       0.00000    
     35167 TIP3     3417     TIP3     H2       HT       0.417000       1.00800           0   0.00000     -0.301140E-02
     35168 TIP3     3418     TIP3     OH2      OT      -0.834000       15.9994           0   0.00000       0.00000    
     35169 TIP3     3418     TIP3     H1       HT       0.417000       1.00800           0   0.00000       0.00000    
     35170 TIP3     3418     TIP3     H2       HT       0.417000       1.00800           0   0.00000     -0.301140E-02
     35171 TIP3     3419     TIP3     OH2      OT      -0.834000       15.9994           0   0.00000       0.00000    
     35172 TIP3     3419     TIP3     H1       HT       0.417000       1.00800           0   0.00000       0.00000    
     35173 TIP3     3419     TIP3     H2       HT       0.417000       1.00800           0   0.00000     -0.301140E-02
     35174 TIP3     3420     TIP3     OH2      OT      -0.834000       15.9994           0   0.00000       0.00000    
     35175 TIP3     3420     TIP3     H1       HT       0.417000       1.00800           0   0.00000       0.00000    
     35176 TIP3     3420     TIP3     H2       HT       0.417000       1.00800           0   0.00000     -0.301140E-02
     35177 TIP3     3421     TIP3     OH2      OT      -0.834000       15.9994           0   0.00000       0.00000    
     35178 TIP3     3421     TIP3     H1       HT       0.417000       1.00800           0   0.00000       0.00000    
     35179 TIP3     3421     TIP3     H2       HT       0.417000       1.00800           0   0.00000     -0.301140E-02
     35180 TIP3     3422     TIP3     OH2      OT      -0.834000       15.9994           0   0.00000       0.00000    
     35181 TIP3     3422     TIP3     H1       HT       0.417000       1.00800           0   0.00000       0.00000    
     35182 TIP3     3422     TIP3     H2       HT       0.417000       1.00800           0   0.00000     -0.301140E-02
     35183 TIP3     3423     TIP3     OH2      OT      -0.834000       15.9994           0   0.00000       0.00000    
     35184 TIP3     3423     TIP3     H1       HT       0.417000       1.00800           0   0.00000       0.00000    
     35185 TIP3     3423     TIP3     H2       HT       0.417000       1.00800           0   0.00000     -0.301140E-02
     35186 TIP3     3424     TIP3     OH2      OT      -0.834000       15.9994           0   0.00000       0.00000    
     35187 TIP3     3424     TIP3     H1       HT       0.417000       1.00800           0   0.00000       0.00000    
     35188 TIP3     3424     TIP3     H2       HT       0.417000       1.00800           0   0.00000     -0.301140E-02
     35189 TIP3     3425     TIP3     OH2      OT      -0.834000       15.9994           0   0.00000       0.00000    
     35190 TIP3     3425     TIP3     H1       HT       0.417000       1.00800           0   0.00000       0.00000    
     35191 TIP3     3425     TIP3     H2       HT       0.417000       1.00800           0   0.00000     -0.301140E-02
     35192 TIP3     3426     TIP3     OH2      OT      -0.834000       15.9994           0   0.00000       0.00000    
     35193 TIP3     3426     TIP3     H1       HT       0.417000       1.00800           0   0.00000       0.00000    
     35194 TIP3     3426     TIP3     H2       HT       0.417000       1.00800           0   0.00000     -0.301140E-02
     35195 TIP3     3427     TIP3     OH2      OT      -0.834000       15.9994           0   0.00000       0.00000    
     35196 TIP3     3427     TIP3     H1       HT       0.417000       1.00800           0   0.00000       0.00000    
     35197 TIP3     3427     TIP3     H2       HT       0.417000       1.00800           0   0.00000     -0.301140E-02
     35198 TIP3     3428     TIP3     OH2      OT      -0.834000       15.9994           0   0.00000       0.00000    
     35199 TIP3     3428     TIP3     H1       HT       0.417000       1.00800           0   0.00000       0.00000    
     35200 TIP3     3428     TIP3     H2       HT       0.417000       1.00800           0   0.00000     -0.301140E-02
     35201 TIP3     3429     TIP3     OH2      OT      -0.834000       15.9994           0   0.00000       0.00000    
     35202 TIP3     3429     TIP3     H1       HT       0.417000       1.00800           0   0.00000       0.00000    
     35203 TIP3     3429     TIP3     H2       HT       0.417000       1.00800           0   0.00000     -0.301140E-02
     35204 TIP3     3430     TIP3     OH2      OT      -0.834000       15.9994           0   0.00000       0.00000    
     35205 TIP3     3430     TIP3     H1       HT       0.417000       1.00800           0   0.00000       0.00000    
     35206 TIP3     3430     TIP3     H2       HT       0.417000       1.00800           0   0.00000     -0.301140E-02
     35207 TIP3     3431     TIP3     OH2      OT      -0.834000       15.9994           0   0.00000       0.00000    
     35208 TIP3     3431     TIP3     H1       HT       0.417000       1.00800           0   0.00000       0.00000    
     35209 TIP3     3431     TIP3     H2       HT       0.417000       1.00800           0   0.00000     -0.301140E-02
     35210 TIP3     3432     TIP3     OH2      OT      -0.834000       15.9994           0   0.00000       0.00000    
     35211 TIP3     3432     TIP3     H1       HT       0.417000       1.00800           0   0.00000       0.00000    
     35212 TIP3     3432     TIP3     H2       HT       0.417000       1.00800           0   0.00000     -0.301140E-02
     35213 TIP3     3433     TIP3     OH2      OT      -0.834000       15.9994           0   0.00000       0.00000    
     35214 TIP3     3433     TIP3     H1       HT       0.417000       1.00800           0   0.00000       0.00000    
     35215 TIP3     3433     TIP3     H2       HT       0.417000       1.00800           0   0.00000     -0.301140E-02
     35216 TIP3     3434     TIP3     OH2      OT      -0.834000       15.9994           0   0.00000       0.00000    
     35217 TIP3     3434     TIP3     H1       HT       0.417000       1.00800           0   0.00000       0.00000    
     35218 TIP3     3434     TIP3     H2       HT       0.417000       1.00800           0   0.00000     -0.301140E-02
     35219 TIP3     3435     TIP3     OH2      OT      -0.834000       15.9994           0   0.00000       0.00000    
     35220 TIP3     3435     TIP3     H1       HT       0.417000       1.00800           0   0.00000       0.00000    
     35221 TIP3     3435     TIP3     H2       HT       0.417000       1.00800           0   0.00000     -0.301140E-02
     35222 TIP3     3436     TIP3     OH2      OT      -0.834000       15.9994           0   0.00000       0.00000    
     35223 TIP3     3436     TIP3     H1       HT       0.417000       1.00800           0   0.00000       0.00000    
     35224 TIP3     3436     TIP3     H2       HT       0.417000       1.00800           0   0.00000     -0.301140E-02
     35225 TIP3     3437     TIP3     OH2      OT      -0.834000       15.9994           0   0.00000       0.00000    
     35226 TIP3     3437     TIP3     H1       HT       0.417000       1.00800           0   0.00000       0.00000    
     35227 TIP3     3437     TIP3     H2       HT       0.417000       1.00800           0   0.00000     -0.301140E-02
     35228 TIP3     3438     TIP3     OH2      OT      -0.834000       15.9994           0   0.00000       0.00000    
     35229 TIP3     3438     TIP3     H1       HT       0.417000       1.00800           0   0.00000       0.00000    
     35230 TIP3     3438     TIP3     H2       HT       0.417000       1.00800           0   0.00000     -0.301140E-02
     35231 TIP3     3439     TIP3     OH2      OT      -0.834000       15.9994           0   0.00000       0.00000    
     35232 TIP3     3439     TIP3     H1       HT       0.417000       1.00800           0   0.00000       0.00000    
     35233 TIP3     3439     TIP3     H2       HT       0.417000       1.00800           0   0.00000     -0.301140E-02
     35234 TIP3     3440     TIP3     OH2      OT      -0.834000       15.9994           0   0.00000       0.00000    
     35235 TIP3     3440     TIP3     H1       HT       0.417000       1.00800           0   0.00000       0.00000    
     35236 TIP3     3440     TIP3     H2       HT       0.417000       1.00800           0   0.00000     -0.301140E-02
     35237 TIP3     3441     TIP3     OH2      OT      -0.834000       15.9994           0   0.00000       0.00000    
     35238 TIP3     3441     TIP3     H1       HT       0.417000       1.00800           0   0.00000       0.00000    
     35239 TIP3     3441     TIP3     H2       HT       0.417000       1.00800           0   0.00000     -0.301140E-02
     35240 TIP3     3442     TIP3     OH2      OT      -0.834000       15.9994           0   0.00000       0.00000    
     35241 TIP3     3442     TIP3     H1       HT       0.417000       1.00800           0   0.00000       0.00000    
     35242 TIP3     3442     TIP3     H2       HT       0.417000       1.00800           0   0.00000     -0.301140E-02
     35243 TIP3     3443     TIP3     OH2      OT      -0.834000       15.9994           0   0.00000       0.00000    
     35244 TIP3     3443     TIP3     H1       HT       0.417000       1.00800           0   0.00000       0.00000    
     35245 TIP3     3443     TIP3     H2       HT       0.417000       1.00800           0   0.00000     -0.301140E-02
     35246 TIP3     3444     TIP3     OH2      OT      -0.834000       15.9994           0   0.00000       0.00000    
     35247 TIP3     3444     TIP3     H1       HT       0.417000       1.00800           0   0.00000       0.00000    
     35248 TIP3     3444     TIP3     H2       HT       0.417000       1.00800           0   0.00000     -0.301140E-02
     35249 TIP3     3445     TIP3     OH2      OT      -0.834000       15.9994           0   0.00000       0.00000    
     35250 TIP3     3445     TIP3     H1       HT       0.417000       1.00800           0   0.00000       0.00000    
     35251 TIP3     3445     TIP3     H2       HT       0.417000       1.00800           0   0.00000     -0.301140E-02
     35252 TIP3     3446     TIP3     OH2      OT      -0.834000       15.9994           0   0.00000       0.00000    
     35253 TIP3     3446     TIP3     H1       HT       0.417000       1.00800           0   0.00000       0.00000    
     35254 TIP3     3446     TIP3     H2       HT       0.417000       1.00800           0   0.00000     -0.301140E-02
     35255 TIP3     3447     TIP3     OH2      OT      -0.834000       15.9994           0   0.00000       0.00000    
     35256 TIP3     3447     TIP3     H1       HT       0.417000       1.00800           0   0.00000       0.00000    
     35257 TIP3     3447     TIP3     H2       HT       0.417000       1.00800           0   0.00000     -0.301140E-02
     35258 TIP3     3448     TIP3     OH2      OT      -0.834000       15.9994           0   0.00000       0.00000    
     35259 TIP3     3448     TIP3     H1       HT       0.417000       1.00800           0   0.00000       0.00000    
     35260 TIP3     3448     TIP3     H2       HT       0.417000       1.00800           0   0.00000     -0.301140E-02
     35261 TIP3     3449     TIP3     OH2      OT      -0.834000       15.9994           0   0.00000       0.00000    
     35262 TIP3     3449     TIP3     H1       HT       0.417000       1.00800           0   0.00000       0.00000    
     35263 TIP3     3449     TIP3     H2       HT       0.417000       1.00800           0   0.00000     -0.301140E-02
     35264 TIP3     3450     TIP3     OH2      OT      -0.834000       15.9994           0   0.00000       0.00000    
     35265 TIP3     3450     TIP3     H1       HT       0.417000       1.00800           0   0.00000       0.00000    
     35266 TIP3     3450     TIP3     H2       HT       0.417000       1.00800           0   0.00000     -0.301140E-02
     35267 TIP3     3451     TIP3     OH2      OT      -0.834000       15.9994           0   0.00000       0.00000    
     35268 TIP3     3451     TIP3     H1       HT       0.417000       1.00800           0   0.00000       0.00000    
     35269 TIP3     3451     TIP3     H2       HT       0.417000       1.00800           0   0.00000     -0.301140E-02
     35270 TIP3     3452     TIP3     OH2      OT      -0.834000       15.9994           0   0.00000       0.00000    
     35271 TIP3     3452     TIP3     H1       HT       0.417000       1.00800           0   0.00000       0.00000    
     35272 TIP3     3452     TIP3     H2       HT       0.417000       1.00800           0   0.00000     -0.301140E-02
     35273 TIP3     3453     TIP3     OH2      OT      -0.834000       15.9994           0   0.00000       0.00000    
     35274 TIP3     3453     TIP3     H1       HT       0.417000       1.00800           0   0.00000       0.00000    
     35275 TIP3     3453     TIP3     H2       HT       0.417000       1.00800           0   0.00000     -0.301140E-02
     35276 TIP3     3454     TIP3     OH2      OT      -0.834000       15.9994           0   0.00000       0.00000    
     35277 TIP3     3454     TIP3     H1       HT       0.417000       1.00800           0   0.00000       0.00000    
     35278 TIP3     3454     TIP3     H2       HT       0.417000       1.00800           0   0.00000     -0.301140E-02
     35279 TIP3     3455     TIP3     OH2      OT      -0.834000       15.9994           0   0.00000       0.00000    
     35280 TIP3     3455     TIP3     H1       HT       0.417000       1.00800           0   0.00000       0.00000    
     35281 TIP3     3455     TIP3     H2       HT       0.417000       1.00800           0   0.00000     -0.301140E-02
     35282 TIP3     3456     TIP3     OH2      OT      -0.834000       15.9994           0   0.00000       0.00000    
     35283 TIP3     3456     TIP3     H1       HT       0.417000       1.00800           0   0.00000       0.00000    
     35284 TIP3     3456     TIP3     H2       HT       0.417000       1.00800           0   0.00000     -0.301140E-02
     35285 TIP3     3457     TIP3     OH2      OT      -0.834000       15.9994           0   0.00000       0.00000    
     35286 TIP3     3457     TIP3     H1       HT       0.417000       1.00800           0   0.00000       0.00000    
     35287 TIP3     3457     TIP3     H2       HT       0.417000       1.00800           0   0.00000     -0.301140E-02
     35288 TIP3     3458     TIP3     OH2      OT      -0.834000       15.9994           0   0.00000       0.00000    
     35289 TIP3     3458     TIP3     H1       HT       0.417000       1.00800           0   0.00000       0.00000    
     35290 TIP3     3458     TIP3     H2       HT       0.417000       1.00800           0   0.00000     -0.301140E-02
     35291 TIP3     3459     TIP3     OH2      OT      -0.834000       15.9994           0   0.00000       0.00000    
     35292 TIP3     3459     TIP3     H1       HT       0.417000       1.00800           0   0.00000       0.00000    
     35293 TIP3     3459     TIP3     H2       HT       0.417000       1.00800           0   0.00000     -0.301140E-02
     35294 TIP3     3460     TIP3     OH2      OT      -0.834000       15.9994           0   0.00000       0.00000    
     35295 TIP3     3460     TIP3     H1       HT       0.417000       1.00800           0   0.00000       0.00000    
     35296 TIP3     3460     TIP3     H2       HT       0.417000       1.00800           0   0.00000     -0.301140E-02
     35297 TIP3     3461     TIP3     OH2      OT      -0.834000       15.9994           0   0.00000       0.00000    
     35298 TIP3     3461     TIP3     H1       HT       0.417000       1.00800           0   0.00000       0.00000    
     35299 TIP3     3461     TIP3     H2       HT       0.417000       1.00800           0   0.00000     -0.301140E-02
     35300 TIP3     3462     TIP3     OH2      OT      -0.834000       15.9994           0   0.00000       0.00000    
     35301 TIP3     3462     TIP3     H1       HT       0.417000       1.00800           0   0.00000       0.00000    
     35302 TIP3     3462     TIP3     H2       HT       0.417000       1.00800           0   0.00000     -0.301140E-02
     35303 TIP3     3463     TIP3     OH2      OT      -0.834000       15.9994           0   0.00000       0.00000    
     35304 TIP3     3463     TIP3     H1       HT       0.417000       1.00800           0   0.00000       0.00000    
     35305 TIP3     3463     TIP3     H2       HT       0.417000       1.00800           0   0.00000     -0.301140E-02
     35306 TIP3     3464     TIP3     OH2      OT      -0.834000       15.9994           0   0.00000       0.00000    
     35307 TIP3     3464     TIP3     H1       HT       0.417000       1.00800           0   0.00000       0.00000    
     35308 TIP3     3464     TIP3     H2       HT       0.417000       1.00800           0   0.00000     -0.301140E-02
     35309 TIP3     3465     TIP3     OH2      OT      -0.834000       15.9994           0   0.00000       0.00000    
     35310 TIP3     3465     TIP3     H1       HT       0.417000       1.00800           0   0.00000       0.00000    
     35311 TIP3     3465     TIP3     H2       HT       0.417000       1.00800           0   0.00000     -0.301140E-02
     35312 TIP3     3466     TIP3     OH2      OT      -0.834000       15.9994           0   0.00000       0.00000    
     35313 TIP3     3466     TIP3     H1       HT       0.417000       1.00800           0   0.00000       0.00000    
     35314 TIP3     3466     TIP3     H2       HT       0.417000       1.00800           0   0.00000     -0.301140E-02
     35315 TIP3     3467     TIP3     OH2      OT      -0.834000       15.9994           0   0.00000       0.00000    
     35316 TIP3     3467     TIP3     H1       HT       0.417000       1.00800           0   0.00000       0.00000    
     35317 TIP3     3467     TIP3     H2       HT       0.417000       1.00800           0   0.00000     -0.301140E-02
     35318 TIP3     3468     TIP3     OH2      OT      -0.834000       15.9994           0   0.00000       0.00000    
     35319 TIP3     3468     TIP3     H1       HT       0.417000       1.00800           0   0.00000       0.00000    
     35320 TIP3     3468     TIP3     H2       HT       0.417000       1.00800           0   0.00000     -0.301140E-02
     35321 TIP3     3469     TIP3     OH2      OT      -0.834000       15.9994           0   0.00000       0.00000    
     35322 TIP3     3469     TIP3     H1       HT       0.417000       1.00800           0   0.00000       0.00000    
     35323 TIP3     3469     TIP3     H2       HT       0.417000       1.00800           0   0.00000     -0.301140E-02
     35324 TIP3     3470     TIP3     OH2      OT      -0.834000       15.9994           0   0.00000       0.00000    
     35325 TIP3     3470     TIP3     H1       HT       0.417000       1.00800           0   0.00000       0.00000    
     35326 TIP3     3470     TIP3     H2       HT       0.417000       1.00800           0   0.00000     -0.301140E-02
     35327 TIP3     3471     TIP3     OH2      OT      -0.834000       15.9994           0   0.00000       0.00000    
     35328 TIP3     3471     TIP3     H1       HT       0.417000       1.00800           0   0.00000       0.00000    
     35329 TIP3     3471     TIP3     H2       HT       0.417000       1.00800           0   0.00000     -0.301140E-02
     35330 TIP3     3472     TIP3     OH2      OT      -0.834000       15.9994           0   0.00000       0.00000    
     35331 TIP3     3472     TIP3     H1       HT       0.417000       1.00800           0   0.00000       0.00000    
     35332 TIP3     3472     TIP3     H2       HT       0.417000       1.00800           0   0.00000     -0.301140E-02
     35333 TIP3     3473     TIP3     OH2      OT      -0.834000       15.9994           0   0.00000       0.00000    
     35334 TIP3     3473     TIP3     H1       HT       0.417000       1.00800           0   0.00000       0.00000    
     35335 TIP3     3473     TIP3     H2       HT       0.417000       1.00800           0   0.00000     -0.301140E-02
     35336 TIP3     3474     TIP3     OH2      OT      -0.834000       15.9994           0   0.00000       0.00000    
     35337 TIP3     3474     TIP3     H1       HT       0.417000       1.00800           0   0.00000       0.00000    
     35338 TIP3     3474     TIP3     H2       HT       0.417000       1.00800           0   0.00000     -0.301140E-02
     35339 TIP3     3475     TIP3     OH2      OT      -0.834000       15.9994           0   0.00000       0.00000    
     35340 TIP3     3475     TIP3     H1       HT       0.417000       1.00800           0   0.00000       0.00000    
     35341 TIP3     3475     TIP3     H2       HT       0.417000       1.00800           0   0.00000     -0.301140E-02
     35342 TIP3     3476     TIP3     OH2      OT      -0.834000       15.9994           0   0.00000       0.00000    
     35343 TIP3     3476     TIP3     H1       HT       0.417000       1.00800           0   0.00000       0.00000    
     35344 TIP3     3476     TIP3     H2       HT       0.417000       1.00800           0   0.00000     -0.301140E-02
     35345 TIP3     3477     TIP3     OH2      OT      -0.834000       15.9994           0   0.00000       0.00000    
     35346 TIP3     3477     TIP3     H1       HT       0.417000       1.00800           0   0.00000       0.00000    
     35347 TIP3     3477     TIP3     H2       HT       0.417000       1.00800           0   0.00000     -0.301140E-02
     35348 TIP3     3478     TIP3     OH2      OT      -0.834000       15.9994           0   0.00000       0.00000    
     35349 TIP3     3478     TIP3     H1       HT       0.417000       1.00800           0   0.00000       0.00000    
     35350 TIP3     3478     TIP3     H2       HT       0.417000       1.00800           0   0.00000     -0.301140E-02
     35351 TIP3     3479     TIP3     OH2      OT      -0.834000       15.9994           0   0.00000       0.00000    
     35352 TIP3     3479     TIP3     H1       HT       0.417000       1.00800           0   0.00000       0.00000    
     35353 TIP3     3479     TIP3     H2       HT       0.417000       1.00800           0   0.00000     -0.301140E-02
     35354 TIP3     3480     TIP3     OH2      OT      -0.834000       15.9994           0   0.00000       0.00000    
     35355 TIP3     3480     TIP3     H1       HT       0.417000       1.00800           0   0.00000       0.00000    
     35356 TIP3     3480     TIP3     H2       HT       0.417000       1.00800           0   0.00000     -0.301140E-02
     35357 TIP3     3481     TIP3     OH2      OT      -0.834000       15.9994           0   0.00000       0.00000    
     35358 TIP3     3481     TIP3     H1       HT       0.417000       1.00800           0   0.00000       0.00000    
     35359 TIP3     3481     TIP3     H2       HT       0.417000       1.00800           0   0.00000     -0.301140E-02
     35360 TIP3     3482     TIP3     OH2      OT      -0.834000       15.9994           0   0.00000       0.00000    
     35361 TIP3     3482     TIP3     H1       HT       0.417000       1.00800           0   0.00000       0.00000    
     35362 TIP3     3482     TIP3     H2       HT       0.417000       1.00800           0   0.00000     -0.301140E-02
     35363 TIP3     3483     TIP3     OH2      OT      -0.834000       15.9994           0   0.00000       0.00000    
     35364 TIP3     3483     TIP3     H1       HT       0.417000       1.00800           0   0.00000       0.00000    
     35365 TIP3     3483     TIP3     H2       HT       0.417000       1.00800           0   0.00000     -0.301140E-02
     35366 TIP3     3484     TIP3     OH2      OT      -0.834000       15.9994           0   0.00000       0.00000    
     35367 TIP3     3484     TIP3     H1       HT       0.417000       1.00800           0   0.00000       0.00000    
     35368 TIP3     3484     TIP3     H2       HT       0.417000       1.00800           0   0.00000     -0.301140E-02
     35369 TIP3     3485     TIP3     OH2      OT      -0.834000       15.9994           0   0.00000       0.00000    
     35370 TIP3     3485     TIP3     H1       HT       0.417000       1.00800           0   0.00000       0.00000    
     35371 TIP3     3485     TIP3     H2       HT       0.417000       1.00800           0   0.00000     -0.301140E-02
     35372 TIP3     3486     TIP3     OH2      OT      -0.834000       15.9994           0   0.00000       0.00000    
     35373 TIP3     3486     TIP3     H1       HT       0.417000       1.00800           0   0.00000       0.00000    
     35374 TIP3     3486     TIP3     H2       HT       0.417000       1.00800           0   0.00000     -0.301140E-02
     35375 TIP3     3487     TIP3     OH2      OT      -0.834000       15.9994           0   0.00000       0.00000    
     35376 TIP3     3487     TIP3     H1       HT       0.417000       1.00800           0   0.00000       0.00000    
     35377 TIP3     3487     TIP3     H2       HT       0.417000       1.00800           0   0.00000     -0.301140E-02
     35378 TIP3     3488     TIP3     OH2      OT      -0.834000       15.9994           0   0.00000       0.00000    
     35379 TIP3     3488     TIP3     H1       HT       0.417000       1.00800           0   0.00000       0.00000    
     35380 TIP3     3488     TIP3     H2       HT       0.417000       1.00800           0   0.00000     -0.301140E-02
     35381 TIP3     3489     TIP3     OH2      OT      -0.834000       15.9994           0   0.00000       0.00000    
     35382 TIP3     3489     TIP3     H1       HT       0.417000       1.00800           0   0.00000       0.00000    
     35383 TIP3     3489     TIP3     H2       HT       0.417000       1.00800           0   0.00000     -0.301140E-02
     35384 TIP3     3490     TIP3     OH2      OT      -0.834000       15.9994           0   0.00000       0.00000    
     35385 TIP3     3490     TIP3     H1       HT       0.417000       1.00800           0   0.00000       0.00000    
     35386 TIP3     3490     TIP3     H2       HT       0.417000       1.00800           0   0.00000     -0.301140E-02
     35387 TIP3     3491     TIP3     OH2      OT      -0.834000       15.9994           0   0.00000       0.00000    
     35388 TIP3     3491     TIP3     H1       HT       0.417000       1.00800           0   0.00000       0.00000    
     35389 TIP3     3491     TIP3     H2       HT       0.417000       1.00800           0   0.00000     -0.301140E-02
     35390 TIP3     3492     TIP3     OH2      OT      -0.834000       15.9994           0   0.00000       0.00000    
     35391 TIP3     3492     TIP3     H1       HT       0.417000       1.00800           0   0.00000       0.00000    
     35392 TIP3     3492     TIP3     H2       HT       0.417000       1.00800           0   0.00000     -0.301140E-02
     35393 TIP3     3493     TIP3     OH2      OT      -0.834000       15.9994           0   0.00000       0.00000    
     35394 TIP3     3493     TIP3     H1       HT       0.417000       1.00800           0   0.00000       0.00000    
     35395 TIP3     3493     TIP3     H2       HT       0.417000       1.00800           0   0.00000     -0.301140E-02
     35396 TIP3     3494     TIP3     OH2      OT      -0.834000       15.9994           0   0.00000       0.00000    
     35397 TIP3     3494     TIP3     H1       HT       0.417000       1.00800           0   0.00000       0.00000    
     35398 TIP3     3494     TIP3     H2       HT       0.417000       1.00800           0   0.00000     -0.301140E-02
     35399 TIP3     3495     TIP3     OH2      OT      -0.834000       15.9994           0   0.00000       0.00000    
     35400 TIP3     3495     TIP3     H1       HT       0.417000       1.00800           0   0.00000       0.00000    
     35401 TIP3     3495     TIP3     H2       HT       0.417000       1.00800           0   0.00000     -0.301140E-02
     35402 TIP3     3496     TIP3     OH2      OT      -0.834000       15.9994           0   0.00000       0.00000    
     35403 TIP3     3496     TIP3     H1       HT       0.417000       1.00800           0   0.00000       0.00000    
     35404 TIP3     3496     TIP3     H2       HT       0.417000       1.00800           0   0.00000     -0.301140E-02
     35405 TIP3     3497     TIP3     OH2      OT      -0.834000       15.9994           0   0.00000       0.00000    
     35406 TIP3     3497     TIP3     H1       HT       0.417000       1.00800           0   0.00000       0.00000    
     35407 TIP3     3497     TIP3     H2       HT       0.417000       1.00800           0   0.00000     -0.301140E-02
     35408 TIP3     3498     TIP3     OH2      OT      -0.834000       15.9994           0   0.00000       0.00000    
     35409 TIP3     3498     TIP3     H1       HT       0.417000       1.00800           0   0.00000       0.00000    
     35410 TIP3     3498     TIP3     H2       HT       0.417000       1.00800           0   0.00000     -0.301140E-02
     35411 TIP3     3499     TIP3     OH2      OT      -0.834000       15.9994           0   0.00000       0.00000    
     35412 TIP3     3499     TIP3     H1       HT       0.417000       1.00800           0   0.00000       0.00000    
     35413 TIP3     3499     TIP3     H2       HT       0.417000       1.00800           0   0.00000     -0.301140E-02
     35414 TIP3     3500     TIP3     OH2      OT      -0.834000       15.9994           0   0.00000       0.00000    
     35415 TIP3     3500     TIP3     H1       HT       0.417000       1.00800           0   0.00000       0.00000    
     35416 TIP3     3500     TIP3     H2       HT       0.417000       1.00800           0   0.00000     -0.301140E-02
     35417 TIP3     3501     TIP3     OH2      OT      -0.834000       15.9994           0   0.00000       0.00000    
     35418 TIP3     3501     TIP3     H1       HT       0.417000       1.00800           0   0.00000       0.00000    
     35419 TIP3     3501     TIP3     H2       HT       0.417000       1.00800           0   0.00000     -0.301140E-02
     35420 TIP3     3502     TIP3     OH2      OT      -0.834000       15.9994           0   0.00000       0.00000    
     35421 TIP3     3502     TIP3     H1       HT       0.417000       1.00800           0   0.00000       0.00000    
     35422 TIP3     3502     TIP3     H2       HT       0.417000       1.00800           0   0.00000     -0.301140E-02
     35423 TIP3     3503     TIP3     OH2      OT      -0.834000       15.9994           0   0.00000       0.00000    
     35424 TIP3     3503     TIP3     H1       HT       0.417000       1.00800           0   0.00000       0.00000    
     35425 TIP3     3503     TIP3     H2       HT       0.417000       1.00800           0   0.00000     -0.301140E-02
     35426 TIP3     3504     TIP3     OH2      OT      -0.834000       15.9994           0   0.00000       0.00000    
     35427 TIP3     3504     TIP3     H1       HT       0.417000       1.00800           0   0.00000       0.00000    
     35428 TIP3     3504     TIP3     H2       HT       0.417000       1.00800           0   0.00000     -0.301140E-02
     35429 TIP3     3505     TIP3     OH2      OT      -0.834000       15.9994           0   0.00000       0.00000    
     35430 TIP3     3505     TIP3     H1       HT       0.417000       1.00800           0   0.00000       0.00000    
     35431 TIP3     3505     TIP3     H2       HT       0.417000       1.00800           0   0.00000     -0.301140E-02
     35432 TIP3     3506     TIP3     OH2      OT      -0.834000       15.9994           0   0.00000       0.00000    
     35433 TIP3     3506     TIP3     H1       HT       0.417000       1.00800           0   0.00000       0.00000    
     35434 TIP3     3506     TIP3     H2       HT       0.417000       1.00800           0   0.00000     -0.301140E-02
     35435 TIP3     3507     TIP3     OH2      OT      -0.834000       15.9994           0   0.00000       0.00000    
     35436 TIP3     3507     TIP3     H1       HT       0.417000       1.00800           0   0.00000       0.00000    
     35437 TIP3     3507     TIP3     H2       HT       0.417000       1.00800           0   0.00000     -0.301140E-02
     35438 TIP3     3508     TIP3     OH2      OT      -0.834000       15.9994           0   0.00000       0.00000    
     35439 TIP3     3508     TIP3     H1       HT       0.417000       1.00800           0   0.00000       0.00000    
     35440 TIP3     3508     TIP3     H2       HT       0.417000       1.00800           0   0.00000     -0.301140E-02
     35441 TIP3     3509     TIP3     OH2      OT      -0.834000       15.9994           0   0.00000       0.00000    
     35442 TIP3     3509     TIP3     H1       HT       0.417000       1.00800           0   0.00000       0.00000    
     35443 TIP3     3509     TIP3     H2       HT       0.417000       1.00800           0   0.00000     -0.301140E-02
     35444 TIP3     3510     TIP3     OH2      OT      -0.834000       15.9994           0   0.00000       0.00000    
     35445 TIP3     3510     TIP3     H1       HT       0.417000       1.00800           0   0.00000       0.00000    
     35446 TIP3     3510     TIP3     H2       HT       0.417000       1.00800           0   0.00000     -0.301140E-02
     35447 TIP3     3511     TIP3     OH2      OT      -0.834000       15.9994           0   0.00000       0.00000    
     35448 TIP3     3511     TIP3     H1       HT       0.417000       1.00800           0   0.00000       0.00000    
     35449 TIP3     3511     TIP3     H2       HT       0.417000       1.00800           0   0.00000     -0.301140E-02
     35450 TIP3     3512     TIP3     OH2      OT      -0.834000       15.9994           0   0.00000       0.00000    
     35451 TIP3     3512     TIP3     H1       HT       0.417000       1.00800           0   0.00000       0.00000    
     35452 TIP3     3512     TIP3     H2       HT       0.417000       1.00800           0   0.00000     -0.301140E-02
     35453 TIP3     3513     TIP3     OH2      OT      -0.834000       15.9994           0   0.00000       0.00000    
     35454 TIP3     3513     TIP3     H1       HT       0.417000       1.00800           0   0.00000       0.00000    
     35455 TIP3     3513     TIP3     H2       HT       0.417000       1.00800           0   0.00000     -0.301140E-02
     35456 TIP3     3514     TIP3     OH2      OT      -0.834000       15.9994           0   0.00000       0.00000    
     35457 TIP3     3514     TIP3     H1       HT       0.417000       1.00800           0   0.00000       0.00000    
     35458 TIP3     3514     TIP3     H2       HT       0.417000       1.00800           0   0.00000     -0.301140E-02
     35459 TIP3     3515     TIP3     OH2      OT      -0.834000       15.9994           0   0.00000       0.00000    
     35460 TIP3     3515     TIP3     H1       HT       0.417000       1.00800           0   0.00000       0.00000    
     35461 TIP3     3515     TIP3     H2       HT       0.417000       1.00800           0   0.00000     -0.301140E-02
     35462 TIP3     3516     TIP3     OH2      OT      -0.834000       15.9994           0   0.00000       0.00000    
     35463 TIP3     3516     TIP3     H1       HT       0.417000       1.00800           0   0.00000       0.00000    
     35464 TIP3     3516     TIP3     H2       HT       0.417000       1.00800           0   0.00000     -0.301140E-02
     35465 TIP3     3517     TIP3     OH2      OT      -0.834000       15.9994           0   0.00000       0.00000    
     35466 TIP3     3517     TIP3     H1       HT       0.417000       1.00800           0   0.00000       0.00000    
     35467 TIP3     3517     TIP3     H2       HT       0.417000       1.00800           0   0.00000     -0.301140E-02
     35468 TIP3     3518     TIP3     OH2      OT      -0.834000       15.9994           0   0.00000       0.00000    
     35469 TIP3     3518     TIP3     H1       HT       0.417000       1.00800           0   0.00000       0.00000    
     35470 TIP3     3518     TIP3     H2       HT       0.417000       1.00800           0   0.00000     -0.301140E-02
     35471 TIP3     3519     TIP3     OH2      OT      -0.834000       15.9994           0   0.00000       0.00000    
     35472 TIP3     3519     TIP3     H1       HT       0.417000       1.00800           0   0.00000       0.00000    
     35473 TIP3     3519     TIP3     H2       HT       0.417000       1.00800           0   0.00000     -0.301140E-02
     35474 TIP3     3520     TIP3     OH2      OT      -0.834000       15.9994           0   0.00000       0.00000    
     35475 TIP3     3520     TIP3     H1       HT       0.417000       1.00800           0   0.00000       0.00000    
     35476 TIP3     3520     TIP3     H2       HT       0.417000       1.00800           0   0.00000     -0.301140E-02
     35477 TIP3     3521     TIP3     OH2      OT      -0.834000       15.9994           0   0.00000       0.00000    
     35478 TIP3     3521     TIP3     H1       HT       0.417000       1.00800           0   0.00000       0.00000    
     35479 TIP3     3521     TIP3     H2       HT       0.417000       1.00800           0   0.00000     -0.301140E-02
     35480 TIP3     3522     TIP3     OH2      OT      -0.834000       15.9994           0   0.00000       0.00000    
     35481 TIP3     3522     TIP3     H1       HT       0.417000       1.00800           0   0.00000       0.00000    
     35482 TIP3     3522     TIP3     H2       HT       0.417000       1.00800           0   0.00000     -0.301140E-02
     35483 TIP3     3523     TIP3     OH2      OT      -0.834000       15.9994           0   0.00000       0.00000    
     35484 TIP3     3523     TIP3     H1       HT       0.417000       1.00800           0   0.00000       0.00000    
     35485 TIP3     3523     TIP3     H2       HT       0.417000       1.00800           0   0.00000     -0.301140E-02
     35486 TIP3     3524     TIP3     OH2      OT      -0.834000       15.9994           0   0.00000       0.00000    
     35487 TIP3     3524     TIP3     H1       HT       0.417000       1.00800           0   0.00000       0.00000    
     35488 TIP3     3524     TIP3     H2       HT       0.417000       1.00800           0   0.00000     -0.301140E-02
     35489 TIP3     3525     TIP3     OH2      OT      -0.834000       15.9994           0   0.00000       0.00000    
     35490 TIP3     3525     TIP3     H1       HT       0.417000       1.00800           0   0.00000       0.00000    
     35491 TIP3     3525     TIP3     H2       HT       0.417000       1.00800           0   0.00000     -0.301140E-02
     35492 TIP3     3526     TIP3     OH2      OT      -0.834000       15.9994           0   0.00000       0.00000    
     35493 TIP3     3526     TIP3     H1       HT       0.417000       1.00800           0   0.00000       0.00000    
     35494 TIP3     3526     TIP3     H2       HT       0.417000       1.00800           0   0.00000     -0.301140E-02
     35495 TIP3     3527     TIP3     OH2      OT      -0.834000       15.9994           0   0.00000       0.00000    
     35496 TIP3     3527     TIP3     H1       HT       0.417000       1.00800           0   0.00000       0.00000    
     35497 TIP3     3527     TIP3     H2       HT       0.417000       1.00800           0   0.00000     -0.301140E-02
     35498 TIP3     3528     TIP3     OH2      OT      -0.834000       15.9994           0   0.00000       0.00000    
     35499 TIP3     3528     TIP3     H1       HT       0.417000       1.00800           0   0.00000       0.00000    
     35500 TIP3     3528     TIP3     H2       HT       0.417000       1.00800           0   0.00000     -0.301140E-02
     35501 TIP3     3529     TIP3     OH2      OT      -0.834000       15.9994           0   0.00000       0.00000    
     35502 TIP3     3529     TIP3     H1       HT       0.417000       1.00800           0   0.00000       0.00000    
     35503 TIP3     3529     TIP3     H2       HT       0.417000       1.00800           0   0.00000     -0.301140E-02
     35504 TIP3     3530     TIP3     OH2      OT      -0.834000       15.9994           0   0.00000       0.00000    
     35505 TIP3     3530     TIP3     H1       HT       0.417000       1.00800           0   0.00000       0.00000    
     35506 TIP3     3530     TIP3     H2       HT       0.417000       1.00800           0   0.00000     -0.301140E-02
     35507 TIP3     3531     TIP3     OH2      OT      -0.834000       15.9994           0   0.00000       0.00000    
     35508 TIP3     3531     TIP3     H1       HT       0.417000       1.00800           0   0.00000       0.00000    
     35509 TIP3     3531     TIP3     H2       HT       0.417000       1.00800           0   0.00000     -0.301140E-02
     35510 TIP3     3532     TIP3     OH2      OT      -0.834000       15.9994           0   0.00000       0.00000    
     35511 TIP3     3532     TIP3     H1       HT       0.417000       1.00800           0   0.00000       0.00000    
     35512 TIP3     3532     TIP3     H2       HT       0.417000       1.00800           0   0.00000     -0.301140E-02
     35513 TIP3     3533     TIP3     OH2      OT      -0.834000       15.9994           0   0.00000       0.00000    
     35514 TIP3     3533     TIP3     H1       HT       0.417000       1.00800           0   0.00000       0.00000    
     35515 TIP3     3533     TIP3     H2       HT       0.417000       1.00800           0   0.00000     -0.301140E-02
     35516 TIP3     3534     TIP3     OH2      OT      -0.834000       15.9994           0   0.00000       0.00000    
     35517 TIP3     3534     TIP3     H1       HT       0.417000       1.00800           0   0.00000       0.00000    
     35518 TIP3     3534     TIP3     H2       HT       0.417000       1.00800           0   0.00000     -0.301140E-02
     35519 TIP3     3535     TIP3     OH2      OT      -0.834000       15.9994           0   0.00000       0.00000    
     35520 TIP3     3535     TIP3     H1       HT       0.417000       1.00800           0   0.00000       0.00000    
     35521 TIP3     3535     TIP3     H2       HT       0.417000       1.00800           0   0.00000     -0.301140E-02
     35522 TIP3     3536     TIP3     OH2      OT      -0.834000       15.9994           0   0.00000       0.00000    
     35523 TIP3     3536     TIP3     H1       HT       0.417000       1.00800           0   0.00000       0.00000    
     35524 TIP3     3536     TIP3     H2       HT       0.417000       1.00800           0   0.00000     -0.301140E-02
     35525 TIP3     3537     TIP3     OH2      OT      -0.834000       15.9994           0   0.00000       0.00000    
     35526 TIP3     3537     TIP3     H1       HT       0.417000       1.00800           0   0.00000       0.00000    
     35527 TIP3     3537     TIP3     H2       HT       0.417000       1.00800           0   0.00000     -0.301140E-02
     35528 TIP3     3538     TIP3     OH2      OT      -0.834000       15.9994           0   0.00000       0.00000    
     35529 TIP3     3538     TIP3     H1       HT       0.417000       1.00800           0   0.00000       0.00000    
     35530 TIP3     3538     TIP3     H2       HT       0.417000       1.00800           0   0.00000     -0.301140E-02
     35531 TIP3     3539     TIP3     OH2      OT      -0.834000       15.9994           0   0.00000       0.00000    
     35532 TIP3     3539     TIP3     H1       HT       0.417000       1.00800           0   0.00000       0.00000    
     35533 TIP3     3539     TIP3     H2       HT       0.417000       1.00800           0   0.00000     -0.301140E-02
     35534 TIP3     3540     TIP3     OH2      OT      -0.834000       15.9994           0   0.00000       0.00000    
     35535 TIP3     3540     TIP3     H1       HT       0.417000       1.00800           0   0.00000       0.00000    
     35536 TIP3     3540     TIP3     H2       HT       0.417000       1.00800           0   0.00000     -0.301140E-02
     35537 TIP3     3541     TIP3     OH2      OT      -0.834000       15.9994           0   0.00000       0.00000    
     35538 TIP3     3541     TIP3     H1       HT       0.417000       1.00800           0   0.00000       0.00000    
     35539 TIP3     3541     TIP3     H2       HT       0.417000       1.00800           0   0.00000     -0.301140E-02
     35540 TIP3     3542     TIP3     OH2      OT      -0.834000       15.9994           0   0.00000       0.00000    
     35541 TIP3     3542     TIP3     H1       HT       0.417000       1.00800           0   0.00000       0.00000    
     35542 TIP3     3542     TIP3     H2       HT       0.417000       1.00800           0   0.00000     -0.301140E-02
     35543 TIP3     3543     TIP3     OH2      OT      -0.834000       15.9994           0   0.00000       0.00000    
     35544 TIP3     3543     TIP3     H1       HT       0.417000       1.00800           0   0.00000       0.00000    
     35545 TIP3     3543     TIP3     H2       HT       0.417000       1.00800           0   0.00000     -0.301140E-02
     35546 TIP3     3544     TIP3     OH2      OT      -0.834000       15.9994           0   0.00000       0.00000    
     35547 TIP3     3544     TIP3     H1       HT       0.417000       1.00800           0   0.00000       0.00000    
     35548 TIP3     3544     TIP3     H2       HT       0.417000       1.00800           0   0.00000     -0.301140E-02
     35549 TIP3     3545     TIP3     OH2      OT      -0.834000       15.9994           0   0.00000       0.00000    
     35550 TIP3     3545     TIP3     H1       HT       0.417000       1.00800           0   0.00000       0.00000    
     35551 TIP3     3545     TIP3     H2       HT       0.417000       1.00800           0   0.00000     -0.301140E-02
     35552 TIP3     3546     TIP3     OH2      OT      -0.834000       15.9994           0   0.00000       0.00000    
     35553 TIP3     3546     TIP3     H1       HT       0.417000       1.00800           0   0.00000       0.00000    
     35554 TIP3     3546     TIP3     H2       HT       0.417000       1.00800           0   0.00000     -0.301140E-02
     35555 TIP3     3547     TIP3     OH2      OT      -0.834000       15.9994           0   0.00000       0.00000    
     35556 TIP3     3547     TIP3     H1       HT       0.417000       1.00800           0   0.00000       0.00000    
     35557 TIP3     3547     TIP3     H2       HT       0.417000       1.00800           0   0.00000     -0.301140E-02
     35558 TIP3     3548     TIP3     OH2      OT      -0.834000       15.9994           0   0.00000       0.00000    
     35559 TIP3     3548     TIP3     H1       HT       0.417000       1.00800           0   0.00000       0.00000    
     35560 TIP3     3548     TIP3     H2       HT       0.417000       1.00800           0   0.00000     -0.301140E-02
     35561 TIP3     3549     TIP3     OH2      OT      -0.834000       15.9994           0   0.00000       0.00000    
     35562 TIP3     3549     TIP3     H1       HT       0.417000       1.00800           0   0.00000       0.00000    
     35563 TIP3     3549     TIP3     H2       HT       0.417000       1.00800           0   0.00000     -0.301140E-02
     35564 TIP3     3550     TIP3     OH2      OT      -0.834000       15.9994           0   0.00000       0.00000    
     35565 TIP3     3550     TIP3     H1       HT       0.417000       1.00800           0   0.00000       0.00000    
     35566 TIP3     3550     TIP3     H2       HT       0.417000       1.00800           0   0.00000     -0.301140E-02
     35567 TIP3     3551     TIP3     OH2      OT      -0.834000       15.9994           0   0.00000       0.00000    
     35568 TIP3     3551     TIP3     H1       HT       0.417000       1.00800           0   0.00000       0.00000    
     35569 TIP3     3551     TIP3     H2       HT       0.417000       1.00800           0   0.00000     -0.301140E-02
     35570 TIP3     3552     TIP3     OH2      OT      -0.834000       15.9994           0   0.00000       0.00000    
     35571 TIP3     3552     TIP3     H1       HT       0.417000       1.00800           0   0.00000       0.00000    
     35572 TIP3     3552     TIP3     H2       HT       0.417000       1.00800           0   0.00000     -0.301140E-02
     35573 TIP3     3553     TIP3     OH2      OT      -0.834000       15.9994           0   0.00000       0.00000    
     35574 TIP3     3553     TIP3     H1       HT       0.417000       1.00800           0   0.00000       0.00000    
     35575 TIP3     3553     TIP3     H2       HT       0.417000       1.00800           0   0.00000     -0.301140E-02
     35576 TIP3     3554     TIP3     OH2      OT      -0.834000       15.9994           0   0.00000       0.00000    
     35577 TIP3     3554     TIP3     H1       HT       0.417000       1.00800           0   0.00000       0.00000    
     35578 TIP3     3554     TIP3     H2       HT       0.417000       1.00800           0   0.00000     -0.301140E-02
     35579 TIP3     3555     TIP3     OH2      OT      -0.834000       15.9994           0   0.00000       0.00000    
     35580 TIP3     3555     TIP3     H1       HT       0.417000       1.00800           0   0.00000       0.00000    
     35581 TIP3     3555     TIP3     H2       HT       0.417000       1.00800           0   0.00000     -0.301140E-02
     35582 TIP3     3556     TIP3     OH2      OT      -0.834000       15.9994           0   0.00000       0.00000    
     35583 TIP3     3556     TIP3     H1       HT       0.417000       1.00800           0   0.00000       0.00000    
     35584 TIP3     3556     TIP3     H2       HT       0.417000       1.00800           0   0.00000     -0.301140E-02
     35585 TIP3     3557     TIP3     OH2      OT      -0.834000       15.9994           0   0.00000       0.00000    
     35586 TIP3     3557     TIP3     H1       HT       0.417000       1.00800           0   0.00000       0.00000    
     35587 TIP3     3557     TIP3     H2       HT       0.417000       1.00800           0   0.00000     -0.301140E-02
     35588 TIP3     3558     TIP3     OH2      OT      -0.834000       15.9994           0   0.00000       0.00000    
     35589 TIP3     3558     TIP3     H1       HT       0.417000       1.00800           0   0.00000       0.00000    
     35590 TIP3     3558     TIP3     H2       HT       0.417000       1.00800           0   0.00000     -0.301140E-02
     35591 TIP3     3559     TIP3     OH2      OT      -0.834000       15.9994           0   0.00000       0.00000    
     35592 TIP3     3559     TIP3     H1       HT       0.417000       1.00800           0   0.00000       0.00000    
     35593 TIP3     3559     TIP3     H2       HT       0.417000       1.00800           0   0.00000     -0.301140E-02
     35594 TIP3     3560     TIP3     OH2      OT      -0.834000       15.9994           0   0.00000       0.00000    
     35595 TIP3     3560     TIP3     H1       HT       0.417000       1.00800           0   0.00000       0.00000    
     35596 TIP3     3560     TIP3     H2       HT       0.417000       1.00800           0   0.00000     -0.301140E-02
     35597 TIP3     3561     TIP3     OH2      OT      -0.834000       15.9994           0   0.00000       0.00000    
     35598 TIP3     3561     TIP3     H1       HT       0.417000       1.00800           0   0.00000       0.00000    
     35599 TIP3     3561     TIP3     H2       HT       0.417000       1.00800           0   0.00000     -0.301140E-02
     35600 TIP3     3562     TIP3     OH2      OT      -0.834000       15.9994           0   0.00000       0.00000    
     35601 TIP3     3562     TIP3     H1       HT       0.417000       1.00800           0   0.00000       0.00000    
     35602 TIP3     3562     TIP3     H2       HT       0.417000       1.00800           0   0.00000     -0.301140E-02
     35603 TIP3     3563     TIP3     OH2      OT      -0.834000       15.9994           0   0.00000       0.00000    
     35604 TIP3     3563     TIP3     H1       HT       0.417000       1.00800           0   0.00000       0.00000    
     35605 TIP3     3563     TIP3     H2       HT       0.417000       1.00800           0   0.00000     -0.301140E-02
     35606 TIP3     3564     TIP3     OH2      OT      -0.834000       15.9994           0   0.00000       0.00000    
     35607 TIP3     3564     TIP3     H1       HT       0.417000       1.00800           0   0.00000       0.00000    
     35608 TIP3     3564     TIP3     H2       HT       0.417000       1.00800           0   0.00000     -0.301140E-02
     35609 TIP3     3565     TIP3     OH2      OT      -0.834000       15.9994           0   0.00000       0.00000    
     35610 TIP3     3565     TIP3     H1       HT       0.417000       1.00800           0   0.00000       0.00000    
     35611 TIP3     3565     TIP3     H2       HT       0.417000       1.00800           0   0.00000     -0.301140E-02
     35612 TIP3     3566     TIP3     OH2      OT      -0.834000       15.9994           0   0.00000       0.00000    
     35613 TIP3     3566     TIP3     H1       HT       0.417000       1.00800           0   0.00000       0.00000    
     35614 TIP3     3566     TIP3     H2       HT       0.417000       1.00800           0   0.00000     -0.301140E-02
     35615 TIP3     3567     TIP3     OH2      OT      -0.834000       15.9994           0   0.00000       0.00000    
     35616 TIP3     3567     TIP3     H1       HT       0.417000       1.00800           0   0.00000       0.00000    
     35617 TIP3     3567     TIP3     H2       HT       0.417000       1.00800           0   0.00000     -0.301140E-02
     35618 TIP3     3568     TIP3     OH2      OT      -0.834000       15.9994           0   0.00000       0.00000    
     35619 TIP3     3568     TIP3     H1       HT       0.417000       1.00800           0   0.00000       0.00000    
     35620 TIP3     3568     TIP3     H2       HT       0.417000       1.00800           0   0.00000     -0.301140E-02
     35621 TIP3     3569     TIP3     OH2      OT      -0.834000       15.9994           0   0.00000       0.00000    
     35622 TIP3     3569     TIP3     H1       HT       0.417000       1.00800           0   0.00000       0.00000    
     35623 TIP3     3569     TIP3     H2       HT       0.417000       1.00800           0   0.00000     -0.301140E-02
     35624 TIP3     3570     TIP3     OH2      OT      -0.834000       15.9994           0   0.00000       0.00000    
     35625 TIP3     3570     TIP3     H1       HT       0.417000       1.00800           0   0.00000       0.00000    
     35626 TIP3     3570     TIP3     H2       HT       0.417000       1.00800           0   0.00000     -0.301140E-02
     35627 TIP3     3571     TIP3     OH2      OT      -0.834000       15.9994           0   0.00000       0.00000    
     35628 TIP3     3571     TIP3     H1       HT       0.417000       1.00800           0   0.00000       0.00000    
     35629 TIP3     3571     TIP3     H2       HT       0.417000       1.00800           0   0.00000     -0.301140E-02
     35630 TIP3     3572     TIP3     OH2      OT      -0.834000       15.9994           0   0.00000       0.00000    
     35631 TIP3     3572     TIP3     H1       HT       0.417000       1.00800           0   0.00000       0.00000    
     35632 TIP3     3572     TIP3     H2       HT       0.417000       1.00800           0   0.00000     -0.301140E-02
     35633 TIP3     3573     TIP3     OH2      OT      -0.834000       15.9994           0   0.00000       0.00000    
     35634 TIP3     3573     TIP3     H1       HT       0.417000       1.00800           0   0.00000       0.00000    
     35635 TIP3     3573     TIP3     H2       HT       0.417000       1.00800           0   0.00000     -0.301140E-02
     35636 TIP3     3574     TIP3     OH2      OT      -0.834000       15.9994           0   0.00000       0.00000    
     35637 TIP3     3574     TIP3     H1       HT       0.417000       1.00800           0   0.00000       0.00000    
     35638 TIP3     3574     TIP3     H2       HT       0.417000       1.00800           0   0.00000     -0.301140E-02
     35639 TIP3     3575     TIP3     OH2      OT      -0.834000       15.9994           0   0.00000       0.00000    
     35640 TIP3     3575     TIP3     H1       HT       0.417000       1.00800           0   0.00000       0.00000    
     35641 TIP3     3575     TIP3     H2       HT       0.417000       1.00800           0   0.00000     -0.301140E-02
     35642 TIP3     3576     TIP3     OH2      OT      -0.834000       15.9994           0   0.00000       0.00000    
     35643 TIP3     3576     TIP3     H1       HT       0.417000       1.00800           0   0.00000       0.00000    
     35644 TIP3     3576     TIP3     H2       HT       0.417000       1.00800           0   0.00000     -0.301140E-02
     35645 TIP3     3577     TIP3     OH2      OT      -0.834000       15.9994           0   0.00000       0.00000    
     35646 TIP3     3577     TIP3     H1       HT       0.417000       1.00800           0   0.00000       0.00000    
     35647 TIP3     3577     TIP3     H2       HT       0.417000       1.00800           0   0.00000     -0.301140E-02
     35648 TIP3     3578     TIP3     OH2      OT      -0.834000       15.9994           0   0.00000       0.00000    
     35649 TIP3     3578     TIP3     H1       HT       0.417000       1.00800           0   0.00000       0.00000    
     35650 TIP3     3578     TIP3     H2       HT       0.417000       1.00800           0   0.00000     -0.301140E-02
     35651 TIP3     3579     TIP3     OH2      OT      -0.834000       15.9994           0   0.00000       0.00000    
     35652 TIP3     3579     TIP3     H1       HT       0.417000       1.00800           0   0.00000       0.00000    
     35653 TIP3     3579     TIP3     H2       HT       0.417000       1.00800           0   0.00000     -0.301140E-02
     35654 TIP3     3580     TIP3     OH2      OT      -0.834000       15.9994           0   0.00000       0.00000    
     35655 TIP3     3580     TIP3     H1       HT       0.417000       1.00800           0   0.00000       0.00000    
     35656 TIP3     3580     TIP3     H2       HT       0.417000       1.00800           0   0.00000     -0.301140E-02
     35657 TIP3     3581     TIP3     OH2      OT      -0.834000       15.9994           0   0.00000       0.00000    
     35658 TIP3     3581     TIP3     H1       HT       0.417000       1.00800           0   0.00000       0.00000    
     35659 TIP3     3581     TIP3     H2       HT       0.417000       1.00800           0   0.00000     -0.301140E-02
     35660 TIP3     3582     TIP3     OH2      OT      -0.834000       15.9994           0   0.00000       0.00000    
     35661 TIP3     3582     TIP3     H1       HT       0.417000       1.00800           0   0.00000       0.00000    
     35662 TIP3     3582     TIP3     H2       HT       0.417000       1.00800           0   0.00000     -0.301140E-02
     35663 TIP3     3583     TIP3     OH2      OT      -0.834000       15.9994           0   0.00000       0.00000    
     35664 TIP3     3583     TIP3     H1       HT       0.417000       1.00800           0   0.00000       0.00000    
     35665 TIP3     3583     TIP3     H2       HT       0.417000       1.00800           0   0.00000     -0.301140E-02
     35666 TIP3     3584     TIP3     OH2      OT      -0.834000       15.9994           0   0.00000       0.00000    
     35667 TIP3     3584     TIP3     H1       HT       0.417000       1.00800           0   0.00000       0.00000    
     35668 TIP3     3584     TIP3     H2       HT       0.417000       1.00800           0   0.00000     -0.301140E-02
     35669 TIP3     3585     TIP3     OH2      OT      -0.834000       15.9994           0   0.00000       0.00000    
     35670 TIP3     3585     TIP3     H1       HT       0.417000       1.00800           0   0.00000       0.00000    
     35671 TIP3     3585     TIP3     H2       HT       0.417000       1.00800           0   0.00000     -0.301140E-02
     35672 TIP3     3586     TIP3     OH2      OT      -0.834000       15.9994           0   0.00000       0.00000    
     35673 TIP3     3586     TIP3     H1       HT       0.417000       1.00800           0   0.00000       0.00000    
     35674 TIP3     3586     TIP3     H2       HT       0.417000       1.00800           0   0.00000     -0.301140E-02
     35675 TIP3     3587     TIP3     OH2      OT      -0.834000       15.9994           0   0.00000       0.00000    
     35676 TIP3     3587     TIP3     H1       HT       0.417000       1.00800           0   0.00000       0.00000    
     35677 TIP3     3587     TIP3     H2       HT       0.417000       1.00800           0   0.00000     -0.301140E-02
     35678 TIP3     3588     TIP3     OH2      OT      -0.834000       15.9994           0   0.00000       0.00000    
     35679 TIP3     3588     TIP3     H1       HT       0.417000       1.00800           0   0.00000       0.00000    
     35680 TIP3     3588     TIP3     H2       HT       0.417000       1.00800           0   0.00000     -0.301140E-02
     35681 TIP3     3589     TIP3     OH2      OT      -0.834000       15.9994           0   0.00000       0.00000    
     35682 TIP3     3589     TIP3     H1       HT       0.417000       1.00800           0   0.00000       0.00000    
     35683 TIP3     3589     TIP3     H2       HT       0.417000       1.00800           0   0.00000     -0.301140E-02
     35684 TIP3     3590     TIP3     OH2      OT      -0.834000       15.9994           0   0.00000       0.00000    
     35685 TIP3     3590     TIP3     H1       HT       0.417000       1.00800           0   0.00000       0.00000    
     35686 TIP3     3590     TIP3     H2       HT       0.417000       1.00800           0   0.00000     -0.301140E-02
     35687 TIP3     3591     TIP3     OH2      OT      -0.834000       15.9994           0   0.00000       0.00000    
     35688 TIP3     3591     TIP3     H1       HT       0.417000       1.00800           0   0.00000       0.00000    
     35689 TIP3     3591     TIP3     H2       HT       0.417000       1.00800           0   0.00000     -0.301140E-02
     35690 TIP3     3592     TIP3     OH2      OT      -0.834000       15.9994           0   0.00000       0.00000    
     35691 TIP3     3592     TIP3     H1       HT       0.417000       1.00800           0   0.00000       0.00000    
     35692 TIP3     3592     TIP3     H2       HT       0.417000       1.00800           0   0.00000     -0.301140E-02
     35693 TIP3     3593     TIP3     OH2      OT      -0.834000       15.9994           0   0.00000       0.00000    
     35694 TIP3     3593     TIP3     H1       HT       0.417000       1.00800           0   0.00000       0.00000    
     35695 TIP3     3593     TIP3     H2       HT       0.417000       1.00800           0   0.00000     -0.301140E-02
     35696 TIP3     3594     TIP3     OH2      OT      -0.834000       15.9994           0   0.00000       0.00000    
     35697 TIP3     3594     TIP3     H1       HT       0.417000       1.00800           0   0.00000       0.00000    
     35698 TIP3     3594     TIP3     H2       HT       0.417000       1.00800           0   0.00000     -0.301140E-02
     35699 TIP3     3595     TIP3     OH2      OT      -0.834000       15.9994           0   0.00000       0.00000    
     35700 TIP3     3595     TIP3     H1       HT       0.417000       1.00800           0   0.00000       0.00000    
     35701 TIP3     3595     TIP3     H2       HT       0.417000       1.00800           0   0.00000     -0.301140E-02
     35702 TIP3     3596     TIP3     OH2      OT      -0.834000       15.9994           0   0.00000       0.00000    
     35703 TIP3     3596     TIP3     H1       HT       0.417000       1.00800           0   0.00000       0.00000    
     35704 TIP3     3596     TIP3     H2       HT       0.417000       1.00800           0   0.00000     -0.301140E-02
     35705 TIP3     3597     TIP3     OH2      OT      -0.834000       15.9994           0   0.00000       0.00000    
     35706 TIP3     3597     TIP3     H1       HT       0.417000       1.00800           0   0.00000       0.00000    
     35707 TIP3     3597     TIP3     H2       HT       0.417000       1.00800           0   0.00000     -0.301140E-02
     35708 TIP3     3598     TIP3     OH2      OT      -0.834000       15.9994           0   0.00000       0.00000    
     35709 TIP3     3598     TIP3     H1       HT       0.417000       1.00800           0   0.00000       0.00000    
     35710 TIP3     3598     TIP3     H2       HT       0.417000       1.00800           0   0.00000     -0.301140E-02
     35711 TIP3     3599     TIP3     OH2      OT      -0.834000       15.9994           0   0.00000       0.00000    
     35712 TIP3     3599     TIP3     H1       HT       0.417000       1.00800           0   0.00000       0.00000    
     35713 TIP3     3599     TIP3     H2       HT       0.417000       1.00800           0   0.00000     -0.301140E-02
     35714 TIP3     3600     TIP3     OH2      OT      -0.834000       15.9994           0   0.00000       0.00000    
     35715 TIP3     3600     TIP3     H1       HT       0.417000       1.00800           0   0.00000       0.00000    
     35716 TIP3     3600     TIP3     H2       HT       0.417000       1.00800           0   0.00000     -0.301140E-02
     35717 TIP3     3601     TIP3     OH2      OT      -0.834000       15.9994           0   0.00000       0.00000    
     35718 TIP3     3601     TIP3     H1       HT       0.417000       1.00800           0   0.00000       0.00000    
     35719 TIP3     3601     TIP3     H2       HT       0.417000       1.00800           0   0.00000     -0.301140E-02
     35720 TIP3     3602     TIP3     OH2      OT      -0.834000       15.9994           0   0.00000       0.00000    
     35721 TIP3     3602     TIP3     H1       HT       0.417000       1.00800           0   0.00000       0.00000    
     35722 TIP3     3602     TIP3     H2       HT       0.417000       1.00800           0   0.00000     -0.301140E-02
     35723 TIP3     3603     TIP3     OH2      OT      -0.834000       15.9994           0   0.00000       0.00000    
     35724 TIP3     3603     TIP3     H1       HT       0.417000       1.00800           0   0.00000       0.00000    
     35725 TIP3     3603     TIP3     H2       HT       0.417000       1.00800           0   0.00000     -0.301140E-02
     35726 TIP3     3604     TIP3     OH2      OT      -0.834000       15.9994           0   0.00000       0.00000    
     35727 TIP3     3604     TIP3     H1       HT       0.417000       1.00800           0   0.00000       0.00000    
     35728 TIP3     3604     TIP3     H2       HT       0.417000       1.00800           0   0.00000     -0.301140E-02
     35729 TIP3     3605     TIP3     OH2      OT      -0.834000       15.9994           0   0.00000       0.00000    
     35730 TIP3     3605     TIP3     H1       HT       0.417000       1.00800           0   0.00000       0.00000    
     35731 TIP3     3605     TIP3     H2       HT       0.417000       1.00800           0   0.00000     -0.301140E-02
     35732 TIP3     3606     TIP3     OH2      OT      -0.834000       15.9994           0   0.00000       0.00000    
     35733 TIP3     3606     TIP3     H1       HT       0.417000       1.00800           0   0.00000       0.00000    
     35734 TIP3     3606     TIP3     H2       HT       0.417000       1.00800           0   0.00000     -0.301140E-02
     35735 TIP3     3607     TIP3     OH2      OT      -0.834000       15.9994           0   0.00000       0.00000    
     35736 TIP3     3607     TIP3     H1       HT       0.417000       1.00800           0   0.00000       0.00000    
     35737 TIP3     3607     TIP3     H2       HT       0.417000       1.00800           0   0.00000     -0.301140E-02
     35738 TIP3     3608     TIP3     OH2      OT      -0.834000       15.9994           0   0.00000       0.00000    
     35739 TIP3     3608     TIP3     H1       HT       0.417000       1.00800           0   0.00000       0.00000    
     35740 TIP3     3608     TIP3     H2       HT       0.417000       1.00800           0   0.00000     -0.301140E-02
     35741 TIP3     3609     TIP3     OH2      OT      -0.834000       15.9994           0   0.00000       0.00000    
     35742 TIP3     3609     TIP3     H1       HT       0.417000       1.00800           0   0.00000       0.00000    
     35743 TIP3     3609     TIP3     H2       HT       0.417000       1.00800           0   0.00000     -0.301140E-02
     35744 TIP3     3610     TIP3     OH2      OT      -0.834000       15.9994           0   0.00000       0.00000    
     35745 TIP3     3610     TIP3     H1       HT       0.417000       1.00800           0   0.00000       0.00000    
     35746 TIP3     3610     TIP3     H2       HT       0.417000       1.00800           0   0.00000     -0.301140E-02
     35747 TIP3     3611     TIP3     OH2      OT      -0.834000       15.9994           0   0.00000       0.00000    
     35748 TIP3     3611     TIP3     H1       HT       0.417000       1.00800           0   0.00000       0.00000    
     35749 TIP3     3611     TIP3     H2       HT       0.417000       1.00800           0   0.00000     -0.301140E-02
     35750 TIP3     3612     TIP3     OH2      OT      -0.834000       15.9994           0   0.00000       0.00000    
     35751 TIP3     3612     TIP3     H1       HT       0.417000       1.00800           0   0.00000       0.00000    
     35752 TIP3     3612     TIP3     H2       HT       0.417000       1.00800           0   0.00000     -0.301140E-02
     35753 TIP3     3613     TIP3     OH2      OT      -0.834000       15.9994           0   0.00000       0.00000    
     35754 TIP3     3613     TIP3     H1       HT       0.417000       1.00800           0   0.00000       0.00000    
     35755 TIP3     3613     TIP3     H2       HT       0.417000       1.00800           0   0.00000     -0.301140E-02
     35756 TIP3     3614     TIP3     OH2      OT      -0.834000       15.9994           0   0.00000       0.00000    
     35757 TIP3     3614     TIP3     H1       HT       0.417000       1.00800           0   0.00000       0.00000    
     35758 TIP3     3614     TIP3     H2       HT       0.417000       1.00800           0   0.00000     -0.301140E-02
     35759 TIP3     3615     TIP3     OH2      OT      -0.834000       15.9994           0   0.00000       0.00000    
     35760 TIP3     3615     TIP3     H1       HT       0.417000       1.00800           0   0.00000       0.00000    
     35761 TIP3     3615     TIP3     H2       HT       0.417000       1.00800           0   0.00000     -0.301140E-02
     35762 TIP3     3616     TIP3     OH2      OT      -0.834000       15.9994           0   0.00000       0.00000    
     35763 TIP3     3616     TIP3     H1       HT       0.417000       1.00800           0   0.00000       0.00000    
     35764 TIP3     3616     TIP3     H2       HT       0.417000       1.00800           0   0.00000     -0.301140E-02
     35765 TIP3     3617     TIP3     OH2      OT      -0.834000       15.9994           0   0.00000       0.00000    
     35766 TIP3     3617     TIP3     H1       HT       0.417000       1.00800           0   0.00000       0.00000    
     35767 TIP3     3617     TIP3     H2       HT       0.417000       1.00800           0   0.00000     -0.301140E-02
     35768 TIP3     3618     TIP3     OH2      OT      -0.834000       15.9994           0   0.00000       0.00000    
     35769 TIP3     3618     TIP3     H1       HT       0.417000       1.00800           0   0.00000       0.00000    
     35770 TIP3     3618     TIP3     H2       HT       0.417000       1.00800           0   0.00000     -0.301140E-02
     35771 TIP3     3619     TIP3     OH2      OT      -0.834000       15.9994           0   0.00000       0.00000    
     35772 TIP3     3619     TIP3     H1       HT       0.417000       1.00800           0   0.00000       0.00000    
     35773 TIP3     3619     TIP3     H2       HT       0.417000       1.00800           0   0.00000     -0.301140E-02
     35774 TIP3     3620     TIP3     OH2      OT      -0.834000       15.9994           0   0.00000       0.00000    
     35775 TIP3     3620     TIP3     H1       HT       0.417000       1.00800           0   0.00000       0.00000    
     35776 TIP3     3620     TIP3     H2       HT       0.417000       1.00800           0   0.00000     -0.301140E-02
     35777 TIP3     3621     TIP3     OH2      OT      -0.834000       15.9994           0   0.00000       0.00000    
     35778 TIP3     3621     TIP3     H1       HT       0.417000       1.00800           0   0.00000       0.00000    
     35779 TIP3     3621     TIP3     H2       HT       0.417000       1.00800           0   0.00000     -0.301140E-02
     35780 TIP3     3622     TIP3     OH2      OT      -0.834000       15.9994           0   0.00000       0.00000    
     35781 TIP3     3622     TIP3     H1       HT       0.417000       1.00800           0   0.00000       0.00000    
     35782 TIP3     3622     TIP3     H2       HT       0.417000       1.00800           0   0.00000     -0.301140E-02
     35783 TIP3     3623     TIP3     OH2      OT      -0.834000       15.9994           0   0.00000       0.00000    
     35784 TIP3     3623     TIP3     H1       HT       0.417000       1.00800           0   0.00000       0.00000    
     35785 TIP3     3623     TIP3     H2       HT       0.417000       1.00800           0   0.00000     -0.301140E-02
     35786 TIP3     3624     TIP3     OH2      OT      -0.834000       15.9994           0   0.00000       0.00000    
     35787 TIP3     3624     TIP3     H1       HT       0.417000       1.00800           0   0.00000       0.00000    
     35788 TIP3     3624     TIP3     H2       HT       0.417000       1.00800           0   0.00000     -0.301140E-02
     35789 TIP3     3625     TIP3     OH2      OT      -0.834000       15.9994           0   0.00000       0.00000    
     35790 TIP3     3625     TIP3     H1       HT       0.417000       1.00800           0   0.00000       0.00000    
     35791 TIP3     3625     TIP3     H2       HT       0.417000       1.00800           0   0.00000     -0.301140E-02
     35792 TIP3     3626     TIP3     OH2      OT      -0.834000       15.9994           0   0.00000       0.00000    
     35793 TIP3     3626     TIP3     H1       HT       0.417000       1.00800           0   0.00000       0.00000    
     35794 TIP3     3626     TIP3     H2       HT       0.417000       1.00800           0   0.00000     -0.301140E-02
     35795 TIP3     3627     TIP3     OH2      OT      -0.834000       15.9994           0   0.00000       0.00000    
     35796 TIP3     3627     TIP3     H1       HT       0.417000       1.00800           0   0.00000       0.00000    
     35797 TIP3     3627     TIP3     H2       HT       0.417000       1.00800           0   0.00000     -0.301140E-02
     35798 TIP3     3628     TIP3     OH2      OT      -0.834000       15.9994           0   0.00000       0.00000    
     35799 TIP3     3628     TIP3     H1       HT       0.417000       1.00800           0   0.00000       0.00000    
     35800 TIP3     3628     TIP3     H2       HT       0.417000       1.00800           0   0.00000     -0.301140E-02
     35801 TIP3     3629     TIP3     OH2      OT      -0.834000       15.9994           0   0.00000       0.00000    
     35802 TIP3     3629     TIP3     H1       HT       0.417000       1.00800           0   0.00000       0.00000    
     35803 TIP3     3629     TIP3     H2       HT       0.417000       1.00800           0   0.00000     -0.301140E-02
     35804 TIP3     3630     TIP3     OH2      OT      -0.834000       15.9994           0   0.00000       0.00000    
     35805 TIP3     3630     TIP3     H1       HT       0.417000       1.00800           0   0.00000       0.00000    
     35806 TIP3     3630     TIP3     H2       HT       0.417000       1.00800           0   0.00000     -0.301140E-02
     35807 TIP3     3631     TIP3     OH2      OT      -0.834000       15.9994           0   0.00000       0.00000    
     35808 TIP3     3631     TIP3     H1       HT       0.417000       1.00800           0   0.00000       0.00000    
     35809 TIP3     3631     TIP3     H2       HT       0.417000       1.00800           0   0.00000     -0.301140E-02
     35810 TIP3     3632     TIP3     OH2      OT      -0.834000       15.9994           0   0.00000       0.00000    
     35811 TIP3     3632     TIP3     H1       HT       0.417000       1.00800           0   0.00000       0.00000    
     35812 TIP3     3632     TIP3     H2       HT       0.417000       1.00800           0   0.00000     -0.301140E-02
     35813 TIP3     3633     TIP3     OH2      OT      -0.834000       15.9994           0   0.00000       0.00000    
     35814 TIP3     3633     TIP3     H1       HT       0.417000       1.00800           0   0.00000       0.00000    
     35815 TIP3     3633     TIP3     H2       HT       0.417000       1.00800           0   0.00000     -0.301140E-02
     35816 TIP3     3634     TIP3     OH2      OT      -0.834000       15.9994           0   0.00000       0.00000    
     35817 TIP3     3634     TIP3     H1       HT       0.417000       1.00800           0   0.00000       0.00000    
     35818 TIP3     3634     TIP3     H2       HT       0.417000       1.00800           0   0.00000     -0.301140E-02
     35819 TIP3     3635     TIP3     OH2      OT      -0.834000       15.9994           0   0.00000       0.00000    
     35820 TIP3     3635     TIP3     H1       HT       0.417000       1.00800           0   0.00000       0.00000    
     35821 TIP3     3635     TIP3     H2       HT       0.417000       1.00800           0   0.00000     -0.301140E-02
     35822 TIP3     3636     TIP3     OH2      OT      -0.834000       15.9994           0   0.00000       0.00000    
     35823 TIP3     3636     TIP3     H1       HT       0.417000       1.00800           0   0.00000       0.00000    
     35824 TIP3     3636     TIP3     H2       HT       0.417000       1.00800           0   0.00000     -0.301140E-02
     35825 TIP3     3637     TIP3     OH2      OT      -0.834000       15.9994           0   0.00000       0.00000    
     35826 TIP3     3637     TIP3     H1       HT       0.417000       1.00800           0   0.00000       0.00000    
     35827 TIP3     3637     TIP3     H2       HT       0.417000       1.00800           0   0.00000     -0.301140E-02
     35828 TIP3     3638     TIP3     OH2      OT      -0.834000       15.9994           0   0.00000       0.00000    
     35829 TIP3     3638     TIP3     H1       HT       0.417000       1.00800           0   0.00000       0.00000    
     35830 TIP3     3638     TIP3     H2       HT       0.417000       1.00800           0   0.00000     -0.301140E-02
     35831 TIP3     3639     TIP3     OH2      OT      -0.834000       15.9994           0   0.00000       0.00000    
     35832 TIP3     3639     TIP3     H1       HT       0.417000       1.00800           0   0.00000       0.00000    
     35833 TIP3     3639     TIP3     H2       HT       0.417000       1.00800           0   0.00000     -0.301140E-02
     35834 TIP3     3640     TIP3     OH2      OT      -0.834000       15.9994           0   0.00000       0.00000    
     35835 TIP3     3640     TIP3     H1       HT       0.417000       1.00800           0   0.00000       0.00000    
     35836 TIP3     3640     TIP3     H2       HT       0.417000       1.00800           0   0.00000     -0.301140E-02
     35837 TIP3     3641     TIP3     OH2      OT      -0.834000       15.9994           0   0.00000       0.00000    
     35838 TIP3     3641     TIP3     H1       HT       0.417000       1.00800           0   0.00000       0.00000    
     35839 TIP3     3641     TIP3     H2       HT       0.417000       1.00800           0   0.00000     -0.301140E-02
     35840 TIP3     3642     TIP3     OH2      OT      -0.834000       15.9994           0   0.00000       0.00000    
     35841 TIP3     3642     TIP3     H1       HT       0.417000       1.00800           0   0.00000       0.00000    
     35842 TIP3     3642     TIP3     H2       HT       0.417000       1.00800           0   0.00000     -0.301140E-02
     35843 TIP3     3643     TIP3     OH2      OT      -0.834000       15.9994           0   0.00000       0.00000    
     35844 TIP3     3643     TIP3     H1       HT       0.417000       1.00800           0   0.00000       0.00000    
     35845 TIP3     3643     TIP3     H2       HT       0.417000       1.00800           0   0.00000     -0.301140E-02
     35846 TIP3     3644     TIP3     OH2      OT      -0.834000       15.9994           0   0.00000       0.00000    
     35847 TIP3     3644     TIP3     H1       HT       0.417000       1.00800           0   0.00000       0.00000    
     35848 TIP3     3644     TIP3     H2       HT       0.417000       1.00800           0   0.00000     -0.301140E-02
     35849 TIP3     3645     TIP3     OH2      OT      -0.834000       15.9994           0   0.00000       0.00000    
     35850 TIP3     3645     TIP3     H1       HT       0.417000       1.00800           0   0.00000       0.00000    
     35851 TIP3     3645     TIP3     H2       HT       0.417000       1.00800           0   0.00000     -0.301140E-02
     35852 TIP3     3646     TIP3     OH2      OT      -0.834000       15.9994           0   0.00000       0.00000    
     35853 TIP3     3646     TIP3     H1       HT       0.417000       1.00800           0   0.00000       0.00000    
     35854 TIP3     3646     TIP3     H2       HT       0.417000       1.00800           0   0.00000     -0.301140E-02
     35855 TIP3     3647     TIP3     OH2      OT      -0.834000       15.9994           0   0.00000       0.00000    
     35856 TIP3     3647     TIP3     H1       HT       0.417000       1.00800           0   0.00000       0.00000    
     35857 TIP3     3647     TIP3     H2       HT       0.417000       1.00800           0   0.00000     -0.301140E-02
     35858 TIP3     3648     TIP3     OH2      OT      -0.834000       15.9994           0   0.00000       0.00000    
     35859 TIP3     3648     TIP3     H1       HT       0.417000       1.00800           0   0.00000       0.00000    
     35860 TIP3     3648     TIP3     H2       HT       0.417000       1.00800           0   0.00000     -0.301140E-02
     35861 TIP3     3649     TIP3     OH2      OT      -0.834000       15.9994           0   0.00000       0.00000    
     35862 TIP3     3649     TIP3     H1       HT       0.417000       1.00800           0   0.00000       0.00000    
     35863 TIP3     3649     TIP3     H2       HT       0.417000       1.00800           0   0.00000     -0.301140E-02
     35864 TIP3     3650     TIP3     OH2      OT      -0.834000       15.9994           0   0.00000       0.00000    
     35865 TIP3     3650     TIP3     H1       HT       0.417000       1.00800           0   0.00000       0.00000    
     35866 TIP3     3650     TIP3     H2       HT       0.417000       1.00800           0   0.00000     -0.301140E-02
     35867 TIP3     3651     TIP3     OH2      OT      -0.834000       15.9994           0   0.00000       0.00000    
     35868 TIP3     3651     TIP3     H1       HT       0.417000       1.00800           0   0.00000       0.00000    
     35869 TIP3     3651     TIP3     H2       HT       0.417000       1.00800           0   0.00000     -0.301140E-02
     35870 TIP3     3652     TIP3     OH2      OT      -0.834000       15.9994           0   0.00000       0.00000    
     35871 TIP3     3652     TIP3     H1       HT       0.417000       1.00800           0   0.00000       0.00000    
     35872 TIP3     3652     TIP3     H2       HT       0.417000       1.00800           0   0.00000     -0.301140E-02
     35873 TIP3     3653     TIP3     OH2      OT      -0.834000       15.9994           0   0.00000       0.00000    
     35874 TIP3     3653     TIP3     H1       HT       0.417000       1.00800           0   0.00000       0.00000    
     35875 TIP3     3653     TIP3     H2       HT       0.417000       1.00800           0   0.00000     -0.301140E-02
     35876 TIP3     3654     TIP3     OH2      OT      -0.834000       15.9994           0   0.00000       0.00000    
     35877 TIP3     3654     TIP3     H1       HT       0.417000       1.00800           0   0.00000       0.00000    
     35878 TIP3     3654     TIP3     H2       HT       0.417000       1.00800           0   0.00000     -0.301140E-02
     35879 TIP3     3655     TIP3     OH2      OT      -0.834000       15.9994           0   0.00000       0.00000    
     35880 TIP3     3655     TIP3     H1       HT       0.417000       1.00800           0   0.00000       0.00000    
     35881 TIP3     3655     TIP3     H2       HT       0.417000       1.00800           0   0.00000     -0.301140E-02
     35882 TIP3     3656     TIP3     OH2      OT      -0.834000       15.9994           0   0.00000       0.00000    
     35883 TIP3     3656     TIP3     H1       HT       0.417000       1.00800           0   0.00000       0.00000    
     35884 TIP3     3656     TIP3     H2       HT       0.417000       1.00800           0   0.00000     -0.301140E-02
     35885 TIP3     3657     TIP3     OH2      OT      -0.834000       15.9994           0   0.00000       0.00000    
     35886 TIP3     3657     TIP3     H1       HT       0.417000       1.00800           0   0.00000       0.00000    
     35887 TIP3     3657     TIP3     H2       HT       0.417000       1.00800           0   0.00000     -0.301140E-02
     35888 TIP3     3658     TIP3     OH2      OT      -0.834000       15.9994           0   0.00000       0.00000    
     35889 TIP3     3658     TIP3     H1       HT       0.417000       1.00800           0   0.00000       0.00000    
     35890 TIP3     3658     TIP3     H2       HT       0.417000       1.00800           0   0.00000     -0.301140E-02
     35891 TIP3     3659     TIP3     OH2      OT      -0.834000       15.9994           0   0.00000       0.00000    
     35892 TIP3     3659     TIP3     H1       HT       0.417000       1.00800           0   0.00000       0.00000    
     35893 TIP3     3659     TIP3     H2       HT       0.417000       1.00800           0   0.00000     -0.301140E-02
     35894 TIP3     3660     TIP3     OH2      OT      -0.834000       15.9994           0   0.00000       0.00000    
     35895 TIP3     3660     TIP3     H1       HT       0.417000       1.00800           0   0.00000       0.00000    
     35896 TIP3     3660     TIP3     H2       HT       0.417000       1.00800           0   0.00000     -0.301140E-02
     35897 TIP3     3661     TIP3     OH2      OT      -0.834000       15.9994           0   0.00000       0.00000    
     35898 TIP3     3661     TIP3     H1       HT       0.417000       1.00800           0   0.00000       0.00000    
     35899 TIP3     3661     TIP3     H2       HT       0.417000       1.00800           0   0.00000     -0.301140E-02
     35900 TIP3     3662     TIP3     OH2      OT      -0.834000       15.9994           0   0.00000       0.00000    
     35901 TIP3     3662     TIP3     H1       HT       0.417000       1.00800           0   0.00000       0.00000    
     35902 TIP3     3662     TIP3     H2       HT       0.417000       1.00800           0   0.00000     -0.301140E-02
     35903 TIP3     3663     TIP3     OH2      OT      -0.834000       15.9994           0   0.00000       0.00000    
     35904 TIP3     3663     TIP3     H1       HT       0.417000       1.00800           0   0.00000       0.00000    
     35905 TIP3     3663     TIP3     H2       HT       0.417000       1.00800           0   0.00000     -0.301140E-02
     35906 TIP3     3664     TIP3     OH2      OT      -0.834000       15.9994           0   0.00000       0.00000    
     35907 TIP3     3664     TIP3     H1       HT       0.417000       1.00800           0   0.00000       0.00000    
     35908 TIP3     3664     TIP3     H2       HT       0.417000       1.00800           0   0.00000     -0.301140E-02
     35909 TIP3     3665     TIP3     OH2      OT      -0.834000       15.9994           0   0.00000       0.00000    
     35910 TIP3     3665     TIP3     H1       HT       0.417000       1.00800           0   0.00000       0.00000    
     35911 TIP3     3665     TIP3     H2       HT       0.417000       1.00800           0   0.00000     -0.301140E-02
     35912 TIP3     3666     TIP3     OH2      OT      -0.834000       15.9994           0   0.00000       0.00000    
     35913 TIP3     3666     TIP3     H1       HT       0.417000       1.00800           0   0.00000       0.00000    
     35914 TIP3     3666     TIP3     H2       HT       0.417000       1.00800           0   0.00000     -0.301140E-02
     35915 TIP3     3667     TIP3     OH2      OT      -0.834000       15.9994           0   0.00000       0.00000    
     35916 TIP3     3667     TIP3     H1       HT       0.417000       1.00800           0   0.00000       0.00000    
     35917 TIP3     3667     TIP3     H2       HT       0.417000       1.00800           0   0.00000     -0.301140E-02
     35918 TIP3     3668     TIP3     OH2      OT      -0.834000       15.9994           0   0.00000       0.00000    
     35919 TIP3     3668     TIP3     H1       HT       0.417000       1.00800           0   0.00000       0.00000    
     35920 TIP3     3668     TIP3     H2       HT       0.417000       1.00800           0   0.00000     -0.301140E-02
     35921 TIP3     3669     TIP3     OH2      OT      -0.834000       15.9994           0   0.00000       0.00000    
     35922 TIP3     3669     TIP3     H1       HT       0.417000       1.00800           0   0.00000       0.00000    
     35923 TIP3     3669     TIP3     H2       HT       0.417000       1.00800           0   0.00000     -0.301140E-02
     35924 TIP3     3670     TIP3     OH2      OT      -0.834000       15.9994           0   0.00000       0.00000    
     35925 TIP3     3670     TIP3     H1       HT       0.417000       1.00800           0   0.00000       0.00000    
     35926 TIP3     3670     TIP3     H2       HT       0.417000       1.00800           0   0.00000     -0.301140E-02
     35927 TIP3     3671     TIP3     OH2      OT      -0.834000       15.9994           0   0.00000       0.00000    
     35928 TIP3     3671     TIP3     H1       HT       0.417000       1.00800           0   0.00000       0.00000    
     35929 TIP3     3671     TIP3     H2       HT       0.417000       1.00800           0   0.00000     -0.301140E-02
     35930 TIP3     3672     TIP3     OH2      OT      -0.834000       15.9994           0   0.00000       0.00000    
     35931 TIP3     3672     TIP3     H1       HT       0.417000       1.00800           0   0.00000       0.00000    
     35932 TIP3     3672     TIP3     H2       HT       0.417000       1.00800           0   0.00000     -0.301140E-02
     35933 TIP3     3673     TIP3     OH2      OT      -0.834000       15.9994           0   0.00000       0.00000    
     35934 TIP3     3673     TIP3     H1       HT       0.417000       1.00800           0   0.00000       0.00000    
     35935 TIP3     3673     TIP3     H2       HT       0.417000       1.00800           0   0.00000     -0.301140E-02
     35936 TIP3     3674     TIP3     OH2      OT      -0.834000       15.9994           0   0.00000       0.00000    
     35937 TIP3     3674     TIP3     H1       HT       0.417000       1.00800           0   0.00000       0.00000    
     35938 TIP3     3674     TIP3     H2       HT       0.417000       1.00800           0   0.00000     -0.301140E-02
     35939 TIP3     3675     TIP3     OH2      OT      -0.834000       15.9994           0   0.00000       0.00000    
     35940 TIP3     3675     TIP3     H1       HT       0.417000       1.00800           0   0.00000       0.00000    
     35941 TIP3     3675     TIP3     H2       HT       0.417000       1.00800           0   0.00000     -0.301140E-02
     35942 TIP3     3676     TIP3     OH2      OT      -0.834000       15.9994           0   0.00000       0.00000    
     35943 TIP3     3676     TIP3     H1       HT       0.417000       1.00800           0   0.00000       0.00000    
     35944 TIP3     3676     TIP3     H2       HT       0.417000       1.00800           0   0.00000     -0.301140E-02
     35945 TIP3     3677     TIP3     OH2      OT      -0.834000       15.9994           0   0.00000       0.00000    
     35946 TIP3     3677     TIP3     H1       HT       0.417000       1.00800           0   0.00000       0.00000    
     35947 TIP3     3677     TIP3     H2       HT       0.417000       1.00800           0   0.00000     -0.301140E-02
     35948 TIP3     3678     TIP3     OH2      OT      -0.834000       15.9994           0   0.00000       0.00000    
     35949 TIP3     3678     TIP3     H1       HT       0.417000       1.00800           0   0.00000       0.00000    
     35950 TIP3     3678     TIP3     H2       HT       0.417000       1.00800           0   0.00000     -0.301140E-02
     35951 TIP3     3679     TIP3     OH2      OT      -0.834000       15.9994           0   0.00000       0.00000    
     35952 TIP3     3679     TIP3     H1       HT       0.417000       1.00800           0   0.00000       0.00000    
     35953 TIP3     3679     TIP3     H2       HT       0.417000       1.00800           0   0.00000     -0.301140E-02
     35954 TIP3     3680     TIP3     OH2      OT      -0.834000       15.9994           0   0.00000       0.00000    
     35955 TIP3     3680     TIP3     H1       HT       0.417000       1.00800           0   0.00000       0.00000    
     35956 TIP3     3680     TIP3     H2       HT       0.417000       1.00800           0   0.00000     -0.301140E-02
     35957 TIP3     3681     TIP3     OH2      OT      -0.834000       15.9994           0   0.00000       0.00000    
     35958 TIP3     3681     TIP3     H1       HT       0.417000       1.00800           0   0.00000       0.00000    
     35959 TIP3     3681     TIP3     H2       HT       0.417000       1.00800           0   0.00000     -0.301140E-02
     35960 TIP3     3682     TIP3     OH2      OT      -0.834000       15.9994           0   0.00000       0.00000    
     35961 TIP3     3682     TIP3     H1       HT       0.417000       1.00800           0   0.00000       0.00000    
     35962 TIP3     3682     TIP3     H2       HT       0.417000       1.00800           0   0.00000     -0.301140E-02
     35963 TIP3     3683     TIP3     OH2      OT      -0.834000       15.9994           0   0.00000       0.00000    
     35964 TIP3     3683     TIP3     H1       HT       0.417000       1.00800           0   0.00000       0.00000    
     35965 TIP3     3683     TIP3     H2       HT       0.417000       1.00800           0   0.00000     -0.301140E-02
     35966 TIP3     3684     TIP3     OH2      OT      -0.834000       15.9994           0   0.00000       0.00000    
     35967 TIP3     3684     TIP3     H1       HT       0.417000       1.00800           0   0.00000       0.00000    
     35968 TIP3     3684     TIP3     H2       HT       0.417000       1.00800           0   0.00000     -0.301140E-02
     35969 TIP3     3685     TIP3     OH2      OT      -0.834000       15.9994           0   0.00000       0.00000    
     35970 TIP3     3685     TIP3     H1       HT       0.417000       1.00800           0   0.00000       0.00000    
     35971 TIP3     3685     TIP3     H2       HT       0.417000       1.00800           0   0.00000     -0.301140E-02
     35972 TIP3     3686     TIP3     OH2      OT      -0.834000       15.9994           0   0.00000       0.00000    
     35973 TIP3     3686     TIP3     H1       HT       0.417000       1.00800           0   0.00000       0.00000    
     35974 TIP3     3686     TIP3     H2       HT       0.417000       1.00800           0   0.00000     -0.301140E-02
     35975 TIP3     3687     TIP3     OH2      OT      -0.834000       15.9994           0   0.00000       0.00000    
     35976 TIP3     3687     TIP3     H1       HT       0.417000       1.00800           0   0.00000       0.00000    
     35977 TIP3     3687     TIP3     H2       HT       0.417000       1.00800           0   0.00000     -0.301140E-02
     35978 TIP3     3688     TIP3     OH2      OT      -0.834000       15.9994           0   0.00000       0.00000    
     35979 TIP3     3688     TIP3     H1       HT       0.417000       1.00800           0   0.00000       0.00000    
     35980 TIP3     3688     TIP3     H2       HT       0.417000       1.00800           0   0.00000     -0.301140E-02
     35981 TIP3     3689     TIP3     OH2      OT      -0.834000       15.9994           0   0.00000       0.00000    
     35982 TIP3     3689     TIP3     H1       HT       0.417000       1.00800           0   0.00000       0.00000    
     35983 TIP3     3689     TIP3     H2       HT       0.417000       1.00800           0   0.00000     -0.301140E-02
     35984 TIP3     3690     TIP3     OH2      OT      -0.834000       15.9994           0   0.00000       0.00000    
     35985 TIP3     3690     TIP3     H1       HT       0.417000       1.00800           0   0.00000       0.00000    
     35986 TIP3     3690     TIP3     H2       HT       0.417000       1.00800           0   0.00000     -0.301140E-02
     35987 TIP3     3691     TIP3     OH2      OT      -0.834000       15.9994           0   0.00000       0.00000    
     35988 TIP3     3691     TIP3     H1       HT       0.417000       1.00800           0   0.00000       0.00000    
     35989 TIP3     3691     TIP3     H2       HT       0.417000       1.00800           0   0.00000     -0.301140E-02
     35990 TIP3     3692     TIP3     OH2      OT      -0.834000       15.9994           0   0.00000       0.00000    
     35991 TIP3     3692     TIP3     H1       HT       0.417000       1.00800           0   0.00000       0.00000    
     35992 TIP3     3692     TIP3     H2       HT       0.417000       1.00800           0   0.00000     -0.301140E-02
     35993 TIP3     3693     TIP3     OH2      OT      -0.834000       15.9994           0   0.00000       0.00000    
     35994 TIP3     3693     TIP3     H1       HT       0.417000       1.00800           0   0.00000       0.00000    
     35995 TIP3     3693     TIP3     H2       HT       0.417000       1.00800           0   0.00000     -0.301140E-02
     35996 TIP3     3694     TIP3     OH2      OT      -0.834000       15.9994           0   0.00000       0.00000    
     35997 TIP3     3694     TIP3     H1       HT       0.417000       1.00800           0   0.00000       0.00000    
     35998 TIP3     3694     TIP3     H2       HT       0.417000       1.00800           0   0.00000     -0.301140E-02
     35999 TIP3     3695     TIP3     OH2      OT      -0.834000       15.9994           0   0.00000       0.00000    
     36000 TIP3     3695     TIP3     H1       HT       0.417000       1.00800           0   0.00000       0.00000    
     36001 TIP3     3695     TIP3     H2       HT       0.417000       1.00800           0   0.00000     -0.301140E-02
     36002 TIP3     3696     TIP3     OH2      OT      -0.834000       15.9994           0   0.00000       0.00000    
     36003 TIP3     3696     TIP3     H1       HT       0.417000       1.00800           0   0.00000       0.00000    
     36004 TIP3     3696     TIP3     H2       HT       0.417000       1.00800           0   0.00000     -0.301140E-02
     36005 TIP3     3697     TIP3     OH2      OT      -0.834000       15.9994           0   0.00000       0.00000    
     36006 TIP3     3697     TIP3     H1       HT       0.417000       1.00800           0   0.00000       0.00000    
     36007 TIP3     3697     TIP3     H2       HT       0.417000       1.00800           0   0.00000     -0.301140E-02
     36008 TIP3     3698     TIP3     OH2      OT      -0.834000       15.9994           0   0.00000       0.00000    
     36009 TIP3     3698     TIP3     H1       HT       0.417000       1.00800           0   0.00000       0.00000    
     36010 TIP3     3698     TIP3     H2       HT       0.417000       1.00800           0   0.00000     -0.301140E-02
     36011 TIP3     3699     TIP3     OH2      OT      -0.834000       15.9994           0   0.00000       0.00000    
     36012 TIP3     3699     TIP3     H1       HT       0.417000       1.00800           0   0.00000       0.00000    
     36013 TIP3     3699     TIP3     H2       HT       0.417000       1.00800           0   0.00000     -0.301140E-02
     36014 TIP3     3700     TIP3     OH2      OT      -0.834000       15.9994           0   0.00000       0.00000    
     36015 TIP3     3700     TIP3     H1       HT       0.417000       1.00800           0   0.00000       0.00000    
     36016 TIP3     3700     TIP3     H2       HT       0.417000       1.00800           0   0.00000     -0.301140E-02
     36017 TIP3     3701     TIP3     OH2      OT      -0.834000       15.9994           0   0.00000       0.00000    
     36018 TIP3     3701     TIP3     H1       HT       0.417000       1.00800           0   0.00000       0.00000    
     36019 TIP3     3701     TIP3     H2       HT       0.417000       1.00800           0   0.00000     -0.301140E-02
     36020 TIP3     3702     TIP3     OH2      OT      -0.834000       15.9994           0   0.00000       0.00000    
     36021 TIP3     3702     TIP3     H1       HT       0.417000       1.00800           0   0.00000       0.00000    
     36022 TIP3     3702     TIP3     H2       HT       0.417000       1.00800           0   0.00000     -0.301140E-02
     36023 TIP3     3703     TIP3     OH2      OT      -0.834000       15.9994           0   0.00000       0.00000    
     36024 TIP3     3703     TIP3     H1       HT       0.417000       1.00800           0   0.00000       0.00000    
     36025 TIP3     3703     TIP3     H2       HT       0.417000       1.00800           0   0.00000     -0.301140E-02
     36026 TIP3     3704     TIP3     OH2      OT      -0.834000       15.9994           0   0.00000       0.00000    
     36027 TIP3     3704     TIP3     H1       HT       0.417000       1.00800           0   0.00000       0.00000    
     36028 TIP3     3704     TIP3     H2       HT       0.417000       1.00800           0   0.00000     -0.301140E-02
     36029 TIP3     3705     TIP3     OH2      OT      -0.834000       15.9994           0   0.00000       0.00000    
     36030 TIP3     3705     TIP3     H1       HT       0.417000       1.00800           0   0.00000       0.00000    
     36031 TIP3     3705     TIP3     H2       HT       0.417000       1.00800           0   0.00000     -0.301140E-02
     36032 TIP3     3706     TIP3     OH2      OT      -0.834000       15.9994           0   0.00000       0.00000    
     36033 TIP3     3706     TIP3     H1       HT       0.417000       1.00800           0   0.00000       0.00000    
     36034 TIP3     3706     TIP3     H2       HT       0.417000       1.00800           0   0.00000     -0.301140E-02
     36035 TIP3     3707     TIP3     OH2      OT      -0.834000       15.9994           0   0.00000       0.00000    
     36036 TIP3     3707     TIP3     H1       HT       0.417000       1.00800           0   0.00000       0.00000    
     36037 TIP3     3707     TIP3     H2       HT       0.417000       1.00800           0   0.00000     -0.301140E-02
     36038 TIP3     3708     TIP3     OH2      OT      -0.834000       15.9994           0   0.00000       0.00000    
     36039 TIP3     3708     TIP3     H1       HT       0.417000       1.00800           0   0.00000       0.00000    
     36040 TIP3     3708     TIP3     H2       HT       0.417000       1.00800           0   0.00000     -0.301140E-02
     36041 TIP3     3709     TIP3     OH2      OT      -0.834000       15.9994           0   0.00000       0.00000    
     36042 TIP3     3709     TIP3     H1       HT       0.417000       1.00800           0   0.00000       0.00000    
     36043 TIP3     3709     TIP3     H2       HT       0.417000       1.00800           0   0.00000     -0.301140E-02
     36044 TIP3     3710     TIP3     OH2      OT      -0.834000       15.9994           0   0.00000       0.00000    
     36045 TIP3     3710     TIP3     H1       HT       0.417000       1.00800           0   0.00000       0.00000    
     36046 TIP3     3710     TIP3     H2       HT       0.417000       1.00800           0   0.00000     -0.301140E-02
     36047 TIP3     3711     TIP3     OH2      OT      -0.834000       15.9994           0   0.00000       0.00000    
     36048 TIP3     3711     TIP3     H1       HT       0.417000       1.00800           0   0.00000       0.00000    
     36049 TIP3     3711     TIP3     H2       HT       0.417000       1.00800           0   0.00000     -0.301140E-02
     36050 TIP3     3712     TIP3     OH2      OT      -0.834000       15.9994           0   0.00000       0.00000    
     36051 TIP3     3712     TIP3     H1       HT       0.417000       1.00800           0   0.00000       0.00000    
     36052 TIP3     3712     TIP3     H2       HT       0.417000       1.00800           0   0.00000     -0.301140E-02
     36053 TIP3     3713     TIP3     OH2      OT      -0.834000       15.9994           0   0.00000       0.00000    
     36054 TIP3     3713     TIP3     H1       HT       0.417000       1.00800           0   0.00000       0.00000    
     36055 TIP3     3713     TIP3     H2       HT       0.417000       1.00800           0   0.00000     -0.301140E-02
     36056 TIP3     3714     TIP3     OH2      OT      -0.834000       15.9994           0   0.00000       0.00000    
     36057 TIP3     3714     TIP3     H1       HT       0.417000       1.00800           0   0.00000       0.00000    
     36058 TIP3     3714     TIP3     H2       HT       0.417000       1.00800           0   0.00000     -0.301140E-02
     36059 TIP3     3715     TIP3     OH2      OT      -0.834000       15.9994           0   0.00000       0.00000    
     36060 TIP3     3715     TIP3     H1       HT       0.417000       1.00800           0   0.00000       0.00000    
     36061 TIP3     3715     TIP3     H2       HT       0.417000       1.00800           0   0.00000     -0.301140E-02
     36062 TIP3     3716     TIP3     OH2      OT      -0.834000       15.9994           0   0.00000       0.00000    
     36063 TIP3     3716     TIP3     H1       HT       0.417000       1.00800           0   0.00000       0.00000    
     36064 TIP3     3716     TIP3     H2       HT       0.417000       1.00800           0   0.00000     -0.301140E-02
     36065 TIP3     3717     TIP3     OH2      OT      -0.834000       15.9994           0   0.00000       0.00000    
     36066 TIP3     3717     TIP3     H1       HT       0.417000       1.00800           0   0.00000       0.00000    
     36067 TIP3     3717     TIP3     H2       HT       0.417000       1.00800           0   0.00000     -0.301140E-02
     36068 TIP3     3718     TIP3     OH2      OT      -0.834000       15.9994           0   0.00000       0.00000    
     36069 TIP3     3718     TIP3     H1       HT       0.417000       1.00800           0   0.00000       0.00000    
     36070 TIP3     3718     TIP3     H2       HT       0.417000       1.00800           0   0.00000     -0.301140E-02
     36071 TIP3     3719     TIP3     OH2      OT      -0.834000       15.9994           0   0.00000       0.00000    
     36072 TIP3     3719     TIP3     H1       HT       0.417000       1.00800           0   0.00000       0.00000    
     36073 TIP3     3719     TIP3     H2       HT       0.417000       1.00800           0   0.00000     -0.301140E-02
     36074 TIP3     3720     TIP3     OH2      OT      -0.834000       15.9994           0   0.00000       0.00000    
     36075 TIP3     3720     TIP3     H1       HT       0.417000       1.00800           0   0.00000       0.00000    
     36076 TIP3     3720     TIP3     H2       HT       0.417000       1.00800           0   0.00000     -0.301140E-02
     36077 TIP3     3721     TIP3     OH2      OT      -0.834000       15.9994           0   0.00000       0.00000    
     36078 TIP3     3721     TIP3     H1       HT       0.417000       1.00800           0   0.00000       0.00000    
     36079 TIP3     3721     TIP3     H2       HT       0.417000       1.00800           0   0.00000     -0.301140E-02
     36080 TIP3     3722     TIP3     OH2      OT      -0.834000       15.9994           0   0.00000       0.00000    
     36081 TIP3     3722     TIP3     H1       HT       0.417000       1.00800           0   0.00000       0.00000    
     36082 TIP3     3722     TIP3     H2       HT       0.417000       1.00800           0   0.00000     -0.301140E-02
     36083 TIP3     3723     TIP3     OH2      OT      -0.834000       15.9994           0   0.00000       0.00000    
     36084 TIP3     3723     TIP3     H1       HT       0.417000       1.00800           0   0.00000       0.00000    
     36085 TIP3     3723     TIP3     H2       HT       0.417000       1.00800           0   0.00000     -0.301140E-02
     36086 TIP3     3724     TIP3     OH2      OT      -0.834000       15.9994           0   0.00000       0.00000    
     36087 TIP3     3724     TIP3     H1       HT       0.417000       1.00800           0   0.00000       0.00000    
     36088 TIP3     3724     TIP3     H2       HT       0.417000       1.00800           0   0.00000     -0.301140E-02
     36089 TIP3     3725     TIP3     OH2      OT      -0.834000       15.9994           0   0.00000       0.00000    
     36090 TIP3     3725     TIP3     H1       HT       0.417000       1.00800           0   0.00000       0.00000    
     36091 TIP3     3725     TIP3     H2       HT       0.417000       1.00800           0   0.00000     -0.301140E-02
     36092 TIP3     3726     TIP3     OH2      OT      -0.834000       15.9994           0   0.00000       0.00000    
     36093 TIP3     3726     TIP3     H1       HT       0.417000       1.00800           0   0.00000       0.00000    
     36094 TIP3     3726     TIP3     H2       HT       0.417000       1.00800           0   0.00000     -0.301140E-02
     36095 TIP3     3727     TIP3     OH2      OT      -0.834000       15.9994           0   0.00000       0.00000    
     36096 TIP3     3727     TIP3     H1       HT       0.417000       1.00800           0   0.00000       0.00000    
     36097 TIP3     3727     TIP3     H2       HT       0.417000       1.00800           0   0.00000     -0.301140E-02
     36098 TIP3     3728     TIP3     OH2      OT      -0.834000       15.9994           0   0.00000       0.00000    
     36099 TIP3     3728     TIP3     H1       HT       0.417000       1.00800           0   0.00000       0.00000    
     36100 TIP3     3728     TIP3     H2       HT       0.417000       1.00800           0   0.00000     -0.301140E-02
     36101 TIP3     3729     TIP3     OH2      OT      -0.834000       15.9994           0   0.00000       0.00000    
     36102 TIP3     3729     TIP3     H1       HT       0.417000       1.00800           0   0.00000       0.00000    
     36103 TIP3     3729     TIP3     H2       HT       0.417000       1.00800           0   0.00000     -0.301140E-02
     36104 TIP3     3730     TIP3     OH2      OT      -0.834000       15.9994           0   0.00000       0.00000    
     36105 TIP3     3730     TIP3     H1       HT       0.417000       1.00800           0   0.00000       0.00000    
     36106 TIP3     3730     TIP3     H2       HT       0.417000       1.00800           0   0.00000     -0.301140E-02
     36107 TIP3     3731     TIP3     OH2      OT      -0.834000       15.9994           0   0.00000       0.00000    
     36108 TIP3     3731     TIP3     H1       HT       0.417000       1.00800           0   0.00000       0.00000    
     36109 TIP3     3731     TIP3     H2       HT       0.417000       1.00800           0   0.00000     -0.301140E-02
     36110 TIP3     3732     TIP3     OH2      OT      -0.834000       15.9994           0   0.00000       0.00000    
     36111 TIP3     3732     TIP3     H1       HT       0.417000       1.00800           0   0.00000       0.00000    
     36112 TIP3     3732     TIP3     H2       HT       0.417000       1.00800           0   0.00000     -0.301140E-02
     36113 TIP3     3733     TIP3     OH2      OT      -0.834000       15.9994           0   0.00000       0.00000    
     36114 TIP3     3733     TIP3     H1       HT       0.417000       1.00800           0   0.00000       0.00000    
     36115 TIP3     3733     TIP3     H2       HT       0.417000       1.00800           0   0.00000     -0.301140E-02
     36116 TIP3     3734     TIP3     OH2      OT      -0.834000       15.9994           0   0.00000       0.00000    
     36117 TIP3     3734     TIP3     H1       HT       0.417000       1.00800           0   0.00000       0.00000    
     36118 TIP3     3734     TIP3     H2       HT       0.417000       1.00800           0   0.00000     -0.301140E-02
     36119 TIP3     3735     TIP3     OH2      OT      -0.834000       15.9994           0   0.00000       0.00000    
     36120 TIP3     3735     TIP3     H1       HT       0.417000       1.00800           0   0.00000       0.00000    
     36121 TIP3     3735     TIP3     H2       HT       0.417000       1.00800           0   0.00000     -0.301140E-02
     36122 TIP3     3736     TIP3     OH2      OT      -0.834000       15.9994           0   0.00000       0.00000    
     36123 TIP3     3736     TIP3     H1       HT       0.417000       1.00800           0   0.00000       0.00000    
     36124 TIP3     3736     TIP3     H2       HT       0.417000       1.00800           0   0.00000     -0.301140E-02
     36125 TIP3     3737     TIP3     OH2      OT      -0.834000       15.9994           0   0.00000       0.00000    
     36126 TIP3     3737     TIP3     H1       HT       0.417000       1.00800           0   0.00000       0.00000    
     36127 TIP3     3737     TIP3     H2       HT       0.417000       1.00800           0   0.00000     -0.301140E-02
     36128 TIP3     3738     TIP3     OH2      OT      -0.834000       15.9994           0   0.00000       0.00000    
     36129 TIP3     3738     TIP3     H1       HT       0.417000       1.00800           0   0.00000       0.00000    
     36130 TIP3     3738     TIP3     H2       HT       0.417000       1.00800           0   0.00000     -0.301140E-02
     36131 TIP3     3739     TIP3     OH2      OT      -0.834000       15.9994           0   0.00000       0.00000    
     36132 TIP3     3739     TIP3     H1       HT       0.417000       1.00800           0   0.00000       0.00000    
     36133 TIP3     3739     TIP3     H2       HT       0.417000       1.00800           0   0.00000     -0.301140E-02
     36134 TIP3     3740     TIP3     OH2      OT      -0.834000       15.9994           0   0.00000       0.00000    
     36135 TIP3     3740     TIP3     H1       HT       0.417000       1.00800           0   0.00000       0.00000    
     36136 TIP3     3740     TIP3     H2       HT       0.417000       1.00800           0   0.00000     -0.301140E-02
     36137 TIP3     3741     TIP3     OH2      OT      -0.834000       15.9994           0   0.00000       0.00000    
     36138 TIP3     3741     TIP3     H1       HT       0.417000       1.00800           0   0.00000       0.00000    
     36139 TIP3     3741     TIP3     H2       HT       0.417000       1.00800           0   0.00000     -0.301140E-02
     36140 TIP3     3742     TIP3     OH2      OT      -0.834000       15.9994           0   0.00000       0.00000    
     36141 TIP3     3742     TIP3     H1       HT       0.417000       1.00800           0   0.00000       0.00000    
     36142 TIP3     3742     TIP3     H2       HT       0.417000       1.00800           0   0.00000     -0.301140E-02
     36143 TIP3     3743     TIP3     OH2      OT      -0.834000       15.9994           0   0.00000       0.00000    
     36144 TIP3     3743     TIP3     H1       HT       0.417000       1.00800           0   0.00000       0.00000    
     36145 TIP3     3743     TIP3     H2       HT       0.417000       1.00800           0   0.00000     -0.301140E-02
     36146 TIP3     3744     TIP3     OH2      OT      -0.834000       15.9994           0   0.00000       0.00000    
     36147 TIP3     3744     TIP3     H1       HT       0.417000       1.00800           0   0.00000       0.00000    
     36148 TIP3     3744     TIP3     H2       HT       0.417000       1.00800           0   0.00000     -0.301140E-02
     36149 TIP3     3745     TIP3     OH2      OT      -0.834000       15.9994           0   0.00000       0.00000    
     36150 TIP3     3745     TIP3     H1       HT       0.417000       1.00800           0   0.00000       0.00000    
     36151 TIP3     3745     TIP3     H2       HT       0.417000       1.00800           0   0.00000     -0.301140E-02
     36152 TIP3     3746     TIP3     OH2      OT      -0.834000       15.9994           0   0.00000       0.00000    
     36153 TIP3     3746     TIP3     H1       HT       0.417000       1.00800           0   0.00000       0.00000    
     36154 TIP3     3746     TIP3     H2       HT       0.417000       1.00800           0   0.00000     -0.301140E-02
     36155 TIP3     3747     TIP3     OH2      OT      -0.834000       15.9994           0   0.00000       0.00000    
     36156 TIP3     3747     TIP3     H1       HT       0.417000       1.00800           0   0.00000       0.00000    
     36157 TIP3     3747     TIP3     H2       HT       0.417000       1.00800           0   0.00000     -0.301140E-02
     36158 TIP3     3748     TIP3     OH2      OT      -0.834000       15.9994           0   0.00000       0.00000    
     36159 TIP3     3748     TIP3     H1       HT       0.417000       1.00800           0   0.00000       0.00000    
     36160 TIP3     3748     TIP3     H2       HT       0.417000       1.00800           0   0.00000     -0.301140E-02
     36161 TIP3     3749     TIP3     OH2      OT      -0.834000       15.9994           0   0.00000       0.00000    
     36162 TIP3     3749     TIP3     H1       HT       0.417000       1.00800           0   0.00000       0.00000    
     36163 TIP3     3749     TIP3     H2       HT       0.417000       1.00800           0   0.00000     -0.301140E-02
     36164 TIP3     3750     TIP3     OH2      OT      -0.834000       15.9994           0   0.00000       0.00000    
     36165 TIP3     3750     TIP3     H1       HT       0.417000       1.00800           0   0.00000       0.00000    
     36166 TIP3     3750     TIP3     H2       HT       0.417000       1.00800           0   0.00000     -0.301140E-02
     36167 TIP3     3751     TIP3     OH2      OT      -0.834000       15.9994           0   0.00000       0.00000    
     36168 TIP3     3751     TIP3     H1       HT       0.417000       1.00800           0   0.00000       0.00000    
     36169 TIP3     3751     TIP3     H2       HT       0.417000       1.00800           0   0.00000     -0.301140E-02
     36170 TIP3     3752     TIP3     OH2      OT      -0.834000       15.9994           0   0.00000       0.00000    
     36171 TIP3     3752     TIP3     H1       HT       0.417000       1.00800           0   0.00000       0.00000    
     36172 TIP3     3752     TIP3     H2       HT       0.417000       1.00800           0   0.00000     -0.301140E-02
     36173 TIP3     3753     TIP3     OH2      OT      -0.834000       15.9994           0   0.00000       0.00000    
     36174 TIP3     3753     TIP3     H1       HT       0.417000       1.00800           0   0.00000       0.00000    
     36175 TIP3     3753     TIP3     H2       HT       0.417000       1.00800           0   0.00000     -0.301140E-02
     36176 TIP3     3754     TIP3     OH2      OT      -0.834000       15.9994           0   0.00000       0.00000    
     36177 TIP3     3754     TIP3     H1       HT       0.417000       1.00800           0   0.00000       0.00000    
     36178 TIP3     3754     TIP3     H2       HT       0.417000       1.00800           0   0.00000     -0.301140E-02
     36179 TIP3     3755     TIP3     OH2      OT      -0.834000       15.9994           0   0.00000       0.00000    
     36180 TIP3     3755     TIP3     H1       HT       0.417000       1.00800           0   0.00000       0.00000    
     36181 TIP3     3755     TIP3     H2       HT       0.417000       1.00800           0   0.00000     -0.301140E-02
     36182 TIP3     3756     TIP3     OH2      OT      -0.834000       15.9994           0   0.00000       0.00000    
     36183 TIP3     3756     TIP3     H1       HT       0.417000       1.00800           0   0.00000       0.00000    
     36184 TIP3     3756     TIP3     H2       HT       0.417000       1.00800           0   0.00000     -0.301140E-02
     36185 TIP3     3757     TIP3     OH2      OT      -0.834000       15.9994           0   0.00000       0.00000    
     36186 TIP3     3757     TIP3     H1       HT       0.417000       1.00800           0   0.00000       0.00000    
     36187 TIP3     3757     TIP3     H2       HT       0.417000       1.00800           0   0.00000     -0.301140E-02
     36188 TIP3     3758     TIP3     OH2      OT      -0.834000       15.9994           0   0.00000       0.00000    
     36189 TIP3     3758     TIP3     H1       HT       0.417000       1.00800           0   0.00000       0.00000    
     36190 TIP3     3758     TIP3     H2       HT       0.417000       1.00800           0   0.00000     -0.301140E-02
     36191 TIP3     3759     TIP3     OH2      OT      -0.834000       15.9994           0   0.00000       0.00000    
     36192 TIP3     3759     TIP3     H1       HT       0.417000       1.00800           0   0.00000       0.00000    
     36193 TIP3     3759     TIP3     H2       HT       0.417000       1.00800           0   0.00000     -0.301140E-02
     36194 TIP3     3760     TIP3     OH2      OT      -0.834000       15.9994           0   0.00000       0.00000    
     36195 TIP3     3760     TIP3     H1       HT       0.417000       1.00800           0   0.00000       0.00000    
     36196 TIP3     3760     TIP3     H2       HT       0.417000       1.00800           0   0.00000     -0.301140E-02
     36197 TIP3     3761     TIP3     OH2      OT      -0.834000       15.9994           0   0.00000       0.00000    
     36198 TIP3     3761     TIP3     H1       HT       0.417000       1.00800           0   0.00000       0.00000    
     36199 TIP3     3761     TIP3     H2       HT       0.417000       1.00800           0   0.00000     -0.301140E-02
     36200 TIP3     3762     TIP3     OH2      OT      -0.834000       15.9994           0   0.00000       0.00000    
     36201 TIP3     3762     TIP3     H1       HT       0.417000       1.00800           0   0.00000       0.00000    
     36202 TIP3     3762     TIP3     H2       HT       0.417000       1.00800           0   0.00000     -0.301140E-02
     36203 TIP3     3763     TIP3     OH2      OT      -0.834000       15.9994           0   0.00000       0.00000    
     36204 TIP3     3763     TIP3     H1       HT       0.417000       1.00800           0   0.00000       0.00000    
     36205 TIP3     3763     TIP3     H2       HT       0.417000       1.00800           0   0.00000     -0.301140E-02
     36206 TIP3     3764     TIP3     OH2      OT      -0.834000       15.9994           0   0.00000       0.00000    
     36207 TIP3     3764     TIP3     H1       HT       0.417000       1.00800           0   0.00000       0.00000    
     36208 TIP3     3764     TIP3     H2       HT       0.417000       1.00800           0   0.00000     -0.301140E-02
     36209 TIP3     3765     TIP3     OH2      OT      -0.834000       15.9994           0   0.00000       0.00000    
     36210 TIP3     3765     TIP3     H1       HT       0.417000       1.00800           0   0.00000       0.00000    
     36211 TIP3     3765     TIP3     H2       HT       0.417000       1.00800           0   0.00000     -0.301140E-02
     36212 TIP3     3766     TIP3     OH2      OT      -0.834000       15.9994           0   0.00000       0.00000    
     36213 TIP3     3766     TIP3     H1       HT       0.417000       1.00800           0   0.00000       0.00000    
     36214 TIP3     3766     TIP3     H2       HT       0.417000       1.00800           0   0.00000     -0.301140E-02
     36215 TIP3     3767     TIP3     OH2      OT      -0.834000       15.9994           0   0.00000       0.00000    
     36216 TIP3     3767     TIP3     H1       HT       0.417000       1.00800           0   0.00000       0.00000    
     36217 TIP3     3767     TIP3     H2       HT       0.417000       1.00800           0   0.00000     -0.301140E-02
     36218 TIP3     3768     TIP3     OH2      OT      -0.834000       15.9994           0   0.00000       0.00000    
     36219 TIP3     3768     TIP3     H1       HT       0.417000       1.00800           0   0.00000       0.00000    
     36220 TIP3     3768     TIP3     H2       HT       0.417000       1.00800           0   0.00000     -0.301140E-02
     36221 TIP3     3769     TIP3     OH2      OT      -0.834000       15.9994           0   0.00000       0.00000    
     36222 TIP3     3769     TIP3     H1       HT       0.417000       1.00800           0   0.00000       0.00000    
     36223 TIP3     3769     TIP3     H2       HT       0.417000       1.00800           0   0.00000     -0.301140E-02
     36224 TIP3     3770     TIP3     OH2      OT      -0.834000       15.9994           0   0.00000       0.00000    
     36225 TIP3     3770     TIP3     H1       HT       0.417000       1.00800           0   0.00000       0.00000    
     36226 TIP3     3770     TIP3     H2       HT       0.417000       1.00800           0   0.00000     -0.301140E-02
     36227 TIP3     3771     TIP3     OH2      OT      -0.834000       15.9994           0   0.00000       0.00000    
     36228 TIP3     3771     TIP3     H1       HT       0.417000       1.00800           0   0.00000       0.00000    
     36229 TIP3     3771     TIP3     H2       HT       0.417000       1.00800           0   0.00000     -0.301140E-02
     36230 TIP3     3772     TIP3     OH2      OT      -0.834000       15.9994           0   0.00000       0.00000    
     36231 TIP3     3772     TIP3     H1       HT       0.417000       1.00800           0   0.00000       0.00000    
     36232 TIP3     3772     TIP3     H2       HT       0.417000       1.00800           0   0.00000     -0.301140E-02
     36233 TIP3     3773     TIP3     OH2      OT      -0.834000       15.9994           0   0.00000       0.00000    
     36234 TIP3     3773     TIP3     H1       HT       0.417000       1.00800           0   0.00000       0.00000    
     36235 TIP3     3773     TIP3     H2       HT       0.417000       1.00800           0   0.00000     -0.301140E-02
     36236 TIP3     3774     TIP3     OH2      OT      -0.834000       15.9994           0   0.00000       0.00000    
     36237 TIP3     3774     TIP3     H1       HT       0.417000       1.00800           0   0.00000       0.00000    
     36238 TIP3     3774     TIP3     H2       HT       0.417000       1.00800           0   0.00000     -0.301140E-02
     36239 TIP3     3775     TIP3     OH2      OT      -0.834000       15.9994           0   0.00000       0.00000    
     36240 TIP3     3775     TIP3     H1       HT       0.417000       1.00800           0   0.00000       0.00000    
     36241 TIP3     3775     TIP3     H2       HT       0.417000       1.00800           0   0.00000     -0.301140E-02
     36242 TIP3     3776     TIP3     OH2      OT      -0.834000       15.9994           0   0.00000       0.00000    
     36243 TIP3     3776     TIP3     H1       HT       0.417000       1.00800           0   0.00000       0.00000    
     36244 TIP3     3776     TIP3     H2       HT       0.417000       1.00800           0   0.00000     -0.301140E-02
     36245 TIP3     3777     TIP3     OH2      OT      -0.834000       15.9994           0   0.00000       0.00000    
     36246 TIP3     3777     TIP3     H1       HT       0.417000       1.00800           0   0.00000       0.00000    
     36247 TIP3     3777     TIP3     H2       HT       0.417000       1.00800           0   0.00000     -0.301140E-02
     36248 TIP3     3778     TIP3     OH2      OT      -0.834000       15.9994           0   0.00000       0.00000    
     36249 TIP3     3778     TIP3     H1       HT       0.417000       1.00800           0   0.00000       0.00000    
     36250 TIP3     3778     TIP3     H2       HT       0.417000       1.00800           0   0.00000     -0.301140E-02
     36251 TIP3     3779     TIP3     OH2      OT      -0.834000       15.9994           0   0.00000       0.00000    
     36252 TIP3     3779     TIP3     H1       HT       0.417000       1.00800           0   0.00000       0.00000    
     36253 TIP3     3779     TIP3     H2       HT       0.417000       1.00800           0   0.00000     -0.301140E-02
     36254 TIP3     3780     TIP3     OH2      OT      -0.834000       15.9994           0   0.00000       0.00000    
     36255 TIP3     3780     TIP3     H1       HT       0.417000       1.00800           0   0.00000       0.00000    
     36256 TIP3     3780     TIP3     H2       HT       0.417000       1.00800           0   0.00000     -0.301140E-02
     36257 TIP3     3781     TIP3     OH2      OT      -0.834000       15.9994           0   0.00000       0.00000    
     36258 TIP3     3781     TIP3     H1       HT       0.417000       1.00800           0   0.00000       0.00000    
     36259 TIP3     3781     TIP3     H2       HT       0.417000       1.00800           0   0.00000     -0.301140E-02
     36260 TIP3     3782     TIP3     OH2      OT      -0.834000       15.9994           0   0.00000       0.00000    
     36261 TIP3     3782     TIP3     H1       HT       0.417000       1.00800           0   0.00000       0.00000    
     36262 TIP3     3782     TIP3     H2       HT       0.417000       1.00800           0   0.00000     -0.301140E-02
     36263 TIP3     3783     TIP3     OH2      OT      -0.834000       15.9994           0   0.00000       0.00000    
     36264 TIP3     3783     TIP3     H1       HT       0.417000       1.00800           0   0.00000       0.00000    
     36265 TIP3     3783     TIP3     H2       HT       0.417000       1.00800           0   0.00000     -0.301140E-02
     36266 TIP3     3784     TIP3     OH2      OT      -0.834000       15.9994           0   0.00000       0.00000    
     36267 TIP3     3784     TIP3     H1       HT       0.417000       1.00800           0   0.00000       0.00000    
     36268 TIP3     3784     TIP3     H2       HT       0.417000       1.00800           0   0.00000     -0.301140E-02
     36269 TIP3     3785     TIP3     OH2      OT      -0.834000       15.9994           0   0.00000       0.00000    
     36270 TIP3     3785     TIP3     H1       HT       0.417000       1.00800           0   0.00000       0.00000    
     36271 TIP3     3785     TIP3     H2       HT       0.417000       1.00800           0   0.00000     -0.301140E-02
     36272 TIP3     3786     TIP3     OH2      OT      -0.834000       15.9994           0   0.00000       0.00000    
     36273 TIP3     3786     TIP3     H1       HT       0.417000       1.00800           0   0.00000       0.00000    
     36274 TIP3     3786     TIP3     H2       HT       0.417000       1.00800           0   0.00000     -0.301140E-02
     36275 TIP3     3787     TIP3     OH2      OT      -0.834000       15.9994           0   0.00000       0.00000    
     36276 TIP3     3787     TIP3     H1       HT       0.417000       1.00800           0   0.00000       0.00000    
     36277 TIP3     3787     TIP3     H2       HT       0.417000       1.00800           0   0.00000     -0.301140E-02
     36278 TIP3     3788     TIP3     OH2      OT      -0.834000       15.9994           0   0.00000       0.00000    
     36279 TIP3     3788     TIP3     H1       HT       0.417000       1.00800           0   0.00000       0.00000    
     36280 TIP3     3788     TIP3     H2       HT       0.417000       1.00800           0   0.00000     -0.301140E-02
     36281 TIP3     3789     TIP3     OH2      OT      -0.834000       15.9994           0   0.00000       0.00000    
     36282 TIP3     3789     TIP3     H1       HT       0.417000       1.00800           0   0.00000       0.00000    
     36283 TIP3     3789     TIP3     H2       HT       0.417000       1.00800           0   0.00000     -0.301140E-02
     36284 TIP3     3790     TIP3     OH2      OT      -0.834000       15.9994           0   0.00000       0.00000    
     36285 TIP3     3790     TIP3     H1       HT       0.417000       1.00800           0   0.00000       0.00000    
     36286 TIP3     3790     TIP3     H2       HT       0.417000       1.00800           0   0.00000     -0.301140E-02
     36287 TIP3     3791     TIP3     OH2      OT      -0.834000       15.9994           0   0.00000       0.00000    
     36288 TIP3     3791     TIP3     H1       HT       0.417000       1.00800           0   0.00000       0.00000    
     36289 TIP3     3791     TIP3     H2       HT       0.417000       1.00800           0   0.00000     -0.301140E-02
     36290 TIP3     3792     TIP3     OH2      OT      -0.834000       15.9994           0   0.00000       0.00000    
     36291 TIP3     3792     TIP3     H1       HT       0.417000       1.00800           0   0.00000       0.00000    
     36292 TIP3     3792     TIP3     H2       HT       0.417000       1.00800           0   0.00000     -0.301140E-02
     36293 TIP3     3793     TIP3     OH2      OT      -0.834000       15.9994           0   0.00000       0.00000    
     36294 TIP3     3793     TIP3     H1       HT       0.417000       1.00800           0   0.00000       0.00000    
     36295 TIP3     3793     TIP3     H2       HT       0.417000       1.00800           0   0.00000     -0.301140E-02
     36296 TIP3     3794     TIP3     OH2      OT      -0.834000       15.9994           0   0.00000       0.00000    
     36297 TIP3     3794     TIP3     H1       HT       0.417000       1.00800           0   0.00000       0.00000    
     36298 TIP3     3794     TIP3     H2       HT       0.417000       1.00800           0   0.00000     -0.301140E-02
     36299 TIP3     3795     TIP3     OH2      OT      -0.834000       15.9994           0   0.00000       0.00000    
     36300 TIP3     3795     TIP3     H1       HT       0.417000       1.00800           0   0.00000       0.00000    
     36301 TIP3     3795     TIP3     H2       HT       0.417000       1.00800           0   0.00000     -0.301140E-02
     36302 TIP3     3796     TIP3     OH2      OT      -0.834000       15.9994           0   0.00000       0.00000    
     36303 TIP3     3796     TIP3     H1       HT       0.417000       1.00800           0   0.00000       0.00000    
     36304 TIP3     3796     TIP3     H2       HT       0.417000       1.00800           0   0.00000     -0.301140E-02
     36305 TIP3     3797     TIP3     OH2      OT      -0.834000       15.9994           0   0.00000       0.00000    
     36306 TIP3     3797     TIP3     H1       HT       0.417000       1.00800           0   0.00000       0.00000    
     36307 TIP3     3797     TIP3     H2       HT       0.417000       1.00800           0   0.00000     -0.301140E-02
     36308 TIP3     3798     TIP3     OH2      OT      -0.834000       15.9994           0   0.00000       0.00000    
     36309 TIP3     3798     TIP3     H1       HT       0.417000       1.00800           0   0.00000       0.00000    
     36310 TIP3     3798     TIP3     H2       HT       0.417000       1.00800           0   0.00000     -0.301140E-02
     36311 TIP3     3799     TIP3     OH2      OT      -0.834000       15.9994           0   0.00000       0.00000    
     36312 TIP3     3799     TIP3     H1       HT       0.417000       1.00800           0   0.00000       0.00000    
     36313 TIP3     3799     TIP3     H2       HT       0.417000       1.00800           0   0.00000     -0.301140E-02
     36314 TIP3     3800     TIP3     OH2      OT      -0.834000       15.9994           0   0.00000       0.00000    
     36315 TIP3     3800     TIP3     H1       HT       0.417000       1.00800           0   0.00000       0.00000    
     36316 TIP3     3800     TIP3     H2       HT       0.417000       1.00800           0   0.00000     -0.301140E-02
     36317 TIP3     3801     TIP3     OH2      OT      -0.834000       15.9994           0   0.00000       0.00000    
     36318 TIP3     3801     TIP3     H1       HT       0.417000       1.00800           0   0.00000       0.00000    
     36319 TIP3     3801     TIP3     H2       HT       0.417000       1.00800           0   0.00000     -0.301140E-02
     36320 TIP3     3802     TIP3     OH2      OT      -0.834000       15.9994           0   0.00000       0.00000    
     36321 TIP3     3802     TIP3     H1       HT       0.417000       1.00800           0   0.00000       0.00000    
     36322 TIP3     3802     TIP3     H2       HT       0.417000       1.00800           0   0.00000     -0.301140E-02
     36323 TIP3     3803     TIP3     OH2      OT      -0.834000       15.9994           0   0.00000       0.00000    
     36324 TIP3     3803     TIP3     H1       HT       0.417000       1.00800           0   0.00000       0.00000    
     36325 TIP3     3803     TIP3     H2       HT       0.417000       1.00800           0   0.00000     -0.301140E-02
     36326 TIP3     3804     TIP3     OH2      OT      -0.834000       15.9994           0   0.00000       0.00000    
     36327 TIP3     3804     TIP3     H1       HT       0.417000       1.00800           0   0.00000       0.00000    
     36328 TIP3     3804     TIP3     H2       HT       0.417000       1.00800           0   0.00000     -0.301140E-02
     36329 TIP3     3805     TIP3     OH2      OT      -0.834000       15.9994           0   0.00000       0.00000    
     36330 TIP3     3805     TIP3     H1       HT       0.417000       1.00800           0   0.00000       0.00000    
     36331 TIP3     3805     TIP3     H2       HT       0.417000       1.00800           0   0.00000     -0.301140E-02
     36332 TIP3     3806     TIP3     OH2      OT      -0.834000       15.9994           0   0.00000       0.00000    
     36333 TIP3     3806     TIP3     H1       HT       0.417000       1.00800           0   0.00000       0.00000    
     36334 TIP3     3806     TIP3     H2       HT       0.417000       1.00800           0   0.00000     -0.301140E-02
     36335 TIP3     3807     TIP3     OH2      OT      -0.834000       15.9994           0   0.00000       0.00000    
     36336 TIP3     3807     TIP3     H1       HT       0.417000       1.00800           0   0.00000       0.00000    
     36337 TIP3     3807     TIP3     H2       HT       0.417000       1.00800           0   0.00000     -0.301140E-02
     36338 TIP3     3808     TIP3     OH2      OT      -0.834000       15.9994           0   0.00000       0.00000    
     36339 TIP3     3808     TIP3     H1       HT       0.417000       1.00800           0   0.00000       0.00000    
     36340 TIP3     3808     TIP3     H2       HT       0.417000       1.00800           0   0.00000     -0.301140E-02
     36341 TIP3     3809     TIP3     OH2      OT      -0.834000       15.9994           0   0.00000       0.00000    
     36342 TIP3     3809     TIP3     H1       HT       0.417000       1.00800           0   0.00000       0.00000    
     36343 TIP3     3809     TIP3     H2       HT       0.417000       1.00800           0   0.00000     -0.301140E-02
     36344 TIP3     3810     TIP3     OH2      OT      -0.834000       15.9994           0   0.00000       0.00000    
     36345 TIP3     3810     TIP3     H1       HT       0.417000       1.00800           0   0.00000       0.00000    
     36346 TIP3     3810     TIP3     H2       HT       0.417000       1.00800           0   0.00000     -0.301140E-02
     36347 TIP3     3811     TIP3     OH2      OT      -0.834000       15.9994           0   0.00000       0.00000    
     36348 TIP3     3811     TIP3     H1       HT       0.417000       1.00800           0   0.00000       0.00000    
     36349 TIP3     3811     TIP3     H2       HT       0.417000       1.00800           0   0.00000     -0.301140E-02
     36350 TIP3     3812     TIP3     OH2      OT      -0.834000       15.9994           0   0.00000       0.00000    
     36351 TIP3     3812     TIP3     H1       HT       0.417000       1.00800           0   0.00000       0.00000    
     36352 TIP3     3812     TIP3     H2       HT       0.417000       1.00800           0   0.00000     -0.301140E-02
     36353 TIP3     3813     TIP3     OH2      OT      -0.834000       15.9994           0   0.00000       0.00000    
     36354 TIP3     3813     TIP3     H1       HT       0.417000       1.00800           0   0.00000       0.00000    
     36355 TIP3     3813     TIP3     H2       HT       0.417000       1.00800           0   0.00000     -0.301140E-02
     36356 TIP3     3814     TIP3     OH2      OT      -0.834000       15.9994           0   0.00000       0.00000    
     36357 TIP3     3814     TIP3     H1       HT       0.417000       1.00800           0   0.00000       0.00000    
     36358 TIP3     3814     TIP3     H2       HT       0.417000       1.00800           0   0.00000     -0.301140E-02
     36359 TIP3     3815     TIP3     OH2      OT      -0.834000       15.9994           0   0.00000       0.00000    
     36360 TIP3     3815     TIP3     H1       HT       0.417000       1.00800           0   0.00000       0.00000    
     36361 TIP3     3815     TIP3     H2       HT       0.417000       1.00800           0   0.00000     -0.301140E-02
     36362 TIP3     3816     TIP3     OH2      OT      -0.834000       15.9994           0   0.00000       0.00000    
     36363 TIP3     3816     TIP3     H1       HT       0.417000       1.00800           0   0.00000       0.00000    
     36364 TIP3     3816     TIP3     H2       HT       0.417000       1.00800           0   0.00000     -0.301140E-02
     36365 TIP3     3817     TIP3     OH2      OT      -0.834000       15.9994           0   0.00000       0.00000    
     36366 TIP3     3817     TIP3     H1       HT       0.417000       1.00800           0   0.00000       0.00000    
     36367 TIP3     3817     TIP3     H2       HT       0.417000       1.00800           0   0.00000     -0.301140E-02
     36368 TIP3     3818     TIP3     OH2      OT      -0.834000       15.9994           0   0.00000       0.00000    
     36369 TIP3     3818     TIP3     H1       HT       0.417000       1.00800           0   0.00000       0.00000    
     36370 TIP3     3818     TIP3     H2       HT       0.417000       1.00800           0   0.00000     -0.301140E-02
     36371 TIP3     3819     TIP3     OH2      OT      -0.834000       15.9994           0   0.00000       0.00000    
     36372 TIP3     3819     TIP3     H1       HT       0.417000       1.00800           0   0.00000       0.00000    
     36373 TIP3     3819     TIP3     H2       HT       0.417000       1.00800           0   0.00000     -0.301140E-02
     36374 TIP3     3820     TIP3     OH2      OT      -0.834000       15.9994           0   0.00000       0.00000    
     36375 TIP3     3820     TIP3     H1       HT       0.417000       1.00800           0   0.00000       0.00000    
     36376 TIP3     3820     TIP3     H2       HT       0.417000       1.00800           0   0.00000     -0.301140E-02
     36377 TIP3     3821     TIP3     OH2      OT      -0.834000       15.9994           0   0.00000       0.00000    
     36378 TIP3     3821     TIP3     H1       HT       0.417000       1.00800           0   0.00000       0.00000    
     36379 TIP3     3821     TIP3     H2       HT       0.417000       1.00800           0   0.00000     -0.301140E-02
     36380 TIP3     3822     TIP3     OH2      OT      -0.834000       15.9994           0   0.00000       0.00000    
     36381 TIP3     3822     TIP3     H1       HT       0.417000       1.00800           0   0.00000       0.00000    
     36382 TIP3     3822     TIP3     H2       HT       0.417000       1.00800           0   0.00000     -0.301140E-02
     36383 TIP3     3823     TIP3     OH2      OT      -0.834000       15.9994           0   0.00000       0.00000    
     36384 TIP3     3823     TIP3     H1       HT       0.417000       1.00800           0   0.00000       0.00000    
     36385 TIP3     3823     TIP3     H2       HT       0.417000       1.00800           0   0.00000     -0.301140E-02
     36386 TIP3     3824     TIP3     OH2      OT      -0.834000       15.9994           0   0.00000       0.00000    
     36387 TIP3     3824     TIP3     H1       HT       0.417000       1.00800           0   0.00000       0.00000    
     36388 TIP3     3824     TIP3     H2       HT       0.417000       1.00800           0   0.00000     -0.301140E-02
     36389 TIP3     3825     TIP3     OH2      OT      -0.834000       15.9994           0   0.00000       0.00000    
     36390 TIP3     3825     TIP3     H1       HT       0.417000       1.00800           0   0.00000       0.00000    
     36391 TIP3     3825     TIP3     H2       HT       0.417000       1.00800           0   0.00000     -0.301140E-02
     36392 TIP3     3826     TIP3     OH2      OT      -0.834000       15.9994           0   0.00000       0.00000    
     36393 TIP3     3826     TIP3     H1       HT       0.417000       1.00800           0   0.00000       0.00000    
     36394 TIP3     3826     TIP3     H2       HT       0.417000       1.00800           0   0.00000     -0.301140E-02
     36395 TIP3     3827     TIP3     OH2      OT      -0.834000       15.9994           0   0.00000       0.00000    
     36396 TIP3     3827     TIP3     H1       HT       0.417000       1.00800           0   0.00000       0.00000    
     36397 TIP3     3827     TIP3     H2       HT       0.417000       1.00800           0   0.00000     -0.301140E-02
     36398 TIP3     3828     TIP3     OH2      OT      -0.834000       15.9994           0   0.00000       0.00000    
     36399 TIP3     3828     TIP3     H1       HT       0.417000       1.00800           0   0.00000       0.00000    
     36400 TIP3     3828     TIP3     H2       HT       0.417000       1.00800           0   0.00000     -0.301140E-02
     36401 TIP3     3829     TIP3     OH2      OT      -0.834000       15.9994           0   0.00000       0.00000    
     36402 TIP3     3829     TIP3     H1       HT       0.417000       1.00800           0   0.00000       0.00000    
     36403 TIP3     3829     TIP3     H2       HT       0.417000       1.00800           0   0.00000     -0.301140E-02
     36404 TIP3     3830     TIP3     OH2      OT      -0.834000       15.9994           0   0.00000       0.00000    
     36405 TIP3     3830     TIP3     H1       HT       0.417000       1.00800           0   0.00000       0.00000    
     36406 TIP3     3830     TIP3     H2       HT       0.417000       1.00800           0   0.00000     -0.301140E-02
     36407 TIP3     3831     TIP3     OH2      OT      -0.834000       15.9994           0   0.00000       0.00000    
     36408 TIP3     3831     TIP3     H1       HT       0.417000       1.00800           0   0.00000       0.00000    
     36409 TIP3     3831     TIP3     H2       HT       0.417000       1.00800           0   0.00000     -0.301140E-02
     36410 TIP3     3832     TIP3     OH2      OT      -0.834000       15.9994           0   0.00000       0.00000    
     36411 TIP3     3832     TIP3     H1       HT       0.417000       1.00800           0   0.00000       0.00000    
     36412 TIP3     3832     TIP3     H2       HT       0.417000       1.00800           0   0.00000     -0.301140E-02
     36413 TIP3     3833     TIP3     OH2      OT      -0.834000       15.9994           0   0.00000       0.00000    
     36414 TIP3     3833     TIP3     H1       HT       0.417000       1.00800           0   0.00000       0.00000    
     36415 TIP3     3833     TIP3     H2       HT       0.417000       1.00800           0   0.00000     -0.301140E-02
     36416 TIP3     3834     TIP3     OH2      OT      -0.834000       15.9994           0   0.00000       0.00000    
     36417 TIP3     3834     TIP3     H1       HT       0.417000       1.00800           0   0.00000       0.00000    
     36418 TIP3     3834     TIP3     H2       HT       0.417000       1.00800           0   0.00000     -0.301140E-02
     36419 TIP3     3835     TIP3     OH2      OT      -0.834000       15.9994           0   0.00000       0.00000    
     36420 TIP3     3835     TIP3     H1       HT       0.417000       1.00800           0   0.00000       0.00000    
     36421 TIP3     3835     TIP3     H2       HT       0.417000       1.00800           0   0.00000     -0.301140E-02
     36422 TIP3     3836     TIP3     OH2      OT      -0.834000       15.9994           0   0.00000       0.00000    
     36423 TIP3     3836     TIP3     H1       HT       0.417000       1.00800           0   0.00000       0.00000    
     36424 TIP3     3836     TIP3     H2       HT       0.417000       1.00800           0   0.00000     -0.301140E-02
     36425 TIP3     3837     TIP3     OH2      OT      -0.834000       15.9994           0   0.00000       0.00000    
     36426 TIP3     3837     TIP3     H1       HT       0.417000       1.00800           0   0.00000       0.00000    
     36427 TIP3     3837     TIP3     H2       HT       0.417000       1.00800           0   0.00000     -0.301140E-02
     36428 TIP3     3838     TIP3     OH2      OT      -0.834000       15.9994           0   0.00000       0.00000    
     36429 TIP3     3838     TIP3     H1       HT       0.417000       1.00800           0   0.00000       0.00000    
     36430 TIP3     3838     TIP3     H2       HT       0.417000       1.00800           0   0.00000     -0.301140E-02
     36431 TIP3     3839     TIP3     OH2      OT      -0.834000       15.9994           0   0.00000       0.00000    
     36432 TIP3     3839     TIP3     H1       HT       0.417000       1.00800           0   0.00000       0.00000    
     36433 TIP3     3839     TIP3     H2       HT       0.417000       1.00800           0   0.00000     -0.301140E-02
     36434 TIP3     3840     TIP3     OH2      OT      -0.834000       15.9994           0   0.00000       0.00000    
     36435 TIP3     3840     TIP3     H1       HT       0.417000       1.00800           0   0.00000       0.00000    
     36436 TIP3     3840     TIP3     H2       HT       0.417000       1.00800           0   0.00000     -0.301140E-02
     36437 TIP3     3841     TIP3     OH2      OT      -0.834000       15.9994           0   0.00000       0.00000    
     36438 TIP3     3841     TIP3     H1       HT       0.417000       1.00800           0   0.00000       0.00000    
     36439 TIP3     3841     TIP3     H2       HT       0.417000       1.00800           0   0.00000     -0.301140E-02
     36440 TIP3     3842     TIP3     OH2      OT      -0.834000       15.9994           0   0.00000       0.00000    
     36441 TIP3     3842     TIP3     H1       HT       0.417000       1.00800           0   0.00000       0.00000    
     36442 TIP3     3842     TIP3     H2       HT       0.417000       1.00800           0   0.00000     -0.301140E-02
     36443 TIP3     3843     TIP3     OH2      OT      -0.834000       15.9994           0   0.00000       0.00000    
     36444 TIP3     3843     TIP3     H1       HT       0.417000       1.00800           0   0.00000       0.00000    
     36445 TIP3     3843     TIP3     H2       HT       0.417000       1.00800           0   0.00000     -0.301140E-02
     36446 TIP3     3844     TIP3     OH2      OT      -0.834000       15.9994           0   0.00000       0.00000    
     36447 TIP3     3844     TIP3     H1       HT       0.417000       1.00800           0   0.00000       0.00000    
     36448 TIP3     3844     TIP3     H2       HT       0.417000       1.00800           0   0.00000     -0.301140E-02
     36449 TIP3     3845     TIP3     OH2      OT      -0.834000       15.9994           0   0.00000       0.00000    
     36450 TIP3     3845     TIP3     H1       HT       0.417000       1.00800           0   0.00000       0.00000    
     36451 TIP3     3845     TIP3     H2       HT       0.417000       1.00800           0   0.00000     -0.301140E-02
     36452 TIP3     3846     TIP3     OH2      OT      -0.834000       15.9994           0   0.00000       0.00000    
     36453 TIP3     3846     TIP3     H1       HT       0.417000       1.00800           0   0.00000       0.00000    
     36454 TIP3     3846     TIP3     H2       HT       0.417000       1.00800           0   0.00000     -0.301140E-02
     36455 TIP3     3847     TIP3     OH2      OT      -0.834000       15.9994           0   0.00000       0.00000    
     36456 TIP3     3847     TIP3     H1       HT       0.417000       1.00800           0   0.00000       0.00000    
     36457 TIP3     3847     TIP3     H2       HT       0.417000       1.00800           0   0.00000     -0.301140E-02
     36458 TIP3     3848     TIP3     OH2      OT      -0.834000       15.9994           0   0.00000       0.00000    
     36459 TIP3     3848     TIP3     H1       HT       0.417000       1.00800           0   0.00000       0.00000    
     36460 TIP3     3848     TIP3     H2       HT       0.417000       1.00800           0   0.00000     -0.301140E-02
     36461 TIP3     3849     TIP3     OH2      OT      -0.834000       15.9994           0   0.00000       0.00000    
     36462 TIP3     3849     TIP3     H1       HT       0.417000       1.00800           0   0.00000       0.00000    
     36463 TIP3     3849     TIP3     H2       HT       0.417000       1.00800           0   0.00000     -0.301140E-02
     36464 TIP3     3850     TIP3     OH2      OT      -0.834000       15.9994           0   0.00000       0.00000    
     36465 TIP3     3850     TIP3     H1       HT       0.417000       1.00800           0   0.00000       0.00000    
     36466 TIP3     3850     TIP3     H2       HT       0.417000       1.00800           0   0.00000     -0.301140E-02
     36467 TIP3     3851     TIP3     OH2      OT      -0.834000       15.9994           0   0.00000       0.00000    
     36468 TIP3     3851     TIP3     H1       HT       0.417000       1.00800           0   0.00000       0.00000    
     36469 TIP3     3851     TIP3     H2       HT       0.417000       1.00800           0   0.00000     -0.301140E-02
     36470 TIP3     3852     TIP3     OH2      OT      -0.834000       15.9994           0   0.00000       0.00000    
     36471 TIP3     3852     TIP3     H1       HT       0.417000       1.00800           0   0.00000       0.00000    
     36472 TIP3     3852     TIP3     H2       HT       0.417000       1.00800           0   0.00000     -0.301140E-02
     36473 TIP3     3853     TIP3     OH2      OT      -0.834000       15.9994           0   0.00000       0.00000    
     36474 TIP3     3853     TIP3     H1       HT       0.417000       1.00800           0   0.00000       0.00000    
     36475 TIP3     3853     TIP3     H2       HT       0.417000       1.00800           0   0.00000     -0.301140E-02
     36476 TIP3     3854     TIP3     OH2      OT      -0.834000       15.9994           0   0.00000       0.00000    
     36477 TIP3     3854     TIP3     H1       HT       0.417000       1.00800           0   0.00000       0.00000    
     36478 TIP3     3854     TIP3     H2       HT       0.417000       1.00800           0   0.00000     -0.301140E-02
     36479 TIP3     3855     TIP3     OH2      OT      -0.834000       15.9994           0   0.00000       0.00000    
     36480 TIP3     3855     TIP3     H1       HT       0.417000       1.00800           0   0.00000       0.00000    
     36481 TIP3     3855     TIP3     H2       HT       0.417000       1.00800           0   0.00000     -0.301140E-02
     36482 TIP3     3856     TIP3     OH2      OT      -0.834000       15.9994           0   0.00000       0.00000    
     36483 TIP3     3856     TIP3     H1       HT       0.417000       1.00800           0   0.00000       0.00000    
     36484 TIP3     3856     TIP3     H2       HT       0.417000       1.00800           0   0.00000     -0.301140E-02
     36485 TIP3     3857     TIP3     OH2      OT      -0.834000       15.9994           0   0.00000       0.00000    
     36486 TIP3     3857     TIP3     H1       HT       0.417000       1.00800           0   0.00000       0.00000    
     36487 TIP3     3857     TIP3     H2       HT       0.417000       1.00800           0   0.00000     -0.301140E-02
     36488 TIP3     3858     TIP3     OH2      OT      -0.834000       15.9994           0   0.00000       0.00000    
     36489 TIP3     3858     TIP3     H1       HT       0.417000       1.00800           0   0.00000       0.00000    
     36490 TIP3     3858     TIP3     H2       HT       0.417000       1.00800           0   0.00000     -0.301140E-02
     36491 TIP3     3859     TIP3     OH2      OT      -0.834000       15.9994           0   0.00000       0.00000    
     36492 TIP3     3859     TIP3     H1       HT       0.417000       1.00800           0   0.00000       0.00000    
     36493 TIP3     3859     TIP3     H2       HT       0.417000       1.00800           0   0.00000     -0.301140E-02
     36494 TIP3     3860     TIP3     OH2      OT      -0.834000       15.9994           0   0.00000       0.00000    
     36495 TIP3     3860     TIP3     H1       HT       0.417000       1.00800           0   0.00000       0.00000    
     36496 TIP3     3860     TIP3     H2       HT       0.417000       1.00800           0   0.00000     -0.301140E-02
     36497 TIP3     3861     TIP3     OH2      OT      -0.834000       15.9994           0   0.00000       0.00000    
     36498 TIP3     3861     TIP3     H1       HT       0.417000       1.00800           0   0.00000       0.00000    
     36499 TIP3     3861     TIP3     H2       HT       0.417000       1.00800           0   0.00000     -0.301140E-02
     36500 TIP3     3862     TIP3     OH2      OT      -0.834000       15.9994           0   0.00000       0.00000    
     36501 TIP3     3862     TIP3     H1       HT       0.417000       1.00800           0   0.00000       0.00000    
     36502 TIP3     3862     TIP3     H2       HT       0.417000       1.00800           0   0.00000     -0.301140E-02
     36503 TIP3     3863     TIP3     OH2      OT      -0.834000       15.9994           0   0.00000       0.00000    
     36504 TIP3     3863     TIP3     H1       HT       0.417000       1.00800           0   0.00000       0.00000    
     36505 TIP3     3863     TIP3     H2       HT       0.417000       1.00800           0   0.00000     -0.301140E-02
     36506 TIP3     3864     TIP3     OH2      OT      -0.834000       15.9994           0   0.00000       0.00000    
     36507 TIP3     3864     TIP3     H1       HT       0.417000       1.00800           0   0.00000       0.00000    
     36508 TIP3     3864     TIP3     H2       HT       0.417000       1.00800           0   0.00000     -0.301140E-02
     36509 TIP3     3865     TIP3     OH2      OT      -0.834000       15.9994           0   0.00000       0.00000    
     36510 TIP3     3865     TIP3     H1       HT       0.417000       1.00800           0   0.00000       0.00000    
     36511 TIP3     3865     TIP3     H2       HT       0.417000       1.00800           0   0.00000     -0.301140E-02
     36512 TIP3     3866     TIP3     OH2      OT      -0.834000       15.9994           0   0.00000       0.00000    
     36513 TIP3     3866     TIP3     H1       HT       0.417000       1.00800           0   0.00000       0.00000    
     36514 TIP3     3866     TIP3     H2       HT       0.417000       1.00800           0   0.00000     -0.301140E-02
     36515 TIP3     3867     TIP3     OH2      OT      -0.834000       15.9994           0   0.00000       0.00000    
     36516 TIP3     3867     TIP3     H1       HT       0.417000       1.00800           0   0.00000       0.00000    
     36517 TIP3     3867     TIP3     H2       HT       0.417000       1.00800           0   0.00000     -0.301140E-02
     36518 TIP3     3868     TIP3     OH2      OT      -0.834000       15.9994           0   0.00000       0.00000    
     36519 TIP3     3868     TIP3     H1       HT       0.417000       1.00800           0   0.00000       0.00000    
     36520 TIP3     3868     TIP3     H2       HT       0.417000       1.00800           0   0.00000     -0.301140E-02
     36521 TIP3     3869     TIP3     OH2      OT      -0.834000       15.9994           0   0.00000       0.00000    
     36522 TIP3     3869     TIP3     H1       HT       0.417000       1.00800           0   0.00000       0.00000    
     36523 TIP3     3869     TIP3     H2       HT       0.417000       1.00800           0   0.00000     -0.301140E-02
     36524 TIP3     3870     TIP3     OH2      OT      -0.834000       15.9994           0   0.00000       0.00000    
     36525 TIP3     3870     TIP3     H1       HT       0.417000       1.00800           0   0.00000       0.00000    
     36526 TIP3     3870     TIP3     H2       HT       0.417000       1.00800           0   0.00000     -0.301140E-02
     36527 TIP3     3871     TIP3     OH2      OT      -0.834000       15.9994           0   0.00000       0.00000    
     36528 TIP3     3871     TIP3     H1       HT       0.417000       1.00800           0   0.00000       0.00000    
     36529 TIP3     3871     TIP3     H2       HT       0.417000       1.00800           0   0.00000     -0.301140E-02
     36530 TIP3     3872     TIP3     OH2      OT      -0.834000       15.9994           0   0.00000       0.00000    
     36531 TIP3     3872     TIP3     H1       HT       0.417000       1.00800           0   0.00000       0.00000    
     36532 TIP3     3872     TIP3     H2       HT       0.417000       1.00800           0   0.00000     -0.301140E-02
     36533 TIP3     3873     TIP3     OH2      OT      -0.834000       15.9994           0   0.00000       0.00000    
     36534 TIP3     3873     TIP3     H1       HT       0.417000       1.00800           0   0.00000       0.00000    
     36535 TIP3     3873     TIP3     H2       HT       0.417000       1.00800           0   0.00000     -0.301140E-02
     36536 TIP3     3874     TIP3     OH2      OT      -0.834000       15.9994           0   0.00000       0.00000    
     36537 TIP3     3874     TIP3     H1       HT       0.417000       1.00800           0   0.00000       0.00000    
     36538 TIP3     3874     TIP3     H2       HT       0.417000       1.00800           0   0.00000     -0.301140E-02
     36539 TIP3     3875     TIP3     OH2      OT      -0.834000       15.9994           0   0.00000       0.00000    
     36540 TIP3     3875     TIP3     H1       HT       0.417000       1.00800           0   0.00000       0.00000    
     36541 TIP3     3875     TIP3     H2       HT       0.417000       1.00800           0   0.00000     -0.301140E-02
     36542 TIP3     3876     TIP3     OH2      OT      -0.834000       15.9994           0   0.00000       0.00000    
     36543 TIP3     3876     TIP3     H1       HT       0.417000       1.00800           0   0.00000       0.00000    
     36544 TIP3     3876     TIP3     H2       HT       0.417000       1.00800           0   0.00000     -0.301140E-02
     36545 TIP3     3877     TIP3     OH2      OT      -0.834000       15.9994           0   0.00000       0.00000    
     36546 TIP3     3877     TIP3     H1       HT       0.417000       1.00800           0   0.00000       0.00000    
     36547 TIP3     3877     TIP3     H2       HT       0.417000       1.00800           0   0.00000     -0.301140E-02
     36548 TIP3     3878     TIP3     OH2      OT      -0.834000       15.9994           0   0.00000       0.00000    
     36549 TIP3     3878     TIP3     H1       HT       0.417000       1.00800           0   0.00000       0.00000    
     36550 TIP3     3878     TIP3     H2       HT       0.417000       1.00800           0   0.00000     -0.301140E-02
     36551 TIP3     3879     TIP3     OH2      OT      -0.834000       15.9994           0   0.00000       0.00000    
     36552 TIP3     3879     TIP3     H1       HT       0.417000       1.00800           0   0.00000       0.00000    
     36553 TIP3     3879     TIP3     H2       HT       0.417000       1.00800           0   0.00000     -0.301140E-02
     36554 TIP3     3880     TIP3     OH2      OT      -0.834000       15.9994           0   0.00000       0.00000    
     36555 TIP3     3880     TIP3     H1       HT       0.417000       1.00800           0   0.00000       0.00000    
     36556 TIP3     3880     TIP3     H2       HT       0.417000       1.00800           0   0.00000     -0.301140E-02
     36557 TIP3     3881     TIP3     OH2      OT      -0.834000       15.9994           0   0.00000       0.00000    
     36558 TIP3     3881     TIP3     H1       HT       0.417000       1.00800           0   0.00000       0.00000    
     36559 TIP3     3881     TIP3     H2       HT       0.417000       1.00800           0   0.00000     -0.301140E-02
     36560 TIP3     3882     TIP3     OH2      OT      -0.834000       15.9994           0   0.00000       0.00000    
     36561 TIP3     3882     TIP3     H1       HT       0.417000       1.00800           0   0.00000       0.00000    
     36562 TIP3     3882     TIP3     H2       HT       0.417000       1.00800           0   0.00000     -0.301140E-02
     36563 TIP3     3883     TIP3     OH2      OT      -0.834000       15.9994           0   0.00000       0.00000    
     36564 TIP3     3883     TIP3     H1       HT       0.417000       1.00800           0   0.00000       0.00000    
     36565 TIP3     3883     TIP3     H2       HT       0.417000       1.00800           0   0.00000     -0.301140E-02
     36566 TIP3     3884     TIP3     OH2      OT      -0.834000       15.9994           0   0.00000       0.00000    
     36567 TIP3     3884     TIP3     H1       HT       0.417000       1.00800           0   0.00000       0.00000    
     36568 TIP3     3884     TIP3     H2       HT       0.417000       1.00800           0   0.00000     -0.301140E-02
     36569 TIP3     3885     TIP3     OH2      OT      -0.834000       15.9994           0   0.00000       0.00000    
     36570 TIP3     3885     TIP3     H1       HT       0.417000       1.00800           0   0.00000       0.00000    
     36571 TIP3     3885     TIP3     H2       HT       0.417000       1.00800           0   0.00000     -0.301140E-02
     36572 TIP3     3886     TIP3     OH2      OT      -0.834000       15.9994           0   0.00000       0.00000    
     36573 TIP3     3886     TIP3     H1       HT       0.417000       1.00800           0   0.00000       0.00000    
     36574 TIP3     3886     TIP3     H2       HT       0.417000       1.00800           0   0.00000     -0.301140E-02
     36575 TIP3     3887     TIP3     OH2      OT      -0.834000       15.9994           0   0.00000       0.00000    
     36576 TIP3     3887     TIP3     H1       HT       0.417000       1.00800           0   0.00000       0.00000    
     36577 TIP3     3887     TIP3     H2       HT       0.417000       1.00800           0   0.00000     -0.301140E-02
     36578 TIP3     3888     TIP3     OH2      OT      -0.834000       15.9994           0   0.00000       0.00000    
     36579 TIP3     3888     TIP3     H1       HT       0.417000       1.00800           0   0.00000       0.00000    
     36580 TIP3     3888     TIP3     H2       HT       0.417000       1.00800           0   0.00000     -0.301140E-02
     36581 TIP3     3889     TIP3     OH2      OT      -0.834000       15.9994           0   0.00000       0.00000    
     36582 TIP3     3889     TIP3     H1       HT       0.417000       1.00800           0   0.00000       0.00000    
     36583 TIP3     3889     TIP3     H2       HT       0.417000       1.00800           0   0.00000     -0.301140E-02
     36584 TIP3     3890     TIP3     OH2      OT      -0.834000       15.9994           0   0.00000       0.00000    
     36585 TIP3     3890     TIP3     H1       HT       0.417000       1.00800           0   0.00000       0.00000    
     36586 TIP3     3890     TIP3     H2       HT       0.417000       1.00800           0   0.00000     -0.301140E-02
     36587 TIP3     3891     TIP3     OH2      OT      -0.834000       15.9994           0   0.00000       0.00000    
     36588 TIP3     3891     TIP3     H1       HT       0.417000       1.00800           0   0.00000       0.00000    
     36589 TIP3     3891     TIP3     H2       HT       0.417000       1.00800           0   0.00000     -0.301140E-02
     36590 TIP3     3892     TIP3     OH2      OT      -0.834000       15.9994           0   0.00000       0.00000    
     36591 TIP3     3892     TIP3     H1       HT       0.417000       1.00800           0   0.00000       0.00000    
     36592 TIP3     3892     TIP3     H2       HT       0.417000       1.00800           0   0.00000     -0.301140E-02
     36593 TIP3     3893     TIP3     OH2      OT      -0.834000       15.9994           0   0.00000       0.00000    
     36594 TIP3     3893     TIP3     H1       HT       0.417000       1.00800           0   0.00000       0.00000    
     36595 TIP3     3893     TIP3     H2       HT       0.417000       1.00800           0   0.00000     -0.301140E-02
     36596 TIP3     3894     TIP3     OH2      OT      -0.834000       15.9994           0   0.00000       0.00000    
     36597 TIP3     3894     TIP3     H1       HT       0.417000       1.00800           0   0.00000       0.00000    
     36598 TIP3     3894     TIP3     H2       HT       0.417000       1.00800           0   0.00000     -0.301140E-02
     36599 TIP3     3895     TIP3     OH2      OT      -0.834000       15.9994           0   0.00000       0.00000    
     36600 TIP3     3895     TIP3     H1       HT       0.417000       1.00800           0   0.00000       0.00000    
     36601 TIP3     3895     TIP3     H2       HT       0.417000       1.00800           0   0.00000     -0.301140E-02
     36602 TIP3     3896     TIP3     OH2      OT      -0.834000       15.9994           0   0.00000       0.00000    
     36603 TIP3     3896     TIP3     H1       HT       0.417000       1.00800           0   0.00000       0.00000    
     36604 TIP3     3896     TIP3     H2       HT       0.417000       1.00800           0   0.00000     -0.301140E-02
     36605 TIP3     3897     TIP3     OH2      OT      -0.834000       15.9994           0   0.00000       0.00000    
     36606 TIP3     3897     TIP3     H1       HT       0.417000       1.00800           0   0.00000       0.00000    
     36607 TIP3     3897     TIP3     H2       HT       0.417000       1.00800           0   0.00000     -0.301140E-02
     36608 TIP3     3898     TIP3     OH2      OT      -0.834000       15.9994           0   0.00000       0.00000    
     36609 TIP3     3898     TIP3     H1       HT       0.417000       1.00800           0   0.00000       0.00000    
     36610 TIP3     3898     TIP3     H2       HT       0.417000       1.00800           0   0.00000     -0.301140E-02
     36611 TIP3     3899     TIP3     OH2      OT      -0.834000       15.9994           0   0.00000       0.00000    
     36612 TIP3     3899     TIP3     H1       HT       0.417000       1.00800           0   0.00000       0.00000    
     36613 TIP3     3899     TIP3     H2       HT       0.417000       1.00800           0   0.00000     -0.301140E-02
     36614 TIP3     3900     TIP3     OH2      OT      -0.834000       15.9994           0   0.00000       0.00000    
     36615 TIP3     3900     TIP3     H1       HT       0.417000       1.00800           0   0.00000       0.00000    
     36616 TIP3     3900     TIP3     H2       HT       0.417000       1.00800           0   0.00000     -0.301140E-02
     36617 TIP3     3901     TIP3     OH2      OT      -0.834000       15.9994           0   0.00000       0.00000    
     36618 TIP3     3901     TIP3     H1       HT       0.417000       1.00800           0   0.00000       0.00000    
     36619 TIP3     3901     TIP3     H2       HT       0.417000       1.00800           0   0.00000     -0.301140E-02
     36620 TIP3     3902     TIP3     OH2      OT      -0.834000       15.9994           0   0.00000       0.00000    
     36621 TIP3     3902     TIP3     H1       HT       0.417000       1.00800           0   0.00000       0.00000    
     36622 TIP3     3902     TIP3     H2       HT       0.417000       1.00800           0   0.00000     -0.301140E-02
     36623 TIP3     3903     TIP3     OH2      OT      -0.834000       15.9994           0   0.00000       0.00000    
     36624 TIP3     3903     TIP3     H1       HT       0.417000       1.00800           0   0.00000       0.00000    
     36625 TIP3     3903     TIP3     H2       HT       0.417000       1.00800           0   0.00000     -0.301140E-02
     36626 TIP3     3904     TIP3     OH2      OT      -0.834000       15.9994           0   0.00000       0.00000    
     36627 TIP3     3904     TIP3     H1       HT       0.417000       1.00800           0   0.00000       0.00000    
     36628 TIP3     3904     TIP3     H2       HT       0.417000       1.00800           0   0.00000     -0.301140E-02
     36629 TIP3     3905     TIP3     OH2      OT      -0.834000       15.9994           0   0.00000       0.00000    
     36630 TIP3     3905     TIP3     H1       HT       0.417000       1.00800           0   0.00000       0.00000    
     36631 TIP3     3905     TIP3     H2       HT       0.417000       1.00800           0   0.00000     -0.301140E-02
     36632 TIP3     3906     TIP3     OH2      OT      -0.834000       15.9994           0   0.00000       0.00000    
     36633 TIP3     3906     TIP3     H1       HT       0.417000       1.00800           0   0.00000       0.00000    
     36634 TIP3     3906     TIP3     H2       HT       0.417000       1.00800           0   0.00000     -0.301140E-02
     36635 TIP3     3907     TIP3     OH2      OT      -0.834000       15.9994           0   0.00000       0.00000    
     36636 TIP3     3907     TIP3     H1       HT       0.417000       1.00800           0   0.00000       0.00000    
     36637 TIP3     3907     TIP3     H2       HT       0.417000       1.00800           0   0.00000     -0.301140E-02
     36638 TIP3     3908     TIP3     OH2      OT      -0.834000       15.9994           0   0.00000       0.00000    
     36639 TIP3     3908     TIP3     H1       HT       0.417000       1.00800           0   0.00000       0.00000    
     36640 TIP3     3908     TIP3     H2       HT       0.417000       1.00800           0   0.00000     -0.301140E-02
     36641 TIP3     3909     TIP3     OH2      OT      -0.834000       15.9994           0   0.00000       0.00000    
     36642 TIP3     3909     TIP3     H1       HT       0.417000       1.00800           0   0.00000       0.00000    
     36643 TIP3     3909     TIP3     H2       HT       0.417000       1.00800           0   0.00000     -0.301140E-02
     36644 TIP3     3910     TIP3     OH2      OT      -0.834000       15.9994           0   0.00000       0.00000    
     36645 TIP3     3910     TIP3     H1       HT       0.417000       1.00800           0   0.00000       0.00000    
     36646 TIP3     3910     TIP3     H2       HT       0.417000       1.00800           0   0.00000     -0.301140E-02
     36647 TIP3     3911     TIP3     OH2      OT      -0.834000       15.9994           0   0.00000       0.00000    
     36648 TIP3     3911     TIP3     H1       HT       0.417000       1.00800           0   0.00000       0.00000    
     36649 TIP3     3911     TIP3     H2       HT       0.417000       1.00800           0   0.00000     -0.301140E-02
     36650 TIP3     3912     TIP3     OH2      OT      -0.834000       15.9994           0   0.00000       0.00000    
     36651 TIP3     3912     TIP3     H1       HT       0.417000       1.00800           0   0.00000       0.00000    
     36652 TIP3     3912     TIP3     H2       HT       0.417000       1.00800           0   0.00000     -0.301140E-02
     36653 TIP3     3913     TIP3     OH2      OT      -0.834000       15.9994           0   0.00000       0.00000    
     36654 TIP3     3913     TIP3     H1       HT       0.417000       1.00800           0   0.00000       0.00000    
     36655 TIP3     3913     TIP3     H2       HT       0.417000       1.00800           0   0.00000     -0.301140E-02
     36656 TIP3     3914     TIP3     OH2      OT      -0.834000       15.9994           0   0.00000       0.00000    
     36657 TIP3     3914     TIP3     H1       HT       0.417000       1.00800           0   0.00000       0.00000    
     36658 TIP3     3914     TIP3     H2       HT       0.417000       1.00800           0   0.00000     -0.301140E-02
     36659 TIP3     3915     TIP3     OH2      OT      -0.834000       15.9994           0   0.00000       0.00000    
     36660 TIP3     3915     TIP3     H1       HT       0.417000       1.00800           0   0.00000       0.00000    
     36661 TIP3     3915     TIP3     H2       HT       0.417000       1.00800           0   0.00000     -0.301140E-02
     36662 TIP3     3916     TIP3     OH2      OT      -0.834000       15.9994           0   0.00000       0.00000    
     36663 TIP3     3916     TIP3     H1       HT       0.417000       1.00800           0   0.00000       0.00000    
     36664 TIP3     3916     TIP3     H2       HT       0.417000       1.00800           0   0.00000     -0.301140E-02
     36665 TIP3     3917     TIP3     OH2      OT      -0.834000       15.9994           0   0.00000       0.00000    
     36666 TIP3     3917     TIP3     H1       HT       0.417000       1.00800           0   0.00000       0.00000    
     36667 TIP3     3917     TIP3     H2       HT       0.417000       1.00800           0   0.00000     -0.301140E-02
     36668 TIP3     3918     TIP3     OH2      OT      -0.834000       15.9994           0   0.00000       0.00000    
     36669 TIP3     3918     TIP3     H1       HT       0.417000       1.00800           0   0.00000       0.00000    
     36670 TIP3     3918     TIP3     H2       HT       0.417000       1.00800           0   0.00000     -0.301140E-02
     36671 TIP3     3919     TIP3     OH2      OT      -0.834000       15.9994           0   0.00000       0.00000    
     36672 TIP3     3919     TIP3     H1       HT       0.417000       1.00800           0   0.00000       0.00000    
     36673 TIP3     3919     TIP3     H2       HT       0.417000       1.00800           0   0.00000     -0.301140E-02
     36674 TIP3     3920     TIP3     OH2      OT      -0.834000       15.9994           0   0.00000       0.00000    
     36675 TIP3     3920     TIP3     H1       HT       0.417000       1.00800           0   0.00000       0.00000    
     36676 TIP3     3920     TIP3     H2       HT       0.417000       1.00800           0   0.00000     -0.301140E-02
     36677 TIP3     3921     TIP3     OH2      OT      -0.834000       15.9994           0   0.00000       0.00000    
     36678 TIP3     3921     TIP3     H1       HT       0.417000       1.00800           0   0.00000       0.00000    
     36679 TIP3     3921     TIP3     H2       HT       0.417000       1.00800           0   0.00000     -0.301140E-02
     36680 TIP3     3922     TIP3     OH2      OT      -0.834000       15.9994           0   0.00000       0.00000    
     36681 TIP3     3922     TIP3     H1       HT       0.417000       1.00800           0   0.00000       0.00000    
     36682 TIP3     3922     TIP3     H2       HT       0.417000       1.00800           0   0.00000     -0.301140E-02
     36683 TIP3     3923     TIP3     OH2      OT      -0.834000       15.9994           0   0.00000       0.00000    
     36684 TIP3     3923     TIP3     H1       HT       0.417000       1.00800           0   0.00000       0.00000    
     36685 TIP3     3923     TIP3     H2       HT       0.417000       1.00800           0   0.00000     -0.301140E-02
     36686 TIP3     3924     TIP3     OH2      OT      -0.834000       15.9994           0   0.00000       0.00000    
     36687 TIP3     3924     TIP3     H1       HT       0.417000       1.00800           0   0.00000       0.00000    
     36688 TIP3     3924     TIP3     H2       HT       0.417000       1.00800           0   0.00000     -0.301140E-02
     36689 TIP3     3925     TIP3     OH2      OT      -0.834000       15.9994           0   0.00000       0.00000    
     36690 TIP3     3925     TIP3     H1       HT       0.417000       1.00800           0   0.00000       0.00000    
     36691 TIP3     3925     TIP3     H2       HT       0.417000       1.00800           0   0.00000     -0.301140E-02
     36692 TIP3     3926     TIP3     OH2      OT      -0.834000       15.9994           0   0.00000       0.00000    
     36693 TIP3     3926     TIP3     H1       HT       0.417000       1.00800           0   0.00000       0.00000    
     36694 TIP3     3926     TIP3     H2       HT       0.417000       1.00800           0   0.00000     -0.301140E-02
     36695 TIP3     3927     TIP3     OH2      OT      -0.834000       15.9994           0   0.00000       0.00000    
     36696 TIP3     3927     TIP3     H1       HT       0.417000       1.00800           0   0.00000       0.00000    
     36697 TIP3     3927     TIP3     H2       HT       0.417000       1.00800           0   0.00000     -0.301140E-02
     36698 TIP3     3928     TIP3     OH2      OT      -0.834000       15.9994           0   0.00000       0.00000    
     36699 TIP3     3928     TIP3     H1       HT       0.417000       1.00800           0   0.00000       0.00000    
     36700 TIP3     3928     TIP3     H2       HT       0.417000       1.00800           0   0.00000     -0.301140E-02
     36701 TIP3     3929     TIP3     OH2      OT      -0.834000       15.9994           0   0.00000       0.00000    
     36702 TIP3     3929     TIP3     H1       HT       0.417000       1.00800           0   0.00000       0.00000    
     36703 TIP3     3929     TIP3     H2       HT       0.417000       1.00800           0   0.00000     -0.301140E-02
     36704 TIP3     3930     TIP3     OH2      OT      -0.834000       15.9994           0   0.00000       0.00000    
     36705 TIP3     3930     TIP3     H1       HT       0.417000       1.00800           0   0.00000       0.00000    
     36706 TIP3     3930     TIP3     H2       HT       0.417000       1.00800           0   0.00000     -0.301140E-02
     36707 TIP3     3931     TIP3     OH2      OT      -0.834000       15.9994           0   0.00000       0.00000    
     36708 TIP3     3931     TIP3     H1       HT       0.417000       1.00800           0   0.00000       0.00000    
     36709 TIP3     3931     TIP3     H2       HT       0.417000       1.00800           0   0.00000     -0.301140E-02
     36710 TIP3     3932     TIP3     OH2      OT      -0.834000       15.9994           0   0.00000       0.00000    
     36711 TIP3     3932     TIP3     H1       HT       0.417000       1.00800           0   0.00000       0.00000    
     36712 TIP3     3932     TIP3     H2       HT       0.417000       1.00800           0   0.00000     -0.301140E-02
     36713 TIP3     3933     TIP3     OH2      OT      -0.834000       15.9994           0   0.00000       0.00000    
     36714 TIP3     3933     TIP3     H1       HT       0.417000       1.00800           0   0.00000       0.00000    
     36715 TIP3     3933     TIP3     H2       HT       0.417000       1.00800           0   0.00000     -0.301140E-02
     36716 TIP3     3934     TIP3     OH2      OT      -0.834000       15.9994           0   0.00000       0.00000    
     36717 TIP3     3934     TIP3     H1       HT       0.417000       1.00800           0   0.00000       0.00000    
     36718 TIP3     3934     TIP3     H2       HT       0.417000       1.00800           0   0.00000     -0.301140E-02
     36719 TIP3     3935     TIP3     OH2      OT      -0.834000       15.9994           0   0.00000       0.00000    
     36720 TIP3     3935     TIP3     H1       HT       0.417000       1.00800           0   0.00000       0.00000    
     36721 TIP3     3935     TIP3     H2       HT       0.417000       1.00800           0   0.00000     -0.301140E-02
     36722 TIP3     3936     TIP3     OH2      OT      -0.834000       15.9994           0   0.00000       0.00000    
     36723 TIP3     3936     TIP3     H1       HT       0.417000       1.00800           0   0.00000       0.00000    
     36724 TIP3     3936     TIP3     H2       HT       0.417000       1.00800           0   0.00000     -0.301140E-02
     36725 TIP3     3937     TIP3     OH2      OT      -0.834000       15.9994           0   0.00000       0.00000    
     36726 TIP3     3937     TIP3     H1       HT       0.417000       1.00800           0   0.00000       0.00000    
     36727 TIP3     3937     TIP3     H2       HT       0.417000       1.00800           0   0.00000     -0.301140E-02
     36728 TIP3     3938     TIP3     OH2      OT      -0.834000       15.9994           0   0.00000       0.00000    
     36729 TIP3     3938     TIP3     H1       HT       0.417000       1.00800           0   0.00000       0.00000    
     36730 TIP3     3938     TIP3     H2       HT       0.417000       1.00800           0   0.00000     -0.301140E-02
     36731 TIP3     3939     TIP3     OH2      OT      -0.834000       15.9994           0   0.00000       0.00000    
     36732 TIP3     3939     TIP3     H1       HT       0.417000       1.00800           0   0.00000       0.00000    
     36733 TIP3     3939     TIP3     H2       HT       0.417000       1.00800           0   0.00000     -0.301140E-02
     36734 TIP3     3940     TIP3     OH2      OT      -0.834000       15.9994           0   0.00000       0.00000    
     36735 TIP3     3940     TIP3     H1       HT       0.417000       1.00800           0   0.00000       0.00000    
     36736 TIP3     3940     TIP3     H2       HT       0.417000       1.00800           0   0.00000     -0.301140E-02
     36737 TIP3     3941     TIP3     OH2      OT      -0.834000       15.9994           0   0.00000       0.00000    
     36738 TIP3     3941     TIP3     H1       HT       0.417000       1.00800           0   0.00000       0.00000    
     36739 TIP3     3941     TIP3     H2       HT       0.417000       1.00800           0   0.00000     -0.301140E-02
     36740 TIP3     3942     TIP3     OH2      OT      -0.834000       15.9994           0   0.00000       0.00000    
     36741 TIP3     3942     TIP3     H1       HT       0.417000       1.00800           0   0.00000       0.00000    
     36742 TIP3     3942     TIP3     H2       HT       0.417000       1.00800           0   0.00000     -0.301140E-02
     36743 TIP3     3943     TIP3     OH2      OT      -0.834000       15.9994           0   0.00000       0.00000    
     36744 TIP3     3943     TIP3     H1       HT       0.417000       1.00800           0   0.00000       0.00000    
     36745 TIP3     3943     TIP3     H2       HT       0.417000       1.00800           0   0.00000     -0.301140E-02
     36746 TIP3     3944     TIP3     OH2      OT      -0.834000       15.9994           0   0.00000       0.00000    
     36747 TIP3     3944     TIP3     H1       HT       0.417000       1.00800           0   0.00000       0.00000    
     36748 TIP3     3944     TIP3     H2       HT       0.417000       1.00800           0   0.00000     -0.301140E-02
     36749 TIP3     3945     TIP3     OH2      OT      -0.834000       15.9994           0   0.00000       0.00000    
     36750 TIP3     3945     TIP3     H1       HT       0.417000       1.00800           0   0.00000       0.00000    
     36751 TIP3     3945     TIP3     H2       HT       0.417000       1.00800           0   0.00000     -0.301140E-02
     36752 TIP3     3946     TIP3     OH2      OT      -0.834000       15.9994           0   0.00000       0.00000    
     36753 TIP3     3946     TIP3     H1       HT       0.417000       1.00800           0   0.00000       0.00000    
     36754 TIP3     3946     TIP3     H2       HT       0.417000       1.00800           0   0.00000     -0.301140E-02
     36755 TIP3     3947     TIP3     OH2      OT      -0.834000       15.9994           0   0.00000       0.00000    
     36756 TIP3     3947     TIP3     H1       HT       0.417000       1.00800           0   0.00000       0.00000    
     36757 TIP3     3947     TIP3     H2       HT       0.417000       1.00800           0   0.00000     -0.301140E-02
     36758 TIP3     3948     TIP3     OH2      OT      -0.834000       15.9994           0   0.00000       0.00000    
     36759 TIP3     3948     TIP3     H1       HT       0.417000       1.00800           0   0.00000       0.00000    
     36760 TIP3     3948     TIP3     H2       HT       0.417000       1.00800           0   0.00000     -0.301140E-02
     36761 TIP3     3949     TIP3     OH2      OT      -0.834000       15.9994           0   0.00000       0.00000    
     36762 TIP3     3949     TIP3     H1       HT       0.417000       1.00800           0   0.00000       0.00000    
     36763 TIP3     3949     TIP3     H2       HT       0.417000       1.00800           0   0.00000     -0.301140E-02
     36764 TIP3     3950     TIP3     OH2      OT      -0.834000       15.9994           0   0.00000       0.00000    
     36765 TIP3     3950     TIP3     H1       HT       0.417000       1.00800           0   0.00000       0.00000    
     36766 TIP3     3950     TIP3     H2       HT       0.417000       1.00800           0   0.00000     -0.301140E-02
     36767 TIP3     3951     TIP3     OH2      OT      -0.834000       15.9994           0   0.00000       0.00000    
     36768 TIP3     3951     TIP3     H1       HT       0.417000       1.00800           0   0.00000       0.00000    
     36769 TIP3     3951     TIP3     H2       HT       0.417000       1.00800           0   0.00000     -0.301140E-02
     36770 TIP3     3952     TIP3     OH2      OT      -0.834000       15.9994           0   0.00000       0.00000    
     36771 TIP3     3952     TIP3     H1       HT       0.417000       1.00800           0   0.00000       0.00000    
     36772 TIP3     3952     TIP3     H2       HT       0.417000       1.00800           0   0.00000     -0.301140E-02
     36773 TIP3     3953     TIP3     OH2      OT      -0.834000       15.9994           0   0.00000       0.00000    
     36774 TIP3     3953     TIP3     H1       HT       0.417000       1.00800           0   0.00000       0.00000    
     36775 TIP3     3953     TIP3     H2       HT       0.417000       1.00800           0   0.00000     -0.301140E-02
     36776 TIP3     3954     TIP3     OH2      OT      -0.834000       15.9994           0   0.00000       0.00000    
     36777 TIP3     3954     TIP3     H1       HT       0.417000       1.00800           0   0.00000       0.00000    
     36778 TIP3     3954     TIP3     H2       HT       0.417000       1.00800           0   0.00000     -0.301140E-02
     36779 TIP3     3955     TIP3     OH2      OT      -0.834000       15.9994           0   0.00000       0.00000    
     36780 TIP3     3955     TIP3     H1       HT       0.417000       1.00800           0   0.00000       0.00000    
     36781 TIP3     3955     TIP3     H2       HT       0.417000       1.00800           0   0.00000     -0.301140E-02
     36782 TIP3     3956     TIP3     OH2      OT      -0.834000       15.9994           0   0.00000       0.00000    
     36783 TIP3     3956     TIP3     H1       HT       0.417000       1.00800           0   0.00000       0.00000    
     36784 TIP3     3956     TIP3     H2       HT       0.417000       1.00800           0   0.00000     -0.301140E-02
     36785 TIP3     3957     TIP3     OH2      OT      -0.834000       15.9994           0   0.00000       0.00000    
     36786 TIP3     3957     TIP3     H1       HT       0.417000       1.00800           0   0.00000       0.00000    
     36787 TIP3     3957     TIP3     H2       HT       0.417000       1.00800           0   0.00000     -0.301140E-02
     36788 TIP3     3958     TIP3     OH2      OT      -0.834000       15.9994           0   0.00000       0.00000    
     36789 TIP3     3958     TIP3     H1       HT       0.417000       1.00800           0   0.00000       0.00000    
     36790 TIP3     3958     TIP3     H2       HT       0.417000       1.00800           0   0.00000     -0.301140E-02
     36791 TIP3     3959     TIP3     OH2      OT      -0.834000       15.9994           0   0.00000       0.00000    
     36792 TIP3     3959     TIP3     H1       HT       0.417000       1.00800           0   0.00000       0.00000    
     36793 TIP3     3959     TIP3     H2       HT       0.417000       1.00800           0   0.00000     -0.301140E-02
     36794 TIP3     3960     TIP3     OH2      OT      -0.834000       15.9994           0   0.00000       0.00000    
     36795 TIP3     3960     TIP3     H1       HT       0.417000       1.00800           0   0.00000       0.00000    
     36796 TIP3     3960     TIP3     H2       HT       0.417000       1.00800           0   0.00000     -0.301140E-02
     36797 TIP3     3961     TIP3     OH2      OT      -0.834000       15.9994           0   0.00000       0.00000    
     36798 TIP3     3961     TIP3     H1       HT       0.417000       1.00800           0   0.00000       0.00000    
     36799 TIP3     3961     TIP3     H2       HT       0.417000       1.00800           0   0.00000     -0.301140E-02
     36800 TIP3     3962     TIP3     OH2      OT      -0.834000       15.9994           0   0.00000       0.00000    
     36801 TIP3     3962     TIP3     H1       HT       0.417000       1.00800           0   0.00000       0.00000    
     36802 TIP3     3962     TIP3     H2       HT       0.417000       1.00800           0   0.00000     -0.301140E-02
     36803 TIP3     3963     TIP3     OH2      OT      -0.834000       15.9994           0   0.00000       0.00000    
     36804 TIP3     3963     TIP3     H1       HT       0.417000       1.00800           0   0.00000       0.00000    
     36805 TIP3     3963     TIP3     H2       HT       0.417000       1.00800           0   0.00000     -0.301140E-02
     36806 TIP3     3964     TIP3     OH2      OT      -0.834000       15.9994           0   0.00000       0.00000    
     36807 TIP3     3964     TIP3     H1       HT       0.417000       1.00800           0   0.00000       0.00000    
     36808 TIP3     3964     TIP3     H2       HT       0.417000       1.00800           0   0.00000     -0.301140E-02
     36809 TIP3     3965     TIP3     OH2      OT      -0.834000       15.9994           0   0.00000       0.00000    
     36810 TIP3     3965     TIP3     H1       HT       0.417000       1.00800           0   0.00000       0.00000    
     36811 TIP3     3965     TIP3     H2       HT       0.417000       1.00800           0   0.00000     -0.301140E-02
     36812 TIP3     3966     TIP3     OH2      OT      -0.834000       15.9994           0   0.00000       0.00000    
     36813 TIP3     3966     TIP3     H1       HT       0.417000       1.00800           0   0.00000       0.00000    
     36814 TIP3     3966     TIP3     H2       HT       0.417000       1.00800           0   0.00000     -0.301140E-02
     36815 TIP3     3967     TIP3     OH2      OT      -0.834000       15.9994           0   0.00000       0.00000    
     36816 TIP3     3967     TIP3     H1       HT       0.417000       1.00800           0   0.00000       0.00000    
     36817 TIP3     3967     TIP3     H2       HT       0.417000       1.00800           0   0.00000     -0.301140E-02
     36818 TIP3     3968     TIP3     OH2      OT      -0.834000       15.9994           0   0.00000       0.00000    
     36819 TIP3     3968     TIP3     H1       HT       0.417000       1.00800           0   0.00000       0.00000    
     36820 TIP3     3968     TIP3     H2       HT       0.417000       1.00800           0   0.00000     -0.301140E-02
     36821 TIP3     3969     TIP3     OH2      OT      -0.834000       15.9994           0   0.00000       0.00000    
     36822 TIP3     3969     TIP3     H1       HT       0.417000       1.00800           0   0.00000       0.00000    
     36823 TIP3     3969     TIP3     H2       HT       0.417000       1.00800           0   0.00000     -0.301140E-02
     36824 TIP3     3970     TIP3     OH2      OT      -0.834000       15.9994           0   0.00000       0.00000    
     36825 TIP3     3970     TIP3     H1       HT       0.417000       1.00800           0   0.00000       0.00000    
     36826 TIP3     3970     TIP3     H2       HT       0.417000       1.00800           0   0.00000     -0.301140E-02
     36827 TIP3     3971     TIP3     OH2      OT      -0.834000       15.9994           0   0.00000       0.00000    
     36828 TIP3     3971     TIP3     H1       HT       0.417000       1.00800           0   0.00000       0.00000    
     36829 TIP3     3971     TIP3     H2       HT       0.417000       1.00800           0   0.00000     -0.301140E-02
     36830 TIP3     3972     TIP3     OH2      OT      -0.834000       15.9994           0   0.00000       0.00000    
     36831 TIP3     3972     TIP3     H1       HT       0.417000       1.00800           0   0.00000       0.00000    
     36832 TIP3     3972     TIP3     H2       HT       0.417000       1.00800           0   0.00000     -0.301140E-02
     36833 TIP3     3973     TIP3     OH2      OT      -0.834000       15.9994           0   0.00000       0.00000    
     36834 TIP3     3973     TIP3     H1       HT       0.417000       1.00800           0   0.00000       0.00000    
     36835 TIP3     3973     TIP3     H2       HT       0.417000       1.00800           0   0.00000     -0.301140E-02
     36836 TIP3     3974     TIP3     OH2      OT      -0.834000       15.9994           0   0.00000       0.00000    
     36837 TIP3     3974     TIP3     H1       HT       0.417000       1.00800           0   0.00000       0.00000    
     36838 TIP3     3974     TIP3     H2       HT       0.417000       1.00800           0   0.00000     -0.301140E-02
     36839 TIP3     3975     TIP3     OH2      OT      -0.834000       15.9994           0   0.00000       0.00000    
     36840 TIP3     3975     TIP3     H1       HT       0.417000       1.00800           0   0.00000       0.00000    
     36841 TIP3     3975     TIP3     H2       HT       0.417000       1.00800           0   0.00000     -0.301140E-02
     36842 TIP3     3976     TIP3     OH2      OT      -0.834000       15.9994           0   0.00000       0.00000    
     36843 TIP3     3976     TIP3     H1       HT       0.417000       1.00800           0   0.00000       0.00000    
     36844 TIP3     3976     TIP3     H2       HT       0.417000       1.00800           0   0.00000     -0.301140E-02
     36845 TIP3     3977     TIP3     OH2      OT      -0.834000       15.9994           0   0.00000       0.00000    
     36846 TIP3     3977     TIP3     H1       HT       0.417000       1.00800           0   0.00000       0.00000    
     36847 TIP3     3977     TIP3     H2       HT       0.417000       1.00800           0   0.00000     -0.301140E-02
     36848 TIP3     3978     TIP3     OH2      OT      -0.834000       15.9994           0   0.00000       0.00000    
     36849 TIP3     3978     TIP3     H1       HT       0.417000       1.00800           0   0.00000       0.00000    
     36850 TIP3     3978     TIP3     H2       HT       0.417000       1.00800           0   0.00000     -0.301140E-02
     36851 TIP3     3979     TIP3     OH2      OT      -0.834000       15.9994           0   0.00000       0.00000    
     36852 TIP3     3979     TIP3     H1       HT       0.417000       1.00800           0   0.00000       0.00000    
     36853 TIP3     3979     TIP3     H2       HT       0.417000       1.00800           0   0.00000     -0.301140E-02
     36854 TIP3     3980     TIP3     OH2      OT      -0.834000       15.9994           0   0.00000       0.00000    
     36855 TIP3     3980     TIP3     H1       HT       0.417000       1.00800           0   0.00000       0.00000    
     36856 TIP3     3980     TIP3     H2       HT       0.417000       1.00800           0   0.00000     -0.301140E-02
     36857 TIP3     3981     TIP3     OH2      OT      -0.834000       15.9994           0   0.00000       0.00000    
     36858 TIP3     3981     TIP3     H1       HT       0.417000       1.00800           0   0.00000       0.00000    
     36859 TIP3     3981     TIP3     H2       HT       0.417000       1.00800           0   0.00000     -0.301140E-02
     36860 TIP3     3982     TIP3     OH2      OT      -0.834000       15.9994           0   0.00000       0.00000    
     36861 TIP3     3982     TIP3     H1       HT       0.417000       1.00800           0   0.00000       0.00000    
     36862 TIP3     3982     TIP3     H2       HT       0.417000       1.00800           0   0.00000     -0.301140E-02
     36863 TIP3     3983     TIP3     OH2      OT      -0.834000       15.9994           0   0.00000       0.00000    
     36864 TIP3     3983     TIP3     H1       HT       0.417000       1.00800           0   0.00000       0.00000    
     36865 TIP3     3983     TIP3     H2       HT       0.417000       1.00800           0   0.00000     -0.301140E-02
     36866 TIP3     3984     TIP3     OH2      OT      -0.834000       15.9994           0   0.00000       0.00000    
     36867 TIP3     3984     TIP3     H1       HT       0.417000       1.00800           0   0.00000       0.00000    
     36868 TIP3     3984     TIP3     H2       HT       0.417000       1.00800           0   0.00000     -0.301140E-02
     36869 TIP3     3985     TIP3     OH2      OT      -0.834000       15.9994           0   0.00000       0.00000    
     36870 TIP3     3985     TIP3     H1       HT       0.417000       1.00800           0   0.00000       0.00000    
     36871 TIP3     3985     TIP3     H2       HT       0.417000       1.00800           0   0.00000     -0.301140E-02
     36872 TIP3     3986     TIP3     OH2      OT      -0.834000       15.9994           0   0.00000       0.00000    
     36873 TIP3     3986     TIP3     H1       HT       0.417000       1.00800           0   0.00000       0.00000    
     36874 TIP3     3986     TIP3     H2       HT       0.417000       1.00800           0   0.00000     -0.301140E-02
     36875 TIP3     3987     TIP3     OH2      OT      -0.834000       15.9994           0   0.00000       0.00000    
     36876 TIP3     3987     TIP3     H1       HT       0.417000       1.00800           0   0.00000       0.00000    
     36877 TIP3     3987     TIP3     H2       HT       0.417000       1.00800           0   0.00000     -0.301140E-02
     36878 TIP3     3988     TIP3     OH2      OT      -0.834000       15.9994           0   0.00000       0.00000    
     36879 TIP3     3988     TIP3     H1       HT       0.417000       1.00800           0   0.00000       0.00000    
     36880 TIP3     3988     TIP3     H2       HT       0.417000       1.00800           0   0.00000     -0.301140E-02
     36881 TIP3     3989     TIP3     OH2      OT      -0.834000       15.9994           0   0.00000       0.00000    
     36882 TIP3     3989     TIP3     H1       HT       0.417000       1.00800           0   0.00000       0.00000    
     36883 TIP3     3989     TIP3     H2       HT       0.417000       1.00800           0   0.00000     -0.301140E-02
     36884 TIP3     3990     TIP3     OH2      OT      -0.834000       15.9994           0   0.00000       0.00000    
     36885 TIP3     3990     TIP3     H1       HT       0.417000       1.00800           0   0.00000       0.00000    
     36886 TIP3     3990     TIP3     H2       HT       0.417000       1.00800           0   0.00000     -0.301140E-02
     36887 TIP3     3991     TIP3     OH2      OT      -0.834000       15.9994           0   0.00000       0.00000    
     36888 TIP3     3991     TIP3     H1       HT       0.417000       1.00800           0   0.00000       0.00000    
     36889 TIP3     3991     TIP3     H2       HT       0.417000       1.00800           0   0.00000     -0.301140E-02
     36890 TIP3     3992     TIP3     OH2      OT      -0.834000       15.9994           0   0.00000       0.00000    
     36891 TIP3     3992     TIP3     H1       HT       0.417000       1.00800           0   0.00000       0.00000    
     36892 TIP3     3992     TIP3     H2       HT       0.417000       1.00800           0   0.00000     -0.301140E-02
     36893 TIP3     3993     TIP3     OH2      OT      -0.834000       15.9994           0   0.00000       0.00000    
     36894 TIP3     3993     TIP3     H1       HT       0.417000       1.00800           0   0.00000       0.00000    
     36895 TIP3     3993     TIP3     H2       HT       0.417000       1.00800           0   0.00000     -0.301140E-02
     36896 TIP3     3994     TIP3     OH2      OT      -0.834000       15.9994           0   0.00000       0.00000    
     36897 TIP3     3994     TIP3     H1       HT       0.417000       1.00800           0   0.00000       0.00000    
     36898 TIP3     3994     TIP3     H2       HT       0.417000       1.00800           0   0.00000     -0.301140E-02
     36899 TIP3     3995     TIP3     OH2      OT      -0.834000       15.9994           0   0.00000       0.00000    
     36900 TIP3     3995     TIP3     H1       HT       0.417000       1.00800           0   0.00000       0.00000    
     36901 TIP3     3995     TIP3     H2       HT       0.417000       1.00800           0   0.00000     -0.301140E-02
     36902 TIP3     3996     TIP3     OH2      OT      -0.834000       15.9994           0   0.00000       0.00000    
     36903 TIP3     3996     TIP3     H1       HT       0.417000       1.00800           0   0.00000       0.00000    
     36904 TIP3     3996     TIP3     H2       HT       0.417000       1.00800           0   0.00000     -0.301140E-02
     36905 TIP3     3997     TIP3     OH2      OT      -0.834000       15.9994           0   0.00000       0.00000    
     36906 TIP3     3997     TIP3     H1       HT       0.417000       1.00800           0   0.00000       0.00000    
     36907 TIP3     3997     TIP3     H2       HT       0.417000       1.00800           0   0.00000     -0.301140E-02
     36908 TIP3     3998     TIP3     OH2      OT      -0.834000       15.9994           0   0.00000       0.00000    
     36909 TIP3     3998     TIP3     H1       HT       0.417000       1.00800           0   0.00000       0.00000    
     36910 TIP3     3998     TIP3     H2       HT       0.417000       1.00800           0   0.00000     -0.301140E-02
     36911 TIP3     3999     TIP3     OH2      OT      -0.834000       15.9994           0   0.00000       0.00000    
     36912 TIP3     3999     TIP3     H1       HT       0.417000       1.00800           0   0.00000       0.00000    
     36913 TIP3     3999     TIP3     H2       HT       0.417000       1.00800           0   0.00000     -0.301140E-02
     36914 TIP3     4000     TIP3     OH2      OT      -0.834000       15.9994           0   0.00000       0.00000    
     36915 TIP3     4000     TIP3     H1       HT       0.417000       1.00800           0   0.00000       0.00000    
     36916 TIP3     4000     TIP3     H2       HT       0.417000       1.00800           0   0.00000     -0.301140E-02
     36917 TIP3     4001     TIP3     OH2      OT      -0.834000       15.9994           0   0.00000       0.00000    
     36918 TIP3     4001     TIP3     H1       HT       0.417000       1.00800           0   0.00000       0.00000    
     36919 TIP3     4001     TIP3     H2       HT       0.417000       1.00800           0   0.00000     -0.301140E-02
     36920 TIP3     4002     TIP3     OH2      OT      -0.834000       15.9994           0   0.00000       0.00000    
     36921 TIP3     4002     TIP3     H1       HT       0.417000       1.00800           0   0.00000       0.00000    
     36922 TIP3     4002     TIP3     H2       HT       0.417000       1.00800           0   0.00000     -0.301140E-02
     36923 TIP3     4003     TIP3     OH2      OT      -0.834000       15.9994           0   0.00000       0.00000    
     36924 TIP3     4003     TIP3     H1       HT       0.417000       1.00800           0   0.00000       0.00000    
     36925 TIP3     4003     TIP3     H2       HT       0.417000       1.00800           0   0.00000     -0.301140E-02
     36926 TIP3     4004     TIP3     OH2      OT      -0.834000       15.9994           0   0.00000       0.00000    
     36927 TIP3     4004     TIP3     H1       HT       0.417000       1.00800           0   0.00000       0.00000    
     36928 TIP3     4004     TIP3     H2       HT       0.417000       1.00800           0   0.00000     -0.301140E-02
     36929 TIP3     4005     TIP3     OH2      OT      -0.834000       15.9994           0   0.00000       0.00000    
     36930 TIP3     4005     TIP3     H1       HT       0.417000       1.00800           0   0.00000       0.00000    
     36931 TIP3     4005     TIP3     H2       HT       0.417000       1.00800           0   0.00000     -0.301140E-02
     36932 TIP3     4006     TIP3     OH2      OT      -0.834000       15.9994           0   0.00000       0.00000    
     36933 TIP3     4006     TIP3     H1       HT       0.417000       1.00800           0   0.00000       0.00000    
     36934 TIP3     4006     TIP3     H2       HT       0.417000       1.00800           0   0.00000     -0.301140E-02
     36935 TIP3     4007     TIP3     OH2      OT      -0.834000       15.9994           0   0.00000       0.00000    
     36936 TIP3     4007     TIP3     H1       HT       0.417000       1.00800           0   0.00000       0.00000    
     36937 TIP3     4007     TIP3     H2       HT       0.417000       1.00800           0   0.00000     -0.301140E-02
     36938 TIP3     4008     TIP3     OH2      OT      -0.834000       15.9994           0   0.00000       0.00000    
     36939 TIP3     4008     TIP3     H1       HT       0.417000       1.00800           0   0.00000       0.00000    
     36940 TIP3     4008     TIP3     H2       HT       0.417000       1.00800           0   0.00000     -0.301140E-02
     36941 TIP3     4009     TIP3     OH2      OT      -0.834000       15.9994           0   0.00000       0.00000    
     36942 TIP3     4009     TIP3     H1       HT       0.417000       1.00800           0   0.00000       0.00000    
     36943 TIP3     4009     TIP3     H2       HT       0.417000       1.00800           0   0.00000     -0.301140E-02
     36944 TIP3     4010     TIP3     OH2      OT      -0.834000       15.9994           0   0.00000       0.00000    
     36945 TIP3     4010     TIP3     H1       HT       0.417000       1.00800           0   0.00000       0.00000    
     36946 TIP3     4010     TIP3     H2       HT       0.417000       1.00800           0   0.00000     -0.301140E-02
     36947 TIP3     4011     TIP3     OH2      OT      -0.834000       15.9994           0   0.00000       0.00000    
     36948 TIP3     4011     TIP3     H1       HT       0.417000       1.00800           0   0.00000       0.00000    
     36949 TIP3     4011     TIP3     H2       HT       0.417000       1.00800           0   0.00000     -0.301140E-02
     36950 TIP3     4012     TIP3     OH2      OT      -0.834000       15.9994           0   0.00000       0.00000    
     36951 TIP3     4012     TIP3     H1       HT       0.417000       1.00800           0   0.00000       0.00000    
     36952 TIP3     4012     TIP3     H2       HT       0.417000       1.00800           0   0.00000     -0.301140E-02
     36953 TIP3     4013     TIP3     OH2      OT      -0.834000       15.9994           0   0.00000       0.00000    
     36954 TIP3     4013     TIP3     H1       HT       0.417000       1.00800           0   0.00000       0.00000    
     36955 TIP3     4013     TIP3     H2       HT       0.417000       1.00800           0   0.00000     -0.301140E-02
     36956 TIP3     4014     TIP3     OH2      OT      -0.834000       15.9994           0   0.00000       0.00000    
     36957 TIP3     4014     TIP3     H1       HT       0.417000       1.00800           0   0.00000       0.00000    
     36958 TIP3     4014     TIP3     H2       HT       0.417000       1.00800           0   0.00000     -0.301140E-02
     36959 TIP3     4015     TIP3     OH2      OT      -0.834000       15.9994           0   0.00000       0.00000    
     36960 TIP3     4015     TIP3     H1       HT       0.417000       1.00800           0   0.00000       0.00000    
     36961 TIP3     4015     TIP3     H2       HT       0.417000       1.00800           0   0.00000     -0.301140E-02
     36962 TIP3     4016     TIP3     OH2      OT      -0.834000       15.9994           0   0.00000       0.00000    
     36963 TIP3     4016     TIP3     H1       HT       0.417000       1.00800           0   0.00000       0.00000    
     36964 TIP3     4016     TIP3     H2       HT       0.417000       1.00800           0   0.00000     -0.301140E-02
     36965 TIP3     4017     TIP3     OH2      OT      -0.834000       15.9994           0   0.00000       0.00000    
     36966 TIP3     4017     TIP3     H1       HT       0.417000       1.00800           0   0.00000       0.00000    
     36967 TIP3     4017     TIP3     H2       HT       0.417000       1.00800           0   0.00000     -0.301140E-02
     36968 TIP3     4018     TIP3     OH2      OT      -0.834000       15.9994           0   0.00000       0.00000    
     36969 TIP3     4018     TIP3     H1       HT       0.417000       1.00800           0   0.00000       0.00000    
     36970 TIP3     4018     TIP3     H2       HT       0.417000       1.00800           0   0.00000     -0.301140E-02
     36971 TIP3     4019     TIP3     OH2      OT      -0.834000       15.9994           0   0.00000       0.00000    
     36972 TIP3     4019     TIP3     H1       HT       0.417000       1.00800           0   0.00000       0.00000    
     36973 TIP3     4019     TIP3     H2       HT       0.417000       1.00800           0   0.00000     -0.301140E-02
     36974 TIP3     4020     TIP3     OH2      OT      -0.834000       15.9994           0   0.00000       0.00000    
     36975 TIP3     4020     TIP3     H1       HT       0.417000       1.00800           0   0.00000       0.00000    
     36976 TIP3     4020     TIP3     H2       HT       0.417000       1.00800           0   0.00000     -0.301140E-02
     36977 TIP3     4021     TIP3     OH2      OT      -0.834000       15.9994           0   0.00000       0.00000    
     36978 TIP3     4021     TIP3     H1       HT       0.417000       1.00800           0   0.00000       0.00000    
     36979 TIP3     4021     TIP3     H2       HT       0.417000       1.00800           0   0.00000     -0.301140E-02
     36980 TIP3     4022     TIP3     OH2      OT      -0.834000       15.9994           0   0.00000       0.00000    
     36981 TIP3     4022     TIP3     H1       HT       0.417000       1.00800           0   0.00000       0.00000    
     36982 TIP3     4022     TIP3     H2       HT       0.417000       1.00800           0   0.00000     -0.301140E-02
     36983 TIP3     4023     TIP3     OH2      OT      -0.834000       15.9994           0   0.00000       0.00000    
     36984 TIP3     4023     TIP3     H1       HT       0.417000       1.00800           0   0.00000       0.00000    
     36985 TIP3     4023     TIP3     H2       HT       0.417000       1.00800           0   0.00000     -0.301140E-02
     36986 TIP3     4024     TIP3     OH2      OT      -0.834000       15.9994           0   0.00000       0.00000    
     36987 TIP3     4024     TIP3     H1       HT       0.417000       1.00800           0   0.00000       0.00000    
     36988 TIP3     4024     TIP3     H2       HT       0.417000       1.00800           0   0.00000     -0.301140E-02
     36989 TIP3     4025     TIP3     OH2      OT      -0.834000       15.9994           0   0.00000       0.00000    
     36990 TIP3     4025     TIP3     H1       HT       0.417000       1.00800           0   0.00000       0.00000    
     36991 TIP3     4025     TIP3     H2       HT       0.417000       1.00800           0   0.00000     -0.301140E-02
     36992 TIP3     4026     TIP3     OH2      OT      -0.834000       15.9994           0   0.00000       0.00000    
     36993 TIP3     4026     TIP3     H1       HT       0.417000       1.00800           0   0.00000       0.00000    
     36994 TIP3     4026     TIP3     H2       HT       0.417000       1.00800           0   0.00000     -0.301140E-02
     36995 TIP3     4027     TIP3     OH2      OT      -0.834000       15.9994           0   0.00000       0.00000    
     36996 TIP3     4027     TIP3     H1       HT       0.417000       1.00800           0   0.00000       0.00000    
     36997 TIP3     4027     TIP3     H2       HT       0.417000       1.00800           0   0.00000     -0.301140E-02
     36998 TIP3     4028     TIP3     OH2      OT      -0.834000       15.9994           0   0.00000       0.00000    
     36999 TIP3     4028     TIP3     H1       HT       0.417000       1.00800           0   0.00000       0.00000    
     37000 TIP3     4028     TIP3     H2       HT       0.417000       1.00800           0   0.00000     -0.301140E-02
     37001 TIP3     4029     TIP3     OH2      OT      -0.834000       15.9994           0   0.00000       0.00000    
     37002 TIP3     4029     TIP3     H1       HT       0.417000       1.00800           0   0.00000       0.00000    
     37003 TIP3     4029     TIP3     H2       HT       0.417000       1.00800           0   0.00000     -0.301140E-02
     37004 TIP3     4030     TIP3     OH2      OT      -0.834000       15.9994           0   0.00000       0.00000    
     37005 TIP3     4030     TIP3     H1       HT       0.417000       1.00800           0   0.00000       0.00000    
     37006 TIP3     4030     TIP3     H2       HT       0.417000       1.00800           0   0.00000     -0.301140E-02
     37007 TIP3     4031     TIP3     OH2      OT      -0.834000       15.9994           0   0.00000       0.00000    
     37008 TIP3     4031     TIP3     H1       HT       0.417000       1.00800           0   0.00000       0.00000    
     37009 TIP3     4031     TIP3     H2       HT       0.417000       1.00800           0   0.00000     -0.301140E-02
     37010 TIP3     4032     TIP3     OH2      OT      -0.834000       15.9994           0   0.00000       0.00000    
     37011 TIP3     4032     TIP3     H1       HT       0.417000       1.00800           0   0.00000       0.00000    
     37012 TIP3     4032     TIP3     H2       HT       0.417000       1.00800           0   0.00000     -0.301140E-02
     37013 TIP3     4033     TIP3     OH2      OT      -0.834000       15.9994           0   0.00000       0.00000    
     37014 TIP3     4033     TIP3     H1       HT       0.417000       1.00800           0   0.00000       0.00000    
     37015 TIP3     4033     TIP3     H2       HT       0.417000       1.00800           0   0.00000     -0.301140E-02
     37016 TIP3     4034     TIP3     OH2      OT      -0.834000       15.9994           0   0.00000       0.00000    
     37017 TIP3     4034     TIP3     H1       HT       0.417000       1.00800           0   0.00000       0.00000    
     37018 TIP3     4034     TIP3     H2       HT       0.417000       1.00800           0   0.00000     -0.301140E-02
     37019 TIP3     4035     TIP3     OH2      OT      -0.834000       15.9994           0   0.00000       0.00000    
     37020 TIP3     4035     TIP3     H1       HT       0.417000       1.00800           0   0.00000       0.00000    
     37021 TIP3     4035     TIP3     H2       HT       0.417000       1.00800           0   0.00000     -0.301140E-02
     37022 TIP3     4036     TIP3     OH2      OT      -0.834000       15.9994           0   0.00000       0.00000    
     37023 TIP3     4036     TIP3     H1       HT       0.417000       1.00800           0   0.00000       0.00000    
     37024 TIP3     4036     TIP3     H2       HT       0.417000       1.00800           0   0.00000     -0.301140E-02
     37025 TIP3     4037     TIP3     OH2      OT      -0.834000       15.9994           0   0.00000       0.00000    
     37026 TIP3     4037     TIP3     H1       HT       0.417000       1.00800           0   0.00000       0.00000    
     37027 TIP3     4037     TIP3     H2       HT       0.417000       1.00800           0   0.00000     -0.301140E-02
     37028 TIP3     4038     TIP3     OH2      OT      -0.834000       15.9994           0   0.00000       0.00000    
     37029 TIP3     4038     TIP3     H1       HT       0.417000       1.00800           0   0.00000       0.00000    
     37030 TIP3     4038     TIP3     H2       HT       0.417000       1.00800           0   0.00000     -0.301140E-02
     37031 TIP3     4039     TIP3     OH2      OT      -0.834000       15.9994           0   0.00000       0.00000    
     37032 TIP3     4039     TIP3     H1       HT       0.417000       1.00800           0   0.00000       0.00000    
     37033 TIP3     4039     TIP3     H2       HT       0.417000       1.00800           0   0.00000     -0.301140E-02
     37034 TIP3     4040     TIP3     OH2      OT      -0.834000       15.9994           0   0.00000       0.00000    
     37035 TIP3     4040     TIP3     H1       HT       0.417000       1.00800           0   0.00000       0.00000    
     37036 TIP3     4040     TIP3     H2       HT       0.417000       1.00800           0   0.00000     -0.301140E-02
     37037 TIP3     4041     TIP3     OH2      OT      -0.834000       15.9994           0   0.00000       0.00000    
     37038 TIP3     4041     TIP3     H1       HT       0.417000       1.00800           0   0.00000       0.00000    
     37039 TIP3     4041     TIP3     H2       HT       0.417000       1.00800           0   0.00000     -0.301140E-02
     37040 TIP3     4042     TIP3     OH2      OT      -0.834000       15.9994           0   0.00000       0.00000    
     37041 TIP3     4042     TIP3     H1       HT       0.417000       1.00800           0   0.00000       0.00000    
     37042 TIP3     4042     TIP3     H2       HT       0.417000       1.00800           0   0.00000     -0.301140E-02
     37043 TIP3     4043     TIP3     OH2      OT      -0.834000       15.9994           0   0.00000       0.00000    
     37044 TIP3     4043     TIP3     H1       HT       0.417000       1.00800           0   0.00000       0.00000    
     37045 TIP3     4043     TIP3     H2       HT       0.417000       1.00800           0   0.00000     -0.301140E-02
     37046 TIP3     4044     TIP3     OH2      OT      -0.834000       15.9994           0   0.00000       0.00000    
     37047 TIP3     4044     TIP3     H1       HT       0.417000       1.00800           0   0.00000       0.00000    
     37048 TIP3     4044     TIP3     H2       HT       0.417000       1.00800           0   0.00000     -0.301140E-02
     37049 TIP3     4045     TIP3     OH2      OT      -0.834000       15.9994           0   0.00000       0.00000    
     37050 TIP3     4045     TIP3     H1       HT       0.417000       1.00800           0   0.00000       0.00000    
     37051 TIP3     4045     TIP3     H2       HT       0.417000       1.00800           0   0.00000     -0.301140E-02
     37052 TIP3     4046     TIP3     OH2      OT      -0.834000       15.9994           0   0.00000       0.00000    
     37053 TIP3     4046     TIP3     H1       HT       0.417000       1.00800           0   0.00000       0.00000    
     37054 TIP3     4046     TIP3     H2       HT       0.417000       1.00800           0   0.00000     -0.301140E-02
     37055 TIP3     4047     TIP3     OH2      OT      -0.834000       15.9994           0   0.00000       0.00000    
     37056 TIP3     4047     TIP3     H1       HT       0.417000       1.00800           0   0.00000       0.00000    
     37057 TIP3     4047     TIP3     H2       HT       0.417000       1.00800           0   0.00000     -0.301140E-02
     37058 TIP3     4048     TIP3     OH2      OT      -0.834000       15.9994           0   0.00000       0.00000    
     37059 TIP3     4048     TIP3     H1       HT       0.417000       1.00800           0   0.00000       0.00000    
     37060 TIP3     4048     TIP3     H2       HT       0.417000       1.00800           0   0.00000     -0.301140E-02
     37061 TIP3     4049     TIP3     OH2      OT      -0.834000       15.9994           0   0.00000       0.00000    
     37062 TIP3     4049     TIP3     H1       HT       0.417000       1.00800           0   0.00000       0.00000    
     37063 TIP3     4049     TIP3     H2       HT       0.417000       1.00800           0   0.00000     -0.301140E-02
     37064 TIP3     4050     TIP3     OH2      OT      -0.834000       15.9994           0   0.00000       0.00000    
     37065 TIP3     4050     TIP3     H1       HT       0.417000       1.00800           0   0.00000       0.00000    
     37066 TIP3     4050     TIP3     H2       HT       0.417000       1.00800           0   0.00000     -0.301140E-02
     37067 TIP3     4051     TIP3     OH2      OT      -0.834000       15.9994           0   0.00000       0.00000    
     37068 TIP3     4051     TIP3     H1       HT       0.417000       1.00800           0   0.00000       0.00000    
     37069 TIP3     4051     TIP3     H2       HT       0.417000       1.00800           0   0.00000     -0.301140E-02
     37070 TIP3     4052     TIP3     OH2      OT      -0.834000       15.9994           0   0.00000       0.00000    
     37071 TIP3     4052     TIP3     H1       HT       0.417000       1.00800           0   0.00000       0.00000    
     37072 TIP3     4052     TIP3     H2       HT       0.417000       1.00800           0   0.00000     -0.301140E-02
     37073 TIP3     4053     TIP3     OH2      OT      -0.834000       15.9994           0   0.00000       0.00000    
     37074 TIP3     4053     TIP3     H1       HT       0.417000       1.00800           0   0.00000       0.00000    
     37075 TIP3     4053     TIP3     H2       HT       0.417000       1.00800           0   0.00000     -0.301140E-02
     37076 TIP3     4054     TIP3     OH2      OT      -0.834000       15.9994           0   0.00000       0.00000    
     37077 TIP3     4054     TIP3     H1       HT       0.417000       1.00800           0   0.00000       0.00000    
     37078 TIP3     4054     TIP3     H2       HT       0.417000       1.00800           0   0.00000     -0.301140E-02
     37079 TIP3     4055     TIP3     OH2      OT      -0.834000       15.9994           0   0.00000       0.00000    
     37080 TIP3     4055     TIP3     H1       HT       0.417000       1.00800           0   0.00000       0.00000    
     37081 TIP3     4055     TIP3     H2       HT       0.417000       1.00800           0   0.00000     -0.301140E-02
     37082 TIP3     4056     TIP3     OH2      OT      -0.834000       15.9994           0   0.00000       0.00000    
     37083 TIP3     4056     TIP3     H1       HT       0.417000       1.00800           0   0.00000       0.00000    
     37084 TIP3     4056     TIP3     H2       HT       0.417000       1.00800           0   0.00000     -0.301140E-02
     37085 TIP3     4057     TIP3     OH2      OT      -0.834000       15.9994           0   0.00000       0.00000    
     37086 TIP3     4057     TIP3     H1       HT       0.417000       1.00800           0   0.00000       0.00000    
     37087 TIP3     4057     TIP3     H2       HT       0.417000       1.00800           0   0.00000     -0.301140E-02
     37088 TIP3     4058     TIP3     OH2      OT      -0.834000       15.9994           0   0.00000       0.00000    
     37089 TIP3     4058     TIP3     H1       HT       0.417000       1.00800           0   0.00000       0.00000    
     37090 TIP3     4058     TIP3     H2       HT       0.417000       1.00800           0   0.00000     -0.301140E-02
     37091 TIP3     4059     TIP3     OH2      OT      -0.834000       15.9994           0   0.00000       0.00000    
     37092 TIP3     4059     TIP3     H1       HT       0.417000       1.00800           0   0.00000       0.00000    
     37093 TIP3     4059     TIP3     H2       HT       0.417000       1.00800           0   0.00000     -0.301140E-02
     37094 TIP3     4060     TIP3     OH2      OT      -0.834000       15.9994           0   0.00000       0.00000    
     37095 TIP3     4060     TIP3     H1       HT       0.417000       1.00800           0   0.00000       0.00000    
     37096 TIP3     4060     TIP3     H2       HT       0.417000       1.00800           0   0.00000     -0.301140E-02
     37097 TIP3     4061     TIP3     OH2      OT      -0.834000       15.9994           0   0.00000       0.00000    
     37098 TIP3     4061     TIP3     H1       HT       0.417000       1.00800           0   0.00000       0.00000    
     37099 TIP3     4061     TIP3     H2       HT       0.417000       1.00800           0   0.00000     -0.301140E-02
     37100 TIP3     4062     TIP3     OH2      OT      -0.834000       15.9994           0   0.00000       0.00000    
     37101 TIP3     4062     TIP3     H1       HT       0.417000       1.00800           0   0.00000       0.00000    
     37102 TIP3     4062     TIP3     H2       HT       0.417000       1.00800           0   0.00000     -0.301140E-02
     37103 TIP3     4063     TIP3     OH2      OT      -0.834000       15.9994           0   0.00000       0.00000    
     37104 TIP3     4063     TIP3     H1       HT       0.417000       1.00800           0   0.00000       0.00000    
     37105 TIP3     4063     TIP3     H2       HT       0.417000       1.00800           0   0.00000     -0.301140E-02
     37106 TIP3     4064     TIP3     OH2      OT      -0.834000       15.9994           0   0.00000       0.00000    
     37107 TIP3     4064     TIP3     H1       HT       0.417000       1.00800           0   0.00000       0.00000    
     37108 TIP3     4064     TIP3     H2       HT       0.417000       1.00800           0   0.00000     -0.301140E-02
     37109 TIP3     4065     TIP3     OH2      OT      -0.834000       15.9994           0   0.00000       0.00000    
     37110 TIP3     4065     TIP3     H1       HT       0.417000       1.00800           0   0.00000       0.00000    
     37111 TIP3     4065     TIP3     H2       HT       0.417000       1.00800           0   0.00000     -0.301140E-02
     37112 TIP3     4066     TIP3     OH2      OT      -0.834000       15.9994           0   0.00000       0.00000    
     37113 TIP3     4066     TIP3     H1       HT       0.417000       1.00800           0   0.00000       0.00000    
     37114 TIP3     4066     TIP3     H2       HT       0.417000       1.00800           0   0.00000     -0.301140E-02
     37115 TIP3     4067     TIP3     OH2      OT      -0.834000       15.9994           0   0.00000       0.00000    
     37116 TIP3     4067     TIP3     H1       HT       0.417000       1.00800           0   0.00000       0.00000    
     37117 TIP3     4067     TIP3     H2       HT       0.417000       1.00800           0   0.00000     -0.301140E-02
     37118 TIP3     4068     TIP3     OH2      OT      -0.834000       15.9994           0   0.00000       0.00000    
     37119 TIP3     4068     TIP3     H1       HT       0.417000       1.00800           0   0.00000       0.00000    
     37120 TIP3     4068     TIP3     H2       HT       0.417000       1.00800           0   0.00000     -0.301140E-02
     37121 TIP3     4069     TIP3     OH2      OT      -0.834000       15.9994           0   0.00000       0.00000    
     37122 TIP3     4069     TIP3     H1       HT       0.417000       1.00800           0   0.00000       0.00000    
     37123 TIP3     4069     TIP3     H2       HT       0.417000       1.00800           0   0.00000     -0.301140E-02
     37124 TIP3     4070     TIP3     OH2      OT      -0.834000       15.9994           0   0.00000       0.00000    
     37125 TIP3     4070     TIP3     H1       HT       0.417000       1.00800           0   0.00000       0.00000    
     37126 TIP3     4070     TIP3     H2       HT       0.417000       1.00800           0   0.00000     -0.301140E-02
     37127 TIP3     4071     TIP3     OH2      OT      -0.834000       15.9994           0   0.00000       0.00000    
     37128 TIP3     4071     TIP3     H1       HT       0.417000       1.00800           0   0.00000       0.00000    
     37129 TIP3     4071     TIP3     H2       HT       0.417000       1.00800           0   0.00000     -0.301140E-02
     37130 TIP3     4072     TIP3     OH2      OT      -0.834000       15.9994           0   0.00000       0.00000    
     37131 TIP3     4072     TIP3     H1       HT       0.417000       1.00800           0   0.00000       0.00000    
     37132 TIP3     4072     TIP3     H2       HT       0.417000       1.00800           0   0.00000     -0.301140E-02
     37133 TIP3     4073     TIP3     OH2      OT      -0.834000       15.9994           0   0.00000       0.00000    
     37134 TIP3     4073     TIP3     H1       HT       0.417000       1.00800           0   0.00000       0.00000    
     37135 TIP3     4073     TIP3     H2       HT       0.417000       1.00800           0   0.00000     -0.301140E-02
     37136 TIP3     4074     TIP3     OH2      OT      -0.834000       15.9994           0   0.00000       0.00000    
     37137 TIP3     4074     TIP3     H1       HT       0.417000       1.00800           0   0.00000       0.00000    
     37138 TIP3     4074     TIP3     H2       HT       0.417000       1.00800           0   0.00000     -0.301140E-02
     37139 TIP3     4075     TIP3     OH2      OT      -0.834000       15.9994           0   0.00000       0.00000    
     37140 TIP3     4075     TIP3     H1       HT       0.417000       1.00800           0   0.00000       0.00000    
     37141 TIP3     4075     TIP3     H2       HT       0.417000       1.00800           0   0.00000     -0.301140E-02
     37142 TIP3     4076     TIP3     OH2      OT      -0.834000       15.9994           0   0.00000       0.00000    
     37143 TIP3     4076     TIP3     H1       HT       0.417000       1.00800           0   0.00000       0.00000    
     37144 TIP3     4076     TIP3     H2       HT       0.417000       1.00800           0   0.00000     -0.301140E-02
     37145 TIP3     4077     TIP3     OH2      OT      -0.834000       15.9994           0   0.00000       0.00000    
     37146 TIP3     4077     TIP3     H1       HT       0.417000       1.00800           0   0.00000       0.00000    
     37147 TIP3     4077     TIP3     H2       HT       0.417000       1.00800           0   0.00000     -0.301140E-02
     37148 TIP3     4078     TIP3     OH2      OT      -0.834000       15.9994           0   0.00000       0.00000    
     37149 TIP3     4078     TIP3     H1       HT       0.417000       1.00800           0   0.00000       0.00000    
     37150 TIP3     4078     TIP3     H2       HT       0.417000       1.00800           0   0.00000     -0.301140E-02
     37151 TIP3     4079     TIP3     OH2      OT      -0.834000       15.9994           0   0.00000       0.00000    
     37152 TIP3     4079     TIP3     H1       HT       0.417000       1.00800           0   0.00000       0.00000    
     37153 TIP3     4079     TIP3     H2       HT       0.417000       1.00800           0   0.00000     -0.301140E-02
     37154 TIP3     4080     TIP3     OH2      OT      -0.834000       15.9994           0   0.00000       0.00000    
     37155 TIP3     4080     TIP3     H1       HT       0.417000       1.00800           0   0.00000       0.00000    
     37156 TIP3     4080     TIP3     H2       HT       0.417000       1.00800           0   0.00000     -0.301140E-02
     37157 TIP3     4081     TIP3     OH2      OT      -0.834000       15.9994           0   0.00000       0.00000    
     37158 TIP3     4081     TIP3     H1       HT       0.417000       1.00800           0   0.00000       0.00000    
     37159 TIP3     4081     TIP3     H2       HT       0.417000       1.00800           0   0.00000     -0.301140E-02
     37160 TIP3     4082     TIP3     OH2      OT      -0.834000       15.9994           0   0.00000       0.00000    
     37161 TIP3     4082     TIP3     H1       HT       0.417000       1.00800           0   0.00000       0.00000    
     37162 TIP3     4082     TIP3     H2       HT       0.417000       1.00800           0   0.00000     -0.301140E-02
     37163 TIP3     4083     TIP3     OH2      OT      -0.834000       15.9994           0   0.00000       0.00000    
     37164 TIP3     4083     TIP3     H1       HT       0.417000       1.00800           0   0.00000       0.00000    
     37165 TIP3     4083     TIP3     H2       HT       0.417000       1.00800           0   0.00000     -0.301140E-02
     37166 TIP3     4084     TIP3     OH2      OT      -0.834000       15.9994           0   0.00000       0.00000    
     37167 TIP3     4084     TIP3     H1       HT       0.417000       1.00800           0   0.00000       0.00000    
     37168 TIP3     4084     TIP3     H2       HT       0.417000       1.00800           0   0.00000     -0.301140E-02
     37169 TIP3     4085     TIP3     OH2      OT      -0.834000       15.9994           0   0.00000       0.00000    
     37170 TIP3     4085     TIP3     H1       HT       0.417000       1.00800           0   0.00000       0.00000    
     37171 TIP3     4085     TIP3     H2       HT       0.417000       1.00800           0   0.00000     -0.301140E-02
     37172 TIP3     4086     TIP3     OH2      OT      -0.834000       15.9994           0   0.00000       0.00000    
     37173 TIP3     4086     TIP3     H1       HT       0.417000       1.00800           0   0.00000       0.00000    
     37174 TIP3     4086     TIP3     H2       HT       0.417000       1.00800           0   0.00000     -0.301140E-02
     37175 TIP3     4087     TIP3     OH2      OT      -0.834000       15.9994           0   0.00000       0.00000    
     37176 TIP3     4087     TIP3     H1       HT       0.417000       1.00800           0   0.00000       0.00000    
     37177 TIP3     4087     TIP3     H2       HT       0.417000       1.00800           0   0.00000     -0.301140E-02
     37178 TIP3     4088     TIP3     OH2      OT      -0.834000       15.9994           0   0.00000       0.00000    
     37179 TIP3     4088     TIP3     H1       HT       0.417000       1.00800           0   0.00000       0.00000    
     37180 TIP3     4088     TIP3     H2       HT       0.417000       1.00800           0   0.00000     -0.301140E-02
     37181 TIP3     4089     TIP3     OH2      OT      -0.834000       15.9994           0   0.00000       0.00000    
     37182 TIP3     4089     TIP3     H1       HT       0.417000       1.00800           0   0.00000       0.00000    
     37183 TIP3     4089     TIP3     H2       HT       0.417000       1.00800           0   0.00000     -0.301140E-02
     37184 TIP3     4090     TIP3     OH2      OT      -0.834000       15.9994           0   0.00000       0.00000    
     37185 TIP3     4090     TIP3     H1       HT       0.417000       1.00800           0   0.00000       0.00000    
     37186 TIP3     4090     TIP3     H2       HT       0.417000       1.00800           0   0.00000     -0.301140E-02
     37187 TIP3     4091     TIP3     OH2      OT      -0.834000       15.9994           0   0.00000       0.00000    
     37188 TIP3     4091     TIP3     H1       HT       0.417000       1.00800           0   0.00000       0.00000    
     37189 TIP3     4091     TIP3     H2       HT       0.417000       1.00800           0   0.00000     -0.301140E-02
     37190 TIP3     4092     TIP3     OH2      OT      -0.834000       15.9994           0   0.00000       0.00000    
     37191 TIP3     4092     TIP3     H1       HT       0.417000       1.00800           0   0.00000       0.00000    
     37192 TIP3     4092     TIP3     H2       HT       0.417000       1.00800           0   0.00000     -0.301140E-02
     37193 TIP3     4093     TIP3     OH2      OT      -0.834000       15.9994           0   0.00000       0.00000    
     37194 TIP3     4093     TIP3     H1       HT       0.417000       1.00800           0   0.00000       0.00000    
     37195 TIP3     4093     TIP3     H2       HT       0.417000       1.00800           0   0.00000     -0.301140E-02
     37196 TIP3     4094     TIP3     OH2      OT      -0.834000       15.9994           0   0.00000       0.00000    
     37197 TIP3     4094     TIP3     H1       HT       0.417000       1.00800           0   0.00000       0.00000    
     37198 TIP3     4094     TIP3     H2       HT       0.417000       1.00800           0   0.00000     -0.301140E-02
     37199 TIP3     4095     TIP3     OH2      OT      -0.834000       15.9994           0   0.00000       0.00000    
     37200 TIP3     4095     TIP3     H1       HT       0.417000       1.00800           0   0.00000       0.00000    
     37201 TIP3     4095     TIP3     H2       HT       0.417000       1.00800           0   0.00000     -0.301140E-02
     37202 TIP3     4096     TIP3     OH2      OT      -0.834000       15.9994           0   0.00000       0.00000    
     37203 TIP3     4096     TIP3     H1       HT       0.417000       1.00800           0   0.00000       0.00000    
     37204 TIP3     4096     TIP3     H2       HT       0.417000       1.00800           0   0.00000     -0.301140E-02
     37205 TIP3     4097     TIP3     OH2      OT      -0.834000       15.9994           0   0.00000       0.00000    
     37206 TIP3     4097     TIP3     H1       HT       0.417000       1.00800           0   0.00000       0.00000    
     37207 TIP3     4097     TIP3     H2       HT       0.417000       1.00800           0   0.00000     -0.301140E-02
     37208 TIP3     4098     TIP3     OH2      OT      -0.834000       15.9994           0   0.00000       0.00000    
     37209 TIP3     4098     TIP3     H1       HT       0.417000       1.00800           0   0.00000       0.00000    
     37210 TIP3     4098     TIP3     H2       HT       0.417000       1.00800           0   0.00000     -0.301140E-02
     37211 TIP3     4099     TIP3     OH2      OT      -0.834000       15.9994           0   0.00000       0.00000    
     37212 TIP3     4099     TIP3     H1       HT       0.417000       1.00800           0   0.00000       0.00000    
     37213 TIP3     4099     TIP3     H2       HT       0.417000       1.00800           0   0.00000     -0.301140E-02
     37214 TIP3     4100     TIP3     OH2      OT      -0.834000       15.9994           0   0.00000       0.00000    
     37215 TIP3     4100     TIP3     H1       HT       0.417000       1.00800           0   0.00000       0.00000    
     37216 TIP3     4100     TIP3     H2       HT       0.417000       1.00800           0   0.00000     -0.301140E-02
     37217 TIP3     4101     TIP3     OH2      OT      -0.834000       15.9994           0   0.00000       0.00000    
     37218 TIP3     4101     TIP3     H1       HT       0.417000       1.00800           0   0.00000       0.00000    
     37219 TIP3     4101     TIP3     H2       HT       0.417000       1.00800           0   0.00000     -0.301140E-02
     37220 TIP3     4102     TIP3     OH2      OT      -0.834000       15.9994           0   0.00000       0.00000    
     37221 TIP3     4102     TIP3     H1       HT       0.417000       1.00800           0   0.00000       0.00000    
     37222 TIP3     4102     TIP3     H2       HT       0.417000       1.00800           0   0.00000     -0.301140E-02
     37223 TIP3     4103     TIP3     OH2      OT      -0.834000       15.9994           0   0.00000       0.00000    
     37224 TIP3     4103     TIP3     H1       HT       0.417000       1.00800           0   0.00000       0.00000    
     37225 TIP3     4103     TIP3     H2       HT       0.417000       1.00800           0   0.00000     -0.301140E-02
     37226 TIP3     4104     TIP3     OH2      OT      -0.834000       15.9994           0   0.00000       0.00000    
     37227 TIP3     4104     TIP3     H1       HT       0.417000       1.00800           0   0.00000       0.00000    
     37228 TIP3     4104     TIP3     H2       HT       0.417000       1.00800           0   0.00000     -0.301140E-02
     37229 TIP3     4105     TIP3     OH2      OT      -0.834000       15.9994           0   0.00000       0.00000    
     37230 TIP3     4105     TIP3     H1       HT       0.417000       1.00800           0   0.00000       0.00000    
     37231 TIP3     4105     TIP3     H2       HT       0.417000       1.00800           0   0.00000     -0.301140E-02
     37232 TIP3     4106     TIP3     OH2      OT      -0.834000       15.9994           0   0.00000       0.00000    
     37233 TIP3     4106     TIP3     H1       HT       0.417000       1.00800           0   0.00000       0.00000    
     37234 TIP3     4106     TIP3     H2       HT       0.417000       1.00800           0   0.00000     -0.301140E-02
     37235 TIP3     4107     TIP3     OH2      OT      -0.834000       15.9994           0   0.00000       0.00000    
     37236 TIP3     4107     TIP3     H1       HT       0.417000       1.00800           0   0.00000       0.00000    
     37237 TIP3     4107     TIP3     H2       HT       0.417000       1.00800           0   0.00000     -0.301140E-02
     37238 TIP3     4108     TIP3     OH2      OT      -0.834000       15.9994           0   0.00000       0.00000    
     37239 TIP3     4108     TIP3     H1       HT       0.417000       1.00800           0   0.00000       0.00000    
     37240 TIP3     4108     TIP3     H2       HT       0.417000       1.00800           0   0.00000     -0.301140E-02
     37241 TIP3     4109     TIP3     OH2      OT      -0.834000       15.9994           0   0.00000       0.00000    
     37242 TIP3     4109     TIP3     H1       HT       0.417000       1.00800           0   0.00000       0.00000    
     37243 TIP3     4109     TIP3     H2       HT       0.417000       1.00800           0   0.00000     -0.301140E-02
     37244 TIP3     4110     TIP3     OH2      OT      -0.834000       15.9994           0   0.00000       0.00000    
     37245 TIP3     4110     TIP3     H1       HT       0.417000       1.00800           0   0.00000       0.00000    
     37246 TIP3     4110     TIP3     H2       HT       0.417000       1.00800           0   0.00000     -0.301140E-02
     37247 TIP3     4111     TIP3     OH2      OT      -0.834000       15.9994           0   0.00000       0.00000    
     37248 TIP3     4111     TIP3     H1       HT       0.417000       1.00800           0   0.00000       0.00000    
     37249 TIP3     4111     TIP3     H2       HT       0.417000       1.00800           0   0.00000     -0.301140E-02
     37250 TIP3     4112     TIP3     OH2      OT      -0.834000       15.9994           0   0.00000       0.00000    
     37251 TIP3     4112     TIP3     H1       HT       0.417000       1.00800           0   0.00000       0.00000    
     37252 TIP3     4112     TIP3     H2       HT       0.417000       1.00800           0   0.00000     -0.301140E-02
     37253 TIP3     4113     TIP3     OH2      OT      -0.834000       15.9994           0   0.00000       0.00000    
     37254 TIP3     4113     TIP3     H1       HT       0.417000       1.00800           0   0.00000       0.00000    
     37255 TIP3     4113     TIP3     H2       HT       0.417000       1.00800           0   0.00000     -0.301140E-02
     37256 TIP3     4114     TIP3     OH2      OT      -0.834000       15.9994           0   0.00000       0.00000    
     37257 TIP3     4114     TIP3     H1       HT       0.417000       1.00800           0   0.00000       0.00000    
     37258 TIP3     4114     TIP3     H2       HT       0.417000       1.00800           0   0.00000     -0.301140E-02
     37259 TIP3     4115     TIP3     OH2      OT      -0.834000       15.9994           0   0.00000       0.00000    
     37260 TIP3     4115     TIP3     H1       HT       0.417000       1.00800           0   0.00000       0.00000    
     37261 TIP3     4115     TIP3     H2       HT       0.417000       1.00800           0   0.00000     -0.301140E-02
     37262 TIP3     4116     TIP3     OH2      OT      -0.834000       15.9994           0   0.00000       0.00000    
     37263 TIP3     4116     TIP3     H1       HT       0.417000       1.00800           0   0.00000       0.00000    
     37264 TIP3     4116     TIP3     H2       HT       0.417000       1.00800           0   0.00000     -0.301140E-02
     37265 TIP3     4117     TIP3     OH2      OT      -0.834000       15.9994           0   0.00000       0.00000    
     37266 TIP3     4117     TIP3     H1       HT       0.417000       1.00800           0   0.00000       0.00000    
     37267 TIP3     4117     TIP3     H2       HT       0.417000       1.00800           0   0.00000     -0.301140E-02
     37268 TIP3     4118     TIP3     OH2      OT      -0.834000       15.9994           0   0.00000       0.00000    
     37269 TIP3     4118     TIP3     H1       HT       0.417000       1.00800           0   0.00000       0.00000    
     37270 TIP3     4118     TIP3     H2       HT       0.417000       1.00800           0   0.00000     -0.301140E-02
     37271 TIP3     4119     TIP3     OH2      OT      -0.834000       15.9994           0   0.00000       0.00000    
     37272 TIP3     4119     TIP3     H1       HT       0.417000       1.00800           0   0.00000       0.00000    
     37273 TIP3     4119     TIP3     H2       HT       0.417000       1.00800           0   0.00000     -0.301140E-02
     37274 TIP3     4120     TIP3     OH2      OT      -0.834000       15.9994           0   0.00000       0.00000    
     37275 TIP3     4120     TIP3     H1       HT       0.417000       1.00800           0   0.00000       0.00000    
     37276 TIP3     4120     TIP3     H2       HT       0.417000       1.00800           0   0.00000     -0.301140E-02
     37277 TIP3     4121     TIP3     OH2      OT      -0.834000       15.9994           0   0.00000       0.00000    
     37278 TIP3     4121     TIP3     H1       HT       0.417000       1.00800           0   0.00000       0.00000    
     37279 TIP3     4121     TIP3     H2       HT       0.417000       1.00800           0   0.00000     -0.301140E-02
     37280 TIP3     4122     TIP3     OH2      OT      -0.834000       15.9994           0   0.00000       0.00000    
     37281 TIP3     4122     TIP3     H1       HT       0.417000       1.00800           0   0.00000       0.00000    
     37282 TIP3     4122     TIP3     H2       HT       0.417000       1.00800           0   0.00000     -0.301140E-02
     37283 TIP3     4123     TIP3     OH2      OT      -0.834000       15.9994           0   0.00000       0.00000    
     37284 TIP3     4123     TIP3     H1       HT       0.417000       1.00800           0   0.00000       0.00000    
     37285 TIP3     4123     TIP3     H2       HT       0.417000       1.00800           0   0.00000     -0.301140E-02
     37286 TIP3     4124     TIP3     OH2      OT      -0.834000       15.9994           0   0.00000       0.00000    
     37287 TIP3     4124     TIP3     H1       HT       0.417000       1.00800           0   0.00000       0.00000    
     37288 TIP3     4124     TIP3     H2       HT       0.417000       1.00800           0   0.00000     -0.301140E-02
     37289 TIP3     4125     TIP3     OH2      OT      -0.834000       15.9994           0   0.00000       0.00000    
     37290 TIP3     4125     TIP3     H1       HT       0.417000       1.00800           0   0.00000       0.00000    
     37291 TIP3     4125     TIP3     H2       HT       0.417000       1.00800           0   0.00000     -0.301140E-02
     37292 TIP3     4126     TIP3     OH2      OT      -0.834000       15.9994           0   0.00000       0.00000    
     37293 TIP3     4126     TIP3     H1       HT       0.417000       1.00800           0   0.00000       0.00000    
     37294 TIP3     4126     TIP3     H2       HT       0.417000       1.00800           0   0.00000     -0.301140E-02
     37295 TIP3     4127     TIP3     OH2      OT      -0.834000       15.9994           0   0.00000       0.00000    
     37296 TIP3     4127     TIP3     H1       HT       0.417000       1.00800           0   0.00000       0.00000    
     37297 TIP3     4127     TIP3     H2       HT       0.417000       1.00800           0   0.00000     -0.301140E-02
     37298 TIP3     4128     TIP3     OH2      OT      -0.834000       15.9994           0   0.00000       0.00000    
     37299 TIP3     4128     TIP3     H1       HT       0.417000       1.00800           0   0.00000       0.00000    
     37300 TIP3     4128     TIP3     H2       HT       0.417000       1.00800           0   0.00000     -0.301140E-02
     37301 TIP3     4129     TIP3     OH2      OT      -0.834000       15.9994           0   0.00000       0.00000    
     37302 TIP3     4129     TIP3     H1       HT       0.417000       1.00800           0   0.00000       0.00000    
     37303 TIP3     4129     TIP3     H2       HT       0.417000       1.00800           0   0.00000     -0.301140E-02
     37304 TIP3     4130     TIP3     OH2      OT      -0.834000       15.9994           0   0.00000       0.00000    
     37305 TIP3     4130     TIP3     H1       HT       0.417000       1.00800           0   0.00000       0.00000    
     37306 TIP3     4130     TIP3     H2       HT       0.417000       1.00800           0   0.00000     -0.301140E-02
     37307 TIP3     4131     TIP3     OH2      OT      -0.834000       15.9994           0   0.00000       0.00000    
     37308 TIP3     4131     TIP3     H1       HT       0.417000       1.00800           0   0.00000       0.00000    
     37309 TIP3     4131     TIP3     H2       HT       0.417000       1.00800           0   0.00000     -0.301140E-02
     37310 TIP3     4132     TIP3     OH2      OT      -0.834000       15.9994           0   0.00000       0.00000    
     37311 TIP3     4132     TIP3     H1       HT       0.417000       1.00800           0   0.00000       0.00000    
     37312 TIP3     4132     TIP3     H2       HT       0.417000       1.00800           0   0.00000     -0.301140E-02
     37313 TIP3     4133     TIP3     OH2      OT      -0.834000       15.9994           0   0.00000       0.00000    
     37314 TIP3     4133     TIP3     H1       HT       0.417000       1.00800           0   0.00000       0.00000    
     37315 TIP3     4133     TIP3     H2       HT       0.417000       1.00800           0   0.00000     -0.301140E-02
     37316 TIP3     4134     TIP3     OH2      OT      -0.834000       15.9994           0   0.00000       0.00000    
     37317 TIP3     4134     TIP3     H1       HT       0.417000       1.00800           0   0.00000       0.00000    
     37318 TIP3     4134     TIP3     H2       HT       0.417000       1.00800           0   0.00000     -0.301140E-02
     37319 TIP3     4135     TIP3     OH2      OT      -0.834000       15.9994           0   0.00000       0.00000    
     37320 TIP3     4135     TIP3     H1       HT       0.417000       1.00800           0   0.00000       0.00000    
     37321 TIP3     4135     TIP3     H2       HT       0.417000       1.00800           0   0.00000     -0.301140E-02
     37322 TIP3     4136     TIP3     OH2      OT      -0.834000       15.9994           0   0.00000       0.00000    
     37323 TIP3     4136     TIP3     H1       HT       0.417000       1.00800           0   0.00000       0.00000    
     37324 TIP3     4136     TIP3     H2       HT       0.417000       1.00800           0   0.00000     -0.301140E-02
     37325 TIP3     4137     TIP3     OH2      OT      -0.834000       15.9994           0   0.00000       0.00000    
     37326 TIP3     4137     TIP3     H1       HT       0.417000       1.00800           0   0.00000       0.00000    
     37327 TIP3     4137     TIP3     H2       HT       0.417000       1.00800           0   0.00000     -0.301140E-02
     37328 TIP3     4138     TIP3     OH2      OT      -0.834000       15.9994           0   0.00000       0.00000    
     37329 TIP3     4138     TIP3     H1       HT       0.417000       1.00800           0   0.00000       0.00000    
     37330 TIP3     4138     TIP3     H2       HT       0.417000       1.00800           0   0.00000     -0.301140E-02
     37331 TIP3     4139     TIP3     OH2      OT      -0.834000       15.9994           0   0.00000       0.00000    
     37332 TIP3     4139     TIP3     H1       HT       0.417000       1.00800           0   0.00000       0.00000    
     37333 TIP3     4139     TIP3     H2       HT       0.417000       1.00800           0   0.00000     -0.301140E-02
     37334 TIP3     4140     TIP3     OH2      OT      -0.834000       15.9994           0   0.00000       0.00000    
     37335 TIP3     4140     TIP3     H1       HT       0.417000       1.00800           0   0.00000       0.00000    
     37336 TIP3     4140     TIP3     H2       HT       0.417000       1.00800           0   0.00000     -0.301140E-02
     37337 TIP3     4141     TIP3     OH2      OT      -0.834000       15.9994           0   0.00000       0.00000    
     37338 TIP3     4141     TIP3     H1       HT       0.417000       1.00800           0   0.00000       0.00000    
     37339 TIP3     4141     TIP3     H2       HT       0.417000       1.00800           0   0.00000     -0.301140E-02
     37340 TIP3     4142     TIP3     OH2      OT      -0.834000       15.9994           0   0.00000       0.00000    
     37341 TIP3     4142     TIP3     H1       HT       0.417000       1.00800           0   0.00000       0.00000    
     37342 TIP3     4142     TIP3     H2       HT       0.417000       1.00800           0   0.00000     -0.301140E-02
     37343 TIP3     4143     TIP3     OH2      OT      -0.834000       15.9994           0   0.00000       0.00000    
     37344 TIP3     4143     TIP3     H1       HT       0.417000       1.00800           0   0.00000       0.00000    
     37345 TIP3     4143     TIP3     H2       HT       0.417000       1.00800           0   0.00000     -0.301140E-02
     37346 TIP3     4144     TIP3     OH2      OT      -0.834000       15.9994           0   0.00000       0.00000    
     37347 TIP3     4144     TIP3     H1       HT       0.417000       1.00800           0   0.00000       0.00000    
     37348 TIP3     4144     TIP3     H2       HT       0.417000       1.00800           0   0.00000     -0.301140E-02
     37349 TIP3     4145     TIP3     OH2      OT      -0.834000       15.9994           0   0.00000       0.00000    
     37350 TIP3     4145     TIP3     H1       HT       0.417000       1.00800           0   0.00000       0.00000    
     37351 TIP3     4145     TIP3     H2       HT       0.417000       1.00800           0   0.00000     -0.301140E-02
     37352 TIP3     4146     TIP3     OH2      OT      -0.834000       15.9994           0   0.00000       0.00000    
     37353 TIP3     4146     TIP3     H1       HT       0.417000       1.00800           0   0.00000       0.00000    
     37354 TIP3     4146     TIP3     H2       HT       0.417000       1.00800           0   0.00000     -0.301140E-02
     37355 TIP3     4147     TIP3     OH2      OT      -0.834000       15.9994           0   0.00000       0.00000    
     37356 TIP3     4147     TIP3     H1       HT       0.417000       1.00800           0   0.00000       0.00000    
     37357 TIP3     4147     TIP3     H2       HT       0.417000       1.00800           0   0.00000     -0.301140E-02
     37358 TIP3     4148     TIP3     OH2      OT      -0.834000       15.9994           0   0.00000       0.00000    
     37359 TIP3     4148     TIP3     H1       HT       0.417000       1.00800           0   0.00000       0.00000    
     37360 TIP3     4148     TIP3     H2       HT       0.417000       1.00800           0   0.00000     -0.301140E-02
     37361 TIP3     4149     TIP3     OH2      OT      -0.834000       15.9994           0   0.00000       0.00000    
     37362 TIP3     4149     TIP3     H1       HT       0.417000       1.00800           0   0.00000       0.00000    
     37363 TIP3     4149     TIP3     H2       HT       0.417000       1.00800           0   0.00000     -0.301140E-02
     37364 TIP3     4150     TIP3     OH2      OT      -0.834000       15.9994           0   0.00000       0.00000    
     37365 TIP3     4150     TIP3     H1       HT       0.417000       1.00800           0   0.00000       0.00000    
     37366 TIP3     4150     TIP3     H2       HT       0.417000       1.00800           0   0.00000     -0.301140E-02
     37367 TIP3     4151     TIP3     OH2      OT      -0.834000       15.9994           0   0.00000       0.00000    
     37368 TIP3     4151     TIP3     H1       HT       0.417000       1.00800           0   0.00000       0.00000    
     37369 TIP3     4151     TIP3     H2       HT       0.417000       1.00800           0   0.00000     -0.301140E-02
     37370 TIP3     4152     TIP3     OH2      OT      -0.834000       15.9994           0   0.00000       0.00000    
     37371 TIP3     4152     TIP3     H1       HT       0.417000       1.00800           0   0.00000       0.00000    
     37372 TIP3     4152     TIP3     H2       HT       0.417000       1.00800           0   0.00000     -0.301140E-02
     37373 TIP3     4153     TIP3     OH2      OT      -0.834000       15.9994           0   0.00000       0.00000    
     37374 TIP3     4153     TIP3     H1       HT       0.417000       1.00800           0   0.00000       0.00000    
     37375 TIP3     4153     TIP3     H2       HT       0.417000       1.00800           0   0.00000     -0.301140E-02
     37376 TIP3     4154     TIP3     OH2      OT      -0.834000       15.9994           0   0.00000       0.00000    
     37377 TIP3     4154     TIP3     H1       HT       0.417000       1.00800           0   0.00000       0.00000    
     37378 TIP3     4154     TIP3     H2       HT       0.417000       1.00800           0   0.00000     -0.301140E-02
     37379 TIP3     4155     TIP3     OH2      OT      -0.834000       15.9994           0   0.00000       0.00000    
     37380 TIP3     4155     TIP3     H1       HT       0.417000       1.00800           0   0.00000       0.00000    
     37381 TIP3     4155     TIP3     H2       HT       0.417000       1.00800           0   0.00000     -0.301140E-02
     37382 TIP3     4156     TIP3     OH2      OT      -0.834000       15.9994           0   0.00000       0.00000    
     37383 TIP3     4156     TIP3     H1       HT       0.417000       1.00800           0   0.00000       0.00000    
     37384 TIP3     4156     TIP3     H2       HT       0.417000       1.00800           0   0.00000     -0.301140E-02
     37385 TIP3     4157     TIP3     OH2      OT      -0.834000       15.9994           0   0.00000       0.00000    
     37386 TIP3     4157     TIP3     H1       HT       0.417000       1.00800           0   0.00000       0.00000    
     37387 TIP3     4157     TIP3     H2       HT       0.417000       1.00800           0   0.00000     -0.301140E-02
     37388 TIP3     4158     TIP3     OH2      OT      -0.834000       15.9994           0   0.00000       0.00000    
     37389 TIP3     4158     TIP3     H1       HT       0.417000       1.00800           0   0.00000       0.00000    
     37390 TIP3     4158     TIP3     H2       HT       0.417000       1.00800           0   0.00000     -0.301140E-02
     37391 TIP3     4159     TIP3     OH2      OT      -0.834000       15.9994           0   0.00000       0.00000    
     37392 TIP3     4159     TIP3     H1       HT       0.417000       1.00800           0   0.00000       0.00000    
     37393 TIP3     4159     TIP3     H2       HT       0.417000       1.00800           0   0.00000     -0.301140E-02
     37394 TIP3     4160     TIP3     OH2      OT      -0.834000       15.9994           0   0.00000       0.00000    
     37395 TIP3     4160     TIP3     H1       HT       0.417000       1.00800           0   0.00000       0.00000    
     37396 TIP3     4160     TIP3     H2       HT       0.417000       1.00800           0   0.00000     -0.301140E-02
     37397 TIP3     4161     TIP3     OH2      OT      -0.834000       15.9994           0   0.00000       0.00000    
     37398 TIP3     4161     TIP3     H1       HT       0.417000       1.00800           0   0.00000       0.00000    
     37399 TIP3     4161     TIP3     H2       HT       0.417000       1.00800           0   0.00000     -0.301140E-02
     37400 TIP3     4162     TIP3     OH2      OT      -0.834000       15.9994           0   0.00000       0.00000    
     37401 TIP3     4162     TIP3     H1       HT       0.417000       1.00800           0   0.00000       0.00000    
     37402 TIP3     4162     TIP3     H2       HT       0.417000       1.00800           0   0.00000     -0.301140E-02
     37403 TIP3     4163     TIP3     OH2      OT      -0.834000       15.9994           0   0.00000       0.00000    
     37404 TIP3     4163     TIP3     H1       HT       0.417000       1.00800           0   0.00000       0.00000    
     37405 TIP3     4163     TIP3     H2       HT       0.417000       1.00800           0   0.00000     -0.301140E-02
     37406 TIP3     4164     TIP3     OH2      OT      -0.834000       15.9994           0   0.00000       0.00000    
     37407 TIP3     4164     TIP3     H1       HT       0.417000       1.00800           0   0.00000       0.00000    
     37408 TIP3     4164     TIP3     H2       HT       0.417000       1.00800           0   0.00000     -0.301140E-02
     37409 TIP3     4165     TIP3     OH2      OT      -0.834000       15.9994           0   0.00000       0.00000    
     37410 TIP3     4165     TIP3     H1       HT       0.417000       1.00800           0   0.00000       0.00000    
     37411 TIP3     4165     TIP3     H2       HT       0.417000       1.00800           0   0.00000     -0.301140E-02
     37412 TIP3     4166     TIP3     OH2      OT      -0.834000       15.9994           0   0.00000       0.00000    
     37413 TIP3     4166     TIP3     H1       HT       0.417000       1.00800           0   0.00000       0.00000    
     37414 TIP3     4166     TIP3     H2       HT       0.417000       1.00800           0   0.00000     -0.301140E-02
     37415 TIP3     4167     TIP3     OH2      OT      -0.834000       15.9994           0   0.00000       0.00000    
     37416 TIP3     4167     TIP3     H1       HT       0.417000       1.00800           0   0.00000       0.00000    
     37417 TIP3     4167     TIP3     H2       HT       0.417000       1.00800           0   0.00000     -0.301140E-02
     37418 TIP3     4168     TIP3     OH2      OT      -0.834000       15.9994           0   0.00000       0.00000    
     37419 TIP3     4168     TIP3     H1       HT       0.417000       1.00800           0   0.00000       0.00000    
     37420 TIP3     4168     TIP3     H2       HT       0.417000       1.00800           0   0.00000     -0.301140E-02
     37421 TIP3     4169     TIP3     OH2      OT      -0.834000       15.9994           0   0.00000       0.00000    
     37422 TIP3     4169     TIP3     H1       HT       0.417000       1.00800           0   0.00000       0.00000    
     37423 TIP3     4169     TIP3     H2       HT       0.417000       1.00800           0   0.00000     -0.301140E-02
     37424 TIP3     4170     TIP3     OH2      OT      -0.834000       15.9994           0   0.00000       0.00000    
     37425 TIP3     4170     TIP3     H1       HT       0.417000       1.00800           0   0.00000       0.00000    
     37426 TIP3     4170     TIP3     H2       HT       0.417000       1.00800           0   0.00000     -0.301140E-02
     37427 TIP3     4171     TIP3     OH2      OT      -0.834000       15.9994           0   0.00000       0.00000    
     37428 TIP3     4171     TIP3     H1       HT       0.417000       1.00800           0   0.00000       0.00000    
     37429 TIP3     4171     TIP3     H2       HT       0.417000       1.00800           0   0.00000     -0.301140E-02
     37430 TIP3     4172     TIP3     OH2      OT      -0.834000       15.9994           0   0.00000       0.00000    
     37431 TIP3     4172     TIP3     H1       HT       0.417000       1.00800           0   0.00000       0.00000    
     37432 TIP3     4172     TIP3     H2       HT       0.417000       1.00800           0   0.00000     -0.301140E-02
     37433 TIP3     4173     TIP3     OH2      OT      -0.834000       15.9994           0   0.00000       0.00000    
     37434 TIP3     4173     TIP3     H1       HT       0.417000       1.00800           0   0.00000       0.00000    
     37435 TIP3     4173     TIP3     H2       HT       0.417000       1.00800           0   0.00000     -0.301140E-02
     37436 TIP3     4174     TIP3     OH2      OT      -0.834000       15.9994           0   0.00000       0.00000    
     37437 TIP3     4174     TIP3     H1       HT       0.417000       1.00800           0   0.00000       0.00000    
     37438 TIP3     4174     TIP3     H2       HT       0.417000       1.00800           0   0.00000     -0.301140E-02
     37439 TIP3     4175     TIP3     OH2      OT      -0.834000       15.9994           0   0.00000       0.00000    
     37440 TIP3     4175     TIP3     H1       HT       0.417000       1.00800           0   0.00000       0.00000    
     37441 TIP3     4175     TIP3     H2       HT       0.417000       1.00800           0   0.00000     -0.301140E-02
     37442 TIP3     4176     TIP3     OH2      OT      -0.834000       15.9994           0   0.00000       0.00000    
     37443 TIP3     4176     TIP3     H1       HT       0.417000       1.00800           0   0.00000       0.00000    
     37444 TIP3     4176     TIP3     H2       HT       0.417000       1.00800           0   0.00000     -0.301140E-02
     37445 TIP3     4177     TIP3     OH2      OT      -0.834000       15.9994           0   0.00000       0.00000    
     37446 TIP3     4177     TIP3     H1       HT       0.417000       1.00800           0   0.00000       0.00000    
     37447 TIP3     4177     TIP3     H2       HT       0.417000       1.00800           0   0.00000     -0.301140E-02
     37448 TIP3     4178     TIP3     OH2      OT      -0.834000       15.9994           0   0.00000       0.00000    
     37449 TIP3     4178     TIP3     H1       HT       0.417000       1.00800           0   0.00000       0.00000    
     37450 TIP3     4178     TIP3     H2       HT       0.417000       1.00800           0   0.00000     -0.301140E-02
     37451 TIP3     4179     TIP3     OH2      OT      -0.834000       15.9994           0   0.00000       0.00000    
     37452 TIP3     4179     TIP3     H1       HT       0.417000       1.00800           0   0.00000       0.00000    
     37453 TIP3     4179     TIP3     H2       HT       0.417000       1.00800           0   0.00000     -0.301140E-02
     37454 TIP3     4180     TIP3     OH2      OT      -0.834000       15.9994           0   0.00000       0.00000    
     37455 TIP3     4180     TIP3     H1       HT       0.417000       1.00800           0   0.00000       0.00000    
     37456 TIP3     4180     TIP3     H2       HT       0.417000       1.00800           0   0.00000     -0.301140E-02
     37457 TIP3     4181     TIP3     OH2      OT      -0.834000       15.9994           0   0.00000       0.00000    
     37458 TIP3     4181     TIP3     H1       HT       0.417000       1.00800           0   0.00000       0.00000    
     37459 TIP3     4181     TIP3     H2       HT       0.417000       1.00800           0   0.00000     -0.301140E-02
     37460 TIP3     4182     TIP3     OH2      OT      -0.834000       15.9994           0   0.00000       0.00000    
     37461 TIP3     4182     TIP3     H1       HT       0.417000       1.00800           0   0.00000       0.00000    
     37462 TIP3     4182     TIP3     H2       HT       0.417000       1.00800           0   0.00000     -0.301140E-02
     37463 TIP3     4183     TIP3     OH2      OT      -0.834000       15.9994           0   0.00000       0.00000    
     37464 TIP3     4183     TIP3     H1       HT       0.417000       1.00800           0   0.00000       0.00000    
     37465 TIP3     4183     TIP3     H2       HT       0.417000       1.00800           0   0.00000     -0.301140E-02
     37466 TIP3     4184     TIP3     OH2      OT      -0.834000       15.9994           0   0.00000       0.00000    
     37467 TIP3     4184     TIP3     H1       HT       0.417000       1.00800           0   0.00000       0.00000    
     37468 TIP3     4184     TIP3     H2       HT       0.417000       1.00800           0   0.00000     -0.301140E-02
     37469 TIP3     4185     TIP3     OH2      OT      -0.834000       15.9994           0   0.00000       0.00000    
     37470 TIP3     4185     TIP3     H1       HT       0.417000       1.00800           0   0.00000       0.00000    
     37471 TIP3     4185     TIP3     H2       HT       0.417000       1.00800           0   0.00000     -0.301140E-02
     37472 TIP3     4186     TIP3     OH2      OT      -0.834000       15.9994           0   0.00000       0.00000    
     37473 TIP3     4186     TIP3     H1       HT       0.417000       1.00800           0   0.00000       0.00000    
     37474 TIP3     4186     TIP3     H2       HT       0.417000       1.00800           0   0.00000     -0.301140E-02
     37475 TIP3     4187     TIP3     OH2      OT      -0.834000       15.9994           0   0.00000       0.00000    
     37476 TIP3     4187     TIP3     H1       HT       0.417000       1.00800           0   0.00000       0.00000    
     37477 TIP3     4187     TIP3     H2       HT       0.417000       1.00800           0   0.00000     -0.301140E-02
     37478 TIP3     4188     TIP3     OH2      OT      -0.834000       15.9994           0   0.00000       0.00000    
     37479 TIP3     4188     TIP3     H1       HT       0.417000       1.00800           0   0.00000       0.00000    
     37480 TIP3     4188     TIP3     H2       HT       0.417000       1.00800           0   0.00000     -0.301140E-02
     37481 TIP3     4189     TIP3     OH2      OT      -0.834000       15.9994           0   0.00000       0.00000    
     37482 TIP3     4189     TIP3     H1       HT       0.417000       1.00800           0   0.00000       0.00000    
     37483 TIP3     4189     TIP3     H2       HT       0.417000       1.00800           0   0.00000     -0.301140E-02
     37484 TIP3     4190     TIP3     OH2      OT      -0.834000       15.9994           0   0.00000       0.00000    
     37485 TIP3     4190     TIP3     H1       HT       0.417000       1.00800           0   0.00000       0.00000    
     37486 TIP3     4190     TIP3     H2       HT       0.417000       1.00800           0   0.00000     -0.301140E-02
     37487 TIP3     4191     TIP3     OH2      OT      -0.834000       15.9994           0   0.00000       0.00000    
     37488 TIP3     4191     TIP3     H1       HT       0.417000       1.00800           0   0.00000       0.00000    
     37489 TIP3     4191     TIP3     H2       HT       0.417000       1.00800           0   0.00000     -0.301140E-02
     37490 TIP3     4192     TIP3     OH2      OT      -0.834000       15.9994           0   0.00000       0.00000    
     37491 TIP3     4192     TIP3     H1       HT       0.417000       1.00800           0   0.00000       0.00000    
     37492 TIP3     4192     TIP3     H2       HT       0.417000       1.00800           0   0.00000     -0.301140E-02
     37493 TIP3     4193     TIP3     OH2      OT      -0.834000       15.9994           0   0.00000       0.00000    
     37494 TIP3     4193     TIP3     H1       HT       0.417000       1.00800           0   0.00000       0.00000    
     37495 TIP3     4193     TIP3     H2       HT       0.417000       1.00800           0   0.00000     -0.301140E-02
     37496 TIP3     4194     TIP3     OH2      OT      -0.834000       15.9994           0   0.00000       0.00000    
     37497 TIP3     4194     TIP3     H1       HT       0.417000       1.00800           0   0.00000       0.00000    
     37498 TIP3     4194     TIP3     H2       HT       0.417000       1.00800           0   0.00000     -0.301140E-02
     37499 TIP3     4195     TIP3     OH2      OT      -0.834000       15.9994           0   0.00000       0.00000    
     37500 TIP3     4195     TIP3     H1       HT       0.417000       1.00800           0   0.00000       0.00000    
     37501 TIP3     4195     TIP3     H2       HT       0.417000       1.00800           0   0.00000     -0.301140E-02
     37502 TIP3     4196     TIP3     OH2      OT      -0.834000       15.9994           0   0.00000       0.00000    
     37503 TIP3     4196     TIP3     H1       HT       0.417000       1.00800           0   0.00000       0.00000    
     37504 TIP3     4196     TIP3     H2       HT       0.417000       1.00800           0   0.00000     -0.301140E-02
     37505 TIP3     4197     TIP3     OH2      OT      -0.834000       15.9994           0   0.00000       0.00000    
     37506 TIP3     4197     TIP3     H1       HT       0.417000       1.00800           0   0.00000       0.00000    
     37507 TIP3     4197     TIP3     H2       HT       0.417000       1.00800           0   0.00000     -0.301140E-02
     37508 TIP3     4198     TIP3     OH2      OT      -0.834000       15.9994           0   0.00000       0.00000    
     37509 TIP3     4198     TIP3     H1       HT       0.417000       1.00800           0   0.00000       0.00000    
     37510 TIP3     4198     TIP3     H2       HT       0.417000       1.00800           0   0.00000     -0.301140E-02
     37511 TIP3     4199     TIP3     OH2      OT      -0.834000       15.9994           0   0.00000       0.00000    
     37512 TIP3     4199     TIP3     H1       HT       0.417000       1.00800           0   0.00000       0.00000    
     37513 TIP3     4199     TIP3     H2       HT       0.417000       1.00800           0   0.00000     -0.301140E-02
     37514 TIP3     4200     TIP3     OH2      OT      -0.834000       15.9994           0   0.00000       0.00000    
     37515 TIP3     4200     TIP3     H1       HT       0.417000       1.00800           0   0.00000       0.00000    
     37516 TIP3     4200     TIP3     H2       HT       0.417000       1.00800           0   0.00000     -0.301140E-02
     37517 TIP3     4201     TIP3     OH2      OT      -0.834000       15.9994           0   0.00000       0.00000    
     37518 TIP3     4201     TIP3     H1       HT       0.417000       1.00800           0   0.00000       0.00000    
     37519 TIP3     4201     TIP3     H2       HT       0.417000       1.00800           0   0.00000     -0.301140E-02
     37520 TIP3     4202     TIP3     OH2      OT      -0.834000       15.9994           0   0.00000       0.00000    
     37521 TIP3     4202     TIP3     H1       HT       0.417000       1.00800           0   0.00000       0.00000    
     37522 TIP3     4202     TIP3     H2       HT       0.417000       1.00800           0   0.00000     -0.301140E-02
     37523 TIP3     4203     TIP3     OH2      OT      -0.834000       15.9994           0   0.00000       0.00000    
     37524 TIP3     4203     TIP3     H1       HT       0.417000       1.00800           0   0.00000       0.00000    
     37525 TIP3     4203     TIP3     H2       HT       0.417000       1.00800           0   0.00000     -0.301140E-02
     37526 TIP3     4204     TIP3     OH2      OT      -0.834000       15.9994           0   0.00000       0.00000    
     37527 TIP3     4204     TIP3     H1       HT       0.417000       1.00800           0   0.00000       0.00000    
     37528 TIP3     4204     TIP3     H2       HT       0.417000       1.00800           0   0.00000     -0.301140E-02
     37529 TIP3     4205     TIP3     OH2      OT      -0.834000       15.9994           0   0.00000       0.00000    
     37530 TIP3     4205     TIP3     H1       HT       0.417000       1.00800           0   0.00000       0.00000    
     37531 TIP3     4205     TIP3     H2       HT       0.417000       1.00800           0   0.00000     -0.301140E-02
     37532 TIP3     4206     TIP3     OH2      OT      -0.834000       15.9994           0   0.00000       0.00000    
     37533 TIP3     4206     TIP3     H1       HT       0.417000       1.00800           0   0.00000       0.00000    
     37534 TIP3     4206     TIP3     H2       HT       0.417000       1.00800           0   0.00000     -0.301140E-02
     37535 TIP3     4207     TIP3     OH2      OT      -0.834000       15.9994           0   0.00000       0.00000    
     37536 TIP3     4207     TIP3     H1       HT       0.417000       1.00800           0   0.00000       0.00000    
     37537 TIP3     4207     TIP3     H2       HT       0.417000       1.00800           0   0.00000     -0.301140E-02
     37538 TIP3     4208     TIP3     OH2      OT      -0.834000       15.9994           0   0.00000       0.00000    
     37539 TIP3     4208     TIP3     H1       HT       0.417000       1.00800           0   0.00000       0.00000    
     37540 TIP3     4208     TIP3     H2       HT       0.417000       1.00800           0   0.00000     -0.301140E-02
     37541 TIP3     4209     TIP3     OH2      OT      -0.834000       15.9994           0   0.00000       0.00000    
     37542 TIP3     4209     TIP3     H1       HT       0.417000       1.00800           0   0.00000       0.00000    
     37543 TIP3     4209     TIP3     H2       HT       0.417000       1.00800           0   0.00000     -0.301140E-02
     37544 TIP3     4210     TIP3     OH2      OT      -0.834000       15.9994           0   0.00000       0.00000    
     37545 TIP3     4210     TIP3     H1       HT       0.417000       1.00800           0   0.00000       0.00000    
     37546 TIP3     4210     TIP3     H2       HT       0.417000       1.00800           0   0.00000     -0.301140E-02
     37547 TIP3     4211     TIP3     OH2      OT      -0.834000       15.9994           0   0.00000       0.00000    
     37548 TIP3     4211     TIP3     H1       HT       0.417000       1.00800           0   0.00000       0.00000    
     37549 TIP3     4211     TIP3     H2       HT       0.417000       1.00800           0   0.00000     -0.301140E-02
     37550 TIP3     4212     TIP3     OH2      OT      -0.834000       15.9994           0   0.00000       0.00000    
     37551 TIP3     4212     TIP3     H1       HT       0.417000       1.00800           0   0.00000       0.00000    
     37552 TIP3     4212     TIP3     H2       HT       0.417000       1.00800           0   0.00000     -0.301140E-02
     37553 TIP3     4213     TIP3     OH2      OT      -0.834000       15.9994           0   0.00000       0.00000    
     37554 TIP3     4213     TIP3     H1       HT       0.417000       1.00800           0   0.00000       0.00000    
     37555 TIP3     4213     TIP3     H2       HT       0.417000       1.00800           0   0.00000     -0.301140E-02
     37556 TIP3     4214     TIP3     OH2      OT      -0.834000       15.9994           0   0.00000       0.00000    
     37557 TIP3     4214     TIP3     H1       HT       0.417000       1.00800           0   0.00000       0.00000    
     37558 TIP3     4214     TIP3     H2       HT       0.417000       1.00800           0   0.00000     -0.301140E-02
     37559 TIP3     4215     TIP3     OH2      OT      -0.834000       15.9994           0   0.00000       0.00000    
     37560 TIP3     4215     TIP3     H1       HT       0.417000       1.00800           0   0.00000       0.00000    
     37561 TIP3     4215     TIP3     H2       HT       0.417000       1.00800           0   0.00000     -0.301140E-02
     37562 TIP3     4216     TIP3     OH2      OT      -0.834000       15.9994           0   0.00000       0.00000    
     37563 TIP3     4216     TIP3     H1       HT       0.417000       1.00800           0   0.00000       0.00000    
     37564 TIP3     4216     TIP3     H2       HT       0.417000       1.00800           0   0.00000     -0.301140E-02
     37565 TIP3     4217     TIP3     OH2      OT      -0.834000       15.9994           0   0.00000       0.00000    
     37566 TIP3     4217     TIP3     H1       HT       0.417000       1.00800           0   0.00000       0.00000    
     37567 TIP3     4217     TIP3     H2       HT       0.417000       1.00800           0   0.00000     -0.301140E-02
     37568 TIP3     4218     TIP3     OH2      OT      -0.834000       15.9994           0   0.00000       0.00000    
     37569 TIP3     4218     TIP3     H1       HT       0.417000       1.00800           0   0.00000       0.00000    
     37570 TIP3     4218     TIP3     H2       HT       0.417000       1.00800           0   0.00000     -0.301140E-02
     37571 TIP3     4219     TIP3     OH2      OT      -0.834000       15.9994           0   0.00000       0.00000    
     37572 TIP3     4219     TIP3     H1       HT       0.417000       1.00800           0   0.00000       0.00000    
     37573 TIP3     4219     TIP3     H2       HT       0.417000       1.00800           0   0.00000     -0.301140E-02
     37574 TIP3     4220     TIP3     OH2      OT      -0.834000       15.9994           0   0.00000       0.00000    
     37575 TIP3     4220     TIP3     H1       HT       0.417000       1.00800           0   0.00000       0.00000    
     37576 TIP3     4220     TIP3     H2       HT       0.417000       1.00800           0   0.00000     -0.301140E-02
     37577 TIP3     4221     TIP3     OH2      OT      -0.834000       15.9994           0   0.00000       0.00000    
     37578 TIP3     4221     TIP3     H1       HT       0.417000       1.00800           0   0.00000       0.00000    
     37579 TIP3     4221     TIP3     H2       HT       0.417000       1.00800           0   0.00000     -0.301140E-02
     37580 TIP3     4222     TIP3     OH2      OT      -0.834000       15.9994           0   0.00000       0.00000    
     37581 TIP3     4222     TIP3     H1       HT       0.417000       1.00800           0   0.00000       0.00000    
     37582 TIP3     4222     TIP3     H2       HT       0.417000       1.00800           0   0.00000     -0.301140E-02
     37583 TIP3     4223     TIP3     OH2      OT      -0.834000       15.9994           0   0.00000       0.00000    
     37584 TIP3     4223     TIP3     H1       HT       0.417000       1.00800           0   0.00000       0.00000    
     37585 TIP3     4223     TIP3     H2       HT       0.417000       1.00800           0   0.00000     -0.301140E-02
     37586 TIP3     4224     TIP3     OH2      OT      -0.834000       15.9994           0   0.00000       0.00000    
     37587 TIP3     4224     TIP3     H1       HT       0.417000       1.00800           0   0.00000       0.00000    
     37588 TIP3     4224     TIP3     H2       HT       0.417000       1.00800           0   0.00000     -0.301140E-02
     37589 TIP3     4225     TIP3     OH2      OT      -0.834000       15.9994           0   0.00000       0.00000    
     37590 TIP3     4225     TIP3     H1       HT       0.417000       1.00800           0   0.00000       0.00000    
     37591 TIP3     4225     TIP3     H2       HT       0.417000       1.00800           0   0.00000     -0.301140E-02
     37592 TIP3     4226     TIP3     OH2      OT      -0.834000       15.9994           0   0.00000       0.00000    
     37593 TIP3     4226     TIP3     H1       HT       0.417000       1.00800           0   0.00000       0.00000    
     37594 TIP3     4226     TIP3     H2       HT       0.417000       1.00800           0   0.00000     -0.301140E-02
     37595 TIP3     4227     TIP3     OH2      OT      -0.834000       15.9994           0   0.00000       0.00000    
     37596 TIP3     4227     TIP3     H1       HT       0.417000       1.00800           0   0.00000       0.00000    
     37597 TIP3     4227     TIP3     H2       HT       0.417000       1.00800           0   0.00000     -0.301140E-02
     37598 TIP3     4228     TIP3     OH2      OT      -0.834000       15.9994           0   0.00000       0.00000    
     37599 TIP3     4228     TIP3     H1       HT       0.417000       1.00800           0   0.00000       0.00000    
     37600 TIP3     4228     TIP3     H2       HT       0.417000       1.00800           0   0.00000     -0.301140E-02
     37601 TIP3     4229     TIP3     OH2      OT      -0.834000       15.9994           0   0.00000       0.00000    
     37602 TIP3     4229     TIP3     H1       HT       0.417000       1.00800           0   0.00000       0.00000    
     37603 TIP3     4229     TIP3     H2       HT       0.417000       1.00800           0   0.00000     -0.301140E-02
     37604 TIP3     4230     TIP3     OH2      OT      -0.834000       15.9994           0   0.00000       0.00000    
     37605 TIP3     4230     TIP3     H1       HT       0.417000       1.00800           0   0.00000       0.00000    
     37606 TIP3     4230     TIP3     H2       HT       0.417000       1.00800           0   0.00000     -0.301140E-02
     37607 TIP3     4231     TIP3     OH2      OT      -0.834000       15.9994           0   0.00000       0.00000    
     37608 TIP3     4231     TIP3     H1       HT       0.417000       1.00800           0   0.00000       0.00000    
     37609 TIP3     4231     TIP3     H2       HT       0.417000       1.00800           0   0.00000     -0.301140E-02
     37610 TIP3     4232     TIP3     OH2      OT      -0.834000       15.9994           0   0.00000       0.00000    
     37611 TIP3     4232     TIP3     H1       HT       0.417000       1.00800           0   0.00000       0.00000    
     37612 TIP3     4232     TIP3     H2       HT       0.417000       1.00800           0   0.00000     -0.301140E-02
     37613 TIP3     4233     TIP3     OH2      OT      -0.834000       15.9994           0   0.00000       0.00000    
     37614 TIP3     4233     TIP3     H1       HT       0.417000       1.00800           0   0.00000       0.00000    
     37615 TIP3     4233     TIP3     H2       HT       0.417000       1.00800           0   0.00000     -0.301140E-02
     37616 TIP3     4234     TIP3     OH2      OT      -0.834000       15.9994           0   0.00000       0.00000    
     37617 TIP3     4234     TIP3     H1       HT       0.417000       1.00800           0   0.00000       0.00000    
     37618 TIP3     4234     TIP3     H2       HT       0.417000       1.00800           0   0.00000     -0.301140E-02
     37619 TIP3     4235     TIP3     OH2      OT      -0.834000       15.9994           0   0.00000       0.00000    
     37620 TIP3     4235     TIP3     H1       HT       0.417000       1.00800           0   0.00000       0.00000    
     37621 TIP3     4235     TIP3     H2       HT       0.417000       1.00800           0   0.00000     -0.301140E-02
     37622 TIP3     4236     TIP3     OH2      OT      -0.834000       15.9994           0   0.00000       0.00000    
     37623 TIP3     4236     TIP3     H1       HT       0.417000       1.00800           0   0.00000       0.00000    
     37624 TIP3     4236     TIP3     H2       HT       0.417000       1.00800           0   0.00000     -0.301140E-02
     37625 TIP3     4237     TIP3     OH2      OT      -0.834000       15.9994           0   0.00000       0.00000    
     37626 TIP3     4237     TIP3     H1       HT       0.417000       1.00800           0   0.00000       0.00000    
     37627 TIP3     4237     TIP3     H2       HT       0.417000       1.00800           0   0.00000     -0.301140E-02
     37628 TIP3     4238     TIP3     OH2      OT      -0.834000       15.9994           0   0.00000       0.00000    
     37629 TIP3     4238     TIP3     H1       HT       0.417000       1.00800           0   0.00000       0.00000    
     37630 TIP3     4238     TIP3     H2       HT       0.417000       1.00800           0   0.00000     -0.301140E-02
     37631 TIP3     4239     TIP3     OH2      OT      -0.834000       15.9994           0   0.00000       0.00000    
     37632 TIP3     4239     TIP3     H1       HT       0.417000       1.00800           0   0.00000       0.00000    
     37633 TIP3     4239     TIP3     H2       HT       0.417000       1.00800           0   0.00000     -0.301140E-02
     37634 TIP3     4240     TIP3     OH2      OT      -0.834000       15.9994           0   0.00000       0.00000    
     37635 TIP3     4240     TIP3     H1       HT       0.417000       1.00800           0   0.00000       0.00000    
     37636 TIP3     4240     TIP3     H2       HT       0.417000       1.00800           0   0.00000     -0.301140E-02
     37637 TIP3     4241     TIP3     OH2      OT      -0.834000       15.9994           0   0.00000       0.00000    
     37638 TIP3     4241     TIP3     H1       HT       0.417000       1.00800           0   0.00000       0.00000    
     37639 TIP3     4241     TIP3     H2       HT       0.417000       1.00800           0   0.00000     -0.301140E-02
     37640 TIP3     4242     TIP3     OH2      OT      -0.834000       15.9994           0   0.00000       0.00000    
     37641 TIP3     4242     TIP3     H1       HT       0.417000       1.00800           0   0.00000       0.00000    
     37642 TIP3     4242     TIP3     H2       HT       0.417000       1.00800           0   0.00000     -0.301140E-02
     37643 TIP3     4243     TIP3     OH2      OT      -0.834000       15.9994           0   0.00000       0.00000    
     37644 TIP3     4243     TIP3     H1       HT       0.417000       1.00800           0   0.00000       0.00000    
     37645 TIP3     4243     TIP3     H2       HT       0.417000       1.00800           0   0.00000     -0.301140E-02
     37646 TIP3     4244     TIP3     OH2      OT      -0.834000       15.9994           0   0.00000       0.00000    
     37647 TIP3     4244     TIP3     H1       HT       0.417000       1.00800           0   0.00000       0.00000    
     37648 TIP3     4244     TIP3     H2       HT       0.417000       1.00800           0   0.00000     -0.301140E-02
     37649 TIP3     4245     TIP3     OH2      OT      -0.834000       15.9994           0   0.00000       0.00000    
     37650 TIP3     4245     TIP3     H1       HT       0.417000       1.00800           0   0.00000       0.00000    
     37651 TIP3     4245     TIP3     H2       HT       0.417000       1.00800           0   0.00000     -0.301140E-02
     37652 TIP3     4246     TIP3     OH2      OT      -0.834000       15.9994           0   0.00000       0.00000    
     37653 TIP3     4246     TIP3     H1       HT       0.417000       1.00800           0   0.00000       0.00000    
     37654 TIP3     4246     TIP3     H2       HT       0.417000       1.00800           0   0.00000     -0.301140E-02
     37655 TIP3     4247     TIP3     OH2      OT      -0.834000       15.9994           0   0.00000       0.00000    
     37656 TIP3     4247     TIP3     H1       HT       0.417000       1.00800           0   0.00000       0.00000    
     37657 TIP3     4247     TIP3     H2       HT       0.417000       1.00800           0   0.00000     -0.301140E-02
     37658 TIP3     4248     TIP3     OH2      OT      -0.834000       15.9994           0   0.00000       0.00000    
     37659 TIP3     4248     TIP3     H1       HT       0.417000       1.00800           0   0.00000       0.00000    
     37660 TIP3     4248     TIP3     H2       HT       0.417000       1.00800           0   0.00000     -0.301140E-02
     37661 TIP3     4249     TIP3     OH2      OT      -0.834000       15.9994           0   0.00000       0.00000    
     37662 TIP3     4249     TIP3     H1       HT       0.417000       1.00800           0   0.00000       0.00000    
     37663 TIP3     4249     TIP3     H2       HT       0.417000       1.00800           0   0.00000     -0.301140E-02
     37664 TIP3     4250     TIP3     OH2      OT      -0.834000       15.9994           0   0.00000       0.00000    
     37665 TIP3     4250     TIP3     H1       HT       0.417000       1.00800           0   0.00000       0.00000    
     37666 TIP3     4250     TIP3     H2       HT       0.417000       1.00800           0   0.00000     -0.301140E-02
     37667 TIP3     4251     TIP3     OH2      OT      -0.834000       15.9994           0   0.00000       0.00000    
     37668 TIP3     4251     TIP3     H1       HT       0.417000       1.00800           0   0.00000       0.00000    
     37669 TIP3     4251     TIP3     H2       HT       0.417000       1.00800           0   0.00000     -0.301140E-02
     37670 TIP3     4252     TIP3     OH2      OT      -0.834000       15.9994           0   0.00000       0.00000    
     37671 TIP3     4252     TIP3     H1       HT       0.417000       1.00800           0   0.00000       0.00000    
     37672 TIP3     4252     TIP3     H2       HT       0.417000       1.00800           0   0.00000     -0.301140E-02
     37673 TIP3     4253     TIP3     OH2      OT      -0.834000       15.9994           0   0.00000       0.00000    
     37674 TIP3     4253     TIP3     H1       HT       0.417000       1.00800           0   0.00000       0.00000    
     37675 TIP3     4253     TIP3     H2       HT       0.417000       1.00800           0   0.00000     -0.301140E-02
     37676 TIP3     4254     TIP3     OH2      OT      -0.834000       15.9994           0   0.00000       0.00000    
     37677 TIP3     4254     TIP3     H1       HT       0.417000       1.00800           0   0.00000       0.00000    
     37678 TIP3     4254     TIP3     H2       HT       0.417000       1.00800           0   0.00000     -0.301140E-02
     37679 TIP3     4255     TIP3     OH2      OT      -0.834000       15.9994           0   0.00000       0.00000    
     37680 TIP3     4255     TIP3     H1       HT       0.417000       1.00800           0   0.00000       0.00000    
     37681 TIP3     4255     TIP3     H2       HT       0.417000       1.00800           0   0.00000     -0.301140E-02
     37682 TIP3     4256     TIP3     OH2      OT      -0.834000       15.9994           0   0.00000       0.00000    
     37683 TIP3     4256     TIP3     H1       HT       0.417000       1.00800           0   0.00000       0.00000    
     37684 TIP3     4256     TIP3     H2       HT       0.417000       1.00800           0   0.00000     -0.301140E-02
     37685 TIP3     4257     TIP3     OH2      OT      -0.834000       15.9994           0   0.00000       0.00000    
     37686 TIP3     4257     TIP3     H1       HT       0.417000       1.00800           0   0.00000       0.00000    
     37687 TIP3     4257     TIP3     H2       HT       0.417000       1.00800           0   0.00000     -0.301140E-02
     37688 TIP3     4258     TIP3     OH2      OT      -0.834000       15.9994           0   0.00000       0.00000    
     37689 TIP3     4258     TIP3     H1       HT       0.417000       1.00800           0   0.00000       0.00000    
     37690 TIP3     4258     TIP3     H2       HT       0.417000       1.00800           0   0.00000     -0.301140E-02
     37691 TIP3     4259     TIP3     OH2      OT      -0.834000       15.9994           0   0.00000       0.00000    
     37692 TIP3     4259     TIP3     H1       HT       0.417000       1.00800           0   0.00000       0.00000    
     37693 TIP3     4259     TIP3     H2       HT       0.417000       1.00800           0   0.00000     -0.301140E-02
     37694 TIP3     4260     TIP3     OH2      OT      -0.834000       15.9994           0   0.00000       0.00000    
     37695 TIP3     4260     TIP3     H1       HT       0.417000       1.00800           0   0.00000       0.00000    
     37696 TIP3     4260     TIP3     H2       HT       0.417000       1.00800           0   0.00000     -0.301140E-02
     37697 TIP3     4261     TIP3     OH2      OT      -0.834000       15.9994           0   0.00000       0.00000    
     37698 TIP3     4261     TIP3     H1       HT       0.417000       1.00800           0   0.00000       0.00000    
     37699 TIP3     4261     TIP3     H2       HT       0.417000       1.00800           0   0.00000     -0.301140E-02
     37700 TIP3     4262     TIP3     OH2      OT      -0.834000       15.9994           0   0.00000       0.00000    
     37701 TIP3     4262     TIP3     H1       HT       0.417000       1.00800           0   0.00000       0.00000    
     37702 TIP3     4262     TIP3     H2       HT       0.417000       1.00800           0   0.00000     -0.301140E-02
     37703 TIP3     4263     TIP3     OH2      OT      -0.834000       15.9994           0   0.00000       0.00000    
     37704 TIP3     4263     TIP3     H1       HT       0.417000       1.00800           0   0.00000       0.00000    
     37705 TIP3     4263     TIP3     H2       HT       0.417000       1.00800           0   0.00000     -0.301140E-02
     37706 TIP3     4264     TIP3     OH2      OT      -0.834000       15.9994           0   0.00000       0.00000    
     37707 TIP3     4264     TIP3     H1       HT       0.417000       1.00800           0   0.00000       0.00000    
     37708 TIP3     4264     TIP3     H2       HT       0.417000       1.00800           0   0.00000     -0.301140E-02
     37709 TIP3     4265     TIP3     OH2      OT      -0.834000       15.9994           0   0.00000       0.00000    
     37710 TIP3     4265     TIP3     H1       HT       0.417000       1.00800           0   0.00000       0.00000    
     37711 TIP3     4265     TIP3     H2       HT       0.417000       1.00800           0   0.00000     -0.301140E-02
     37712 TIP3     4266     TIP3     OH2      OT      -0.834000       15.9994           0   0.00000       0.00000    
     37713 TIP3     4266     TIP3     H1       HT       0.417000       1.00800           0   0.00000       0.00000    
     37714 TIP3     4266     TIP3     H2       HT       0.417000       1.00800           0   0.00000     -0.301140E-02
     37715 TIP3     4267     TIP3     OH2      OT      -0.834000       15.9994           0   0.00000       0.00000    
     37716 TIP3     4267     TIP3     H1       HT       0.417000       1.00800           0   0.00000       0.00000    
     37717 TIP3     4267     TIP3     H2       HT       0.417000       1.00800           0   0.00000     -0.301140E-02
     37718 TIP3     4268     TIP3     OH2      OT      -0.834000       15.9994           0   0.00000       0.00000    
     37719 TIP3     4268     TIP3     H1       HT       0.417000       1.00800           0   0.00000       0.00000    
     37720 TIP3     4268     TIP3     H2       HT       0.417000       1.00800           0   0.00000     -0.301140E-02
     37721 TIP3     4269     TIP3     OH2      OT      -0.834000       15.9994           0   0.00000       0.00000    
     37722 TIP3     4269     TIP3     H1       HT       0.417000       1.00800           0   0.00000       0.00000    
     37723 TIP3     4269     TIP3     H2       HT       0.417000       1.00800           0   0.00000     -0.301140E-02
     37724 TIP3     4270     TIP3     OH2      OT      -0.834000       15.9994           0   0.00000       0.00000    
     37725 TIP3     4270     TIP3     H1       HT       0.417000       1.00800           0   0.00000       0.00000    
     37726 TIP3     4270     TIP3     H2       HT       0.417000       1.00800           0   0.00000     -0.301140E-02
     37727 TIP3     4271     TIP3     OH2      OT      -0.834000       15.9994           0   0.00000       0.00000    
     37728 TIP3     4271     TIP3     H1       HT       0.417000       1.00800           0   0.00000       0.00000    
     37729 TIP3     4271     TIP3     H2       HT       0.417000       1.00800           0   0.00000     -0.301140E-02
     37730 TIP3     4272     TIP3     OH2      OT      -0.834000       15.9994           0   0.00000       0.00000    
     37731 TIP3     4272     TIP3     H1       HT       0.417000       1.00800           0   0.00000       0.00000    
     37732 TIP3     4272     TIP3     H2       HT       0.417000       1.00800           0   0.00000     -0.301140E-02
     37733 TIP3     4273     TIP3     OH2      OT      -0.834000       15.9994           0   0.00000       0.00000    
     37734 TIP3     4273     TIP3     H1       HT       0.417000       1.00800           0   0.00000       0.00000    
     37735 TIP3     4273     TIP3     H2       HT       0.417000       1.00800           0   0.00000     -0.301140E-02
     37736 TIP3     4274     TIP3     OH2      OT      -0.834000       15.9994           0   0.00000       0.00000    
     37737 TIP3     4274     TIP3     H1       HT       0.417000       1.00800           0   0.00000       0.00000    
     37738 TIP3     4274     TIP3     H2       HT       0.417000       1.00800           0   0.00000     -0.301140E-02
     37739 TIP3     4275     TIP3     OH2      OT      -0.834000       15.9994           0   0.00000       0.00000    
     37740 TIP3     4275     TIP3     H1       HT       0.417000       1.00800           0   0.00000       0.00000    
     37741 TIP3     4275     TIP3     H2       HT       0.417000       1.00800           0   0.00000     -0.301140E-02
     37742 TIP3     4276     TIP3     OH2      OT      -0.834000       15.9994           0   0.00000       0.00000    
     37743 TIP3     4276     TIP3     H1       HT       0.417000       1.00800           0   0.00000       0.00000    
     37744 TIP3     4276     TIP3     H2       HT       0.417000       1.00800           0   0.00000     -0.301140E-02
     37745 TIP3     4277     TIP3     OH2      OT      -0.834000       15.9994           0   0.00000       0.00000    
     37746 TIP3     4277     TIP3     H1       HT       0.417000       1.00800           0   0.00000       0.00000    
     37747 TIP3     4277     TIP3     H2       HT       0.417000       1.00800           0   0.00000     -0.301140E-02
     37748 TIP3     4278     TIP3     OH2      OT      -0.834000       15.9994           0   0.00000       0.00000    
     37749 TIP3     4278     TIP3     H1       HT       0.417000       1.00800           0   0.00000       0.00000    
     37750 TIP3     4278     TIP3     H2       HT       0.417000       1.00800           0   0.00000     -0.301140E-02
     37751 TIP3     4279     TIP3     OH2      OT      -0.834000       15.9994           0   0.00000       0.00000    
     37752 TIP3     4279     TIP3     H1       HT       0.417000       1.00800           0   0.00000       0.00000    
     37753 TIP3     4279     TIP3     H2       HT       0.417000       1.00800           0   0.00000     -0.301140E-02
     37754 TIP3     4280     TIP3     OH2      OT      -0.834000       15.9994           0   0.00000       0.00000    
     37755 TIP3     4280     TIP3     H1       HT       0.417000       1.00800           0   0.00000       0.00000    
     37756 TIP3     4280     TIP3     H2       HT       0.417000       1.00800           0   0.00000     -0.301140E-02
     37757 TIP3     4281     TIP3     OH2      OT      -0.834000       15.9994           0   0.00000       0.00000    
     37758 TIP3     4281     TIP3     H1       HT       0.417000       1.00800           0   0.00000       0.00000    
     37759 TIP3     4281     TIP3     H2       HT       0.417000       1.00800           0   0.00000     -0.301140E-02
     37760 TIP3     4282     TIP3     OH2      OT      -0.834000       15.9994           0   0.00000       0.00000    
     37761 TIP3     4282     TIP3     H1       HT       0.417000       1.00800           0   0.00000       0.00000    
     37762 TIP3     4282     TIP3     H2       HT       0.417000       1.00800           0   0.00000     -0.301140E-02
     37763 TIP3     4283     TIP3     OH2      OT      -0.834000       15.9994           0   0.00000       0.00000    
     37764 TIP3     4283     TIP3     H1       HT       0.417000       1.00800           0   0.00000       0.00000    
     37765 TIP3     4283     TIP3     H2       HT       0.417000       1.00800           0   0.00000     -0.301140E-02
     37766 TIP3     4284     TIP3     OH2      OT      -0.834000       15.9994           0   0.00000       0.00000    
     37767 TIP3     4284     TIP3     H1       HT       0.417000       1.00800           0   0.00000       0.00000    
     37768 TIP3     4284     TIP3     H2       HT       0.417000       1.00800           0   0.00000     -0.301140E-02
     37769 TIP3     4285     TIP3     OH2      OT      -0.834000       15.9994           0   0.00000       0.00000    
     37770 TIP3     4285     TIP3     H1       HT       0.417000       1.00800           0   0.00000       0.00000    
     37771 TIP3     4285     TIP3     H2       HT       0.417000       1.00800           0   0.00000     -0.301140E-02
     37772 TIP3     4286     TIP3     OH2      OT      -0.834000       15.9994           0   0.00000       0.00000    
     37773 TIP3     4286     TIP3     H1       HT       0.417000       1.00800           0   0.00000       0.00000    
     37774 TIP3     4286     TIP3     H2       HT       0.417000       1.00800           0   0.00000     -0.301140E-02
     37775 TIP3     4287     TIP3     OH2      OT      -0.834000       15.9994           0   0.00000       0.00000    
     37776 TIP3     4287     TIP3     H1       HT       0.417000       1.00800           0   0.00000       0.00000    
     37777 TIP3     4287     TIP3     H2       HT       0.417000       1.00800           0   0.00000     -0.301140E-02
     37778 TIP3     4288     TIP3     OH2      OT      -0.834000       15.9994           0   0.00000       0.00000    
     37779 TIP3     4288     TIP3     H1       HT       0.417000       1.00800           0   0.00000       0.00000    
     37780 TIP3     4288     TIP3     H2       HT       0.417000       1.00800           0   0.00000     -0.301140E-02
     37781 TIP3     4289     TIP3     OH2      OT      -0.834000       15.9994           0   0.00000       0.00000    
     37782 TIP3     4289     TIP3     H1       HT       0.417000       1.00800           0   0.00000       0.00000    
     37783 TIP3     4289     TIP3     H2       HT       0.417000       1.00800           0   0.00000     -0.301140E-02
     37784 TIP3     4290     TIP3     OH2      OT      -0.834000       15.9994           0   0.00000       0.00000    
     37785 TIP3     4290     TIP3     H1       HT       0.417000       1.00800           0   0.00000       0.00000    
     37786 TIP3     4290     TIP3     H2       HT       0.417000       1.00800           0   0.00000     -0.301140E-02
     37787 TIP3     4291     TIP3     OH2      OT      -0.834000       15.9994           0   0.00000       0.00000    
     37788 TIP3     4291     TIP3     H1       HT       0.417000       1.00800           0   0.00000       0.00000    
     37789 TIP3     4291     TIP3     H2       HT       0.417000       1.00800           0   0.00000     -0.301140E-02
     37790 TIP3     4292     TIP3     OH2      OT      -0.834000       15.9994           0   0.00000       0.00000    
     37791 TIP3     4292     TIP3     H1       HT       0.417000       1.00800           0   0.00000       0.00000    
     37792 TIP3     4292     TIP3     H2       HT       0.417000       1.00800           0   0.00000     -0.301140E-02
     37793 TIP3     4293     TIP3     OH2      OT      -0.834000       15.9994           0   0.00000       0.00000    
     37794 TIP3     4293     TIP3     H1       HT       0.417000       1.00800           0   0.00000       0.00000    
     37795 TIP3     4293     TIP3     H2       HT       0.417000       1.00800           0   0.00000     -0.301140E-02
     37796 TIP3     4294     TIP3     OH2      OT      -0.834000       15.9994           0   0.00000       0.00000    
     37797 TIP3     4294     TIP3     H1       HT       0.417000       1.00800           0   0.00000       0.00000    
     37798 TIP3     4294     TIP3     H2       HT       0.417000       1.00800           0   0.00000     -0.301140E-02
     37799 TIP3     4295     TIP3     OH2      OT      -0.834000       15.9994           0   0.00000       0.00000    
     37800 TIP3     4295     TIP3     H1       HT       0.417000       1.00800           0   0.00000       0.00000    
     37801 TIP3     4295     TIP3     H2       HT       0.417000       1.00800           0   0.00000     -0.301140E-02
     37802 TIP3     4296     TIP3     OH2      OT      -0.834000       15.9994           0   0.00000       0.00000    
     37803 TIP3     4296     TIP3     H1       HT       0.417000       1.00800           0   0.00000       0.00000    
     37804 TIP3     4296     TIP3     H2       HT       0.417000       1.00800           0   0.00000     -0.301140E-02
     37805 TIP3     4297     TIP3     OH2      OT      -0.834000       15.9994           0   0.00000       0.00000    
     37806 TIP3     4297     TIP3     H1       HT       0.417000       1.00800           0   0.00000       0.00000    
     37807 TIP3     4297     TIP3     H2       HT       0.417000       1.00800           0   0.00000     -0.301140E-02
     37808 TIP3     4298     TIP3     OH2      OT      -0.834000       15.9994           0   0.00000       0.00000    
     37809 TIP3     4298     TIP3     H1       HT       0.417000       1.00800           0   0.00000       0.00000    
     37810 TIP3     4298     TIP3     H2       HT       0.417000       1.00800           0   0.00000     -0.301140E-02
     37811 TIP3     4299     TIP3     OH2      OT      -0.834000       15.9994           0   0.00000       0.00000    
     37812 TIP3     4299     TIP3     H1       HT       0.417000       1.00800           0   0.00000       0.00000    
     37813 TIP3     4299     TIP3     H2       HT       0.417000       1.00800           0   0.00000     -0.301140E-02
     37814 TIP3     4300     TIP3     OH2      OT      -0.834000       15.9994           0   0.00000       0.00000    
     37815 TIP3     4300     TIP3     H1       HT       0.417000       1.00800           0   0.00000       0.00000    
     37816 TIP3     4300     TIP3     H2       HT       0.417000       1.00800           0   0.00000     -0.301140E-02
     37817 TIP3     4301     TIP3     OH2      OT      -0.834000       15.9994           0   0.00000       0.00000    
     37818 TIP3     4301     TIP3     H1       HT       0.417000       1.00800           0   0.00000       0.00000    
     37819 TIP3     4301     TIP3     H2       HT       0.417000       1.00800           0   0.00000     -0.301140E-02
     37820 TIP3     4302     TIP3     OH2      OT      -0.834000       15.9994           0   0.00000       0.00000    
     37821 TIP3     4302     TIP3     H1       HT       0.417000       1.00800           0   0.00000       0.00000    
     37822 TIP3     4302     TIP3     H2       HT       0.417000       1.00800           0   0.00000     -0.301140E-02
     37823 TIP3     4303     TIP3     OH2      OT      -0.834000       15.9994           0   0.00000       0.00000    
     37824 TIP3     4303     TIP3     H1       HT       0.417000       1.00800           0   0.00000       0.00000    
     37825 TIP3     4303     TIP3     H2       HT       0.417000       1.00800           0   0.00000     -0.301140E-02
     37826 TIP3     4304     TIP3     OH2      OT      -0.834000       15.9994           0   0.00000       0.00000    
     37827 TIP3     4304     TIP3     H1       HT       0.417000       1.00800           0   0.00000       0.00000    
     37828 TIP3     4304     TIP3     H2       HT       0.417000       1.00800           0   0.00000     -0.301140E-02
     37829 TIP3     4305     TIP3     OH2      OT      -0.834000       15.9994           0   0.00000       0.00000    
     37830 TIP3     4305     TIP3     H1       HT       0.417000       1.00800           0   0.00000       0.00000    
     37831 TIP3     4305     TIP3     H2       HT       0.417000       1.00800           0   0.00000     -0.301140E-02
     37832 TIP3     4306     TIP3     OH2      OT      -0.834000       15.9994           0   0.00000       0.00000    
     37833 TIP3     4306     TIP3     H1       HT       0.417000       1.00800           0   0.00000       0.00000    
     37834 TIP3     4306     TIP3     H2       HT       0.417000       1.00800           0   0.00000     -0.301140E-02
     37835 TIP3     4307     TIP3     OH2      OT      -0.834000       15.9994           0   0.00000       0.00000    
     37836 TIP3     4307     TIP3     H1       HT       0.417000       1.00800           0   0.00000       0.00000    
     37837 TIP3     4307     TIP3     H2       HT       0.417000       1.00800           0   0.00000     -0.301140E-02
     37838 TIP3     4308     TIP3     OH2      OT      -0.834000       15.9994           0   0.00000       0.00000    
     37839 TIP3     4308     TIP3     H1       HT       0.417000       1.00800           0   0.00000       0.00000    
     37840 TIP3     4308     TIP3     H2       HT       0.417000       1.00800           0   0.00000     -0.301140E-02
     37841 TIP3     4309     TIP3     OH2      OT      -0.834000       15.9994           0   0.00000       0.00000    
     37842 TIP3     4309     TIP3     H1       HT       0.417000       1.00800           0   0.00000       0.00000    
     37843 TIP3     4309     TIP3     H2       HT       0.417000       1.00800           0   0.00000     -0.301140E-02
     37844 TIP3     4310     TIP3     OH2      OT      -0.834000       15.9994           0   0.00000       0.00000    
     37845 TIP3     4310     TIP3     H1       HT       0.417000       1.00800           0   0.00000       0.00000    
     37846 TIP3     4310     TIP3     H2       HT       0.417000       1.00800           0   0.00000     -0.301140E-02
     37847 TIP3     4311     TIP3     OH2      OT      -0.834000       15.9994           0   0.00000       0.00000    
     37848 TIP3     4311     TIP3     H1       HT       0.417000       1.00800           0   0.00000       0.00000    
     37849 TIP3     4311     TIP3     H2       HT       0.417000       1.00800           0   0.00000     -0.301140E-02
     37850 TIP3     4312     TIP3     OH2      OT      -0.834000       15.9994           0   0.00000       0.00000    
     37851 TIP3     4312     TIP3     H1       HT       0.417000       1.00800           0   0.00000       0.00000    
     37852 TIP3     4312     TIP3     H2       HT       0.417000       1.00800           0   0.00000     -0.301140E-02
     37853 TIP3     4313     TIP3     OH2      OT      -0.834000       15.9994           0   0.00000       0.00000    
     37854 TIP3     4313     TIP3     H1       HT       0.417000       1.00800           0   0.00000       0.00000    
     37855 TIP3     4313     TIP3     H2       HT       0.417000       1.00800           0   0.00000     -0.301140E-02
     37856 TIP3     4314     TIP3     OH2      OT      -0.834000       15.9994           0   0.00000       0.00000    
     37857 TIP3     4314     TIP3     H1       HT       0.417000       1.00800           0   0.00000       0.00000    
     37858 TIP3     4314     TIP3     H2       HT       0.417000       1.00800           0   0.00000     -0.301140E-02
     37859 TIP3     4315     TIP3     OH2      OT      -0.834000       15.9994           0   0.00000       0.00000    
     37860 TIP3     4315     TIP3     H1       HT       0.417000       1.00800           0   0.00000       0.00000    
     37861 TIP3     4315     TIP3     H2       HT       0.417000       1.00800           0   0.00000     -0.301140E-02
     37862 TIP3     4316     TIP3     OH2      OT      -0.834000       15.9994           0   0.00000       0.00000    
     37863 TIP3     4316     TIP3     H1       HT       0.417000       1.00800           0   0.00000       0.00000    
     37864 TIP3     4316     TIP3     H2       HT       0.417000       1.00800           0   0.00000     -0.301140E-02
     37865 TIP3     4317     TIP3     OH2      OT      -0.834000       15.9994           0   0.00000       0.00000    
     37866 TIP3     4317     TIP3     H1       HT       0.417000       1.00800           0   0.00000       0.00000    
     37867 TIP3     4317     TIP3     H2       HT       0.417000       1.00800           0   0.00000     -0.301140E-02
     37868 TIP3     4318     TIP3     OH2      OT      -0.834000       15.9994           0   0.00000       0.00000    
     37869 TIP3     4318     TIP3     H1       HT       0.417000       1.00800           0   0.00000       0.00000    
     37870 TIP3     4318     TIP3     H2       HT       0.417000       1.00800           0   0.00000     -0.301140E-02
     37871 TIP3     4319     TIP3     OH2      OT      -0.834000       15.9994           0   0.00000       0.00000    
     37872 TIP3     4319     TIP3     H1       HT       0.417000       1.00800           0   0.00000       0.00000    
     37873 TIP3     4319     TIP3     H2       HT       0.417000       1.00800           0   0.00000     -0.301140E-02
     37874 TIP3     4320     TIP3     OH2      OT      -0.834000       15.9994           0   0.00000       0.00000    
     37875 TIP3     4320     TIP3     H1       HT       0.417000       1.00800           0   0.00000       0.00000    
     37876 TIP3     4320     TIP3     H2       HT       0.417000       1.00800           0   0.00000     -0.301140E-02
     37877 TIP3     4321     TIP3     OH2      OT      -0.834000       15.9994           0   0.00000       0.00000    
     37878 TIP3     4321     TIP3     H1       HT       0.417000       1.00800           0   0.00000       0.00000    
     37879 TIP3     4321     TIP3     H2       HT       0.417000       1.00800           0   0.00000     -0.301140E-02
     37880 TIP3     4322     TIP3     OH2      OT      -0.834000       15.9994           0   0.00000       0.00000    
     37881 TIP3     4322     TIP3     H1       HT       0.417000       1.00800           0   0.00000       0.00000    
     37882 TIP3     4322     TIP3     H2       HT       0.417000       1.00800           0   0.00000     -0.301140E-02
     37883 TIP3     4323     TIP3     OH2      OT      -0.834000       15.9994           0   0.00000       0.00000    
     37884 TIP3     4323     TIP3     H1       HT       0.417000       1.00800           0   0.00000       0.00000    
     37885 TIP3     4323     TIP3     H2       HT       0.417000       1.00800           0   0.00000     -0.301140E-02
     37886 TIP3     4324     TIP3     OH2      OT      -0.834000       15.9994           0   0.00000       0.00000    
     37887 TIP3     4324     TIP3     H1       HT       0.417000       1.00800           0   0.00000       0.00000    
     37888 TIP3     4324     TIP3     H2       HT       0.417000       1.00800           0   0.00000     -0.301140E-02
     37889 TIP3     4325     TIP3     OH2      OT      -0.834000       15.9994           0   0.00000       0.00000    
     37890 TIP3     4325     TIP3     H1       HT       0.417000       1.00800           0   0.00000       0.00000    
     37891 TIP3     4325     TIP3     H2       HT       0.417000       1.00800           0   0.00000     -0.301140E-02
     37892 TIP3     4326     TIP3     OH2      OT      -0.834000       15.9994           0   0.00000       0.00000    
     37893 TIP3     4326     TIP3     H1       HT       0.417000       1.00800           0   0.00000       0.00000    
     37894 TIP3     4326     TIP3     H2       HT       0.417000       1.00800           0   0.00000     -0.301140E-02
     37895 TIP3     4327     TIP3     OH2      OT      -0.834000       15.9994           0   0.00000       0.00000    
     37896 TIP3     4327     TIP3     H1       HT       0.417000       1.00800           0   0.00000       0.00000    
     37897 TIP3     4327     TIP3     H2       HT       0.417000       1.00800           0   0.00000     -0.301140E-02
     37898 TIP3     4328     TIP3     OH2      OT      -0.834000       15.9994           0   0.00000       0.00000    
     37899 TIP3     4328     TIP3     H1       HT       0.417000       1.00800           0   0.00000       0.00000    
     37900 TIP3     4328     TIP3     H2       HT       0.417000       1.00800           0   0.00000     -0.301140E-02
     37901 TIP3     4329     TIP3     OH2      OT      -0.834000       15.9994           0   0.00000       0.00000    
     37902 TIP3     4329     TIP3     H1       HT       0.417000       1.00800           0   0.00000       0.00000    
     37903 TIP3     4329     TIP3     H2       HT       0.417000       1.00800           0   0.00000     -0.301140E-02
     37904 TIP3     4330     TIP3     OH2      OT      -0.834000       15.9994           0   0.00000       0.00000    
     37905 TIP3     4330     TIP3     H1       HT       0.417000       1.00800           0   0.00000       0.00000    
     37906 TIP3     4330     TIP3     H2       HT       0.417000       1.00800           0   0.00000     -0.301140E-02
     37907 TIP3     4331     TIP3     OH2      OT      -0.834000       15.9994           0   0.00000       0.00000    
     37908 TIP3     4331     TIP3     H1       HT       0.417000       1.00800           0   0.00000       0.00000    
     37909 TIP3     4331     TIP3     H2       HT       0.417000       1.00800           0   0.00000     -0.301140E-02
     37910 TIP3     4332     TIP3     OH2      OT      -0.834000       15.9994           0   0.00000       0.00000    
     37911 TIP3     4332     TIP3     H1       HT       0.417000       1.00800           0   0.00000       0.00000    
     37912 TIP3     4332     TIP3     H2       HT       0.417000       1.00800           0   0.00000     -0.301140E-02
     37913 TIP3     4333     TIP3     OH2      OT      -0.834000       15.9994           0   0.00000       0.00000    
     37914 TIP3     4333     TIP3     H1       HT       0.417000       1.00800           0   0.00000       0.00000    
     37915 TIP3     4333     TIP3     H2       HT       0.417000       1.00800           0   0.00000     -0.301140E-02
     37916 TIP3     4334     TIP3     OH2      OT      -0.834000       15.9994           0   0.00000       0.00000    
     37917 TIP3     4334     TIP3     H1       HT       0.417000       1.00800           0   0.00000       0.00000    
     37918 TIP3     4334     TIP3     H2       HT       0.417000       1.00800           0   0.00000     -0.301140E-02
     37919 TIP3     4335     TIP3     OH2      OT      -0.834000       15.9994           0   0.00000       0.00000    
     37920 TIP3     4335     TIP3     H1       HT       0.417000       1.00800           0   0.00000       0.00000    
     37921 TIP3     4335     TIP3     H2       HT       0.417000       1.00800           0   0.00000     -0.301140E-02
     37922 TIP3     4336     TIP3     OH2      OT      -0.834000       15.9994           0   0.00000       0.00000    
     37923 TIP3     4336     TIP3     H1       HT       0.417000       1.00800           0   0.00000       0.00000    
     37924 TIP3     4336     TIP3     H2       HT       0.417000       1.00800           0   0.00000     -0.301140E-02
     37925 TIP3     4337     TIP3     OH2      OT      -0.834000       15.9994           0   0.00000       0.00000    
     37926 TIP3     4337     TIP3     H1       HT       0.417000       1.00800           0   0.00000       0.00000    
     37927 TIP3     4337     TIP3     H2       HT       0.417000       1.00800           0   0.00000     -0.301140E-02
     37928 TIP3     4338     TIP3     OH2      OT      -0.834000       15.9994           0   0.00000       0.00000    
     37929 TIP3     4338     TIP3     H1       HT       0.417000       1.00800           0   0.00000       0.00000    
     37930 TIP3     4338     TIP3     H2       HT       0.417000       1.00800           0   0.00000     -0.301140E-02
     37931 TIP3     4339     TIP3     OH2      OT      -0.834000       15.9994           0   0.00000       0.00000    
     37932 TIP3     4339     TIP3     H1       HT       0.417000       1.00800           0   0.00000       0.00000    
     37933 TIP3     4339     TIP3     H2       HT       0.417000       1.00800           0   0.00000     -0.301140E-02
     37934 TIP3     4340     TIP3     OH2      OT      -0.834000       15.9994           0   0.00000       0.00000    
     37935 TIP3     4340     TIP3     H1       HT       0.417000       1.00800           0   0.00000       0.00000    
     37936 TIP3     4340     TIP3     H2       HT       0.417000       1.00800           0   0.00000     -0.301140E-02
     37937 TIP3     4341     TIP3     OH2      OT      -0.834000       15.9994           0   0.00000       0.00000    
     37938 TIP3     4341     TIP3     H1       HT       0.417000       1.00800           0   0.00000       0.00000    
     37939 TIP3     4341     TIP3     H2       HT       0.417000       1.00800           0   0.00000     -0.301140E-02
     37940 TIP3     4342     TIP3     OH2      OT      -0.834000       15.9994           0   0.00000       0.00000    
     37941 TIP3     4342     TIP3     H1       HT       0.417000       1.00800           0   0.00000       0.00000    
     37942 TIP3     4342     TIP3     H2       HT       0.417000       1.00800           0   0.00000     -0.301140E-02
     37943 TIP3     4343     TIP3     OH2      OT      -0.834000       15.9994           0   0.00000       0.00000    
     37944 TIP3     4343     TIP3     H1       HT       0.417000       1.00800           0   0.00000       0.00000    
     37945 TIP3     4343     TIP3     H2       HT       0.417000       1.00800           0   0.00000     -0.301140E-02
     37946 TIP3     4344     TIP3     OH2      OT      -0.834000       15.9994           0   0.00000       0.00000    
     37947 TIP3     4344     TIP3     H1       HT       0.417000       1.00800           0   0.00000       0.00000    
     37948 TIP3     4344     TIP3     H2       HT       0.417000       1.00800           0   0.00000     -0.301140E-02
     37949 TIP3     4345     TIP3     OH2      OT      -0.834000       15.9994           0   0.00000       0.00000    
     37950 TIP3     4345     TIP3     H1       HT       0.417000       1.00800           0   0.00000       0.00000    
     37951 TIP3     4345     TIP3     H2       HT       0.417000       1.00800           0   0.00000     -0.301140E-02
     37952 TIP3     4346     TIP3     OH2      OT      -0.834000       15.9994           0   0.00000       0.00000    
     37953 TIP3     4346     TIP3     H1       HT       0.417000       1.00800           0   0.00000       0.00000    
     37954 TIP3     4346     TIP3     H2       HT       0.417000       1.00800           0   0.00000     -0.301140E-02
     37955 TIP3     4347     TIP3     OH2      OT      -0.834000       15.9994           0   0.00000       0.00000    
     37956 TIP3     4347     TIP3     H1       HT       0.417000       1.00800           0   0.00000       0.00000    
     37957 TIP3     4347     TIP3     H2       HT       0.417000       1.00800           0   0.00000     -0.301140E-02
     37958 TIP3     4348     TIP3     OH2      OT      -0.834000       15.9994           0   0.00000       0.00000    
     37959 TIP3     4348     TIP3     H1       HT       0.417000       1.00800           0   0.00000       0.00000    
     37960 TIP3     4348     TIP3     H2       HT       0.417000       1.00800           0   0.00000     -0.301140E-02
     37961 TIP3     4349     TIP3     OH2      OT      -0.834000       15.9994           0   0.00000       0.00000    
     37962 TIP3     4349     TIP3     H1       HT       0.417000       1.00800           0   0.00000       0.00000    
     37963 TIP3     4349     TIP3     H2       HT       0.417000       1.00800           0   0.00000     -0.301140E-02
     37964 TIP3     4350     TIP3     OH2      OT      -0.834000       15.9994           0   0.00000       0.00000    
     37965 TIP3     4350     TIP3     H1       HT       0.417000       1.00800           0   0.00000       0.00000    
     37966 TIP3     4350     TIP3     H2       HT       0.417000       1.00800           0   0.00000     -0.301140E-02
     37967 TIP3     4351     TIP3     OH2      OT      -0.834000       15.9994           0   0.00000       0.00000    
     37968 TIP3     4351     TIP3     H1       HT       0.417000       1.00800           0   0.00000       0.00000    
     37969 TIP3     4351     TIP3     H2       HT       0.417000       1.00800           0   0.00000     -0.301140E-02
     37970 TIP3     4352     TIP3     OH2      OT      -0.834000       15.9994           0   0.00000       0.00000    
     37971 TIP3     4352     TIP3     H1       HT       0.417000       1.00800           0   0.00000       0.00000    
     37972 TIP3     4352     TIP3     H2       HT       0.417000       1.00800           0   0.00000     -0.301140E-02
     37973 TIP3     4353     TIP3     OH2      OT      -0.834000       15.9994           0   0.00000       0.00000    
     37974 TIP3     4353     TIP3     H1       HT       0.417000       1.00800           0   0.00000       0.00000    
     37975 TIP3     4353     TIP3     H2       HT       0.417000       1.00800           0   0.00000     -0.301140E-02
     37976 TIP3     4354     TIP3     OH2      OT      -0.834000       15.9994           0   0.00000       0.00000    
     37977 TIP3     4354     TIP3     H1       HT       0.417000       1.00800           0   0.00000       0.00000    
     37978 TIP3     4354     TIP3     H2       HT       0.417000       1.00800           0   0.00000     -0.301140E-02
     37979 TIP3     4355     TIP3     OH2      OT      -0.834000       15.9994           0   0.00000       0.00000    
     37980 TIP3     4355     TIP3     H1       HT       0.417000       1.00800           0   0.00000       0.00000    
     37981 TIP3     4355     TIP3     H2       HT       0.417000       1.00800           0   0.00000     -0.301140E-02
     37982 TIP3     4356     TIP3     OH2      OT      -0.834000       15.9994           0   0.00000       0.00000    
     37983 TIP3     4356     TIP3     H1       HT       0.417000       1.00800           0   0.00000       0.00000    
     37984 TIP3     4356     TIP3     H2       HT       0.417000       1.00800           0   0.00000     -0.301140E-02
     37985 TIP3     4357     TIP3     OH2      OT      -0.834000       15.9994           0   0.00000       0.00000    
     37986 TIP3     4357     TIP3     H1       HT       0.417000       1.00800           0   0.00000       0.00000    
     37987 TIP3     4357     TIP3     H2       HT       0.417000       1.00800           0   0.00000     -0.301140E-02
     37988 TIP3     4358     TIP3     OH2      OT      -0.834000       15.9994           0   0.00000       0.00000    
     37989 TIP3     4358     TIP3     H1       HT       0.417000       1.00800           0   0.00000       0.00000    
     37990 TIP3     4358     TIP3     H2       HT       0.417000       1.00800           0   0.00000     -0.301140E-02
     37991 TIP3     4359     TIP3     OH2      OT      -0.834000       15.9994           0   0.00000       0.00000    
     37992 TIP3     4359     TIP3     H1       HT       0.417000       1.00800           0   0.00000       0.00000    
     37993 TIP3     4359     TIP3     H2       HT       0.417000       1.00800           0   0.00000     -0.301140E-02
     37994 TIP3     4360     TIP3     OH2      OT      -0.834000       15.9994           0   0.00000       0.00000    
     37995 TIP3     4360     TIP3     H1       HT       0.417000       1.00800           0   0.00000       0.00000    
     37996 TIP3     4360     TIP3     H2       HT       0.417000       1.00800           0   0.00000     -0.301140E-02
     37997 TIP3     4361     TIP3     OH2      OT      -0.834000       15.9994           0   0.00000       0.00000    
     37998 TIP3     4361     TIP3     H1       HT       0.417000       1.00800           0   0.00000       0.00000    
     37999 TIP3     4361     TIP3     H2       HT       0.417000       1.00800           0   0.00000     -0.301140E-02
     38000 TIP3     4362     TIP3     OH2      OT      -0.834000       15.9994           0   0.00000       0.00000    
     38001 TIP3     4362     TIP3     H1       HT       0.417000       1.00800           0   0.00000       0.00000    
     38002 TIP3     4362     TIP3     H2       HT       0.417000       1.00800           0   0.00000     -0.301140E-02
     38003 TIP3     4363     TIP3     OH2      OT      -0.834000       15.9994           0   0.00000       0.00000    
     38004 TIP3     4363     TIP3     H1       HT       0.417000       1.00800           0   0.00000       0.00000    
     38005 TIP3     4363     TIP3     H2       HT       0.417000       1.00800           0   0.00000     -0.301140E-02
     38006 TIP3     4364     TIP3     OH2      OT      -0.834000       15.9994           0   0.00000       0.00000    
     38007 TIP3     4364     TIP3     H1       HT       0.417000       1.00800           0   0.00000       0.00000    
     38008 TIP3     4364     TIP3     H2       HT       0.417000       1.00800           0   0.00000     -0.301140E-02
     38009 TIP3     4365     TIP3     OH2      OT      -0.834000       15.9994           0   0.00000       0.00000    
     38010 TIP3     4365     TIP3     H1       HT       0.417000       1.00800           0   0.00000       0.00000    
     38011 TIP3     4365     TIP3     H2       HT       0.417000       1.00800           0   0.00000     -0.301140E-02
     38012 TIP3     4366     TIP3     OH2      OT      -0.834000       15.9994           0   0.00000       0.00000    
     38013 TIP3     4366     TIP3     H1       HT       0.417000       1.00800           0   0.00000       0.00000    
     38014 TIP3     4366     TIP3     H2       HT       0.417000       1.00800           0   0.00000     -0.301140E-02
     38015 TIP3     4367     TIP3     OH2      OT      -0.834000       15.9994           0   0.00000       0.00000    
     38016 TIP3     4367     TIP3     H1       HT       0.417000       1.00800           0   0.00000       0.00000    
     38017 TIP3     4367     TIP3     H2       HT       0.417000       1.00800           0   0.00000     -0.301140E-02
     38018 TIP3     4368     TIP3     OH2      OT      -0.834000       15.9994           0   0.00000       0.00000    
     38019 TIP3     4368     TIP3     H1       HT       0.417000       1.00800           0   0.00000       0.00000    
     38020 TIP3     4368     TIP3     H2       HT       0.417000       1.00800           0   0.00000     -0.301140E-02
     38021 TIP3     4369     TIP3     OH2      OT      -0.834000       15.9994           0   0.00000       0.00000    
     38022 TIP3     4369     TIP3     H1       HT       0.417000       1.00800           0   0.00000       0.00000    
     38023 TIP3     4369     TIP3     H2       HT       0.417000       1.00800           0   0.00000     -0.301140E-02
     38024 TIP3     4370     TIP3     OH2      OT      -0.834000       15.9994           0   0.00000       0.00000    
     38025 TIP3     4370     TIP3     H1       HT       0.417000       1.00800           0   0.00000       0.00000    
     38026 TIP3     4370     TIP3     H2       HT       0.417000       1.00800           0   0.00000     -0.301140E-02
     38027 TIP3     4371     TIP3     OH2      OT      -0.834000       15.9994           0   0.00000       0.00000    
     38028 TIP3     4371     TIP3     H1       HT       0.417000       1.00800           0   0.00000       0.00000    
     38029 TIP3     4371     TIP3     H2       HT       0.417000       1.00800           0   0.00000     -0.301140E-02
     38030 TIP3     4372     TIP3     OH2      OT      -0.834000       15.9994           0   0.00000       0.00000    
     38031 TIP3     4372     TIP3     H1       HT       0.417000       1.00800           0   0.00000       0.00000    
     38032 TIP3     4372     TIP3     H2       HT       0.417000       1.00800           0   0.00000     -0.301140E-02
     38033 TIP3     4373     TIP3     OH2      OT      -0.834000       15.9994           0   0.00000       0.00000    
     38034 TIP3     4373     TIP3     H1       HT       0.417000       1.00800           0   0.00000       0.00000    
     38035 TIP3     4373     TIP3     H2       HT       0.417000       1.00800           0   0.00000     -0.301140E-02
     38036 TIP3     4374     TIP3     OH2      OT      -0.834000       15.9994           0   0.00000       0.00000    
     38037 TIP3     4374     TIP3     H1       HT       0.417000       1.00800           0   0.00000       0.00000    
     38038 TIP3     4374     TIP3     H2       HT       0.417000       1.00800           0   0.00000     -0.301140E-02
     38039 TIP3     4375     TIP3     OH2      OT      -0.834000       15.9994           0   0.00000       0.00000    
     38040 TIP3     4375     TIP3     H1       HT       0.417000       1.00800           0   0.00000       0.00000    
     38041 TIP3     4375     TIP3     H2       HT       0.417000       1.00800           0   0.00000     -0.301140E-02
     38042 TIP3     4376     TIP3     OH2      OT      -0.834000       15.9994           0   0.00000       0.00000    
     38043 TIP3     4376     TIP3     H1       HT       0.417000       1.00800           0   0.00000       0.00000    
     38044 TIP3     4376     TIP3     H2       HT       0.417000       1.00800           0   0.00000     -0.301140E-02
     38045 TIP3     4377     TIP3     OH2      OT      -0.834000       15.9994           0   0.00000       0.00000    
     38046 TIP3     4377     TIP3     H1       HT       0.417000       1.00800           0   0.00000       0.00000    
     38047 TIP3     4377     TIP3     H2       HT       0.417000       1.00800           0   0.00000     -0.301140E-02
     38048 TIP3     4378     TIP3     OH2      OT      -0.834000       15.9994           0   0.00000       0.00000    
     38049 TIP3     4378     TIP3     H1       HT       0.417000       1.00800           0   0.00000       0.00000    
     38050 TIP3     4378     TIP3     H2       HT       0.417000       1.00800           0   0.00000     -0.301140E-02
     38051 TIP3     4379     TIP3     OH2      OT      -0.834000       15.9994           0   0.00000       0.00000    
     38052 TIP3     4379     TIP3     H1       HT       0.417000       1.00800           0   0.00000       0.00000    
     38053 TIP3     4379     TIP3     H2       HT       0.417000       1.00800           0   0.00000     -0.301140E-02
     38054 TIP3     4380     TIP3     OH2      OT      -0.834000       15.9994           0   0.00000       0.00000    
     38055 TIP3     4380     TIP3     H1       HT       0.417000       1.00800           0   0.00000       0.00000    
     38056 TIP3     4380     TIP3     H2       HT       0.417000       1.00800           0   0.00000     -0.301140E-02
     38057 TIP3     4381     TIP3     OH2      OT      -0.834000       15.9994           0   0.00000       0.00000    
     38058 TIP3     4381     TIP3     H1       HT       0.417000       1.00800           0   0.00000       0.00000    
     38059 TIP3     4381     TIP3     H2       HT       0.417000       1.00800           0   0.00000     -0.301140E-02
     38060 TIP3     4382     TIP3     OH2      OT      -0.834000       15.9994           0   0.00000       0.00000    
     38061 TIP3     4382     TIP3     H1       HT       0.417000       1.00800           0   0.00000       0.00000    
     38062 TIP3     4382     TIP3     H2       HT       0.417000       1.00800           0   0.00000     -0.301140E-02
     38063 TIP3     4383     TIP3     OH2      OT      -0.834000       15.9994           0   0.00000       0.00000    
     38064 TIP3     4383     TIP3     H1       HT       0.417000       1.00800           0   0.00000       0.00000    
     38065 TIP3     4383     TIP3     H2       HT       0.417000       1.00800           0   0.00000     -0.301140E-02
     38066 TIP3     4384     TIP3     OH2      OT      -0.834000       15.9994           0   0.00000       0.00000    
     38067 TIP3     4384     TIP3     H1       HT       0.417000       1.00800           0   0.00000       0.00000    
     38068 TIP3     4384     TIP3     H2       HT       0.417000       1.00800           0   0.00000     -0.301140E-02
     38069 TIP3     4385     TIP3     OH2      OT      -0.834000       15.9994           0   0.00000       0.00000    
     38070 TIP3     4385     TIP3     H1       HT       0.417000       1.00800           0   0.00000       0.00000    
     38071 TIP3     4385     TIP3     H2       HT       0.417000       1.00800           0   0.00000     -0.301140E-02
     38072 TIP3     4386     TIP3     OH2      OT      -0.834000       15.9994           0   0.00000       0.00000    
     38073 TIP3     4386     TIP3     H1       HT       0.417000       1.00800           0   0.00000       0.00000    
     38074 TIP3     4386     TIP3     H2       HT       0.417000       1.00800           0   0.00000     -0.301140E-02
     38075 TIP3     4387     TIP3     OH2      OT      -0.834000       15.9994           0   0.00000       0.00000    
     38076 TIP3     4387     TIP3     H1       HT       0.417000       1.00800           0   0.00000       0.00000    
     38077 TIP3     4387     TIP3     H2       HT       0.417000       1.00800           0   0.00000     -0.301140E-02
     38078 TIP3     4388     TIP3     OH2      OT      -0.834000       15.9994           0   0.00000       0.00000    
     38079 TIP3     4388     TIP3     H1       HT       0.417000       1.00800           0   0.00000       0.00000    
     38080 TIP3     4388     TIP3     H2       HT       0.417000       1.00800           0   0.00000     -0.301140E-02
     38081 TIP3     4389     TIP3     OH2      OT      -0.834000       15.9994           0   0.00000       0.00000    
     38082 TIP3     4389     TIP3     H1       HT       0.417000       1.00800           0   0.00000       0.00000    
     38083 TIP3     4389     TIP3     H2       HT       0.417000       1.00800           0   0.00000     -0.301140E-02
     38084 TIP3     4390     TIP3     OH2      OT      -0.834000       15.9994           0   0.00000       0.00000    
     38085 TIP3     4390     TIP3     H1       HT       0.417000       1.00800           0   0.00000       0.00000    
     38086 TIP3     4390     TIP3     H2       HT       0.417000       1.00800           0   0.00000     -0.301140E-02
     38087 TIP3     4391     TIP3     OH2      OT      -0.834000       15.9994           0   0.00000       0.00000    
     38088 TIP3     4391     TIP3     H1       HT       0.417000       1.00800           0   0.00000       0.00000    
     38089 TIP3     4391     TIP3     H2       HT       0.417000       1.00800           0   0.00000     -0.301140E-02
     38090 TIP3     4392     TIP3     OH2      OT      -0.834000       15.9994           0   0.00000       0.00000    
     38091 TIP3     4392     TIP3     H1       HT       0.417000       1.00800           0   0.00000       0.00000    
     38092 TIP3     4392     TIP3     H2       HT       0.417000       1.00800           0   0.00000     -0.301140E-02
     38093 TIP3     4393     TIP3     OH2      OT      -0.834000       15.9994           0   0.00000       0.00000    
     38094 TIP3     4393     TIP3     H1       HT       0.417000       1.00800           0   0.00000       0.00000    
     38095 TIP3     4393     TIP3     H2       HT       0.417000       1.00800           0   0.00000     -0.301140E-02
     38096 TIP3     4394     TIP3     OH2      OT      -0.834000       15.9994           0   0.00000       0.00000    
     38097 TIP3     4394     TIP3     H1       HT       0.417000       1.00800           0   0.00000       0.00000    
     38098 TIP3     4394     TIP3     H2       HT       0.417000       1.00800           0   0.00000     -0.301140E-02
     38099 TIP3     4395     TIP3     OH2      OT      -0.834000       15.9994           0   0.00000       0.00000    
     38100 TIP3     4395     TIP3     H1       HT       0.417000       1.00800           0   0.00000       0.00000    
     38101 TIP3     4395     TIP3     H2       HT       0.417000       1.00800           0   0.00000     -0.301140E-02
     38102 TIP3     4396     TIP3     OH2      OT      -0.834000       15.9994           0   0.00000       0.00000    
     38103 TIP3     4396     TIP3     H1       HT       0.417000       1.00800           0   0.00000       0.00000    
     38104 TIP3     4396     TIP3     H2       HT       0.417000       1.00800           0   0.00000     -0.301140E-02
     38105 TIP3     4397     TIP3     OH2      OT      -0.834000       15.9994           0   0.00000       0.00000    
     38106 TIP3     4397     TIP3     H1       HT       0.417000       1.00800           0   0.00000       0.00000    
     38107 TIP3     4397     TIP3     H2       HT       0.417000       1.00800           0   0.00000     -0.301140E-02
     38108 TIP3     4398     TIP3     OH2      OT      -0.834000       15.9994           0   0.00000       0.00000    
     38109 TIP3     4398     TIP3     H1       HT       0.417000       1.00800           0   0.00000       0.00000    
     38110 TIP3     4398     TIP3     H2       HT       0.417000       1.00800           0   0.00000     -0.301140E-02
     38111 TIP3     4399     TIP3     OH2      OT      -0.834000       15.9994           0   0.00000       0.00000    
     38112 TIP3     4399     TIP3     H1       HT       0.417000       1.00800           0   0.00000       0.00000    
     38113 TIP3     4399     TIP3     H2       HT       0.417000       1.00800           0   0.00000     -0.301140E-02
     38114 TIP3     4400     TIP3     OH2      OT      -0.834000       15.9994           0   0.00000       0.00000    
     38115 TIP3     4400     TIP3     H1       HT       0.417000       1.00800           0   0.00000       0.00000    
     38116 TIP3     4400     TIP3     H2       HT       0.417000       1.00800           0   0.00000     -0.301140E-02
     38117 TIP3     4401     TIP3     OH2      OT      -0.834000       15.9994           0   0.00000       0.00000    
     38118 TIP3     4401     TIP3     H1       HT       0.417000       1.00800           0   0.00000       0.00000    
     38119 TIP3     4401     TIP3     H2       HT       0.417000       1.00800           0   0.00000     -0.301140E-02
     38120 TIP3     4402     TIP3     OH2      OT      -0.834000       15.9994           0   0.00000       0.00000    
     38121 TIP3     4402     TIP3     H1       HT       0.417000       1.00800           0   0.00000       0.00000    
     38122 TIP3     4402     TIP3     H2       HT       0.417000       1.00800           0   0.00000     -0.301140E-02
     38123 TIP3     4403     TIP3     OH2      OT      -0.834000       15.9994           0   0.00000       0.00000    
     38124 TIP3     4403     TIP3     H1       HT       0.417000       1.00800           0   0.00000       0.00000    
     38125 TIP3     4403     TIP3     H2       HT       0.417000       1.00800           0   0.00000     -0.301140E-02
     38126 TIP3     4404     TIP3     OH2      OT      -0.834000       15.9994           0   0.00000       0.00000    
     38127 TIP3     4404     TIP3     H1       HT       0.417000       1.00800           0   0.00000       0.00000    
     38128 TIP3     4404     TIP3     H2       HT       0.417000       1.00800           0   0.00000     -0.301140E-02
     38129 TIP3     4405     TIP3     OH2      OT      -0.834000       15.9994           0   0.00000       0.00000    
     38130 TIP3     4405     TIP3     H1       HT       0.417000       1.00800           0   0.00000       0.00000    
     38131 TIP3     4405     TIP3     H2       HT       0.417000       1.00800           0   0.00000     -0.301140E-02
     38132 TIP3     4406     TIP3     OH2      OT      -0.834000       15.9994           0   0.00000       0.00000    
     38133 TIP3     4406     TIP3     H1       HT       0.417000       1.00800           0   0.00000       0.00000    
     38134 TIP3     4406     TIP3     H2       HT       0.417000       1.00800           0   0.00000     -0.301140E-02
     38135 TIP3     4407     TIP3     OH2      OT      -0.834000       15.9994           0   0.00000       0.00000    
     38136 TIP3     4407     TIP3     H1       HT       0.417000       1.00800           0   0.00000       0.00000    
     38137 TIP3     4407     TIP3     H2       HT       0.417000       1.00800           0   0.00000     -0.301140E-02
     38138 TIP3     4408     TIP3     OH2      OT      -0.834000       15.9994           0   0.00000       0.00000    
     38139 TIP3     4408     TIP3     H1       HT       0.417000       1.00800           0   0.00000       0.00000    
     38140 TIP3     4408     TIP3     H2       HT       0.417000       1.00800           0   0.00000     -0.301140E-02
     38141 TIP3     4409     TIP3     OH2      OT      -0.834000       15.9994           0   0.00000       0.00000    
     38142 TIP3     4409     TIP3     H1       HT       0.417000       1.00800           0   0.00000       0.00000    
     38143 TIP3     4409     TIP3     H2       HT       0.417000       1.00800           0   0.00000     -0.301140E-02
     38144 TIP3     4410     TIP3     OH2      OT      -0.834000       15.9994           0   0.00000       0.00000    
     38145 TIP3     4410     TIP3     H1       HT       0.417000       1.00800           0   0.00000       0.00000    
     38146 TIP3     4410     TIP3     H2       HT       0.417000       1.00800           0   0.00000     -0.301140E-02
     38147 TIP3     4411     TIP3     OH2      OT      -0.834000       15.9994           0   0.00000       0.00000    
     38148 TIP3     4411     TIP3     H1       HT       0.417000       1.00800           0   0.00000       0.00000    
     38149 TIP3     4411     TIP3     H2       HT       0.417000       1.00800           0   0.00000     -0.301140E-02
     38150 TIP3     4412     TIP3     OH2      OT      -0.834000       15.9994           0   0.00000       0.00000    
     38151 TIP3     4412     TIP3     H1       HT       0.417000       1.00800           0   0.00000       0.00000    
     38152 TIP3     4412     TIP3     H2       HT       0.417000       1.00800           0   0.00000     -0.301140E-02
     38153 TIP3     4413     TIP3     OH2      OT      -0.834000       15.9994           0   0.00000       0.00000    
     38154 TIP3     4413     TIP3     H1       HT       0.417000       1.00800           0   0.00000       0.00000    
     38155 TIP3     4413     TIP3     H2       HT       0.417000       1.00800           0   0.00000     -0.301140E-02
     38156 TIP3     4414     TIP3     OH2      OT      -0.834000       15.9994           0   0.00000       0.00000    
     38157 TIP3     4414     TIP3     H1       HT       0.417000       1.00800           0   0.00000       0.00000    
     38158 TIP3     4414     TIP3     H2       HT       0.417000       1.00800           0   0.00000     -0.301140E-02
     38159 TIP3     4415     TIP3     OH2      OT      -0.834000       15.9994           0   0.00000       0.00000    
     38160 TIP3     4415     TIP3     H1       HT       0.417000       1.00800           0   0.00000       0.00000    
     38161 TIP3     4415     TIP3     H2       HT       0.417000       1.00800           0   0.00000     -0.301140E-02
     38162 TIP3     4416     TIP3     OH2      OT      -0.834000       15.9994           0   0.00000       0.00000    
     38163 TIP3     4416     TIP3     H1       HT       0.417000       1.00800           0   0.00000       0.00000    
     38164 TIP3     4416     TIP3     H2       HT       0.417000       1.00800           0   0.00000     -0.301140E-02
     38165 TIP3     4417     TIP3     OH2      OT      -0.834000       15.9994           0   0.00000       0.00000    
     38166 TIP3     4417     TIP3     H1       HT       0.417000       1.00800           0   0.00000       0.00000    
     38167 TIP3     4417     TIP3     H2       HT       0.417000       1.00800           0   0.00000     -0.301140E-02
     38168 TIP3     4418     TIP3     OH2      OT      -0.834000       15.9994           0   0.00000       0.00000    
     38169 TIP3     4418     TIP3     H1       HT       0.417000       1.00800           0   0.00000       0.00000    
     38170 TIP3     4418     TIP3     H2       HT       0.417000       1.00800           0   0.00000     -0.301140E-02
     38171 TIP3     4419     TIP3     OH2      OT      -0.834000       15.9994           0   0.00000       0.00000    
     38172 TIP3     4419     TIP3     H1       HT       0.417000       1.00800           0   0.00000       0.00000    
     38173 TIP3     4419     TIP3     H2       HT       0.417000       1.00800           0   0.00000     -0.301140E-02
     38174 TIP3     4420     TIP3     OH2      OT      -0.834000       15.9994           0   0.00000       0.00000    
     38175 TIP3     4420     TIP3     H1       HT       0.417000       1.00800           0   0.00000       0.00000    
     38176 TIP3     4420     TIP3     H2       HT       0.417000       1.00800           0   0.00000     -0.301140E-02
     38177 TIP3     4421     TIP3     OH2      OT      -0.834000       15.9994           0   0.00000       0.00000    
     38178 TIP3     4421     TIP3     H1       HT       0.417000       1.00800           0   0.00000       0.00000    
     38179 TIP3     4421     TIP3     H2       HT       0.417000       1.00800           0   0.00000     -0.301140E-02
     38180 TIP3     4422     TIP3     OH2      OT      -0.834000       15.9994           0   0.00000       0.00000    
     38181 TIP3     4422     TIP3     H1       HT       0.417000       1.00800           0   0.00000       0.00000    
     38182 TIP3     4422     TIP3     H2       HT       0.417000       1.00800           0   0.00000     -0.301140E-02
     38183 TIP3     4423     TIP3     OH2      OT      -0.834000       15.9994           0   0.00000       0.00000    
     38184 TIP3     4423     TIP3     H1       HT       0.417000       1.00800           0   0.00000       0.00000    
     38185 TIP3     4423     TIP3     H2       HT       0.417000       1.00800           0   0.00000     -0.301140E-02
     38186 TIP3     4424     TIP3     OH2      OT      -0.834000       15.9994           0   0.00000       0.00000    
     38187 TIP3     4424     TIP3     H1       HT       0.417000       1.00800           0   0.00000       0.00000    
     38188 TIP3     4424     TIP3     H2       HT       0.417000       1.00800           0   0.00000     -0.301140E-02
     38189 TIP3     4425     TIP3     OH2      OT      -0.834000       15.9994           0   0.00000       0.00000    
     38190 TIP3     4425     TIP3     H1       HT       0.417000       1.00800           0   0.00000       0.00000    
     38191 TIP3     4425     TIP3     H2       HT       0.417000       1.00800           0   0.00000     -0.301140E-02
     38192 TIP3     4426     TIP3     OH2      OT      -0.834000       15.9994           0   0.00000       0.00000    
     38193 TIP3     4426     TIP3     H1       HT       0.417000       1.00800           0   0.00000       0.00000    
     38194 TIP3     4426     TIP3     H2       HT       0.417000       1.00800           0   0.00000     -0.301140E-02
     38195 TIP3     4427     TIP3     OH2      OT      -0.834000       15.9994           0   0.00000       0.00000    
     38196 TIP3     4427     TIP3     H1       HT       0.417000       1.00800           0   0.00000       0.00000    
     38197 TIP3     4427     TIP3     H2       HT       0.417000       1.00800           0   0.00000     -0.301140E-02
     38198 TIP3     4428     TIP3     OH2      OT      -0.834000       15.9994           0   0.00000       0.00000    
     38199 TIP3     4428     TIP3     H1       HT       0.417000       1.00800           0   0.00000       0.00000    
     38200 TIP3     4428     TIP3     H2       HT       0.417000       1.00800           0   0.00000     -0.301140E-02
     38201 TIP3     4429     TIP3     OH2      OT      -0.834000       15.9994           0   0.00000       0.00000    
     38202 TIP3     4429     TIP3     H1       HT       0.417000       1.00800           0   0.00000       0.00000    
     38203 TIP3     4429     TIP3     H2       HT       0.417000       1.00800           0   0.00000     -0.301140E-02
     38204 TIP3     4430     TIP3     OH2      OT      -0.834000       15.9994           0   0.00000       0.00000    
     38205 TIP3     4430     TIP3     H1       HT       0.417000       1.00800           0   0.00000       0.00000    
     38206 TIP3     4430     TIP3     H2       HT       0.417000       1.00800           0   0.00000     -0.301140E-02
     38207 TIP3     4431     TIP3     OH2      OT      -0.834000       15.9994           0   0.00000       0.00000    
     38208 TIP3     4431     TIP3     H1       HT       0.417000       1.00800           0   0.00000       0.00000    
     38209 TIP3     4431     TIP3     H2       HT       0.417000       1.00800           0   0.00000     -0.301140E-02
     38210 TIP3     4432     TIP3     OH2      OT      -0.834000       15.9994           0   0.00000       0.00000    
     38211 TIP3     4432     TIP3     H1       HT       0.417000       1.00800           0   0.00000       0.00000    
     38212 TIP3     4432     TIP3     H2       HT       0.417000       1.00800           0   0.00000     -0.301140E-02
     38213 TIP3     4433     TIP3     OH2      OT      -0.834000       15.9994           0   0.00000       0.00000    
     38214 TIP3     4433     TIP3     H1       HT       0.417000       1.00800           0   0.00000       0.00000    
     38215 TIP3     4433     TIP3     H2       HT       0.417000       1.00800           0   0.00000     -0.301140E-02
     38216 TIP3     4434     TIP3     OH2      OT      -0.834000       15.9994           0   0.00000       0.00000    
     38217 TIP3     4434     TIP3     H1       HT       0.417000       1.00800           0   0.00000       0.00000    
     38218 TIP3     4434     TIP3     H2       HT       0.417000       1.00800           0   0.00000     -0.301140E-02
     38219 TIP3     4435     TIP3     OH2      OT      -0.834000       15.9994           0   0.00000       0.00000    
     38220 TIP3     4435     TIP3     H1       HT       0.417000       1.00800           0   0.00000       0.00000    
     38221 TIP3     4435     TIP3     H2       HT       0.417000       1.00800           0   0.00000     -0.301140E-02
     38222 TIP3     4436     TIP3     OH2      OT      -0.834000       15.9994           0   0.00000       0.00000    
     38223 TIP3     4436     TIP3     H1       HT       0.417000       1.00800           0   0.00000       0.00000    
     38224 TIP3     4436     TIP3     H2       HT       0.417000       1.00800           0   0.00000     -0.301140E-02
     38225 TIP3     4437     TIP3     OH2      OT      -0.834000       15.9994           0   0.00000       0.00000    
     38226 TIP3     4437     TIP3     H1       HT       0.417000       1.00800           0   0.00000       0.00000    
     38227 TIP3     4437     TIP3     H2       HT       0.417000       1.00800           0   0.00000     -0.301140E-02
     38228 TIP3     4438     TIP3     OH2      OT      -0.834000       15.9994           0   0.00000       0.00000    
     38229 TIP3     4438     TIP3     H1       HT       0.417000       1.00800           0   0.00000       0.00000    
     38230 TIP3     4438     TIP3     H2       HT       0.417000       1.00800           0   0.00000     -0.301140E-02
     38231 TIP3     4439     TIP3     OH2      OT      -0.834000       15.9994           0   0.00000       0.00000    
     38232 TIP3     4439     TIP3     H1       HT       0.417000       1.00800           0   0.00000       0.00000    
     38233 TIP3     4439     TIP3     H2       HT       0.417000       1.00800           0   0.00000     -0.301140E-02
     38234 TIP3     4440     TIP3     OH2      OT      -0.834000       15.9994           0   0.00000       0.00000    
     38235 TIP3     4440     TIP3     H1       HT       0.417000       1.00800           0   0.00000       0.00000    
     38236 TIP3     4440     TIP3     H2       HT       0.417000       1.00800           0   0.00000     -0.301140E-02
     38237 TIP3     4441     TIP3     OH2      OT      -0.834000       15.9994           0   0.00000       0.00000    
     38238 TIP3     4441     TIP3     H1       HT       0.417000       1.00800           0   0.00000       0.00000    
     38239 TIP3     4441     TIP3     H2       HT       0.417000       1.00800           0   0.00000     -0.301140E-02
     38240 TIP3     4442     TIP3     OH2      OT      -0.834000       15.9994           0   0.00000       0.00000    
     38241 TIP3     4442     TIP3     H1       HT       0.417000       1.00800           0   0.00000       0.00000    
     38242 TIP3     4442     TIP3     H2       HT       0.417000       1.00800           0   0.00000     -0.301140E-02
     38243 TIP3     4443     TIP3     OH2      OT      -0.834000       15.9994           0   0.00000       0.00000    
     38244 TIP3     4443     TIP3     H1       HT       0.417000       1.00800           0   0.00000       0.00000    
     38245 TIP3     4443     TIP3     H2       HT       0.417000       1.00800           0   0.00000     -0.301140E-02
     38246 TIP3     4444     TIP3     OH2      OT      -0.834000       15.9994           0   0.00000       0.00000    
     38247 TIP3     4444     TIP3     H1       HT       0.417000       1.00800           0   0.00000       0.00000    
     38248 TIP3     4444     TIP3     H2       HT       0.417000       1.00800           0   0.00000     -0.301140E-02
     38249 TIP3     4445     TIP3     OH2      OT      -0.834000       15.9994           0   0.00000       0.00000    
     38250 TIP3     4445     TIP3     H1       HT       0.417000       1.00800           0   0.00000       0.00000    
     38251 TIP3     4445     TIP3     H2       HT       0.417000       1.00800           0   0.00000     -0.301140E-02
     38252 TIP3     4446     TIP3     OH2      OT      -0.834000       15.9994           0   0.00000       0.00000    
     38253 TIP3     4446     TIP3     H1       HT       0.417000       1.00800           0   0.00000       0.00000    
     38254 TIP3     4446     TIP3     H2       HT       0.417000       1.00800           0   0.00000     -0.301140E-02
     38255 TIP3     4447     TIP3     OH2      OT      -0.834000       15.9994           0   0.00000       0.00000    
     38256 TIP3     4447     TIP3     H1       HT       0.417000       1.00800           0   0.00000       0.00000    
     38257 TIP3     4447     TIP3     H2       HT       0.417000       1.00800           0   0.00000     -0.301140E-02
     38258 TIP3     4448     TIP3     OH2      OT      -0.834000       15.9994           0   0.00000       0.00000    
     38259 TIP3     4448     TIP3     H1       HT       0.417000       1.00800           0   0.00000       0.00000    
     38260 TIP3     4448     TIP3     H2       HT       0.417000       1.00800           0   0.00000     -0.301140E-02
     38261 TIP3     4449     TIP3     OH2      OT      -0.834000       15.9994           0   0.00000       0.00000    
     38262 TIP3     4449     TIP3     H1       HT       0.417000       1.00800           0   0.00000       0.00000    
     38263 TIP3     4449     TIP3     H2       HT       0.417000       1.00800           0   0.00000     -0.301140E-02
     38264 TIP3     4450     TIP3     OH2      OT      -0.834000       15.9994           0   0.00000       0.00000    
     38265 TIP3     4450     TIP3     H1       HT       0.417000       1.00800           0   0.00000       0.00000    
     38266 TIP3     4450     TIP3     H2       HT       0.417000       1.00800           0   0.00000     -0.301140E-02
     38267 TIP3     4451     TIP3     OH2      OT      -0.834000       15.9994           0   0.00000       0.00000    
     38268 TIP3     4451     TIP3     H1       HT       0.417000       1.00800           0   0.00000       0.00000    
     38269 TIP3     4451     TIP3     H2       HT       0.417000       1.00800           0   0.00000     -0.301140E-02
     38270 TIP3     4452     TIP3     OH2      OT      -0.834000       15.9994           0   0.00000       0.00000    
     38271 TIP3     4452     TIP3     H1       HT       0.417000       1.00800           0   0.00000       0.00000    
     38272 TIP3     4452     TIP3     H2       HT       0.417000       1.00800           0   0.00000     -0.301140E-02
     38273 TIP3     4453     TIP3     OH2      OT      -0.834000       15.9994           0   0.00000       0.00000    
     38274 TIP3     4453     TIP3     H1       HT       0.417000       1.00800           0   0.00000       0.00000    
     38275 TIP3     4453     TIP3     H2       HT       0.417000       1.00800           0   0.00000     -0.301140E-02
     38276 TIP3     4454     TIP3     OH2      OT      -0.834000       15.9994           0   0.00000       0.00000    
     38277 TIP3     4454     TIP3     H1       HT       0.417000       1.00800           0   0.00000       0.00000    
     38278 TIP3     4454     TIP3     H2       HT       0.417000       1.00800           0   0.00000     -0.301140E-02
     38279 TIP3     4455     TIP3     OH2      OT      -0.834000       15.9994           0   0.00000       0.00000    
     38280 TIP3     4455     TIP3     H1       HT       0.417000       1.00800           0   0.00000       0.00000    
     38281 TIP3     4455     TIP3     H2       HT       0.417000       1.00800           0   0.00000     -0.301140E-02
     38282 TIP3     4456     TIP3     OH2      OT      -0.834000       15.9994           0   0.00000       0.00000    
     38283 TIP3     4456     TIP3     H1       HT       0.417000       1.00800           0   0.00000       0.00000    
     38284 TIP3     4456     TIP3     H2       HT       0.417000       1.00800           0   0.00000     -0.301140E-02
     38285 TIP3     4457     TIP3     OH2      OT      -0.834000       15.9994           0   0.00000       0.00000    
     38286 TIP3     4457     TIP3     H1       HT       0.417000       1.00800           0   0.00000       0.00000    
     38287 TIP3     4457     TIP3     H2       HT       0.417000       1.00800           0   0.00000     -0.301140E-02
     38288 TIP3     4458     TIP3     OH2      OT      -0.834000       15.9994           0   0.00000       0.00000    
     38289 TIP3     4458     TIP3     H1       HT       0.417000       1.00800           0   0.00000       0.00000    
     38290 TIP3     4458     TIP3     H2       HT       0.417000       1.00800           0   0.00000     -0.301140E-02
     38291 TIP3     4459     TIP3     OH2      OT      -0.834000       15.9994           0   0.00000       0.00000    
     38292 TIP3     4459     TIP3     H1       HT       0.417000       1.00800           0   0.00000       0.00000    
     38293 TIP3     4459     TIP3     H2       HT       0.417000       1.00800           0   0.00000     -0.301140E-02
     38294 TIP3     4460     TIP3     OH2      OT      -0.834000       15.9994           0   0.00000       0.00000    
     38295 TIP3     4460     TIP3     H1       HT       0.417000       1.00800           0   0.00000       0.00000    
     38296 TIP3     4460     TIP3     H2       HT       0.417000       1.00800           0   0.00000     -0.301140E-02
     38297 TIP3     4461     TIP3     OH2      OT      -0.834000       15.9994           0   0.00000       0.00000    
     38298 TIP3     4461     TIP3     H1       HT       0.417000       1.00800           0   0.00000       0.00000    
     38299 TIP3     4461     TIP3     H2       HT       0.417000       1.00800           0   0.00000     -0.301140E-02
     38300 TIP3     4462     TIP3     OH2      OT      -0.834000       15.9994           0   0.00000       0.00000    
     38301 TIP3     4462     TIP3     H1       HT       0.417000       1.00800           0   0.00000       0.00000    
     38302 TIP3     4462     TIP3     H2       HT       0.417000       1.00800           0   0.00000     -0.301140E-02
     38303 TIP3     4463     TIP3     OH2      OT      -0.834000       15.9994           0   0.00000       0.00000    
     38304 TIP3     4463     TIP3     H1       HT       0.417000       1.00800           0   0.00000       0.00000    
     38305 TIP3     4463     TIP3     H2       HT       0.417000       1.00800           0   0.00000     -0.301140E-02
     38306 TIP3     4464     TIP3     OH2      OT      -0.834000       15.9994           0   0.00000       0.00000    
     38307 TIP3     4464     TIP3     H1       HT       0.417000       1.00800           0   0.00000       0.00000    
     38308 TIP3     4464     TIP3     H2       HT       0.417000       1.00800           0   0.00000     -0.301140E-02
     38309 TIP3     4465     TIP3     OH2      OT      -0.834000       15.9994           0   0.00000       0.00000    
     38310 TIP3     4465     TIP3     H1       HT       0.417000       1.00800           0   0.00000       0.00000    
     38311 TIP3     4465     TIP3     H2       HT       0.417000       1.00800           0   0.00000     -0.301140E-02
     38312 TIP3     4466     TIP3     OH2      OT      -0.834000       15.9994           0   0.00000       0.00000    
     38313 TIP3     4466     TIP3     H1       HT       0.417000       1.00800           0   0.00000       0.00000    
     38314 TIP3     4466     TIP3     H2       HT       0.417000       1.00800           0   0.00000     -0.301140E-02
     38315 TIP3     4467     TIP3     OH2      OT      -0.834000       15.9994           0   0.00000       0.00000    
     38316 TIP3     4467     TIP3     H1       HT       0.417000       1.00800           0   0.00000       0.00000    
     38317 TIP3     4467     TIP3     H2       HT       0.417000       1.00800           0   0.00000     -0.301140E-02
     38318 TIP3     4468     TIP3     OH2      OT      -0.834000       15.9994           0   0.00000       0.00000    
     38319 TIP3     4468     TIP3     H1       HT       0.417000       1.00800           0   0.00000       0.00000    
     38320 TIP3     4468     TIP3     H2       HT       0.417000       1.00800           0   0.00000     -0.301140E-02
     38321 TIP3     4469     TIP3     OH2      OT      -0.834000       15.9994           0   0.00000       0.00000    
     38322 TIP3     4469     TIP3     H1       HT       0.417000       1.00800           0   0.00000       0.00000    
     38323 TIP3     4469     TIP3     H2       HT       0.417000       1.00800           0   0.00000     -0.301140E-02
     38324 TIP3     4470     TIP3     OH2      OT      -0.834000       15.9994           0   0.00000       0.00000    
     38325 TIP3     4470     TIP3     H1       HT       0.417000       1.00800           0   0.00000       0.00000    
     38326 TIP3     4470     TIP3     H2       HT       0.417000       1.00800           0   0.00000     -0.301140E-02
     38327 TIP3     4471     TIP3     OH2      OT      -0.834000       15.9994           0   0.00000       0.00000    
     38328 TIP3     4471     TIP3     H1       HT       0.417000       1.00800           0   0.00000       0.00000    
     38329 TIP3     4471     TIP3     H2       HT       0.417000       1.00800           0   0.00000     -0.301140E-02
     38330 TIP3     4472     TIP3     OH2      OT      -0.834000       15.9994           0   0.00000       0.00000    
     38331 TIP3     4472     TIP3     H1       HT       0.417000       1.00800           0   0.00000       0.00000    
     38332 TIP3     4472     TIP3     H2       HT       0.417000       1.00800           0   0.00000     -0.301140E-02
     38333 TIP3     4473     TIP3     OH2      OT      -0.834000       15.9994           0   0.00000       0.00000    
     38334 TIP3     4473     TIP3     H1       HT       0.417000       1.00800           0   0.00000       0.00000    
     38335 TIP3     4473     TIP3     H2       HT       0.417000       1.00800           0   0.00000     -0.301140E-02
     38336 TIP3     4474     TIP3     OH2      OT      -0.834000       15.9994           0   0.00000       0.00000    
     38337 TIP3     4474     TIP3     H1       HT       0.417000       1.00800           0   0.00000       0.00000    
     38338 TIP3     4474     TIP3     H2       HT       0.417000       1.00800           0   0.00000     -0.301140E-02
     38339 TIP3     4475     TIP3     OH2      OT      -0.834000       15.9994           0   0.00000       0.00000    
     38340 TIP3     4475     TIP3     H1       HT       0.417000       1.00800           0   0.00000       0.00000    
     38341 TIP3     4475     TIP3     H2       HT       0.417000       1.00800           0   0.00000     -0.301140E-02
     38342 TIP3     4476     TIP3     OH2      OT      -0.834000       15.9994           0   0.00000       0.00000    
     38343 TIP3     4476     TIP3     H1       HT       0.417000       1.00800           0   0.00000       0.00000    
     38344 TIP3     4476     TIP3     H2       HT       0.417000       1.00800           0   0.00000     -0.301140E-02
     38345 TIP3     4477     TIP3     OH2      OT      -0.834000       15.9994           0   0.00000       0.00000    
     38346 TIP3     4477     TIP3     H1       HT       0.417000       1.00800           0   0.00000       0.00000    
     38347 TIP3     4477     TIP3     H2       HT       0.417000       1.00800           0   0.00000     -0.301140E-02
     38348 TIP3     4478     TIP3     OH2      OT      -0.834000       15.9994           0   0.00000       0.00000    
     38349 TIP3     4478     TIP3     H1       HT       0.417000       1.00800           0   0.00000       0.00000    
     38350 TIP3     4478     TIP3     H2       HT       0.417000       1.00800           0   0.00000     -0.301140E-02
     38351 TIP3     4479     TIP3     OH2      OT      -0.834000       15.9994           0   0.00000       0.00000    
     38352 TIP3     4479     TIP3     H1       HT       0.417000       1.00800           0   0.00000       0.00000    
     38353 TIP3     4479     TIP3     H2       HT       0.417000       1.00800           0   0.00000     -0.301140E-02
     38354 TIP3     4480     TIP3     OH2      OT      -0.834000       15.9994           0   0.00000       0.00000    
     38355 TIP3     4480     TIP3     H1       HT       0.417000       1.00800           0   0.00000       0.00000    
     38356 TIP3     4480     TIP3     H2       HT       0.417000       1.00800           0   0.00000     -0.301140E-02
     38357 TIP3     4481     TIP3     OH2      OT      -0.834000       15.9994           0   0.00000       0.00000    
     38358 TIP3     4481     TIP3     H1       HT       0.417000       1.00800           0   0.00000       0.00000    
     38359 TIP3     4481     TIP3     H2       HT       0.417000       1.00800           0   0.00000     -0.301140E-02
     38360 TIP3     4482     TIP3     OH2      OT      -0.834000       15.9994           0   0.00000       0.00000    
     38361 TIP3     4482     TIP3     H1       HT       0.417000       1.00800           0   0.00000       0.00000    
     38362 TIP3     4482     TIP3     H2       HT       0.417000       1.00800           0   0.00000     -0.301140E-02
     38363 TIP3     4483     TIP3     OH2      OT      -0.834000       15.9994           0   0.00000       0.00000    
     38364 TIP3     4483     TIP3     H1       HT       0.417000       1.00800           0   0.00000       0.00000    
     38365 TIP3     4483     TIP3     H2       HT       0.417000       1.00800           0   0.00000     -0.301140E-02
     38366 TIP3     4484     TIP3     OH2      OT      -0.834000       15.9994           0   0.00000       0.00000    
     38367 TIP3     4484     TIP3     H1       HT       0.417000       1.00800           0   0.00000       0.00000    
     38368 TIP3     4484     TIP3     H2       HT       0.417000       1.00800           0   0.00000     -0.301140E-02
     38369 TIP3     4485     TIP3     OH2      OT      -0.834000       15.9994           0   0.00000       0.00000    
     38370 TIP3     4485     TIP3     H1       HT       0.417000       1.00800           0   0.00000       0.00000    
     38371 TIP3     4485     TIP3     H2       HT       0.417000       1.00800           0   0.00000     -0.301140E-02
     38372 TIP3     4486     TIP3     OH2      OT      -0.834000       15.9994           0   0.00000       0.00000    
     38373 TIP3     4486     TIP3     H1       HT       0.417000       1.00800           0   0.00000       0.00000    
     38374 TIP3     4486     TIP3     H2       HT       0.417000       1.00800           0   0.00000     -0.301140E-02
     38375 TIP3     4487     TIP3     OH2      OT      -0.834000       15.9994           0   0.00000       0.00000    
     38376 TIP3     4487     TIP3     H1       HT       0.417000       1.00800           0   0.00000       0.00000    
     38377 TIP3     4487     TIP3     H2       HT       0.417000       1.00800           0   0.00000     -0.301140E-02
     38378 TIP3     4488     TIP3     OH2      OT      -0.834000       15.9994           0   0.00000       0.00000    
     38379 TIP3     4488     TIP3     H1       HT       0.417000       1.00800           0   0.00000       0.00000    
     38380 TIP3     4488     TIP3     H2       HT       0.417000       1.00800           0   0.00000     -0.301140E-02
     38381 TIP3     4489     TIP3     OH2      OT      -0.834000       15.9994           0   0.00000       0.00000    
     38382 TIP3     4489     TIP3     H1       HT       0.417000       1.00800           0   0.00000       0.00000    
     38383 TIP3     4489     TIP3     H2       HT       0.417000       1.00800           0   0.00000     -0.301140E-02
     38384 TIP3     4490     TIP3     OH2      OT      -0.834000       15.9994           0   0.00000       0.00000    
     38385 TIP3     4490     TIP3     H1       HT       0.417000       1.00800           0   0.00000       0.00000    
     38386 TIP3     4490     TIP3     H2       HT       0.417000       1.00800           0   0.00000     -0.301140E-02
     38387 TIP3     4491     TIP3     OH2      OT      -0.834000       15.9994           0   0.00000       0.00000    
     38388 TIP3     4491     TIP3     H1       HT       0.417000       1.00800           0   0.00000       0.00000    
     38389 TIP3     4491     TIP3     H2       HT       0.417000       1.00800           0   0.00000     -0.301140E-02
     38390 TIP3     4492     TIP3     OH2      OT      -0.834000       15.9994           0   0.00000       0.00000    
     38391 TIP3     4492     TIP3     H1       HT       0.417000       1.00800           0   0.00000       0.00000    
     38392 TIP3     4492     TIP3     H2       HT       0.417000       1.00800           0   0.00000     -0.301140E-02
     38393 TIP3     4493     TIP3     OH2      OT      -0.834000       15.9994           0   0.00000       0.00000    
     38394 TIP3     4493     TIP3     H1       HT       0.417000       1.00800           0   0.00000       0.00000    
     38395 TIP3     4493     TIP3     H2       HT       0.417000       1.00800           0   0.00000     -0.301140E-02
     38396 TIP3     4494     TIP3     OH2      OT      -0.834000       15.9994           0   0.00000       0.00000    
     38397 TIP3     4494     TIP3     H1       HT       0.417000       1.00800           0   0.00000       0.00000    
     38398 TIP3     4494     TIP3     H2       HT       0.417000       1.00800           0   0.00000     -0.301140E-02
     38399 TIP3     4495     TIP3     OH2      OT      -0.834000       15.9994           0   0.00000       0.00000    
     38400 TIP3     4495     TIP3     H1       HT       0.417000       1.00800           0   0.00000       0.00000    
     38401 TIP3     4495     TIP3     H2       HT       0.417000       1.00800           0   0.00000     -0.301140E-02
     38402 TIP3     4496     TIP3     OH2      OT      -0.834000       15.9994           0   0.00000       0.00000    
     38403 TIP3     4496     TIP3     H1       HT       0.417000       1.00800           0   0.00000       0.00000    
     38404 TIP3     4496     TIP3     H2       HT       0.417000       1.00800           0   0.00000     -0.301140E-02
     38405 TIP3     4497     TIP3     OH2      OT      -0.834000       15.9994           0   0.00000       0.00000    
     38406 TIP3     4497     TIP3     H1       HT       0.417000       1.00800           0   0.00000       0.00000    
     38407 TIP3     4497     TIP3     H2       HT       0.417000       1.00800           0   0.00000     -0.301140E-02
     38408 TIP3     4498     TIP3     OH2      OT      -0.834000       15.9994           0   0.00000       0.00000    
     38409 TIP3     4498     TIP3     H1       HT       0.417000       1.00800           0   0.00000       0.00000    
     38410 TIP3     4498     TIP3     H2       HT       0.417000       1.00800           0   0.00000     -0.301140E-02
     38411 TIP3     4499     TIP3     OH2      OT      -0.834000       15.9994           0   0.00000       0.00000    
     38412 TIP3     4499     TIP3     H1       HT       0.417000       1.00800           0   0.00000       0.00000    
     38413 TIP3     4499     TIP3     H2       HT       0.417000       1.00800           0   0.00000     -0.301140E-02
     38414 TIP3     4500     TIP3     OH2      OT      -0.834000       15.9994           0   0.00000       0.00000    
     38415 TIP3     4500     TIP3     H1       HT       0.417000       1.00800           0   0.00000       0.00000    
     38416 TIP3     4500     TIP3     H2       HT       0.417000       1.00800           0   0.00000     -0.301140E-02
     38417 TIP3     4501     TIP3     OH2      OT      -0.834000       15.9994           0   0.00000       0.00000    
     38418 TIP3     4501     TIP3     H1       HT       0.417000       1.00800           0   0.00000       0.00000    
     38419 TIP3     4501     TIP3     H2       HT       0.417000       1.00800           0   0.00000     -0.301140E-02
     38420 TIP3     4502     TIP3     OH2      OT      -0.834000       15.9994           0   0.00000       0.00000    
     38421 TIP3     4502     TIP3     H1       HT       0.417000       1.00800           0   0.00000       0.00000    
     38422 TIP3     4502     TIP3     H2       HT       0.417000       1.00800           0   0.00000     -0.301140E-02
     38423 TIP3     4503     TIP3     OH2      OT      -0.834000       15.9994           0   0.00000       0.00000    
     38424 TIP3     4503     TIP3     H1       HT       0.417000       1.00800           0   0.00000       0.00000    
     38425 TIP3     4503     TIP3     H2       HT       0.417000       1.00800           0   0.00000     -0.301140E-02
     38426 TIP3     4504     TIP3     OH2      OT      -0.834000       15.9994           0   0.00000       0.00000    
     38427 TIP3     4504     TIP3     H1       HT       0.417000       1.00800           0   0.00000       0.00000    
     38428 TIP3     4504     TIP3     H2       HT       0.417000       1.00800           0   0.00000     -0.301140E-02
     38429 TIP3     4505     TIP3     OH2      OT      -0.834000       15.9994           0   0.00000       0.00000    
     38430 TIP3     4505     TIP3     H1       HT       0.417000       1.00800           0   0.00000       0.00000    
     38431 TIP3     4505     TIP3     H2       HT       0.417000       1.00800           0   0.00000     -0.301140E-02
     38432 TIP3     4506     TIP3     OH2      OT      -0.834000       15.9994           0   0.00000       0.00000    
     38433 TIP3     4506     TIP3     H1       HT       0.417000       1.00800           0   0.00000       0.00000    
     38434 TIP3     4506     TIP3     H2       HT       0.417000       1.00800           0   0.00000     -0.301140E-02
     38435 TIP3     4507     TIP3     OH2      OT      -0.834000       15.9994           0   0.00000       0.00000    
     38436 TIP3     4507     TIP3     H1       HT       0.417000       1.00800           0   0.00000       0.00000    
     38437 TIP3     4507     TIP3     H2       HT       0.417000       1.00800           0   0.00000     -0.301140E-02
     38438 TIP3     4508     TIP3     OH2      OT      -0.834000       15.9994           0   0.00000       0.00000    
     38439 TIP3     4508     TIP3     H1       HT       0.417000       1.00800           0   0.00000       0.00000    
     38440 TIP3     4508     TIP3     H2       HT       0.417000       1.00800           0   0.00000     -0.301140E-02
     38441 TIP3     4509     TIP3     OH2      OT      -0.834000       15.9994           0   0.00000       0.00000    
     38442 TIP3     4509     TIP3     H1       HT       0.417000       1.00800           0   0.00000       0.00000    
     38443 TIP3     4509     TIP3     H2       HT       0.417000       1.00800           0   0.00000     -0.301140E-02
     38444 TIP3     4510     TIP3     OH2      OT      -0.834000       15.9994           0   0.00000       0.00000    
     38445 TIP3     4510     TIP3     H1       HT       0.417000       1.00800           0   0.00000       0.00000    
     38446 TIP3     4510     TIP3     H2       HT       0.417000       1.00800           0   0.00000     -0.301140E-02
     38447 TIP3     4511     TIP3     OH2      OT      -0.834000       15.9994           0   0.00000       0.00000    
     38448 TIP3     4511     TIP3     H1       HT       0.417000       1.00800           0   0.00000       0.00000    
     38449 TIP3     4511     TIP3     H2       HT       0.417000       1.00800           0   0.00000     -0.301140E-02
     38450 TIP3     4512     TIP3     OH2      OT      -0.834000       15.9994           0   0.00000       0.00000    
     38451 TIP3     4512     TIP3     H1       HT       0.417000       1.00800           0   0.00000       0.00000    
     38452 TIP3     4512     TIP3     H2       HT       0.417000       1.00800           0   0.00000     -0.301140E-02
     38453 TIP3     4513     TIP3     OH2      OT      -0.834000       15.9994           0   0.00000       0.00000    
     38454 TIP3     4513     TIP3     H1       HT       0.417000       1.00800           0   0.00000       0.00000    
     38455 TIP3     4513     TIP3     H2       HT       0.417000       1.00800           0   0.00000     -0.301140E-02
     38456 TIP3     4514     TIP3     OH2      OT      -0.834000       15.9994           0   0.00000       0.00000    
     38457 TIP3     4514     TIP3     H1       HT       0.417000       1.00800           0   0.00000       0.00000    
     38458 TIP3     4514     TIP3     H2       HT       0.417000       1.00800           0   0.00000     -0.301140E-02
     38459 TIP3     4515     TIP3     OH2      OT      -0.834000       15.9994           0   0.00000       0.00000    
     38460 TIP3     4515     TIP3     H1       HT       0.417000       1.00800           0   0.00000       0.00000    
     38461 TIP3     4515     TIP3     H2       HT       0.417000       1.00800           0   0.00000     -0.301140E-02
     38462 TIP3     4516     TIP3     OH2      OT      -0.834000       15.9994           0   0.00000       0.00000    
     38463 TIP3     4516     TIP3     H1       HT       0.417000       1.00800           0   0.00000       0.00000    
     38464 TIP3     4516     TIP3     H2       HT       0.417000       1.00800           0   0.00000     -0.301140E-02
     38465 TIP3     4517     TIP3     OH2      OT      -0.834000       15.9994           0   0.00000       0.00000    
     38466 TIP3     4517     TIP3     H1       HT       0.417000       1.00800           0   0.00000       0.00000    
     38467 TIP3     4517     TIP3     H2       HT       0.417000       1.00800           0   0.00000     -0.301140E-02
     38468 TIP3     4518     TIP3     OH2      OT      -0.834000       15.9994           0   0.00000       0.00000    
     38469 TIP3     4518     TIP3     H1       HT       0.417000       1.00800           0   0.00000       0.00000    
     38470 TIP3     4518     TIP3     H2       HT       0.417000       1.00800           0   0.00000     -0.301140E-02
     38471 TIP3     4519     TIP3     OH2      OT      -0.834000       15.9994           0   0.00000       0.00000    
     38472 TIP3     4519     TIP3     H1       HT       0.417000       1.00800           0   0.00000       0.00000    
     38473 TIP3     4519     TIP3     H2       HT       0.417000       1.00800           0   0.00000     -0.301140E-02
     38474 TIP3     4520     TIP3     OH2      OT      -0.834000       15.9994           0   0.00000       0.00000    
     38475 TIP3     4520     TIP3     H1       HT       0.417000       1.00800           0   0.00000       0.00000    
     38476 TIP3     4520     TIP3     H2       HT       0.417000       1.00800           0   0.00000     -0.301140E-02
     38477 TIP3     4521     TIP3     OH2      OT      -0.834000       15.9994           0   0.00000       0.00000    
     38478 TIP3     4521     TIP3     H1       HT       0.417000       1.00800           0   0.00000       0.00000    
     38479 TIP3     4521     TIP3     H2       HT       0.417000       1.00800           0   0.00000     -0.301140E-02
     38480 TIP3     4522     TIP3     OH2      OT      -0.834000       15.9994           0   0.00000       0.00000    
     38481 TIP3     4522     TIP3     H1       HT       0.417000       1.00800           0   0.00000       0.00000    
     38482 TIP3     4522     TIP3     H2       HT       0.417000       1.00800           0   0.00000     -0.301140E-02
     38483 TIP3     4523     TIP3     OH2      OT      -0.834000       15.9994           0   0.00000       0.00000    
     38484 TIP3     4523     TIP3     H1       HT       0.417000       1.00800           0   0.00000       0.00000    
     38485 TIP3     4523     TIP3     H2       HT       0.417000       1.00800           0   0.00000     -0.301140E-02
     38486 TIP3     4524     TIP3     OH2      OT      -0.834000       15.9994           0   0.00000       0.00000    
     38487 TIP3     4524     TIP3     H1       HT       0.417000       1.00800           0   0.00000       0.00000    
     38488 TIP3     4524     TIP3     H2       HT       0.417000       1.00800           0   0.00000     -0.301140E-02
     38489 TIP3     4525     TIP3     OH2      OT      -0.834000       15.9994           0   0.00000       0.00000    
     38490 TIP3     4525     TIP3     H1       HT       0.417000       1.00800           0   0.00000       0.00000    
     38491 TIP3     4525     TIP3     H2       HT       0.417000       1.00800           0   0.00000     -0.301140E-02
     38492 TIP3     4526     TIP3     OH2      OT      -0.834000       15.9994           0   0.00000       0.00000    
     38493 TIP3     4526     TIP3     H1       HT       0.417000       1.00800           0   0.00000       0.00000    
     38494 TIP3     4526     TIP3     H2       HT       0.417000       1.00800           0   0.00000     -0.301140E-02
     38495 TIP3     4527     TIP3     OH2      OT      -0.834000       15.9994           0   0.00000       0.00000    
     38496 TIP3     4527     TIP3     H1       HT       0.417000       1.00800           0   0.00000       0.00000    
     38497 TIP3     4527     TIP3     H2       HT       0.417000       1.00800           0   0.00000     -0.301140E-02
     38498 TIP3     4528     TIP3     OH2      OT      -0.834000       15.9994           0   0.00000       0.00000    
     38499 TIP3     4528     TIP3     H1       HT       0.417000       1.00800           0   0.00000       0.00000    
     38500 TIP3     4528     TIP3     H2       HT       0.417000       1.00800           0   0.00000     -0.301140E-02
     38501 TIP3     4529     TIP3     OH2      OT      -0.834000       15.9994           0   0.00000       0.00000    
     38502 TIP3     4529     TIP3     H1       HT       0.417000       1.00800           0   0.00000       0.00000    
     38503 TIP3     4529     TIP3     H2       HT       0.417000       1.00800           0   0.00000     -0.301140E-02
     38504 TIP3     4530     TIP3     OH2      OT      -0.834000       15.9994           0   0.00000       0.00000    
     38505 TIP3     4530     TIP3     H1       HT       0.417000       1.00800           0   0.00000       0.00000    
     38506 TIP3     4530     TIP3     H2       HT       0.417000       1.00800           0   0.00000     -0.301140E-02
     38507 TIP3     4531     TIP3     OH2      OT      -0.834000       15.9994           0   0.00000       0.00000    
     38508 TIP3     4531     TIP3     H1       HT       0.417000       1.00800           0   0.00000       0.00000    
     38509 TIP3     4531     TIP3     H2       HT       0.417000       1.00800           0   0.00000     -0.301140E-02
     38510 TIP3     4532     TIP3     OH2      OT      -0.834000       15.9994           0   0.00000       0.00000    
     38511 TIP3     4532     TIP3     H1       HT       0.417000       1.00800           0   0.00000       0.00000    
     38512 TIP3     4532     TIP3     H2       HT       0.417000       1.00800           0   0.00000     -0.301140E-02
     38513 TIP3     4533     TIP3     OH2      OT      -0.834000       15.9994           0   0.00000       0.00000    
     38514 TIP3     4533     TIP3     H1       HT       0.417000       1.00800           0   0.00000       0.00000    
     38515 TIP3     4533     TIP3     H2       HT       0.417000       1.00800           0   0.00000     -0.301140E-02
     38516 TIP3     4534     TIP3     OH2      OT      -0.834000       15.9994           0   0.00000       0.00000    
     38517 TIP3     4534     TIP3     H1       HT       0.417000       1.00800           0   0.00000       0.00000    
     38518 TIP3     4534     TIP3     H2       HT       0.417000       1.00800           0   0.00000     -0.301140E-02
     38519 TIP3     4535     TIP3     OH2      OT      -0.834000       15.9994           0   0.00000       0.00000    
     38520 TIP3     4535     TIP3     H1       HT       0.417000       1.00800           0   0.00000       0.00000    
     38521 TIP3     4535     TIP3     H2       HT       0.417000       1.00800           0   0.00000     -0.301140E-02
     38522 TIP3     4536     TIP3     OH2      OT      -0.834000       15.9994           0   0.00000       0.00000    
     38523 TIP3     4536     TIP3     H1       HT       0.417000       1.00800           0   0.00000       0.00000    
     38524 TIP3     4536     TIP3     H2       HT       0.417000       1.00800           0   0.00000     -0.301140E-02
     38525 TIP3     4537     TIP3     OH2      OT      -0.834000       15.9994           0   0.00000       0.00000    
     38526 TIP3     4537     TIP3     H1       HT       0.417000       1.00800           0   0.00000       0.00000    
     38527 TIP3     4537     TIP3     H2       HT       0.417000       1.00800           0   0.00000     -0.301140E-02
     38528 TIP3     4538     TIP3     OH2      OT      -0.834000       15.9994           0   0.00000       0.00000    
     38529 TIP3     4538     TIP3     H1       HT       0.417000       1.00800           0   0.00000       0.00000    
     38530 TIP3     4538     TIP3     H2       HT       0.417000       1.00800           0   0.00000     -0.301140E-02
     38531 TIP3     4539     TIP3     OH2      OT      -0.834000       15.9994           0   0.00000       0.00000    
     38532 TIP3     4539     TIP3     H1       HT       0.417000       1.00800           0   0.00000       0.00000    
     38533 TIP3     4539     TIP3     H2       HT       0.417000       1.00800           0   0.00000     -0.301140E-02
     38534 TIP3     4540     TIP3     OH2      OT      -0.834000       15.9994           0   0.00000       0.00000    
     38535 TIP3     4540     TIP3     H1       HT       0.417000       1.00800           0   0.00000       0.00000    
     38536 TIP3     4540     TIP3     H2       HT       0.417000       1.00800           0   0.00000     -0.301140E-02
     38537 TIP3     4541     TIP3     OH2      OT      -0.834000       15.9994           0   0.00000       0.00000    
     38538 TIP3     4541     TIP3     H1       HT       0.417000       1.00800           0   0.00000       0.00000    
     38539 TIP3     4541     TIP3     H2       HT       0.417000       1.00800           0   0.00000     -0.301140E-02
     38540 TIP3     4542     TIP3     OH2      OT      -0.834000       15.9994           0   0.00000       0.00000    
     38541 TIP3     4542     TIP3     H1       HT       0.417000       1.00800           0   0.00000       0.00000    
     38542 TIP3     4542     TIP3     H2       HT       0.417000       1.00800           0   0.00000     -0.301140E-02
     38543 TIP3     4543     TIP3     OH2      OT      -0.834000       15.9994           0   0.00000       0.00000    
     38544 TIP3     4543     TIP3     H1       HT       0.417000       1.00800           0   0.00000       0.00000    
     38545 TIP3     4543     TIP3     H2       HT       0.417000       1.00800           0   0.00000     -0.301140E-02
     38546 TIP3     4544     TIP3     OH2      OT      -0.834000       15.9994           0   0.00000       0.00000    
     38547 TIP3     4544     TIP3     H1       HT       0.417000       1.00800           0   0.00000       0.00000    
     38548 TIP3     4544     TIP3     H2       HT       0.417000       1.00800           0   0.00000     -0.301140E-02
     38549 TIP3     4545     TIP3     OH2      OT      -0.834000       15.9994           0   0.00000       0.00000    
     38550 TIP3     4545     TIP3     H1       HT       0.417000       1.00800           0   0.00000       0.00000    
     38551 TIP3     4545     TIP3     H2       HT       0.417000       1.00800           0   0.00000     -0.301140E-02
     38552 TIP3     4546     TIP3     OH2      OT      -0.834000       15.9994           0   0.00000       0.00000    
     38553 TIP3     4546     TIP3     H1       HT       0.417000       1.00800           0   0.00000       0.00000    
     38554 TIP3     4546     TIP3     H2       HT       0.417000       1.00800           0   0.00000     -0.301140E-02
     38555 TIP3     4547     TIP3     OH2      OT      -0.834000       15.9994           0   0.00000       0.00000    
     38556 TIP3     4547     TIP3     H1       HT       0.417000       1.00800           0   0.00000       0.00000    
     38557 TIP3     4547     TIP3     H2       HT       0.417000       1.00800           0   0.00000     -0.301140E-02
     38558 TIP3     4548     TIP3     OH2      OT      -0.834000       15.9994           0   0.00000       0.00000    
     38559 TIP3     4548     TIP3     H1       HT       0.417000       1.00800           0   0.00000       0.00000    
     38560 TIP3     4548     TIP3     H2       HT       0.417000       1.00800           0   0.00000     -0.301140E-02
     38561 TIP3     4549     TIP3     OH2      OT      -0.834000       15.9994           0   0.00000       0.00000    
     38562 TIP3     4549     TIP3     H1       HT       0.417000       1.00800           0   0.00000       0.00000    
     38563 TIP3     4549     TIP3     H2       HT       0.417000       1.00800           0   0.00000     -0.301140E-02
     38564 TIP3     4550     TIP3     OH2      OT      -0.834000       15.9994           0   0.00000       0.00000    
     38565 TIP3     4550     TIP3     H1       HT       0.417000       1.00800           0   0.00000       0.00000    
     38566 TIP3     4550     TIP3     H2       HT       0.417000       1.00800           0   0.00000     -0.301140E-02
     38567 TIP3     4551     TIP3     OH2      OT      -0.834000       15.9994           0   0.00000       0.00000    
     38568 TIP3     4551     TIP3     H1       HT       0.417000       1.00800           0   0.00000       0.00000    
     38569 TIP3     4551     TIP3     H2       HT       0.417000       1.00800           0   0.00000     -0.301140E-02
     38570 TIP3     4552     TIP3     OH2      OT      -0.834000       15.9994           0   0.00000       0.00000    
     38571 TIP3     4552     TIP3     H1       HT       0.417000       1.00800           0   0.00000       0.00000    
     38572 TIP3     4552     TIP3     H2       HT       0.417000       1.00800           0   0.00000     -0.301140E-02
     38573 TIP3     4553     TIP3     OH2      OT      -0.834000       15.9994           0   0.00000       0.00000    
     38574 TIP3     4553     TIP3     H1       HT       0.417000       1.00800           0   0.00000       0.00000    
     38575 TIP3     4553     TIP3     H2       HT       0.417000       1.00800           0   0.00000     -0.301140E-02
     38576 TIP3     4554     TIP3     OH2      OT      -0.834000       15.9994           0   0.00000       0.00000    
     38577 TIP3     4554     TIP3     H1       HT       0.417000       1.00800           0   0.00000       0.00000    
     38578 TIP3     4554     TIP3     H2       HT       0.417000       1.00800           0   0.00000     -0.301140E-02
     38579 TIP3     4555     TIP3     OH2      OT      -0.834000       15.9994           0   0.00000       0.00000    
     38580 TIP3     4555     TIP3     H1       HT       0.417000       1.00800           0   0.00000       0.00000    
     38581 TIP3     4555     TIP3     H2       HT       0.417000       1.00800           0   0.00000     -0.301140E-02
     38582 TIP3     4556     TIP3     OH2      OT      -0.834000       15.9994           0   0.00000       0.00000    
     38583 TIP3     4556     TIP3     H1       HT       0.417000       1.00800           0   0.00000       0.00000    
     38584 TIP3     4556     TIP3     H2       HT       0.417000       1.00800           0   0.00000     -0.301140E-02
     38585 TIP3     4557     TIP3     OH2      OT      -0.834000       15.9994           0   0.00000       0.00000    
     38586 TIP3     4557     TIP3     H1       HT       0.417000       1.00800           0   0.00000       0.00000    
     38587 TIP3     4557     TIP3     H2       HT       0.417000       1.00800           0   0.00000     -0.301140E-02
     38588 TIP3     4558     TIP3     OH2      OT      -0.834000       15.9994           0   0.00000       0.00000    
     38589 TIP3     4558     TIP3     H1       HT       0.417000       1.00800           0   0.00000       0.00000    
     38590 TIP3     4558     TIP3     H2       HT       0.417000       1.00800           0   0.00000     -0.301140E-02
     38591 TIP3     4559     TIP3     OH2      OT      -0.834000       15.9994           0   0.00000       0.00000    
     38592 TIP3     4559     TIP3     H1       HT       0.417000       1.00800           0   0.00000       0.00000    
     38593 TIP3     4559     TIP3     H2       HT       0.417000       1.00800           0   0.00000     -0.301140E-02
     38594 TIP3     4560     TIP3     OH2      OT      -0.834000       15.9994           0   0.00000       0.00000    
     38595 TIP3     4560     TIP3     H1       HT       0.417000       1.00800           0   0.00000       0.00000    
     38596 TIP3     4560     TIP3     H2       HT       0.417000       1.00800           0   0.00000     -0.301140E-02
     38597 TIP3     4561     TIP3     OH2      OT      -0.834000       15.9994           0   0.00000       0.00000    
     38598 TIP3     4561     TIP3     H1       HT       0.417000       1.00800           0   0.00000       0.00000    
     38599 TIP3     4561     TIP3     H2       HT       0.417000       1.00800           0   0.00000     -0.301140E-02
     38600 TIP3     4562     TIP3     OH2      OT      -0.834000       15.9994           0   0.00000       0.00000    
     38601 TIP3     4562     TIP3     H1       HT       0.417000       1.00800           0   0.00000       0.00000    
     38602 TIP3     4562     TIP3     H2       HT       0.417000       1.00800           0   0.00000     -0.301140E-02
     38603 TIP3     4563     TIP3     OH2      OT      -0.834000       15.9994           0   0.00000       0.00000    
     38604 TIP3     4563     TIP3     H1       HT       0.417000       1.00800           0   0.00000       0.00000    
     38605 TIP3     4563     TIP3     H2       HT       0.417000       1.00800           0   0.00000     -0.301140E-02
     38606 TIP3     4564     TIP3     OH2      OT      -0.834000       15.9994           0   0.00000       0.00000    
     38607 TIP3     4564     TIP3     H1       HT       0.417000       1.00800           0   0.00000       0.00000    
     38608 TIP3     4564     TIP3     H2       HT       0.417000       1.00800           0   0.00000     -0.301140E-02
     38609 TIP3     4565     TIP3     OH2      OT      -0.834000       15.9994           0   0.00000       0.00000    
     38610 TIP3     4565     TIP3     H1       HT       0.417000       1.00800           0   0.00000       0.00000    
     38611 TIP3     4565     TIP3     H2       HT       0.417000       1.00800           0   0.00000     -0.301140E-02
     38612 TIP3     4566     TIP3     OH2      OT      -0.834000       15.9994           0   0.00000       0.00000    
     38613 TIP3     4566     TIP3     H1       HT       0.417000       1.00800           0   0.00000       0.00000    
     38614 TIP3     4566     TIP3     H2       HT       0.417000       1.00800           0   0.00000     -0.301140E-02
     38615 TIP3     4567     TIP3     OH2      OT      -0.834000       15.9994           0   0.00000       0.00000    
     38616 TIP3     4567     TIP3     H1       HT       0.417000       1.00800           0   0.00000       0.00000    
     38617 TIP3     4567     TIP3     H2       HT       0.417000       1.00800           0   0.00000     -0.301140E-02
     38618 TIP3     4568     TIP3     OH2      OT      -0.834000       15.9994           0   0.00000       0.00000    
     38619 TIP3     4568     TIP3     H1       HT       0.417000       1.00800           0   0.00000       0.00000    
     38620 TIP3     4568     TIP3     H2       HT       0.417000       1.00800           0   0.00000     -0.301140E-02
     38621 TIP3     4569     TIP3     OH2      OT      -0.834000       15.9994           0   0.00000       0.00000    
     38622 TIP3     4569     TIP3     H1       HT       0.417000       1.00800           0   0.00000       0.00000    
     38623 TIP3     4569     TIP3     H2       HT       0.417000       1.00800           0   0.00000     -0.301140E-02
     38624 TIP3     4570     TIP3     OH2      OT      -0.834000       15.9994           0   0.00000       0.00000    
     38625 TIP3     4570     TIP3     H1       HT       0.417000       1.00800           0   0.00000       0.00000    
     38626 TIP3     4570     TIP3     H2       HT       0.417000       1.00800           0   0.00000     -0.301140E-02
     38627 TIP3     4571     TIP3     OH2      OT      -0.834000       15.9994           0   0.00000       0.00000    
     38628 TIP3     4571     TIP3     H1       HT       0.417000       1.00800           0   0.00000       0.00000    
     38629 TIP3     4571     TIP3     H2       HT       0.417000       1.00800           0   0.00000     -0.301140E-02
     38630 TIP3     4572     TIP3     OH2      OT      -0.834000       15.9994           0   0.00000       0.00000    
     38631 TIP3     4572     TIP3     H1       HT       0.417000       1.00800           0   0.00000       0.00000    
     38632 TIP3     4572     TIP3     H2       HT       0.417000       1.00800           0   0.00000     -0.301140E-02
     38633 TIP3     4573     TIP3     OH2      OT      -0.834000       15.9994           0   0.00000       0.00000    
     38634 TIP3     4573     TIP3     H1       HT       0.417000       1.00800           0   0.00000       0.00000    
     38635 TIP3     4573     TIP3     H2       HT       0.417000       1.00800           0   0.00000     -0.301140E-02
     38636 TIP3     4574     TIP3     OH2      OT      -0.834000       15.9994           0   0.00000       0.00000    
     38637 TIP3     4574     TIP3     H1       HT       0.417000       1.00800           0   0.00000       0.00000    
     38638 TIP3     4574     TIP3     H2       HT       0.417000       1.00800           0   0.00000     -0.301140E-02
     38639 TIP3     4575     TIP3     OH2      OT      -0.834000       15.9994           0   0.00000       0.00000    
     38640 TIP3     4575     TIP3     H1       HT       0.417000       1.00800           0   0.00000       0.00000    
     38641 TIP3     4575     TIP3     H2       HT       0.417000       1.00800           0   0.00000     -0.301140E-02
     38642 TIP3     4576     TIP3     OH2      OT      -0.834000       15.9994           0   0.00000       0.00000    
     38643 TIP3     4576     TIP3     H1       HT       0.417000       1.00800           0   0.00000       0.00000    
     38644 TIP3     4576     TIP3     H2       HT       0.417000       1.00800           0   0.00000     -0.301140E-02
     38645 TIP3     4577     TIP3     OH2      OT      -0.834000       15.9994           0   0.00000       0.00000    
     38646 TIP3     4577     TIP3     H1       HT       0.417000       1.00800           0   0.00000       0.00000    
     38647 TIP3     4577     TIP3     H2       HT       0.417000       1.00800           0   0.00000     -0.301140E-02
     38648 TIP3     4578     TIP3     OH2      OT      -0.834000       15.9994           0   0.00000       0.00000    
     38649 TIP3     4578     TIP3     H1       HT       0.417000       1.00800           0   0.00000       0.00000    
     38650 TIP3     4578     TIP3     H2       HT       0.417000       1.00800           0   0.00000     -0.301140E-02
     38651 TIP3     4579     TIP3     OH2      OT      -0.834000       15.9994           0   0.00000       0.00000    
     38652 TIP3     4579     TIP3     H1       HT       0.417000       1.00800           0   0.00000       0.00000    
     38653 TIP3     4579     TIP3     H2       HT       0.417000       1.00800           0   0.00000     -0.301140E-02
     38654 TIP3     4580     TIP3     OH2      OT      -0.834000       15.9994           0   0.00000       0.00000    
     38655 TIP3     4580     TIP3     H1       HT       0.417000       1.00800           0   0.00000       0.00000    
     38656 TIP3     4580     TIP3     H2       HT       0.417000       1.00800           0   0.00000     -0.301140E-02
     38657 TIP3     4581     TIP3     OH2      OT      -0.834000       15.9994           0   0.00000       0.00000    
     38658 TIP3     4581     TIP3     H1       HT       0.417000       1.00800           0   0.00000       0.00000    
     38659 TIP3     4581     TIP3     H2       HT       0.417000       1.00800           0   0.00000     -0.301140E-02
     38660 TIP3     4582     TIP3     OH2      OT      -0.834000       15.9994           0   0.00000       0.00000    
     38661 TIP3     4582     TIP3     H1       HT       0.417000       1.00800           0   0.00000       0.00000    
     38662 TIP3     4582     TIP3     H2       HT       0.417000       1.00800           0   0.00000     -0.301140E-02
     38663 TIP3     4583     TIP3     OH2      OT      -0.834000       15.9994           0   0.00000       0.00000    
     38664 TIP3     4583     TIP3     H1       HT       0.417000       1.00800           0   0.00000       0.00000    
     38665 TIP3     4583     TIP3     H2       HT       0.417000       1.00800           0   0.00000     -0.301140E-02
     38666 TIP3     4584     TIP3     OH2      OT      -0.834000       15.9994           0   0.00000       0.00000    
     38667 TIP3     4584     TIP3     H1       HT       0.417000       1.00800           0   0.00000       0.00000    
     38668 TIP3     4584     TIP3     H2       HT       0.417000       1.00800           0   0.00000     -0.301140E-02
     38669 TIP3     4585     TIP3     OH2      OT      -0.834000       15.9994           0   0.00000       0.00000    
     38670 TIP3     4585     TIP3     H1       HT       0.417000       1.00800           0   0.00000       0.00000    
     38671 TIP3     4585     TIP3     H2       HT       0.417000       1.00800           0   0.00000     -0.301140E-02
     38672 TIP3     4586     TIP3     OH2      OT      -0.834000       15.9994           0   0.00000       0.00000    
     38673 TIP3     4586     TIP3     H1       HT       0.417000       1.00800           0   0.00000       0.00000    
     38674 TIP3     4586     TIP3     H2       HT       0.417000       1.00800           0   0.00000     -0.301140E-02
     38675 TIP3     4587     TIP3     OH2      OT      -0.834000       15.9994           0   0.00000       0.00000    
     38676 TIP3     4587     TIP3     H1       HT       0.417000       1.00800           0   0.00000       0.00000    
     38677 TIP3     4587     TIP3     H2       HT       0.417000       1.00800           0   0.00000     -0.301140E-02
     38678 TIP3     4588     TIP3     OH2      OT      -0.834000       15.9994           0   0.00000       0.00000    
     38679 TIP3     4588     TIP3     H1       HT       0.417000       1.00800           0   0.00000       0.00000    
     38680 TIP3     4588     TIP3     H2       HT       0.417000       1.00800           0   0.00000     -0.301140E-02
     38681 TIP3     4589     TIP3     OH2      OT      -0.834000       15.9994           0   0.00000       0.00000    
     38682 TIP3     4589     TIP3     H1       HT       0.417000       1.00800           0   0.00000       0.00000    
     38683 TIP3     4589     TIP3     H2       HT       0.417000       1.00800           0   0.00000     -0.301140E-02
     38684 TIP3     4590     TIP3     OH2      OT      -0.834000       15.9994           0   0.00000       0.00000    
     38685 TIP3     4590     TIP3     H1       HT       0.417000       1.00800           0   0.00000       0.00000    
     38686 TIP3     4590     TIP3     H2       HT       0.417000       1.00800           0   0.00000     -0.301140E-02
     38687 TIP3     4591     TIP3     OH2      OT      -0.834000       15.9994           0   0.00000       0.00000    
     38688 TIP3     4591     TIP3     H1       HT       0.417000       1.00800           0   0.00000       0.00000    
     38689 TIP3     4591     TIP3     H2       HT       0.417000       1.00800           0   0.00000     -0.301140E-02
     38690 TIP3     4592     TIP3     OH2      OT      -0.834000       15.9994           0   0.00000       0.00000    
     38691 TIP3     4592     TIP3     H1       HT       0.417000       1.00800           0   0.00000       0.00000    
     38692 TIP3     4592     TIP3     H2       HT       0.417000       1.00800           0   0.00000     -0.301140E-02
     38693 TIP3     4593     TIP3     OH2      OT      -0.834000       15.9994           0   0.00000       0.00000    
     38694 TIP3     4593     TIP3     H1       HT       0.417000       1.00800           0   0.00000       0.00000    
     38695 TIP3     4593     TIP3     H2       HT       0.417000       1.00800           0   0.00000     -0.301140E-02
     38696 TIP3     4594     TIP3     OH2      OT      -0.834000       15.9994           0   0.00000       0.00000    
     38697 TIP3     4594     TIP3     H1       HT       0.417000       1.00800           0   0.00000       0.00000    
     38698 TIP3     4594     TIP3     H2       HT       0.417000       1.00800           0   0.00000     -0.301140E-02
     38699 TIP3     4595     TIP3     OH2      OT      -0.834000       15.9994           0   0.00000       0.00000    
     38700 TIP3     4595     TIP3     H1       HT       0.417000       1.00800           0   0.00000       0.00000    
     38701 TIP3     4595     TIP3     H2       HT       0.417000       1.00800           0   0.00000     -0.301140E-02
     38702 TIP3     4596     TIP3     OH2      OT      -0.834000       15.9994           0   0.00000       0.00000    
     38703 TIP3     4596     TIP3     H1       HT       0.417000       1.00800           0   0.00000       0.00000    
     38704 TIP3     4596     TIP3     H2       HT       0.417000       1.00800           0   0.00000     -0.301140E-02
     38705 TIP3     4597     TIP3     OH2      OT      -0.834000       15.9994           0   0.00000       0.00000    
     38706 TIP3     4597     TIP3     H1       HT       0.417000       1.00800           0   0.00000       0.00000    
     38707 TIP3     4597     TIP3     H2       HT       0.417000       1.00800           0   0.00000     -0.301140E-02
     38708 TIP3     4598     TIP3     OH2      OT      -0.834000       15.9994           0   0.00000       0.00000    
     38709 TIP3     4598     TIP3     H1       HT       0.417000       1.00800           0   0.00000       0.00000    
     38710 TIP3     4598     TIP3     H2       HT       0.417000       1.00800           0   0.00000     -0.301140E-02
     38711 TIP3     4599     TIP3     OH2      OT      -0.834000       15.9994           0   0.00000       0.00000    
     38712 TIP3     4599     TIP3     H1       HT       0.417000       1.00800           0   0.00000       0.00000    
     38713 TIP3     4599     TIP3     H2       HT       0.417000       1.00800           0   0.00000     -0.301140E-02
     38714 TIP3     4600     TIP3     OH2      OT      -0.834000       15.9994           0   0.00000       0.00000    
     38715 TIP3     4600     TIP3     H1       HT       0.417000       1.00800           0   0.00000       0.00000    
     38716 TIP3     4600     TIP3     H2       HT       0.417000       1.00800           0   0.00000     -0.301140E-02
     38717 TIP3     4601     TIP3     OH2      OT      -0.834000       15.9994           0   0.00000       0.00000    
     38718 TIP3     4601     TIP3     H1       HT       0.417000       1.00800           0   0.00000       0.00000    
     38719 TIP3     4601     TIP3     H2       HT       0.417000       1.00800           0   0.00000     -0.301140E-02
     38720 TIP3     4602     TIP3     OH2      OT      -0.834000       15.9994           0   0.00000       0.00000    
     38721 TIP3     4602     TIP3     H1       HT       0.417000       1.00800           0   0.00000       0.00000    
     38722 TIP3     4602     TIP3     H2       HT       0.417000       1.00800           0   0.00000     -0.301140E-02
     38723 TIP3     4603     TIP3     OH2      OT      -0.834000       15.9994           0   0.00000       0.00000    
     38724 TIP3     4603     TIP3     H1       HT       0.417000       1.00800           0   0.00000       0.00000    
     38725 TIP3     4603     TIP3     H2       HT       0.417000       1.00800           0   0.00000     -0.301140E-02
     38726 TIP3     4604     TIP3     OH2      OT      -0.834000       15.9994           0   0.00000       0.00000    
     38727 TIP3     4604     TIP3     H1       HT       0.417000       1.00800           0   0.00000       0.00000    
     38728 TIP3     4604     TIP3     H2       HT       0.417000       1.00800           0   0.00000     -0.301140E-02
     38729 TIP3     4605     TIP3     OH2      OT      -0.834000       15.9994           0   0.00000       0.00000    
     38730 TIP3     4605     TIP3     H1       HT       0.417000       1.00800           0   0.00000       0.00000    
     38731 TIP3     4605     TIP3     H2       HT       0.417000       1.00800           0   0.00000     -0.301140E-02
     38732 TIP3     4606     TIP3     OH2      OT      -0.834000       15.9994           0   0.00000       0.00000    
     38733 TIP3     4606     TIP3     H1       HT       0.417000       1.00800           0   0.00000       0.00000    
     38734 TIP3     4606     TIP3     H2       HT       0.417000       1.00800           0   0.00000     -0.301140E-02
     38735 TIP3     4607     TIP3     OH2      OT      -0.834000       15.9994           0   0.00000       0.00000    
     38736 TIP3     4607     TIP3     H1       HT       0.417000       1.00800           0   0.00000       0.00000    
     38737 TIP3     4607     TIP3     H2       HT       0.417000       1.00800           0   0.00000     -0.301140E-02
     38738 TIP3     4608     TIP3     OH2      OT      -0.834000       15.9994           0   0.00000       0.00000    
     38739 TIP3     4608     TIP3     H1       HT       0.417000       1.00800           0   0.00000       0.00000    
     38740 TIP3     4608     TIP3     H2       HT       0.417000       1.00800           0   0.00000     -0.301140E-02
     38741 TIP3     4609     TIP3     OH2      OT      -0.834000       15.9994           0   0.00000       0.00000    
     38742 TIP3     4609     TIP3     H1       HT       0.417000       1.00800           0   0.00000       0.00000    
     38743 TIP3     4609     TIP3     H2       HT       0.417000       1.00800           0   0.00000     -0.301140E-02
     38744 TIP3     4610     TIP3     OH2      OT      -0.834000       15.9994           0   0.00000       0.00000    
     38745 TIP3     4610     TIP3     H1       HT       0.417000       1.00800           0   0.00000       0.00000    
     38746 TIP3     4610     TIP3     H2       HT       0.417000       1.00800           0   0.00000     -0.301140E-02
     38747 TIP3     4611     TIP3     OH2      OT      -0.834000       15.9994           0   0.00000       0.00000    
     38748 TIP3     4611     TIP3     H1       HT       0.417000       1.00800           0   0.00000       0.00000    
     38749 TIP3     4611     TIP3     H2       HT       0.417000       1.00800           0   0.00000     -0.301140E-02
     38750 TIP3     4612     TIP3     OH2      OT      -0.834000       15.9994           0   0.00000       0.00000    
     38751 TIP3     4612     TIP3     H1       HT       0.417000       1.00800           0   0.00000       0.00000    
     38752 TIP3     4612     TIP3     H2       HT       0.417000       1.00800           0   0.00000     -0.301140E-02
     38753 TIP3     4613     TIP3     OH2      OT      -0.834000       15.9994           0   0.00000       0.00000    
     38754 TIP3     4613     TIP3     H1       HT       0.417000       1.00800           0   0.00000       0.00000    
     38755 TIP3     4613     TIP3     H2       HT       0.417000       1.00800           0   0.00000     -0.301140E-02
     38756 TIP3     4614     TIP3     OH2      OT      -0.834000       15.9994           0   0.00000       0.00000    
     38757 TIP3     4614     TIP3     H1       HT       0.417000       1.00800           0   0.00000       0.00000    
     38758 TIP3     4614     TIP3     H2       HT       0.417000       1.00800           0   0.00000     -0.301140E-02
     38759 TIP3     4615     TIP3     OH2      OT      -0.834000       15.9994           0   0.00000       0.00000    
     38760 TIP3     4615     TIP3     H1       HT       0.417000       1.00800           0   0.00000       0.00000    
     38761 TIP3     4615     TIP3     H2       HT       0.417000       1.00800           0   0.00000     -0.301140E-02
     38762 TIP3     4616     TIP3     OH2      OT      -0.834000       15.9994           0   0.00000       0.00000    
     38763 TIP3     4616     TIP3     H1       HT       0.417000       1.00800           0   0.00000       0.00000    
     38764 TIP3     4616     TIP3     H2       HT       0.417000       1.00800           0   0.00000     -0.301140E-02
     38765 TIP3     4617     TIP3     OH2      OT      -0.834000       15.9994           0   0.00000       0.00000    
     38766 TIP3     4617     TIP3     H1       HT       0.417000       1.00800           0   0.00000       0.00000    
     38767 TIP3     4617     TIP3     H2       HT       0.417000       1.00800           0   0.00000     -0.301140E-02
     38768 TIP3     4618     TIP3     OH2      OT      -0.834000       15.9994           0   0.00000       0.00000    
     38769 TIP3     4618     TIP3     H1       HT       0.417000       1.00800           0   0.00000       0.00000    
     38770 TIP3     4618     TIP3     H2       HT       0.417000       1.00800           0   0.00000     -0.301140E-02
     38771 TIP3     4619     TIP3     OH2      OT      -0.834000       15.9994           0   0.00000       0.00000    
     38772 TIP3     4619     TIP3     H1       HT       0.417000       1.00800           0   0.00000       0.00000    
     38773 TIP3     4619     TIP3     H2       HT       0.417000       1.00800           0   0.00000     -0.301140E-02
     38774 TIP3     4620     TIP3     OH2      OT      -0.834000       15.9994           0   0.00000       0.00000    
     38775 TIP3     4620     TIP3     H1       HT       0.417000       1.00800           0   0.00000       0.00000    
     38776 TIP3     4620     TIP3     H2       HT       0.417000       1.00800           0   0.00000     -0.301140E-02
     38777 TIP3     4621     TIP3     OH2      OT      -0.834000       15.9994           0   0.00000       0.00000    
     38778 TIP3     4621     TIP3     H1       HT       0.417000       1.00800           0   0.00000       0.00000    
     38779 TIP3     4621     TIP3     H2       HT       0.417000       1.00800           0   0.00000     -0.301140E-02
     38780 TIP3     4622     TIP3     OH2      OT      -0.834000       15.9994           0   0.00000       0.00000    
     38781 TIP3     4622     TIP3     H1       HT       0.417000       1.00800           0   0.00000       0.00000    
     38782 TIP3     4622     TIP3     H2       HT       0.417000       1.00800           0   0.00000     -0.301140E-02
     38783 TIP3     4623     TIP3     OH2      OT      -0.834000       15.9994           0   0.00000       0.00000    
     38784 TIP3     4623     TIP3     H1       HT       0.417000       1.00800           0   0.00000       0.00000    
     38785 TIP3     4623     TIP3     H2       HT       0.417000       1.00800           0   0.00000     -0.301140E-02
     38786 TIP3     4624     TIP3     OH2      OT      -0.834000       15.9994           0   0.00000       0.00000    
     38787 TIP3     4624     TIP3     H1       HT       0.417000       1.00800           0   0.00000       0.00000    
     38788 TIP3     4624     TIP3     H2       HT       0.417000       1.00800           0   0.00000     -0.301140E-02
     38789 TIP3     4625     TIP3     OH2      OT      -0.834000       15.9994           0   0.00000       0.00000    
     38790 TIP3     4625     TIP3     H1       HT       0.417000       1.00800           0   0.00000       0.00000    
     38791 TIP3     4625     TIP3     H2       HT       0.417000       1.00800           0   0.00000     -0.301140E-02
     38792 TIP3     4626     TIP3     OH2      OT      -0.834000       15.9994           0   0.00000       0.00000    
     38793 TIP3     4626     TIP3     H1       HT       0.417000       1.00800           0   0.00000       0.00000    
     38794 TIP3     4626     TIP3     H2       HT       0.417000       1.00800           0   0.00000     -0.301140E-02
     38795 TIP3     4627     TIP3     OH2      OT      -0.834000       15.9994           0   0.00000       0.00000    
     38796 TIP3     4627     TIP3     H1       HT       0.417000       1.00800           0   0.00000       0.00000    
     38797 TIP3     4627     TIP3     H2       HT       0.417000       1.00800           0   0.00000     -0.301140E-02
     38798 TIP3     4628     TIP3     OH2      OT      -0.834000       15.9994           0   0.00000       0.00000    
     38799 TIP3     4628     TIP3     H1       HT       0.417000       1.00800           0   0.00000       0.00000    
     38800 TIP3     4628     TIP3     H2       HT       0.417000       1.00800           0   0.00000     -0.301140E-02
     38801 TIP3     4629     TIP3     OH2      OT      -0.834000       15.9994           0   0.00000       0.00000    
     38802 TIP3     4629     TIP3     H1       HT       0.417000       1.00800           0   0.00000       0.00000    
     38803 TIP3     4629     TIP3     H2       HT       0.417000       1.00800           0   0.00000     -0.301140E-02
     38804 TIP3     4630     TIP3     OH2      OT      -0.834000       15.9994           0   0.00000       0.00000    
     38805 TIP3     4630     TIP3     H1       HT       0.417000       1.00800           0   0.00000       0.00000    
     38806 TIP3     4630     TIP3     H2       HT       0.417000       1.00800           0   0.00000     -0.301140E-02
     38807 TIP3     4631     TIP3     OH2      OT      -0.834000       15.9994           0   0.00000       0.00000    
     38808 TIP3     4631     TIP3     H1       HT       0.417000       1.00800           0   0.00000       0.00000    
     38809 TIP3     4631     TIP3     H2       HT       0.417000       1.00800           0   0.00000     -0.301140E-02
     38810 TIP3     4632     TIP3     OH2      OT      -0.834000       15.9994           0   0.00000       0.00000    
     38811 TIP3     4632     TIP3     H1       HT       0.417000       1.00800           0   0.00000       0.00000    
     38812 TIP3     4632     TIP3     H2       HT       0.417000       1.00800           0   0.00000     -0.301140E-02
     38813 TIP3     4633     TIP3     OH2      OT      -0.834000       15.9994           0   0.00000       0.00000    
     38814 TIP3     4633     TIP3     H1       HT       0.417000       1.00800           0   0.00000       0.00000    
     38815 TIP3     4633     TIP3     H2       HT       0.417000       1.00800           0   0.00000     -0.301140E-02
     38816 TIP3     4634     TIP3     OH2      OT      -0.834000       15.9994           0   0.00000       0.00000    
     38817 TIP3     4634     TIP3     H1       HT       0.417000       1.00800           0   0.00000       0.00000    
     38818 TIP3     4634     TIP3     H2       HT       0.417000       1.00800           0   0.00000     -0.301140E-02
     38819 TIP3     4635     TIP3     OH2      OT      -0.834000       15.9994           0   0.00000       0.00000    
     38820 TIP3     4635     TIP3     H1       HT       0.417000       1.00800           0   0.00000       0.00000    
     38821 TIP3     4635     TIP3     H2       HT       0.417000       1.00800           0   0.00000     -0.301140E-02
     38822 TIP3     4636     TIP3     OH2      OT      -0.834000       15.9994           0   0.00000       0.00000    
     38823 TIP3     4636     TIP3     H1       HT       0.417000       1.00800           0   0.00000       0.00000    
     38824 TIP3     4636     TIP3     H2       HT       0.417000       1.00800           0   0.00000     -0.301140E-02
     38825 TIP3     4637     TIP3     OH2      OT      -0.834000       15.9994           0   0.00000       0.00000    
     38826 TIP3     4637     TIP3     H1       HT       0.417000       1.00800           0   0.00000       0.00000    
     38827 TIP3     4637     TIP3     H2       HT       0.417000       1.00800           0   0.00000     -0.301140E-02
     38828 TIP3     4638     TIP3     OH2      OT      -0.834000       15.9994           0   0.00000       0.00000    
     38829 TIP3     4638     TIP3     H1       HT       0.417000       1.00800           0   0.00000       0.00000    
     38830 TIP3     4638     TIP3     H2       HT       0.417000       1.00800           0   0.00000     -0.301140E-02
     38831 TIP3     4639     TIP3     OH2      OT      -0.834000       15.9994           0   0.00000       0.00000    
     38832 TIP3     4639     TIP3     H1       HT       0.417000       1.00800           0   0.00000       0.00000    
     38833 TIP3     4639     TIP3     H2       HT       0.417000       1.00800           0   0.00000     -0.301140E-02
     38834 TIP3     4640     TIP3     OH2      OT      -0.834000       15.9994           0   0.00000       0.00000    
     38835 TIP3     4640     TIP3     H1       HT       0.417000       1.00800           0   0.00000       0.00000    
     38836 TIP3     4640     TIP3     H2       HT       0.417000       1.00800           0   0.00000     -0.301140E-02
     38837 TIP3     4641     TIP3     OH2      OT      -0.834000       15.9994           0   0.00000       0.00000    
     38838 TIP3     4641     TIP3     H1       HT       0.417000       1.00800           0   0.00000       0.00000    
     38839 TIP3     4641     TIP3     H2       HT       0.417000       1.00800           0   0.00000     -0.301140E-02
     38840 TIP3     4642     TIP3     OH2      OT      -0.834000       15.9994           0   0.00000       0.00000    
     38841 TIP3     4642     TIP3     H1       HT       0.417000       1.00800           0   0.00000       0.00000    
     38842 TIP3     4642     TIP3     H2       HT       0.417000       1.00800           0   0.00000     -0.301140E-02
     38843 TIP3     4643     TIP3     OH2      OT      -0.834000       15.9994           0   0.00000       0.00000    
     38844 TIP3     4643     TIP3     H1       HT       0.417000       1.00800           0   0.00000       0.00000    
     38845 TIP3     4643     TIP3     H2       HT       0.417000       1.00800           0   0.00000     -0.301140E-02
     38846 TIP3     4644     TIP3     OH2      OT      -0.834000       15.9994           0   0.00000       0.00000    
     38847 TIP3     4644     TIP3     H1       HT       0.417000       1.00800           0   0.00000       0.00000    
     38848 TIP3     4644     TIP3     H2       HT       0.417000       1.00800           0   0.00000     -0.301140E-02
     38849 TIP3     4645     TIP3     OH2      OT      -0.834000       15.9994           0   0.00000       0.00000    
     38850 TIP3     4645     TIP3     H1       HT       0.417000       1.00800           0   0.00000       0.00000    
     38851 TIP3     4645     TIP3     H2       HT       0.417000       1.00800           0   0.00000     -0.301140E-02
     38852 TIP3     4646     TIP3     OH2      OT      -0.834000       15.9994           0   0.00000       0.00000    
     38853 TIP3     4646     TIP3     H1       HT       0.417000       1.00800           0   0.00000       0.00000    
     38854 TIP3     4646     TIP3     H2       HT       0.417000       1.00800           0   0.00000     -0.301140E-02
     38855 TIP3     4647     TIP3     OH2      OT      -0.834000       15.9994           0   0.00000       0.00000    
     38856 TIP3     4647     TIP3     H1       HT       0.417000       1.00800           0   0.00000       0.00000    
     38857 TIP3     4647     TIP3     H2       HT       0.417000       1.00800           0   0.00000     -0.301140E-02
     38858 TIP3     4648     TIP3     OH2      OT      -0.834000       15.9994           0   0.00000       0.00000    
     38859 TIP3     4648     TIP3     H1       HT       0.417000       1.00800           0   0.00000       0.00000    
     38860 TIP3     4648     TIP3     H2       HT       0.417000       1.00800           0   0.00000     -0.301140E-02
     38861 TIP3     4649     TIP3     OH2      OT      -0.834000       15.9994           0   0.00000       0.00000    
     38862 TIP3     4649     TIP3     H1       HT       0.417000       1.00800           0   0.00000       0.00000    
     38863 TIP3     4649     TIP3     H2       HT       0.417000       1.00800           0   0.00000     -0.301140E-02
     38864 TIP3     4650     TIP3     OH2      OT      -0.834000       15.9994           0   0.00000       0.00000    
     38865 TIP3     4650     TIP3     H1       HT       0.417000       1.00800           0   0.00000       0.00000    
     38866 TIP3     4650     TIP3     H2       HT       0.417000       1.00800           0   0.00000     -0.301140E-02
     38867 TIP3     4651     TIP3     OH2      OT      -0.834000       15.9994           0   0.00000       0.00000    
     38868 TIP3     4651     TIP3     H1       HT       0.417000       1.00800           0   0.00000       0.00000    
     38869 TIP3     4651     TIP3     H2       HT       0.417000       1.00800           0   0.00000     -0.301140E-02
     38870 TIP3     4652     TIP3     OH2      OT      -0.834000       15.9994           0   0.00000       0.00000    
     38871 TIP3     4652     TIP3     H1       HT       0.417000       1.00800           0   0.00000       0.00000    
     38872 TIP3     4652     TIP3     H2       HT       0.417000       1.00800           0   0.00000     -0.301140E-02
     38873 TIP3     4653     TIP3     OH2      OT      -0.834000       15.9994           0   0.00000       0.00000    
     38874 TIP3     4653     TIP3     H1       HT       0.417000       1.00800           0   0.00000       0.00000    
     38875 TIP3     4653     TIP3     H2       HT       0.417000       1.00800           0   0.00000     -0.301140E-02
     38876 TIP3     4654     TIP3     OH2      OT      -0.834000       15.9994           0   0.00000       0.00000    
     38877 TIP3     4654     TIP3     H1       HT       0.417000       1.00800           0   0.00000       0.00000    
     38878 TIP3     4654     TIP3     H2       HT       0.417000       1.00800           0   0.00000     -0.301140E-02
     38879 TIP3     4655     TIP3     OH2      OT      -0.834000       15.9994           0   0.00000       0.00000    
     38880 TIP3     4655     TIP3     H1       HT       0.417000       1.00800           0   0.00000       0.00000    
     38881 TIP3     4655     TIP3     H2       HT       0.417000       1.00800           0   0.00000     -0.301140E-02
     38882 TIP3     4656     TIP3     OH2      OT      -0.834000       15.9994           0   0.00000       0.00000    
     38883 TIP3     4656     TIP3     H1       HT       0.417000       1.00800           0   0.00000       0.00000    
     38884 TIP3     4656     TIP3     H2       HT       0.417000       1.00800           0   0.00000     -0.301140E-02
     38885 TIP3     4657     TIP3     OH2      OT      -0.834000       15.9994           0   0.00000       0.00000    
     38886 TIP3     4657     TIP3     H1       HT       0.417000       1.00800           0   0.00000       0.00000    
     38887 TIP3     4657     TIP3     H2       HT       0.417000       1.00800           0   0.00000     -0.301140E-02
     38888 TIP3     4658     TIP3     OH2      OT      -0.834000       15.9994           0   0.00000       0.00000    
     38889 TIP3     4658     TIP3     H1       HT       0.417000       1.00800           0   0.00000       0.00000    
     38890 TIP3     4658     TIP3     H2       HT       0.417000       1.00800           0   0.00000     -0.301140E-02
     38891 TIP3     4659     TIP3     OH2      OT      -0.834000       15.9994           0   0.00000       0.00000    
     38892 TIP3     4659     TIP3     H1       HT       0.417000       1.00800           0   0.00000       0.00000    
     38893 TIP3     4659     TIP3     H2       HT       0.417000       1.00800           0   0.00000     -0.301140E-02
     38894 TIP3     4660     TIP3     OH2      OT      -0.834000       15.9994           0   0.00000       0.00000    
     38895 TIP3     4660     TIP3     H1       HT       0.417000       1.00800           0   0.00000       0.00000    
     38896 TIP3     4660     TIP3     H2       HT       0.417000       1.00800           0   0.00000     -0.301140E-02
     38897 TIP3     4661     TIP3     OH2      OT      -0.834000       15.9994           0   0.00000       0.00000    
     38898 TIP3     4661     TIP3     H1       HT       0.417000       1.00800           0   0.00000       0.00000    
     38899 TIP3     4661     TIP3     H2       HT       0.417000       1.00800           0   0.00000     -0.301140E-02
     38900 TIP3     4662     TIP3     OH2      OT      -0.834000       15.9994           0   0.00000       0.00000    
     38901 TIP3     4662     TIP3     H1       HT       0.417000       1.00800           0   0.00000       0.00000    
     38902 TIP3     4662     TIP3     H2       HT       0.417000       1.00800           0   0.00000     -0.301140E-02
     38903 TIP3     4663     TIP3     OH2      OT      -0.834000       15.9994           0   0.00000       0.00000    
     38904 TIP3     4663     TIP3     H1       HT       0.417000       1.00800           0   0.00000       0.00000    
     38905 TIP3     4663     TIP3     H2       HT       0.417000       1.00800           0   0.00000     -0.301140E-02
     38906 TIP3     4664     TIP3     OH2      OT      -0.834000       15.9994           0   0.00000       0.00000    
     38907 TIP3     4664     TIP3     H1       HT       0.417000       1.00800           0   0.00000       0.00000    
     38908 TIP3     4664     TIP3     H2       HT       0.417000       1.00800           0   0.00000     -0.301140E-02
     38909 TIP3     4665     TIP3     OH2      OT      -0.834000       15.9994           0   0.00000       0.00000    
     38910 TIP3     4665     TIP3     H1       HT       0.417000       1.00800           0   0.00000       0.00000    
     38911 TIP3     4665     TIP3     H2       HT       0.417000       1.00800           0   0.00000     -0.301140E-02
     38912 TIP3     4666     TIP3     OH2      OT      -0.834000       15.9994           0   0.00000       0.00000    
     38913 TIP3     4666     TIP3     H1       HT       0.417000       1.00800           0   0.00000       0.00000    
     38914 TIP3     4666     TIP3     H2       HT       0.417000       1.00800           0   0.00000     -0.301140E-02
     38915 TIP3     4667     TIP3     OH2      OT      -0.834000       15.9994           0   0.00000       0.00000    
     38916 TIP3     4667     TIP3     H1       HT       0.417000       1.00800           0   0.00000       0.00000    
     38917 TIP3     4667     TIP3     H2       HT       0.417000       1.00800           0   0.00000     -0.301140E-02
     38918 TIP3     4668     TIP3     OH2      OT      -0.834000       15.9994           0   0.00000       0.00000    
     38919 TIP3     4668     TIP3     H1       HT       0.417000       1.00800           0   0.00000       0.00000    
     38920 TIP3     4668     TIP3     H2       HT       0.417000       1.00800           0   0.00000     -0.301140E-02
     38921 TIP3     4669     TIP3     OH2      OT      -0.834000       15.9994           0   0.00000       0.00000    
     38922 TIP3     4669     TIP3     H1       HT       0.417000       1.00800           0   0.00000       0.00000    
     38923 TIP3     4669     TIP3     H2       HT       0.417000       1.00800           0   0.00000     -0.301140E-02
     38924 TIP3     4670     TIP3     OH2      OT      -0.834000       15.9994           0   0.00000       0.00000    
     38925 TIP3     4670     TIP3     H1       HT       0.417000       1.00800           0   0.00000       0.00000    
     38926 TIP3     4670     TIP3     H2       HT       0.417000       1.00800           0   0.00000     -0.301140E-02
     38927 TIP3     4671     TIP3     OH2      OT      -0.834000       15.9994           0   0.00000       0.00000    
     38928 TIP3     4671     TIP3     H1       HT       0.417000       1.00800           0   0.00000       0.00000    
     38929 TIP3     4671     TIP3     H2       HT       0.417000       1.00800           0   0.00000     -0.301140E-02
     38930 TIP3     4672     TIP3     OH2      OT      -0.834000       15.9994           0   0.00000       0.00000    
     38931 TIP3     4672     TIP3     H1       HT       0.417000       1.00800           0   0.00000       0.00000    
     38932 TIP3     4672     TIP3     H2       HT       0.417000       1.00800           0   0.00000     -0.301140E-02
     38933 TIP3     4673     TIP3     OH2      OT      -0.834000       15.9994           0   0.00000       0.00000    
     38934 TIP3     4673     TIP3     H1       HT       0.417000       1.00800           0   0.00000       0.00000    
     38935 TIP3     4673     TIP3     H2       HT       0.417000       1.00800           0   0.00000     -0.301140E-02
     38936 TIP3     4674     TIP3     OH2      OT      -0.834000       15.9994           0   0.00000       0.00000    
     38937 TIP3     4674     TIP3     H1       HT       0.417000       1.00800           0   0.00000       0.00000    
     38938 TIP3     4674     TIP3     H2       HT       0.417000       1.00800           0   0.00000     -0.301140E-02
     38939 TIP3     4675     TIP3     OH2      OT      -0.834000       15.9994           0   0.00000       0.00000    
     38940 TIP3     4675     TIP3     H1       HT       0.417000       1.00800           0   0.00000       0.00000    
     38941 TIP3     4675     TIP3     H2       HT       0.417000       1.00800           0   0.00000     -0.301140E-02
     38942 TIP3     4676     TIP3     OH2      OT      -0.834000       15.9994           0   0.00000       0.00000    
     38943 TIP3     4676     TIP3     H1       HT       0.417000       1.00800           0   0.00000       0.00000    
     38944 TIP3     4676     TIP3     H2       HT       0.417000       1.00800           0   0.00000     -0.301140E-02
     38945 TIP3     4677     TIP3     OH2      OT      -0.834000       15.9994           0   0.00000       0.00000    
     38946 TIP3     4677     TIP3     H1       HT       0.417000       1.00800           0   0.00000       0.00000    
     38947 TIP3     4677     TIP3     H2       HT       0.417000       1.00800           0   0.00000     -0.301140E-02
     38948 TIP3     4678     TIP3     OH2      OT      -0.834000       15.9994           0   0.00000       0.00000    
     38949 TIP3     4678     TIP3     H1       HT       0.417000       1.00800           0   0.00000       0.00000    
     38950 TIP3     4678     TIP3     H2       HT       0.417000       1.00800           0   0.00000     -0.301140E-02
     38951 TIP3     4679     TIP3     OH2      OT      -0.834000       15.9994           0   0.00000       0.00000    
     38952 TIP3     4679     TIP3     H1       HT       0.417000       1.00800           0   0.00000       0.00000    
     38953 TIP3     4679     TIP3     H2       HT       0.417000       1.00800           0   0.00000     -0.301140E-02
     38954 TIP3     4680     TIP3     OH2      OT      -0.834000       15.9994           0   0.00000       0.00000    
     38955 TIP3     4680     TIP3     H1       HT       0.417000       1.00800           0   0.00000       0.00000    
     38956 TIP3     4680     TIP3     H2       HT       0.417000       1.00800           0   0.00000     -0.301140E-02
     38957 TIP3     4681     TIP3     OH2      OT      -0.834000       15.9994           0   0.00000       0.00000    
     38958 TIP3     4681     TIP3     H1       HT       0.417000       1.00800           0   0.00000       0.00000    
     38959 TIP3     4681     TIP3     H2       HT       0.417000       1.00800           0   0.00000     -0.301140E-02
     38960 TIP3     4682     TIP3     OH2      OT      -0.834000       15.9994           0   0.00000       0.00000    
     38961 TIP3     4682     TIP3     H1       HT       0.417000       1.00800           0   0.00000       0.00000    
     38962 TIP3     4682     TIP3     H2       HT       0.417000       1.00800           0   0.00000     -0.301140E-02
     38963 TIP3     4683     TIP3     OH2      OT      -0.834000       15.9994           0   0.00000       0.00000    
     38964 TIP3     4683     TIP3     H1       HT       0.417000       1.00800           0   0.00000       0.00000    
     38965 TIP3     4683     TIP3     H2       HT       0.417000       1.00800           0   0.00000     -0.301140E-02
     38966 TIP3     4684     TIP3     OH2      OT      -0.834000       15.9994           0   0.00000       0.00000    
     38967 TIP3     4684     TIP3     H1       HT       0.417000       1.00800           0   0.00000       0.00000    
     38968 TIP3     4684     TIP3     H2       HT       0.417000       1.00800           0   0.00000     -0.301140E-02
     38969 TIP3     4685     TIP3     OH2      OT      -0.834000       15.9994           0   0.00000       0.00000    
     38970 TIP3     4685     TIP3     H1       HT       0.417000       1.00800           0   0.00000       0.00000    
     38971 TIP3     4685     TIP3     H2       HT       0.417000       1.00800           0   0.00000     -0.301140E-02
     38972 TIP3     4686     TIP3     OH2      OT      -0.834000       15.9994           0   0.00000       0.00000    
     38973 TIP3     4686     TIP3     H1       HT       0.417000       1.00800           0   0.00000       0.00000    
     38974 TIP3     4686     TIP3     H2       HT       0.417000       1.00800           0   0.00000     -0.301140E-02
     38975 TIP3     4687     TIP3     OH2      OT      -0.834000       15.9994           0   0.00000       0.00000    
     38976 TIP3     4687     TIP3     H1       HT       0.417000       1.00800           0   0.00000       0.00000    
     38977 TIP3     4687     TIP3     H2       HT       0.417000       1.00800           0   0.00000     -0.301140E-02
     38978 TIP3     4688     TIP3     OH2      OT      -0.834000       15.9994           0   0.00000       0.00000    
     38979 TIP3     4688     TIP3     H1       HT       0.417000       1.00800           0   0.00000       0.00000    
     38980 TIP3     4688     TIP3     H2       HT       0.417000       1.00800           0   0.00000     -0.301140E-02
     38981 TIP3     4689     TIP3     OH2      OT      -0.834000       15.9994           0   0.00000       0.00000    
     38982 TIP3     4689     TIP3     H1       HT       0.417000       1.00800           0   0.00000       0.00000    
     38983 TIP3     4689     TIP3     H2       HT       0.417000       1.00800           0   0.00000     -0.301140E-02
     38984 TIP3     4690     TIP3     OH2      OT      -0.834000       15.9994           0   0.00000       0.00000    
     38985 TIP3     4690     TIP3     H1       HT       0.417000       1.00800           0   0.00000       0.00000    
     38986 TIP3     4690     TIP3     H2       HT       0.417000       1.00800           0   0.00000     -0.301140E-02
     38987 TIP3     4691     TIP3     OH2      OT      -0.834000       15.9994           0   0.00000       0.00000    
     38988 TIP3     4691     TIP3     H1       HT       0.417000       1.00800           0   0.00000       0.00000    
     38989 TIP3     4691     TIP3     H2       HT       0.417000       1.00800           0   0.00000     -0.301140E-02
     38990 TIP3     4692     TIP3     OH2      OT      -0.834000       15.9994           0   0.00000       0.00000    
     38991 TIP3     4692     TIP3     H1       HT       0.417000       1.00800           0   0.00000       0.00000    
     38992 TIP3     4692     TIP3     H2       HT       0.417000       1.00800           0   0.00000     -0.301140E-02
     38993 TIP3     4693     TIP3     OH2      OT      -0.834000       15.9994           0   0.00000       0.00000    
     38994 TIP3     4693     TIP3     H1       HT       0.417000       1.00800           0   0.00000       0.00000    
     38995 TIP3     4693     TIP3     H2       HT       0.417000       1.00800           0   0.00000     -0.301140E-02
     38996 TIP3     4694     TIP3     OH2      OT      -0.834000       15.9994           0   0.00000       0.00000    
     38997 TIP3     4694     TIP3     H1       HT       0.417000       1.00800           0   0.00000       0.00000    
     38998 TIP3     4694     TIP3     H2       HT       0.417000       1.00800           0   0.00000     -0.301140E-02
     38999 TIP3     4695     TIP3     OH2      OT      -0.834000       15.9994           0   0.00000       0.00000    
     39000 TIP3     4695     TIP3     H1       HT       0.417000       1.00800           0   0.00000       0.00000    
     39001 TIP3     4695     TIP3     H2       HT       0.417000       1.00800           0   0.00000     -0.301140E-02
     39002 TIP3     4696     TIP3     OH2      OT      -0.834000       15.9994           0   0.00000       0.00000    
     39003 TIP3     4696     TIP3     H1       HT       0.417000       1.00800           0   0.00000       0.00000    
     39004 TIP3     4696     TIP3     H2       HT       0.417000       1.00800           0   0.00000     -0.301140E-02
     39005 TIP3     4697     TIP3     OH2      OT      -0.834000       15.9994           0   0.00000       0.00000    
     39006 TIP3     4697     TIP3     H1       HT       0.417000       1.00800           0   0.00000       0.00000    
     39007 TIP3     4697     TIP3     H2       HT       0.417000       1.00800           0   0.00000     -0.301140E-02
     39008 TIP3     4698     TIP3     OH2      OT      -0.834000       15.9994           0   0.00000       0.00000    
     39009 TIP3     4698     TIP3     H1       HT       0.417000       1.00800           0   0.00000       0.00000    
     39010 TIP3     4698     TIP3     H2       HT       0.417000       1.00800           0   0.00000     -0.301140E-02
     39011 TIP3     4699     TIP3     OH2      OT      -0.834000       15.9994           0   0.00000       0.00000    
     39012 TIP3     4699     TIP3     H1       HT       0.417000       1.00800           0   0.00000       0.00000    
     39013 TIP3     4699     TIP3     H2       HT       0.417000       1.00800           0   0.00000     -0.301140E-02
     39014 TIP3     4700     TIP3     OH2      OT      -0.834000       15.9994           0   0.00000       0.00000    
     39015 TIP3     4700     TIP3     H1       HT       0.417000       1.00800           0   0.00000       0.00000    
     39016 TIP3     4700     TIP3     H2       HT       0.417000       1.00800           0   0.00000     -0.301140E-02
     39017 TIP3     4701     TIP3     OH2      OT      -0.834000       15.9994           0   0.00000       0.00000    
     39018 TIP3     4701     TIP3     H1       HT       0.417000       1.00800           0   0.00000       0.00000    
     39019 TIP3     4701     TIP3     H2       HT       0.417000       1.00800           0   0.00000     -0.301140E-02
     39020 TIP3     4702     TIP3     OH2      OT      -0.834000       15.9994           0   0.00000       0.00000    
     39021 TIP3     4702     TIP3     H1       HT       0.417000       1.00800           0   0.00000       0.00000    
     39022 TIP3     4702     TIP3     H2       HT       0.417000       1.00800           0   0.00000     -0.301140E-02
     39023 TIP3     4703     TIP3     OH2      OT      -0.834000       15.9994           0   0.00000       0.00000    
     39024 TIP3     4703     TIP3     H1       HT       0.417000       1.00800           0   0.00000       0.00000    
     39025 TIP3     4703     TIP3     H2       HT       0.417000       1.00800           0   0.00000     -0.301140E-02
     39026 TIP3     4704     TIP3     OH2      OT      -0.834000       15.9994           0   0.00000       0.00000    
     39027 TIP3     4704     TIP3     H1       HT       0.417000       1.00800           0   0.00000       0.00000    
     39028 TIP3     4704     TIP3     H2       HT       0.417000       1.00800           0   0.00000     -0.301140E-02
     39029 TIP3     4705     TIP3     OH2      OT      -0.834000       15.9994           0   0.00000       0.00000    
     39030 TIP3     4705     TIP3     H1       HT       0.417000       1.00800           0   0.00000       0.00000    
     39031 TIP3     4705     TIP3     H2       HT       0.417000       1.00800           0   0.00000     -0.301140E-02
     39032 TIP3     4706     TIP3     OH2      OT      -0.834000       15.9994           0   0.00000       0.00000    
     39033 TIP3     4706     TIP3     H1       HT       0.417000       1.00800           0   0.00000       0.00000    
     39034 TIP3     4706     TIP3     H2       HT       0.417000       1.00800           0   0.00000     -0.301140E-02
     39035 TIP3     4707     TIP3     OH2      OT      -0.834000       15.9994           0   0.00000       0.00000    
     39036 TIP3     4707     TIP3     H1       HT       0.417000       1.00800           0   0.00000       0.00000    
     39037 TIP3     4707     TIP3     H2       HT       0.417000       1.00800           0   0.00000     -0.301140E-02
     39038 TIP3     4708     TIP3     OH2      OT      -0.834000       15.9994           0   0.00000       0.00000    
     39039 TIP3     4708     TIP3     H1       HT       0.417000       1.00800           0   0.00000       0.00000    
     39040 TIP3     4708     TIP3     H2       HT       0.417000       1.00800           0   0.00000     -0.301140E-02
     39041 TIP3     4709     TIP3     OH2      OT      -0.834000       15.9994           0   0.00000       0.00000    
     39042 TIP3     4709     TIP3     H1       HT       0.417000       1.00800           0   0.00000       0.00000    
     39043 TIP3     4709     TIP3     H2       HT       0.417000       1.00800           0   0.00000     -0.301140E-02
     39044 TIP3     4710     TIP3     OH2      OT      -0.834000       15.9994           0   0.00000       0.00000    
     39045 TIP3     4710     TIP3     H1       HT       0.417000       1.00800           0   0.00000       0.00000    
     39046 TIP3     4710     TIP3     H2       HT       0.417000       1.00800           0   0.00000     -0.301140E-02
     39047 TIP3     4711     TIP3     OH2      OT      -0.834000       15.9994           0   0.00000       0.00000    
     39048 TIP3     4711     TIP3     H1       HT       0.417000       1.00800           0   0.00000       0.00000    
     39049 TIP3     4711     TIP3     H2       HT       0.417000       1.00800           0   0.00000     -0.301140E-02
     39050 TIP3     4712     TIP3     OH2      OT      -0.834000       15.9994           0   0.00000       0.00000    
     39051 TIP3     4712     TIP3     H1       HT       0.417000       1.00800           0   0.00000       0.00000    
     39052 TIP3     4712     TIP3     H2       HT       0.417000       1.00800           0   0.00000     -0.301140E-02
     39053 TIP3     4713     TIP3     OH2      OT      -0.834000       15.9994           0   0.00000       0.00000    
     39054 TIP3     4713     TIP3     H1       HT       0.417000       1.00800           0   0.00000       0.00000    
     39055 TIP3     4713     TIP3     H2       HT       0.417000       1.00800           0   0.00000     -0.301140E-02
     39056 TIP3     4714     TIP3     OH2      OT      -0.834000       15.9994           0   0.00000       0.00000    
     39057 TIP3     4714     TIP3     H1       HT       0.417000       1.00800           0   0.00000       0.00000    
     39058 TIP3     4714     TIP3     H2       HT       0.417000       1.00800           0   0.00000     -0.301140E-02
     39059 TIP3     4715     TIP3     OH2      OT      -0.834000       15.9994           0   0.00000       0.00000    
     39060 TIP3     4715     TIP3     H1       HT       0.417000       1.00800           0   0.00000       0.00000    
     39061 TIP3     4715     TIP3     H2       HT       0.417000       1.00800           0   0.00000     -0.301140E-02
     39062 TIP3     4716     TIP3     OH2      OT      -0.834000       15.9994           0   0.00000       0.00000    
     39063 TIP3     4716     TIP3     H1       HT       0.417000       1.00800           0   0.00000       0.00000    
     39064 TIP3     4716     TIP3     H2       HT       0.417000       1.00800           0   0.00000     -0.301140E-02
     39065 TIP3     4717     TIP3     OH2      OT      -0.834000       15.9994           0   0.00000       0.00000    
     39066 TIP3     4717     TIP3     H1       HT       0.417000       1.00800           0   0.00000       0.00000    
     39067 TIP3     4717     TIP3     H2       HT       0.417000       1.00800           0   0.00000     -0.301140E-02
     39068 TIP3     4718     TIP3     OH2      OT      -0.834000       15.9994           0   0.00000       0.00000    
     39069 TIP3     4718     TIP3     H1       HT       0.417000       1.00800           0   0.00000       0.00000    
     39070 TIP3     4718     TIP3     H2       HT       0.417000       1.00800           0   0.00000     -0.301140E-02
     39071 TIP3     4719     TIP3     OH2      OT      -0.834000       15.9994           0   0.00000       0.00000    
     39072 TIP3     4719     TIP3     H1       HT       0.417000       1.00800           0   0.00000       0.00000    
     39073 TIP3     4719     TIP3     H2       HT       0.417000       1.00800           0   0.00000     -0.301140E-02
     39074 TIP3     4720     TIP3     OH2      OT      -0.834000       15.9994           0   0.00000       0.00000    
     39075 TIP3     4720     TIP3     H1       HT       0.417000       1.00800           0   0.00000       0.00000    
     39076 TIP3     4720     TIP3     H2       HT       0.417000       1.00800           0   0.00000     -0.301140E-02
     39077 TIP3     4721     TIP3     OH2      OT      -0.834000       15.9994           0   0.00000       0.00000    
     39078 TIP3     4721     TIP3     H1       HT       0.417000       1.00800           0   0.00000       0.00000    
     39079 TIP3     4721     TIP3     H2       HT       0.417000       1.00800           0   0.00000     -0.301140E-02
     39080 TIP3     4722     TIP3     OH2      OT      -0.834000       15.9994           0   0.00000       0.00000    
     39081 TIP3     4722     TIP3     H1       HT       0.417000       1.00800           0   0.00000       0.00000    
     39082 TIP3     4722     TIP3     H2       HT       0.417000       1.00800           0   0.00000     -0.301140E-02
     39083 TIP3     4723     TIP3     OH2      OT      -0.834000       15.9994           0   0.00000       0.00000    
     39084 TIP3     4723     TIP3     H1       HT       0.417000       1.00800           0   0.00000       0.00000    
     39085 TIP3     4723     TIP3     H2       HT       0.417000       1.00800           0   0.00000     -0.301140E-02
     39086 TIP3     4724     TIP3     OH2      OT      -0.834000       15.9994           0   0.00000       0.00000    
     39087 TIP3     4724     TIP3     H1       HT       0.417000       1.00800           0   0.00000       0.00000    
     39088 TIP3     4724     TIP3     H2       HT       0.417000       1.00800           0   0.00000     -0.301140E-02
     39089 TIP3     4725     TIP3     OH2      OT      -0.834000       15.9994           0   0.00000       0.00000    
     39090 TIP3     4725     TIP3     H1       HT       0.417000       1.00800           0   0.00000       0.00000    
     39091 TIP3     4725     TIP3     H2       HT       0.417000       1.00800           0   0.00000     -0.301140E-02
     39092 TIP3     4726     TIP3     OH2      OT      -0.834000       15.9994           0   0.00000       0.00000    
     39093 TIP3     4726     TIP3     H1       HT       0.417000       1.00800           0   0.00000       0.00000    
     39094 TIP3     4726     TIP3     H2       HT       0.417000       1.00800           0   0.00000     -0.301140E-02
     39095 TIP3     4727     TIP3     OH2      OT      -0.834000       15.9994           0   0.00000       0.00000    
     39096 TIP3     4727     TIP3     H1       HT       0.417000       1.00800           0   0.00000       0.00000    
     39097 TIP3     4727     TIP3     H2       HT       0.417000       1.00800           0   0.00000     -0.301140E-02
     39098 TIP3     4728     TIP3     OH2      OT      -0.834000       15.9994           0   0.00000       0.00000    
     39099 TIP3     4728     TIP3     H1       HT       0.417000       1.00800           0   0.00000       0.00000    
     39100 TIP3     4728     TIP3     H2       HT       0.417000       1.00800           0   0.00000     -0.301140E-02
     39101 TIP3     4729     TIP3     OH2      OT      -0.834000       15.9994           0   0.00000       0.00000    
     39102 TIP3     4729     TIP3     H1       HT       0.417000       1.00800           0   0.00000       0.00000    
     39103 TIP3     4729     TIP3     H2       HT       0.417000       1.00800           0   0.00000     -0.301140E-02
     39104 TIP3     4730     TIP3     OH2      OT      -0.834000       15.9994           0   0.00000       0.00000    
     39105 TIP3     4730     TIP3     H1       HT       0.417000       1.00800           0   0.00000       0.00000    
     39106 TIP3     4730     TIP3     H2       HT       0.417000       1.00800           0   0.00000     -0.301140E-02
     39107 TIP3     4731     TIP3     OH2      OT      -0.834000       15.9994           0   0.00000       0.00000    
     39108 TIP3     4731     TIP3     H1       HT       0.417000       1.00800           0   0.00000       0.00000    
     39109 TIP3     4731     TIP3     H2       HT       0.417000       1.00800           0   0.00000     -0.301140E-02
     39110 TIP3     4732     TIP3     OH2      OT      -0.834000       15.9994           0   0.00000       0.00000    
     39111 TIP3     4732     TIP3     H1       HT       0.417000       1.00800           0   0.00000       0.00000    
     39112 TIP3     4732     TIP3     H2       HT       0.417000       1.00800           0   0.00000     -0.301140E-02
     39113 TIP3     4733     TIP3     OH2      OT      -0.834000       15.9994           0   0.00000       0.00000    
     39114 TIP3     4733     TIP3     H1       HT       0.417000       1.00800           0   0.00000       0.00000    
     39115 TIP3     4733     TIP3     H2       HT       0.417000       1.00800           0   0.00000     -0.301140E-02
     39116 TIP3     4734     TIP3     OH2      OT      -0.834000       15.9994           0   0.00000       0.00000    
     39117 TIP3     4734     TIP3     H1       HT       0.417000       1.00800           0   0.00000       0.00000    
     39118 TIP3     4734     TIP3     H2       HT       0.417000       1.00800           0   0.00000     -0.301140E-02
     39119 TIP3     4735     TIP3     OH2      OT      -0.834000       15.9994           0   0.00000       0.00000    
     39120 TIP3     4735     TIP3     H1       HT       0.417000       1.00800           0   0.00000       0.00000    
     39121 TIP3     4735     TIP3     H2       HT       0.417000       1.00800           0   0.00000     -0.301140E-02
     39122 TIP3     4736     TIP3     OH2      OT      -0.834000       15.9994           0   0.00000       0.00000    
     39123 TIP3     4736     TIP3     H1       HT       0.417000       1.00800           0   0.00000       0.00000    
     39124 TIP3     4736     TIP3     H2       HT       0.417000       1.00800           0   0.00000     -0.301140E-02
     39125 TIP3     4737     TIP3     OH2      OT      -0.834000       15.9994           0   0.00000       0.00000    
     39126 TIP3     4737     TIP3     H1       HT       0.417000       1.00800           0   0.00000       0.00000    
     39127 TIP3     4737     TIP3     H2       HT       0.417000       1.00800           0   0.00000     -0.301140E-02
     39128 TIP3     4738     TIP3     OH2      OT      -0.834000       15.9994           0   0.00000       0.00000    
     39129 TIP3     4738     TIP3     H1       HT       0.417000       1.00800           0   0.00000       0.00000    
     39130 TIP3     4738     TIP3     H2       HT       0.417000       1.00800           0   0.00000     -0.301140E-02
     39131 TIP3     4739     TIP3     OH2      OT      -0.834000       15.9994           0   0.00000       0.00000    
     39132 TIP3     4739     TIP3     H1       HT       0.417000       1.00800           0   0.00000       0.00000    
     39133 TIP3     4739     TIP3     H2       HT       0.417000       1.00800           0   0.00000     -0.301140E-02
     39134 TIP3     4740     TIP3     OH2      OT      -0.834000       15.9994           0   0.00000       0.00000    
     39135 TIP3     4740     TIP3     H1       HT       0.417000       1.00800           0   0.00000       0.00000    
     39136 TIP3     4740     TIP3     H2       HT       0.417000       1.00800           0   0.00000     -0.301140E-02
     39137 TIP3     4741     TIP3     OH2      OT      -0.834000       15.9994           0   0.00000       0.00000    
     39138 TIP3     4741     TIP3     H1       HT       0.417000       1.00800           0   0.00000       0.00000    
     39139 TIP3     4741     TIP3     H2       HT       0.417000       1.00800           0   0.00000     -0.301140E-02
     39140 TIP3     4742     TIP3     OH2      OT      -0.834000       15.9994           0   0.00000       0.00000    
     39141 TIP3     4742     TIP3     H1       HT       0.417000       1.00800           0   0.00000       0.00000    
     39142 TIP3     4742     TIP3     H2       HT       0.417000       1.00800           0   0.00000     -0.301140E-02
     39143 TIP3     4743     TIP3     OH2      OT      -0.834000       15.9994           0   0.00000       0.00000    
     39144 TIP3     4743     TIP3     H1       HT       0.417000       1.00800           0   0.00000       0.00000    
     39145 TIP3     4743     TIP3     H2       HT       0.417000       1.00800           0   0.00000     -0.301140E-02
     39146 TIP3     4744     TIP3     OH2      OT      -0.834000       15.9994           0   0.00000       0.00000    
     39147 TIP3     4744     TIP3     H1       HT       0.417000       1.00800           0   0.00000       0.00000    
     39148 TIP3     4744     TIP3     H2       HT       0.417000       1.00800           0   0.00000     -0.301140E-02
     39149 TIP3     4745     TIP3     OH2      OT      -0.834000       15.9994           0   0.00000       0.00000    
     39150 TIP3     4745     TIP3     H1       HT       0.417000       1.00800           0   0.00000       0.00000    
     39151 TIP3     4745     TIP3     H2       HT       0.417000       1.00800           0   0.00000     -0.301140E-02
     39152 TIP3     4746     TIP3     OH2      OT      -0.834000       15.9994           0   0.00000       0.00000    
     39153 TIP3     4746     TIP3     H1       HT       0.417000       1.00800           0   0.00000       0.00000    
     39154 TIP3     4746     TIP3     H2       HT       0.417000       1.00800           0   0.00000     -0.301140E-02
     39155 TIP3     4747     TIP3     OH2      OT      -0.834000       15.9994           0   0.00000       0.00000    
     39156 TIP3     4747     TIP3     H1       HT       0.417000       1.00800           0   0.00000       0.00000    
     39157 TIP3     4747     TIP3     H2       HT       0.417000       1.00800           0   0.00000     -0.301140E-02
     39158 TIP3     4748     TIP3     OH2      OT      -0.834000       15.9994           0   0.00000       0.00000    
     39159 TIP3     4748     TIP3     H1       HT       0.417000       1.00800           0   0.00000       0.00000    
     39160 TIP3     4748     TIP3     H2       HT       0.417000       1.00800           0   0.00000     -0.301140E-02
     39161 TIP3     4749     TIP3     OH2      OT      -0.834000       15.9994           0   0.00000       0.00000    
     39162 TIP3     4749     TIP3     H1       HT       0.417000       1.00800           0   0.00000       0.00000    
     39163 TIP3     4749     TIP3     H2       HT       0.417000       1.00800           0   0.00000     -0.301140E-02
     39164 TIP3     4750     TIP3     OH2      OT      -0.834000       15.9994           0   0.00000       0.00000    
     39165 TIP3     4750     TIP3     H1       HT       0.417000       1.00800           0   0.00000       0.00000    
     39166 TIP3     4750     TIP3     H2       HT       0.417000       1.00800           0   0.00000     -0.301140E-02
     39167 TIP3     4751     TIP3     OH2      OT      -0.834000       15.9994           0   0.00000       0.00000    
     39168 TIP3     4751     TIP3     H1       HT       0.417000       1.00800           0   0.00000       0.00000    
     39169 TIP3     4751     TIP3     H2       HT       0.417000       1.00800           0   0.00000     -0.301140E-02
     39170 TIP3     4752     TIP3     OH2      OT      -0.834000       15.9994           0   0.00000       0.00000    
     39171 TIP3     4752     TIP3     H1       HT       0.417000       1.00800           0   0.00000       0.00000    
     39172 TIP3     4752     TIP3     H2       HT       0.417000       1.00800           0   0.00000     -0.301140E-02
     39173 TIP3     4753     TIP3     OH2      OT      -0.834000       15.9994           0   0.00000       0.00000    
     39174 TIP3     4753     TIP3     H1       HT       0.417000       1.00800           0   0.00000       0.00000    
     39175 TIP3     4753     TIP3     H2       HT       0.417000       1.00800           0   0.00000     -0.301140E-02
     39176 TIP3     4754     TIP3     OH2      OT      -0.834000       15.9994           0   0.00000       0.00000    
     39177 TIP3     4754     TIP3     H1       HT       0.417000       1.00800           0   0.00000       0.00000    
     39178 TIP3     4754     TIP3     H2       HT       0.417000       1.00800           0   0.00000     -0.301140E-02
     39179 TIP3     4755     TIP3     OH2      OT      -0.834000       15.9994           0   0.00000       0.00000    
     39180 TIP3     4755     TIP3     H1       HT       0.417000       1.00800           0   0.00000       0.00000    
     39181 TIP3     4755     TIP3     H2       HT       0.417000       1.00800           0   0.00000     -0.301140E-02
     39182 TIP3     4756     TIP3     OH2      OT      -0.834000       15.9994           0   0.00000       0.00000    
     39183 TIP3     4756     TIP3     H1       HT       0.417000       1.00800           0   0.00000       0.00000    
     39184 TIP3     4756     TIP3     H2       HT       0.417000       1.00800           0   0.00000     -0.301140E-02
     39185 TIP3     4757     TIP3     OH2      OT      -0.834000       15.9994           0   0.00000       0.00000    
     39186 TIP3     4757     TIP3     H1       HT       0.417000       1.00800           0   0.00000       0.00000    
     39187 TIP3     4757     TIP3     H2       HT       0.417000       1.00800           0   0.00000     -0.301140E-02
     39188 TIP3     4758     TIP3     OH2      OT      -0.834000       15.9994           0   0.00000       0.00000    
     39189 TIP3     4758     TIP3     H1       HT       0.417000       1.00800           0   0.00000       0.00000    
     39190 TIP3     4758     TIP3     H2       HT       0.417000       1.00800           0   0.00000     -0.301140E-02
     39191 TIP3     4759     TIP3     OH2      OT      -0.834000       15.9994           0   0.00000       0.00000    
     39192 TIP3     4759     TIP3     H1       HT       0.417000       1.00800           0   0.00000       0.00000    
     39193 TIP3     4759     TIP3     H2       HT       0.417000       1.00800           0   0.00000     -0.301140E-02
     39194 TIP3     4760     TIP3     OH2      OT      -0.834000       15.9994           0   0.00000       0.00000    
     39195 TIP3     4760     TIP3     H1       HT       0.417000       1.00800           0   0.00000       0.00000    
     39196 TIP3     4760     TIP3     H2       HT       0.417000       1.00800           0   0.00000     -0.301140E-02
     39197 TIP3     4761     TIP3     OH2      OT      -0.834000       15.9994           0   0.00000       0.00000    
     39198 TIP3     4761     TIP3     H1       HT       0.417000       1.00800           0   0.00000       0.00000    
     39199 TIP3     4761     TIP3     H2       HT       0.417000       1.00800           0   0.00000     -0.301140E-02
     39200 TIP3     4762     TIP3     OH2      OT      -0.834000       15.9994           0   0.00000       0.00000    
     39201 TIP3     4762     TIP3     H1       HT       0.417000       1.00800           0   0.00000       0.00000    
     39202 TIP3     4762     TIP3     H2       HT       0.417000       1.00800           0   0.00000     -0.301140E-02
     39203 TIP3     4763     TIP3     OH2      OT      -0.834000       15.9994           0   0.00000       0.00000    
     39204 TIP3     4763     TIP3     H1       HT       0.417000       1.00800           0   0.00000       0.00000    
     39205 TIP3     4763     TIP3     H2       HT       0.417000       1.00800           0   0.00000     -0.301140E-02
     39206 TIP3     4764     TIP3     OH2      OT      -0.834000       15.9994           0   0.00000       0.00000    
     39207 TIP3     4764     TIP3     H1       HT       0.417000       1.00800           0   0.00000       0.00000    
     39208 TIP3     4764     TIP3     H2       HT       0.417000       1.00800           0   0.00000     -0.301140E-02
     39209 TIP3     4765     TIP3     OH2      OT      -0.834000       15.9994           0   0.00000       0.00000    
     39210 TIP3     4765     TIP3     H1       HT       0.417000       1.00800           0   0.00000       0.00000    
     39211 TIP3     4765     TIP3     H2       HT       0.417000       1.00800           0   0.00000     -0.301140E-02
     39212 TIP3     4766     TIP3     OH2      OT      -0.834000       15.9994           0   0.00000       0.00000    
     39213 TIP3     4766     TIP3     H1       HT       0.417000       1.00800           0   0.00000       0.00000    
     39214 TIP3     4766     TIP3     H2       HT       0.417000       1.00800           0   0.00000     -0.301140E-02
     39215 TIP3     4767     TIP3     OH2      OT      -0.834000       15.9994           0   0.00000       0.00000    
     39216 TIP3     4767     TIP3     H1       HT       0.417000       1.00800           0   0.00000       0.00000    
     39217 TIP3     4767     TIP3     H2       HT       0.417000       1.00800           0   0.00000     -0.301140E-02
     39218 TIP3     4768     TIP3     OH2      OT      -0.834000       15.9994           0   0.00000       0.00000    
     39219 TIP3     4768     TIP3     H1       HT       0.417000       1.00800           0   0.00000       0.00000    
     39220 TIP3     4768     TIP3     H2       HT       0.417000       1.00800           0   0.00000     -0.301140E-02
     39221 TIP3     4769     TIP3     OH2      OT      -0.834000       15.9994           0   0.00000       0.00000    
     39222 TIP3     4769     TIP3     H1       HT       0.417000       1.00800           0   0.00000       0.00000    
     39223 TIP3     4769     TIP3     H2       HT       0.417000       1.00800           0   0.00000     -0.301140E-02
     39224 TIP3     4770     TIP3     OH2      OT      -0.834000       15.9994           0   0.00000       0.00000    
     39225 TIP3     4770     TIP3     H1       HT       0.417000       1.00800           0   0.00000       0.00000    
     39226 TIP3     4770     TIP3     H2       HT       0.417000       1.00800           0   0.00000     -0.301140E-02
     39227 TIP3     4771     TIP3     OH2      OT      -0.834000       15.9994           0   0.00000       0.00000    
     39228 TIP3     4771     TIP3     H1       HT       0.417000       1.00800           0   0.00000       0.00000    
     39229 TIP3     4771     TIP3     H2       HT       0.417000       1.00800           0   0.00000     -0.301140E-02
     39230 TIP3     4772     TIP3     OH2      OT      -0.834000       15.9994           0   0.00000       0.00000    
     39231 TIP3     4772     TIP3     H1       HT       0.417000       1.00800           0   0.00000       0.00000    
     39232 TIP3     4772     TIP3     H2       HT       0.417000       1.00800           0   0.00000     -0.301140E-02
     39233 TIP3     4773     TIP3     OH2      OT      -0.834000       15.9994           0   0.00000       0.00000    
     39234 TIP3     4773     TIP3     H1       HT       0.417000       1.00800           0   0.00000       0.00000    
     39235 TIP3     4773     TIP3     H2       HT       0.417000       1.00800           0   0.00000     -0.301140E-02
     39236 TIP3     4774     TIP3     OH2      OT      -0.834000       15.9994           0   0.00000       0.00000    
     39237 TIP3     4774     TIP3     H1       HT       0.417000       1.00800           0   0.00000       0.00000    
     39238 TIP3     4774     TIP3     H2       HT       0.417000       1.00800           0   0.00000     -0.301140E-02
     39239 TIP3     4775     TIP3     OH2      OT      -0.834000       15.9994           0   0.00000       0.00000    
     39240 TIP3     4775     TIP3     H1       HT       0.417000       1.00800           0   0.00000       0.00000    
     39241 TIP3     4775     TIP3     H2       HT       0.417000       1.00800           0   0.00000     -0.301140E-02
     39242 TIP3     4776     TIP3     OH2      OT      -0.834000       15.9994           0   0.00000       0.00000    
     39243 TIP3     4776     TIP3     H1       HT       0.417000       1.00800           0   0.00000       0.00000    
     39244 TIP3     4776     TIP3     H2       HT       0.417000       1.00800           0   0.00000     -0.301140E-02
     39245 TIP3     4777     TIP3     OH2      OT      -0.834000       15.9994           0   0.00000       0.00000    
     39246 TIP3     4777     TIP3     H1       HT       0.417000       1.00800           0   0.00000       0.00000    
     39247 TIP3     4777     TIP3     H2       HT       0.417000       1.00800           0   0.00000     -0.301140E-02
     39248 TIP3     4778     TIP3     OH2      OT      -0.834000       15.9994           0   0.00000       0.00000    
     39249 TIP3     4778     TIP3     H1       HT       0.417000       1.00800           0   0.00000       0.00000    
     39250 TIP3     4778     TIP3     H2       HT       0.417000       1.00800           0   0.00000     -0.301140E-02
     39251 TIP3     4779     TIP3     OH2      OT      -0.834000       15.9994           0   0.00000       0.00000    
     39252 TIP3     4779     TIP3     H1       HT       0.417000       1.00800           0   0.00000       0.00000    
     39253 TIP3     4779     TIP3     H2       HT       0.417000       1.00800           0   0.00000     -0.301140E-02
     39254 TIP3     4780     TIP3     OH2      OT      -0.834000       15.9994           0   0.00000       0.00000    
     39255 TIP3     4780     TIP3     H1       HT       0.417000       1.00800           0   0.00000       0.00000    
     39256 TIP3     4780     TIP3     H2       HT       0.417000       1.00800           0   0.00000     -0.301140E-02
     39257 TIP3     4781     TIP3     OH2      OT      -0.834000       15.9994           0   0.00000       0.00000    
     39258 TIP3     4781     TIP3     H1       HT       0.417000       1.00800           0   0.00000       0.00000    
     39259 TIP3     4781     TIP3     H2       HT       0.417000       1.00800           0   0.00000     -0.301140E-02
     39260 TIP3     4782     TIP3     OH2      OT      -0.834000       15.9994           0   0.00000       0.00000    
     39261 TIP3     4782     TIP3     H1       HT       0.417000       1.00800           0   0.00000       0.00000    
     39262 TIP3     4782     TIP3     H2       HT       0.417000       1.00800           0   0.00000     -0.301140E-02
     39263 TIP3     4783     TIP3     OH2      OT      -0.834000       15.9994           0   0.00000       0.00000    
     39264 TIP3     4783     TIP3     H1       HT       0.417000       1.00800           0   0.00000       0.00000    
     39265 TIP3     4783     TIP3     H2       HT       0.417000       1.00800           0   0.00000     -0.301140E-02
     39266 TIP3     4784     TIP3     OH2      OT      -0.834000       15.9994           0   0.00000       0.00000    
     39267 TIP3     4784     TIP3     H1       HT       0.417000       1.00800           0   0.00000       0.00000    
     39268 TIP3     4784     TIP3     H2       HT       0.417000       1.00800           0   0.00000     -0.301140E-02
     39269 TIP3     4785     TIP3     OH2      OT      -0.834000       15.9994           0   0.00000       0.00000    
     39270 TIP3     4785     TIP3     H1       HT       0.417000       1.00800           0   0.00000       0.00000    
     39271 TIP3     4785     TIP3     H2       HT       0.417000       1.00800           0   0.00000     -0.301140E-02
     39272 TIP3     4786     TIP3     OH2      OT      -0.834000       15.9994           0   0.00000       0.00000    
     39273 TIP3     4786     TIP3     H1       HT       0.417000       1.00800           0   0.00000       0.00000    
     39274 TIP3     4786     TIP3     H2       HT       0.417000       1.00800           0   0.00000     -0.301140E-02
     39275 TIP3     4787     TIP3     OH2      OT      -0.834000       15.9994           0   0.00000       0.00000    
     39276 TIP3     4787     TIP3     H1       HT       0.417000       1.00800           0   0.00000       0.00000    
     39277 TIP3     4787     TIP3     H2       HT       0.417000       1.00800           0   0.00000     -0.301140E-02
     39278 TIP3     4788     TIP3     OH2      OT      -0.834000       15.9994           0   0.00000       0.00000    
     39279 TIP3     4788     TIP3     H1       HT       0.417000       1.00800           0   0.00000       0.00000    
     39280 TIP3     4788     TIP3     H2       HT       0.417000       1.00800           0   0.00000     -0.301140E-02
     39281 TIP3     4789     TIP3     OH2      OT      -0.834000       15.9994           0   0.00000       0.00000    
     39282 TIP3     4789     TIP3     H1       HT       0.417000       1.00800           0   0.00000       0.00000    
     39283 TIP3     4789     TIP3     H2       HT       0.417000       1.00800           0   0.00000     -0.301140E-02
     39284 TIP3     4790     TIP3     OH2      OT      -0.834000       15.9994           0   0.00000       0.00000    
     39285 TIP3     4790     TIP3     H1       HT       0.417000       1.00800           0   0.00000       0.00000    
     39286 TIP3     4790     TIP3     H2       HT       0.417000       1.00800           0   0.00000     -0.301140E-02
     39287 TIP3     4791     TIP3     OH2      OT      -0.834000       15.9994           0   0.00000       0.00000    
     39288 TIP3     4791     TIP3     H1       HT       0.417000       1.00800           0   0.00000       0.00000    
     39289 TIP3     4791     TIP3     H2       HT       0.417000       1.00800           0   0.00000     -0.301140E-02
     39290 TIP3     4792     TIP3     OH2      OT      -0.834000       15.9994           0   0.00000       0.00000    
     39291 TIP3     4792     TIP3     H1       HT       0.417000       1.00800           0   0.00000       0.00000    
     39292 TIP3     4792     TIP3     H2       HT       0.417000       1.00800           0   0.00000     -0.301140E-02
     39293 TIP3     4793     TIP3     OH2      OT      -0.834000       15.9994           0   0.00000       0.00000    
     39294 TIP3     4793     TIP3     H1       HT       0.417000       1.00800           0   0.00000       0.00000    
     39295 TIP3     4793     TIP3     H2       HT       0.417000       1.00800           0   0.00000     -0.301140E-02
     39296 TIP3     4794     TIP3     OH2      OT      -0.834000       15.9994           0   0.00000       0.00000    
     39297 TIP3     4794     TIP3     H1       HT       0.417000       1.00800           0   0.00000       0.00000    
     39298 TIP3     4794     TIP3     H2       HT       0.417000       1.00800           0   0.00000     -0.301140E-02
     39299 TIP3     4795     TIP3     OH2      OT      -0.834000       15.9994           0   0.00000       0.00000    
     39300 TIP3     4795     TIP3     H1       HT       0.417000       1.00800           0   0.00000       0.00000    
     39301 TIP3     4795     TIP3     H2       HT       0.417000       1.00800           0   0.00000     -0.301140E-02
     39302 TIP3     4796     TIP3     OH2      OT      -0.834000       15.9994           0   0.00000       0.00000    
     39303 TIP3     4796     TIP3     H1       HT       0.417000       1.00800           0   0.00000       0.00000    
     39304 TIP3     4796     TIP3     H2       HT       0.417000       1.00800           0   0.00000     -0.301140E-02
     39305 TIP3     4797     TIP3     OH2      OT      -0.834000       15.9994           0   0.00000       0.00000    
     39306 TIP3     4797     TIP3     H1       HT       0.417000       1.00800           0   0.00000       0.00000    
     39307 TIP3     4797     TIP3     H2       HT       0.417000       1.00800           0   0.00000     -0.301140E-02
     39308 TIP3     4798     TIP3     OH2      OT      -0.834000       15.9994           0   0.00000       0.00000    
     39309 TIP3     4798     TIP3     H1       HT       0.417000       1.00800           0   0.00000       0.00000    
     39310 TIP3     4798     TIP3     H2       HT       0.417000       1.00800           0   0.00000     -0.301140E-02
     39311 TIP3     4799     TIP3     OH2      OT      -0.834000       15.9994           0   0.00000       0.00000    
     39312 TIP3     4799     TIP3     H1       HT       0.417000       1.00800           0   0.00000       0.00000    
     39313 TIP3     4799     TIP3     H2       HT       0.417000       1.00800           0   0.00000     -0.301140E-02
     39314 TIP3     4800     TIP3     OH2      OT      -0.834000       15.9994           0   0.00000       0.00000    
     39315 TIP3     4800     TIP3     H1       HT       0.417000       1.00800           0   0.00000       0.00000    
     39316 TIP3     4800     TIP3     H2       HT       0.417000       1.00800           0   0.00000     -0.301140E-02
     39317 TIP3     4801     TIP3     OH2      OT      -0.834000       15.9994           0   0.00000       0.00000    
     39318 TIP3     4801     TIP3     H1       HT       0.417000       1.00800           0   0.00000       0.00000    
     39319 TIP3     4801     TIP3     H2       HT       0.417000       1.00800           0   0.00000     -0.301140E-02
     39320 TIP3     4802     TIP3     OH2      OT      -0.834000       15.9994           0   0.00000       0.00000    
     39321 TIP3     4802     TIP3     H1       HT       0.417000       1.00800           0   0.00000       0.00000    
     39322 TIP3     4802     TIP3     H2       HT       0.417000       1.00800           0   0.00000     -0.301140E-02
     39323 TIP3     4803     TIP3     OH2      OT      -0.834000       15.9994           0   0.00000       0.00000    
     39324 TIP3     4803     TIP3     H1       HT       0.417000       1.00800           0   0.00000       0.00000    
     39325 TIP3     4803     TIP3     H2       HT       0.417000       1.00800           0   0.00000     -0.301140E-02
     39326 TIP3     4804     TIP3     OH2      OT      -0.834000       15.9994           0   0.00000       0.00000    
     39327 TIP3     4804     TIP3     H1       HT       0.417000       1.00800           0   0.00000       0.00000    
     39328 TIP3     4804     TIP3     H2       HT       0.417000       1.00800           0   0.00000     -0.301140E-02
     39329 TIP3     4805     TIP3     OH2      OT      -0.834000       15.9994           0   0.00000       0.00000    
     39330 TIP3     4805     TIP3     H1       HT       0.417000       1.00800           0   0.00000       0.00000    
     39331 TIP3     4805     TIP3     H2       HT       0.417000       1.00800           0   0.00000     -0.301140E-02
     39332 TIP3     4806     TIP3     OH2      OT      -0.834000       15.9994           0   0.00000       0.00000    
     39333 TIP3     4806     TIP3     H1       HT       0.417000       1.00800           0   0.00000       0.00000    
     39334 TIP3     4806     TIP3     H2       HT       0.417000       1.00800           0   0.00000     -0.301140E-02
     39335 TIP3     4807     TIP3     OH2      OT      -0.834000       15.9994           0   0.00000       0.00000    
     39336 TIP3     4807     TIP3     H1       HT       0.417000       1.00800           0   0.00000       0.00000    
     39337 TIP3     4807     TIP3     H2       HT       0.417000       1.00800           0   0.00000     -0.301140E-02
     39338 TIP3     4808     TIP3     OH2      OT      -0.834000       15.9994           0   0.00000       0.00000    
     39339 TIP3     4808     TIP3     H1       HT       0.417000       1.00800           0   0.00000       0.00000    
     39340 TIP3     4808     TIP3     H2       HT       0.417000       1.00800           0   0.00000     -0.301140E-02
     39341 TIP3     4809     TIP3     OH2      OT      -0.834000       15.9994           0   0.00000       0.00000    
     39342 TIP3     4809     TIP3     H1       HT       0.417000       1.00800           0   0.00000       0.00000    
     39343 TIP3     4809     TIP3     H2       HT       0.417000       1.00800           0   0.00000     -0.301140E-02
     39344 TIP3     4810     TIP3     OH2      OT      -0.834000       15.9994           0   0.00000       0.00000    
     39345 TIP3     4810     TIP3     H1       HT       0.417000       1.00800           0   0.00000       0.00000    
     39346 TIP3     4810     TIP3     H2       HT       0.417000       1.00800           0   0.00000     -0.301140E-02
     39347 TIP3     4811     TIP3     OH2      OT      -0.834000       15.9994           0   0.00000       0.00000    
     39348 TIP3     4811     TIP3     H1       HT       0.417000       1.00800           0   0.00000       0.00000    
     39349 TIP3     4811     TIP3     H2       HT       0.417000       1.00800           0   0.00000     -0.301140E-02
     39350 TIP3     4812     TIP3     OH2      OT      -0.834000       15.9994           0   0.00000       0.00000    
     39351 TIP3     4812     TIP3     H1       HT       0.417000       1.00800           0   0.00000       0.00000    
     39352 TIP3     4812     TIP3     H2       HT       0.417000       1.00800           0   0.00000     -0.301140E-02
     39353 TIP3     4813     TIP3     OH2      OT      -0.834000       15.9994           0   0.00000       0.00000    
     39354 TIP3     4813     TIP3     H1       HT       0.417000       1.00800           0   0.00000       0.00000    
     39355 TIP3     4813     TIP3     H2       HT       0.417000       1.00800           0   0.00000     -0.301140E-02
     39356 TIP3     4814     TIP3     OH2      OT      -0.834000       15.9994           0   0.00000       0.00000    
     39357 TIP3     4814     TIP3     H1       HT       0.417000       1.00800           0   0.00000       0.00000    
     39358 TIP3     4814     TIP3     H2       HT       0.417000       1.00800           0   0.00000     -0.301140E-02
     39359 TIP3     4815     TIP3     OH2      OT      -0.834000       15.9994           0   0.00000       0.00000    
     39360 TIP3     4815     TIP3     H1       HT       0.417000       1.00800           0   0.00000       0.00000    
     39361 TIP3     4815     TIP3     H2       HT       0.417000       1.00800           0   0.00000     -0.301140E-02
     39362 TIP3     4816     TIP3     OH2      OT      -0.834000       15.9994           0   0.00000       0.00000    
     39363 TIP3     4816     TIP3     H1       HT       0.417000       1.00800           0   0.00000       0.00000    
     39364 TIP3     4816     TIP3     H2       HT       0.417000       1.00800           0   0.00000     -0.301140E-02
     39365 TIP3     4817     TIP3     OH2      OT      -0.834000       15.9994           0   0.00000       0.00000    
     39366 TIP3     4817     TIP3     H1       HT       0.417000       1.00800           0   0.00000       0.00000    
     39367 TIP3     4817     TIP3     H2       HT       0.417000       1.00800           0   0.00000     -0.301140E-02
     39368 TIP3     4818     TIP3     OH2      OT      -0.834000       15.9994           0   0.00000       0.00000    
     39369 TIP3     4818     TIP3     H1       HT       0.417000       1.00800           0   0.00000       0.00000    
     39370 TIP3     4818     TIP3     H2       HT       0.417000       1.00800           0   0.00000     -0.301140E-02
     39371 TIP3     4819     TIP3     OH2      OT      -0.834000       15.9994           0   0.00000       0.00000    
     39372 TIP3     4819     TIP3     H1       HT       0.417000       1.00800           0   0.00000       0.00000    
     39373 TIP3     4819     TIP3     H2       HT       0.417000       1.00800           0   0.00000     -0.301140E-02
     39374 TIP3     4820     TIP3     OH2      OT      -0.834000       15.9994           0   0.00000       0.00000    
     39375 TIP3     4820     TIP3     H1       HT       0.417000       1.00800           0   0.00000       0.00000    
     39376 TIP3     4820     TIP3     H2       HT       0.417000       1.00800           0   0.00000     -0.301140E-02
     39377 TIP3     4821     TIP3     OH2      OT      -0.834000       15.9994           0   0.00000       0.00000    
     39378 TIP3     4821     TIP3     H1       HT       0.417000       1.00800           0   0.00000       0.00000    
     39379 TIP3     4821     TIP3     H2       HT       0.417000       1.00800           0   0.00000     -0.301140E-02
     39380 TIP3     4822     TIP3     OH2      OT      -0.834000       15.9994           0   0.00000       0.00000    
     39381 TIP3     4822     TIP3     H1       HT       0.417000       1.00800           0   0.00000       0.00000    
     39382 TIP3     4822     TIP3     H2       HT       0.417000       1.00800           0   0.00000     -0.301140E-02
     39383 TIP3     4823     TIP3     OH2      OT      -0.834000       15.9994           0   0.00000       0.00000    
     39384 TIP3     4823     TIP3     H1       HT       0.417000       1.00800           0   0.00000       0.00000    
     39385 TIP3     4823     TIP3     H2       HT       0.417000       1.00800           0   0.00000     -0.301140E-02
     39386 TIP3     4824     TIP3     OH2      OT      -0.834000       15.9994           0   0.00000       0.00000    
     39387 TIP3     4824     TIP3     H1       HT       0.417000       1.00800           0   0.00000       0.00000    
     39388 TIP3     4824     TIP3     H2       HT       0.417000       1.00800           0   0.00000     -0.301140E-02
     39389 TIP3     4825     TIP3     OH2      OT      -0.834000       15.9994           0   0.00000       0.00000    
     39390 TIP3     4825     TIP3     H1       HT       0.417000       1.00800           0   0.00000       0.00000    
     39391 TIP3     4825     TIP3     H2       HT       0.417000       1.00800           0   0.00000     -0.301140E-02
     39392 TIP3     4826     TIP3     OH2      OT      -0.834000       15.9994           0   0.00000       0.00000    
     39393 TIP3     4826     TIP3     H1       HT       0.417000       1.00800           0   0.00000       0.00000    
     39394 TIP3     4826     TIP3     H2       HT       0.417000       1.00800           0   0.00000     -0.301140E-02
     39395 TIP3     4827     TIP3     OH2      OT      -0.834000       15.9994           0   0.00000       0.00000    
     39396 TIP3     4827     TIP3     H1       HT       0.417000       1.00800           0   0.00000       0.00000    
     39397 TIP3     4827     TIP3     H2       HT       0.417000       1.00800           0   0.00000     -0.301140E-02
     39398 TIP3     4828     TIP3     OH2      OT      -0.834000       15.9994           0   0.00000       0.00000    
     39399 TIP3     4828     TIP3     H1       HT       0.417000       1.00800           0   0.00000       0.00000    
     39400 TIP3     4828     TIP3     H2       HT       0.417000       1.00800           0   0.00000     -0.301140E-02
     39401 TIP3     4829     TIP3     OH2      OT      -0.834000       15.9994           0   0.00000       0.00000    
     39402 TIP3     4829     TIP3     H1       HT       0.417000       1.00800           0   0.00000       0.00000    
     39403 TIP3     4829     TIP3     H2       HT       0.417000       1.00800           0   0.00000     -0.301140E-02
     39404 TIP3     4830     TIP3     OH2      OT      -0.834000       15.9994           0   0.00000       0.00000    
     39405 TIP3     4830     TIP3     H1       HT       0.417000       1.00800           0   0.00000       0.00000    
     39406 TIP3     4830     TIP3     H2       HT       0.417000       1.00800           0   0.00000     -0.301140E-02
     39407 TIP3     4831     TIP3     OH2      OT      -0.834000       15.9994           0   0.00000       0.00000    
     39408 TIP3     4831     TIP3     H1       HT       0.417000       1.00800           0   0.00000       0.00000    
     39409 TIP3     4831     TIP3     H2       HT       0.417000       1.00800           0   0.00000     -0.301140E-02
     39410 TIP3     4832     TIP3     OH2      OT      -0.834000       15.9994           0   0.00000       0.00000    
     39411 TIP3     4832     TIP3     H1       HT       0.417000       1.00800           0   0.00000       0.00000    
     39412 TIP3     4832     TIP3     H2       HT       0.417000       1.00800           0   0.00000     -0.301140E-02
     39413 TIP3     4833     TIP3     OH2      OT      -0.834000       15.9994           0   0.00000       0.00000    
     39414 TIP3     4833     TIP3     H1       HT       0.417000       1.00800           0   0.00000       0.00000    
     39415 TIP3     4833     TIP3     H2       HT       0.417000       1.00800           0   0.00000     -0.301140E-02
     39416 TIP3     4834     TIP3     OH2      OT      -0.834000       15.9994           0   0.00000       0.00000    
     39417 TIP3     4834     TIP3     H1       HT       0.417000       1.00800           0   0.00000       0.00000    
     39418 TIP3     4834     TIP3     H2       HT       0.417000       1.00800           0   0.00000     -0.301140E-02
     39419 TIP3     4835     TIP3     OH2      OT      -0.834000       15.9994           0   0.00000       0.00000    
     39420 TIP3     4835     TIP3     H1       HT       0.417000       1.00800           0   0.00000       0.00000    
     39421 TIP3     4835     TIP3     H2       HT       0.417000       1.00800           0   0.00000     -0.301140E-02
     39422 TIP3     4836     TIP3     OH2      OT      -0.834000       15.9994           0   0.00000       0.00000    
     39423 TIP3     4836     TIP3     H1       HT       0.417000       1.00800           0   0.00000       0.00000    
     39424 TIP3     4836     TIP3     H2       HT       0.417000       1.00800           0   0.00000     -0.301140E-02
     39425 TIP3     4837     TIP3     OH2      OT      -0.834000       15.9994           0   0.00000       0.00000    
     39426 TIP3     4837     TIP3     H1       HT       0.417000       1.00800           0   0.00000       0.00000    
     39427 TIP3     4837     TIP3     H2       HT       0.417000       1.00800           0   0.00000     -0.301140E-02
     39428 TIP3     4838     TIP3     OH2      OT      -0.834000       15.9994           0   0.00000       0.00000    
     39429 TIP3     4838     TIP3     H1       HT       0.417000       1.00800           0   0.00000       0.00000    
     39430 TIP3     4838     TIP3     H2       HT       0.417000       1.00800           0   0.00000     -0.301140E-02
     39431 TIP3     4839     TIP3     OH2      OT      -0.834000       15.9994           0   0.00000       0.00000    
     39432 TIP3     4839     TIP3     H1       HT       0.417000       1.00800           0   0.00000       0.00000    
     39433 TIP3     4839     TIP3     H2       HT       0.417000       1.00800           0   0.00000     -0.301140E-02
     39434 TIP3     4840     TIP3     OH2      OT      -0.834000       15.9994           0   0.00000       0.00000    
     39435 TIP3     4840     TIP3     H1       HT       0.417000       1.00800           0   0.00000       0.00000    
     39436 TIP3     4840     TIP3     H2       HT       0.417000       1.00800           0   0.00000     -0.301140E-02
     39437 TIP3     4841     TIP3     OH2      OT      -0.834000       15.9994           0   0.00000       0.00000    
     39438 TIP3     4841     TIP3     H1       HT       0.417000       1.00800           0   0.00000       0.00000    
     39439 TIP3     4841     TIP3     H2       HT       0.417000       1.00800           0   0.00000     -0.301140E-02
     39440 TIP3     4842     TIP3     OH2      OT      -0.834000       15.9994           0   0.00000       0.00000    
     39441 TIP3     4842     TIP3     H1       HT       0.417000       1.00800           0   0.00000       0.00000    
     39442 TIP3     4842     TIP3     H2       HT       0.417000       1.00800           0   0.00000     -0.301140E-02
     39443 TIP3     4843     TIP3     OH2      OT      -0.834000       15.9994           0   0.00000       0.00000    
     39444 TIP3     4843     TIP3     H1       HT       0.417000       1.00800           0   0.00000       0.00000    
     39445 TIP3     4843     TIP3     H2       HT       0.417000       1.00800           0   0.00000     -0.301140E-02
     39446 TIP3     4844     TIP3     OH2      OT      -0.834000       15.9994           0   0.00000       0.00000    
     39447 TIP3     4844     TIP3     H1       HT       0.417000       1.00800           0   0.00000       0.00000    
     39448 TIP3     4844     TIP3     H2       HT       0.417000       1.00800           0   0.00000     -0.301140E-02
     39449 TIP3     4845     TIP3     OH2      OT      -0.834000       15.9994           0   0.00000       0.00000    
     39450 TIP3     4845     TIP3     H1       HT       0.417000       1.00800           0   0.00000       0.00000    
     39451 TIP3     4845     TIP3     H2       HT       0.417000       1.00800           0   0.00000     -0.301140E-02
     39452 TIP3     4846     TIP3     OH2      OT      -0.834000       15.9994           0   0.00000       0.00000    
     39453 TIP3     4846     TIP3     H1       HT       0.417000       1.00800           0   0.00000       0.00000    
     39454 TIP3     4846     TIP3     H2       HT       0.417000       1.00800           0   0.00000     -0.301140E-02
     39455 TIP3     4847     TIP3     OH2      OT      -0.834000       15.9994           0   0.00000       0.00000    
     39456 TIP3     4847     TIP3     H1       HT       0.417000       1.00800           0   0.00000       0.00000    
     39457 TIP3     4847     TIP3     H2       HT       0.417000       1.00800           0   0.00000     -0.301140E-02
     39458 TIP3     4848     TIP3     OH2      OT      -0.834000       15.9994           0   0.00000       0.00000    
     39459 TIP3     4848     TIP3     H1       HT       0.417000       1.00800           0   0.00000       0.00000    
     39460 TIP3     4848     TIP3     H2       HT       0.417000       1.00800           0   0.00000     -0.301140E-02
     39461 TIP3     4849     TIP3     OH2      OT      -0.834000       15.9994           0   0.00000       0.00000    
     39462 TIP3     4849     TIP3     H1       HT       0.417000       1.00800           0   0.00000       0.00000    
     39463 TIP3     4849     TIP3     H2       HT       0.417000       1.00800           0   0.00000     -0.301140E-02
     39464 TIP3     4850     TIP3     OH2      OT      -0.834000       15.9994           0   0.00000       0.00000    
     39465 TIP3     4850     TIP3     H1       HT       0.417000       1.00800           0   0.00000       0.00000    
     39466 TIP3     4850     TIP3     H2       HT       0.417000       1.00800           0   0.00000     -0.301140E-02
     39467 TIP3     4851     TIP3     OH2      OT      -0.834000       15.9994           0   0.00000       0.00000    
     39468 TIP3     4851     TIP3     H1       HT       0.417000       1.00800           0   0.00000       0.00000    
     39469 TIP3     4851     TIP3     H2       HT       0.417000       1.00800           0   0.00000     -0.301140E-02
     39470 TIP3     4852     TIP3     OH2      OT      -0.834000       15.9994           0   0.00000       0.00000    
     39471 TIP3     4852     TIP3     H1       HT       0.417000       1.00800           0   0.00000       0.00000    
     39472 TIP3     4852     TIP3     H2       HT       0.417000       1.00800           0   0.00000     -0.301140E-02
     39473 TIP3     4853     TIP3     OH2      OT      -0.834000       15.9994           0   0.00000       0.00000    
     39474 TIP3     4853     TIP3     H1       HT       0.417000       1.00800           0   0.00000       0.00000    
     39475 TIP3     4853     TIP3     H2       HT       0.417000       1.00800           0   0.00000     -0.301140E-02
     39476 TIP3     4854     TIP3     OH2      OT      -0.834000       15.9994           0   0.00000       0.00000    
     39477 TIP3     4854     TIP3     H1       HT       0.417000       1.00800           0   0.00000       0.00000    
     39478 TIP3     4854     TIP3     H2       HT       0.417000       1.00800           0   0.00000     -0.301140E-02
     39479 TIP3     4855     TIP3     OH2      OT      -0.834000       15.9994           0   0.00000       0.00000    
     39480 TIP3     4855     TIP3     H1       HT       0.417000       1.00800           0   0.00000       0.00000    
     39481 TIP3     4855     TIP3     H2       HT       0.417000       1.00800           0   0.00000     -0.301140E-02
     39482 TIP3     4856     TIP3     OH2      OT      -0.834000       15.9994           0   0.00000       0.00000    
     39483 TIP3     4856     TIP3     H1       HT       0.417000       1.00800           0   0.00000       0.00000    
     39484 TIP3     4856     TIP3     H2       HT       0.417000       1.00800           0   0.00000     -0.301140E-02
     39485 TIP3     4857     TIP3     OH2      OT      -0.834000       15.9994           0   0.00000       0.00000    
     39486 TIP3     4857     TIP3     H1       HT       0.417000       1.00800           0   0.00000       0.00000    
     39487 TIP3     4857     TIP3     H2       HT       0.417000       1.00800           0   0.00000     -0.301140E-02
     39488 TIP3     4858     TIP3     OH2      OT      -0.834000       15.9994           0   0.00000       0.00000    
     39489 TIP3     4858     TIP3     H1       HT       0.417000       1.00800           0   0.00000       0.00000    
     39490 TIP3     4858     TIP3     H2       HT       0.417000       1.00800           0   0.00000     -0.301140E-02
     39491 TIP3     4859     TIP3     OH2      OT      -0.834000       15.9994           0   0.00000       0.00000    
     39492 TIP3     4859     TIP3     H1       HT       0.417000       1.00800           0   0.00000       0.00000    
     39493 TIP3     4859     TIP3     H2       HT       0.417000       1.00800           0   0.00000     -0.301140E-02
     39494 TIP3     4860     TIP3     OH2      OT      -0.834000       15.9994           0   0.00000       0.00000    
     39495 TIP3     4860     TIP3     H1       HT       0.417000       1.00800           0   0.00000       0.00000    
     39496 TIP3     4860     TIP3     H2       HT       0.417000       1.00800           0   0.00000     -0.301140E-02
     39497 TIP3     4861     TIP3     OH2      OT      -0.834000       15.9994           0   0.00000       0.00000    
     39498 TIP3     4861     TIP3     H1       HT       0.417000       1.00800           0   0.00000       0.00000    
     39499 TIP3     4861     TIP3     H2       HT       0.417000       1.00800           0   0.00000     -0.301140E-02
     39500 TIP3     4862     TIP3     OH2      OT      -0.834000       15.9994           0   0.00000       0.00000    
     39501 TIP3     4862     TIP3     H1       HT       0.417000       1.00800           0   0.00000       0.00000    
     39502 TIP3     4862     TIP3     H2       HT       0.417000       1.00800           0   0.00000     -0.301140E-02
     39503 TIP3     4863     TIP3     OH2      OT      -0.834000       15.9994           0   0.00000       0.00000    
     39504 TIP3     4863     TIP3     H1       HT       0.417000       1.00800           0   0.00000       0.00000    
     39505 TIP3     4863     TIP3     H2       HT       0.417000       1.00800           0   0.00000     -0.301140E-02
     39506 TIP3     4864     TIP3     OH2      OT      -0.834000       15.9994           0   0.00000       0.00000    
     39507 TIP3     4864     TIP3     H1       HT       0.417000       1.00800           0   0.00000       0.00000    
     39508 TIP3     4864     TIP3     H2       HT       0.417000       1.00800           0   0.00000     -0.301140E-02
     39509 TIP3     4865     TIP3     OH2      OT      -0.834000       15.9994           0   0.00000       0.00000    
     39510 TIP3     4865     TIP3     H1       HT       0.417000       1.00800           0   0.00000       0.00000    
     39511 TIP3     4865     TIP3     H2       HT       0.417000       1.00800           0   0.00000     -0.301140E-02
     39512 TIP3     4866     TIP3     OH2      OT      -0.834000       15.9994           0   0.00000       0.00000    
     39513 TIP3     4866     TIP3     H1       HT       0.417000       1.00800           0   0.00000       0.00000    
     39514 TIP3     4866     TIP3     H2       HT       0.417000       1.00800           0   0.00000     -0.301140E-02
     39515 TIP3     4867     TIP3     OH2      OT      -0.834000       15.9994           0   0.00000       0.00000    
     39516 TIP3     4867     TIP3     H1       HT       0.417000       1.00800           0   0.00000       0.00000    
     39517 TIP3     4867     TIP3     H2       HT       0.417000       1.00800           0   0.00000     -0.301140E-02
     39518 TIP3     4868     TIP3     OH2      OT      -0.834000       15.9994           0   0.00000       0.00000    
     39519 TIP3     4868     TIP3     H1       HT       0.417000       1.00800           0   0.00000       0.00000    
     39520 TIP3     4868     TIP3     H2       HT       0.417000       1.00800           0   0.00000     -0.301140E-02
     39521 TIP3     4869     TIP3     OH2      OT      -0.834000       15.9994           0   0.00000       0.00000    
     39522 TIP3     4869     TIP3     H1       HT       0.417000       1.00800           0   0.00000       0.00000    
     39523 TIP3     4869     TIP3     H2       HT       0.417000       1.00800           0   0.00000     -0.301140E-02
     39524 TIP3     4870     TIP3     OH2      OT      -0.834000       15.9994           0   0.00000       0.00000    
     39525 TIP3     4870     TIP3     H1       HT       0.417000       1.00800           0   0.00000       0.00000    
     39526 TIP3     4870     TIP3     H2       HT       0.417000       1.00800           0   0.00000     -0.301140E-02
     39527 TIP3     4871     TIP3     OH2      OT      -0.834000       15.9994           0   0.00000       0.00000    
     39528 TIP3     4871     TIP3     H1       HT       0.417000       1.00800           0   0.00000       0.00000    
     39529 TIP3     4871     TIP3     H2       HT       0.417000       1.00800           0   0.00000     -0.301140E-02
     39530 TIP3     4872     TIP3     OH2      OT      -0.834000       15.9994           0   0.00000       0.00000    
     39531 TIP3     4872     TIP3     H1       HT       0.417000       1.00800           0   0.00000       0.00000    
     39532 TIP3     4872     TIP3     H2       HT       0.417000       1.00800           0   0.00000     -0.301140E-02
     39533 TIP3     4873     TIP3     OH2      OT      -0.834000       15.9994           0   0.00000       0.00000    
     39534 TIP3     4873     TIP3     H1       HT       0.417000       1.00800           0   0.00000       0.00000    
     39535 TIP3     4873     TIP3     H2       HT       0.417000       1.00800           0   0.00000     -0.301140E-02
     39536 TIP3     4874     TIP3     OH2      OT      -0.834000       15.9994           0   0.00000       0.00000    
     39537 TIP3     4874     TIP3     H1       HT       0.417000       1.00800           0   0.00000       0.00000    
     39538 TIP3     4874     TIP3     H2       HT       0.417000       1.00800           0   0.00000     -0.301140E-02
     39539 TIP3     4875     TIP3     OH2      OT      -0.834000       15.9994           0   0.00000       0.00000    
     39540 TIP3     4875     TIP3     H1       HT       0.417000       1.00800           0   0.00000       0.00000    
     39541 TIP3     4875     TIP3     H2       HT       0.417000       1.00800           0   0.00000     -0.301140E-02
     39542 TIP3     4876     TIP3     OH2      OT      -0.834000       15.9994           0   0.00000       0.00000    
     39543 TIP3     4876     TIP3     H1       HT       0.417000       1.00800           0   0.00000       0.00000    
     39544 TIP3     4876     TIP3     H2       HT       0.417000       1.00800           0   0.00000     -0.301140E-02
     39545 TIP3     4877     TIP3     OH2      OT      -0.834000       15.9994           0   0.00000       0.00000    
     39546 TIP3     4877     TIP3     H1       HT       0.417000       1.00800           0   0.00000       0.00000    
     39547 TIP3     4877     TIP3     H2       HT       0.417000       1.00800           0   0.00000     -0.301140E-02
     39548 TIP3     4878     TIP3     OH2      OT      -0.834000       15.9994           0   0.00000       0.00000    
     39549 TIP3     4878     TIP3     H1       HT       0.417000       1.00800           0   0.00000       0.00000    
     39550 TIP3     4878     TIP3     H2       HT       0.417000       1.00800           0   0.00000     -0.301140E-02
     39551 TIP3     4879     TIP3     OH2      OT      -0.834000       15.9994           0   0.00000       0.00000    
     39552 TIP3     4879     TIP3     H1       HT       0.417000       1.00800           0   0.00000       0.00000    
     39553 TIP3     4879     TIP3     H2       HT       0.417000       1.00800           0   0.00000     -0.301140E-02
     39554 TIP3     4880     TIP3     OH2      OT      -0.834000       15.9994           0   0.00000       0.00000    
     39555 TIP3     4880     TIP3     H1       HT       0.417000       1.00800           0   0.00000       0.00000    
     39556 TIP3     4880     TIP3     H2       HT       0.417000       1.00800           0   0.00000     -0.301140E-02
     39557 TIP3     4881     TIP3     OH2      OT      -0.834000       15.9994           0   0.00000       0.00000    
     39558 TIP3     4881     TIP3     H1       HT       0.417000       1.00800           0   0.00000       0.00000    
     39559 TIP3     4881     TIP3     H2       HT       0.417000       1.00800           0   0.00000     -0.301140E-02
     39560 TIP3     4882     TIP3     OH2      OT      -0.834000       15.9994           0   0.00000       0.00000    
     39561 TIP3     4882     TIP3     H1       HT       0.417000       1.00800           0   0.00000       0.00000    
     39562 TIP3     4882     TIP3     H2       HT       0.417000       1.00800           0   0.00000     -0.301140E-02
     39563 TIP3     4883     TIP3     OH2      OT      -0.834000       15.9994           0   0.00000       0.00000    
     39564 TIP3     4883     TIP3     H1       HT       0.417000       1.00800           0   0.00000       0.00000    
     39565 TIP3     4883     TIP3     H2       HT       0.417000       1.00800           0   0.00000     -0.301140E-02
     39566 TIP3     4884     TIP3     OH2      OT      -0.834000       15.9994           0   0.00000       0.00000    
     39567 TIP3     4884     TIP3     H1       HT       0.417000       1.00800           0   0.00000       0.00000    
     39568 TIP3     4884     TIP3     H2       HT       0.417000       1.00800           0   0.00000     -0.301140E-02
     39569 TIP3     4885     TIP3     OH2      OT      -0.834000       15.9994           0   0.00000       0.00000    
     39570 TIP3     4885     TIP3     H1       HT       0.417000       1.00800           0   0.00000       0.00000    
     39571 TIP3     4885     TIP3     H2       HT       0.417000       1.00800           0   0.00000     -0.301140E-02
     39572 TIP3     4886     TIP3     OH2      OT      -0.834000       15.9994           0   0.00000       0.00000    
     39573 TIP3     4886     TIP3     H1       HT       0.417000       1.00800           0   0.00000       0.00000    
     39574 TIP3     4886     TIP3     H2       HT       0.417000       1.00800           0   0.00000     -0.301140E-02
     39575 TIP3     4887     TIP3     OH2      OT      -0.834000       15.9994           0   0.00000       0.00000    
     39576 TIP3     4887     TIP3     H1       HT       0.417000       1.00800           0   0.00000       0.00000    
     39577 TIP3     4887     TIP3     H2       HT       0.417000       1.00800           0   0.00000     -0.301140E-02
     39578 TIP3     4888     TIP3     OH2      OT      -0.834000       15.9994           0   0.00000       0.00000    
     39579 TIP3     4888     TIP3     H1       HT       0.417000       1.00800           0   0.00000       0.00000    
     39580 TIP3     4888     TIP3     H2       HT       0.417000       1.00800           0   0.00000     -0.301140E-02
     39581 TIP3     4889     TIP3     OH2      OT      -0.834000       15.9994           0   0.00000       0.00000    
     39582 TIP3     4889     TIP3     H1       HT       0.417000       1.00800           0   0.00000       0.00000    
     39583 TIP3     4889     TIP3     H2       HT       0.417000       1.00800           0   0.00000     -0.301140E-02
     39584 TIP3     4890     TIP3     OH2      OT      -0.834000       15.9994           0   0.00000       0.00000    
     39585 TIP3     4890     TIP3     H1       HT       0.417000       1.00800           0   0.00000       0.00000    
     39586 TIP3     4890     TIP3     H2       HT       0.417000       1.00800           0   0.00000     -0.301140E-02
     39587 TIP3     4891     TIP3     OH2      OT      -0.834000       15.9994           0   0.00000       0.00000    
     39588 TIP3     4891     TIP3     H1       HT       0.417000       1.00800           0   0.00000       0.00000    
     39589 TIP3     4891     TIP3     H2       HT       0.417000       1.00800           0   0.00000     -0.301140E-02
     39590 TIP3     4892     TIP3     OH2      OT      -0.834000       15.9994           0   0.00000       0.00000    
     39591 TIP3     4892     TIP3     H1       HT       0.417000       1.00800           0   0.00000       0.00000    
     39592 TIP3     4892     TIP3     H2       HT       0.417000       1.00800           0   0.00000     -0.301140E-02
     39593 TIP3     4893     TIP3     OH2      OT      -0.834000       15.9994           0   0.00000       0.00000    
     39594 TIP3     4893     TIP3     H1       HT       0.417000       1.00800           0   0.00000       0.00000    
     39595 TIP3     4893     TIP3     H2       HT       0.417000       1.00800           0   0.00000     -0.301140E-02
     39596 TIP3     4894     TIP3     OH2      OT      -0.834000       15.9994           0   0.00000       0.00000    
     39597 TIP3     4894     TIP3     H1       HT       0.417000       1.00800           0   0.00000       0.00000    
     39598 TIP3     4894     TIP3     H2       HT       0.417000       1.00800           0   0.00000     -0.301140E-02
     39599 TIP3     4895     TIP3     OH2      OT      -0.834000       15.9994           0   0.00000       0.00000    
     39600 TIP3     4895     TIP3     H1       HT       0.417000       1.00800           0   0.00000       0.00000    
     39601 TIP3     4895     TIP3     H2       HT       0.417000       1.00800           0   0.00000     -0.301140E-02
     39602 TIP3     4896     TIP3     OH2      OT      -0.834000       15.9994           0   0.00000       0.00000    
     39603 TIP3     4896     TIP3     H1       HT       0.417000       1.00800           0   0.00000       0.00000    
     39604 TIP3     4896     TIP3     H2       HT       0.417000       1.00800           0   0.00000     -0.301140E-02
     39605 TIP3     4897     TIP3     OH2      OT      -0.834000       15.9994           0   0.00000       0.00000    
     39606 TIP3     4897     TIP3     H1       HT       0.417000       1.00800           0   0.00000       0.00000    
     39607 TIP3     4897     TIP3     H2       HT       0.417000       1.00800           0   0.00000     -0.301140E-02
     39608 TIP3     4898     TIP3     OH2      OT      -0.834000       15.9994           0   0.00000       0.00000    
     39609 TIP3     4898     TIP3     H1       HT       0.417000       1.00800           0   0.00000       0.00000    
     39610 TIP3     4898     TIP3     H2       HT       0.417000       1.00800           0   0.00000     -0.301140E-02
     39611 TIP3     4899     TIP3     OH2      OT      -0.834000       15.9994           0   0.00000       0.00000    
     39612 TIP3     4899     TIP3     H1       HT       0.417000       1.00800           0   0.00000       0.00000    
     39613 TIP3     4899     TIP3     H2       HT       0.417000       1.00800           0   0.00000     -0.301140E-02
     39614 TIP3     4900     TIP3     OH2      OT      -0.834000       15.9994           0   0.00000       0.00000    
     39615 TIP3     4900     TIP3     H1       HT       0.417000       1.00800           0   0.00000       0.00000    
     39616 TIP3     4900     TIP3     H2       HT       0.417000       1.00800           0   0.00000     -0.301140E-02
     39617 TIP3     4901     TIP3     OH2      OT      -0.834000       15.9994           0   0.00000       0.00000    
     39618 TIP3     4901     TIP3     H1       HT       0.417000       1.00800           0   0.00000       0.00000    
     39619 TIP3     4901     TIP3     H2       HT       0.417000       1.00800           0   0.00000     -0.301140E-02
     39620 TIP3     4902     TIP3     OH2      OT      -0.834000       15.9994           0   0.00000       0.00000    
     39621 TIP3     4902     TIP3     H1       HT       0.417000       1.00800           0   0.00000       0.00000    
     39622 TIP3     4902     TIP3     H2       HT       0.417000       1.00800           0   0.00000     -0.301140E-02
     39623 TIP3     4903     TIP3     OH2      OT      -0.834000       15.9994           0   0.00000       0.00000    
     39624 TIP3     4903     TIP3     H1       HT       0.417000       1.00800           0   0.00000       0.00000    
     39625 TIP3     4903     TIP3     H2       HT       0.417000       1.00800           0   0.00000     -0.301140E-02
     39626 TIP3     4904     TIP3     OH2      OT      -0.834000       15.9994           0   0.00000       0.00000    
     39627 TIP3     4904     TIP3     H1       HT       0.417000       1.00800           0   0.00000       0.00000    
     39628 TIP3     4904     TIP3     H2       HT       0.417000       1.00800           0   0.00000     -0.301140E-02
     39629 TIP3     4905     TIP3     OH2      OT      -0.834000       15.9994           0   0.00000       0.00000    
     39630 TIP3     4905     TIP3     H1       HT       0.417000       1.00800           0   0.00000       0.00000    
     39631 TIP3     4905     TIP3     H2       HT       0.417000       1.00800           0   0.00000     -0.301140E-02
     39632 TIP3     4906     TIP3     OH2      OT      -0.834000       15.9994           0   0.00000       0.00000    
     39633 TIP3     4906     TIP3     H1       HT       0.417000       1.00800           0   0.00000       0.00000    
     39634 TIP3     4906     TIP3     H2       HT       0.417000       1.00800           0   0.00000     -0.301140E-02
     39635 TIP3     4907     TIP3     OH2      OT      -0.834000       15.9994           0   0.00000       0.00000    
     39636 TIP3     4907     TIP3     H1       HT       0.417000       1.00800           0   0.00000       0.00000    
     39637 TIP3     4907     TIP3     H2       HT       0.417000       1.00800           0   0.00000     -0.301140E-02
     39638 TIP3     4908     TIP3     OH2      OT      -0.834000       15.9994           0   0.00000       0.00000    
     39639 TIP3     4908     TIP3     H1       HT       0.417000       1.00800           0   0.00000       0.00000    
     39640 TIP3     4908     TIP3     H2       HT       0.417000       1.00800           0   0.00000     -0.301140E-02
     39641 TIP3     4909     TIP3     OH2      OT      -0.834000       15.9994           0   0.00000       0.00000    
     39642 TIP3     4909     TIP3     H1       HT       0.417000       1.00800           0   0.00000       0.00000    
     39643 TIP3     4909     TIP3     H2       HT       0.417000       1.00800           0   0.00000     -0.301140E-02
     39644 TIP3     4910     TIP3     OH2      OT      -0.834000       15.9994           0   0.00000       0.00000    
     39645 TIP3     4910     TIP3     H1       HT       0.417000       1.00800           0   0.00000       0.00000    
     39646 TIP3     4910     TIP3     H2       HT       0.417000       1.00800           0   0.00000     -0.301140E-02
     39647 TIP3     4911     TIP3     OH2      OT      -0.834000       15.9994           0   0.00000       0.00000    
     39648 TIP3     4911     TIP3     H1       HT       0.417000       1.00800           0   0.00000       0.00000    
     39649 TIP3     4911     TIP3     H2       HT       0.417000       1.00800           0   0.00000     -0.301140E-02
     39650 TIP3     4912     TIP3     OH2      OT      -0.834000       15.9994           0   0.00000       0.00000    
     39651 TIP3     4912     TIP3     H1       HT       0.417000       1.00800           0   0.00000       0.00000    
     39652 TIP3     4912     TIP3     H2       HT       0.417000       1.00800           0   0.00000     -0.301140E-02
     39653 TIP3     4913     TIP3     OH2      OT      -0.834000       15.9994           0   0.00000       0.00000    
     39654 TIP3     4913     TIP3     H1       HT       0.417000       1.00800           0   0.00000       0.00000    
     39655 TIP3     4913     TIP3     H2       HT       0.417000       1.00800           0   0.00000     -0.301140E-02
     39656 TIP3     4914     TIP3     OH2      OT      -0.834000       15.9994           0   0.00000       0.00000    
     39657 TIP3     4914     TIP3     H1       HT       0.417000       1.00800           0   0.00000       0.00000    
     39658 TIP3     4914     TIP3     H2       HT       0.417000       1.00800           0   0.00000     -0.301140E-02
     39659 TIP3     4915     TIP3     OH2      OT      -0.834000       15.9994           0   0.00000       0.00000    
     39660 TIP3     4915     TIP3     H1       HT       0.417000       1.00800           0   0.00000       0.00000    
     39661 TIP3     4915     TIP3     H2       HT       0.417000       1.00800           0   0.00000     -0.301140E-02
     39662 TIP3     4916     TIP3     OH2      OT      -0.834000       15.9994           0   0.00000       0.00000    
     39663 TIP3     4916     TIP3     H1       HT       0.417000       1.00800           0   0.00000       0.00000    
     39664 TIP3     4916     TIP3     H2       HT       0.417000       1.00800           0   0.00000     -0.301140E-02
     39665 TIP3     4917     TIP3     OH2      OT      -0.834000       15.9994           0   0.00000       0.00000    
     39666 TIP3     4917     TIP3     H1       HT       0.417000       1.00800           0   0.00000       0.00000    
     39667 TIP3     4917     TIP3     H2       HT       0.417000       1.00800           0   0.00000     -0.301140E-02
     39668 TIP3     4918     TIP3     OH2      OT      -0.834000       15.9994           0   0.00000       0.00000    
     39669 TIP3     4918     TIP3     H1       HT       0.417000       1.00800           0   0.00000       0.00000    
     39670 TIP3     4918     TIP3     H2       HT       0.417000       1.00800           0   0.00000     -0.301140E-02
     39671 TIP3     4919     TIP3     OH2      OT      -0.834000       15.9994           0   0.00000       0.00000    
     39672 TIP3     4919     TIP3     H1       HT       0.417000       1.00800           0   0.00000       0.00000    
     39673 TIP3     4919     TIP3     H2       HT       0.417000       1.00800           0   0.00000     -0.301140E-02
     39674 TIP3     4920     TIP3     OH2      OT      -0.834000       15.9994           0   0.00000       0.00000    
     39675 TIP3     4920     TIP3     H1       HT       0.417000       1.00800           0   0.00000       0.00000    
     39676 TIP3     4920     TIP3     H2       HT       0.417000       1.00800           0   0.00000     -0.301140E-02
     39677 TIP3     4921     TIP3     OH2      OT      -0.834000       15.9994           0   0.00000       0.00000    
     39678 TIP3     4921     TIP3     H1       HT       0.417000       1.00800           0   0.00000       0.00000    
     39679 TIP3     4921     TIP3     H2       HT       0.417000       1.00800           0   0.00000     -0.301140E-02
     39680 TIP3     4922     TIP3     OH2      OT      -0.834000       15.9994           0   0.00000       0.00000    
     39681 TIP3     4922     TIP3     H1       HT       0.417000       1.00800           0   0.00000       0.00000    
     39682 TIP3     4922     TIP3     H2       HT       0.417000       1.00800           0   0.00000     -0.301140E-02
     39683 TIP3     4923     TIP3     OH2      OT      -0.834000       15.9994           0   0.00000       0.00000    
     39684 TIP3     4923     TIP3     H1       HT       0.417000       1.00800           0   0.00000       0.00000    
     39685 TIP3     4923     TIP3     H2       HT       0.417000       1.00800           0   0.00000     -0.301140E-02
     39686 TIP3     4924     TIP3     OH2      OT      -0.834000       15.9994           0   0.00000       0.00000    
     39687 TIP3     4924     TIP3     H1       HT       0.417000       1.00800           0   0.00000       0.00000    
     39688 TIP3     4924     TIP3     H2       HT       0.417000       1.00800           0   0.00000     -0.301140E-02
     39689 TIP3     4925     TIP3     OH2      OT      -0.834000       15.9994           0   0.00000       0.00000    
     39690 TIP3     4925     TIP3     H1       HT       0.417000       1.00800           0   0.00000       0.00000    
     39691 TIP3     4925     TIP3     H2       HT       0.417000       1.00800           0   0.00000     -0.301140E-02
     39692 TIP3     4926     TIP3     OH2      OT      -0.834000       15.9994           0   0.00000       0.00000    
     39693 TIP3     4926     TIP3     H1       HT       0.417000       1.00800           0   0.00000       0.00000    
     39694 TIP3     4926     TIP3     H2       HT       0.417000       1.00800           0   0.00000     -0.301140E-02
     39695 TIP3     4927     TIP3     OH2      OT      -0.834000       15.9994           0   0.00000       0.00000    
     39696 TIP3     4927     TIP3     H1       HT       0.417000       1.00800           0   0.00000       0.00000    
     39697 TIP3     4927     TIP3     H2       HT       0.417000       1.00800           0   0.00000     -0.301140E-02
     39698 TIP3     4928     TIP3     OH2      OT      -0.834000       15.9994           0   0.00000       0.00000    
     39699 TIP3     4928     TIP3     H1       HT       0.417000       1.00800           0   0.00000       0.00000    
     39700 TIP3     4928     TIP3     H2       HT       0.417000       1.00800           0   0.00000     -0.301140E-02
     39701 TIP3     4929     TIP3     OH2      OT      -0.834000       15.9994           0   0.00000       0.00000    
     39702 TIP3     4929     TIP3     H1       HT       0.417000       1.00800           0   0.00000       0.00000    
     39703 TIP3     4929     TIP3     H2       HT       0.417000       1.00800           0   0.00000     -0.301140E-02
     39704 TIP3     4930     TIP3     OH2      OT      -0.834000       15.9994           0   0.00000       0.00000    
     39705 TIP3     4930     TIP3     H1       HT       0.417000       1.00800           0   0.00000       0.00000    
     39706 TIP3     4930     TIP3     H2       HT       0.417000       1.00800           0   0.00000     -0.301140E-02
     39707 TIP3     4931     TIP3     OH2      OT      -0.834000       15.9994           0   0.00000       0.00000    
     39708 TIP3     4931     TIP3     H1       HT       0.417000       1.00800           0   0.00000       0.00000    
     39709 TIP3     4931     TIP3     H2       HT       0.417000       1.00800           0   0.00000     -0.301140E-02
     39710 TIP3     4932     TIP3     OH2      OT      -0.834000       15.9994           0   0.00000       0.00000    
     39711 TIP3     4932     TIP3     H1       HT       0.417000       1.00800           0   0.00000       0.00000    
     39712 TIP3     4932     TIP3     H2       HT       0.417000       1.00800           0   0.00000     -0.301140E-02
     39713 TIP3     4933     TIP3     OH2      OT      -0.834000       15.9994           0   0.00000       0.00000    
     39714 TIP3     4933     TIP3     H1       HT       0.417000       1.00800           0   0.00000       0.00000    
     39715 TIP3     4933     TIP3     H2       HT       0.417000       1.00800           0   0.00000     -0.301140E-02
     39716 TIP3     4934     TIP3     OH2      OT      -0.834000       15.9994           0   0.00000       0.00000    
     39717 TIP3     4934     TIP3     H1       HT       0.417000       1.00800           0   0.00000       0.00000    
     39718 TIP3     4934     TIP3     H2       HT       0.417000       1.00800           0   0.00000     -0.301140E-02
     39719 TIP3     4935     TIP3     OH2      OT      -0.834000       15.9994           0   0.00000       0.00000    
     39720 TIP3     4935     TIP3     H1       HT       0.417000       1.00800           0   0.00000       0.00000    
     39721 TIP3     4935     TIP3     H2       HT       0.417000       1.00800           0   0.00000     -0.301140E-02
     39722 TIP3     4936     TIP3     OH2      OT      -0.834000       15.9994           0   0.00000       0.00000    
     39723 TIP3     4936     TIP3     H1       HT       0.417000       1.00800           0   0.00000       0.00000    
     39724 TIP3     4936     TIP3     H2       HT       0.417000       1.00800           0   0.00000     -0.301140E-02
     39725 TIP3     4937     TIP3     OH2      OT      -0.834000       15.9994           0   0.00000       0.00000    
     39726 TIP3     4937     TIP3     H1       HT       0.417000       1.00800           0   0.00000       0.00000    
     39727 TIP3     4937     TIP3     H2       HT       0.417000       1.00800           0   0.00000     -0.301140E-02
     39728 TIP3     4938     TIP3     OH2      OT      -0.834000       15.9994           0   0.00000       0.00000    
     39729 TIP3     4938     TIP3     H1       HT       0.417000       1.00800           0   0.00000       0.00000    
     39730 TIP3     4938     TIP3     H2       HT       0.417000       1.00800           0   0.00000     -0.301140E-02
     39731 TIP3     4939     TIP3     OH2      OT      -0.834000       15.9994           0   0.00000       0.00000    
     39732 TIP3     4939     TIP3     H1       HT       0.417000       1.00800           0   0.00000       0.00000    
     39733 TIP3     4939     TIP3     H2       HT       0.417000       1.00800           0   0.00000     -0.301140E-02
     39734 TIP3     4940     TIP3     OH2      OT      -0.834000       15.9994           0   0.00000       0.00000    
     39735 TIP3     4940     TIP3     H1       HT       0.417000       1.00800           0   0.00000       0.00000    
     39736 TIP3     4940     TIP3     H2       HT       0.417000       1.00800           0   0.00000     -0.301140E-02
     39737 TIP3     4941     TIP3     OH2      OT      -0.834000       15.9994           0   0.00000       0.00000    
     39738 TIP3     4941     TIP3     H1       HT       0.417000       1.00800           0   0.00000       0.00000    
     39739 TIP3     4941     TIP3     H2       HT       0.417000       1.00800           0   0.00000     -0.301140E-02
     39740 TIP3     4942     TIP3     OH2      OT      -0.834000       15.9994           0   0.00000       0.00000    
     39741 TIP3     4942     TIP3     H1       HT       0.417000       1.00800           0   0.00000       0.00000    
     39742 TIP3     4942     TIP3     H2       HT       0.417000       1.00800           0   0.00000     -0.301140E-02
     39743 TIP3     4943     TIP3     OH2      OT      -0.834000       15.9994           0   0.00000       0.00000    
     39744 TIP3     4943     TIP3     H1       HT       0.417000       1.00800           0   0.00000       0.00000    
     39745 TIP3     4943     TIP3     H2       HT       0.417000       1.00800           0   0.00000     -0.301140E-02
     39746 TIP3     4944     TIP3     OH2      OT      -0.834000       15.9994           0   0.00000       0.00000    
     39747 TIP3     4944     TIP3     H1       HT       0.417000       1.00800           0   0.00000       0.00000    
     39748 TIP3     4944     TIP3     H2       HT       0.417000       1.00800           0   0.00000     -0.301140E-02
     39749 TIP3     4945     TIP3     OH2      OT      -0.834000       15.9994           0   0.00000       0.00000    
     39750 TIP3     4945     TIP3     H1       HT       0.417000       1.00800           0   0.00000       0.00000    
     39751 TIP3     4945     TIP3     H2       HT       0.417000       1.00800           0   0.00000     -0.301140E-02
     39752 TIP3     4946     TIP3     OH2      OT      -0.834000       15.9994           0   0.00000       0.00000    
     39753 TIP3     4946     TIP3     H1       HT       0.417000       1.00800           0   0.00000       0.00000    
     39754 TIP3     4946     TIP3     H2       HT       0.417000       1.00800           0   0.00000     -0.301140E-02
     39755 TIP3     4947     TIP3     OH2      OT      -0.834000       15.9994           0   0.00000       0.00000    
     39756 TIP3     4947     TIP3     H1       HT       0.417000       1.00800           0   0.00000       0.00000    
     39757 TIP3     4947     TIP3     H2       HT       0.417000       1.00800           0   0.00000     -0.301140E-02
     39758 TIP3     4948     TIP3     OH2      OT      -0.834000       15.9994           0   0.00000       0.00000    
     39759 TIP3     4948     TIP3     H1       HT       0.417000       1.00800           0   0.00000       0.00000    
     39760 TIP3     4948     TIP3     H2       HT       0.417000       1.00800           0   0.00000     -0.301140E-02
     39761 TIP3     4949     TIP3     OH2      OT      -0.834000       15.9994           0   0.00000       0.00000    
     39762 TIP3     4949     TIP3     H1       HT       0.417000       1.00800           0   0.00000       0.00000    
     39763 TIP3     4949     TIP3     H2       HT       0.417000       1.00800           0   0.00000     -0.301140E-02
     39764 TIP3     4950     TIP3     OH2      OT      -0.834000       15.9994           0   0.00000       0.00000    
     39765 TIP3     4950     TIP3     H1       HT       0.417000       1.00800           0   0.00000       0.00000    
     39766 TIP3     4950     TIP3     H2       HT       0.417000       1.00800           0   0.00000     -0.301140E-02
     39767 TIP3     4951     TIP3     OH2      OT      -0.834000       15.9994           0   0.00000       0.00000    
     39768 TIP3     4951     TIP3     H1       HT       0.417000       1.00800           0   0.00000       0.00000    
     39769 TIP3     4951     TIP3     H2       HT       0.417000       1.00800           0   0.00000     -0.301140E-02
     39770 TIP3     4952     TIP3     OH2      OT      -0.834000       15.9994           0   0.00000       0.00000    
     39771 TIP3     4952     TIP3     H1       HT       0.417000       1.00800           0   0.00000       0.00000    
     39772 TIP3     4952     TIP3     H2       HT       0.417000       1.00800           0   0.00000     -0.301140E-02
     39773 TIP3     4953     TIP3     OH2      OT      -0.834000       15.9994           0   0.00000       0.00000    
     39774 TIP3     4953     TIP3     H1       HT       0.417000       1.00800           0   0.00000       0.00000    
     39775 TIP3     4953     TIP3     H2       HT       0.417000       1.00800           0   0.00000     -0.301140E-02
     39776 TIP3     4954     TIP3     OH2      OT      -0.834000       15.9994           0   0.00000       0.00000    
     39777 TIP3     4954     TIP3     H1       HT       0.417000       1.00800           0   0.00000       0.00000    
     39778 TIP3     4954     TIP3     H2       HT       0.417000       1.00800           0   0.00000     -0.301140E-02
     39779 TIP3     4955     TIP3     OH2      OT      -0.834000       15.9994           0   0.00000       0.00000    
     39780 TIP3     4955     TIP3     H1       HT       0.417000       1.00800           0   0.00000       0.00000    
     39781 TIP3     4955     TIP3     H2       HT       0.417000       1.00800           0   0.00000     -0.301140E-02
     39782 TIP3     4956     TIP3     OH2      OT      -0.834000       15.9994           0   0.00000       0.00000    
     39783 TIP3     4956     TIP3     H1       HT       0.417000       1.00800           0   0.00000       0.00000    
     39784 TIP3     4956     TIP3     H2       HT       0.417000       1.00800           0   0.00000     -0.301140E-02
     39785 TIP3     4957     TIP3     OH2      OT      -0.834000       15.9994           0   0.00000       0.00000    
     39786 TIP3     4957     TIP3     H1       HT       0.417000       1.00800           0   0.00000       0.00000    
     39787 TIP3     4957     TIP3     H2       HT       0.417000       1.00800           0   0.00000     -0.301140E-02
     39788 TIP3     4958     TIP3     OH2      OT      -0.834000       15.9994           0   0.00000       0.00000    
     39789 TIP3     4958     TIP3     H1       HT       0.417000       1.00800           0   0.00000       0.00000    
     39790 TIP3     4958     TIP3     H2       HT       0.417000       1.00800           0   0.00000     -0.301140E-02
     39791 TIP3     4959     TIP3     OH2      OT      -0.834000       15.9994           0   0.00000       0.00000    
     39792 TIP3     4959     TIP3     H1       HT       0.417000       1.00800           0   0.00000       0.00000    
     39793 TIP3     4959     TIP3     H2       HT       0.417000       1.00800           0   0.00000     -0.301140E-02
     39794 TIP3     4960     TIP3     OH2      OT      -0.834000       15.9994           0   0.00000       0.00000    
     39795 TIP3     4960     TIP3     H1       HT       0.417000       1.00800           0   0.00000       0.00000    
     39796 TIP3     4960     TIP3     H2       HT       0.417000       1.00800           0   0.00000     -0.301140E-02
     39797 TIP3     4961     TIP3     OH2      OT      -0.834000       15.9994           0   0.00000       0.00000    
     39798 TIP3     4961     TIP3     H1       HT       0.417000       1.00800           0   0.00000       0.00000    
     39799 TIP3     4961     TIP3     H2       HT       0.417000       1.00800           0   0.00000     -0.301140E-02
     39800 TIP3     4962     TIP3     OH2      OT      -0.834000       15.9994           0   0.00000       0.00000    
     39801 TIP3     4962     TIP3     H1       HT       0.417000       1.00800           0   0.00000       0.00000    
     39802 TIP3     4962     TIP3     H2       HT       0.417000       1.00800           0   0.00000     -0.301140E-02
     39803 TIP3     4963     TIP3     OH2      OT      -0.834000       15.9994           0   0.00000       0.00000    
     39804 TIP3     4963     TIP3     H1       HT       0.417000       1.00800           0   0.00000       0.00000    
     39805 TIP3     4963     TIP3     H2       HT       0.417000       1.00800           0   0.00000     -0.301140E-02
     39806 TIP3     4964     TIP3     OH2      OT      -0.834000       15.9994           0   0.00000       0.00000    
     39807 TIP3     4964     TIP3     H1       HT       0.417000       1.00800           0   0.00000       0.00000    
     39808 TIP3     4964     TIP3     H2       HT       0.417000       1.00800           0   0.00000     -0.301140E-02
     39809 TIP3     4965     TIP3     OH2      OT      -0.834000       15.9994           0   0.00000       0.00000    
     39810 TIP3     4965     TIP3     H1       HT       0.417000       1.00800           0   0.00000       0.00000    
     39811 TIP3     4965     TIP3     H2       HT       0.417000       1.00800           0   0.00000     -0.301140E-02
     39812 TIP3     4966     TIP3     OH2      OT      -0.834000       15.9994           0   0.00000       0.00000    
     39813 TIP3     4966     TIP3     H1       HT       0.417000       1.00800           0   0.00000       0.00000    
     39814 TIP3     4966     TIP3     H2       HT       0.417000       1.00800           0   0.00000     -0.301140E-02
     39815 TIP3     4967     TIP3     OH2      OT      -0.834000       15.9994           0   0.00000       0.00000    
     39816 TIP3     4967     TIP3     H1       HT       0.417000       1.00800           0   0.00000       0.00000    
     39817 TIP3     4967     TIP3     H2       HT       0.417000       1.00800           0   0.00000     -0.301140E-02
     39818 TIP3     4968     TIP3     OH2      OT      -0.834000       15.9994           0   0.00000       0.00000    
     39819 TIP3     4968     TIP3     H1       HT       0.417000       1.00800           0   0.00000       0.00000    
     39820 TIP3     4968     TIP3     H2       HT       0.417000       1.00800           0   0.00000     -0.301140E-02
     39821 TIP3     4969     TIP3     OH2      OT      -0.834000       15.9994           0   0.00000       0.00000    
     39822 TIP3     4969     TIP3     H1       HT       0.417000       1.00800           0   0.00000       0.00000    
     39823 TIP3     4969     TIP3     H2       HT       0.417000       1.00800           0   0.00000     -0.301140E-02
     39824 TIP3     4970     TIP3     OH2      OT      -0.834000       15.9994           0   0.00000       0.00000    
     39825 TIP3     4970     TIP3     H1       HT       0.417000       1.00800           0   0.00000       0.00000    
     39826 TIP3     4970     TIP3     H2       HT       0.417000       1.00800           0   0.00000     -0.301140E-02
     39827 TIP3     4971     TIP3     OH2      OT      -0.834000       15.9994           0   0.00000       0.00000    
     39828 TIP3     4971     TIP3     H1       HT       0.417000       1.00800           0   0.00000       0.00000    
     39829 TIP3     4971     TIP3     H2       HT       0.417000       1.00800           0   0.00000     -0.301140E-02
     39830 TIP3     4972     TIP3     OH2      OT      -0.834000       15.9994           0   0.00000       0.00000    
     39831 TIP3     4972     TIP3     H1       HT       0.417000       1.00800           0   0.00000       0.00000    
     39832 TIP3     4972     TIP3     H2       HT       0.417000       1.00800           0   0.00000     -0.301140E-02
     39833 TIP3     4973     TIP3     OH2      OT      -0.834000       15.9994           0   0.00000       0.00000    
     39834 TIP3     4973     TIP3     H1       HT       0.417000       1.00800           0   0.00000       0.00000    
     39835 TIP3     4973     TIP3     H2       HT       0.417000       1.00800           0   0.00000     -0.301140E-02
     39836 TIP3     4974     TIP3     OH2      OT      -0.834000       15.9994           0   0.00000       0.00000    
     39837 TIP3     4974     TIP3     H1       HT       0.417000       1.00800           0   0.00000       0.00000    
     39838 TIP3     4974     TIP3     H2       HT       0.417000       1.00800           0   0.00000     -0.301140E-02
     39839 TIP3     4975     TIP3     OH2      OT      -0.834000       15.9994           0   0.00000       0.00000    
     39840 TIP3     4975     TIP3     H1       HT       0.417000       1.00800           0   0.00000       0.00000    
     39841 TIP3     4975     TIP3     H2       HT       0.417000       1.00800           0   0.00000     -0.301140E-02
     39842 TIP3     4976     TIP3     OH2      OT      -0.834000       15.9994           0   0.00000       0.00000    
     39843 TIP3     4976     TIP3     H1       HT       0.417000       1.00800           0   0.00000       0.00000    
     39844 TIP3     4976     TIP3     H2       HT       0.417000       1.00800           0   0.00000     -0.301140E-02
     39845 TIP3     4977     TIP3     OH2      OT      -0.834000       15.9994           0   0.00000       0.00000    
     39846 TIP3     4977     TIP3     H1       HT       0.417000       1.00800           0   0.00000       0.00000    
     39847 TIP3     4977     TIP3     H2       HT       0.417000       1.00800           0   0.00000     -0.301140E-02
     39848 TIP3     4978     TIP3     OH2      OT      -0.834000       15.9994           0   0.00000       0.00000    
     39849 TIP3     4978     TIP3     H1       HT       0.417000       1.00800           0   0.00000       0.00000    
     39850 TIP3     4978     TIP3     H2       HT       0.417000       1.00800           0   0.00000     -0.301140E-02
     39851 TIP3     4979     TIP3     OH2      OT      -0.834000       15.9994           0   0.00000       0.00000    
     39852 TIP3     4979     TIP3     H1       HT       0.417000       1.00800           0   0.00000       0.00000    
     39853 TIP3     4979     TIP3     H2       HT       0.417000       1.00800           0   0.00000     -0.301140E-02
     39854 TIP3     4980     TIP3     OH2      OT      -0.834000       15.9994           0   0.00000       0.00000    
     39855 TIP3     4980     TIP3     H1       HT       0.417000       1.00800           0   0.00000       0.00000    
     39856 TIP3     4980     TIP3     H2       HT       0.417000       1.00800           0   0.00000     -0.301140E-02
     39857 TIP3     4981     TIP3     OH2      OT      -0.834000       15.9994           0   0.00000       0.00000    
     39858 TIP3     4981     TIP3     H1       HT       0.417000       1.00800           0   0.00000       0.00000    
     39859 TIP3     4981     TIP3     H2       HT       0.417000       1.00800           0   0.00000     -0.301140E-02
     39860 TIP3     4982     TIP3     OH2      OT      -0.834000       15.9994           0   0.00000       0.00000    
     39861 TIP3     4982     TIP3     H1       HT       0.417000       1.00800           0   0.00000       0.00000    
     39862 TIP3     4982     TIP3     H2       HT       0.417000       1.00800           0   0.00000     -0.301140E-02
     39863 TIP3     4983     TIP3     OH2      OT      -0.834000       15.9994           0   0.00000       0.00000    
     39864 TIP3     4983     TIP3     H1       HT       0.417000       1.00800           0   0.00000       0.00000    
     39865 TIP3     4983     TIP3     H2       HT       0.417000       1.00800           0   0.00000     -0.301140E-02
     39866 TIP3     4984     TIP3     OH2      OT      -0.834000       15.9994           0   0.00000       0.00000    
     39867 TIP3     4984     TIP3     H1       HT       0.417000       1.00800           0   0.00000       0.00000    
     39868 TIP3     4984     TIP3     H2       HT       0.417000       1.00800           0   0.00000     -0.301140E-02
     39869 TIP3     4985     TIP3     OH2      OT      -0.834000       15.9994           0   0.00000       0.00000    
     39870 TIP3     4985     TIP3     H1       HT       0.417000       1.00800           0   0.00000       0.00000    
     39871 TIP3     4985     TIP3     H2       HT       0.417000       1.00800           0   0.00000     -0.301140E-02
     39872 TIP3     4986     TIP3     OH2      OT      -0.834000       15.9994           0   0.00000       0.00000    
     39873 TIP3     4986     TIP3     H1       HT       0.417000       1.00800           0   0.00000       0.00000    
     39874 TIP3     4986     TIP3     H2       HT       0.417000       1.00800           0   0.00000     -0.301140E-02
     39875 TIP3     4987     TIP3     OH2      OT      -0.834000       15.9994           0   0.00000       0.00000    
     39876 TIP3     4987     TIP3     H1       HT       0.417000       1.00800           0   0.00000       0.00000    
     39877 TIP3     4987     TIP3     H2       HT       0.417000       1.00800           0   0.00000     -0.301140E-02
     39878 TIP3     4988     TIP3     OH2      OT      -0.834000       15.9994           0   0.00000       0.00000    
     39879 TIP3     4988     TIP3     H1       HT       0.417000       1.00800           0   0.00000       0.00000    
     39880 TIP3     4988     TIP3     H2       HT       0.417000       1.00800           0   0.00000     -0.301140E-02
     39881 TIP3     4989     TIP3     OH2      OT      -0.834000       15.9994           0   0.00000       0.00000    
     39882 TIP3     4989     TIP3     H1       HT       0.417000       1.00800           0   0.00000       0.00000    
     39883 TIP3     4989     TIP3     H2       HT       0.417000       1.00800           0   0.00000     -0.301140E-02
     39884 TIP3     4990     TIP3     OH2      OT      -0.834000       15.9994           0   0.00000       0.00000    
     39885 TIP3     4990     TIP3     H1       HT       0.417000       1.00800           0   0.00000       0.00000    
     39886 TIP3     4990     TIP3     H2       HT       0.417000       1.00800           0   0.00000     -0.301140E-02
     39887 TIP3     4991     TIP3     OH2      OT      -0.834000       15.9994           0   0.00000       0.00000    
     39888 TIP3     4991     TIP3     H1       HT       0.417000       1.00800           0   0.00000       0.00000    
     39889 TIP3     4991     TIP3     H2       HT       0.417000       1.00800           0   0.00000     -0.301140E-02
     39890 TIP3     4992     TIP3     OH2      OT      -0.834000       15.9994           0   0.00000       0.00000    
     39891 TIP3     4992     TIP3     H1       HT       0.417000       1.00800           0   0.00000       0.00000    
     39892 TIP3     4992     TIP3     H2       HT       0.417000       1.00800           0   0.00000     -0.301140E-02
     39893 TIP3     4993     TIP3     OH2      OT      -0.834000       15.9994           0   0.00000       0.00000    
     39894 TIP3     4993     TIP3     H1       HT       0.417000       1.00800           0   0.00000       0.00000    
     39895 TIP3     4993     TIP3     H2       HT       0.417000       1.00800           0   0.00000     -0.301140E-02
     39896 TIP3     4994     TIP3     OH2      OT      -0.834000       15.9994           0   0.00000       0.00000    
     39897 TIP3     4994     TIP3     H1       HT       0.417000       1.00800           0   0.00000       0.00000    
     39898 TIP3     4994     TIP3     H2       HT       0.417000       1.00800           0   0.00000     -0.301140E-02
     39899 TIP3     4995     TIP3     OH2      OT      -0.834000       15.9994           0   0.00000       0.00000    
     39900 TIP3     4995     TIP3     H1       HT       0.417000       1.00800           0   0.00000       0.00000    
     39901 TIP3     4995     TIP3     H2       HT       0.417000       1.00800           0   0.00000     -0.301140E-02
     39902 TIP3     4996     TIP3     OH2      OT      -0.834000       15.9994           0   0.00000       0.00000    
     39903 TIP3     4996     TIP3     H1       HT       0.417000       1.00800           0   0.00000       0.00000    
     39904 TIP3     4996     TIP3     H2       HT       0.417000       1.00800           0   0.00000     -0.301140E-02
     39905 TIP3     4997     TIP3     OH2      OT      -0.834000       15.9994           0   0.00000       0.00000    
     39906 TIP3     4997     TIP3     H1       HT       0.417000       1.00800           0   0.00000       0.00000    
     39907 TIP3     4997     TIP3     H2       HT       0.417000       1.00800           0   0.00000     -0.301140E-02
     39908 TIP3     4998     TIP3     OH2      OT      -0.834000       15.9994           0   0.00000       0.00000    
     39909 TIP3     4998     TIP3     H1       HT       0.417000       1.00800           0   0.00000       0.00000    
     39910 TIP3     4998     TIP3     H2       HT       0.417000       1.00800           0   0.00000     -0.301140E-02
     39911 TIP3     4999     TIP3     OH2      OT      -0.834000       15.9994           0   0.00000       0.00000    
     39912 TIP3     4999     TIP3     H1       HT       0.417000       1.00800           0   0.00000       0.00000    
     39913 TIP3     4999     TIP3     H2       HT       0.417000       1.00800           0   0.00000     -0.301140E-02
     39914 TIP3     5000     TIP3     OH2      OT      -0.834000       15.9994           0   0.00000       0.00000    
     39915 TIP3     5000     TIP3     H1       HT       0.417000       1.00800           0   0.00000       0.00000    
     39916 TIP3     5000     TIP3     H2       HT       0.417000       1.00800           0   0.00000     -0.301140E-02
     39917 TIP3     5001     TIP3     OH2      OT      -0.834000       15.9994           0   0.00000       0.00000    
     39918 TIP3     5001     TIP3     H1       HT       0.417000       1.00800           0   0.00000       0.00000    
     39919 TIP3     5001     TIP3     H2       HT       0.417000       1.00800           0   0.00000     -0.301140E-02
     39920 TIP3     5002     TIP3     OH2      OT      -0.834000       15.9994           0   0.00000       0.00000    
     39921 TIP3     5002     TIP3     H1       HT       0.417000       1.00800           0   0.00000       0.00000    
     39922 TIP3     5002     TIP3     H2       HT       0.417000       1.00800           0   0.00000     -0.301140E-02
     39923 TIP3     5003     TIP3     OH2      OT      -0.834000       15.9994           0   0.00000       0.00000    
     39924 TIP3     5003     TIP3     H1       HT       0.417000       1.00800           0   0.00000       0.00000    
     39925 TIP3     5003     TIP3     H2       HT       0.417000       1.00800           0   0.00000     -0.301140E-02
     39926 TIP3     5004     TIP3     OH2      OT      -0.834000       15.9994           0   0.00000       0.00000    
     39927 TIP3     5004     TIP3     H1       HT       0.417000       1.00800           0   0.00000       0.00000    
     39928 TIP3     5004     TIP3     H2       HT       0.417000       1.00800           0   0.00000     -0.301140E-02
     39929 TIP3     5005     TIP3     OH2      OT      -0.834000       15.9994           0   0.00000       0.00000    
     39930 TIP3     5005     TIP3     H1       HT       0.417000       1.00800           0   0.00000       0.00000    
     39931 TIP3     5005     TIP3     H2       HT       0.417000       1.00800           0   0.00000     -0.301140E-02
     39932 TIP3     5006     TIP3     OH2      OT      -0.834000       15.9994           0   0.00000       0.00000    
     39933 TIP3     5006     TIP3     H1       HT       0.417000       1.00800           0   0.00000       0.00000    
     39934 TIP3     5006     TIP3     H2       HT       0.417000       1.00800           0   0.00000     -0.301140E-02
     39935 TIP3     5007     TIP3     OH2      OT      -0.834000       15.9994           0   0.00000       0.00000    
     39936 TIP3     5007     TIP3     H1       HT       0.417000       1.00800           0   0.00000       0.00000    
     39937 TIP3     5007     TIP3     H2       HT       0.417000       1.00800           0   0.00000     -0.301140E-02
     39938 TIP3     5008     TIP3     OH2      OT      -0.834000       15.9994           0   0.00000       0.00000    
     39939 TIP3     5008     TIP3     H1       HT       0.417000       1.00800           0   0.00000       0.00000    
     39940 TIP3     5008     TIP3     H2       HT       0.417000       1.00800           0   0.00000     -0.301140E-02
     39941 TIP3     5009     TIP3     OH2      OT      -0.834000       15.9994           0   0.00000       0.00000    
     39942 TIP3     5009     TIP3     H1       HT       0.417000       1.00800           0   0.00000       0.00000    
     39943 TIP3     5009     TIP3     H2       HT       0.417000       1.00800           0   0.00000     -0.301140E-02
     39944 TIP3     5010     TIP3     OH2      OT      -0.834000       15.9994           0   0.00000       0.00000    
     39945 TIP3     5010     TIP3     H1       HT       0.417000       1.00800           0   0.00000       0.00000    
     39946 TIP3     5010     TIP3     H2       HT       0.417000       1.00800           0   0.00000     -0.301140E-02
     39947 TIP3     5011     TIP3     OH2      OT      -0.834000       15.9994           0   0.00000       0.00000    
     39948 TIP3     5011     TIP3     H1       HT       0.417000       1.00800           0   0.00000       0.00000    
     39949 TIP3     5011     TIP3     H2       HT       0.417000       1.00800           0   0.00000     -0.301140E-02
     39950 TIP3     5012     TIP3     OH2      OT      -0.834000       15.9994           0   0.00000       0.00000    
     39951 TIP3     5012     TIP3     H1       HT       0.417000       1.00800           0   0.00000       0.00000    
     39952 TIP3     5012     TIP3     H2       HT       0.417000       1.00800           0   0.00000     -0.301140E-02
     39953 TIP3     5013     TIP3     OH2      OT      -0.834000       15.9994           0   0.00000       0.00000    
     39954 TIP3     5013     TIP3     H1       HT       0.417000       1.00800           0   0.00000       0.00000    
     39955 TIP3     5013     TIP3     H2       HT       0.417000       1.00800           0   0.00000     -0.301140E-02
     39956 TIP3     5014     TIP3     OH2      OT      -0.834000       15.9994           0   0.00000       0.00000    
     39957 TIP3     5014     TIP3     H1       HT       0.417000       1.00800           0   0.00000       0.00000    
     39958 TIP3     5014     TIP3     H2       HT       0.417000       1.00800           0   0.00000     -0.301140E-02
     39959 TIP3     5015     TIP3     OH2      OT      -0.834000       15.9994           0   0.00000       0.00000    
     39960 TIP3     5015     TIP3     H1       HT       0.417000       1.00800           0   0.00000       0.00000    
     39961 TIP3     5015     TIP3     H2       HT       0.417000       1.00800           0   0.00000     -0.301140E-02
     39962 TIP3     5016     TIP3     OH2      OT      -0.834000       15.9994           0   0.00000       0.00000    
     39963 TIP3     5016     TIP3     H1       HT       0.417000       1.00800           0   0.00000       0.00000    
     39964 TIP3     5016     TIP3     H2       HT       0.417000       1.00800           0   0.00000     -0.301140E-02
     39965 TIP3     5017     TIP3     OH2      OT      -0.834000       15.9994           0   0.00000       0.00000    
     39966 TIP3     5017     TIP3     H1       HT       0.417000       1.00800           0   0.00000       0.00000    
     39967 TIP3     5017     TIP3     H2       HT       0.417000       1.00800           0   0.00000     -0.301140E-02
     39968 TIP3     5018     TIP3     OH2      OT      -0.834000       15.9994           0   0.00000       0.00000    
     39969 TIP3     5018     TIP3     H1       HT       0.417000       1.00800           0   0.00000       0.00000    
     39970 TIP3     5018     TIP3     H2       HT       0.417000       1.00800           0   0.00000     -0.301140E-02
     39971 TIP3     5019     TIP3     OH2      OT      -0.834000       15.9994           0   0.00000       0.00000    
     39972 TIP3     5019     TIP3     H1       HT       0.417000       1.00800           0   0.00000       0.00000    
     39973 TIP3     5019     TIP3     H2       HT       0.417000       1.00800           0   0.00000     -0.301140E-02
     39974 TIP3     5020     TIP3     OH2      OT      -0.834000       15.9994           0   0.00000       0.00000    
     39975 TIP3     5020     TIP3     H1       HT       0.417000       1.00800           0   0.00000       0.00000    
     39976 TIP3     5020     TIP3     H2       HT       0.417000       1.00800           0   0.00000     -0.301140E-02
     39977 TIP3     5021     TIP3     OH2      OT      -0.834000       15.9994           0   0.00000       0.00000    
     39978 TIP3     5021     TIP3     H1       HT       0.417000       1.00800           0   0.00000       0.00000    
     39979 TIP3     5021     TIP3     H2       HT       0.417000       1.00800           0   0.00000     -0.301140E-02
     39980 TIP3     5022     TIP3     OH2      OT      -0.834000       15.9994           0   0.00000       0.00000    
     39981 TIP3     5022     TIP3     H1       HT       0.417000       1.00800           0   0.00000       0.00000    
     39982 TIP3     5022     TIP3     H2       HT       0.417000       1.00800           0   0.00000     -0.301140E-02
     39983 TIP3     5023     TIP3     OH2      OT      -0.834000       15.9994           0   0.00000       0.00000    
     39984 TIP3     5023     TIP3     H1       HT       0.417000       1.00800           0   0.00000       0.00000    
     39985 TIP3     5023     TIP3     H2       HT       0.417000       1.00800           0   0.00000     -0.301140E-02
     39986 TIP3     5024     TIP3     OH2      OT      -0.834000       15.9994           0   0.00000       0.00000    
     39987 TIP3     5024     TIP3     H1       HT       0.417000       1.00800           0   0.00000       0.00000    
     39988 TIP3     5024     TIP3     H2       HT       0.417000       1.00800           0   0.00000     -0.301140E-02
     39989 TIP3     5025     TIP3     OH2      OT      -0.834000       15.9994           0   0.00000       0.00000    
     39990 TIP3     5025     TIP3     H1       HT       0.417000       1.00800           0   0.00000       0.00000    
     39991 TIP3     5025     TIP3     H2       HT       0.417000       1.00800           0   0.00000     -0.301140E-02
     39992 TIP3     5026     TIP3     OH2      OT      -0.834000       15.9994           0   0.00000       0.00000    
     39993 TIP3     5026     TIP3     H1       HT       0.417000       1.00800           0   0.00000       0.00000    
     39994 TIP3     5026     TIP3     H2       HT       0.417000       1.00800           0   0.00000     -0.301140E-02
     39995 TIP3     5027     TIP3     OH2      OT      -0.834000       15.9994           0   0.00000       0.00000    
     39996 TIP3     5027     TIP3     H1       HT       0.417000       1.00800           0   0.00000       0.00000    
     39997 TIP3     5027     TIP3     H2       HT       0.417000       1.00800           0   0.00000     -0.301140E-02
     39998 TIP3     5028     TIP3     OH2      OT      -0.834000       15.9994           0   0.00000       0.00000    
     39999 TIP3     5028     TIP3     H1       HT       0.417000       1.00800           0   0.00000       0.00000    
     40000 TIP3     5028     TIP3     H2       HT       0.417000       1.00800           0   0.00000     -0.301140E-02
     40001 TIP3     5029     TIP3     OH2      OT      -0.834000       15.9994           0   0.00000       0.00000    
     40002 TIP3     5029     TIP3     H1       HT       0.417000       1.00800           0   0.00000       0.00000    
     40003 TIP3     5029     TIP3     H2       HT       0.417000       1.00800           0   0.00000     -0.301140E-02
     40004 TIP3     5030     TIP3     OH2      OT      -0.834000       15.9994           0   0.00000       0.00000    
     40005 TIP3     5030     TIP3     H1       HT       0.417000       1.00800           0   0.00000       0.00000    
     40006 TIP3     5030     TIP3     H2       HT       0.417000       1.00800           0   0.00000     -0.301140E-02
     40007 TIP3     5031     TIP3     OH2      OT      -0.834000       15.9994           0   0.00000       0.00000    
     40008 TIP3     5031     TIP3     H1       HT       0.417000       1.00800           0   0.00000       0.00000    
     40009 TIP3     5031     TIP3     H2       HT       0.417000       1.00800           0   0.00000     -0.301140E-02
     40010 TIP3     5032     TIP3     OH2      OT      -0.834000       15.9994           0   0.00000       0.00000    
     40011 TIP3     5032     TIP3     H1       HT       0.417000       1.00800           0   0.00000       0.00000    
     40012 TIP3     5032     TIP3     H2       HT       0.417000       1.00800           0   0.00000     -0.301140E-02
     40013 TIP3     5033     TIP3     OH2      OT      -0.834000       15.9994           0   0.00000       0.00000    
     40014 TIP3     5033     TIP3     H1       HT       0.417000       1.00800           0   0.00000       0.00000    
     40015 TIP3     5033     TIP3     H2       HT       0.417000       1.00800           0   0.00000     -0.301140E-02
     40016 TIP3     5034     TIP3     OH2      OT      -0.834000       15.9994           0   0.00000       0.00000    
     40017 TIP3     5034     TIP3     H1       HT       0.417000       1.00800           0   0.00000       0.00000    
     40018 TIP3     5034     TIP3     H2       HT       0.417000       1.00800           0   0.00000     -0.301140E-02
     40019 TIP3     5035     TIP3     OH2      OT      -0.834000       15.9994           0   0.00000       0.00000    
     40020 TIP3     5035     TIP3     H1       HT       0.417000       1.00800           0   0.00000       0.00000    
     40021 TIP3     5035     TIP3     H2       HT       0.417000       1.00800           0   0.00000     -0.301140E-02
     40022 TIP3     5036     TIP3     OH2      OT      -0.834000       15.9994           0   0.00000       0.00000    
     40023 TIP3     5036     TIP3     H1       HT       0.417000       1.00800           0   0.00000       0.00000    
     40024 TIP3     5036     TIP3     H2       HT       0.417000       1.00800           0   0.00000     -0.301140E-02
     40025 TIP3     5037     TIP3     OH2      OT      -0.834000       15.9994           0   0.00000       0.00000    
     40026 TIP3     5037     TIP3     H1       HT       0.417000       1.00800           0   0.00000       0.00000    
     40027 TIP3     5037     TIP3     H2       HT       0.417000       1.00800           0   0.00000     -0.301140E-02
     40028 TIP3     5038     TIP3     OH2      OT      -0.834000       15.9994           0   0.00000       0.00000    
     40029 TIP3     5038     TIP3     H1       HT       0.417000       1.00800           0   0.00000       0.00000    
     40030 TIP3     5038     TIP3     H2       HT       0.417000       1.00800           0   0.00000     -0.301140E-02
     40031 TIP3     5039     TIP3     OH2      OT      -0.834000       15.9994           0   0.00000       0.00000    
     40032 TIP3     5039     TIP3     H1       HT       0.417000       1.00800           0   0.00000       0.00000    
     40033 TIP3     5039     TIP3     H2       HT       0.417000       1.00800           0   0.00000     -0.301140E-02
     40034 TIP3     5040     TIP3     OH2      OT      -0.834000       15.9994           0   0.00000       0.00000    
     40035 TIP3     5040     TIP3     H1       HT       0.417000       1.00800           0   0.00000       0.00000    
     40036 TIP3     5040     TIP3     H2       HT       0.417000       1.00800           0   0.00000     -0.301140E-02
     40037 TIP3     5041     TIP3     OH2      OT      -0.834000       15.9994           0   0.00000       0.00000    
     40038 TIP3     5041     TIP3     H1       HT       0.417000       1.00800           0   0.00000       0.00000    
     40039 TIP3     5041     TIP3     H2       HT       0.417000       1.00800           0   0.00000     -0.301140E-02
     40040 TIP3     5042     TIP3     OH2      OT      -0.834000       15.9994           0   0.00000       0.00000    
     40041 TIP3     5042     TIP3     H1       HT       0.417000       1.00800           0   0.00000       0.00000    
     40042 TIP3     5042     TIP3     H2       HT       0.417000       1.00800           0   0.00000     -0.301140E-02
     40043 TIP3     5043     TIP3     OH2      OT      -0.834000       15.9994           0   0.00000       0.00000    
     40044 TIP3     5043     TIP3     H1       HT       0.417000       1.00800           0   0.00000       0.00000    
     40045 TIP3     5043     TIP3     H2       HT       0.417000       1.00800           0   0.00000     -0.301140E-02
     40046 TIP3     5044     TIP3     OH2      OT      -0.834000       15.9994           0   0.00000       0.00000    
     40047 TIP3     5044     TIP3     H1       HT       0.417000       1.00800           0   0.00000       0.00000    
     40048 TIP3     5044     TIP3     H2       HT       0.417000       1.00800           0   0.00000     -0.301140E-02
     40049 TIP3     5045     TIP3     OH2      OT      -0.834000       15.9994           0   0.00000       0.00000    
     40050 TIP3     5045     TIP3     H1       HT       0.417000       1.00800           0   0.00000       0.00000    
     40051 TIP3     5045     TIP3     H2       HT       0.417000       1.00800           0   0.00000     -0.301140E-02
     40052 TIP3     5046     TIP3     OH2      OT      -0.834000       15.9994           0   0.00000       0.00000    
     40053 TIP3     5046     TIP3     H1       HT       0.417000       1.00800           0   0.00000       0.00000    
     40054 TIP3     5046     TIP3     H2       HT       0.417000       1.00800           0   0.00000     -0.301140E-02
     40055 TIP3     5047     TIP3     OH2      OT      -0.834000       15.9994           0   0.00000       0.00000    
     40056 TIP3     5047     TIP3     H1       HT       0.417000       1.00800           0   0.00000       0.00000    
     40057 TIP3     5047     TIP3     H2       HT       0.417000       1.00800           0   0.00000     -0.301140E-02
     40058 TIP3     5048     TIP3     OH2      OT      -0.834000       15.9994           0   0.00000       0.00000    
     40059 TIP3     5048     TIP3     H1       HT       0.417000       1.00800           0   0.00000       0.00000    
     40060 TIP3     5048     TIP3     H2       HT       0.417000       1.00800           0   0.00000     -0.301140E-02
     40061 TIP3     5049     TIP3     OH2      OT      -0.834000       15.9994           0   0.00000       0.00000    
     40062 TIP3     5049     TIP3     H1       HT       0.417000       1.00800           0   0.00000       0.00000    
     40063 TIP3     5049     TIP3     H2       HT       0.417000       1.00800           0   0.00000     -0.301140E-02
     40064 TIP3     5050     TIP3     OH2      OT      -0.834000       15.9994           0   0.00000       0.00000    
     40065 TIP3     5050     TIP3     H1       HT       0.417000       1.00800           0   0.00000       0.00000    
     40066 TIP3     5050     TIP3     H2       HT       0.417000       1.00800           0   0.00000     -0.301140E-02
     40067 TIP3     5051     TIP3     OH2      OT      -0.834000       15.9994           0   0.00000       0.00000    
     40068 TIP3     5051     TIP3     H1       HT       0.417000       1.00800           0   0.00000       0.00000    
     40069 TIP3     5051     TIP3     H2       HT       0.417000       1.00800           0   0.00000     -0.301140E-02
     40070 TIP3     5052     TIP3     OH2      OT      -0.834000       15.9994           0   0.00000       0.00000    
     40071 TIP3     5052     TIP3     H1       HT       0.417000       1.00800           0   0.00000       0.00000    
     40072 TIP3     5052     TIP3     H2       HT       0.417000       1.00800           0   0.00000     -0.301140E-02
     40073 TIP3     5053     TIP3     OH2      OT      -0.834000       15.9994           0   0.00000       0.00000    
     40074 TIP3     5053     TIP3     H1       HT       0.417000       1.00800           0   0.00000       0.00000    
     40075 TIP3     5053     TIP3     H2       HT       0.417000       1.00800           0   0.00000     -0.301140E-02
     40076 TIP3     5054     TIP3     OH2      OT      -0.834000       15.9994           0   0.00000       0.00000    
     40077 TIP3     5054     TIP3     H1       HT       0.417000       1.00800           0   0.00000       0.00000    
     40078 TIP3     5054     TIP3     H2       HT       0.417000       1.00800           0   0.00000     -0.301140E-02
     40079 TIP3     5055     TIP3     OH2      OT      -0.834000       15.9994           0   0.00000       0.00000    
     40080 TIP3     5055     TIP3     H1       HT       0.417000       1.00800           0   0.00000       0.00000    
     40081 TIP3     5055     TIP3     H2       HT       0.417000       1.00800           0   0.00000     -0.301140E-02
     40082 TIP3     5056     TIP3     OH2      OT      -0.834000       15.9994           0   0.00000       0.00000    
     40083 TIP3     5056     TIP3     H1       HT       0.417000       1.00800           0   0.00000       0.00000    
     40084 TIP3     5056     TIP3     H2       HT       0.417000       1.00800           0   0.00000     -0.301140E-02
     40085 TIP3     5057     TIP3     OH2      OT      -0.834000       15.9994           0   0.00000       0.00000    
     40086 TIP3     5057     TIP3     H1       HT       0.417000       1.00800           0   0.00000       0.00000    
     40087 TIP3     5057     TIP3     H2       HT       0.417000       1.00800           0   0.00000     -0.301140E-02
     40088 TIP3     5058     TIP3     OH2      OT      -0.834000       15.9994           0   0.00000       0.00000    
     40089 TIP3     5058     TIP3     H1       HT       0.417000       1.00800           0   0.00000       0.00000    
     40090 TIP3     5058     TIP3     H2       HT       0.417000       1.00800           0   0.00000     -0.301140E-02
     40091 TIP3     5059     TIP3     OH2      OT      -0.834000       15.9994           0   0.00000       0.00000    
     40092 TIP3     5059     TIP3     H1       HT       0.417000       1.00800           0   0.00000       0.00000    
     40093 TIP3     5059     TIP3     H2       HT       0.417000       1.00800           0   0.00000     -0.301140E-02
     40094 TIP3     5060     TIP3     OH2      OT      -0.834000       15.9994           0   0.00000       0.00000    
     40095 TIP3     5060     TIP3     H1       HT       0.417000       1.00800           0   0.00000       0.00000    
     40096 TIP3     5060     TIP3     H2       HT       0.417000       1.00800           0   0.00000     -0.301140E-02
     40097 TIP3     5061     TIP3     OH2      OT      -0.834000       15.9994           0   0.00000       0.00000    
     40098 TIP3     5061     TIP3     H1       HT       0.417000       1.00800           0   0.00000       0.00000    
     40099 TIP3     5061     TIP3     H2       HT       0.417000       1.00800           0   0.00000     -0.301140E-02
     40100 TIP3     5062     TIP3     OH2      OT      -0.834000       15.9994           0   0.00000       0.00000    
     40101 TIP3     5062     TIP3     H1       HT       0.417000       1.00800           0   0.00000       0.00000    
     40102 TIP3     5062     TIP3     H2       HT       0.417000       1.00800           0   0.00000     -0.301140E-02
     40103 TIP3     5063     TIP3     OH2      OT      -0.834000       15.9994           0   0.00000       0.00000    
     40104 TIP3     5063     TIP3     H1       HT       0.417000       1.00800           0   0.00000       0.00000    
     40105 TIP3     5063     TIP3     H2       HT       0.417000       1.00800           0   0.00000     -0.301140E-02
     40106 TIP3     5064     TIP3     OH2      OT      -0.834000       15.9994           0   0.00000       0.00000    
     40107 TIP3     5064     TIP3     H1       HT       0.417000       1.00800           0   0.00000       0.00000    
     40108 TIP3     5064     TIP3     H2       HT       0.417000       1.00800           0   0.00000     -0.301140E-02
     40109 TIP3     5065     TIP3     OH2      OT      -0.834000       15.9994           0   0.00000       0.00000    
     40110 TIP3     5065     TIP3     H1       HT       0.417000       1.00800           0   0.00000       0.00000    
     40111 TIP3     5065     TIP3     H2       HT       0.417000       1.00800           0   0.00000     -0.301140E-02
     40112 TIP3     5066     TIP3     OH2      OT      -0.834000       15.9994           0   0.00000       0.00000    
     40113 TIP3     5066     TIP3     H1       HT       0.417000       1.00800           0   0.00000       0.00000    
     40114 TIP3     5066     TIP3     H2       HT       0.417000       1.00800           0   0.00000     -0.301140E-02
     40115 TIP3     5067     TIP3     OH2      OT      -0.834000       15.9994           0   0.00000       0.00000    
     40116 TIP3     5067     TIP3     H1       HT       0.417000       1.00800           0   0.00000       0.00000    
     40117 TIP3     5067     TIP3     H2       HT       0.417000       1.00800           0   0.00000     -0.301140E-02
     40118 TIP3     5068     TIP3     OH2      OT      -0.834000       15.9994           0   0.00000       0.00000    
     40119 TIP3     5068     TIP3     H1       HT       0.417000       1.00800           0   0.00000       0.00000    
     40120 TIP3     5068     TIP3     H2       HT       0.417000       1.00800           0   0.00000     -0.301140E-02
     40121 TIP3     5069     TIP3     OH2      OT      -0.834000       15.9994           0   0.00000       0.00000    
     40122 TIP3     5069     TIP3     H1       HT       0.417000       1.00800           0   0.00000       0.00000    
     40123 TIP3     5069     TIP3     H2       HT       0.417000       1.00800           0   0.00000     -0.301140E-02
     40124 TIP3     5070     TIP3     OH2      OT      -0.834000       15.9994           0   0.00000       0.00000    
     40125 TIP3     5070     TIP3     H1       HT       0.417000       1.00800           0   0.00000       0.00000    
     40126 TIP3     5070     TIP3     H2       HT       0.417000       1.00800           0   0.00000     -0.301140E-02
     40127 TIP3     5071     TIP3     OH2      OT      -0.834000       15.9994           0   0.00000       0.00000    
     40128 TIP3     5071     TIP3     H1       HT       0.417000       1.00800           0   0.00000       0.00000    
     40129 TIP3     5071     TIP3     H2       HT       0.417000       1.00800           0   0.00000     -0.301140E-02
     40130 TIP3     5072     TIP3     OH2      OT      -0.834000       15.9994           0   0.00000       0.00000    
     40131 TIP3     5072     TIP3     H1       HT       0.417000       1.00800           0   0.00000       0.00000    
     40132 TIP3     5072     TIP3     H2       HT       0.417000       1.00800           0   0.00000     -0.301140E-02
     40133 TIP3     5073     TIP3     OH2      OT      -0.834000       15.9994           0   0.00000       0.00000    
     40134 TIP3     5073     TIP3     H1       HT       0.417000       1.00800           0   0.00000       0.00000    
     40135 TIP3     5073     TIP3     H2       HT       0.417000       1.00800           0   0.00000     -0.301140E-02
     40136 TIP3     5074     TIP3     OH2      OT      -0.834000       15.9994           0   0.00000       0.00000    
     40137 TIP3     5074     TIP3     H1       HT       0.417000       1.00800           0   0.00000       0.00000    
     40138 TIP3     5074     TIP3     H2       HT       0.417000       1.00800           0   0.00000     -0.301140E-02
     40139 TIP3     5075     TIP3     OH2      OT      -0.834000       15.9994           0   0.00000       0.00000    
     40140 TIP3     5075     TIP3     H1       HT       0.417000       1.00800           0   0.00000       0.00000    
     40141 TIP3     5075     TIP3     H2       HT       0.417000       1.00800           0   0.00000     -0.301140E-02
     40142 TIP3     5076     TIP3     OH2      OT      -0.834000       15.9994           0   0.00000       0.00000    
     40143 TIP3     5076     TIP3     H1       HT       0.417000       1.00800           0   0.00000       0.00000    
     40144 TIP3     5076     TIP3     H2       HT       0.417000       1.00800           0   0.00000     -0.301140E-02
     40145 TIP3     5077     TIP3     OH2      OT      -0.834000       15.9994           0   0.00000       0.00000    
     40146 TIP3     5077     TIP3     H1       HT       0.417000       1.00800           0   0.00000       0.00000    
     40147 TIP3     5077     TIP3     H2       HT       0.417000       1.00800           0   0.00000     -0.301140E-02
     40148 TIP3     5078     TIP3     OH2      OT      -0.834000       15.9994           0   0.00000       0.00000    
     40149 TIP3     5078     TIP3     H1       HT       0.417000       1.00800           0   0.00000       0.00000    
     40150 TIP3     5078     TIP3     H2       HT       0.417000       1.00800           0   0.00000     -0.301140E-02
     40151 TIP3     5079     TIP3     OH2      OT      -0.834000       15.9994           0   0.00000       0.00000    
     40152 TIP3     5079     TIP3     H1       HT       0.417000       1.00800           0   0.00000       0.00000    
     40153 TIP3     5079     TIP3     H2       HT       0.417000       1.00800           0   0.00000     -0.301140E-02
     40154 TIP3     5080     TIP3     OH2      OT      -0.834000       15.9994           0   0.00000       0.00000    
     40155 TIP3     5080     TIP3     H1       HT       0.417000       1.00800           0   0.00000       0.00000    
     40156 TIP3     5080     TIP3     H2       HT       0.417000       1.00800           0   0.00000     -0.301140E-02
     40157 TIP3     5081     TIP3     OH2      OT      -0.834000       15.9994           0   0.00000       0.00000    
     40158 TIP3     5081     TIP3     H1       HT       0.417000       1.00800           0   0.00000       0.00000    
     40159 TIP3     5081     TIP3     H2       HT       0.417000       1.00800           0   0.00000     -0.301140E-02
     40160 TIP3     5082     TIP3     OH2      OT      -0.834000       15.9994           0   0.00000       0.00000    
     40161 TIP3     5082     TIP3     H1       HT       0.417000       1.00800           0   0.00000       0.00000    
     40162 TIP3     5082     TIP3     H2       HT       0.417000       1.00800           0   0.00000     -0.301140E-02
     40163 TIP3     5083     TIP3     OH2      OT      -0.834000       15.9994           0   0.00000       0.00000    
     40164 TIP3     5083     TIP3     H1       HT       0.417000       1.00800           0   0.00000       0.00000    
     40165 TIP3     5083     TIP3     H2       HT       0.417000       1.00800           0   0.00000     -0.301140E-02
     40166 TIP3     5084     TIP3     OH2      OT      -0.834000       15.9994           0   0.00000       0.00000    
     40167 TIP3     5084     TIP3     H1       HT       0.417000       1.00800           0   0.00000       0.00000    
     40168 TIP3     5084     TIP3     H2       HT       0.417000       1.00800           0   0.00000     -0.301140E-02
     40169 TIP3     5085     TIP3     OH2      OT      -0.834000       15.9994           0   0.00000       0.00000    
     40170 TIP3     5085     TIP3     H1       HT       0.417000       1.00800           0   0.00000       0.00000    
     40171 TIP3     5085     TIP3     H2       HT       0.417000       1.00800           0   0.00000     -0.301140E-02
     40172 TIP3     5086     TIP3     OH2      OT      -0.834000       15.9994           0   0.00000       0.00000    
     40173 TIP3     5086     TIP3     H1       HT       0.417000       1.00800           0   0.00000       0.00000    
     40174 TIP3     5086     TIP3     H2       HT       0.417000       1.00800           0   0.00000     -0.301140E-02
     40175 TIP3     5087     TIP3     OH2      OT      -0.834000       15.9994           0   0.00000       0.00000    
     40176 TIP3     5087     TIP3     H1       HT       0.417000       1.00800           0   0.00000       0.00000    
     40177 TIP3     5087     TIP3     H2       HT       0.417000       1.00800           0   0.00000     -0.301140E-02
     40178 TIP3     5088     TIP3     OH2      OT      -0.834000       15.9994           0   0.00000       0.00000    
     40179 TIP3     5088     TIP3     H1       HT       0.417000       1.00800           0   0.00000       0.00000    
     40180 TIP3     5088     TIP3     H2       HT       0.417000       1.00800           0   0.00000     -0.301140E-02
     40181 TIP3     5089     TIP3     OH2      OT      -0.834000       15.9994           0   0.00000       0.00000    
     40182 TIP3     5089     TIP3     H1       HT       0.417000       1.00800           0   0.00000       0.00000    
     40183 TIP3     5089     TIP3     H2       HT       0.417000       1.00800           0   0.00000     -0.301140E-02
     40184 TIP3     5090     TIP3     OH2      OT      -0.834000       15.9994           0   0.00000       0.00000    
     40185 TIP3     5090     TIP3     H1       HT       0.417000       1.00800           0   0.00000       0.00000    
     40186 TIP3     5090     TIP3     H2       HT       0.417000       1.00800           0   0.00000     -0.301140E-02
     40187 TIP3     5091     TIP3     OH2      OT      -0.834000       15.9994           0   0.00000       0.00000    
     40188 TIP3     5091     TIP3     H1       HT       0.417000       1.00800           0   0.00000       0.00000    
     40189 TIP3     5091     TIP3     H2       HT       0.417000       1.00800           0   0.00000     -0.301140E-02
     40190 TIP3     5092     TIP3     OH2      OT      -0.834000       15.9994           0   0.00000       0.00000    
     40191 TIP3     5092     TIP3     H1       HT       0.417000       1.00800           0   0.00000       0.00000    
     40192 TIP3     5092     TIP3     H2       HT       0.417000       1.00800           0   0.00000     -0.301140E-02
     40193 TIP3     5093     TIP3     OH2      OT      -0.834000       15.9994           0   0.00000       0.00000    
     40194 TIP3     5093     TIP3     H1       HT       0.417000       1.00800           0   0.00000       0.00000    
     40195 TIP3     5093     TIP3     H2       HT       0.417000       1.00800           0   0.00000     -0.301140E-02
     40196 TIP3     5094     TIP3     OH2      OT      -0.834000       15.9994           0   0.00000       0.00000    
     40197 TIP3     5094     TIP3     H1       HT       0.417000       1.00800           0   0.00000       0.00000    
     40198 TIP3     5094     TIP3     H2       HT       0.417000       1.00800           0   0.00000     -0.301140E-02
     40199 TIP3     5095     TIP3     OH2      OT      -0.834000       15.9994           0   0.00000       0.00000    
     40200 TIP3     5095     TIP3     H1       HT       0.417000       1.00800           0   0.00000       0.00000    
     40201 TIP3     5095     TIP3     H2       HT       0.417000       1.00800           0   0.00000     -0.301140E-02
     40202 TIP3     5096     TIP3     OH2      OT      -0.834000       15.9994           0   0.00000       0.00000    
     40203 TIP3     5096     TIP3     H1       HT       0.417000       1.00800           0   0.00000       0.00000    
     40204 TIP3     5096     TIP3     H2       HT       0.417000       1.00800           0   0.00000     -0.301140E-02
     40205 TIP3     5097     TIP3     OH2      OT      -0.834000       15.9994           0   0.00000       0.00000    
     40206 TIP3     5097     TIP3     H1       HT       0.417000       1.00800           0   0.00000       0.00000    
     40207 TIP3     5097     TIP3     H2       HT       0.417000       1.00800           0   0.00000     -0.301140E-02
     40208 TIP3     5098     TIP3     OH2      OT      -0.834000       15.9994           0   0.00000       0.00000    
     40209 TIP3     5098     TIP3     H1       HT       0.417000       1.00800           0   0.00000       0.00000    
     40210 TIP3     5098     TIP3     H2       HT       0.417000       1.00800           0   0.00000     -0.301140E-02
     40211 TIP3     5099     TIP3     OH2      OT      -0.834000       15.9994           0   0.00000       0.00000    
     40212 TIP3     5099     TIP3     H1       HT       0.417000       1.00800           0   0.00000       0.00000    
     40213 TIP3     5099     TIP3     H2       HT       0.417000       1.00800           0   0.00000     -0.301140E-02
     40214 TIP3     5100     TIP3     OH2      OT      -0.834000       15.9994           0   0.00000       0.00000    
     40215 TIP3     5100     TIP3     H1       HT       0.417000       1.00800           0   0.00000       0.00000    
     40216 TIP3     5100     TIP3     H2       HT       0.417000       1.00800           0   0.00000     -0.301140E-02
     40217 TIP3     5101     TIP3     OH2      OT      -0.834000       15.9994           0   0.00000       0.00000    
     40218 TIP3     5101     TIP3     H1       HT       0.417000       1.00800           0   0.00000       0.00000    
     40219 TIP3     5101     TIP3     H2       HT       0.417000       1.00800           0   0.00000     -0.301140E-02
     40220 TIP3     5102     TIP3     OH2      OT      -0.834000       15.9994           0   0.00000       0.00000    
     40221 TIP3     5102     TIP3     H1       HT       0.417000       1.00800           0   0.00000       0.00000    
     40222 TIP3     5102     TIP3     H2       HT       0.417000       1.00800           0   0.00000     -0.301140E-02
     40223 TIP3     5103     TIP3     OH2      OT      -0.834000       15.9994           0   0.00000       0.00000    
     40224 TIP3     5103     TIP3     H1       HT       0.417000       1.00800           0   0.00000       0.00000    
     40225 TIP3     5103     TIP3     H2       HT       0.417000       1.00800           0   0.00000     -0.301140E-02
     40226 TIP3     5104     TIP3     OH2      OT      -0.834000       15.9994           0   0.00000       0.00000    
     40227 TIP3     5104     TIP3     H1       HT       0.417000       1.00800           0   0.00000       0.00000    
     40228 TIP3     5104     TIP3     H2       HT       0.417000       1.00800           0   0.00000     -0.301140E-02
     40229 TIP3     5105     TIP3     OH2      OT      -0.834000       15.9994           0   0.00000       0.00000    
     40230 TIP3     5105     TIP3     H1       HT       0.417000       1.00800           0   0.00000       0.00000    
     40231 TIP3     5105     TIP3     H2       HT       0.417000       1.00800           0   0.00000     -0.301140E-02
     40232 TIP3     5106     TIP3     OH2      OT      -0.834000       15.9994           0   0.00000       0.00000    
     40233 TIP3     5106     TIP3     H1       HT       0.417000       1.00800           0   0.00000       0.00000    
     40234 TIP3     5106     TIP3     H2       HT       0.417000       1.00800           0   0.00000     -0.301140E-02
     40235 TIP3     5107     TIP3     OH2      OT      -0.834000       15.9994           0   0.00000       0.00000    
     40236 TIP3     5107     TIP3     H1       HT       0.417000       1.00800           0   0.00000       0.00000    
     40237 TIP3     5107     TIP3     H2       HT       0.417000       1.00800           0   0.00000     -0.301140E-02
     40238 TIP3     5108     TIP3     OH2      OT      -0.834000       15.9994           0   0.00000       0.00000    
     40239 TIP3     5108     TIP3     H1       HT       0.417000       1.00800           0   0.00000       0.00000    
     40240 TIP3     5108     TIP3     H2       HT       0.417000       1.00800           0   0.00000     -0.301140E-02
     40241 TIP3     5109     TIP3     OH2      OT      -0.834000       15.9994           0   0.00000       0.00000    
     40242 TIP3     5109     TIP3     H1       HT       0.417000       1.00800           0   0.00000       0.00000    
     40243 TIP3     5109     TIP3     H2       HT       0.417000       1.00800           0   0.00000     -0.301140E-02
     40244 TIP3     5110     TIP3     OH2      OT      -0.834000       15.9994           0   0.00000       0.00000    
     40245 TIP3     5110     TIP3     H1       HT       0.417000       1.00800           0   0.00000       0.00000    
     40246 TIP3     5110     TIP3     H2       HT       0.417000       1.00800           0   0.00000     -0.301140E-02
     40247 TIP3     5111     TIP3     OH2      OT      -0.834000       15.9994           0   0.00000       0.00000    
     40248 TIP3     5111     TIP3     H1       HT       0.417000       1.00800           0   0.00000       0.00000    
     40249 TIP3     5111     TIP3     H2       HT       0.417000       1.00800           0   0.00000     -0.301140E-02
     40250 TIP3     5112     TIP3     OH2      OT      -0.834000       15.9994           0   0.00000       0.00000    
     40251 TIP3     5112     TIP3     H1       HT       0.417000       1.00800           0   0.00000       0.00000    
     40252 TIP3     5112     TIP3     H2       HT       0.417000       1.00800           0   0.00000     -0.301140E-02
     40253 TIP3     5113     TIP3     OH2      OT      -0.834000       15.9994           0   0.00000       0.00000    
     40254 TIP3     5113     TIP3     H1       HT       0.417000       1.00800           0   0.00000       0.00000    
     40255 TIP3     5113     TIP3     H2       HT       0.417000       1.00800           0   0.00000     -0.301140E-02
     40256 TIP3     5114     TIP3     OH2      OT      -0.834000       15.9994           0   0.00000       0.00000    
     40257 TIP3     5114     TIP3     H1       HT       0.417000       1.00800           0   0.00000       0.00000    
     40258 TIP3     5114     TIP3     H2       HT       0.417000       1.00800           0   0.00000     -0.301140E-02
     40259 TIP3     5115     TIP3     OH2      OT      -0.834000       15.9994           0   0.00000       0.00000    
     40260 TIP3     5115     TIP3     H1       HT       0.417000       1.00800           0   0.00000       0.00000    
     40261 TIP3     5115     TIP3     H2       HT       0.417000       1.00800           0   0.00000     -0.301140E-02
     40262 TIP3     5116     TIP3     OH2      OT      -0.834000       15.9994           0   0.00000       0.00000    
     40263 TIP3     5116     TIP3     H1       HT       0.417000       1.00800           0   0.00000       0.00000    
     40264 TIP3     5116     TIP3     H2       HT       0.417000       1.00800           0   0.00000     -0.301140E-02
     40265 TIP3     5117     TIP3     OH2      OT      -0.834000       15.9994           0   0.00000       0.00000    
     40266 TIP3     5117     TIP3     H1       HT       0.417000       1.00800           0   0.00000       0.00000    
     40267 TIP3     5117     TIP3     H2       HT       0.417000       1.00800           0   0.00000     -0.301140E-02
     40268 TIP3     5118     TIP3     OH2      OT      -0.834000       15.9994           0   0.00000       0.00000    
     40269 TIP3     5118     TIP3     H1       HT       0.417000       1.00800           0   0.00000       0.00000    
     40270 TIP3     5118     TIP3     H2       HT       0.417000       1.00800           0   0.00000     -0.301140E-02
     40271 TIP3     5119     TIP3     OH2      OT      -0.834000       15.9994           0   0.00000       0.00000    
     40272 TIP3     5119     TIP3     H1       HT       0.417000       1.00800           0   0.00000       0.00000    
     40273 TIP3     5119     TIP3     H2       HT       0.417000       1.00800           0   0.00000     -0.301140E-02
     40274 TIP3     5120     TIP3     OH2      OT      -0.834000       15.9994           0   0.00000       0.00000    
     40275 TIP3     5120     TIP3     H1       HT       0.417000       1.00800           0   0.00000       0.00000    
     40276 TIP3     5120     TIP3     H2       HT       0.417000       1.00800           0   0.00000     -0.301140E-02
     40277 TIP3     5121     TIP3     OH2      OT      -0.834000       15.9994           0   0.00000       0.00000    
     40278 TIP3     5121     TIP3     H1       HT       0.417000       1.00800           0   0.00000       0.00000    
     40279 TIP3     5121     TIP3     H2       HT       0.417000       1.00800           0   0.00000     -0.301140E-02
     40280 TIP3     5122     TIP3     OH2      OT      -0.834000       15.9994           0   0.00000       0.00000    
     40281 TIP3     5122     TIP3     H1       HT       0.417000       1.00800           0   0.00000       0.00000    
     40282 TIP3     5122     TIP3     H2       HT       0.417000       1.00800           0   0.00000     -0.301140E-02
     40283 TIP3     5123     TIP3     OH2      OT      -0.834000       15.9994           0   0.00000       0.00000    
     40284 TIP3     5123     TIP3     H1       HT       0.417000       1.00800           0   0.00000       0.00000    
     40285 TIP3     5123     TIP3     H2       HT       0.417000       1.00800           0   0.00000     -0.301140E-02
     40286 TIP3     5124     TIP3     OH2      OT      -0.834000       15.9994           0   0.00000       0.00000    
     40287 TIP3     5124     TIP3     H1       HT       0.417000       1.00800           0   0.00000       0.00000    
     40288 TIP3     5124     TIP3     H2       HT       0.417000       1.00800           0   0.00000     -0.301140E-02
     40289 TIP3     5125     TIP3     OH2      OT      -0.834000       15.9994           0   0.00000       0.00000    
     40290 TIP3     5125     TIP3     H1       HT       0.417000       1.00800           0   0.00000       0.00000    
     40291 TIP3     5125     TIP3     H2       HT       0.417000       1.00800           0   0.00000     -0.301140E-02
     40292 TIP3     5126     TIP3     OH2      OT      -0.834000       15.9994           0   0.00000       0.00000    
     40293 TIP3     5126     TIP3     H1       HT       0.417000       1.00800           0   0.00000       0.00000    
     40294 TIP3     5126     TIP3     H2       HT       0.417000       1.00800           0   0.00000     -0.301140E-02
     40295 TIP3     5127     TIP3     OH2      OT      -0.834000       15.9994           0   0.00000       0.00000    
     40296 TIP3     5127     TIP3     H1       HT       0.417000       1.00800           0   0.00000       0.00000    
     40297 TIP3     5127     TIP3     H2       HT       0.417000       1.00800           0   0.00000     -0.301140E-02
     40298 TIP3     5128     TIP3     OH2      OT      -0.834000       15.9994           0   0.00000       0.00000    
     40299 TIP3     5128     TIP3     H1       HT       0.417000       1.00800           0   0.00000       0.00000    
     40300 TIP3     5128     TIP3     H2       HT       0.417000       1.00800           0   0.00000     -0.301140E-02
     40301 TIP3     5129     TIP3     OH2      OT      -0.834000       15.9994           0   0.00000       0.00000    
     40302 TIP3     5129     TIP3     H1       HT       0.417000       1.00800           0   0.00000       0.00000    
     40303 TIP3     5129     TIP3     H2       HT       0.417000       1.00800           0   0.00000     -0.301140E-02
     40304 TIP3     5130     TIP3     OH2      OT      -0.834000       15.9994           0   0.00000       0.00000    
     40305 TIP3     5130     TIP3     H1       HT       0.417000       1.00800           0   0.00000       0.00000    
     40306 TIP3     5130     TIP3     H2       HT       0.417000       1.00800           0   0.00000     -0.301140E-02
     40307 TIP3     5131     TIP3     OH2      OT      -0.834000       15.9994           0   0.00000       0.00000    
     40308 TIP3     5131     TIP3     H1       HT       0.417000       1.00800           0   0.00000       0.00000    
     40309 TIP3     5131     TIP3     H2       HT       0.417000       1.00800           0   0.00000     -0.301140E-02
     40310 TIP3     5132     TIP3     OH2      OT      -0.834000       15.9994           0   0.00000       0.00000    
     40311 TIP3     5132     TIP3     H1       HT       0.417000       1.00800           0   0.00000       0.00000    
     40312 TIP3     5132     TIP3     H2       HT       0.417000       1.00800           0   0.00000     -0.301140E-02
     40313 TIP3     5133     TIP3     OH2      OT      -0.834000       15.9994           0   0.00000       0.00000    
     40314 TIP3     5133     TIP3     H1       HT       0.417000       1.00800           0   0.00000       0.00000    
     40315 TIP3     5133     TIP3     H2       HT       0.417000       1.00800           0   0.00000     -0.301140E-02
     40316 TIP3     5134     TIP3     OH2      OT      -0.834000       15.9994           0   0.00000       0.00000    
     40317 TIP3     5134     TIP3     H1       HT       0.417000       1.00800           0   0.00000       0.00000    
     40318 TIP3     5134     TIP3     H2       HT       0.417000       1.00800           0   0.00000     -0.301140E-02
     40319 TIP3     5135     TIP3     OH2      OT      -0.834000       15.9994           0   0.00000       0.00000    
     40320 TIP3     5135     TIP3     H1       HT       0.417000       1.00800           0   0.00000       0.00000    
     40321 TIP3     5135     TIP3     H2       HT       0.417000       1.00800           0   0.00000     -0.301140E-02
     40322 TIP3     5136     TIP3     OH2      OT      -0.834000       15.9994           0   0.00000       0.00000    
     40323 TIP3     5136     TIP3     H1       HT       0.417000       1.00800           0   0.00000       0.00000    
     40324 TIP3     5136     TIP3     H2       HT       0.417000       1.00800           0   0.00000     -0.301140E-02
     40325 TIP3     5137     TIP3     OH2      OT      -0.834000       15.9994           0   0.00000       0.00000    
     40326 TIP3     5137     TIP3     H1       HT       0.417000       1.00800           0   0.00000       0.00000    
     40327 TIP3     5137     TIP3     H2       HT       0.417000       1.00800           0   0.00000     -0.301140E-02
     40328 TIP3     5138     TIP3     OH2      OT      -0.834000       15.9994           0   0.00000       0.00000    
     40329 TIP3     5138     TIP3     H1       HT       0.417000       1.00800           0   0.00000       0.00000    
     40330 TIP3     5138     TIP3     H2       HT       0.417000       1.00800           0   0.00000     -0.301140E-02
     40331 TIP3     5139     TIP3     OH2      OT      -0.834000       15.9994           0   0.00000       0.00000    
     40332 TIP3     5139     TIP3     H1       HT       0.417000       1.00800           0   0.00000       0.00000    
     40333 TIP3     5139     TIP3     H2       HT       0.417000       1.00800           0   0.00000     -0.301140E-02
     40334 TIP3     5140     TIP3     OH2      OT      -0.834000       15.9994           0   0.00000       0.00000    
     40335 TIP3     5140     TIP3     H1       HT       0.417000       1.00800           0   0.00000       0.00000    
     40336 TIP3     5140     TIP3     H2       HT       0.417000       1.00800           0   0.00000     -0.301140E-02
     40337 TIP3     5141     TIP3     OH2      OT      -0.834000       15.9994           0   0.00000       0.00000    
     40338 TIP3     5141     TIP3     H1       HT       0.417000       1.00800           0   0.00000       0.00000    
     40339 TIP3     5141     TIP3     H2       HT       0.417000       1.00800           0   0.00000     -0.301140E-02
     40340 TIP3     5142     TIP3     OH2      OT      -0.834000       15.9994           0   0.00000       0.00000    
     40341 TIP3     5142     TIP3     H1       HT       0.417000       1.00800           0   0.00000       0.00000    
     40342 TIP3     5142     TIP3     H2       HT       0.417000       1.00800           0   0.00000     -0.301140E-02
     40343 TIP3     5143     TIP3     OH2      OT      -0.834000       15.9994           0   0.00000       0.00000    
     40344 TIP3     5143     TIP3     H1       HT       0.417000       1.00800           0   0.00000       0.00000    
     40345 TIP3     5143     TIP3     H2       HT       0.417000       1.00800           0   0.00000     -0.301140E-02
     40346 TIP3     5144     TIP3     OH2      OT      -0.834000       15.9994           0   0.00000       0.00000    
     40347 TIP3     5144     TIP3     H1       HT       0.417000       1.00800           0   0.00000       0.00000    
     40348 TIP3     5144     TIP3     H2       HT       0.417000       1.00800           0   0.00000     -0.301140E-02
     40349 TIP3     5145     TIP3     OH2      OT      -0.834000       15.9994           0   0.00000       0.00000    
     40350 TIP3     5145     TIP3     H1       HT       0.417000       1.00800           0   0.00000       0.00000    
     40351 TIP3     5145     TIP3     H2       HT       0.417000       1.00800           0   0.00000     -0.301140E-02
     40352 TIP3     5146     TIP3     OH2      OT      -0.834000       15.9994           0   0.00000       0.00000    
     40353 TIP3     5146     TIP3     H1       HT       0.417000       1.00800           0   0.00000       0.00000    
     40354 TIP3     5146     TIP3     H2       HT       0.417000       1.00800           0   0.00000     -0.301140E-02
     40355 TIP3     5147     TIP3     OH2      OT      -0.834000       15.9994           0   0.00000       0.00000    
     40356 TIP3     5147     TIP3     H1       HT       0.417000       1.00800           0   0.00000       0.00000    
     40357 TIP3     5147     TIP3     H2       HT       0.417000       1.00800           0   0.00000     -0.301140E-02
     40358 TIP3     5148     TIP3     OH2      OT      -0.834000       15.9994           0   0.00000       0.00000    
     40359 TIP3     5148     TIP3     H1       HT       0.417000       1.00800           0   0.00000       0.00000    
     40360 TIP3     5148     TIP3     H2       HT       0.417000       1.00800           0   0.00000     -0.301140E-02
     40361 TIP3     5149     TIP3     OH2      OT      -0.834000       15.9994           0   0.00000       0.00000    
     40362 TIP3     5149     TIP3     H1       HT       0.417000       1.00800           0   0.00000       0.00000    
     40363 TIP3     5149     TIP3     H2       HT       0.417000       1.00800           0   0.00000     -0.301140E-02
     40364 TIP3     5150     TIP3     OH2      OT      -0.834000       15.9994           0   0.00000       0.00000    
     40365 TIP3     5150     TIP3     H1       HT       0.417000       1.00800           0   0.00000       0.00000    
     40366 TIP3     5150     TIP3     H2       HT       0.417000       1.00800           0   0.00000     -0.301140E-02
     40367 TIP3     5151     TIP3     OH2      OT      -0.834000       15.9994           0   0.00000       0.00000    
     40368 TIP3     5151     TIP3     H1       HT       0.417000       1.00800           0   0.00000       0.00000    
     40369 TIP3     5151     TIP3     H2       HT       0.417000       1.00800           0   0.00000     -0.301140E-02
     40370 TIP3     5152     TIP3     OH2      OT      -0.834000       15.9994           0   0.00000       0.00000    
     40371 TIP3     5152     TIP3     H1       HT       0.417000       1.00800           0   0.00000       0.00000    
     40372 TIP3     5152     TIP3     H2       HT       0.417000       1.00800           0   0.00000     -0.301140E-02
     40373 TIP3     5153     TIP3     OH2      OT      -0.834000       15.9994           0   0.00000       0.00000    
     40374 TIP3     5153     TIP3     H1       HT       0.417000       1.00800           0   0.00000       0.00000    
     40375 TIP3     5153     TIP3     H2       HT       0.417000       1.00800           0   0.00000     -0.301140E-02
     40376 TIP3     5154     TIP3     OH2      OT      -0.834000       15.9994           0   0.00000       0.00000    
     40377 TIP3     5154     TIP3     H1       HT       0.417000       1.00800           0   0.00000       0.00000    
     40378 TIP3     5154     TIP3     H2       HT       0.417000       1.00800           0   0.00000     -0.301140E-02
     40379 TIP3     5155     TIP3     OH2      OT      -0.834000       15.9994           0   0.00000       0.00000    
     40380 TIP3     5155     TIP3     H1       HT       0.417000       1.00800           0   0.00000       0.00000    
     40381 TIP3     5155     TIP3     H2       HT       0.417000       1.00800           0   0.00000     -0.301140E-02
     40382 TIP3     5156     TIP3     OH2      OT      -0.834000       15.9994           0   0.00000       0.00000    
     40383 TIP3     5156     TIP3     H1       HT       0.417000       1.00800           0   0.00000       0.00000    
     40384 TIP3     5156     TIP3     H2       HT       0.417000       1.00800           0   0.00000     -0.301140E-02
     40385 TIP3     5157     TIP3     OH2      OT      -0.834000       15.9994           0   0.00000       0.00000    
     40386 TIP3     5157     TIP3     H1       HT       0.417000       1.00800           0   0.00000       0.00000    
     40387 TIP3     5157     TIP3     H2       HT       0.417000       1.00800           0   0.00000     -0.301140E-02
     40388 TIP3     5158     TIP3     OH2      OT      -0.834000       15.9994           0   0.00000       0.00000    
     40389 TIP3     5158     TIP3     H1       HT       0.417000       1.00800           0   0.00000       0.00000    
     40390 TIP3     5158     TIP3     H2       HT       0.417000       1.00800           0   0.00000     -0.301140E-02
     40391 TIP3     5159     TIP3     OH2      OT      -0.834000       15.9994           0   0.00000       0.00000    
     40392 TIP3     5159     TIP3     H1       HT       0.417000       1.00800           0   0.00000       0.00000    
     40393 TIP3     5159     TIP3     H2       HT       0.417000       1.00800           0   0.00000     -0.301140E-02
     40394 TIP3     5160     TIP3     OH2      OT      -0.834000       15.9994           0   0.00000       0.00000    
     40395 TIP3     5160     TIP3     H1       HT       0.417000       1.00800           0   0.00000       0.00000    
     40396 TIP3     5160     TIP3     H2       HT       0.417000       1.00800           0   0.00000     -0.301140E-02
     40397 TIP3     5161     TIP3     OH2      OT      -0.834000       15.9994           0   0.00000       0.00000    
     40398 TIP3     5161     TIP3     H1       HT       0.417000       1.00800           0   0.00000       0.00000    
     40399 TIP3     5161     TIP3     H2       HT       0.417000       1.00800           0   0.00000     -0.301140E-02
     40400 TIP3     5162     TIP3     OH2      OT      -0.834000       15.9994           0   0.00000       0.00000    
     40401 TIP3     5162     TIP3     H1       HT       0.417000       1.00800           0   0.00000       0.00000    
     40402 TIP3     5162     TIP3     H2       HT       0.417000       1.00800           0   0.00000     -0.301140E-02
     40403 TIP3     5163     TIP3     OH2      OT      -0.834000       15.9994           0   0.00000       0.00000    
     40404 TIP3     5163     TIP3     H1       HT       0.417000       1.00800           0   0.00000       0.00000    
     40405 TIP3     5163     TIP3     H2       HT       0.417000       1.00800           0   0.00000     -0.301140E-02
     40406 TIP3     5164     TIP3     OH2      OT      -0.834000       15.9994           0   0.00000       0.00000    
     40407 TIP3     5164     TIP3     H1       HT       0.417000       1.00800           0   0.00000       0.00000    
     40408 TIP3     5164     TIP3     H2       HT       0.417000       1.00800           0   0.00000     -0.301140E-02
     40409 TIP3     5165     TIP3     OH2      OT      -0.834000       15.9994           0   0.00000       0.00000    
     40410 TIP3     5165     TIP3     H1       HT       0.417000       1.00800           0   0.00000       0.00000    
     40411 TIP3     5165     TIP3     H2       HT       0.417000       1.00800           0   0.00000     -0.301140E-02
     40412 TIP3     5166     TIP3     OH2      OT      -0.834000       15.9994           0   0.00000       0.00000    
     40413 TIP3     5166     TIP3     H1       HT       0.417000       1.00800           0   0.00000       0.00000    
     40414 TIP3     5166     TIP3     H2       HT       0.417000       1.00800           0   0.00000     -0.301140E-02
     40415 TIP3     5167     TIP3     OH2      OT      -0.834000       15.9994           0   0.00000       0.00000    
     40416 TIP3     5167     TIP3     H1       HT       0.417000       1.00800           0   0.00000       0.00000    
     40417 TIP3     5167     TIP3     H2       HT       0.417000       1.00800           0   0.00000     -0.301140E-02
     40418 TIP3     5168     TIP3     OH2      OT      -0.834000       15.9994           0   0.00000       0.00000    
     40419 TIP3     5168     TIP3     H1       HT       0.417000       1.00800           0   0.00000       0.00000    
     40420 TIP3     5168     TIP3     H2       HT       0.417000       1.00800           0   0.00000     -0.301140E-02
     40421 TIP3     5169     TIP3     OH2      OT      -0.834000       15.9994           0   0.00000       0.00000    
     40422 TIP3     5169     TIP3     H1       HT       0.417000       1.00800           0   0.00000       0.00000    
     40423 TIP3     5169     TIP3     H2       HT       0.417000       1.00800           0   0.00000     -0.301140E-02
     40424 TIP3     5170     TIP3     OH2      OT      -0.834000       15.9994           0   0.00000       0.00000    
     40425 TIP3     5170     TIP3     H1       HT       0.417000       1.00800           0   0.00000       0.00000    
     40426 TIP3     5170     TIP3     H2       HT       0.417000       1.00800           0   0.00000     -0.301140E-02
     40427 TIP3     5171     TIP3     OH2      OT      -0.834000       15.9994           0   0.00000       0.00000    
     40428 TIP3     5171     TIP3     H1       HT       0.417000       1.00800           0   0.00000       0.00000    
     40429 TIP3     5171     TIP3     H2       HT       0.417000       1.00800           0   0.00000     -0.301140E-02
     40430 TIP3     5172     TIP3     OH2      OT      -0.834000       15.9994           0   0.00000       0.00000    
     40431 TIP3     5172     TIP3     H1       HT       0.417000       1.00800           0   0.00000       0.00000    
     40432 TIP3     5172     TIP3     H2       HT       0.417000       1.00800           0   0.00000     -0.301140E-02
     40433 TIP3     5173     TIP3     OH2      OT      -0.834000       15.9994           0   0.00000       0.00000    
     40434 TIP3     5173     TIP3     H1       HT       0.417000       1.00800           0   0.00000       0.00000    
     40435 TIP3     5173     TIP3     H2       HT       0.417000       1.00800           0   0.00000     -0.301140E-02
     40436 TIP3     5174     TIP3     OH2      OT      -0.834000       15.9994           0   0.00000       0.00000    
     40437 TIP3     5174     TIP3     H1       HT       0.417000       1.00800           0   0.00000       0.00000    
     40438 TIP3     5174     TIP3     H2       HT       0.417000       1.00800           0   0.00000     -0.301140E-02
     40439 TIP3     5175     TIP3     OH2      OT      -0.834000       15.9994           0   0.00000       0.00000    
     40440 TIP3     5175     TIP3     H1       HT       0.417000       1.00800           0   0.00000       0.00000    
     40441 TIP3     5175     TIP3     H2       HT       0.417000       1.00800           0   0.00000     -0.301140E-02
     40442 TIP3     5176     TIP3     OH2      OT      -0.834000       15.9994           0   0.00000       0.00000    
     40443 TIP3     5176     TIP3     H1       HT       0.417000       1.00800           0   0.00000       0.00000    
     40444 TIP3     5176     TIP3     H2       HT       0.417000       1.00800           0   0.00000     -0.301140E-02
     40445 TIP3     5177     TIP3     OH2      OT      -0.834000       15.9994           0   0.00000       0.00000    
     40446 TIP3     5177     TIP3     H1       HT       0.417000       1.00800           0   0.00000       0.00000    
     40447 TIP3     5177     TIP3     H2       HT       0.417000       1.00800           0   0.00000     -0.301140E-02
     40448 TIP3     5178     TIP3     OH2      OT      -0.834000       15.9994           0   0.00000       0.00000    
     40449 TIP3     5178     TIP3     H1       HT       0.417000       1.00800           0   0.00000       0.00000    
     40450 TIP3     5178     TIP3     H2       HT       0.417000       1.00800           0   0.00000     -0.301140E-02
     40451 TIP3     5179     TIP3     OH2      OT      -0.834000       15.9994           0   0.00000       0.00000    
     40452 TIP3     5179     TIP3     H1       HT       0.417000       1.00800           0   0.00000       0.00000    
     40453 TIP3     5179     TIP3     H2       HT       0.417000       1.00800           0   0.00000     -0.301140E-02
     40454 TIP3     5180     TIP3     OH2      OT      -0.834000       15.9994           0   0.00000       0.00000    
     40455 TIP3     5180     TIP3     H1       HT       0.417000       1.00800           0   0.00000       0.00000    
     40456 TIP3     5180     TIP3     H2       HT       0.417000       1.00800           0   0.00000     -0.301140E-02
     40457 TIP3     5181     TIP3     OH2      OT      -0.834000       15.9994           0   0.00000       0.00000    
     40458 TIP3     5181     TIP3     H1       HT       0.417000       1.00800           0   0.00000       0.00000    
     40459 TIP3     5181     TIP3     H2       HT       0.417000       1.00800           0   0.00000     -0.301140E-02
     40460 TIP3     5182     TIP3     OH2      OT      -0.834000       15.9994           0   0.00000       0.00000    
     40461 TIP3     5182     TIP3     H1       HT       0.417000       1.00800           0   0.00000       0.00000    
     40462 TIP3     5182     TIP3     H2       HT       0.417000       1.00800           0   0.00000     -0.301140E-02
     40463 TIP3     5183     TIP3     OH2      OT      -0.834000       15.9994           0   0.00000       0.00000    
     40464 TIP3     5183     TIP3     H1       HT       0.417000       1.00800           0   0.00000       0.00000    
     40465 TIP3     5183     TIP3     H2       HT       0.417000       1.00800           0   0.00000     -0.301140E-02
     40466 TIP3     5184     TIP3     OH2      OT      -0.834000       15.9994           0   0.00000       0.00000    
     40467 TIP3     5184     TIP3     H1       HT       0.417000       1.00800           0   0.00000       0.00000    
     40468 TIP3     5184     TIP3     H2       HT       0.417000       1.00800           0   0.00000     -0.301140E-02
     40469 TIP3     5185     TIP3     OH2      OT      -0.834000       15.9994           0   0.00000       0.00000    
     40470 TIP3     5185     TIP3     H1       HT       0.417000       1.00800           0   0.00000       0.00000    
     40471 TIP3     5185     TIP3     H2       HT       0.417000       1.00800           0   0.00000     -0.301140E-02
     40472 TIP3     5186     TIP3     OH2      OT      -0.834000       15.9994           0   0.00000       0.00000    
     40473 TIP3     5186     TIP3     H1       HT       0.417000       1.00800           0   0.00000       0.00000    
     40474 TIP3     5186     TIP3     H2       HT       0.417000       1.00800           0   0.00000     -0.301140E-02
     40475 TIP3     5187     TIP3     OH2      OT      -0.834000       15.9994           0   0.00000       0.00000    
     40476 TIP3     5187     TIP3     H1       HT       0.417000       1.00800           0   0.00000       0.00000    
     40477 TIP3     5187     TIP3     H2       HT       0.417000       1.00800           0   0.00000     -0.301140E-02
     40478 TIP3     5188     TIP3     OH2      OT      -0.834000       15.9994           0   0.00000       0.00000    
     40479 TIP3     5188     TIP3     H1       HT       0.417000       1.00800           0   0.00000       0.00000    
     40480 TIP3     5188     TIP3     H2       HT       0.417000       1.00800           0   0.00000     -0.301140E-02
     40481 TIP3     5189     TIP3     OH2      OT      -0.834000       15.9994           0   0.00000       0.00000    
     40482 TIP3     5189     TIP3     H1       HT       0.417000       1.00800           0   0.00000       0.00000    
     40483 TIP3     5189     TIP3     H2       HT       0.417000       1.00800           0   0.00000     -0.301140E-02
     40484 TIP3     5190     TIP3     OH2      OT      -0.834000       15.9994           0   0.00000       0.00000    
     40485 TIP3     5190     TIP3     H1       HT       0.417000       1.00800           0   0.00000       0.00000    
     40486 TIP3     5190     TIP3     H2       HT       0.417000       1.00800           0   0.00000     -0.301140E-02
     40487 TIP3     5191     TIP3     OH2      OT      -0.834000       15.9994           0   0.00000       0.00000    
     40488 TIP3     5191     TIP3     H1       HT       0.417000       1.00800           0   0.00000       0.00000    
     40489 TIP3     5191     TIP3     H2       HT       0.417000       1.00800           0   0.00000     -0.301140E-02
     40490 TIP3     5192     TIP3     OH2      OT      -0.834000       15.9994           0   0.00000       0.00000    
     40491 TIP3     5192     TIP3     H1       HT       0.417000       1.00800           0   0.00000       0.00000    
     40492 TIP3     5192     TIP3     H2       HT       0.417000       1.00800           0   0.00000     -0.301140E-02
     40493 TIP3     5193     TIP3     OH2      OT      -0.834000       15.9994           0   0.00000       0.00000    
     40494 TIP3     5193     TIP3     H1       HT       0.417000       1.00800           0   0.00000       0.00000    
     40495 TIP3     5193     TIP3     H2       HT       0.417000       1.00800           0   0.00000     -0.301140E-02
     40496 TIP3     5194     TIP3     OH2      OT      -0.834000       15.9994           0   0.00000       0.00000    
     40497 TIP3     5194     TIP3     H1       HT       0.417000       1.00800           0   0.00000       0.00000    
     40498 TIP3     5194     TIP3     H2       HT       0.417000       1.00800           0   0.00000     -0.301140E-02
     40499 TIP3     5195     TIP3     OH2      OT      -0.834000       15.9994           0   0.00000       0.00000    
     40500 TIP3     5195     TIP3     H1       HT       0.417000       1.00800           0   0.00000       0.00000    
     40501 TIP3     5195     TIP3     H2       HT       0.417000       1.00800           0   0.00000     -0.301140E-02
     40502 TIP3     5196     TIP3     OH2      OT      -0.834000       15.9994           0   0.00000       0.00000    
     40503 TIP3     5196     TIP3     H1       HT       0.417000       1.00800           0   0.00000       0.00000    
     40504 TIP3     5196     TIP3     H2       HT       0.417000       1.00800           0   0.00000     -0.301140E-02
     40505 TIP3     5197     TIP3     OH2      OT      -0.834000       15.9994           0   0.00000       0.00000    
     40506 TIP3     5197     TIP3     H1       HT       0.417000       1.00800           0   0.00000       0.00000    
     40507 TIP3     5197     TIP3     H2       HT       0.417000       1.00800           0   0.00000     -0.301140E-02
     40508 TIP3     5198     TIP3     OH2      OT      -0.834000       15.9994           0   0.00000       0.00000    
     40509 TIP3     5198     TIP3     H1       HT       0.417000       1.00800           0   0.00000       0.00000    
     40510 TIP3     5198     TIP3     H2       HT       0.417000       1.00800           0   0.00000     -0.301140E-02
     40511 TIP3     5199     TIP3     OH2      OT      -0.834000       15.9994           0   0.00000       0.00000    
     40512 TIP3     5199     TIP3     H1       HT       0.417000       1.00800           0   0.00000       0.00000    
     40513 TIP3     5199     TIP3     H2       HT       0.417000       1.00800           0   0.00000     -0.301140E-02
     40514 TIP3     5200     TIP3     OH2      OT      -0.834000       15.9994           0   0.00000       0.00000    
     40515 TIP3     5200     TIP3     H1       HT       0.417000       1.00800           0   0.00000       0.00000    
     40516 TIP3     5200     TIP3     H2       HT       0.417000       1.00800           0   0.00000     -0.301140E-02
     40517 TIP3     5201     TIP3     OH2      OT      -0.834000       15.9994           0   0.00000       0.00000    
     40518 TIP3     5201     TIP3     H1       HT       0.417000       1.00800           0   0.00000       0.00000    
     40519 TIP3     5201     TIP3     H2       HT       0.417000       1.00800           0   0.00000     -0.301140E-02
     40520 TIP3     5202     TIP3     OH2      OT      -0.834000       15.9994           0   0.00000       0.00000    
     40521 TIP3     5202     TIP3     H1       HT       0.417000       1.00800           0   0.00000       0.00000    
     40522 TIP3     5202     TIP3     H2       HT       0.417000       1.00800           0   0.00000     -0.301140E-02
     40523 TIP3     5203     TIP3     OH2      OT      -0.834000       15.9994           0   0.00000       0.00000    
     40524 TIP3     5203     TIP3     H1       HT       0.417000       1.00800           0   0.00000       0.00000    
     40525 TIP3     5203     TIP3     H2       HT       0.417000       1.00800           0   0.00000     -0.301140E-02
     40526 TIP3     5204     TIP3     OH2      OT      -0.834000       15.9994           0   0.00000       0.00000    
     40527 TIP3     5204     TIP3     H1       HT       0.417000       1.00800           0   0.00000       0.00000    
     40528 TIP3     5204     TIP3     H2       HT       0.417000       1.00800           0   0.00000     -0.301140E-02
     40529 TIP3     5205     TIP3     OH2      OT      -0.834000       15.9994           0   0.00000       0.00000    
     40530 TIP3     5205     TIP3     H1       HT       0.417000       1.00800           0   0.00000       0.00000    
     40531 TIP3     5205     TIP3     H2       HT       0.417000       1.00800           0   0.00000     -0.301140E-02
     40532 TIP3     5206     TIP3     OH2      OT      -0.834000       15.9994           0   0.00000       0.00000    
     40533 TIP3     5206     TIP3     H1       HT       0.417000       1.00800           0   0.00000       0.00000    
     40534 TIP3     5206     TIP3     H2       HT       0.417000       1.00800           0   0.00000     -0.301140E-02
     40535 TIP3     5207     TIP3     OH2      OT      -0.834000       15.9994           0   0.00000       0.00000    
     40536 TIP3     5207     TIP3     H1       HT       0.417000       1.00800           0   0.00000       0.00000    
     40537 TIP3     5207     TIP3     H2       HT       0.417000       1.00800           0   0.00000     -0.301140E-02
     40538 TIP3     5208     TIP3     OH2      OT      -0.834000       15.9994           0   0.00000       0.00000    
     40539 TIP3     5208     TIP3     H1       HT       0.417000       1.00800           0   0.00000       0.00000    
     40540 TIP3     5208     TIP3     H2       HT       0.417000       1.00800           0   0.00000     -0.301140E-02
     40541 TIP3     5209     TIP3     OH2      OT      -0.834000       15.9994           0   0.00000       0.00000    
     40542 TIP3     5209     TIP3     H1       HT       0.417000       1.00800           0   0.00000       0.00000    
     40543 TIP3     5209     TIP3     H2       HT       0.417000       1.00800           0   0.00000     -0.301140E-02
     40544 TIP3     5210     TIP3     OH2      OT      -0.834000       15.9994           0   0.00000       0.00000    
     40545 TIP3     5210     TIP3     H1       HT       0.417000       1.00800           0   0.00000       0.00000    
     40546 TIP3     5210     TIP3     H2       HT       0.417000       1.00800           0   0.00000     -0.301140E-02
     40547 TIP3     5211     TIP3     OH2      OT      -0.834000       15.9994           0   0.00000       0.00000    
     40548 TIP3     5211     TIP3     H1       HT       0.417000       1.00800           0   0.00000       0.00000    
     40549 TIP3     5211     TIP3     H2       HT       0.417000       1.00800           0   0.00000     -0.301140E-02
     40550 TIP3     5212     TIP3     OH2      OT      -0.834000       15.9994           0   0.00000       0.00000    
     40551 TIP3     5212     TIP3     H1       HT       0.417000       1.00800           0   0.00000       0.00000    
     40552 TIP3     5212     TIP3     H2       HT       0.417000       1.00800           0   0.00000     -0.301140E-02
     40553 TIP3     5213     TIP3     OH2      OT      -0.834000       15.9994           0   0.00000       0.00000    
     40554 TIP3     5213     TIP3     H1       HT       0.417000       1.00800           0   0.00000       0.00000    
     40555 TIP3     5213     TIP3     H2       HT       0.417000       1.00800           0   0.00000     -0.301140E-02
     40556 TIP3     5214     TIP3     OH2      OT      -0.834000       15.9994           0   0.00000       0.00000    
     40557 TIP3     5214     TIP3     H1       HT       0.417000       1.00800           0   0.00000       0.00000    
     40558 TIP3     5214     TIP3     H2       HT       0.417000       1.00800           0   0.00000     -0.301140E-02
     40559 TIP3     5215     TIP3     OH2      OT      -0.834000       15.9994           0   0.00000       0.00000    
     40560 TIP3     5215     TIP3     H1       HT       0.417000       1.00800           0   0.00000       0.00000    
     40561 TIP3     5215     TIP3     H2       HT       0.417000       1.00800           0   0.00000     -0.301140E-02
     40562 TIP3     5216     TIP3     OH2      OT      -0.834000       15.9994           0   0.00000       0.00000    
     40563 TIP3     5216     TIP3     H1       HT       0.417000       1.00800           0   0.00000       0.00000    
     40564 TIP3     5216     TIP3     H2       HT       0.417000       1.00800           0   0.00000     -0.301140E-02
     40565 TIP3     5217     TIP3     OH2      OT      -0.834000       15.9994           0   0.00000       0.00000    
     40566 TIP3     5217     TIP3     H1       HT       0.417000       1.00800           0   0.00000       0.00000    
     40567 TIP3     5217     TIP3     H2       HT       0.417000       1.00800           0   0.00000     -0.301140E-02
     40568 TIP3     5218     TIP3     OH2      OT      -0.834000       15.9994           0   0.00000       0.00000    
     40569 TIP3     5218     TIP3     H1       HT       0.417000       1.00800           0   0.00000       0.00000    
     40570 TIP3     5218     TIP3     H2       HT       0.417000       1.00800           0   0.00000     -0.301140E-02
     40571 TIP3     5219     TIP3     OH2      OT      -0.834000       15.9994           0   0.00000       0.00000    
     40572 TIP3     5219     TIP3     H1       HT       0.417000       1.00800           0   0.00000       0.00000    
     40573 TIP3     5219     TIP3     H2       HT       0.417000       1.00800           0   0.00000     -0.301140E-02
     40574 TIP3     5220     TIP3     OH2      OT      -0.834000       15.9994           0   0.00000       0.00000    
     40575 TIP3     5220     TIP3     H1       HT       0.417000       1.00800           0   0.00000       0.00000    
     40576 TIP3     5220     TIP3     H2       HT       0.417000       1.00800           0   0.00000     -0.301140E-02
     40577 TIP3     5221     TIP3     OH2      OT      -0.834000       15.9994           0   0.00000       0.00000    
     40578 TIP3     5221     TIP3     H1       HT       0.417000       1.00800           0   0.00000       0.00000    
     40579 TIP3     5221     TIP3     H2       HT       0.417000       1.00800           0   0.00000     -0.301140E-02
     40580 TIP3     5222     TIP3     OH2      OT      -0.834000       15.9994           0   0.00000       0.00000    
     40581 TIP3     5222     TIP3     H1       HT       0.417000       1.00800           0   0.00000       0.00000    
     40582 TIP3     5222     TIP3     H2       HT       0.417000       1.00800           0   0.00000     -0.301140E-02
     40583 TIP3     5223     TIP3     OH2      OT      -0.834000       15.9994           0   0.00000       0.00000    
     40584 TIP3     5223     TIP3     H1       HT       0.417000       1.00800           0   0.00000       0.00000    
     40585 TIP3     5223     TIP3     H2       HT       0.417000       1.00800           0   0.00000     -0.301140E-02
     40586 TIP3     5224     TIP3     OH2      OT      -0.834000       15.9994           0   0.00000       0.00000    
     40587 TIP3     5224     TIP3     H1       HT       0.417000       1.00800           0   0.00000       0.00000    
     40588 TIP3     5224     TIP3     H2       HT       0.417000       1.00800           0   0.00000     -0.301140E-02
     40589 TIP3     5225     TIP3     OH2      OT      -0.834000       15.9994           0   0.00000       0.00000    
     40590 TIP3     5225     TIP3     H1       HT       0.417000       1.00800           0   0.00000       0.00000    
     40591 TIP3     5225     TIP3     H2       HT       0.417000       1.00800           0   0.00000     -0.301140E-02
     40592 TIP3     5226     TIP3     OH2      OT      -0.834000       15.9994           0   0.00000       0.00000    
     40593 TIP3     5226     TIP3     H1       HT       0.417000       1.00800           0   0.00000       0.00000    
     40594 TIP3     5226     TIP3     H2       HT       0.417000       1.00800           0   0.00000     -0.301140E-02
     40595 TIP3     5227     TIP3     OH2      OT      -0.834000       15.9994           0   0.00000       0.00000    
     40596 TIP3     5227     TIP3     H1       HT       0.417000       1.00800           0   0.00000       0.00000    
     40597 TIP3     5227     TIP3     H2       HT       0.417000       1.00800           0   0.00000     -0.301140E-02
     40598 TIP3     5228     TIP3     OH2      OT      -0.834000       15.9994           0   0.00000       0.00000    
     40599 TIP3     5228     TIP3     H1       HT       0.417000       1.00800           0   0.00000       0.00000    
     40600 TIP3     5228     TIP3     H2       HT       0.417000       1.00800           0   0.00000     -0.301140E-02
     40601 TIP3     5229     TIP3     OH2      OT      -0.834000       15.9994           0   0.00000       0.00000    
     40602 TIP3     5229     TIP3     H1       HT       0.417000       1.00800           0   0.00000       0.00000    
     40603 TIP3     5229     TIP3     H2       HT       0.417000       1.00800           0   0.00000     -0.301140E-02
     40604 TIP3     5230     TIP3     OH2      OT      -0.834000       15.9994           0   0.00000       0.00000    
     40605 TIP3     5230     TIP3     H1       HT       0.417000       1.00800           0   0.00000       0.00000    
     40606 TIP3     5230     TIP3     H2       HT       0.417000       1.00800           0   0.00000     -0.301140E-02
     40607 TIP3     5231     TIP3     OH2      OT      -0.834000       15.9994           0   0.00000       0.00000    
     40608 TIP3     5231     TIP3     H1       HT       0.417000       1.00800           0   0.00000       0.00000    
     40609 TIP3     5231     TIP3     H2       HT       0.417000       1.00800           0   0.00000     -0.301140E-02
     40610 TIP3     5232     TIP3     OH2      OT      -0.834000       15.9994           0   0.00000       0.00000    
     40611 TIP3     5232     TIP3     H1       HT       0.417000       1.00800           0   0.00000       0.00000    
     40612 TIP3     5232     TIP3     H2       HT       0.417000       1.00800           0   0.00000     -0.301140E-02
     40613 TIP3     5233     TIP3     OH2      OT      -0.834000       15.9994           0   0.00000       0.00000    
     40614 TIP3     5233     TIP3     H1       HT       0.417000       1.00800           0   0.00000       0.00000    
     40615 TIP3     5233     TIP3     H2       HT       0.417000       1.00800           0   0.00000     -0.301140E-02
     40616 TIP3     5234     TIP3     OH2      OT      -0.834000       15.9994           0   0.00000       0.00000    
     40617 TIP3     5234     TIP3     H1       HT       0.417000       1.00800           0   0.00000       0.00000    
     40618 TIP3     5234     TIP3     H2       HT       0.417000       1.00800           0   0.00000     -0.301140E-02
     40619 TIP3     5235     TIP3     OH2      OT      -0.834000       15.9994           0   0.00000       0.00000    
     40620 TIP3     5235     TIP3     H1       HT       0.417000       1.00800           0   0.00000       0.00000    
     40621 TIP3     5235     TIP3     H2       HT       0.417000       1.00800           0   0.00000     -0.301140E-02
     40622 TIP3     5236     TIP3     OH2      OT      -0.834000       15.9994           0   0.00000       0.00000    
     40623 TIP3     5236     TIP3     H1       HT       0.417000       1.00800           0   0.00000       0.00000    
     40624 TIP3     5236     TIP3     H2       HT       0.417000       1.00800           0   0.00000     -0.301140E-02
     40625 TIP3     5237     TIP3     OH2      OT      -0.834000       15.9994           0   0.00000       0.00000    
     40626 TIP3     5237     TIP3     H1       HT       0.417000       1.00800           0   0.00000       0.00000    
     40627 TIP3     5237     TIP3     H2       HT       0.417000       1.00800           0   0.00000     -0.301140E-02
     40628 TIP3     5238     TIP3     OH2      OT      -0.834000       15.9994           0   0.00000       0.00000    
     40629 TIP3     5238     TIP3     H1       HT       0.417000       1.00800           0   0.00000       0.00000    
     40630 TIP3     5238     TIP3     H2       HT       0.417000       1.00800           0   0.00000     -0.301140E-02
     40631 TIP3     5239     TIP3     OH2      OT      -0.834000       15.9994           0   0.00000       0.00000    
     40632 TIP3     5239     TIP3     H1       HT       0.417000       1.00800           0   0.00000       0.00000    
     40633 TIP3     5239     TIP3     H2       HT       0.417000       1.00800           0   0.00000     -0.301140E-02
     40634 TIP3     5240     TIP3     OH2      OT      -0.834000       15.9994           0   0.00000       0.00000    
     40635 TIP3     5240     TIP3     H1       HT       0.417000       1.00800           0   0.00000       0.00000    
     40636 TIP3     5240     TIP3     H2       HT       0.417000       1.00800           0   0.00000     -0.301140E-02
     40637 TIP3     5241     TIP3     OH2      OT      -0.834000       15.9994           0   0.00000       0.00000    
     40638 TIP3     5241     TIP3     H1       HT       0.417000       1.00800           0   0.00000       0.00000    
     40639 TIP3     5241     TIP3     H2       HT       0.417000       1.00800           0   0.00000     -0.301140E-02
     40640 TIP3     5242     TIP3     OH2      OT      -0.834000       15.9994           0   0.00000       0.00000    
     40641 TIP3     5242     TIP3     H1       HT       0.417000       1.00800           0   0.00000       0.00000    
     40642 TIP3     5242     TIP3     H2       HT       0.417000       1.00800           0   0.00000     -0.301140E-02
     40643 TIP3     5243     TIP3     OH2      OT      -0.834000       15.9994           0   0.00000       0.00000    
     40644 TIP3     5243     TIP3     H1       HT       0.417000       1.00800           0   0.00000       0.00000    
     40645 TIP3     5243     TIP3     H2       HT       0.417000       1.00800           0   0.00000     -0.301140E-02
     40646 TIP3     5244     TIP3     OH2      OT      -0.834000       15.9994           0   0.00000       0.00000    
     40647 TIP3     5244     TIP3     H1       HT       0.417000       1.00800           0   0.00000       0.00000    
     40648 TIP3     5244     TIP3     H2       HT       0.417000       1.00800           0   0.00000     -0.301140E-02
     40649 TIP3     5245     TIP3     OH2      OT      -0.834000       15.9994           0   0.00000       0.00000    
     40650 TIP3     5245     TIP3     H1       HT       0.417000       1.00800           0   0.00000       0.00000    
     40651 TIP3     5245     TIP3     H2       HT       0.417000       1.00800           0   0.00000     -0.301140E-02
     40652 TIP3     5246     TIP3     OH2      OT      -0.834000       15.9994           0   0.00000       0.00000    
     40653 TIP3     5246     TIP3     H1       HT       0.417000       1.00800           0   0.00000       0.00000    
     40654 TIP3     5246     TIP3     H2       HT       0.417000       1.00800           0   0.00000     -0.301140E-02
     40655 TIP3     5247     TIP3     OH2      OT      -0.834000       15.9994           0   0.00000       0.00000    
     40656 TIP3     5247     TIP3     H1       HT       0.417000       1.00800           0   0.00000       0.00000    
     40657 TIP3     5247     TIP3     H2       HT       0.417000       1.00800           0   0.00000     -0.301140E-02
     40658 TIP3     5248     TIP3     OH2      OT      -0.834000       15.9994           0   0.00000       0.00000    
     40659 TIP3     5248     TIP3     H1       HT       0.417000       1.00800           0   0.00000       0.00000    
     40660 TIP3     5248     TIP3     H2       HT       0.417000       1.00800           0   0.00000     -0.301140E-02
     40661 TIP3     5249     TIP3     OH2      OT      -0.834000       15.9994           0   0.00000       0.00000    
     40662 TIP3     5249     TIP3     H1       HT       0.417000       1.00800           0   0.00000       0.00000    
     40663 TIP3     5249     TIP3     H2       HT       0.417000       1.00800           0   0.00000     -0.301140E-02
     40664 TIP3     5250     TIP3     OH2      OT      -0.834000       15.9994           0   0.00000       0.00000    
     40665 TIP3     5250     TIP3     H1       HT       0.417000       1.00800           0   0.00000       0.00000    
     40666 TIP3     5250     TIP3     H2       HT       0.417000       1.00800           0   0.00000     -0.301140E-02
     40667 TIP3     5251     TIP3     OH2      OT      -0.834000       15.9994           0   0.00000       0.00000    
     40668 TIP3     5251     TIP3     H1       HT       0.417000       1.00800           0   0.00000       0.00000    
     40669 TIP3     5251     TIP3     H2       HT       0.417000       1.00800           0   0.00000     -0.301140E-02
     40670 TIP3     5252     TIP3     OH2      OT      -0.834000       15.9994           0   0.00000       0.00000    
     40671 TIP3     5252     TIP3     H1       HT       0.417000       1.00800           0   0.00000       0.00000    
     40672 TIP3     5252     TIP3     H2       HT       0.417000       1.00800           0   0.00000     -0.301140E-02
     40673 TIP3     5253     TIP3     OH2      OT      -0.834000       15.9994           0   0.00000       0.00000    
     40674 TIP3     5253     TIP3     H1       HT       0.417000       1.00800           0   0.00000       0.00000    
     40675 TIP3     5253     TIP3     H2       HT       0.417000       1.00800           0   0.00000     -0.301140E-02
     40676 TIP3     5254     TIP3     OH2      OT      -0.834000       15.9994           0   0.00000       0.00000    
     40677 TIP3     5254     TIP3     H1       HT       0.417000       1.00800           0   0.00000       0.00000    
     40678 TIP3     5254     TIP3     H2       HT       0.417000       1.00800           0   0.00000     -0.301140E-02
     40679 TIP3     5255     TIP3     OH2      OT      -0.834000       15.9994           0   0.00000       0.00000    
     40680 TIP3     5255     TIP3     H1       HT       0.417000       1.00800           0   0.00000       0.00000    
     40681 TIP3     5255     TIP3     H2       HT       0.417000       1.00800           0   0.00000     -0.301140E-02
     40682 TIP3     5256     TIP3     OH2      OT      -0.834000       15.9994           0   0.00000       0.00000    
     40683 TIP3     5256     TIP3     H1       HT       0.417000       1.00800           0   0.00000       0.00000    
     40684 TIP3     5256     TIP3     H2       HT       0.417000       1.00800           0   0.00000     -0.301140E-02
     40685 TIP3     5257     TIP3     OH2      OT      -0.834000       15.9994           0   0.00000       0.00000    
     40686 TIP3     5257     TIP3     H1       HT       0.417000       1.00800           0   0.00000       0.00000    
     40687 TIP3     5257     TIP3     H2       HT       0.417000       1.00800           0   0.00000     -0.301140E-02
     40688 TIP3     5258     TIP3     OH2      OT      -0.834000       15.9994           0   0.00000       0.00000    
     40689 TIP3     5258     TIP3     H1       HT       0.417000       1.00800           0   0.00000       0.00000    
     40690 TIP3     5258     TIP3     H2       HT       0.417000       1.00800           0   0.00000     -0.301140E-02
     40691 TIP3     5259     TIP3     OH2      OT      -0.834000       15.9994           0   0.00000       0.00000    
     40692 TIP3     5259     TIP3     H1       HT       0.417000       1.00800           0   0.00000       0.00000    
     40693 TIP3     5259     TIP3     H2       HT       0.417000       1.00800           0   0.00000     -0.301140E-02
     40694 TIP3     5260     TIP3     OH2      OT      -0.834000       15.9994           0   0.00000       0.00000    
     40695 TIP3     5260     TIP3     H1       HT       0.417000       1.00800           0   0.00000       0.00000    
     40696 TIP3     5260     TIP3     H2       HT       0.417000       1.00800           0   0.00000     -0.301140E-02
     40697 TIP3     5261     TIP3     OH2      OT      -0.834000       15.9994           0   0.00000       0.00000    
     40698 TIP3     5261     TIP3     H1       HT       0.417000       1.00800           0   0.00000       0.00000    
     40699 TIP3     5261     TIP3     H2       HT       0.417000       1.00800           0   0.00000     -0.301140E-02
     40700 TIP3     5262     TIP3     OH2      OT      -0.834000       15.9994           0   0.00000       0.00000    
     40701 TIP3     5262     TIP3     H1       HT       0.417000       1.00800           0   0.00000       0.00000    
     40702 TIP3     5262     TIP3     H2       HT       0.417000       1.00800           0   0.00000     -0.301140E-02
     40703 TIP3     5263     TIP3     OH2      OT      -0.834000       15.9994           0   0.00000       0.00000    
     40704 TIP3     5263     TIP3     H1       HT       0.417000       1.00800           0   0.00000       0.00000    
     40705 TIP3     5263     TIP3     H2       HT       0.417000       1.00800           0   0.00000     -0.301140E-02
     40706 TIP3     5264     TIP3     OH2      OT      -0.834000       15.9994           0   0.00000       0.00000    
     40707 TIP3     5264     TIP3     H1       HT       0.417000       1.00800           0   0.00000       0.00000    
     40708 TIP3     5264     TIP3     H2       HT       0.417000       1.00800           0   0.00000     -0.301140E-02
     40709 TIP3     5265     TIP3     OH2      OT      -0.834000       15.9994           0   0.00000       0.00000    
     40710 TIP3     5265     TIP3     H1       HT       0.417000       1.00800           0   0.00000       0.00000    
     40711 TIP3     5265     TIP3     H2       HT       0.417000       1.00800           0   0.00000     -0.301140E-02
     40712 TIP3     5266     TIP3     OH2      OT      -0.834000       15.9994           0   0.00000       0.00000    
     40713 TIP3     5266     TIP3     H1       HT       0.417000       1.00800           0   0.00000       0.00000    
     40714 TIP3     5266     TIP3     H2       HT       0.417000       1.00800           0   0.00000     -0.301140E-02
     40715 TIP3     5267     TIP3     OH2      OT      -0.834000       15.9994           0   0.00000       0.00000    
     40716 TIP3     5267     TIP3     H1       HT       0.417000       1.00800           0   0.00000       0.00000    
     40717 TIP3     5267     TIP3     H2       HT       0.417000       1.00800           0   0.00000     -0.301140E-02
     40718 TIP3     5268     TIP3     OH2      OT      -0.834000       15.9994           0   0.00000       0.00000    
     40719 TIP3     5268     TIP3     H1       HT       0.417000       1.00800           0   0.00000       0.00000    
     40720 TIP3     5268     TIP3     H2       HT       0.417000       1.00800           0   0.00000     -0.301140E-02
     40721 TIP3     5269     TIP3     OH2      OT      -0.834000       15.9994           0   0.00000       0.00000    
     40722 TIP3     5269     TIP3     H1       HT       0.417000       1.00800           0   0.00000       0.00000    
     40723 TIP3     5269     TIP3     H2       HT       0.417000       1.00800           0   0.00000     -0.301140E-02
     40724 TIP3     5270     TIP3     OH2      OT      -0.834000       15.9994           0   0.00000       0.00000    
     40725 TIP3     5270     TIP3     H1       HT       0.417000       1.00800           0   0.00000       0.00000    
     40726 TIP3     5270     TIP3     H2       HT       0.417000       1.00800           0   0.00000     -0.301140E-02
     40727 TIP3     5271     TIP3     OH2      OT      -0.834000       15.9994           0   0.00000       0.00000    
     40728 TIP3     5271     TIP3     H1       HT       0.417000       1.00800           0   0.00000       0.00000    
     40729 TIP3     5271     TIP3     H2       HT       0.417000       1.00800           0   0.00000     -0.301140E-02
     40730 TIP3     5272     TIP3     OH2      OT      -0.834000       15.9994           0   0.00000       0.00000    
     40731 TIP3     5272     TIP3     H1       HT       0.417000       1.00800           0   0.00000       0.00000    
     40732 TIP3     5272     TIP3     H2       HT       0.417000       1.00800           0   0.00000     -0.301140E-02
     40733 TIP3     5273     TIP3     OH2      OT      -0.834000       15.9994           0   0.00000       0.00000    
     40734 TIP3     5273     TIP3     H1       HT       0.417000       1.00800           0   0.00000       0.00000    
     40735 TIP3     5273     TIP3     H2       HT       0.417000       1.00800           0   0.00000     -0.301140E-02
     40736 TIP3     5274     TIP3     OH2      OT      -0.834000       15.9994           0   0.00000       0.00000    
     40737 TIP3     5274     TIP3     H1       HT       0.417000       1.00800           0   0.00000       0.00000    
     40738 TIP3     5274     TIP3     H2       HT       0.417000       1.00800           0   0.00000     -0.301140E-02
     40739 TIP3     5275     TIP3     OH2      OT      -0.834000       15.9994           0   0.00000       0.00000    
     40740 TIP3     5275     TIP3     H1       HT       0.417000       1.00800           0   0.00000       0.00000    
     40741 TIP3     5275     TIP3     H2       HT       0.417000       1.00800           0   0.00000     -0.301140E-02
     40742 TIP3     5276     TIP3     OH2      OT      -0.834000       15.9994           0   0.00000       0.00000    
     40743 TIP3     5276     TIP3     H1       HT       0.417000       1.00800           0   0.00000       0.00000    
     40744 TIP3     5276     TIP3     H2       HT       0.417000       1.00800           0   0.00000     -0.301140E-02
     40745 TIP3     5277     TIP3     OH2      OT      -0.834000       15.9994           0   0.00000       0.00000    
     40746 TIP3     5277     TIP3     H1       HT       0.417000       1.00800           0   0.00000       0.00000    
     40747 TIP3     5277     TIP3     H2       HT       0.417000       1.00800           0   0.00000     -0.301140E-02
     40748 TIP3     5278     TIP3     OH2      OT      -0.834000       15.9994           0   0.00000       0.00000    
     40749 TIP3     5278     TIP3     H1       HT       0.417000       1.00800           0   0.00000       0.00000    
     40750 TIP3     5278     TIP3     H2       HT       0.417000       1.00800           0   0.00000     -0.301140E-02
     40751 TIP3     5279     TIP3     OH2      OT      -0.834000       15.9994           0   0.00000       0.00000    
     40752 TIP3     5279     TIP3     H1       HT       0.417000       1.00800           0   0.00000       0.00000    
     40753 TIP3     5279     TIP3     H2       HT       0.417000       1.00800           0   0.00000     -0.301140E-02
     40754 TIP3     5280     TIP3     OH2      OT      -0.834000       15.9994           0   0.00000       0.00000    
     40755 TIP3     5280     TIP3     H1       HT       0.417000       1.00800           0   0.00000       0.00000    
     40756 TIP3     5280     TIP3     H2       HT       0.417000       1.00800           0   0.00000     -0.301140E-02
     40757 TIP3     5281     TIP3     OH2      OT      -0.834000       15.9994           0   0.00000       0.00000    
     40758 TIP3     5281     TIP3     H1       HT       0.417000       1.00800           0   0.00000       0.00000    
     40759 TIP3     5281     TIP3     H2       HT       0.417000       1.00800           0   0.00000     -0.301140E-02
     40760 TIP3     5282     TIP3     OH2      OT      -0.834000       15.9994           0   0.00000       0.00000    
     40761 TIP3     5282     TIP3     H1       HT       0.417000       1.00800           0   0.00000       0.00000    
     40762 TIP3     5282     TIP3     H2       HT       0.417000       1.00800           0   0.00000     -0.301140E-02
     40763 TIP3     5283     TIP3     OH2      OT      -0.834000       15.9994           0   0.00000       0.00000    
     40764 TIP3     5283     TIP3     H1       HT       0.417000       1.00800           0   0.00000       0.00000    
     40765 TIP3     5283     TIP3     H2       HT       0.417000       1.00800           0   0.00000     -0.301140E-02
     40766 TIP3     5284     TIP3     OH2      OT      -0.834000       15.9994           0   0.00000       0.00000    
     40767 TIP3     5284     TIP3     H1       HT       0.417000       1.00800           0   0.00000       0.00000    
     40768 TIP3     5284     TIP3     H2       HT       0.417000       1.00800           0   0.00000     -0.301140E-02
     40769 TIP3     5285     TIP3     OH2      OT      -0.834000       15.9994           0   0.00000       0.00000    
     40770 TIP3     5285     TIP3     H1       HT       0.417000       1.00800           0   0.00000       0.00000    
     40771 TIP3     5285     TIP3     H2       HT       0.417000       1.00800           0   0.00000     -0.301140E-02
     40772 TIP3     5286     TIP3     OH2      OT      -0.834000       15.9994           0   0.00000       0.00000    
     40773 TIP3     5286     TIP3     H1       HT       0.417000       1.00800           0   0.00000       0.00000    
     40774 TIP3     5286     TIP3     H2       HT       0.417000       1.00800           0   0.00000     -0.301140E-02
     40775 TIP3     5287     TIP3     OH2      OT      -0.834000       15.9994           0   0.00000       0.00000    
     40776 TIP3     5287     TIP3     H1       HT       0.417000       1.00800           0   0.00000       0.00000    
     40777 TIP3     5287     TIP3     H2       HT       0.417000       1.00800           0   0.00000     -0.301140E-02
     40778 TIP3     5288     TIP3     OH2      OT      -0.834000       15.9994           0   0.00000       0.00000    
     40779 TIP3     5288     TIP3     H1       HT       0.417000       1.00800           0   0.00000       0.00000    
     40780 TIP3     5288     TIP3     H2       HT       0.417000       1.00800           0   0.00000     -0.301140E-02
     40781 TIP3     5289     TIP3     OH2      OT      -0.834000       15.9994           0   0.00000       0.00000    
     40782 TIP3     5289     TIP3     H1       HT       0.417000       1.00800           0   0.00000       0.00000    
     40783 TIP3     5289     TIP3     H2       HT       0.417000       1.00800           0   0.00000     -0.301140E-02
     40784 TIP3     5290     TIP3     OH2      OT      -0.834000       15.9994           0   0.00000       0.00000    
     40785 TIP3     5290     TIP3     H1       HT       0.417000       1.00800           0   0.00000       0.00000    
     40786 TIP3     5290     TIP3     H2       HT       0.417000       1.00800           0   0.00000     -0.301140E-02
     40787 TIP3     5291     TIP3     OH2      OT      -0.834000       15.9994           0   0.00000       0.00000    
     40788 TIP3     5291     TIP3     H1       HT       0.417000       1.00800           0   0.00000       0.00000    
     40789 TIP3     5291     TIP3     H2       HT       0.417000       1.00800           0   0.00000     -0.301140E-02
     40790 TIP3     5292     TIP3     OH2      OT      -0.834000       15.9994           0   0.00000       0.00000    
     40791 TIP3     5292     TIP3     H1       HT       0.417000       1.00800           0   0.00000       0.00000    
     40792 TIP3     5292     TIP3     H2       HT       0.417000       1.00800           0   0.00000     -0.301140E-02
     40793 TIP3     5293     TIP3     OH2      OT      -0.834000       15.9994           0   0.00000       0.00000    
     40794 TIP3     5293     TIP3     H1       HT       0.417000       1.00800           0   0.00000       0.00000    
     40795 TIP3     5293     TIP3     H2       HT       0.417000       1.00800           0   0.00000     -0.301140E-02
     40796 TIP3     5294     TIP3     OH2      OT      -0.834000       15.9994           0   0.00000       0.00000    
     40797 TIP3     5294     TIP3     H1       HT       0.417000       1.00800           0   0.00000       0.00000    
     40798 TIP3     5294     TIP3     H2       HT       0.417000       1.00800           0   0.00000     -0.301140E-02
     40799 TIP3     5295     TIP3     OH2      OT      -0.834000       15.9994           0   0.00000       0.00000    
     40800 TIP3     5295     TIP3     H1       HT       0.417000       1.00800           0   0.00000       0.00000    
     40801 TIP3     5295     TIP3     H2       HT       0.417000       1.00800           0   0.00000     -0.301140E-02
     40802 TIP3     5296     TIP3     OH2      OT      -0.834000       15.9994           0   0.00000       0.00000    
     40803 TIP3     5296     TIP3     H1       HT       0.417000       1.00800           0   0.00000       0.00000    
     40804 TIP3     5296     TIP3     H2       HT       0.417000       1.00800           0   0.00000     -0.301140E-02
     40805 TIP3     5297     TIP3     OH2      OT      -0.834000       15.9994           0   0.00000       0.00000    
     40806 TIP3     5297     TIP3     H1       HT       0.417000       1.00800           0   0.00000       0.00000    
     40807 TIP3     5297     TIP3     H2       HT       0.417000       1.00800           0   0.00000     -0.301140E-02
     40808 TIP3     5298     TIP3     OH2      OT      -0.834000       15.9994           0   0.00000       0.00000    
     40809 TIP3     5298     TIP3     H1       HT       0.417000       1.00800           0   0.00000       0.00000    
     40810 TIP3     5298     TIP3     H2       HT       0.417000       1.00800           0   0.00000     -0.301140E-02
     40811 TIP3     5299     TIP3     OH2      OT      -0.834000       15.9994           0   0.00000       0.00000    
     40812 TIP3     5299     TIP3     H1       HT       0.417000       1.00800           0   0.00000       0.00000    
     40813 TIP3     5299     TIP3     H2       HT       0.417000       1.00800           0   0.00000     -0.301140E-02
     40814 TIP3     5300     TIP3     OH2      OT      -0.834000       15.9994           0   0.00000       0.00000    
     40815 TIP3     5300     TIP3     H1       HT       0.417000       1.00800           0   0.00000       0.00000    
     40816 TIP3     5300     TIP3     H2       HT       0.417000       1.00800           0   0.00000     -0.301140E-02
     40817 TIP3     5301     TIP3     OH2      OT      -0.834000       15.9994           0   0.00000       0.00000    
     40818 TIP3     5301     TIP3     H1       HT       0.417000       1.00800           0   0.00000       0.00000    
     40819 TIP3     5301     TIP3     H2       HT       0.417000       1.00800           0   0.00000     -0.301140E-02
     40820 TIP3     5302     TIP3     OH2      OT      -0.834000       15.9994           0   0.00000       0.00000    
     40821 TIP3     5302     TIP3     H1       HT       0.417000       1.00800           0   0.00000       0.00000    
     40822 TIP3     5302     TIP3     H2       HT       0.417000       1.00800           0   0.00000     -0.301140E-02
     40823 TIP3     5303     TIP3     OH2      OT      -0.834000       15.9994           0   0.00000       0.00000    
     40824 TIP3     5303     TIP3     H1       HT       0.417000       1.00800           0   0.00000       0.00000    
     40825 TIP3     5303     TIP3     H2       HT       0.417000       1.00800           0   0.00000     -0.301140E-02
     40826 TIP3     5304     TIP3     OH2      OT      -0.834000       15.9994           0   0.00000       0.00000    
     40827 TIP3     5304     TIP3     H1       HT       0.417000       1.00800           0   0.00000       0.00000    
     40828 TIP3     5304     TIP3     H2       HT       0.417000       1.00800           0   0.00000     -0.301140E-02
     40829 TIP3     5305     TIP3     OH2      OT      -0.834000       15.9994           0   0.00000       0.00000    
     40830 TIP3     5305     TIP3     H1       HT       0.417000       1.00800           0   0.00000       0.00000    
     40831 TIP3     5305     TIP3     H2       HT       0.417000       1.00800           0   0.00000     -0.301140E-02
     40832 TIP3     5306     TIP3     OH2      OT      -0.834000       15.9994           0   0.00000       0.00000    
     40833 TIP3     5306     TIP3     H1       HT       0.417000       1.00800           0   0.00000       0.00000    
     40834 TIP3     5306     TIP3     H2       HT       0.417000       1.00800           0   0.00000     -0.301140E-02
     40835 TIP3     5307     TIP3     OH2      OT      -0.834000       15.9994           0   0.00000       0.00000    
     40836 TIP3     5307     TIP3     H1       HT       0.417000       1.00800           0   0.00000       0.00000    
     40837 TIP3     5307     TIP3     H2       HT       0.417000       1.00800           0   0.00000     -0.301140E-02
     40838 TIP3     5308     TIP3     OH2      OT      -0.834000       15.9994           0   0.00000       0.00000    
     40839 TIP3     5308     TIP3     H1       HT       0.417000       1.00800           0   0.00000       0.00000    
     40840 TIP3     5308     TIP3     H2       HT       0.417000       1.00800           0   0.00000     -0.301140E-02
     40841 TIP3     5309     TIP3     OH2      OT      -0.834000       15.9994           0   0.00000       0.00000    
     40842 TIP3     5309     TIP3     H1       HT       0.417000       1.00800           0   0.00000       0.00000    
     40843 TIP3     5309     TIP3     H2       HT       0.417000       1.00800           0   0.00000     -0.301140E-02
     40844 TIP3     5310     TIP3     OH2      OT      -0.834000       15.9994           0   0.00000       0.00000    
     40845 TIP3     5310     TIP3     H1       HT       0.417000       1.00800           0   0.00000       0.00000    
     40846 TIP3     5310     TIP3     H2       HT       0.417000       1.00800           0   0.00000     -0.301140E-02
     40847 TIP3     5311     TIP3     OH2      OT      -0.834000       15.9994           0   0.00000       0.00000    
     40848 TIP3     5311     TIP3     H1       HT       0.417000       1.00800           0   0.00000       0.00000    
     40849 TIP3     5311     TIP3     H2       HT       0.417000       1.00800           0   0.00000     -0.301140E-02
     40850 TIP3     5312     TIP3     OH2      OT      -0.834000       15.9994           0   0.00000       0.00000    
     40851 TIP3     5312     TIP3     H1       HT       0.417000       1.00800           0   0.00000       0.00000    
     40852 TIP3     5312     TIP3     H2       HT       0.417000       1.00800           0   0.00000     -0.301140E-02
     40853 TIP3     5313     TIP3     OH2      OT      -0.834000       15.9994           0   0.00000       0.00000    
     40854 TIP3     5313     TIP3     H1       HT       0.417000       1.00800           0   0.00000       0.00000    
     40855 TIP3     5313     TIP3     H2       HT       0.417000       1.00800           0   0.00000     -0.301140E-02
     40856 TIP3     5314     TIP3     OH2      OT      -0.834000       15.9994           0   0.00000       0.00000    
     40857 TIP3     5314     TIP3     H1       HT       0.417000       1.00800           0   0.00000       0.00000    
     40858 TIP3     5314     TIP3     H2       HT       0.417000       1.00800           0   0.00000     -0.301140E-02
     40859 TIP3     5315     TIP3     OH2      OT      -0.834000       15.9994           0   0.00000       0.00000    
     40860 TIP3     5315     TIP3     H1       HT       0.417000       1.00800           0   0.00000       0.00000    
     40861 TIP3     5315     TIP3     H2       HT       0.417000       1.00800           0   0.00000     -0.301140E-02
     40862 TIP3     5316     TIP3     OH2      OT      -0.834000       15.9994           0   0.00000       0.00000    
     40863 TIP3     5316     TIP3     H1       HT       0.417000       1.00800           0   0.00000       0.00000    
     40864 TIP3     5316     TIP3     H2       HT       0.417000       1.00800           0   0.00000     -0.301140E-02
     40865 TIP3     5317     TIP3     OH2      OT      -0.834000       15.9994           0   0.00000       0.00000    
     40866 TIP3     5317     TIP3     H1       HT       0.417000       1.00800           0   0.00000       0.00000    
     40867 TIP3     5317     TIP3     H2       HT       0.417000       1.00800           0   0.00000     -0.301140E-02
     40868 TIP3     5318     TIP3     OH2      OT      -0.834000       15.9994           0   0.00000       0.00000    
     40869 TIP3     5318     TIP3     H1       HT       0.417000       1.00800           0   0.00000       0.00000    
     40870 TIP3     5318     TIP3     H2       HT       0.417000       1.00800           0   0.00000     -0.301140E-02
     40871 TIP3     5319     TIP3     OH2      OT      -0.834000       15.9994           0   0.00000       0.00000    
     40872 TIP3     5319     TIP3     H1       HT       0.417000       1.00800           0   0.00000       0.00000    
     40873 TIP3     5319     TIP3     H2       HT       0.417000       1.00800           0   0.00000     -0.301140E-02
     40874 TIP3     5320     TIP3     OH2      OT      -0.834000       15.9994           0   0.00000       0.00000    
     40875 TIP3     5320     TIP3     H1       HT       0.417000       1.00800           0   0.00000       0.00000    
     40876 TIP3     5320     TIP3     H2       HT       0.417000       1.00800           0   0.00000     -0.301140E-02
     40877 TIP3     5321     TIP3     OH2      OT      -0.834000       15.9994           0   0.00000       0.00000    
     40878 TIP3     5321     TIP3     H1       HT       0.417000       1.00800           0   0.00000       0.00000    
     40879 TIP3     5321     TIP3     H2       HT       0.417000       1.00800           0   0.00000     -0.301140E-02
     40880 TIP3     5322     TIP3     OH2      OT      -0.834000       15.9994           0   0.00000       0.00000    
     40881 TIP3     5322     TIP3     H1       HT       0.417000       1.00800           0   0.00000       0.00000    
     40882 TIP3     5322     TIP3     H2       HT       0.417000       1.00800           0   0.00000     -0.301140E-02
     40883 TIP3     5323     TIP3     OH2      OT      -0.834000       15.9994           0   0.00000       0.00000    
     40884 TIP3     5323     TIP3     H1       HT       0.417000       1.00800           0   0.00000       0.00000    
     40885 TIP3     5323     TIP3     H2       HT       0.417000       1.00800           0   0.00000     -0.301140E-02
     40886 TIP3     5324     TIP3     OH2      OT      -0.834000       15.9994           0   0.00000       0.00000    
     40887 TIP3     5324     TIP3     H1       HT       0.417000       1.00800           0   0.00000       0.00000    
     40888 TIP3     5324     TIP3     H2       HT       0.417000       1.00800           0   0.00000     -0.301140E-02
     40889 TIP3     5325     TIP3     OH2      OT      -0.834000       15.9994           0   0.00000       0.00000    
     40890 TIP3     5325     TIP3     H1       HT       0.417000       1.00800           0   0.00000       0.00000    
     40891 TIP3     5325     TIP3     H2       HT       0.417000       1.00800           0   0.00000     -0.301140E-02
     40892 TIP3     5326     TIP3     OH2      OT      -0.834000       15.9994           0   0.00000       0.00000    
     40893 TIP3     5326     TIP3     H1       HT       0.417000       1.00800           0   0.00000       0.00000    
     40894 TIP3     5326     TIP3     H2       HT       0.417000       1.00800           0   0.00000     -0.301140E-02
     40895 TIP3     5327     TIP3     OH2      OT      -0.834000       15.9994           0   0.00000       0.00000    
     40896 TIP3     5327     TIP3     H1       HT       0.417000       1.00800           0   0.00000       0.00000    
     40897 TIP3     5327     TIP3     H2       HT       0.417000       1.00800           0   0.00000     -0.301140E-02
     40898 TIP3     5328     TIP3     OH2      OT      -0.834000       15.9994           0   0.00000       0.00000    
     40899 TIP3     5328     TIP3     H1       HT       0.417000       1.00800           0   0.00000       0.00000    
     40900 TIP3     5328     TIP3     H2       HT       0.417000       1.00800           0   0.00000     -0.301140E-02
     40901 TIP3     5329     TIP3     OH2      OT      -0.834000       15.9994           0   0.00000       0.00000    
     40902 TIP3     5329     TIP3     H1       HT       0.417000       1.00800           0   0.00000       0.00000    
     40903 TIP3     5329     TIP3     H2       HT       0.417000       1.00800           0   0.00000     -0.301140E-02
     40904 TIP3     5330     TIP3     OH2      OT      -0.834000       15.9994           0   0.00000       0.00000    
     40905 TIP3     5330     TIP3     H1       HT       0.417000       1.00800           0   0.00000       0.00000    
     40906 TIP3     5330     TIP3     H2       HT       0.417000       1.00800           0   0.00000     -0.301140E-02
     40907 TIP3     5331     TIP3     OH2      OT      -0.834000       15.9994           0   0.00000       0.00000    
     40908 TIP3     5331     TIP3     H1       HT       0.417000       1.00800           0   0.00000       0.00000    
     40909 TIP3     5331     TIP3     H2       HT       0.417000       1.00800           0   0.00000     -0.301140E-02
     40910 TIP3     5332     TIP3     OH2      OT      -0.834000       15.9994           0   0.00000       0.00000    
     40911 TIP3     5332     TIP3     H1       HT       0.417000       1.00800           0   0.00000       0.00000    
     40912 TIP3     5332     TIP3     H2       HT       0.417000       1.00800           0   0.00000     -0.301140E-02
     40913 TIP3     5333     TIP3     OH2      OT      -0.834000       15.9994           0   0.00000       0.00000    
     40914 TIP3     5333     TIP3     H1       HT       0.417000       1.00800           0   0.00000       0.00000    
     40915 TIP3     5333     TIP3     H2       HT       0.417000       1.00800           0   0.00000     -0.301140E-02
     40916 TIP3     5334     TIP3     OH2      OT      -0.834000       15.9994           0   0.00000       0.00000    
     40917 TIP3     5334     TIP3     H1       HT       0.417000       1.00800           0   0.00000       0.00000    
     40918 TIP3     5334     TIP3     H2       HT       0.417000       1.00800           0   0.00000     -0.301140E-02
     40919 TIP3     5335     TIP3     OH2      OT      -0.834000       15.9994           0   0.00000       0.00000    
     40920 TIP3     5335     TIP3     H1       HT       0.417000       1.00800           0   0.00000       0.00000    
     40921 TIP3     5335     TIP3     H2       HT       0.417000       1.00800           0   0.00000     -0.301140E-02
     40922 TIP3     5336     TIP3     OH2      OT      -0.834000       15.9994           0   0.00000       0.00000    
     40923 TIP3     5336     TIP3     H1       HT       0.417000       1.00800           0   0.00000       0.00000    
     40924 TIP3     5336     TIP3     H2       HT       0.417000       1.00800           0   0.00000     -0.301140E-02
     40925 TIP3     5337     TIP3     OH2      OT      -0.834000       15.9994           0   0.00000       0.00000    
     40926 TIP3     5337     TIP3     H1       HT       0.417000       1.00800           0   0.00000       0.00000    
     40927 TIP3     5337     TIP3     H2       HT       0.417000       1.00800           0   0.00000     -0.301140E-02
     40928 TIP3     5338     TIP3     OH2      OT      -0.834000       15.9994           0   0.00000       0.00000    
     40929 TIP3     5338     TIP3     H1       HT       0.417000       1.00800           0   0.00000       0.00000    
     40930 TIP3     5338     TIP3     H2       HT       0.417000       1.00800           0   0.00000     -0.301140E-02
     40931 TIP3     5339     TIP3     OH2      OT      -0.834000       15.9994           0   0.00000       0.00000    
     40932 TIP3     5339     TIP3     H1       HT       0.417000       1.00800           0   0.00000       0.00000    
     40933 TIP3     5339     TIP3     H2       HT       0.417000       1.00800           0   0.00000     -0.301140E-02
     40934 TIP3     5340     TIP3     OH2      OT      -0.834000       15.9994           0   0.00000       0.00000    
     40935 TIP3     5340     TIP3     H1       HT       0.417000       1.00800           0   0.00000       0.00000    
     40936 TIP3     5340     TIP3     H2       HT       0.417000       1.00800           0   0.00000     -0.301140E-02
     40937 TIP3     5341     TIP3     OH2      OT      -0.834000       15.9994           0   0.00000       0.00000    
     40938 TIP3     5341     TIP3     H1       HT       0.417000       1.00800           0   0.00000       0.00000    
     40939 TIP3     5341     TIP3     H2       HT       0.417000       1.00800           0   0.00000     -0.301140E-02
     40940 TIP3     5342     TIP3     OH2      OT      -0.834000       15.9994           0   0.00000       0.00000    
     40941 TIP3     5342     TIP3     H1       HT       0.417000       1.00800           0   0.00000       0.00000    
     40942 TIP3     5342     TIP3     H2       HT       0.417000       1.00800           0   0.00000     -0.301140E-02
     40943 TIP3     5343     TIP3     OH2      OT      -0.834000       15.9994           0   0.00000       0.00000    
     40944 TIP3     5343     TIP3     H1       HT       0.417000       1.00800           0   0.00000       0.00000    
     40945 TIP3     5343     TIP3     H2       HT       0.417000       1.00800           0   0.00000     -0.301140E-02
     40946 TIP3     5344     TIP3     OH2      OT      -0.834000       15.9994           0   0.00000       0.00000    
     40947 TIP3     5344     TIP3     H1       HT       0.417000       1.00800           0   0.00000       0.00000    
     40948 TIP3     5344     TIP3     H2       HT       0.417000       1.00800           0   0.00000     -0.301140E-02
     40949 TIP3     5345     TIP3     OH2      OT      -0.834000       15.9994           0   0.00000       0.00000    
     40950 TIP3     5345     TIP3     H1       HT       0.417000       1.00800           0   0.00000       0.00000    
     40951 TIP3     5345     TIP3     H2       HT       0.417000       1.00800           0   0.00000     -0.301140E-02
     40952 TIP3     5346     TIP3     OH2      OT      -0.834000       15.9994           0   0.00000       0.00000    
     40953 TIP3     5346     TIP3     H1       HT       0.417000       1.00800           0   0.00000       0.00000    
     40954 TIP3     5346     TIP3     H2       HT       0.417000       1.00800           0   0.00000     -0.301140E-02
     40955 TIP3     5347     TIP3     OH2      OT      -0.834000       15.9994           0   0.00000       0.00000    
     40956 TIP3     5347     TIP3     H1       HT       0.417000       1.00800           0   0.00000       0.00000    
     40957 TIP3     5347     TIP3     H2       HT       0.417000       1.00800           0   0.00000     -0.301140E-02
     40958 TIP3     5348     TIP3     OH2      OT      -0.834000       15.9994           0   0.00000       0.00000    
     40959 TIP3     5348     TIP3     H1       HT       0.417000       1.00800           0   0.00000       0.00000    
     40960 TIP3     5348     TIP3     H2       HT       0.417000       1.00800           0   0.00000     -0.301140E-02
     40961 TIP3     5349     TIP3     OH2      OT      -0.834000       15.9994           0   0.00000       0.00000    
     40962 TIP3     5349     TIP3     H1       HT       0.417000       1.00800           0   0.00000       0.00000    
     40963 TIP3     5349     TIP3     H2       HT       0.417000       1.00800           0   0.00000     -0.301140E-02
     40964 TIP3     5350     TIP3     OH2      OT      -0.834000       15.9994           0   0.00000       0.00000    
     40965 TIP3     5350     TIP3     H1       HT       0.417000       1.00800           0   0.00000       0.00000    
     40966 TIP3     5350     TIP3     H2       HT       0.417000       1.00800           0   0.00000     -0.301140E-02
     40967 TIP3     5351     TIP3     OH2      OT      -0.834000       15.9994           0   0.00000       0.00000    
     40968 TIP3     5351     TIP3     H1       HT       0.417000       1.00800           0   0.00000       0.00000    
     40969 TIP3     5351     TIP3     H2       HT       0.417000       1.00800           0   0.00000     -0.301140E-02
     40970 TIP3     5352     TIP3     OH2      OT      -0.834000       15.9994           0   0.00000       0.00000    
     40971 TIP3     5352     TIP3     H1       HT       0.417000       1.00800           0   0.00000       0.00000    
     40972 TIP3     5352     TIP3     H2       HT       0.417000       1.00800           0   0.00000     -0.301140E-02
     40973 TIP3     5353     TIP3     OH2      OT      -0.834000       15.9994           0   0.00000       0.00000    
     40974 TIP3     5353     TIP3     H1       HT       0.417000       1.00800           0   0.00000       0.00000    
     40975 TIP3     5353     TIP3     H2       HT       0.417000       1.00800           0   0.00000     -0.301140E-02
     40976 TIP3     5354     TIP3     OH2      OT      -0.834000       15.9994           0   0.00000       0.00000    
     40977 TIP3     5354     TIP3     H1       HT       0.417000       1.00800           0   0.00000       0.00000    
     40978 TIP3     5354     TIP3     H2       HT       0.417000       1.00800           0   0.00000     -0.301140E-02
     40979 TIP3     5355     TIP3     OH2      OT      -0.834000       15.9994           0   0.00000       0.00000    
     40980 TIP3     5355     TIP3     H1       HT       0.417000       1.00800           0   0.00000       0.00000    
     40981 TIP3     5355     TIP3     H2       HT       0.417000       1.00800           0   0.00000     -0.301140E-02
     40982 TIP3     5356     TIP3     OH2      OT      -0.834000       15.9994           0   0.00000       0.00000    
     40983 TIP3     5356     TIP3     H1       HT       0.417000       1.00800           0   0.00000       0.00000    
     40984 TIP3     5356     TIP3     H2       HT       0.417000       1.00800           0   0.00000     -0.301140E-02
     40985 TIP3     5357     TIP3     OH2      OT      -0.834000       15.9994           0   0.00000       0.00000    
     40986 TIP3     5357     TIP3     H1       HT       0.417000       1.00800           0   0.00000       0.00000    
     40987 TIP3     5357     TIP3     H2       HT       0.417000       1.00800           0   0.00000     -0.301140E-02
     40988 TIP3     5358     TIP3     OH2      OT      -0.834000       15.9994           0   0.00000       0.00000    
     40989 TIP3     5358     TIP3     H1       HT       0.417000       1.00800           0   0.00000       0.00000    
     40990 TIP3     5358     TIP3     H2       HT       0.417000       1.00800           0   0.00000     -0.301140E-02
     40991 TIP3     5359     TIP3     OH2      OT      -0.834000       15.9994           0   0.00000       0.00000    
     40992 TIP3     5359     TIP3     H1       HT       0.417000       1.00800           0   0.00000       0.00000    
     40993 TIP3     5359     TIP3     H2       HT       0.417000       1.00800           0   0.00000     -0.301140E-02
     40994 TIP3     5360     TIP3     OH2      OT      -0.834000       15.9994           0   0.00000       0.00000    
     40995 TIP3     5360     TIP3     H1       HT       0.417000       1.00800           0   0.00000       0.00000    
     40996 TIP3     5360     TIP3     H2       HT       0.417000       1.00800           0   0.00000     -0.301140E-02
     40997 TIP3     5361     TIP3     OH2      OT      -0.834000       15.9994           0   0.00000       0.00000    
     40998 TIP3     5361     TIP3     H1       HT       0.417000       1.00800           0   0.00000       0.00000    
     40999 TIP3     5361     TIP3     H2       HT       0.417000       1.00800           0   0.00000     -0.301140E-02
     41000 TIP3     5362     TIP3     OH2      OT      -0.834000       15.9994           0   0.00000       0.00000    
     41001 TIP3     5362     TIP3     H1       HT       0.417000       1.00800           0   0.00000       0.00000    
     41002 TIP3     5362     TIP3     H2       HT       0.417000       1.00800           0   0.00000     -0.301140E-02
     41003 TIP3     5363     TIP3     OH2      OT      -0.834000       15.9994           0   0.00000       0.00000    
     41004 TIP3     5363     TIP3     H1       HT       0.417000       1.00800           0   0.00000       0.00000    
     41005 TIP3     5363     TIP3     H2       HT       0.417000       1.00800           0   0.00000     -0.301140E-02
     41006 TIP3     5364     TIP3     OH2      OT      -0.834000       15.9994           0   0.00000       0.00000    
     41007 TIP3     5364     TIP3     H1       HT       0.417000       1.00800           0   0.00000       0.00000    
     41008 TIP3     5364     TIP3     H2       HT       0.417000       1.00800           0   0.00000     -0.301140E-02
     41009 TIP3     5365     TIP3     OH2      OT      -0.834000       15.9994           0   0.00000       0.00000    
     41010 TIP3     5365     TIP3     H1       HT       0.417000       1.00800           0   0.00000       0.00000    
     41011 TIP3     5365     TIP3     H2       HT       0.417000       1.00800           0   0.00000     -0.301140E-02
     41012 TIP3     5366     TIP3     OH2      OT      -0.834000       15.9994           0   0.00000       0.00000    
     41013 TIP3     5366     TIP3     H1       HT       0.417000       1.00800           0   0.00000       0.00000    
     41014 TIP3     5366     TIP3     H2       HT       0.417000       1.00800           0   0.00000     -0.301140E-02
     41015 TIP3     5367     TIP3     OH2      OT      -0.834000       15.9994           0   0.00000       0.00000    
     41016 TIP3     5367     TIP3     H1       HT       0.417000       1.00800           0   0.00000       0.00000    
     41017 TIP3     5367     TIP3     H2       HT       0.417000       1.00800           0   0.00000     -0.301140E-02
     41018 TIP3     5368     TIP3     OH2      OT      -0.834000       15.9994           0   0.00000       0.00000    
     41019 TIP3     5368     TIP3     H1       HT       0.417000       1.00800           0   0.00000       0.00000    
     41020 TIP3     5368     TIP3     H2       HT       0.417000       1.00800           0   0.00000     -0.301140E-02
     41021 TIP3     5369     TIP3     OH2      OT      -0.834000       15.9994           0   0.00000       0.00000    
     41022 TIP3     5369     TIP3     H1       HT       0.417000       1.00800           0   0.00000       0.00000    
     41023 TIP3     5369     TIP3     H2       HT       0.417000       1.00800           0   0.00000     -0.301140E-02
     41024 TIP3     5370     TIP3     OH2      OT      -0.834000       15.9994           0   0.00000       0.00000    
     41025 TIP3     5370     TIP3     H1       HT       0.417000       1.00800           0   0.00000       0.00000    
     41026 TIP3     5370     TIP3     H2       HT       0.417000       1.00800           0   0.00000     -0.301140E-02
     41027 TIP3     5371     TIP3     OH2      OT      -0.834000       15.9994           0   0.00000       0.00000    
     41028 TIP3     5371     TIP3     H1       HT       0.417000       1.00800           0   0.00000       0.00000    
     41029 TIP3     5371     TIP3     H2       HT       0.417000       1.00800           0   0.00000     -0.301140E-02
     41030 TIP3     5372     TIP3     OH2      OT      -0.834000       15.9994           0   0.00000       0.00000    
     41031 TIP3     5372     TIP3     H1       HT       0.417000       1.00800           0   0.00000       0.00000    
     41032 TIP3     5372     TIP3     H2       HT       0.417000       1.00800           0   0.00000     -0.301140E-02
     41033 TIP3     5373     TIP3     OH2      OT      -0.834000       15.9994           0   0.00000       0.00000    
     41034 TIP3     5373     TIP3     H1       HT       0.417000       1.00800           0   0.00000       0.00000    
     41035 TIP3     5373     TIP3     H2       HT       0.417000       1.00800           0   0.00000     -0.301140E-02
     41036 TIP3     5374     TIP3     OH2      OT      -0.834000       15.9994           0   0.00000       0.00000    
     41037 TIP3     5374     TIP3     H1       HT       0.417000       1.00800           0   0.00000       0.00000    
     41038 TIP3     5374     TIP3     H2       HT       0.417000       1.00800           0   0.00000     -0.301140E-02
     41039 TIP3     5375     TIP3     OH2      OT      -0.834000       15.9994           0   0.00000       0.00000    
     41040 TIP3     5375     TIP3     H1       HT       0.417000       1.00800           0   0.00000       0.00000    
     41041 TIP3     5375     TIP3     H2       HT       0.417000       1.00800           0   0.00000     -0.301140E-02
     41042 TIP3     5376     TIP3     OH2      OT      -0.834000       15.9994           0   0.00000       0.00000    
     41043 TIP3     5376     TIP3     H1       HT       0.417000       1.00800           0   0.00000       0.00000    
     41044 TIP3     5376     TIP3     H2       HT       0.417000       1.00800           0   0.00000     -0.301140E-02
     41045 TIP3     5377     TIP3     OH2      OT      -0.834000       15.9994           0   0.00000       0.00000    
     41046 TIP3     5377     TIP3     H1       HT       0.417000       1.00800           0   0.00000       0.00000    
     41047 TIP3     5377     TIP3     H2       HT       0.417000       1.00800           0   0.00000     -0.301140E-02
     41048 TIP3     5378     TIP3     OH2      OT      -0.834000       15.9994           0   0.00000       0.00000    
     41049 TIP3     5378     TIP3     H1       HT       0.417000       1.00800           0   0.00000       0.00000    
     41050 TIP3     5378     TIP3     H2       HT       0.417000       1.00800           0   0.00000     -0.301140E-02
     41051 TIP3     5379     TIP3     OH2      OT      -0.834000       15.9994           0   0.00000       0.00000    
     41052 TIP3     5379     TIP3     H1       HT       0.417000       1.00800           0   0.00000       0.00000    
     41053 TIP3     5379     TIP3     H2       HT       0.417000       1.00800           0   0.00000     -0.301140E-02
     41054 TIP3     5380     TIP3     OH2      OT      -0.834000       15.9994           0   0.00000       0.00000    
     41055 TIP3     5380     TIP3     H1       HT       0.417000       1.00800           0   0.00000       0.00000    
     41056 TIP3     5380     TIP3     H2       HT       0.417000       1.00800           0   0.00000     -0.301140E-02
     41057 TIP3     5381     TIP3     OH2      OT      -0.834000       15.9994           0   0.00000       0.00000    
     41058 TIP3     5381     TIP3     H1       HT       0.417000       1.00800           0   0.00000       0.00000    
     41059 TIP3     5381     TIP3     H2       HT       0.417000       1.00800           0   0.00000     -0.301140E-02
     41060 TIP3     5382     TIP3     OH2      OT      -0.834000       15.9994           0   0.00000       0.00000    
     41061 TIP3     5382     TIP3     H1       HT       0.417000       1.00800           0   0.00000       0.00000    
     41062 TIP3     5382     TIP3     H2       HT       0.417000       1.00800           0   0.00000     -0.301140E-02
     41063 TIP3     5383     TIP3     OH2      OT      -0.834000       15.9994           0   0.00000       0.00000    
     41064 TIP3     5383     TIP3     H1       HT       0.417000       1.00800           0   0.00000       0.00000    
     41065 TIP3     5383     TIP3     H2       HT       0.417000       1.00800           0   0.00000     -0.301140E-02
     41066 TIP3     5384     TIP3     OH2      OT      -0.834000       15.9994           0   0.00000       0.00000    
     41067 TIP3     5384     TIP3     H1       HT       0.417000       1.00800           0   0.00000       0.00000    
     41068 TIP3     5384     TIP3     H2       HT       0.417000       1.00800           0   0.00000     -0.301140E-02
     41069 TIP3     5385     TIP3     OH2      OT      -0.834000       15.9994           0   0.00000       0.00000    
     41070 TIP3     5385     TIP3     H1       HT       0.417000       1.00800           0   0.00000       0.00000    
     41071 TIP3     5385     TIP3     H2       HT       0.417000       1.00800           0   0.00000     -0.301140E-02
     41072 TIP3     5386     TIP3     OH2      OT      -0.834000       15.9994           0   0.00000       0.00000    
     41073 TIP3     5386     TIP3     H1       HT       0.417000       1.00800           0   0.00000       0.00000    
     41074 TIP3     5386     TIP3     H2       HT       0.417000       1.00800           0   0.00000     -0.301140E-02
     41075 TIP3     5387     TIP3     OH2      OT      -0.834000       15.9994           0   0.00000       0.00000    
     41076 TIP3     5387     TIP3     H1       HT       0.417000       1.00800           0   0.00000       0.00000    
     41077 TIP3     5387     TIP3     H2       HT       0.417000       1.00800           0   0.00000     -0.301140E-02
     41078 TIP3     5388     TIP3     OH2      OT      -0.834000       15.9994           0   0.00000       0.00000    
     41079 TIP3     5388     TIP3     H1       HT       0.417000       1.00800           0   0.00000       0.00000    
     41080 TIP3     5388     TIP3     H2       HT       0.417000       1.00800           0   0.00000     -0.301140E-02
     41081 TIP3     5389     TIP3     OH2      OT      -0.834000       15.9994           0   0.00000       0.00000    
     41082 TIP3     5389     TIP3     H1       HT       0.417000       1.00800           0   0.00000       0.00000    
     41083 TIP3     5389     TIP3     H2       HT       0.417000       1.00800           0   0.00000     -0.301140E-02
     41084 TIP3     5390     TIP3     OH2      OT      -0.834000       15.9994           0   0.00000       0.00000    
     41085 TIP3     5390     TIP3     H1       HT       0.417000       1.00800           0   0.00000       0.00000    
     41086 TIP3     5390     TIP3     H2       HT       0.417000       1.00800           0   0.00000     -0.301140E-02
     41087 TIP3     5391     TIP3     OH2      OT      -0.834000       15.9994           0   0.00000       0.00000    
     41088 TIP3     5391     TIP3     H1       HT       0.417000       1.00800           0   0.00000       0.00000    
     41089 TIP3     5391     TIP3     H2       HT       0.417000       1.00800           0   0.00000     -0.301140E-02
     41090 TIP3     5392     TIP3     OH2      OT      -0.834000       15.9994           0   0.00000       0.00000    
     41091 TIP3     5392     TIP3     H1       HT       0.417000       1.00800           0   0.00000       0.00000    
     41092 TIP3     5392     TIP3     H2       HT       0.417000       1.00800           0   0.00000     -0.301140E-02
     41093 TIP3     5393     TIP3     OH2      OT      -0.834000       15.9994           0   0.00000       0.00000    
     41094 TIP3     5393     TIP3     H1       HT       0.417000       1.00800           0   0.00000       0.00000    
     41095 TIP3     5393     TIP3     H2       HT       0.417000       1.00800           0   0.00000     -0.301140E-02
     41096 TIP3     5394     TIP3     OH2      OT      -0.834000       15.9994           0   0.00000       0.00000    
     41097 TIP3     5394     TIP3     H1       HT       0.417000       1.00800           0   0.00000       0.00000    
     41098 TIP3     5394     TIP3     H2       HT       0.417000       1.00800           0   0.00000     -0.301140E-02
     41099 TIP3     5395     TIP3     OH2      OT      -0.834000       15.9994           0   0.00000       0.00000    
     41100 TIP3     5395     TIP3     H1       HT       0.417000       1.00800           0   0.00000       0.00000    
     41101 TIP3     5395     TIP3     H2       HT       0.417000       1.00800           0   0.00000     -0.301140E-02
     41102 TIP3     5396     TIP3     OH2      OT      -0.834000       15.9994           0   0.00000       0.00000    
     41103 TIP3     5396     TIP3     H1       HT       0.417000       1.00800           0   0.00000       0.00000    
     41104 TIP3     5396     TIP3     H2       HT       0.417000       1.00800           0   0.00000     -0.301140E-02
     41105 TIP3     5397     TIP3     OH2      OT      -0.834000       15.9994           0   0.00000       0.00000    
     41106 TIP3     5397     TIP3     H1       HT       0.417000       1.00800           0   0.00000       0.00000    
     41107 TIP3     5397     TIP3     H2       HT       0.417000       1.00800           0   0.00000     -0.301140E-02
     41108 TIP3     5398     TIP3     OH2      OT      -0.834000       15.9994           0   0.00000       0.00000    
     41109 TIP3     5398     TIP3     H1       HT       0.417000       1.00800           0   0.00000       0.00000    
     41110 TIP3     5398     TIP3     H2       HT       0.417000       1.00800           0   0.00000     -0.301140E-02
     41111 TIP3     5399     TIP3     OH2      OT      -0.834000       15.9994           0   0.00000       0.00000    
     41112 TIP3     5399     TIP3     H1       HT       0.417000       1.00800           0   0.00000       0.00000    
     41113 TIP3     5399     TIP3     H2       HT       0.417000       1.00800           0   0.00000     -0.301140E-02
     41114 TIP3     5400     TIP3     OH2      OT      -0.834000       15.9994           0   0.00000       0.00000    
     41115 TIP3     5400     TIP3     H1       HT       0.417000       1.00800           0   0.00000       0.00000    
     41116 TIP3     5400     TIP3     H2       HT       0.417000       1.00800           0   0.00000     -0.301140E-02
     41117 TIP3     5401     TIP3     OH2      OT      -0.834000       15.9994           0   0.00000       0.00000    
     41118 TIP3     5401     TIP3     H1       HT       0.417000       1.00800           0   0.00000       0.00000    
     41119 TIP3     5401     TIP3     H2       HT       0.417000       1.00800           0   0.00000     -0.301140E-02
     41120 TIP3     5402     TIP3     OH2      OT      -0.834000       15.9994           0   0.00000       0.00000    
     41121 TIP3     5402     TIP3     H1       HT       0.417000       1.00800           0   0.00000       0.00000    
     41122 TIP3     5402     TIP3     H2       HT       0.417000       1.00800           0   0.00000     -0.301140E-02
     41123 TIP3     5403     TIP3     OH2      OT      -0.834000       15.9994           0   0.00000       0.00000    
     41124 TIP3     5403     TIP3     H1       HT       0.417000       1.00800           0   0.00000       0.00000    
     41125 TIP3     5403     TIP3     H2       HT       0.417000       1.00800           0   0.00000     -0.301140E-02
     41126 TIP3     5404     TIP3     OH2      OT      -0.834000       15.9994           0   0.00000       0.00000    
     41127 TIP3     5404     TIP3     H1       HT       0.417000       1.00800           0   0.00000       0.00000    
     41128 TIP3     5404     TIP3     H2       HT       0.417000       1.00800           0   0.00000     -0.301140E-02
     41129 TIP3     5405     TIP3     OH2      OT      -0.834000       15.9994           0   0.00000       0.00000    
     41130 TIP3     5405     TIP3     H1       HT       0.417000       1.00800           0   0.00000       0.00000    
     41131 TIP3     5405     TIP3     H2       HT       0.417000       1.00800           0   0.00000     -0.301140E-02
     41132 TIP3     5406     TIP3     OH2      OT      -0.834000       15.9994           0   0.00000       0.00000    
     41133 TIP3     5406     TIP3     H1       HT       0.417000       1.00800           0   0.00000       0.00000    
     41134 TIP3     5406     TIP3     H2       HT       0.417000       1.00800           0   0.00000     -0.301140E-02
     41135 TIP3     5407     TIP3     OH2      OT      -0.834000       15.9994           0   0.00000       0.00000    
     41136 TIP3     5407     TIP3     H1       HT       0.417000       1.00800           0   0.00000       0.00000    
     41137 TIP3     5407     TIP3     H2       HT       0.417000       1.00800           0   0.00000     -0.301140E-02
     41138 TIP3     5408     TIP3     OH2      OT      -0.834000       15.9994           0   0.00000       0.00000    
     41139 TIP3     5408     TIP3     H1       HT       0.417000       1.00800           0   0.00000       0.00000    
     41140 TIP3     5408     TIP3     H2       HT       0.417000       1.00800           0   0.00000     -0.301140E-02
     41141 TIP3     5409     TIP3     OH2      OT      -0.834000       15.9994           0   0.00000       0.00000    
     41142 TIP3     5409     TIP3     H1       HT       0.417000       1.00800           0   0.00000       0.00000    
     41143 TIP3     5409     TIP3     H2       HT       0.417000       1.00800           0   0.00000     -0.301140E-02
     41144 TIP3     5410     TIP3     OH2      OT      -0.834000       15.9994           0   0.00000       0.00000    
     41145 TIP3     5410     TIP3     H1       HT       0.417000       1.00800           0   0.00000       0.00000    
     41146 TIP3     5410     TIP3     H2       HT       0.417000       1.00800           0   0.00000     -0.301140E-02
     41147 TIP3     5411     TIP3     OH2      OT      -0.834000       15.9994           0   0.00000       0.00000    
     41148 TIP3     5411     TIP3     H1       HT       0.417000       1.00800           0   0.00000       0.00000    
     41149 TIP3     5411     TIP3     H2       HT       0.417000       1.00800           0   0.00000     -0.301140E-02
     41150 TIP3     5412     TIP3     OH2      OT      -0.834000       15.9994           0   0.00000       0.00000    
     41151 TIP3     5412     TIP3     H1       HT       0.417000       1.00800           0   0.00000       0.00000    
     41152 TIP3     5412     TIP3     H2       HT       0.417000       1.00800           0   0.00000     -0.301140E-02
     41153 TIP3     5413     TIP3     OH2      OT      -0.834000       15.9994           0   0.00000       0.00000    
     41154 TIP3     5413     TIP3     H1       HT       0.417000       1.00800           0   0.00000       0.00000    
     41155 TIP3     5413     TIP3     H2       HT       0.417000       1.00800           0   0.00000     -0.301140E-02
     41156 TIP3     5414     TIP3     OH2      OT      -0.834000       15.9994           0   0.00000       0.00000    
     41157 TIP3     5414     TIP3     H1       HT       0.417000       1.00800           0   0.00000       0.00000    
     41158 TIP3     5414     TIP3     H2       HT       0.417000       1.00800           0   0.00000     -0.301140E-02
     41159 TIP3     5415     TIP3     OH2      OT      -0.834000       15.9994           0   0.00000       0.00000    
     41160 TIP3     5415     TIP3     H1       HT       0.417000       1.00800           0   0.00000       0.00000    
     41161 TIP3     5415     TIP3     H2       HT       0.417000       1.00800           0   0.00000     -0.301140E-02
     41162 TIP3     5416     TIP3     OH2      OT      -0.834000       15.9994           0   0.00000       0.00000    
     41163 TIP3     5416     TIP3     H1       HT       0.417000       1.00800           0   0.00000       0.00000    
     41164 TIP3     5416     TIP3     H2       HT       0.417000       1.00800           0   0.00000     -0.301140E-02
     41165 TIP3     5417     TIP3     OH2      OT      -0.834000       15.9994           0   0.00000       0.00000    
     41166 TIP3     5417     TIP3     H1       HT       0.417000       1.00800           0   0.00000       0.00000    
     41167 TIP3     5417     TIP3     H2       HT       0.417000       1.00800           0   0.00000     -0.301140E-02
     41168 TIP3     5418     TIP3     OH2      OT      -0.834000       15.9994           0   0.00000       0.00000    
     41169 TIP3     5418     TIP3     H1       HT       0.417000       1.00800           0   0.00000       0.00000    
     41170 TIP3     5418     TIP3     H2       HT       0.417000       1.00800           0   0.00000     -0.301140E-02
     41171 TIP3     5419     TIP3     OH2      OT      -0.834000       15.9994           0   0.00000       0.00000    
     41172 TIP3     5419     TIP3     H1       HT       0.417000       1.00800           0   0.00000       0.00000    
     41173 TIP3     5419     TIP3     H2       HT       0.417000       1.00800           0   0.00000     -0.301140E-02
     41174 TIP3     5420     TIP3     OH2      OT      -0.834000       15.9994           0   0.00000       0.00000    
     41175 TIP3     5420     TIP3     H1       HT       0.417000       1.00800           0   0.00000       0.00000    
     41176 TIP3     5420     TIP3     H2       HT       0.417000       1.00800           0   0.00000     -0.301140E-02
     41177 TIP3     5421     TIP3     OH2      OT      -0.834000       15.9994           0   0.00000       0.00000    
     41178 TIP3     5421     TIP3     H1       HT       0.417000       1.00800           0   0.00000       0.00000    
     41179 TIP3     5421     TIP3     H2       HT       0.417000       1.00800           0   0.00000     -0.301140E-02
     41180 TIP3     5422     TIP3     OH2      OT      -0.834000       15.9994           0   0.00000       0.00000    
     41181 TIP3     5422     TIP3     H1       HT       0.417000       1.00800           0   0.00000       0.00000    
     41182 TIP3     5422     TIP3     H2       HT       0.417000       1.00800           0   0.00000     -0.301140E-02
     41183 TIP3     5423     TIP3     OH2      OT      -0.834000       15.9994           0   0.00000       0.00000    
     41184 TIP3     5423     TIP3     H1       HT       0.417000       1.00800           0   0.00000       0.00000    
     41185 TIP3     5423     TIP3     H2       HT       0.417000       1.00800           0   0.00000     -0.301140E-02
     41186 TIP3     5424     TIP3     OH2      OT      -0.834000       15.9994           0   0.00000       0.00000    
     41187 TIP3     5424     TIP3     H1       HT       0.417000       1.00800           0   0.00000       0.00000    
     41188 TIP3     5424     TIP3     H2       HT       0.417000       1.00800           0   0.00000     -0.301140E-02
     41189 TIP3     5425     TIP3     OH2      OT      -0.834000       15.9994           0   0.00000       0.00000    
     41190 TIP3     5425     TIP3     H1       HT       0.417000       1.00800           0   0.00000       0.00000    
     41191 TIP3     5425     TIP3     H2       HT       0.417000       1.00800           0   0.00000     -0.301140E-02
     41192 TIP3     5426     TIP3     OH2      OT      -0.834000       15.9994           0   0.00000       0.00000    
     41193 TIP3     5426     TIP3     H1       HT       0.417000       1.00800           0   0.00000       0.00000    
     41194 TIP3     5426     TIP3     H2       HT       0.417000       1.00800           0   0.00000     -0.301140E-02
     41195 TIP3     5427     TIP3     OH2      OT      -0.834000       15.9994           0   0.00000       0.00000    
     41196 TIP3     5427     TIP3     H1       HT       0.417000       1.00800           0   0.00000       0.00000    
     41197 TIP3     5427     TIP3     H2       HT       0.417000       1.00800           0   0.00000     -0.301140E-02
     41198 TIP3     5428     TIP3     OH2      OT      -0.834000       15.9994           0   0.00000       0.00000    
     41199 TIP3     5428     TIP3     H1       HT       0.417000       1.00800           0   0.00000       0.00000    
     41200 TIP3     5428     TIP3     H2       HT       0.417000       1.00800           0   0.00000     -0.301140E-02
     41201 TIP3     5429     TIP3     OH2      OT      -0.834000       15.9994           0   0.00000       0.00000    
     41202 TIP3     5429     TIP3     H1       HT       0.417000       1.00800           0   0.00000       0.00000    
     41203 TIP3     5429     TIP3     H2       HT       0.417000       1.00800           0   0.00000     -0.301140E-02
     41204 TIP3     5430     TIP3     OH2      OT      -0.834000       15.9994           0   0.00000       0.00000    
     41205 TIP3     5430     TIP3     H1       HT       0.417000       1.00800           0   0.00000       0.00000    
     41206 TIP3     5430     TIP3     H2       HT       0.417000       1.00800           0   0.00000     -0.301140E-02
     41207 TIP3     5431     TIP3     OH2      OT      -0.834000       15.9994           0   0.00000       0.00000    
     41208 TIP3     5431     TIP3     H1       HT       0.417000       1.00800           0   0.00000       0.00000    
     41209 TIP3     5431     TIP3     H2       HT       0.417000       1.00800           0   0.00000     -0.301140E-02
     41210 TIP3     5432     TIP3     OH2      OT      -0.834000       15.9994           0   0.00000       0.00000    
     41211 TIP3     5432     TIP3     H1       HT       0.417000       1.00800           0   0.00000       0.00000    
     41212 TIP3     5432     TIP3     H2       HT       0.417000       1.00800           0   0.00000     -0.301140E-02
     41213 TIP3     5433     TIP3     OH2      OT      -0.834000       15.9994           0   0.00000       0.00000    
     41214 TIP3     5433     TIP3     H1       HT       0.417000       1.00800           0   0.00000       0.00000    
     41215 TIP3     5433     TIP3     H2       HT       0.417000       1.00800           0   0.00000     -0.301140E-02
     41216 TIP3     5434     TIP3     OH2      OT      -0.834000       15.9994           0   0.00000       0.00000    
     41217 TIP3     5434     TIP3     H1       HT       0.417000       1.00800           0   0.00000       0.00000    
     41218 TIP3     5434     TIP3     H2       HT       0.417000       1.00800           0   0.00000     -0.301140E-02
     41219 TIP3     5435     TIP3     OH2      OT      -0.834000       15.9994           0   0.00000       0.00000    
     41220 TIP3     5435     TIP3     H1       HT       0.417000       1.00800           0   0.00000       0.00000    
     41221 TIP3     5435     TIP3     H2       HT       0.417000       1.00800           0   0.00000     -0.301140E-02
     41222 TIP3     5436     TIP3     OH2      OT      -0.834000       15.9994           0   0.00000       0.00000    
     41223 TIP3     5436     TIP3     H1       HT       0.417000       1.00800           0   0.00000       0.00000    
     41224 TIP3     5436     TIP3     H2       HT       0.417000       1.00800           0   0.00000     -0.301140E-02
     41225 TIP3     5437     TIP3     OH2      OT      -0.834000       15.9994           0   0.00000       0.00000    
     41226 TIP3     5437     TIP3     H1       HT       0.417000       1.00800           0   0.00000       0.00000    
     41227 TIP3     5437     TIP3     H2       HT       0.417000       1.00800           0   0.00000     -0.301140E-02
     41228 TIP3     5438     TIP3     OH2      OT      -0.834000       15.9994           0   0.00000       0.00000    
     41229 TIP3     5438     TIP3     H1       HT       0.417000       1.00800           0   0.00000       0.00000    
     41230 TIP3     5438     TIP3     H2       HT       0.417000       1.00800           0   0.00000     -0.301140E-02
     41231 TIP3     5439     TIP3     OH2      OT      -0.834000       15.9994           0   0.00000       0.00000    
     41232 TIP3     5439     TIP3     H1       HT       0.417000       1.00800           0   0.00000       0.00000    
     41233 TIP3     5439     TIP3     H2       HT       0.417000       1.00800           0   0.00000     -0.301140E-02
     41234 TIP3     5440     TIP3     OH2      OT      -0.834000       15.9994           0   0.00000       0.00000    
     41235 TIP3     5440     TIP3     H1       HT       0.417000       1.00800           0   0.00000       0.00000    
     41236 TIP3     5440     TIP3     H2       HT       0.417000       1.00800           0   0.00000     -0.301140E-02
     41237 TIP3     5441     TIP3     OH2      OT      -0.834000       15.9994           0   0.00000       0.00000    
     41238 TIP3     5441     TIP3     H1       HT       0.417000       1.00800           0   0.00000       0.00000    
     41239 TIP3     5441     TIP3     H2       HT       0.417000       1.00800           0   0.00000     -0.301140E-02
     41240 TIP3     5442     TIP3     OH2      OT      -0.834000       15.9994           0   0.00000       0.00000    
     41241 TIP3     5442     TIP3     H1       HT       0.417000       1.00800           0   0.00000       0.00000    
     41242 TIP3     5442     TIP3     H2       HT       0.417000       1.00800           0   0.00000     -0.301140E-02
     41243 TIP3     5443     TIP3     OH2      OT      -0.834000       15.9994           0   0.00000       0.00000    
     41244 TIP3     5443     TIP3     H1       HT       0.417000       1.00800           0   0.00000       0.00000    
     41245 TIP3     5443     TIP3     H2       HT       0.417000       1.00800           0   0.00000     -0.301140E-02
     41246 TIP3     5444     TIP3     OH2      OT      -0.834000       15.9994           0   0.00000       0.00000    
     41247 TIP3     5444     TIP3     H1       HT       0.417000       1.00800           0   0.00000       0.00000    
     41248 TIP3     5444     TIP3     H2       HT       0.417000       1.00800           0   0.00000     -0.301140E-02
     41249 TIP3     5445     TIP3     OH2      OT      -0.834000       15.9994           0   0.00000       0.00000    
     41250 TIP3     5445     TIP3     H1       HT       0.417000       1.00800           0   0.00000       0.00000    
     41251 TIP3     5445     TIP3     H2       HT       0.417000       1.00800           0   0.00000     -0.301140E-02
     41252 TIP3     5446     TIP3     OH2      OT      -0.834000       15.9994           0   0.00000       0.00000    
     41253 TIP3     5446     TIP3     H1       HT       0.417000       1.00800           0   0.00000       0.00000    
     41254 TIP3     5446     TIP3     H2       HT       0.417000       1.00800           0   0.00000     -0.301140E-02
     41255 TIP3     5447     TIP3     OH2      OT      -0.834000       15.9994           0   0.00000       0.00000    
     41256 TIP3     5447     TIP3     H1       HT       0.417000       1.00800           0   0.00000       0.00000    
     41257 TIP3     5447     TIP3     H2       HT       0.417000       1.00800           0   0.00000     -0.301140E-02
     41258 TIP3     5448     TIP3     OH2      OT      -0.834000       15.9994           0   0.00000       0.00000    
     41259 TIP3     5448     TIP3     H1       HT       0.417000       1.00800           0   0.00000       0.00000    
     41260 TIP3     5448     TIP3     H2       HT       0.417000       1.00800           0   0.00000     -0.301140E-02
     41261 TIP3     5449     TIP3     OH2      OT      -0.834000       15.9994           0   0.00000       0.00000    
     41262 TIP3     5449     TIP3     H1       HT       0.417000       1.00800           0   0.00000       0.00000    
     41263 TIP3     5449     TIP3     H2       HT       0.417000       1.00800           0   0.00000     -0.301140E-02
     41264 TIP3     5450     TIP3     OH2      OT      -0.834000       15.9994           0   0.00000       0.00000    
     41265 TIP3     5450     TIP3     H1       HT       0.417000       1.00800           0   0.00000       0.00000    
     41266 TIP3     5450     TIP3     H2       HT       0.417000       1.00800           0   0.00000     -0.301140E-02
     41267 TIP3     5451     TIP3     OH2      OT      -0.834000       15.9994           0   0.00000       0.00000    
     41268 TIP3     5451     TIP3     H1       HT       0.417000       1.00800           0   0.00000       0.00000    
     41269 TIP3     5451     TIP3     H2       HT       0.417000       1.00800           0   0.00000     -0.301140E-02
     41270 TIP3     5452     TIP3     OH2      OT      -0.834000       15.9994           0   0.00000       0.00000    
     41271 TIP3     5452     TIP3     H1       HT       0.417000       1.00800           0   0.00000       0.00000    
     41272 TIP3     5452     TIP3     H2       HT       0.417000       1.00800           0   0.00000     -0.301140E-02
     41273 TIP3     5453     TIP3     OH2      OT      -0.834000       15.9994           0   0.00000       0.00000    
     41274 TIP3     5453     TIP3     H1       HT       0.417000       1.00800           0   0.00000       0.00000    
     41275 TIP3     5453     TIP3     H2       HT       0.417000       1.00800           0   0.00000     -0.301140E-02
     41276 TIP3     5454     TIP3     OH2      OT      -0.834000       15.9994           0   0.00000       0.00000    
     41277 TIP3     5454     TIP3     H1       HT       0.417000       1.00800           0   0.00000       0.00000    
     41278 TIP3     5454     TIP3     H2       HT       0.417000       1.00800           0   0.00000     -0.301140E-02
     41279 TIP3     5455     TIP3     OH2      OT      -0.834000       15.9994           0   0.00000       0.00000    
     41280 TIP3     5455     TIP3     H1       HT       0.417000       1.00800           0   0.00000       0.00000    
     41281 TIP3     5455     TIP3     H2       HT       0.417000       1.00800           0   0.00000     -0.301140E-02
     41282 TIP3     5456     TIP3     OH2      OT      -0.834000       15.9994           0   0.00000       0.00000    
     41283 TIP3     5456     TIP3     H1       HT       0.417000       1.00800           0   0.00000       0.00000    
     41284 TIP3     5456     TIP3     H2       HT       0.417000       1.00800           0   0.00000     -0.301140E-02
     41285 TIP3     5457     TIP3     OH2      OT      -0.834000       15.9994           0   0.00000       0.00000    
     41286 TIP3     5457     TIP3     H1       HT       0.417000       1.00800           0   0.00000       0.00000    
     41287 TIP3     5457     TIP3     H2       HT       0.417000       1.00800           0   0.00000     -0.301140E-02
     41288 TIP3     5458     TIP3     OH2      OT      -0.834000       15.9994           0   0.00000       0.00000    
     41289 TIP3     5458     TIP3     H1       HT       0.417000       1.00800           0   0.00000       0.00000    
     41290 TIP3     5458     TIP3     H2       HT       0.417000       1.00800           0   0.00000     -0.301140E-02
     41291 TIP3     5459     TIP3     OH2      OT      -0.834000       15.9994           0   0.00000       0.00000    
     41292 TIP3     5459     TIP3     H1       HT       0.417000       1.00800           0   0.00000       0.00000    
     41293 TIP3     5459     TIP3     H2       HT       0.417000       1.00800           0   0.00000     -0.301140E-02
     41294 TIP3     5460     TIP3     OH2      OT      -0.834000       15.9994           0   0.00000       0.00000    
     41295 TIP3     5460     TIP3     H1       HT       0.417000       1.00800           0   0.00000       0.00000    
     41296 TIP3     5460     TIP3     H2       HT       0.417000       1.00800           0   0.00000     -0.301140E-02
     41297 TIP3     5461     TIP3     OH2      OT      -0.834000       15.9994           0   0.00000       0.00000    
     41298 TIP3     5461     TIP3     H1       HT       0.417000       1.00800           0   0.00000       0.00000    
     41299 TIP3     5461     TIP3     H2       HT       0.417000       1.00800           0   0.00000     -0.301140E-02
     41300 TIP3     5462     TIP3     OH2      OT      -0.834000       15.9994           0   0.00000       0.00000    
     41301 TIP3     5462     TIP3     H1       HT       0.417000       1.00800           0   0.00000       0.00000    
     41302 TIP3     5462     TIP3     H2       HT       0.417000       1.00800           0   0.00000     -0.301140E-02
     41303 TIP3     5463     TIP3     OH2      OT      -0.834000       15.9994           0   0.00000       0.00000    
     41304 TIP3     5463     TIP3     H1       HT       0.417000       1.00800           0   0.00000       0.00000    
     41305 TIP3     5463     TIP3     H2       HT       0.417000       1.00800           0   0.00000     -0.301140E-02
     41306 TIP3     5464     TIP3     OH2      OT      -0.834000       15.9994           0   0.00000       0.00000    
     41307 TIP3     5464     TIP3     H1       HT       0.417000       1.00800           0   0.00000       0.00000    
     41308 TIP3     5464     TIP3     H2       HT       0.417000       1.00800           0   0.00000     -0.301140E-02
     41309 TIP3     5465     TIP3     OH2      OT      -0.834000       15.9994           0   0.00000       0.00000    
     41310 TIP3     5465     TIP3     H1       HT       0.417000       1.00800           0   0.00000       0.00000    
     41311 TIP3     5465     TIP3     H2       HT       0.417000       1.00800           0   0.00000     -0.301140E-02
     41312 TIP3     5466     TIP3     OH2      OT      -0.834000       15.9994           0   0.00000       0.00000    
     41313 TIP3     5466     TIP3     H1       HT       0.417000       1.00800           0   0.00000       0.00000    
     41314 TIP3     5466     TIP3     H2       HT       0.417000       1.00800           0   0.00000     -0.301140E-02
     41315 TIP3     5467     TIP3     OH2      OT      -0.834000       15.9994           0   0.00000       0.00000    
     41316 TIP3     5467     TIP3     H1       HT       0.417000       1.00800           0   0.00000       0.00000    
     41317 TIP3     5467     TIP3     H2       HT       0.417000       1.00800           0   0.00000     -0.301140E-02
     41318 TIP3     5468     TIP3     OH2      OT      -0.834000       15.9994           0   0.00000       0.00000    
     41319 TIP3     5468     TIP3     H1       HT       0.417000       1.00800           0   0.00000       0.00000    
     41320 TIP3     5468     TIP3     H2       HT       0.417000       1.00800           0   0.00000     -0.301140E-02
     41321 TIP3     5469     TIP3     OH2      OT      -0.834000       15.9994           0   0.00000       0.00000    
     41322 TIP3     5469     TIP3     H1       HT       0.417000       1.00800           0   0.00000       0.00000    
     41323 TIP3     5469     TIP3     H2       HT       0.417000       1.00800           0   0.00000     -0.301140E-02
     41324 TIP3     5470     TIP3     OH2      OT      -0.834000       15.9994           0   0.00000       0.00000    
     41325 TIP3     5470     TIP3     H1       HT       0.417000       1.00800           0   0.00000       0.00000    
     41326 TIP3     5470     TIP3     H2       HT       0.417000       1.00800           0   0.00000     -0.301140E-02
     41327 TIP3     5471     TIP3     OH2      OT      -0.834000       15.9994           0   0.00000       0.00000    
     41328 TIP3     5471     TIP3     H1       HT       0.417000       1.00800           0   0.00000       0.00000    
     41329 TIP3     5471     TIP3     H2       HT       0.417000       1.00800           0   0.00000     -0.301140E-02
     41330 TIP3     5472     TIP3     OH2      OT      -0.834000       15.9994           0   0.00000       0.00000    
     41331 TIP3     5472     TIP3     H1       HT       0.417000       1.00800           0   0.00000       0.00000    
     41332 TIP3     5472     TIP3     H2       HT       0.417000       1.00800           0   0.00000     -0.301140E-02
     41333 TIP3     5473     TIP3     OH2      OT      -0.834000       15.9994           0   0.00000       0.00000    
     41334 TIP3     5473     TIP3     H1       HT       0.417000       1.00800           0   0.00000       0.00000    
     41335 TIP3     5473     TIP3     H2       HT       0.417000       1.00800           0   0.00000     -0.301140E-02
     41336 TIP3     5474     TIP3     OH2      OT      -0.834000       15.9994           0   0.00000       0.00000    
     41337 TIP3     5474     TIP3     H1       HT       0.417000       1.00800           0   0.00000       0.00000    
     41338 TIP3     5474     TIP3     H2       HT       0.417000       1.00800           0   0.00000     -0.301140E-02
     41339 TIP3     5475     TIP3     OH2      OT      -0.834000       15.9994           0   0.00000       0.00000    
     41340 TIP3     5475     TIP3     H1       HT       0.417000       1.00800           0   0.00000       0.00000    
     41341 TIP3     5475     TIP3     H2       HT       0.417000       1.00800           0   0.00000     -0.301140E-02
     41342 TIP3     5476     TIP3     OH2      OT      -0.834000       15.9994           0   0.00000       0.00000    
     41343 TIP3     5476     TIP3     H1       HT       0.417000       1.00800           0   0.00000       0.00000    
     41344 TIP3     5476     TIP3     H2       HT       0.417000       1.00800           0   0.00000     -0.301140E-02
     41345 TIP3     5477     TIP3     OH2      OT      -0.834000       15.9994           0   0.00000       0.00000    
     41346 TIP3     5477     TIP3     H1       HT       0.417000       1.00800           0   0.00000       0.00000    
     41347 TIP3     5477     TIP3     H2       HT       0.417000       1.00800           0   0.00000     -0.301140E-02
     41348 TIP3     5478     TIP3     OH2      OT      -0.834000       15.9994           0   0.00000       0.00000    
     41349 TIP3     5478     TIP3     H1       HT       0.417000       1.00800           0   0.00000       0.00000    
     41350 TIP3     5478     TIP3     H2       HT       0.417000       1.00800           0   0.00000     -0.301140E-02
     41351 TIP3     5479     TIP3     OH2      OT      -0.834000       15.9994           0   0.00000       0.00000    
     41352 TIP3     5479     TIP3     H1       HT       0.417000       1.00800           0   0.00000       0.00000    
     41353 TIP3     5479     TIP3     H2       HT       0.417000       1.00800           0   0.00000     -0.301140E-02
     41354 TIP3     5480     TIP3     OH2      OT      -0.834000       15.9994           0   0.00000       0.00000    
     41355 TIP3     5480     TIP3     H1       HT       0.417000       1.00800           0   0.00000       0.00000    
     41356 TIP3     5480     TIP3     H2       HT       0.417000       1.00800           0   0.00000     -0.301140E-02
     41357 TIP3     5481     TIP3     OH2      OT      -0.834000       15.9994           0   0.00000       0.00000    
     41358 TIP3     5481     TIP3     H1       HT       0.417000       1.00800           0   0.00000       0.00000    
     41359 TIP3     5481     TIP3     H2       HT       0.417000       1.00800           0   0.00000     -0.301140E-02
     41360 TIP3     5482     TIP3     OH2      OT      -0.834000       15.9994           0   0.00000       0.00000    
     41361 TIP3     5482     TIP3     H1       HT       0.417000       1.00800           0   0.00000       0.00000    
     41362 TIP3     5482     TIP3     H2       HT       0.417000       1.00800           0   0.00000     -0.301140E-02
     41363 TIP3     5483     TIP3     OH2      OT      -0.834000       15.9994           0   0.00000       0.00000    
     41364 TIP3     5483     TIP3     H1       HT       0.417000       1.00800           0   0.00000       0.00000    
     41365 TIP3     5483     TIP3     H2       HT       0.417000       1.00800           0   0.00000     -0.301140E-02
     41366 TIP3     5484     TIP3     OH2      OT      -0.834000       15.9994           0   0.00000       0.00000    
     41367 TIP3     5484     TIP3     H1       HT       0.417000       1.00800           0   0.00000       0.00000    
     41368 TIP3     5484     TIP3     H2       HT       0.417000       1.00800           0   0.00000     -0.301140E-02
     41369 TIP3     5485     TIP3     OH2      OT      -0.834000       15.9994           0   0.00000       0.00000    
     41370 TIP3     5485     TIP3     H1       HT       0.417000       1.00800           0   0.00000       0.00000    
     41371 TIP3     5485     TIP3     H2       HT       0.417000       1.00800           0   0.00000     -0.301140E-02
     41372 TIP3     5486     TIP3     OH2      OT      -0.834000       15.9994           0   0.00000       0.00000    
     41373 TIP3     5486     TIP3     H1       HT       0.417000       1.00800           0   0.00000       0.00000    
     41374 TIP3     5486     TIP3     H2       HT       0.417000       1.00800           0   0.00000     -0.301140E-02
     41375 TIP3     5487     TIP3     OH2      OT      -0.834000       15.9994           0   0.00000       0.00000    
     41376 TIP3     5487     TIP3     H1       HT       0.417000       1.00800           0   0.00000       0.00000    
     41377 TIP3     5487     TIP3     H2       HT       0.417000       1.00800           0   0.00000     -0.301140E-02
     41378 TIP3     5488     TIP3     OH2      OT      -0.834000       15.9994           0   0.00000       0.00000    
     41379 TIP3     5488     TIP3     H1       HT       0.417000       1.00800           0   0.00000       0.00000    
     41380 TIP3     5488     TIP3     H2       HT       0.417000       1.00800           0   0.00000     -0.301140E-02
     41381 TIP3     5489     TIP3     OH2      OT      -0.834000       15.9994           0   0.00000       0.00000    
     41382 TIP3     5489     TIP3     H1       HT       0.417000       1.00800           0   0.00000       0.00000    
     41383 TIP3     5489     TIP3     H2       HT       0.417000       1.00800           0   0.00000     -0.301140E-02
     41384 TIP3     5490     TIP3     OH2      OT      -0.834000       15.9994           0   0.00000       0.00000    
     41385 TIP3     5490     TIP3     H1       HT       0.417000       1.00800           0   0.00000       0.00000    
     41386 TIP3     5490     TIP3     H2       HT       0.417000       1.00800           0   0.00000     -0.301140E-02
     41387 TIP3     5491     TIP3     OH2      OT      -0.834000       15.9994           0   0.00000       0.00000    
     41388 TIP3     5491     TIP3     H1       HT       0.417000       1.00800           0   0.00000       0.00000    
     41389 TIP3     5491     TIP3     H2       HT       0.417000       1.00800           0   0.00000     -0.301140E-02
     41390 TIP3     5492     TIP3     OH2      OT      -0.834000       15.9994           0   0.00000       0.00000    
     41391 TIP3     5492     TIP3     H1       HT       0.417000       1.00800           0   0.00000       0.00000    
     41392 TIP3     5492     TIP3     H2       HT       0.417000       1.00800           0   0.00000     -0.301140E-02
     41393 TIP3     5493     TIP3     OH2      OT      -0.834000       15.9994           0   0.00000       0.00000    
     41394 TIP3     5493     TIP3     H1       HT       0.417000       1.00800           0   0.00000       0.00000    
     41395 TIP3     5493     TIP3     H2       HT       0.417000       1.00800           0   0.00000     -0.301140E-02
     41396 TIP3     5494     TIP3     OH2      OT      -0.834000       15.9994           0   0.00000       0.00000    
     41397 TIP3     5494     TIP3     H1       HT       0.417000       1.00800           0   0.00000       0.00000    
     41398 TIP3     5494     TIP3     H2       HT       0.417000       1.00800           0   0.00000     -0.301140E-02
     41399 TIP3     5495     TIP3     OH2      OT      -0.834000       15.9994           0   0.00000       0.00000    
     41400 TIP3     5495     TIP3     H1       HT       0.417000       1.00800           0   0.00000       0.00000    
     41401 TIP3     5495     TIP3     H2       HT       0.417000       1.00800           0   0.00000     -0.301140E-02
     41402 TIP3     5496     TIP3     OH2      OT      -0.834000       15.9994           0   0.00000       0.00000    
     41403 TIP3     5496     TIP3     H1       HT       0.417000       1.00800           0   0.00000       0.00000    
     41404 TIP3     5496     TIP3     H2       HT       0.417000       1.00800           0   0.00000     -0.301140E-02
     41405 TIP3     5497     TIP3     OH2      OT      -0.834000       15.9994           0   0.00000       0.00000    
     41406 TIP3     5497     TIP3     H1       HT       0.417000       1.00800           0   0.00000       0.00000    
     41407 TIP3     5497     TIP3     H2       HT       0.417000       1.00800           0   0.00000     -0.301140E-02
     41408 TIP3     5498     TIP3     OH2      OT      -0.834000       15.9994           0   0.00000       0.00000    
     41409 TIP3     5498     TIP3     H1       HT       0.417000       1.00800           0   0.00000       0.00000    
     41410 TIP3     5498     TIP3     H2       HT       0.417000       1.00800           0   0.00000     -0.301140E-02
     41411 TIP3     5499     TIP3     OH2      OT      -0.834000       15.9994           0   0.00000       0.00000    
     41412 TIP3     5499     TIP3     H1       HT       0.417000       1.00800           0   0.00000       0.00000    
     41413 TIP3     5499     TIP3     H2       HT       0.417000       1.00800           0   0.00000     -0.301140E-02
     41414 TIP3     5500     TIP3     OH2      OT      -0.834000       15.9994           0   0.00000       0.00000    
     41415 TIP3     5500     TIP3     H1       HT       0.417000       1.00800           0   0.00000       0.00000    
     41416 TIP3     5500     TIP3     H2       HT       0.417000       1.00800           0   0.00000     -0.301140E-02
     41417 TIP3     5501     TIP3     OH2      OT      -0.834000       15.9994           0   0.00000       0.00000    
     41418 TIP3     5501     TIP3     H1       HT       0.417000       1.00800           0   0.00000       0.00000    
     41419 TIP3     5501     TIP3     H2       HT       0.417000       1.00800           0   0.00000     -0.301140E-02
     41420 TIP3     5502     TIP3     OH2      OT      -0.834000       15.9994           0   0.00000       0.00000    
     41421 TIP3     5502     TIP3     H1       HT       0.417000       1.00800           0   0.00000       0.00000    
     41422 TIP3     5502     TIP3     H2       HT       0.417000       1.00800           0   0.00000     -0.301140E-02
     41423 TIP3     5503     TIP3     OH2      OT      -0.834000       15.9994           0   0.00000       0.00000    
     41424 TIP3     5503     TIP3     H1       HT       0.417000       1.00800           0   0.00000       0.00000    
     41425 TIP3     5503     TIP3     H2       HT       0.417000       1.00800           0   0.00000     -0.301140E-02
     41426 TIP3     5504     TIP3     OH2      OT      -0.834000       15.9994           0   0.00000       0.00000    
     41427 TIP3     5504     TIP3     H1       HT       0.417000       1.00800           0   0.00000       0.00000    
     41428 TIP3     5504     TIP3     H2       HT       0.417000       1.00800           0   0.00000     -0.301140E-02
     41429 TIP3     5505     TIP3     OH2      OT      -0.834000       15.9994           0   0.00000       0.00000    
     41430 TIP3     5505     TIP3     H1       HT       0.417000       1.00800           0   0.00000       0.00000    
     41431 TIP3     5505     TIP3     H2       HT       0.417000       1.00800           0   0.00000     -0.301140E-02
     41432 TIP3     5506     TIP3     OH2      OT      -0.834000       15.9994           0   0.00000       0.00000    
     41433 TIP3     5506     TIP3     H1       HT       0.417000       1.00800           0   0.00000       0.00000    
     41434 TIP3     5506     TIP3     H2       HT       0.417000       1.00800           0   0.00000     -0.301140E-02
     41435 TIP3     5507     TIP3     OH2      OT      -0.834000       15.9994           0   0.00000       0.00000    
     41436 TIP3     5507     TIP3     H1       HT       0.417000       1.00800           0   0.00000       0.00000    
     41437 TIP3     5507     TIP3     H2       HT       0.417000       1.00800           0   0.00000     -0.301140E-02
     41438 TIP3     5508     TIP3     OH2      OT      -0.834000       15.9994           0   0.00000       0.00000    
     41439 TIP3     5508     TIP3     H1       HT       0.417000       1.00800           0   0.00000       0.00000    
     41440 TIP3     5508     TIP3     H2       HT       0.417000       1.00800           0   0.00000     -0.301140E-02
     41441 TIP3     5509     TIP3     OH2      OT      -0.834000       15.9994           0   0.00000       0.00000    
     41442 TIP3     5509     TIP3     H1       HT       0.417000       1.00800           0   0.00000       0.00000    
     41443 TIP3     5509     TIP3     H2       HT       0.417000       1.00800           0   0.00000     -0.301140E-02
     41444 TIP3     5510     TIP3     OH2      OT      -0.834000       15.9994           0   0.00000       0.00000    
     41445 TIP3     5510     TIP3     H1       HT       0.417000       1.00800           0   0.00000       0.00000    
     41446 TIP3     5510     TIP3     H2       HT       0.417000       1.00800           0   0.00000     -0.301140E-02
     41447 TIP3     5511     TIP3     OH2      OT      -0.834000       15.9994           0   0.00000       0.00000    
     41448 TIP3     5511     TIP3     H1       HT       0.417000       1.00800           0   0.00000       0.00000    
     41449 TIP3     5511     TIP3     H2       HT       0.417000       1.00800           0   0.00000     -0.301140E-02
     41450 TIP3     5512     TIP3     OH2      OT      -0.834000       15.9994           0   0.00000       0.00000    
     41451 TIP3     5512     TIP3     H1       HT       0.417000       1.00800           0   0.00000       0.00000    
     41452 TIP3     5512     TIP3     H2       HT       0.417000       1.00800           0   0.00000     -0.301140E-02
     41453 TIP3     5513     TIP3     OH2      OT      -0.834000       15.9994           0   0.00000       0.00000    
     41454 TIP3     5513     TIP3     H1       HT       0.417000       1.00800           0   0.00000       0.00000    
     41455 TIP3     5513     TIP3     H2       HT       0.417000       1.00800           0   0.00000     -0.301140E-02
     41456 TIP3     5514     TIP3     OH2      OT      -0.834000       15.9994           0   0.00000       0.00000    
     41457 TIP3     5514     TIP3     H1       HT       0.417000       1.00800           0   0.00000       0.00000    
     41458 TIP3     5514     TIP3     H2       HT       0.417000       1.00800           0   0.00000     -0.301140E-02
     41459 TIP3     5515     TIP3     OH2      OT      -0.834000       15.9994           0   0.00000       0.00000    
     41460 TIP3     5515     TIP3     H1       HT       0.417000       1.00800           0   0.00000       0.00000    
     41461 TIP3     5515     TIP3     H2       HT       0.417000       1.00800           0   0.00000     -0.301140E-02
     41462 TIP3     5516     TIP3     OH2      OT      -0.834000       15.9994           0   0.00000       0.00000    
     41463 TIP3     5516     TIP3     H1       HT       0.417000       1.00800           0   0.00000       0.00000    
     41464 TIP3     5516     TIP3     H2       HT       0.417000       1.00800           0   0.00000     -0.301140E-02
     41465 TIP3     5517     TIP3     OH2      OT      -0.834000       15.9994           0   0.00000       0.00000    
     41466 TIP3     5517     TIP3     H1       HT       0.417000       1.00800           0   0.00000       0.00000    
     41467 TIP3     5517     TIP3     H2       HT       0.417000       1.00800           0   0.00000     -0.301140E-02
     41468 TIP3     5518     TIP3     OH2      OT      -0.834000       15.9994           0   0.00000       0.00000    
     41469 TIP3     5518     TIP3     H1       HT       0.417000       1.00800           0   0.00000       0.00000    
     41470 TIP3     5518     TIP3     H2       HT       0.417000       1.00800           0   0.00000     -0.301140E-02
     41471 TIP3     5519     TIP3     OH2      OT      -0.834000       15.9994           0   0.00000       0.00000    
     41472 TIP3     5519     TIP3     H1       HT       0.417000       1.00800           0   0.00000       0.00000    
     41473 TIP3     5519     TIP3     H2       HT       0.417000       1.00800           0   0.00000     -0.301140E-02
     41474 TIP3     5520     TIP3     OH2      OT      -0.834000       15.9994           0   0.00000       0.00000    
     41475 TIP3     5520     TIP3     H1       HT       0.417000       1.00800           0   0.00000       0.00000    
     41476 TIP3     5520     TIP3     H2       HT       0.417000       1.00800           0   0.00000     -0.301140E-02
     41477 TIP3     5521     TIP3     OH2      OT      -0.834000       15.9994           0   0.00000       0.00000    
     41478 TIP3     5521     TIP3     H1       HT       0.417000       1.00800           0   0.00000       0.00000    
     41479 TIP3     5521     TIP3     H2       HT       0.417000       1.00800           0   0.00000     -0.301140E-02
     41480 TIP3     5522     TIP3     OH2      OT      -0.834000       15.9994           0   0.00000       0.00000    
     41481 TIP3     5522     TIP3     H1       HT       0.417000       1.00800           0   0.00000       0.00000    
     41482 TIP3     5522     TIP3     H2       HT       0.417000       1.00800           0   0.00000     -0.301140E-02
     41483 TIP3     5523     TIP3     OH2      OT      -0.834000       15.9994           0   0.00000       0.00000    
     41484 TIP3     5523     TIP3     H1       HT       0.417000       1.00800           0   0.00000       0.00000    
     41485 TIP3     5523     TIP3     H2       HT       0.417000       1.00800           0   0.00000     -0.301140E-02
     41486 TIP3     5524     TIP3     OH2      OT      -0.834000       15.9994           0   0.00000       0.00000    
     41487 TIP3     5524     TIP3     H1       HT       0.417000       1.00800           0   0.00000       0.00000    
     41488 TIP3     5524     TIP3     H2       HT       0.417000       1.00800           0   0.00000     -0.301140E-02
     41489 TIP3     5525     TIP3     OH2      OT      -0.834000       15.9994           0   0.00000       0.00000    
     41490 TIP3     5525     TIP3     H1       HT       0.417000       1.00800           0   0.00000       0.00000    
     41491 TIP3     5525     TIP3     H2       HT       0.417000       1.00800           0   0.00000     -0.301140E-02
     41492 TIP3     5526     TIP3     OH2      OT      -0.834000       15.9994           0   0.00000       0.00000    
     41493 TIP3     5526     TIP3     H1       HT       0.417000       1.00800           0   0.00000       0.00000    
     41494 TIP3     5526     TIP3     H2       HT       0.417000       1.00800           0   0.00000     -0.301140E-02
     41495 TIP3     5527     TIP3     OH2      OT      -0.834000       15.9994           0   0.00000       0.00000    
     41496 TIP3     5527     TIP3     H1       HT       0.417000       1.00800           0   0.00000       0.00000    
     41497 TIP3     5527     TIP3     H2       HT       0.417000       1.00800           0   0.00000     -0.301140E-02
     41498 TIP3     5528     TIP3     OH2      OT      -0.834000       15.9994           0   0.00000       0.00000    
     41499 TIP3     5528     TIP3     H1       HT       0.417000       1.00800           0   0.00000       0.00000    
     41500 TIP3     5528     TIP3     H2       HT       0.417000       1.00800           0   0.00000     -0.301140E-02
     41501 TIP3     5529     TIP3     OH2      OT      -0.834000       15.9994           0   0.00000       0.00000    
     41502 TIP3     5529     TIP3     H1       HT       0.417000       1.00800           0   0.00000       0.00000    
     41503 TIP3     5529     TIP3     H2       HT       0.417000       1.00800           0   0.00000     -0.301140E-02
     41504 TIP3     5530     TIP3     OH2      OT      -0.834000       15.9994           0   0.00000       0.00000    
     41505 TIP3     5530     TIP3     H1       HT       0.417000       1.00800           0   0.00000       0.00000    
     41506 TIP3     5530     TIP3     H2       HT       0.417000       1.00800           0   0.00000     -0.301140E-02
     41507 TIP3     5531     TIP3     OH2      OT      -0.834000       15.9994           0   0.00000       0.00000    
     41508 TIP3     5531     TIP3     H1       HT       0.417000       1.00800           0   0.00000       0.00000    
     41509 TIP3     5531     TIP3     H2       HT       0.417000       1.00800           0   0.00000     -0.301140E-02
     41510 TIP3     5532     TIP3     OH2      OT      -0.834000       15.9994           0   0.00000       0.00000    
     41511 TIP3     5532     TIP3     H1       HT       0.417000       1.00800           0   0.00000       0.00000    
     41512 TIP3     5532     TIP3     H2       HT       0.417000       1.00800           0   0.00000     -0.301140E-02
     41513 TIP3     5533     TIP3     OH2      OT      -0.834000       15.9994           0   0.00000       0.00000    
     41514 TIP3     5533     TIP3     H1       HT       0.417000       1.00800           0   0.00000       0.00000    
     41515 TIP3     5533     TIP3     H2       HT       0.417000       1.00800           0   0.00000     -0.301140E-02
     41516 TIP3     5534     TIP3     OH2      OT      -0.834000       15.9994           0   0.00000       0.00000    
     41517 TIP3     5534     TIP3     H1       HT       0.417000       1.00800           0   0.00000       0.00000    
     41518 TIP3     5534     TIP3     H2       HT       0.417000       1.00800           0   0.00000     -0.301140E-02
     41519 TIP3     5535     TIP3     OH2      OT      -0.834000       15.9994           0   0.00000       0.00000    
     41520 TIP3     5535     TIP3     H1       HT       0.417000       1.00800           0   0.00000       0.00000    
     41521 TIP3     5535     TIP3     H2       HT       0.417000       1.00800           0   0.00000     -0.301140E-02
     41522 TIP3     5536     TIP3     OH2      OT      -0.834000       15.9994           0   0.00000       0.00000    
     41523 TIP3     5536     TIP3     H1       HT       0.417000       1.00800           0   0.00000       0.00000    
     41524 TIP3     5536     TIP3     H2       HT       0.417000       1.00800           0   0.00000     -0.301140E-02
     41525 TIP3     5537     TIP3     OH2      OT      -0.834000       15.9994           0   0.00000       0.00000    
     41526 TIP3     5537     TIP3     H1       HT       0.417000       1.00800           0   0.00000       0.00000    
     41527 TIP3     5537     TIP3     H2       HT       0.417000       1.00800           0   0.00000     -0.301140E-02
     41528 TIP3     5538     TIP3     OH2      OT      -0.834000       15.9994           0   0.00000       0.00000    
     41529 TIP3     5538     TIP3     H1       HT       0.417000       1.00800           0   0.00000       0.00000    
     41530 TIP3     5538     TIP3     H2       HT       0.417000       1.00800           0   0.00000     -0.301140E-02
     41531 TIP3     5539     TIP3     OH2      OT      -0.834000       15.9994           0   0.00000       0.00000    
     41532 TIP3     5539     TIP3     H1       HT       0.417000       1.00800           0   0.00000       0.00000    
     41533 TIP3     5539     TIP3     H2       HT       0.417000       1.00800           0   0.00000     -0.301140E-02
     41534 TIP3     5540     TIP3     OH2      OT      -0.834000       15.9994           0   0.00000       0.00000    
     41535 TIP3     5540     TIP3     H1       HT       0.417000       1.00800           0   0.00000       0.00000    
     41536 TIP3     5540     TIP3     H2       HT       0.417000       1.00800           0   0.00000     -0.301140E-02
     41537 TIP3     5541     TIP3     OH2      OT      -0.834000       15.9994           0   0.00000       0.00000    
     41538 TIP3     5541     TIP3     H1       HT       0.417000       1.00800           0   0.00000       0.00000    
     41539 TIP3     5541     TIP3     H2       HT       0.417000       1.00800           0   0.00000     -0.301140E-02
     41540 TIP3     5542     TIP3     OH2      OT      -0.834000       15.9994           0   0.00000       0.00000    
     41541 TIP3     5542     TIP3     H1       HT       0.417000       1.00800           0   0.00000       0.00000    
     41542 TIP3     5542     TIP3     H2       HT       0.417000       1.00800           0   0.00000     -0.301140E-02
     41543 TIP3     5543     TIP3     OH2      OT      -0.834000       15.9994           0   0.00000       0.00000    
     41544 TIP3     5543     TIP3     H1       HT       0.417000       1.00800           0   0.00000       0.00000    
     41545 TIP3     5543     TIP3     H2       HT       0.417000       1.00800           0   0.00000     -0.301140E-02
     41546 TIP3     5544     TIP3     OH2      OT      -0.834000       15.9994           0   0.00000       0.00000    
     41547 TIP3     5544     TIP3     H1       HT       0.417000       1.00800           0   0.00000       0.00000    
     41548 TIP3     5544     TIP3     H2       HT       0.417000       1.00800           0   0.00000     -0.301140E-02
     41549 TIP3     5545     TIP3     OH2      OT      -0.834000       15.9994           0   0.00000       0.00000    
     41550 TIP3     5545     TIP3     H1       HT       0.417000       1.00800           0   0.00000       0.00000    
     41551 TIP3     5545     TIP3     H2       HT       0.417000       1.00800           0   0.00000     -0.301140E-02
     41552 TIP3     5546     TIP3     OH2      OT      -0.834000       15.9994           0   0.00000       0.00000    
     41553 TIP3     5546     TIP3     H1       HT       0.417000       1.00800           0   0.00000       0.00000    
     41554 TIP3     5546     TIP3     H2       HT       0.417000       1.00800           0   0.00000     -0.301140E-02
     41555 TIP3     5547     TIP3     OH2      OT      -0.834000       15.9994           0   0.00000       0.00000    
     41556 TIP3     5547     TIP3     H1       HT       0.417000       1.00800           0   0.00000       0.00000    
     41557 TIP3     5547     TIP3     H2       HT       0.417000       1.00800           0   0.00000     -0.301140E-02
     41558 TIP3     5548     TIP3     OH2      OT      -0.834000       15.9994           0   0.00000       0.00000    
     41559 TIP3     5548     TIP3     H1       HT       0.417000       1.00800           0   0.00000       0.00000    
     41560 TIP3     5548     TIP3     H2       HT       0.417000       1.00800           0   0.00000     -0.301140E-02
     41561 TIP3     5549     TIP3     OH2      OT      -0.834000       15.9994           0   0.00000       0.00000    
     41562 TIP3     5549     TIP3     H1       HT       0.417000       1.00800           0   0.00000       0.00000    
     41563 TIP3     5549     TIP3     H2       HT       0.417000       1.00800           0   0.00000     -0.301140E-02
     41564 TIP3     5550     TIP3     OH2      OT      -0.834000       15.9994           0   0.00000       0.00000    
     41565 TIP3     5550     TIP3     H1       HT       0.417000       1.00800           0   0.00000       0.00000    
     41566 TIP3     5550     TIP3     H2       HT       0.417000       1.00800           0   0.00000     -0.301140E-02
     41567 TIP3     5551     TIP3     OH2      OT      -0.834000       15.9994           0   0.00000       0.00000    
     41568 TIP3     5551     TIP3     H1       HT       0.417000       1.00800           0   0.00000       0.00000    
     41569 TIP3     5551     TIP3     H2       HT       0.417000       1.00800           0   0.00000     -0.301140E-02
     41570 TIP3     5552     TIP3     OH2      OT      -0.834000       15.9994           0   0.00000       0.00000    
     41571 TIP3     5552     TIP3     H1       HT       0.417000       1.00800           0   0.00000       0.00000    
     41572 TIP3     5552     TIP3     H2       HT       0.417000       1.00800           0   0.00000     -0.301140E-02
     41573 TIP3     5553     TIP3     OH2      OT      -0.834000       15.9994           0   0.00000       0.00000    
     41574 TIP3     5553     TIP3     H1       HT       0.417000       1.00800           0   0.00000       0.00000    
     41575 TIP3     5553     TIP3     H2       HT       0.417000       1.00800           0   0.00000     -0.301140E-02
     41576 TIP3     5554     TIP3     OH2      OT      -0.834000       15.9994           0   0.00000       0.00000    
     41577 TIP3     5554     TIP3     H1       HT       0.417000       1.00800           0   0.00000       0.00000    
     41578 TIP3     5554     TIP3     H2       HT       0.417000       1.00800           0   0.00000     -0.301140E-02
     41579 TIP3     5555     TIP3     OH2      OT      -0.834000       15.9994           0   0.00000       0.00000    
     41580 TIP3     5555     TIP3     H1       HT       0.417000       1.00800           0   0.00000       0.00000    
     41581 TIP3     5555     TIP3     H2       HT       0.417000       1.00800           0   0.00000     -0.301140E-02
     41582 TIP3     5556     TIP3     OH2      OT      -0.834000       15.9994           0   0.00000       0.00000    
     41583 TIP3     5556     TIP3     H1       HT       0.417000       1.00800           0   0.00000       0.00000    
     41584 TIP3     5556     TIP3     H2       HT       0.417000       1.00800           0   0.00000     -0.301140E-02
     41585 TIP3     5557     TIP3     OH2      OT      -0.834000       15.9994           0   0.00000       0.00000    
     41586 TIP3     5557     TIP3     H1       HT       0.417000       1.00800           0   0.00000       0.00000    
     41587 TIP3     5557     TIP3     H2       HT       0.417000       1.00800           0   0.00000     -0.301140E-02
     41588 TIP3     5558     TIP3     OH2      OT      -0.834000       15.9994           0   0.00000       0.00000    
     41589 TIP3     5558     TIP3     H1       HT       0.417000       1.00800           0   0.00000       0.00000    
     41590 TIP3     5558     TIP3     H2       HT       0.417000       1.00800           0   0.00000     -0.301140E-02
     41591 TIP3     5559     TIP3     OH2      OT      -0.834000       15.9994           0   0.00000       0.00000    
     41592 TIP3     5559     TIP3     H1       HT       0.417000       1.00800           0   0.00000       0.00000    
     41593 TIP3     5559     TIP3     H2       HT       0.417000       1.00800           0   0.00000     -0.301140E-02
     41594 TIP3     5560     TIP3     OH2      OT      -0.834000       15.9994           0   0.00000       0.00000    
     41595 TIP3     5560     TIP3     H1       HT       0.417000       1.00800           0   0.00000       0.00000    
     41596 TIP3     5560     TIP3     H2       HT       0.417000       1.00800           0   0.00000     -0.301140E-02
     41597 TIP3     5561     TIP3     OH2      OT      -0.834000       15.9994           0   0.00000       0.00000    
     41598 TIP3     5561     TIP3     H1       HT       0.417000       1.00800           0   0.00000       0.00000    
     41599 TIP3     5561     TIP3     H2       HT       0.417000       1.00800           0   0.00000     -0.301140E-02
     41600 TIP3     5562     TIP3     OH2      OT      -0.834000       15.9994           0   0.00000       0.00000    
     41601 TIP3     5562     TIP3     H1       HT       0.417000       1.00800           0   0.00000       0.00000    
     41602 TIP3     5562     TIP3     H2       HT       0.417000       1.00800           0   0.00000     -0.301140E-02
     41603 TIP3     5563     TIP3     OH2      OT      -0.834000       15.9994           0   0.00000       0.00000    
     41604 TIP3     5563     TIP3     H1       HT       0.417000       1.00800           0   0.00000       0.00000    
     41605 TIP3     5563     TIP3     H2       HT       0.417000       1.00800           0   0.00000     -0.301140E-02
     41606 TIP3     5564     TIP3     OH2      OT      -0.834000       15.9994           0   0.00000       0.00000    
     41607 TIP3     5564     TIP3     H1       HT       0.417000       1.00800           0   0.00000       0.00000    
     41608 TIP3     5564     TIP3     H2       HT       0.417000       1.00800           0   0.00000     -0.301140E-02
     41609 TIP3     5565     TIP3     OH2      OT      -0.834000       15.9994           0   0.00000       0.00000    
     41610 TIP3     5565     TIP3     H1       HT       0.417000       1.00800           0   0.00000       0.00000    
     41611 TIP3     5565     TIP3     H2       HT       0.417000       1.00800           0   0.00000     -0.301140E-02
     41612 TIP3     5566     TIP3     OH2      OT      -0.834000       15.9994           0   0.00000       0.00000    
     41613 TIP3     5566     TIP3     H1       HT       0.417000       1.00800           0   0.00000       0.00000    
     41614 TIP3     5566     TIP3     H2       HT       0.417000       1.00800           0   0.00000     -0.301140E-02
     41615 TIP3     5567     TIP3     OH2      OT      -0.834000       15.9994           0   0.00000       0.00000    
     41616 TIP3     5567     TIP3     H1       HT       0.417000       1.00800           0   0.00000       0.00000    
     41617 TIP3     5567     TIP3     H2       HT       0.417000       1.00800           0   0.00000     -0.301140E-02
     41618 TIP3     5568     TIP3     OH2      OT      -0.834000       15.9994           0   0.00000       0.00000    
     41619 TIP3     5568     TIP3     H1       HT       0.417000       1.00800           0   0.00000       0.00000    
     41620 TIP3     5568     TIP3     H2       HT       0.417000       1.00800           0   0.00000     -0.301140E-02
     41621 TIP3     5569     TIP3     OH2      OT      -0.834000       15.9994           0   0.00000       0.00000    
     41622 TIP3     5569     TIP3     H1       HT       0.417000       1.00800           0   0.00000       0.00000    
     41623 TIP3     5569     TIP3     H2       HT       0.417000       1.00800           0   0.00000     -0.301140E-02
     41624 TIP3     5570     TIP3     OH2      OT      -0.834000       15.9994           0   0.00000       0.00000    
     41625 TIP3     5570     TIP3     H1       HT       0.417000       1.00800           0   0.00000       0.00000    
     41626 TIP3     5570     TIP3     H2       HT       0.417000       1.00800           0   0.00000     -0.301140E-02
     41627 TIP3     5571     TIP3     OH2      OT      -0.834000       15.9994           0   0.00000       0.00000    
     41628 TIP3     5571     TIP3     H1       HT       0.417000       1.00800           0   0.00000       0.00000    
     41629 TIP3     5571     TIP3     H2       HT       0.417000       1.00800           0   0.00000     -0.301140E-02
     41630 TIP3     5572     TIP3     OH2      OT      -0.834000       15.9994           0   0.00000       0.00000    
     41631 TIP3     5572     TIP3     H1       HT       0.417000       1.00800           0   0.00000       0.00000    
     41632 TIP3     5572     TIP3     H2       HT       0.417000       1.00800           0   0.00000     -0.301140E-02
     41633 TIP3     5573     TIP3     OH2      OT      -0.834000       15.9994           0   0.00000       0.00000    
     41634 TIP3     5573     TIP3     H1       HT       0.417000       1.00800           0   0.00000       0.00000    
     41635 TIP3     5573     TIP3     H2       HT       0.417000       1.00800           0   0.00000     -0.301140E-02
     41636 TIP3     5574     TIP3     OH2      OT      -0.834000       15.9994           0   0.00000       0.00000    
     41637 TIP3     5574     TIP3     H1       HT       0.417000       1.00800           0   0.00000       0.00000    
     41638 TIP3     5574     TIP3     H2       HT       0.417000       1.00800           0   0.00000     -0.301140E-02
     41639 TIP3     5575     TIP3     OH2      OT      -0.834000       15.9994           0   0.00000       0.00000    
     41640 TIP3     5575     TIP3     H1       HT       0.417000       1.00800           0   0.00000       0.00000    
     41641 TIP3     5575     TIP3     H2       HT       0.417000       1.00800           0   0.00000     -0.301140E-02
     41642 TIP3     5576     TIP3     OH2      OT      -0.834000       15.9994           0   0.00000       0.00000    
     41643 TIP3     5576     TIP3     H1       HT       0.417000       1.00800           0   0.00000       0.00000    
     41644 TIP3     5576     TIP3     H2       HT       0.417000       1.00800           0   0.00000     -0.301140E-02
     41645 TIP3     5577     TIP3     OH2      OT      -0.834000       15.9994           0   0.00000       0.00000    
     41646 TIP3     5577     TIP3     H1       HT       0.417000       1.00800           0   0.00000       0.00000    
     41647 TIP3     5577     TIP3     H2       HT       0.417000       1.00800           0   0.00000     -0.301140E-02
     41648 TIP3     5578     TIP3     OH2      OT      -0.834000       15.9994           0   0.00000       0.00000    
     41649 TIP3     5578     TIP3     H1       HT       0.417000       1.00800           0   0.00000       0.00000    
     41650 TIP3     5578     TIP3     H2       HT       0.417000       1.00800           0   0.00000     -0.301140E-02
     41651 TIP3     5579     TIP3     OH2      OT      -0.834000       15.9994           0   0.00000       0.00000    
     41652 TIP3     5579     TIP3     H1       HT       0.417000       1.00800           0   0.00000       0.00000    
     41653 TIP3     5579     TIP3     H2       HT       0.417000       1.00800           0   0.00000     -0.301140E-02
     41654 TIP3     5580     TIP3     OH2      OT      -0.834000       15.9994           0   0.00000       0.00000    
     41655 TIP3     5580     TIP3     H1       HT       0.417000       1.00800           0   0.00000       0.00000    
     41656 TIP3     5580     TIP3     H2       HT       0.417000       1.00800           0   0.00000     -0.301140E-02
     41657 TIP3     5581     TIP3     OH2      OT      -0.834000       15.9994           0   0.00000       0.00000    
     41658 TIP3     5581     TIP3     H1       HT       0.417000       1.00800           0   0.00000       0.00000    
     41659 TIP3     5581     TIP3     H2       HT       0.417000       1.00800           0   0.00000     -0.301140E-02
     41660 TIP3     5582     TIP3     OH2      OT      -0.834000       15.9994           0   0.00000       0.00000    
     41661 TIP3     5582     TIP3     H1       HT       0.417000       1.00800           0   0.00000       0.00000    
     41662 TIP3     5582     TIP3     H2       HT       0.417000       1.00800           0   0.00000     -0.301140E-02
     41663 TIP3     5583     TIP3     OH2      OT      -0.834000       15.9994           0   0.00000       0.00000    
     41664 TIP3     5583     TIP3     H1       HT       0.417000       1.00800           0   0.00000       0.00000    
     41665 TIP3     5583     TIP3     H2       HT       0.417000       1.00800           0   0.00000     -0.301140E-02
     41666 TIP3     5584     TIP3     OH2      OT      -0.834000       15.9994           0   0.00000       0.00000    
     41667 TIP3     5584     TIP3     H1       HT       0.417000       1.00800           0   0.00000       0.00000    
     41668 TIP3     5584     TIP3     H2       HT       0.417000       1.00800           0   0.00000     -0.301140E-02
     41669 TIP3     5585     TIP3     OH2      OT      -0.834000       15.9994           0   0.00000       0.00000    
     41670 TIP3     5585     TIP3     H1       HT       0.417000       1.00800           0   0.00000       0.00000    
     41671 TIP3     5585     TIP3     H2       HT       0.417000       1.00800           0   0.00000     -0.301140E-02
     41672 TIP3     5586     TIP3     OH2      OT      -0.834000       15.9994           0   0.00000       0.00000    
     41673 TIP3     5586     TIP3     H1       HT       0.417000       1.00800           0   0.00000       0.00000    
     41674 TIP3     5586     TIP3     H2       HT       0.417000       1.00800           0   0.00000     -0.301140E-02
     41675 TIP3     5587     TIP3     OH2      OT      -0.834000       15.9994           0   0.00000       0.00000    
     41676 TIP3     5587     TIP3     H1       HT       0.417000       1.00800           0   0.00000       0.00000    
     41677 TIP3     5587     TIP3     H2       HT       0.417000       1.00800           0   0.00000     -0.301140E-02
     41678 TIP3     5588     TIP3     OH2      OT      -0.834000       15.9994           0   0.00000       0.00000    
     41679 TIP3     5588     TIP3     H1       HT       0.417000       1.00800           0   0.00000       0.00000    
     41680 TIP3     5588     TIP3     H2       HT       0.417000       1.00800           0   0.00000     -0.301140E-02
     41681 TIP3     5589     TIP3     OH2      OT      -0.834000       15.9994           0   0.00000       0.00000    
     41682 TIP3     5589     TIP3     H1       HT       0.417000       1.00800           0   0.00000       0.00000    
     41683 TIP3     5589     TIP3     H2       HT       0.417000       1.00800           0   0.00000     -0.301140E-02
     41684 TIP3     5590     TIP3     OH2      OT      -0.834000       15.9994           0   0.00000       0.00000    
     41685 TIP3     5590     TIP3     H1       HT       0.417000       1.00800           0   0.00000       0.00000    
     41686 TIP3     5590     TIP3     H2       HT       0.417000       1.00800           0   0.00000     -0.301140E-02
     41687 TIP3     5591     TIP3     OH2      OT      -0.834000       15.9994           0   0.00000       0.00000    
     41688 TIP3     5591     TIP3     H1       HT       0.417000       1.00800           0   0.00000       0.00000    
     41689 TIP3     5591     TIP3     H2       HT       0.417000       1.00800           0   0.00000     -0.301140E-02
     41690 TIP3     5592     TIP3     OH2      OT      -0.834000       15.9994           0   0.00000       0.00000    
     41691 TIP3     5592     TIP3     H1       HT       0.417000       1.00800           0   0.00000       0.00000    
     41692 TIP3     5592     TIP3     H2       HT       0.417000       1.00800           0   0.00000     -0.301140E-02
     41693 TIP3     5593     TIP3     OH2      OT      -0.834000       15.9994           0   0.00000       0.00000    
     41694 TIP3     5593     TIP3     H1       HT       0.417000       1.00800           0   0.00000       0.00000    
     41695 TIP3     5593     TIP3     H2       HT       0.417000       1.00800           0   0.00000     -0.301140E-02
     41696 TIP3     5594     TIP3     OH2      OT      -0.834000       15.9994           0   0.00000       0.00000    
     41697 TIP3     5594     TIP3     H1       HT       0.417000       1.00800           0   0.00000       0.00000    
     41698 TIP3     5594     TIP3     H2       HT       0.417000       1.00800           0   0.00000     -0.301140E-02
     41699 TIP3     5595     TIP3     OH2      OT      -0.834000       15.9994           0   0.00000       0.00000    
     41700 TIP3     5595     TIP3     H1       HT       0.417000       1.00800           0   0.00000       0.00000    
     41701 TIP3     5595     TIP3     H2       HT       0.417000       1.00800           0   0.00000     -0.301140E-02
     41702 TIP3     5596     TIP3     OH2      OT      -0.834000       15.9994           0   0.00000       0.00000    
     41703 TIP3     5596     TIP3     H1       HT       0.417000       1.00800           0   0.00000       0.00000    
     41704 TIP3     5596     TIP3     H2       HT       0.417000       1.00800           0   0.00000     -0.301140E-02
     41705 TIP3     5597     TIP3     OH2      OT      -0.834000       15.9994           0   0.00000       0.00000    
     41706 TIP3     5597     TIP3     H1       HT       0.417000       1.00800           0   0.00000       0.00000    
     41707 TIP3     5597     TIP3     H2       HT       0.417000       1.00800           0   0.00000     -0.301140E-02
     41708 TIP3     5598     TIP3     OH2      OT      -0.834000       15.9994           0   0.00000       0.00000    
     41709 TIP3     5598     TIP3     H1       HT       0.417000       1.00800           0   0.00000       0.00000    
     41710 TIP3     5598     TIP3     H2       HT       0.417000       1.00800           0   0.00000     -0.301140E-02
     41711 TIP3     5599     TIP3     OH2      OT      -0.834000       15.9994           0   0.00000       0.00000    
     41712 TIP3     5599     TIP3     H1       HT       0.417000       1.00800           0   0.00000       0.00000    
     41713 TIP3     5599     TIP3     H2       HT       0.417000       1.00800           0   0.00000     -0.301140E-02
     41714 TIP3     5600     TIP3     OH2      OT      -0.834000       15.9994           0   0.00000       0.00000    
     41715 TIP3     5600     TIP3     H1       HT       0.417000       1.00800           0   0.00000       0.00000    
     41716 TIP3     5600     TIP3     H2       HT       0.417000       1.00800           0   0.00000     -0.301140E-02
     41717 TIP3     5601     TIP3     OH2      OT      -0.834000       15.9994           0   0.00000       0.00000    
     41718 TIP3     5601     TIP3     H1       HT       0.417000       1.00800           0   0.00000       0.00000    
     41719 TIP3     5601     TIP3     H2       HT       0.417000       1.00800           0   0.00000     -0.301140E-02
     41720 TIP3     5602     TIP3     OH2      OT      -0.834000       15.9994           0   0.00000       0.00000    
     41721 TIP3     5602     TIP3     H1       HT       0.417000       1.00800           0   0.00000       0.00000    
     41722 TIP3     5602     TIP3     H2       HT       0.417000       1.00800           0   0.00000     -0.301140E-02
     41723 TIP3     5603     TIP3     OH2      OT      -0.834000       15.9994           0   0.00000       0.00000    
     41724 TIP3     5603     TIP3     H1       HT       0.417000       1.00800           0   0.00000       0.00000    
     41725 TIP3     5603     TIP3     H2       HT       0.417000       1.00800           0   0.00000     -0.301140E-02
     41726 TIP3     5604     TIP3     OH2      OT      -0.834000       15.9994           0   0.00000       0.00000    
     41727 TIP3     5604     TIP3     H1       HT       0.417000       1.00800           0   0.00000       0.00000    
     41728 TIP3     5604     TIP3     H2       HT       0.417000       1.00800           0   0.00000     -0.301140E-02
     41729 TIP3     5605     TIP3     OH2      OT      -0.834000       15.9994           0   0.00000       0.00000    
     41730 TIP3     5605     TIP3     H1       HT       0.417000       1.00800           0   0.00000       0.00000    
     41731 TIP3     5605     TIP3     H2       HT       0.417000       1.00800           0   0.00000     -0.301140E-02
     41732 TIP3     5606     TIP3     OH2      OT      -0.834000       15.9994           0   0.00000       0.00000    
     41733 TIP3     5606     TIP3     H1       HT       0.417000       1.00800           0   0.00000       0.00000    
     41734 TIP3     5606     TIP3     H2       HT       0.417000       1.00800           0   0.00000     -0.301140E-02
     41735 TIP3     5607     TIP3     OH2      OT      -0.834000       15.9994           0   0.00000       0.00000    
     41736 TIP3     5607     TIP3     H1       HT       0.417000       1.00800           0   0.00000       0.00000    
     41737 TIP3     5607     TIP3     H2       HT       0.417000       1.00800           0   0.00000     -0.301140E-02
     41738 TIP3     5608     TIP3     OH2      OT      -0.834000       15.9994           0   0.00000       0.00000    
     41739 TIP3     5608     TIP3     H1       HT       0.417000       1.00800           0   0.00000       0.00000    
     41740 TIP3     5608     TIP3     H2       HT       0.417000       1.00800           0   0.00000     -0.301140E-02
     41741 TIP3     5609     TIP3     OH2      OT      -0.834000       15.9994           0   0.00000       0.00000    
     41742 TIP3     5609     TIP3     H1       HT       0.417000       1.00800           0   0.00000       0.00000    
     41743 TIP3     5609     TIP3     H2       HT       0.417000       1.00800           0   0.00000     -0.301140E-02
     41744 TIP3     5610     TIP3     OH2      OT      -0.834000       15.9994           0   0.00000       0.00000    
     41745 TIP3     5610     TIP3     H1       HT       0.417000       1.00800           0   0.00000       0.00000    
     41746 TIP3     5610     TIP3     H2       HT       0.417000       1.00800           0   0.00000     -0.301140E-02
     41747 TIP3     5611     TIP3     OH2      OT      -0.834000       15.9994           0   0.00000       0.00000    
     41748 TIP3     5611     TIP3     H1       HT       0.417000       1.00800           0   0.00000       0.00000    
     41749 TIP3     5611     TIP3     H2       HT       0.417000       1.00800           0   0.00000     -0.301140E-02
     41750 TIP3     5612     TIP3     OH2      OT      -0.834000       15.9994           0   0.00000       0.00000    
     41751 TIP3     5612     TIP3     H1       HT       0.417000       1.00800           0   0.00000       0.00000    
     41752 TIP3     5612     TIP3     H2       HT       0.417000       1.00800           0   0.00000     -0.301140E-02
     41753 TIP3     5613     TIP3     OH2      OT      -0.834000       15.9994           0   0.00000       0.00000    
     41754 TIP3     5613     TIP3     H1       HT       0.417000       1.00800           0   0.00000       0.00000    
     41755 TIP3     5613     TIP3     H2       HT       0.417000       1.00800           0   0.00000     -0.301140E-02
     41756 TIP3     5614     TIP3     OH2      OT      -0.834000       15.9994           0   0.00000       0.00000    
     41757 TIP3     5614     TIP3     H1       HT       0.417000       1.00800           0   0.00000       0.00000    
     41758 TIP3     5614     TIP3     H2       HT       0.417000       1.00800           0   0.00000     -0.301140E-02
     41759 TIP3     5615     TIP3     OH2      OT      -0.834000       15.9994           0   0.00000       0.00000    
     41760 TIP3     5615     TIP3     H1       HT       0.417000       1.00800           0   0.00000       0.00000    
     41761 TIP3     5615     TIP3     H2       HT       0.417000       1.00800           0   0.00000     -0.301140E-02
     41762 TIP3     5616     TIP3     OH2      OT      -0.834000       15.9994           0   0.00000       0.00000    
     41763 TIP3     5616     TIP3     H1       HT       0.417000       1.00800           0   0.00000       0.00000    
     41764 TIP3     5616     TIP3     H2       HT       0.417000       1.00800           0   0.00000     -0.301140E-02
     41765 TIP3     5617     TIP3     OH2      OT      -0.834000       15.9994           0   0.00000       0.00000    
     41766 TIP3     5617     TIP3     H1       HT       0.417000       1.00800           0   0.00000       0.00000    
     41767 TIP3     5617     TIP3     H2       HT       0.417000       1.00800           0   0.00000     -0.301140E-02
     41768 TIP3     5618     TIP3     OH2      OT      -0.834000       15.9994           0   0.00000       0.00000    
     41769 TIP3     5618     TIP3     H1       HT       0.417000       1.00800           0   0.00000       0.00000    
     41770 TIP3     5618     TIP3     H2       HT       0.417000       1.00800           0   0.00000     -0.301140E-02
     41771 TIP3     5619     TIP3     OH2      OT      -0.834000       15.9994           0   0.00000       0.00000    
     41772 TIP3     5619     TIP3     H1       HT       0.417000       1.00800           0   0.00000       0.00000    
     41773 TIP3     5619     TIP3     H2       HT       0.417000       1.00800           0   0.00000     -0.301140E-02
     41774 TIP3     5620     TIP3     OH2      OT      -0.834000       15.9994           0   0.00000       0.00000    
     41775 TIP3     5620     TIP3     H1       HT       0.417000       1.00800           0   0.00000       0.00000    
     41776 TIP3     5620     TIP3     H2       HT       0.417000       1.00800           0   0.00000     -0.301140E-02
     41777 TIP3     5621     TIP3     OH2      OT      -0.834000       15.9994           0   0.00000       0.00000    
     41778 TIP3     5621     TIP3     H1       HT       0.417000       1.00800           0   0.00000       0.00000    
     41779 TIP3     5621     TIP3     H2       HT       0.417000       1.00800           0   0.00000     -0.301140E-02
     41780 TIP3     5622     TIP3     OH2      OT      -0.834000       15.9994           0   0.00000       0.00000    
     41781 TIP3     5622     TIP3     H1       HT       0.417000       1.00800           0   0.00000       0.00000    
     41782 TIP3     5622     TIP3     H2       HT       0.417000       1.00800           0   0.00000     -0.301140E-02
     41783 TIP3     5623     TIP3     OH2      OT      -0.834000       15.9994           0   0.00000       0.00000    
     41784 TIP3     5623     TIP3     H1       HT       0.417000       1.00800           0   0.00000       0.00000    
     41785 TIP3     5623     TIP3     H2       HT       0.417000       1.00800           0   0.00000     -0.301140E-02
     41786 TIP3     5624     TIP3     OH2      OT      -0.834000       15.9994           0   0.00000       0.00000    
     41787 TIP3     5624     TIP3     H1       HT       0.417000       1.00800           0   0.00000       0.00000    
     41788 TIP3     5624     TIP3     H2       HT       0.417000       1.00800           0   0.00000     -0.301140E-02
     41789 TIP3     5625     TIP3     OH2      OT      -0.834000       15.9994           0   0.00000       0.00000    
     41790 TIP3     5625     TIP3     H1       HT       0.417000       1.00800           0   0.00000       0.00000    
     41791 TIP3     5625     TIP3     H2       HT       0.417000       1.00800           0   0.00000     -0.301140E-02
     41792 TIP3     5626     TIP3     OH2      OT      -0.834000       15.9994           0   0.00000       0.00000    
     41793 TIP3     5626     TIP3     H1       HT       0.417000       1.00800           0   0.00000       0.00000    
     41794 TIP3     5626     TIP3     H2       HT       0.417000       1.00800           0   0.00000     -0.301140E-02
     41795 TIP3     5627     TIP3     OH2      OT      -0.834000       15.9994           0   0.00000       0.00000    
     41796 TIP3     5627     TIP3     H1       HT       0.417000       1.00800           0   0.00000       0.00000    
     41797 TIP3     5627     TIP3     H2       HT       0.417000       1.00800           0   0.00000     -0.301140E-02
     41798 TIP3     5628     TIP3     OH2      OT      -0.834000       15.9994           0   0.00000       0.00000    
     41799 TIP3     5628     TIP3     H1       HT       0.417000       1.00800           0   0.00000       0.00000    
     41800 TIP3     5628     TIP3     H2       HT       0.417000       1.00800           0   0.00000     -0.301140E-02
     41801 TIP3     5629     TIP3     OH2      OT      -0.834000       15.9994           0   0.00000       0.00000    
     41802 TIP3     5629     TIP3     H1       HT       0.417000       1.00800           0   0.00000       0.00000    
     41803 TIP3     5629     TIP3     H2       HT       0.417000       1.00800           0   0.00000     -0.301140E-02
     41804 TIP3     5630     TIP3     OH2      OT      -0.834000       15.9994           0   0.00000       0.00000    
     41805 TIP3     5630     TIP3     H1       HT       0.417000       1.00800           0   0.00000       0.00000    
     41806 TIP3     5630     TIP3     H2       HT       0.417000       1.00800           0   0.00000     -0.301140E-02
     41807 TIP3     5631     TIP3     OH2      OT      -0.834000       15.9994           0   0.00000       0.00000    
     41808 TIP3     5631     TIP3     H1       HT       0.417000       1.00800           0   0.00000       0.00000    
     41809 TIP3     5631     TIP3     H2       HT       0.417000       1.00800           0   0.00000     -0.301140E-02
     41810 TIP3     5632     TIP3     OH2      OT      -0.834000       15.9994           0   0.00000       0.00000    
     41811 TIP3     5632     TIP3     H1       HT       0.417000       1.00800           0   0.00000       0.00000    
     41812 TIP3     5632     TIP3     H2       HT       0.417000       1.00800           0   0.00000     -0.301140E-02
     41813 TIP3     5633     TIP3     OH2      OT      -0.834000       15.9994           0   0.00000       0.00000    
     41814 TIP3     5633     TIP3     H1       HT       0.417000       1.00800           0   0.00000       0.00000    
     41815 TIP3     5633     TIP3     H2       HT       0.417000       1.00800           0   0.00000     -0.301140E-02
     41816 TIP3     5634     TIP3     OH2      OT      -0.834000       15.9994           0   0.00000       0.00000    
     41817 TIP3     5634     TIP3     H1       HT       0.417000       1.00800           0   0.00000       0.00000    
     41818 TIP3     5634     TIP3     H2       HT       0.417000       1.00800           0   0.00000     -0.301140E-02
     41819 TIP3     5635     TIP3     OH2      OT      -0.834000       15.9994           0   0.00000       0.00000    
     41820 TIP3     5635     TIP3     H1       HT       0.417000       1.00800           0   0.00000       0.00000    
     41821 TIP3     5635     TIP3     H2       HT       0.417000       1.00800           0   0.00000     -0.301140E-02
     41822 TIP3     5636     TIP3     OH2      OT      -0.834000       15.9994           0   0.00000       0.00000    
     41823 TIP3     5636     TIP3     H1       HT       0.417000       1.00800           0   0.00000       0.00000    
     41824 TIP3     5636     TIP3     H2       HT       0.417000       1.00800           0   0.00000     -0.301140E-02
     41825 TIP3     5637     TIP3     OH2      OT      -0.834000       15.9994           0   0.00000       0.00000    
     41826 TIP3     5637     TIP3     H1       HT       0.417000       1.00800           0   0.00000       0.00000    
     41827 TIP3     5637     TIP3     H2       HT       0.417000       1.00800           0   0.00000     -0.301140E-02
     41828 TIP3     5638     TIP3     OH2      OT      -0.834000       15.9994           0   0.00000       0.00000    
     41829 TIP3     5638     TIP3     H1       HT       0.417000       1.00800           0   0.00000       0.00000    
     41830 TIP3     5638     TIP3     H2       HT       0.417000       1.00800           0   0.00000     -0.301140E-02
     41831 TIP3     5639     TIP3     OH2      OT      -0.834000       15.9994           0   0.00000       0.00000    
     41832 TIP3     5639     TIP3     H1       HT       0.417000       1.00800           0   0.00000       0.00000    
     41833 TIP3     5639     TIP3     H2       HT       0.417000       1.00800           0   0.00000     -0.301140E-02
     41834 TIP3     5640     TIP3     OH2      OT      -0.834000       15.9994           0   0.00000       0.00000    
     41835 TIP3     5640     TIP3     H1       HT       0.417000       1.00800           0   0.00000       0.00000    
     41836 TIP3     5640     TIP3     H2       HT       0.417000       1.00800           0   0.00000     -0.301140E-02
     41837 TIP3     5641     TIP3     OH2      OT      -0.834000       15.9994           0   0.00000       0.00000    
     41838 TIP3     5641     TIP3     H1       HT       0.417000       1.00800           0   0.00000       0.00000    
     41839 TIP3     5641     TIP3     H2       HT       0.417000       1.00800           0   0.00000     -0.301140E-02
     41840 TIP3     5642     TIP3     OH2      OT      -0.834000       15.9994           0   0.00000       0.00000    
     41841 TIP3     5642     TIP3     H1       HT       0.417000       1.00800           0   0.00000       0.00000    
     41842 TIP3     5642     TIP3     H2       HT       0.417000       1.00800           0   0.00000     -0.301140E-02
     41843 TIP3     5643     TIP3     OH2      OT      -0.834000       15.9994           0   0.00000       0.00000    
     41844 TIP3     5643     TIP3     H1       HT       0.417000       1.00800           0   0.00000       0.00000    
     41845 TIP3     5643     TIP3     H2       HT       0.417000       1.00800           0   0.00000     -0.301140E-02
     41846 TIP3     5644     TIP3     OH2      OT      -0.834000       15.9994           0   0.00000       0.00000    
     41847 TIP3     5644     TIP3     H1       HT       0.417000       1.00800           0   0.00000       0.00000    
     41848 TIP3     5644     TIP3     H2       HT       0.417000       1.00800           0   0.00000     -0.301140E-02
     41849 TIP3     5645     TIP3     OH2      OT      -0.834000       15.9994           0   0.00000       0.00000    
     41850 TIP3     5645     TIP3     H1       HT       0.417000       1.00800           0   0.00000       0.00000    
     41851 TIP3     5645     TIP3     H2       HT       0.417000       1.00800           0   0.00000     -0.301140E-02
     41852 TIP3     5646     TIP3     OH2      OT      -0.834000       15.9994           0   0.00000       0.00000    
     41853 TIP3     5646     TIP3     H1       HT       0.417000       1.00800           0   0.00000       0.00000    
     41854 TIP3     5646     TIP3     H2       HT       0.417000       1.00800           0   0.00000     -0.301140E-02
     41855 TIP3     5647     TIP3     OH2      OT      -0.834000       15.9994           0   0.00000       0.00000    
     41856 TIP3     5647     TIP3     H1       HT       0.417000       1.00800           0   0.00000       0.00000    
     41857 TIP3     5647     TIP3     H2       HT       0.417000       1.00800           0   0.00000     -0.301140E-02
     41858 TIP3     5648     TIP3     OH2      OT      -0.834000       15.9994           0   0.00000       0.00000    
     41859 TIP3     5648     TIP3     H1       HT       0.417000       1.00800           0   0.00000       0.00000    
     41860 TIP3     5648     TIP3     H2       HT       0.417000       1.00800           0   0.00000     -0.301140E-02
     41861 TIP3     5649     TIP3     OH2      OT      -0.834000       15.9994           0   0.00000       0.00000    
     41862 TIP3     5649     TIP3     H1       HT       0.417000       1.00800           0   0.00000       0.00000    
     41863 TIP3     5649     TIP3     H2       HT       0.417000       1.00800           0   0.00000     -0.301140E-02
     41864 TIP3     5650     TIP3     OH2      OT      -0.834000       15.9994           0   0.00000       0.00000    
     41865 TIP3     5650     TIP3     H1       HT       0.417000       1.00800           0   0.00000       0.00000    
     41866 TIP3     5650     TIP3     H2       HT       0.417000       1.00800           0   0.00000     -0.301140E-02
     41867 TIP3     5651     TIP3     OH2      OT      -0.834000       15.9994           0   0.00000       0.00000    
     41868 TIP3     5651     TIP3     H1       HT       0.417000       1.00800           0   0.00000       0.00000    
     41869 TIP3     5651     TIP3     H2       HT       0.417000       1.00800           0   0.00000     -0.301140E-02
     41870 TIP3     5652     TIP3     OH2      OT      -0.834000       15.9994           0   0.00000       0.00000    
     41871 TIP3     5652     TIP3     H1       HT       0.417000       1.00800           0   0.00000       0.00000    
     41872 TIP3     5652     TIP3     H2       HT       0.417000       1.00800           0   0.00000     -0.301140E-02
     41873 TIP3     5653     TIP3     OH2      OT      -0.834000       15.9994           0   0.00000       0.00000    
     41874 TIP3     5653     TIP3     H1       HT       0.417000       1.00800           0   0.00000       0.00000    
     41875 TIP3     5653     TIP3     H2       HT       0.417000       1.00800           0   0.00000     -0.301140E-02
     41876 TIP3     5654     TIP3     OH2      OT      -0.834000       15.9994           0   0.00000       0.00000    
     41877 TIP3     5654     TIP3     H1       HT       0.417000       1.00800           0   0.00000       0.00000    
     41878 TIP3     5654     TIP3     H2       HT       0.417000       1.00800           0   0.00000     -0.301140E-02
     41879 TIP3     5655     TIP3     OH2      OT      -0.834000       15.9994           0   0.00000       0.00000    
     41880 TIP3     5655     TIP3     H1       HT       0.417000       1.00800           0   0.00000       0.00000    
     41881 TIP3     5655     TIP3     H2       HT       0.417000       1.00800           0   0.00000     -0.301140E-02
     41882 TIP3     5656     TIP3     OH2      OT      -0.834000       15.9994           0   0.00000       0.00000    
     41883 TIP3     5656     TIP3     H1       HT       0.417000       1.00800           0   0.00000       0.00000    
     41884 TIP3     5656     TIP3     H2       HT       0.417000       1.00800           0   0.00000     -0.301140E-02
     41885 TIP3     5657     TIP3     OH2      OT      -0.834000       15.9994           0   0.00000       0.00000    
     41886 TIP3     5657     TIP3     H1       HT       0.417000       1.00800           0   0.00000       0.00000    
     41887 TIP3     5657     TIP3     H2       HT       0.417000       1.00800           0   0.00000     -0.301140E-02
     41888 TIP3     5658     TIP3     OH2      OT      -0.834000       15.9994           0   0.00000       0.00000    
     41889 TIP3     5658     TIP3     H1       HT       0.417000       1.00800           0   0.00000       0.00000    
     41890 TIP3     5658     TIP3     H2       HT       0.417000       1.00800           0   0.00000     -0.301140E-02
     41891 TIP3     5659     TIP3     OH2      OT      -0.834000       15.9994           0   0.00000       0.00000    
     41892 TIP3     5659     TIP3     H1       HT       0.417000       1.00800           0   0.00000       0.00000    
     41893 TIP3     5659     TIP3     H2       HT       0.417000       1.00800           0   0.00000     -0.301140E-02
     41894 TIP3     5660     TIP3     OH2      OT      -0.834000       15.9994           0   0.00000       0.00000    
     41895 TIP3     5660     TIP3     H1       HT       0.417000       1.00800           0   0.00000       0.00000    
     41896 TIP3     5660     TIP3     H2       HT       0.417000       1.00800           0   0.00000     -0.301140E-02
     41897 TIP3     5661     TIP3     OH2      OT      -0.834000       15.9994           0   0.00000       0.00000    
     41898 TIP3     5661     TIP3     H1       HT       0.417000       1.00800           0   0.00000       0.00000    
     41899 TIP3     5661     TIP3     H2       HT       0.417000       1.00800           0   0.00000     -0.301140E-02
     41900 TIP3     5662     TIP3     OH2      OT      -0.834000       15.9994           0   0.00000       0.00000    
     41901 TIP3     5662     TIP3     H1       HT       0.417000       1.00800           0   0.00000       0.00000    
     41902 TIP3     5662     TIP3     H2       HT       0.417000       1.00800           0   0.00000     -0.301140E-02
     41903 TIP3     5663     TIP3     OH2      OT      -0.834000       15.9994           0   0.00000       0.00000    
     41904 TIP3     5663     TIP3     H1       HT       0.417000       1.00800           0   0.00000       0.00000    
     41905 TIP3     5663     TIP3     H2       HT       0.417000       1.00800           0   0.00000     -0.301140E-02
     41906 TIP3     5664     TIP3     OH2      OT      -0.834000       15.9994           0   0.00000       0.00000    
     41907 TIP3     5664     TIP3     H1       HT       0.417000       1.00800           0   0.00000       0.00000    
     41908 TIP3     5664     TIP3     H2       HT       0.417000       1.00800           0   0.00000     -0.301140E-02
     41909 TIP3     5665     TIP3     OH2      OT      -0.834000       15.9994           0   0.00000       0.00000    
     41910 TIP3     5665     TIP3     H1       HT       0.417000       1.00800           0   0.00000       0.00000    
     41911 TIP3     5665     TIP3     H2       HT       0.417000       1.00800           0   0.00000     -0.301140E-02
     41912 TIP3     5666     TIP3     OH2      OT      -0.834000       15.9994           0   0.00000       0.00000    
     41913 TIP3     5666     TIP3     H1       HT       0.417000       1.00800           0   0.00000       0.00000    
     41914 TIP3     5666     TIP3     H2       HT       0.417000       1.00800           0   0.00000     -0.301140E-02
     41915 TIP3     5667     TIP3     OH2      OT      -0.834000       15.9994           0   0.00000       0.00000    
     41916 TIP3     5667     TIP3     H1       HT       0.417000       1.00800           0   0.00000       0.00000    
     41917 TIP3     5667     TIP3     H2       HT       0.417000       1.00800           0   0.00000     -0.301140E-02
     41918 TIP3     5668     TIP3     OH2      OT      -0.834000       15.9994           0   0.00000       0.00000    
     41919 TIP3     5668     TIP3     H1       HT       0.417000       1.00800           0   0.00000       0.00000    
     41920 TIP3     5668     TIP3     H2       HT       0.417000       1.00800           0   0.00000     -0.301140E-02
     41921 TIP3     5669     TIP3     OH2      OT      -0.834000       15.9994           0   0.00000       0.00000    
     41922 TIP3     5669     TIP3     H1       HT       0.417000       1.00800           0   0.00000       0.00000    
     41923 TIP3     5669     TIP3     H2       HT       0.417000       1.00800           0   0.00000     -0.301140E-02
     41924 TIP3     5670     TIP3     OH2      OT      -0.834000       15.9994           0   0.00000       0.00000    
     41925 TIP3     5670     TIP3     H1       HT       0.417000       1.00800           0   0.00000       0.00000    
     41926 TIP3     5670     TIP3     H2       HT       0.417000       1.00800           0   0.00000     -0.301140E-02
     41927 TIP3     5671     TIP3     OH2      OT      -0.834000       15.9994           0   0.00000       0.00000    
     41928 TIP3     5671     TIP3     H1       HT       0.417000       1.00800           0   0.00000       0.00000    
     41929 TIP3     5671     TIP3     H2       HT       0.417000       1.00800           0   0.00000     -0.301140E-02
     41930 TIP3     5672     TIP3     OH2      OT      -0.834000       15.9994           0   0.00000       0.00000    
     41931 TIP3     5672     TIP3     H1       HT       0.417000       1.00800           0   0.00000       0.00000    
     41932 TIP3     5672     TIP3     H2       HT       0.417000       1.00800           0   0.00000     -0.301140E-02
     41933 TIP3     5673     TIP3     OH2      OT      -0.834000       15.9994           0   0.00000       0.00000    
     41934 TIP3     5673     TIP3     H1       HT       0.417000       1.00800           0   0.00000       0.00000    
     41935 TIP3     5673     TIP3     H2       HT       0.417000       1.00800           0   0.00000     -0.301140E-02
     41936 TIP3     5674     TIP3     OH2      OT      -0.834000       15.9994           0   0.00000       0.00000    
     41937 TIP3     5674     TIP3     H1       HT       0.417000       1.00800           0   0.00000       0.00000    
     41938 TIP3     5674     TIP3     H2       HT       0.417000       1.00800           0   0.00000     -0.301140E-02
     41939 TIP3     5675     TIP3     OH2      OT      -0.834000       15.9994           0   0.00000       0.00000    
     41940 TIP3     5675     TIP3     H1       HT       0.417000       1.00800           0   0.00000       0.00000    
     41941 TIP3     5675     TIP3     H2       HT       0.417000       1.00800           0   0.00000     -0.301140E-02
     41942 TIP3     5676     TIP3     OH2      OT      -0.834000       15.9994           0   0.00000       0.00000    
     41943 TIP3     5676     TIP3     H1       HT       0.417000       1.00800           0   0.00000       0.00000    
     41944 TIP3     5676     TIP3     H2       HT       0.417000       1.00800           0   0.00000     -0.301140E-02
     41945 TIP3     5677     TIP3     OH2      OT      -0.834000       15.9994           0   0.00000       0.00000    
     41946 TIP3     5677     TIP3     H1       HT       0.417000       1.00800           0   0.00000       0.00000    
     41947 TIP3     5677     TIP3     H2       HT       0.417000       1.00800           0   0.00000     -0.301140E-02
     41948 TIP3     5678     TIP3     OH2      OT      -0.834000       15.9994           0   0.00000       0.00000    
     41949 TIP3     5678     TIP3     H1       HT       0.417000       1.00800           0   0.00000       0.00000    
     41950 TIP3     5678     TIP3     H2       HT       0.417000       1.00800           0   0.00000     -0.301140E-02
     41951 TIP3     5679     TIP3     OH2      OT      -0.834000       15.9994           0   0.00000       0.00000    
     41952 TIP3     5679     TIP3     H1       HT       0.417000       1.00800           0   0.00000       0.00000    
     41953 TIP3     5679     TIP3     H2       HT       0.417000       1.00800           0   0.00000     -0.301140E-02
     41954 TIP3     5680     TIP3     OH2      OT      -0.834000       15.9994           0   0.00000       0.00000    
     41955 TIP3     5680     TIP3     H1       HT       0.417000       1.00800           0   0.00000       0.00000    
     41956 TIP3     5680     TIP3     H2       HT       0.417000       1.00800           0   0.00000     -0.301140E-02
     41957 TIP3     5681     TIP3     OH2      OT      -0.834000       15.9994           0   0.00000       0.00000    
     41958 TIP3     5681     TIP3     H1       HT       0.417000       1.00800           0   0.00000       0.00000    
     41959 TIP3     5681     TIP3     H2       HT       0.417000       1.00800           0   0.00000     -0.301140E-02
     41960 TIP3     5682     TIP3     OH2      OT      -0.834000       15.9994           0   0.00000       0.00000    
     41961 TIP3     5682     TIP3     H1       HT       0.417000       1.00800           0   0.00000       0.00000    
     41962 TIP3     5682     TIP3     H2       HT       0.417000       1.00800           0   0.00000     -0.301140E-02
     41963 TIP3     5683     TIP3     OH2      OT      -0.834000       15.9994           0   0.00000       0.00000    
     41964 TIP3     5683     TIP3     H1       HT       0.417000       1.00800           0   0.00000       0.00000    
     41965 TIP3     5683     TIP3     H2       HT       0.417000       1.00800           0   0.00000     -0.301140E-02
     41966 TIP3     5684     TIP3     OH2      OT      -0.834000       15.9994           0   0.00000       0.00000    
     41967 TIP3     5684     TIP3     H1       HT       0.417000       1.00800           0   0.00000       0.00000    
     41968 TIP3     5684     TIP3     H2       HT       0.417000       1.00800           0   0.00000     -0.301140E-02
     41969 TIP3     5685     TIP3     OH2      OT      -0.834000       15.9994           0   0.00000       0.00000    
     41970 TIP3     5685     TIP3     H1       HT       0.417000       1.00800           0   0.00000       0.00000    
     41971 TIP3     5685     TIP3     H2       HT       0.417000       1.00800           0   0.00000     -0.301140E-02
     41972 TIP3     5686     TIP3     OH2      OT      -0.834000       15.9994           0   0.00000       0.00000    
     41973 TIP3     5686     TIP3     H1       HT       0.417000       1.00800           0   0.00000       0.00000    
     41974 TIP3     5686     TIP3     H2       HT       0.417000       1.00800           0   0.00000     -0.301140E-02
     41975 TIP3     5687     TIP3     OH2      OT      -0.834000       15.9994           0   0.00000       0.00000    
     41976 TIP3     5687     TIP3     H1       HT       0.417000       1.00800           0   0.00000       0.00000    
     41977 TIP3     5687     TIP3     H2       HT       0.417000       1.00800           0   0.00000     -0.301140E-02
     41978 TIP3     5688     TIP3     OH2      OT      -0.834000       15.9994           0   0.00000       0.00000    
     41979 TIP3     5688     TIP3     H1       HT       0.417000       1.00800           0   0.00000       0.00000    
     41980 TIP3     5688     TIP3     H2       HT       0.417000       1.00800           0   0.00000     -0.301140E-02
     41981 TIP3     5689     TIP3     OH2      OT      -0.834000       15.9994           0   0.00000       0.00000    
     41982 TIP3     5689     TIP3     H1       HT       0.417000       1.00800           0   0.00000       0.00000    
     41983 TIP3     5689     TIP3     H2       HT       0.417000       1.00800           0   0.00000     -0.301140E-02
     41984 TIP3     5690     TIP3     OH2      OT      -0.834000       15.9994           0   0.00000       0.00000    
     41985 TIP3     5690     TIP3     H1       HT       0.417000       1.00800           0   0.00000       0.00000    
     41986 TIP3     5690     TIP3     H2       HT       0.417000       1.00800           0   0.00000     -0.301140E-02
     41987 TIP3     5691     TIP3     OH2      OT      -0.834000       15.9994           0   0.00000       0.00000    
     41988 TIP3     5691     TIP3     H1       HT       0.417000       1.00800           0   0.00000       0.00000    
     41989 TIP3     5691     TIP3     H2       HT       0.417000       1.00800           0   0.00000     -0.301140E-02
     41990 TIP3     5692     TIP3     OH2      OT      -0.834000       15.9994           0   0.00000       0.00000    
     41991 TIP3     5692     TIP3     H1       HT       0.417000       1.00800           0   0.00000       0.00000    
     41992 TIP3     5692     TIP3     H2       HT       0.417000       1.00800           0   0.00000     -0.301140E-02
     41993 TIP3     5693     TIP3     OH2      OT      -0.834000       15.9994           0   0.00000       0.00000    
     41994 TIP3     5693     TIP3     H1       HT       0.417000       1.00800           0   0.00000       0.00000    
     41995 TIP3     5693     TIP3     H2       HT       0.417000       1.00800           0   0.00000     -0.301140E-02
     41996 TIP3     5694     TIP3     OH2      OT      -0.834000       15.9994           0   0.00000       0.00000    
     41997 TIP3     5694     TIP3     H1       HT       0.417000       1.00800           0   0.00000       0.00000    
     41998 TIP3     5694     TIP3     H2       HT       0.417000       1.00800           0   0.00000     -0.301140E-02
     41999 TIP3     5695     TIP3     OH2      OT      -0.834000       15.9994           0   0.00000       0.00000    
     42000 TIP3     5695     TIP3     H1       HT       0.417000       1.00800           0   0.00000       0.00000    
     42001 TIP3     5695     TIP3     H2       HT       0.417000       1.00800           0   0.00000     -0.301140E-02
     42002 TIP3     5696     TIP3     OH2      OT      -0.834000       15.9994           0   0.00000       0.00000    
     42003 TIP3     5696     TIP3     H1       HT       0.417000       1.00800           0   0.00000       0.00000    
     42004 TIP3     5696     TIP3     H2       HT       0.417000       1.00800           0   0.00000     -0.301140E-02
     42005 TIP3     5697     TIP3     OH2      OT      -0.834000       15.9994           0   0.00000       0.00000    
     42006 TIP3     5697     TIP3     H1       HT       0.417000       1.00800           0   0.00000       0.00000    
     42007 TIP3     5697     TIP3     H2       HT       0.417000       1.00800           0   0.00000     -0.301140E-02
     42008 TIP3     5698     TIP3     OH2      OT      -0.834000       15.9994           0   0.00000       0.00000    
     42009 TIP3     5698     TIP3     H1       HT       0.417000       1.00800           0   0.00000       0.00000    
     42010 TIP3     5698     TIP3     H2       HT       0.417000       1.00800           0   0.00000     -0.301140E-02
     42011 TIP3     5699     TIP3     OH2      OT      -0.834000       15.9994           0   0.00000       0.00000    
     42012 TIP3     5699     TIP3     H1       HT       0.417000       1.00800           0   0.00000       0.00000    
     42013 TIP3     5699     TIP3     H2       HT       0.417000       1.00800           0   0.00000     -0.301140E-02
     42014 TIP3     5700     TIP3     OH2      OT      -0.834000       15.9994           0   0.00000       0.00000    
     42015 TIP3     5700     TIP3     H1       HT       0.417000       1.00800           0   0.00000       0.00000    
     42016 TIP3     5700     TIP3     H2       HT       0.417000       1.00800           0   0.00000     -0.301140E-02
     42017 TIP3     5701     TIP3     OH2      OT      -0.834000       15.9994           0   0.00000       0.00000    
     42018 TIP3     5701     TIP3     H1       HT       0.417000       1.00800           0   0.00000       0.00000    
     42019 TIP3     5701     TIP3     H2       HT       0.417000       1.00800           0   0.00000     -0.301140E-02
     42020 TIP3     5702     TIP3     OH2      OT      -0.834000       15.9994           0   0.00000       0.00000    
     42021 TIP3     5702     TIP3     H1       HT       0.417000       1.00800           0   0.00000       0.00000    
     42022 TIP3     5702     TIP3     H2       HT       0.417000       1.00800           0   0.00000     -0.301140E-02
     42023 TIP3     5703     TIP3     OH2      OT      -0.834000       15.9994           0   0.00000       0.00000    
     42024 TIP3     5703     TIP3     H1       HT       0.417000       1.00800           0   0.00000       0.00000    
     42025 TIP3     5703     TIP3     H2       HT       0.417000       1.00800           0   0.00000     -0.301140E-02
     42026 TIP3     5704     TIP3     OH2      OT      -0.834000       15.9994           0   0.00000       0.00000    
     42027 TIP3     5704     TIP3     H1       HT       0.417000       1.00800           0   0.00000       0.00000    
     42028 TIP3     5704     TIP3     H2       HT       0.417000       1.00800           0   0.00000     -0.301140E-02
     42029 TIP3     5705     TIP3     OH2      OT      -0.834000       15.9994           0   0.00000       0.00000    
     42030 TIP3     5705     TIP3     H1       HT       0.417000       1.00800           0   0.00000       0.00000    
     42031 TIP3     5705     TIP3     H2       HT       0.417000       1.00800           0   0.00000     -0.301140E-02
     42032 TIP3     5706     TIP3     OH2      OT      -0.834000       15.9994           0   0.00000       0.00000    
     42033 TIP3     5706     TIP3     H1       HT       0.417000       1.00800           0   0.00000       0.00000    
     42034 TIP3     5706     TIP3     H2       HT       0.417000       1.00800           0   0.00000     -0.301140E-02
     42035 TIP3     5707     TIP3     OH2      OT      -0.834000       15.9994           0   0.00000       0.00000    
     42036 TIP3     5707     TIP3     H1       HT       0.417000       1.00800           0   0.00000       0.00000    
     42037 TIP3     5707     TIP3     H2       HT       0.417000       1.00800           0   0.00000     -0.301140E-02
     42038 TIP3     5708     TIP3     OH2      OT      -0.834000       15.9994           0   0.00000       0.00000    
     42039 TIP3     5708     TIP3     H1       HT       0.417000       1.00800           0   0.00000       0.00000    
     42040 TIP3     5708     TIP3     H2       HT       0.417000       1.00800           0   0.00000     -0.301140E-02
     42041 TIP3     5709     TIP3     OH2      OT      -0.834000       15.9994           0   0.00000       0.00000    
     42042 TIP3     5709     TIP3     H1       HT       0.417000       1.00800           0   0.00000       0.00000    
     42043 TIP3     5709     TIP3     H2       HT       0.417000       1.00800           0   0.00000     -0.301140E-02
     42044 TIP3     5710     TIP3     OH2      OT      -0.834000       15.9994           0   0.00000       0.00000    
     42045 TIP3     5710     TIP3     H1       HT       0.417000       1.00800           0   0.00000       0.00000    
     42046 TIP3     5710     TIP3     H2       HT       0.417000       1.00800           0   0.00000     -0.301140E-02
     42047 TIP3     5711     TIP3     OH2      OT      -0.834000       15.9994           0   0.00000       0.00000    
     42048 TIP3     5711     TIP3     H1       HT       0.417000       1.00800           0   0.00000       0.00000    
     42049 TIP3     5711     TIP3     H2       HT       0.417000       1.00800           0   0.00000     -0.301140E-02
     42050 TIP3     5712     TIP3     OH2      OT      -0.834000       15.9994           0   0.00000       0.00000    
     42051 TIP3     5712     TIP3     H1       HT       0.417000       1.00800           0   0.00000       0.00000    
     42052 TIP3     5712     TIP3     H2       HT       0.417000       1.00800           0   0.00000     -0.301140E-02
     42053 TIP3     5713     TIP3     OH2      OT      -0.834000       15.9994           0   0.00000       0.00000    
     42054 TIP3     5713     TIP3     H1       HT       0.417000       1.00800           0   0.00000       0.00000    
     42055 TIP3     5713     TIP3     H2       HT       0.417000       1.00800           0   0.00000     -0.301140E-02
     42056 TIP3     5714     TIP3     OH2      OT      -0.834000       15.9994           0   0.00000       0.00000    
     42057 TIP3     5714     TIP3     H1       HT       0.417000       1.00800           0   0.00000       0.00000    
     42058 TIP3     5714     TIP3     H2       HT       0.417000       1.00800           0   0.00000     -0.301140E-02
     42059 TIP3     5715     TIP3     OH2      OT      -0.834000       15.9994           0   0.00000       0.00000    
     42060 TIP3     5715     TIP3     H1       HT       0.417000       1.00800           0   0.00000       0.00000    
     42061 TIP3     5715     TIP3     H2       HT       0.417000       1.00800           0   0.00000     -0.301140E-02
     42062 TIP3     5716     TIP3     OH2      OT      -0.834000       15.9994           0   0.00000       0.00000    
     42063 TIP3     5716     TIP3     H1       HT       0.417000       1.00800           0   0.00000       0.00000    
     42064 TIP3     5716     TIP3     H2       HT       0.417000       1.00800           0   0.00000     -0.301140E-02
     42065 TIP3     5717     TIP3     OH2      OT      -0.834000       15.9994           0   0.00000       0.00000    
     42066 TIP3     5717     TIP3     H1       HT       0.417000       1.00800           0   0.00000       0.00000    
     42067 TIP3     5717     TIP3     H2       HT       0.417000       1.00800           0   0.00000     -0.301140E-02
     42068 TIP3     5718     TIP3     OH2      OT      -0.834000       15.9994           0   0.00000       0.00000    
     42069 TIP3     5718     TIP3     H1       HT       0.417000       1.00800           0   0.00000       0.00000    
     42070 TIP3     5718     TIP3     H2       HT       0.417000       1.00800           0   0.00000     -0.301140E-02
     42071 TIP3     5719     TIP3     OH2      OT      -0.834000       15.9994           0   0.00000       0.00000    
     42072 TIP3     5719     TIP3     H1       HT       0.417000       1.00800           0   0.00000       0.00000    
     42073 TIP3     5719     TIP3     H2       HT       0.417000       1.00800           0   0.00000     -0.301140E-02
     42074 TIP3     5720     TIP3     OH2      OT      -0.834000       15.9994           0   0.00000       0.00000    
     42075 TIP3     5720     TIP3     H1       HT       0.417000       1.00800           0   0.00000       0.00000    
     42076 TIP3     5720     TIP3     H2       HT       0.417000       1.00800           0   0.00000     -0.301140E-02
     42077 TIP3     5721     TIP3     OH2      OT      -0.834000       15.9994           0   0.00000       0.00000    
     42078 TIP3     5721     TIP3     H1       HT       0.417000       1.00800           0   0.00000       0.00000    
     42079 TIP3     5721     TIP3     H2       HT       0.417000       1.00800           0   0.00000     -0.301140E-02
     42080 TIP3     5722     TIP3     OH2      OT      -0.834000       15.9994           0   0.00000       0.00000    
     42081 TIP3     5722     TIP3     H1       HT       0.417000       1.00800           0   0.00000       0.00000    
     42082 TIP3     5722     TIP3     H2       HT       0.417000       1.00800           0   0.00000     -0.301140E-02
     42083 TIP3     5723     TIP3     OH2      OT      -0.834000       15.9994           0   0.00000       0.00000    
     42084 TIP3     5723     TIP3     H1       HT       0.417000       1.00800           0   0.00000       0.00000    
     42085 TIP3     5723     TIP3     H2       HT       0.417000       1.00800           0   0.00000     -0.301140E-02
     42086 TIP3     5724     TIP3     OH2      OT      -0.834000       15.9994           0   0.00000       0.00000    
     42087 TIP3     5724     TIP3     H1       HT       0.417000       1.00800           0   0.00000       0.00000    
     42088 TIP3     5724     TIP3     H2       HT       0.417000       1.00800           0   0.00000     -0.301140E-02
     42089 TIP3     5725     TIP3     OH2      OT      -0.834000       15.9994           0   0.00000       0.00000    
     42090 TIP3     5725     TIP3     H1       HT       0.417000       1.00800           0   0.00000       0.00000    
     42091 TIP3     5725     TIP3     H2       HT       0.417000       1.00800           0   0.00000     -0.301140E-02
     42092 TIP3     5726     TIP3     OH2      OT      -0.834000       15.9994           0   0.00000       0.00000    
     42093 TIP3     5726     TIP3     H1       HT       0.417000       1.00800           0   0.00000       0.00000    
     42094 TIP3     5726     TIP3     H2       HT       0.417000       1.00800           0   0.00000     -0.301140E-02
     42095 TIP3     5727     TIP3     OH2      OT      -0.834000       15.9994           0   0.00000       0.00000    
     42096 TIP3     5727     TIP3     H1       HT       0.417000       1.00800           0   0.00000       0.00000    
     42097 TIP3     5727     TIP3     H2       HT       0.417000       1.00800           0   0.00000     -0.301140E-02
     42098 TIP3     5728     TIP3     OH2      OT      -0.834000       15.9994           0   0.00000       0.00000    
     42099 TIP3     5728     TIP3     H1       HT       0.417000       1.00800           0   0.00000       0.00000    
     42100 TIP3     5728     TIP3     H2       HT       0.417000       1.00800           0   0.00000     -0.301140E-02
     42101 TIP3     5729     TIP3     OH2      OT      -0.834000       15.9994           0   0.00000       0.00000    
     42102 TIP3     5729     TIP3     H1       HT       0.417000       1.00800           0   0.00000       0.00000    
     42103 TIP3     5729     TIP3     H2       HT       0.417000       1.00800           0   0.00000     -0.301140E-02
     42104 TIP3     5730     TIP3     OH2      OT      -0.834000       15.9994           0   0.00000       0.00000    
     42105 TIP3     5730     TIP3     H1       HT       0.417000       1.00800           0   0.00000       0.00000    
     42106 TIP3     5730     TIP3     H2       HT       0.417000       1.00800           0   0.00000     -0.301140E-02
     42107 TIP3     5731     TIP3     OH2      OT      -0.834000       15.9994           0   0.00000       0.00000    
     42108 TIP3     5731     TIP3     H1       HT       0.417000       1.00800           0   0.00000       0.00000    
     42109 TIP3     5731     TIP3     H2       HT       0.417000       1.00800           0   0.00000     -0.301140E-02
     42110 TIP3     5732     TIP3     OH2      OT      -0.834000       15.9994           0   0.00000       0.00000    
     42111 TIP3     5732     TIP3     H1       HT       0.417000       1.00800           0   0.00000       0.00000    
     42112 TIP3     5732     TIP3     H2       HT       0.417000       1.00800           0   0.00000     -0.301140E-02
     42113 TIP3     5733     TIP3     OH2      OT      -0.834000       15.9994           0   0.00000       0.00000    
     42114 TIP3     5733     TIP3     H1       HT       0.417000       1.00800           0   0.00000       0.00000    
     42115 TIP3     5733     TIP3     H2       HT       0.417000       1.00800           0   0.00000     -0.301140E-02
     42116 TIP3     5734     TIP3     OH2      OT      -0.834000       15.9994           0   0.00000       0.00000    
     42117 TIP3     5734     TIP3     H1       HT       0.417000       1.00800           0   0.00000       0.00000    
     42118 TIP3     5734     TIP3     H2       HT       0.417000       1.00800           0   0.00000     -0.301140E-02
     42119 TIP3     5735     TIP3     OH2      OT      -0.834000       15.9994           0   0.00000       0.00000    
     42120 TIP3     5735     TIP3     H1       HT       0.417000       1.00800           0   0.00000       0.00000    
     42121 TIP3     5735     TIP3     H2       HT       0.417000       1.00800           0   0.00000     -0.301140E-02
     42122 TIP3     5736     TIP3     OH2      OT      -0.834000       15.9994           0   0.00000       0.00000    
     42123 TIP3     5736     TIP3     H1       HT       0.417000       1.00800           0   0.00000       0.00000    
     42124 TIP3     5736     TIP3     H2       HT       0.417000       1.00800           0   0.00000     -0.301140E-02
     42125 TIP3     5737     TIP3     OH2      OT      -0.834000       15.9994           0   0.00000       0.00000    
     42126 TIP3     5737     TIP3     H1       HT       0.417000       1.00800           0   0.00000       0.00000    
     42127 TIP3     5737     TIP3     H2       HT       0.417000       1.00800           0   0.00000     -0.301140E-02
     42128 TIP3     5738     TIP3     OH2      OT      -0.834000       15.9994           0   0.00000       0.00000    
     42129 TIP3     5738     TIP3     H1       HT       0.417000       1.00800           0   0.00000       0.00000    
     42130 TIP3     5738     TIP3     H2       HT       0.417000       1.00800           0   0.00000     -0.301140E-02
     42131 TIP3     5739     TIP3     OH2      OT      -0.834000       15.9994           0   0.00000       0.00000    
     42132 TIP3     5739     TIP3     H1       HT       0.417000       1.00800           0   0.00000       0.00000    
     42133 TIP3     5739     TIP3     H2       HT       0.417000       1.00800           0   0.00000     -0.301140E-02
     42134 TIP3     5740     TIP3     OH2      OT      -0.834000       15.9994           0   0.00000       0.00000    
     42135 TIP3     5740     TIP3     H1       HT       0.417000       1.00800           0   0.00000       0.00000    
     42136 TIP3     5740     TIP3     H2       HT       0.417000       1.00800           0   0.00000     -0.301140E-02
     42137 TIP3     5741     TIP3     OH2      OT      -0.834000       15.9994           0   0.00000       0.00000    
     42138 TIP3     5741     TIP3     H1       HT       0.417000       1.00800           0   0.00000       0.00000    
     42139 TIP3     5741     TIP3     H2       HT       0.417000       1.00800           0   0.00000     -0.301140E-02
     42140 TIP3     5742     TIP3     OH2      OT      -0.834000       15.9994           0   0.00000       0.00000    
     42141 TIP3     5742     TIP3     H1       HT       0.417000       1.00800           0   0.00000       0.00000    
     42142 TIP3     5742     TIP3     H2       HT       0.417000       1.00800           0   0.00000     -0.301140E-02
     42143 TIP3     5743     TIP3     OH2      OT      -0.834000       15.9994           0   0.00000       0.00000    
     42144 TIP3     5743     TIP3     H1       HT       0.417000       1.00800           0   0.00000       0.00000    
     42145 TIP3     5743     TIP3     H2       HT       0.417000       1.00800           0   0.00000     -0.301140E-02
     42146 TIP3     5744     TIP3     OH2      OT      -0.834000       15.9994           0   0.00000       0.00000    
     42147 TIP3     5744     TIP3     H1       HT       0.417000       1.00800           0   0.00000       0.00000    
     42148 TIP3     5744     TIP3     H2       HT       0.417000       1.00800           0   0.00000     -0.301140E-02
     42149 TIP3     5745     TIP3     OH2      OT      -0.834000       15.9994           0   0.00000       0.00000    
     42150 TIP3     5745     TIP3     H1       HT       0.417000       1.00800           0   0.00000       0.00000    
     42151 TIP3     5745     TIP3     H2       HT       0.417000       1.00800           0   0.00000     -0.301140E-02
     42152 TIP3     5746     TIP3     OH2      OT      -0.834000       15.9994           0   0.00000       0.00000    
     42153 TIP3     5746     TIP3     H1       HT       0.417000       1.00800           0   0.00000       0.00000    
     42154 TIP3     5746     TIP3     H2       HT       0.417000       1.00800           0   0.00000     -0.301140E-02
     42155 TIP3     5747     TIP3     OH2      OT      -0.834000       15.9994           0   0.00000       0.00000    
     42156 TIP3     5747     TIP3     H1       HT       0.417000       1.00800           0   0.00000       0.00000    
     42157 TIP3     5747     TIP3     H2       HT       0.417000       1.00800           0   0.00000     -0.301140E-02
     42158 TIP3     5748     TIP3     OH2      OT      -0.834000       15.9994           0   0.00000       0.00000    
     42159 TIP3     5748     TIP3     H1       HT       0.417000       1.00800           0   0.00000       0.00000    
     42160 TIP3     5748     TIP3     H2       HT       0.417000       1.00800           0   0.00000     -0.301140E-02
     42161 TIP3     5749     TIP3     OH2      OT      -0.834000       15.9994           0   0.00000       0.00000    
     42162 TIP3     5749     TIP3     H1       HT       0.417000       1.00800           0   0.00000       0.00000    
     42163 TIP3     5749     TIP3     H2       HT       0.417000       1.00800           0   0.00000     -0.301140E-02
     42164 TIP3     5750     TIP3     OH2      OT      -0.834000       15.9994           0   0.00000       0.00000    
     42165 TIP3     5750     TIP3     H1       HT       0.417000       1.00800           0   0.00000       0.00000    
     42166 TIP3     5750     TIP3     H2       HT       0.417000       1.00800           0   0.00000     -0.301140E-02
     42167 TIP3     5751     TIP3     OH2      OT      -0.834000       15.9994           0   0.00000       0.00000    
     42168 TIP3     5751     TIP3     H1       HT       0.417000       1.00800           0   0.00000       0.00000    
     42169 TIP3     5751     TIP3     H2       HT       0.417000       1.00800           0   0.00000     -0.301140E-02
     42170 TIP3     5752     TIP3     OH2      OT      -0.834000       15.9994           0   0.00000       0.00000    
     42171 TIP3     5752     TIP3     H1       HT       0.417000       1.00800           0   0.00000       0.00000    
     42172 TIP3     5752     TIP3     H2       HT       0.417000       1.00800           0   0.00000     -0.301140E-02
     42173 TIP3     5753     TIP3     OH2      OT      -0.834000       15.9994           0   0.00000       0.00000    
     42174 TIP3     5753     TIP3     H1       HT       0.417000       1.00800           0   0.00000       0.00000    
     42175 TIP3     5753     TIP3     H2       HT       0.417000       1.00800           0   0.00000     -0.301140E-02
     42176 TIP3     5754     TIP3     OH2      OT      -0.834000       15.9994           0   0.00000       0.00000    
     42177 TIP3     5754     TIP3     H1       HT       0.417000       1.00800           0   0.00000       0.00000    
     42178 TIP3     5754     TIP3     H2       HT       0.417000       1.00800           0   0.00000     -0.301140E-02
     42179 TIP3     5755     TIP3     OH2      OT      -0.834000       15.9994           0   0.00000       0.00000    
     42180 TIP3     5755     TIP3     H1       HT       0.417000       1.00800           0   0.00000       0.00000    
     42181 TIP3     5755     TIP3     H2       HT       0.417000       1.00800           0   0.00000     -0.301140E-02
     42182 TIP3     5756     TIP3     OH2      OT      -0.834000       15.9994           0   0.00000       0.00000    
     42183 TIP3     5756     TIP3     H1       HT       0.417000       1.00800           0   0.00000       0.00000    
     42184 TIP3     5756     TIP3     H2       HT       0.417000       1.00800           0   0.00000     -0.301140E-02
     42185 TIP3     5757     TIP3     OH2      OT      -0.834000       15.9994           0   0.00000       0.00000    
     42186 TIP3     5757     TIP3     H1       HT       0.417000       1.00800           0   0.00000       0.00000    
     42187 TIP3     5757     TIP3     H2       HT       0.417000       1.00800           0   0.00000     -0.301140E-02
     42188 TIP3     5758     TIP3     OH2      OT      -0.834000       15.9994           0   0.00000       0.00000    
     42189 TIP3     5758     TIP3     H1       HT       0.417000       1.00800           0   0.00000       0.00000    
     42190 TIP3     5758     TIP3     H2       HT       0.417000       1.00800           0   0.00000     -0.301140E-02
     42191 TIP3     5759     TIP3     OH2      OT      -0.834000       15.9994           0   0.00000       0.00000    
     42192 TIP3     5759     TIP3     H1       HT       0.417000       1.00800           0   0.00000       0.00000    
     42193 TIP3     5759     TIP3     H2       HT       0.417000       1.00800           0   0.00000     -0.301140E-02
     42194 TIP3     5760     TIP3     OH2      OT      -0.834000       15.9994           0   0.00000       0.00000    
     42195 TIP3     5760     TIP3     H1       HT       0.417000       1.00800           0   0.00000       0.00000    
     42196 TIP3     5760     TIP3     H2       HT       0.417000       1.00800           0   0.00000     -0.301140E-02
     42197 TIP3     5761     TIP3     OH2      OT      -0.834000       15.9994           0   0.00000       0.00000    
     42198 TIP3     5761     TIP3     H1       HT       0.417000       1.00800           0   0.00000       0.00000    
     42199 TIP3     5761     TIP3     H2       HT       0.417000       1.00800           0   0.00000     -0.301140E-02
     42200 TIP3     5762     TIP3     OH2      OT      -0.834000       15.9994           0   0.00000       0.00000    
     42201 TIP3     5762     TIP3     H1       HT       0.417000       1.00800           0   0.00000       0.00000    
     42202 TIP3     5762     TIP3     H2       HT       0.417000       1.00800           0   0.00000     -0.301140E-02
     42203 TIP3     5763     TIP3     OH2      OT      -0.834000       15.9994           0   0.00000       0.00000    
     42204 TIP3     5763     TIP3     H1       HT       0.417000       1.00800           0   0.00000       0.00000    
     42205 TIP3     5763     TIP3     H2       HT       0.417000       1.00800           0   0.00000     -0.301140E-02
     42206 TIP3     5764     TIP3     OH2      OT      -0.834000       15.9994           0   0.00000       0.00000    
     42207 TIP3     5764     TIP3     H1       HT       0.417000       1.00800           0   0.00000       0.00000    
     42208 TIP3     5764     TIP3     H2       HT       0.417000       1.00800           0   0.00000     -0.301140E-02
     42209 TIP3     5765     TIP3     OH2      OT      -0.834000       15.9994           0   0.00000       0.00000    
     42210 TIP3     5765     TIP3     H1       HT       0.417000       1.00800           0   0.00000       0.00000    
     42211 TIP3     5765     TIP3     H2       HT       0.417000       1.00800           0   0.00000     -0.301140E-02
     42212 TIP3     5766     TIP3     OH2      OT      -0.834000       15.9994           0   0.00000       0.00000    
     42213 TIP3     5766     TIP3     H1       HT       0.417000       1.00800           0   0.00000       0.00000    
     42214 TIP3     5766     TIP3     H2       HT       0.417000       1.00800           0   0.00000     -0.301140E-02
     42215 TIP3     5767     TIP3     OH2      OT      -0.834000       15.9994           0   0.00000       0.00000    
     42216 TIP3     5767     TIP3     H1       HT       0.417000       1.00800           0   0.00000       0.00000    
     42217 TIP3     5767     TIP3     H2       HT       0.417000       1.00800           0   0.00000     -0.301140E-02
     42218 TIP3     5768     TIP3     OH2      OT      -0.834000       15.9994           0   0.00000       0.00000    
     42219 TIP3     5768     TIP3     H1       HT       0.417000       1.00800           0   0.00000       0.00000    
     42220 TIP3     5768     TIP3     H2       HT       0.417000       1.00800           0   0.00000     -0.301140E-02
     42221 TIP3     5769     TIP3     OH2      OT      -0.834000       15.9994           0   0.00000       0.00000    
     42222 TIP3     5769     TIP3     H1       HT       0.417000       1.00800           0   0.00000       0.00000    
     42223 TIP3     5769     TIP3     H2       HT       0.417000       1.00800           0   0.00000     -0.301140E-02
     42224 TIP3     5770     TIP3     OH2      OT      -0.834000       15.9994           0   0.00000       0.00000    
     42225 TIP3     5770     TIP3     H1       HT       0.417000       1.00800           0   0.00000       0.00000    
     42226 TIP3     5770     TIP3     H2       HT       0.417000       1.00800           0   0.00000     -0.301140E-02
     42227 TIP3     5771     TIP3     OH2      OT      -0.834000       15.9994           0   0.00000       0.00000    
     42228 TIP3     5771     TIP3     H1       HT       0.417000       1.00800           0   0.00000       0.00000    
     42229 TIP3     5771     TIP3     H2       HT       0.417000       1.00800           0   0.00000     -0.301140E-02
     42230 TIP3     5772     TIP3     OH2      OT      -0.834000       15.9994           0   0.00000       0.00000    
     42231 TIP3     5772     TIP3     H1       HT       0.417000       1.00800           0   0.00000       0.00000    
     42232 TIP3     5772     TIP3     H2       HT       0.417000       1.00800           0   0.00000     -0.301140E-02
     42233 TIP3     5773     TIP3     OH2      OT      -0.834000       15.9994           0   0.00000       0.00000    
     42234 TIP3     5773     TIP3     H1       HT       0.417000       1.00800           0   0.00000       0.00000    
     42235 TIP3     5773     TIP3     H2       HT       0.417000       1.00800           0   0.00000     -0.301140E-02
     42236 TIP3     5774     TIP3     OH2      OT      -0.834000       15.9994           0   0.00000       0.00000    
     42237 TIP3     5774     TIP3     H1       HT       0.417000       1.00800           0   0.00000       0.00000    
     42238 TIP3     5774     TIP3     H2       HT       0.417000       1.00800           0   0.00000     -0.301140E-02
     42239 TIP3     5775     TIP3     OH2      OT      -0.834000       15.9994           0   0.00000       0.00000    
     42240 TIP3     5775     TIP3     H1       HT       0.417000       1.00800           0   0.00000       0.00000    
     42241 TIP3     5775     TIP3     H2       HT       0.417000       1.00800           0   0.00000     -0.301140E-02
     42242 TIP3     5776     TIP3     OH2      OT      -0.834000       15.9994           0   0.00000       0.00000    
     42243 TIP3     5776     TIP3     H1       HT       0.417000       1.00800           0   0.00000       0.00000    
     42244 TIP3     5776     TIP3     H2       HT       0.417000       1.00800           0   0.00000     -0.301140E-02
     42245 TIP3     5777     TIP3     OH2      OT      -0.834000       15.9994           0   0.00000       0.00000    
     42246 TIP3     5777     TIP3     H1       HT       0.417000       1.00800           0   0.00000       0.00000    
     42247 TIP3     5777     TIP3     H2       HT       0.417000       1.00800           0   0.00000     -0.301140E-02
     42248 TIP3     5778     TIP3     OH2      OT      -0.834000       15.9994           0   0.00000       0.00000    
     42249 TIP3     5778     TIP3     H1       HT       0.417000       1.00800           0   0.00000       0.00000    
     42250 TIP3     5778     TIP3     H2       HT       0.417000       1.00800           0   0.00000     -0.301140E-02
     42251 TIP3     5779     TIP3     OH2      OT      -0.834000       15.9994           0   0.00000       0.00000    
     42252 TIP3     5779     TIP3     H1       HT       0.417000       1.00800           0   0.00000       0.00000    
     42253 TIP3     5779     TIP3     H2       HT       0.417000       1.00800           0   0.00000     -0.301140E-02
     42254 TIP3     5780     TIP3     OH2      OT      -0.834000       15.9994           0   0.00000       0.00000    
     42255 TIP3     5780     TIP3     H1       HT       0.417000       1.00800           0   0.00000       0.00000    
     42256 TIP3     5780     TIP3     H2       HT       0.417000       1.00800           0   0.00000     -0.301140E-02
     42257 TIP3     5781     TIP3     OH2      OT      -0.834000       15.9994           0   0.00000       0.00000    
     42258 TIP3     5781     TIP3     H1       HT       0.417000       1.00800           0   0.00000       0.00000    
     42259 TIP3     5781     TIP3     H2       HT       0.417000       1.00800           0   0.00000     -0.301140E-02
     42260 TIP3     5782     TIP3     OH2      OT      -0.834000       15.9994           0   0.00000       0.00000    
     42261 TIP3     5782     TIP3     H1       HT       0.417000       1.00800           0   0.00000       0.00000    
     42262 TIP3     5782     TIP3     H2       HT       0.417000       1.00800           0   0.00000     -0.301140E-02
     42263 TIP3     5783     TIP3     OH2      OT      -0.834000       15.9994           0   0.00000       0.00000    
     42264 TIP3     5783     TIP3     H1       HT       0.417000       1.00800           0   0.00000       0.00000    
     42265 TIP3     5783     TIP3     H2       HT       0.417000       1.00800           0   0.00000     -0.301140E-02
     42266 TIP3     5784     TIP3     OH2      OT      -0.834000       15.9994           0   0.00000       0.00000    
     42267 TIP3     5784     TIP3     H1       HT       0.417000       1.00800           0   0.00000       0.00000    
     42268 TIP3     5784     TIP3     H2       HT       0.417000       1.00800           0   0.00000     -0.301140E-02
     42269 TIP3     5785     TIP3     OH2      OT      -0.834000       15.9994           0   0.00000       0.00000    
     42270 TIP3     5785     TIP3     H1       HT       0.417000       1.00800           0   0.00000       0.00000    
     42271 TIP3     5785     TIP3     H2       HT       0.417000       1.00800           0   0.00000     -0.301140E-02
     42272 TIP3     5786     TIP3     OH2      OT      -0.834000       15.9994           0   0.00000       0.00000    
     42273 TIP3     5786     TIP3     H1       HT       0.417000       1.00800           0   0.00000       0.00000    
     42274 TIP3     5786     TIP3     H2       HT       0.417000       1.00800           0   0.00000     -0.301140E-02
     42275 TIP3     5787     TIP3     OH2      OT      -0.834000       15.9994           0   0.00000       0.00000    
     42276 TIP3     5787     TIP3     H1       HT       0.417000       1.00800           0   0.00000       0.00000    
     42277 TIP3     5787     TIP3     H2       HT       0.417000       1.00800           0   0.00000     -0.301140E-02
     42278 TIP3     5788     TIP3     OH2      OT      -0.834000       15.9994           0   0.00000       0.00000    
     42279 TIP3     5788     TIP3     H1       HT       0.417000       1.00800           0   0.00000       0.00000    
     42280 TIP3     5788     TIP3     H2       HT       0.417000       1.00800           0   0.00000     -0.301140E-02
     42281 TIP3     5789     TIP3     OH2      OT      -0.834000       15.9994           0   0.00000       0.00000    
     42282 TIP3     5789     TIP3     H1       HT       0.417000       1.00800           0   0.00000       0.00000    
     42283 TIP3     5789     TIP3     H2       HT       0.417000       1.00800           0   0.00000     -0.301140E-02
     42284 TIP3     5790     TIP3     OH2      OT      -0.834000       15.9994           0   0.00000       0.00000    
     42285 TIP3     5790     TIP3     H1       HT       0.417000       1.00800           0   0.00000       0.00000    
     42286 TIP3     5790     TIP3     H2       HT       0.417000       1.00800           0   0.00000     -0.301140E-02
     42287 TIP3     5791     TIP3     OH2      OT      -0.834000       15.9994           0   0.00000       0.00000    
     42288 TIP3     5791     TIP3     H1       HT       0.417000       1.00800           0   0.00000       0.00000    
     42289 TIP3     5791     TIP3     H2       HT       0.417000       1.00800           0   0.00000     -0.301140E-02
     42290 TIP3     5792     TIP3     OH2      OT      -0.834000       15.9994           0   0.00000       0.00000    
     42291 TIP3     5792     TIP3     H1       HT       0.417000       1.00800           0   0.00000       0.00000    
     42292 TIP3     5792     TIP3     H2       HT       0.417000       1.00800           0   0.00000     -0.301140E-02
     42293 TIP3     5793     TIP3     OH2      OT      -0.834000       15.9994           0   0.00000       0.00000    
     42294 TIP3     5793     TIP3     H1       HT       0.417000       1.00800           0   0.00000       0.00000    
     42295 TIP3     5793     TIP3     H2       HT       0.417000       1.00800           0   0.00000     -0.301140E-02
     42296 TIP3     5794     TIP3     OH2      OT      -0.834000       15.9994           0   0.00000       0.00000    
     42297 TIP3     5794     TIP3     H1       HT       0.417000       1.00800           0   0.00000       0.00000    
     42298 TIP3     5794     TIP3     H2       HT       0.417000       1.00800           0   0.00000     -0.301140E-02
     42299 TIP3     5795     TIP3     OH2      OT      -0.834000       15.9994           0   0.00000       0.00000    
     42300 TIP3     5795     TIP3     H1       HT       0.417000       1.00800           0   0.00000       0.00000    
     42301 TIP3     5795     TIP3     H2       HT       0.417000       1.00800           0   0.00000     -0.301140E-02
     42302 TIP3     5796     TIP3     OH2      OT      -0.834000       15.9994           0   0.00000       0.00000    
     42303 TIP3     5796     TIP3     H1       HT       0.417000       1.00800           0   0.00000       0.00000    
     42304 TIP3     5796     TIP3     H2       HT       0.417000       1.00800           0   0.00000     -0.301140E-02
     42305 TIP3     5797     TIP3     OH2      OT      -0.834000       15.9994           0   0.00000       0.00000    
     42306 TIP3     5797     TIP3     H1       HT       0.417000       1.00800           0   0.00000       0.00000    
     42307 TIP3     5797     TIP3     H2       HT       0.417000       1.00800           0   0.00000     -0.301140E-02
     42308 TIP3     5798     TIP3     OH2      OT      -0.834000       15.9994           0   0.00000       0.00000    
     42309 TIP3     5798     TIP3     H1       HT       0.417000       1.00800           0   0.00000       0.00000    
     42310 TIP3     5798     TIP3     H2       HT       0.417000       1.00800           0   0.00000     -0.301140E-02
     42311 TIP3     5799     TIP3     OH2      OT      -0.834000       15.9994           0   0.00000       0.00000    
     42312 TIP3     5799     TIP3     H1       HT       0.417000       1.00800           0   0.00000       0.00000    
     42313 TIP3     5799     TIP3     H2       HT       0.417000       1.00800           0   0.00000     -0.301140E-02
     42314 TIP3     5800     TIP3     OH2      OT      -0.834000       15.9994           0   0.00000       0.00000    
     42315 TIP3     5800     TIP3     H1       HT       0.417000       1.00800           0   0.00000       0.00000    
     42316 TIP3     5800     TIP3     H2       HT       0.417000       1.00800           0   0.00000     -0.301140E-02
     42317 TIP3     5801     TIP3     OH2      OT      -0.834000       15.9994           0   0.00000       0.00000    
     42318 TIP3     5801     TIP3     H1       HT       0.417000       1.00800           0   0.00000       0.00000    
     42319 TIP3     5801     TIP3     H2       HT       0.417000       1.00800           0   0.00000     -0.301140E-02
     42320 TIP3     5802     TIP3     OH2      OT      -0.834000       15.9994           0   0.00000       0.00000    
     42321 TIP3     5802     TIP3     H1       HT       0.417000       1.00800           0   0.00000       0.00000    
     42322 TIP3     5802     TIP3     H2       HT       0.417000       1.00800           0   0.00000     -0.301140E-02
     42323 TIP3     5803     TIP3     OH2      OT      -0.834000       15.9994           0   0.00000       0.00000    
     42324 TIP3     5803     TIP3     H1       HT       0.417000       1.00800           0   0.00000       0.00000    
     42325 TIP3     5803     TIP3     H2       HT       0.417000       1.00800           0   0.00000     -0.301140E-02
     42326 TIP3     5804     TIP3     OH2      OT      -0.834000       15.9994           0   0.00000       0.00000    
     42327 TIP3     5804     TIP3     H1       HT       0.417000       1.00800           0   0.00000       0.00000    
     42328 TIP3     5804     TIP3     H2       HT       0.417000       1.00800           0   0.00000     -0.301140E-02
     42329 TIP3     5805     TIP3     OH2      OT      -0.834000       15.9994           0   0.00000       0.00000    
     42330 TIP3     5805     TIP3     H1       HT       0.417000       1.00800           0   0.00000       0.00000    
     42331 TIP3     5805     TIP3     H2       HT       0.417000       1.00800           0   0.00000     -0.301140E-02
     42332 TIP3     5806     TIP3     OH2      OT      -0.834000       15.9994           0   0.00000       0.00000    
     42333 TIP3     5806     TIP3     H1       HT       0.417000       1.00800           0   0.00000       0.00000    
     42334 TIP3     5806     TIP3     H2       HT       0.417000       1.00800           0   0.00000     -0.301140E-02
     42335 TIP3     5807     TIP3     OH2      OT      -0.834000       15.9994           0   0.00000       0.00000    
     42336 TIP3     5807     TIP3     H1       HT       0.417000       1.00800           0   0.00000       0.00000    
     42337 TIP3     5807     TIP3     H2       HT       0.417000       1.00800           0   0.00000     -0.301140E-02
     42338 TIP3     5808     TIP3     OH2      OT      -0.834000       15.9994           0   0.00000       0.00000    
     42339 TIP3     5808     TIP3     H1       HT       0.417000       1.00800           0   0.00000       0.00000    
     42340 TIP3     5808     TIP3     H2       HT       0.417000       1.00800           0   0.00000     -0.301140E-02
     42341 TIP3     5809     TIP3     OH2      OT      -0.834000       15.9994           0   0.00000       0.00000    
     42342 TIP3     5809     TIP3     H1       HT       0.417000       1.00800           0   0.00000       0.00000    
     42343 TIP3     5809     TIP3     H2       HT       0.417000       1.00800           0   0.00000     -0.301140E-02
     42344 TIP3     5810     TIP3     OH2      OT      -0.834000       15.9994           0   0.00000       0.00000    
     42345 TIP3     5810     TIP3     H1       HT       0.417000       1.00800           0   0.00000       0.00000    
     42346 TIP3     5810     TIP3     H2       HT       0.417000       1.00800           0   0.00000     -0.301140E-02
     42347 TIP3     5811     TIP3     OH2      OT      -0.834000       15.9994           0   0.00000       0.00000    
     42348 TIP3     5811     TIP3     H1       HT       0.417000       1.00800           0   0.00000       0.00000    
     42349 TIP3     5811     TIP3     H2       HT       0.417000       1.00800           0   0.00000     -0.301140E-02
     42350 TIP3     5812     TIP3     OH2      OT      -0.834000       15.9994           0   0.00000       0.00000    
     42351 TIP3     5812     TIP3     H1       HT       0.417000       1.00800           0   0.00000       0.00000    
     42352 TIP3     5812     TIP3     H2       HT       0.417000       1.00800           0   0.00000     -0.301140E-02
     42353 TIP3     5813     TIP3     OH2      OT      -0.834000       15.9994           0   0.00000       0.00000    
     42354 TIP3     5813     TIP3     H1       HT       0.417000       1.00800           0   0.00000       0.00000    
     42355 TIP3     5813     TIP3     H2       HT       0.417000       1.00800           0   0.00000     -0.301140E-02
     42356 TIP3     5814     TIP3     OH2      OT      -0.834000       15.9994           0   0.00000       0.00000    
     42357 TIP3     5814     TIP3     H1       HT       0.417000       1.00800           0   0.00000       0.00000    
     42358 TIP3     5814     TIP3     H2       HT       0.417000       1.00800           0   0.00000     -0.301140E-02
     42359 TIP3     5815     TIP3     OH2      OT      -0.834000       15.9994           0   0.00000       0.00000    
     42360 TIP3     5815     TIP3     H1       HT       0.417000       1.00800           0   0.00000       0.00000    
     42361 TIP3     5815     TIP3     H2       HT       0.417000       1.00800           0   0.00000     -0.301140E-02
     42362 TIP3     5816     TIP3     OH2      OT      -0.834000       15.9994           0   0.00000       0.00000    
     42363 TIP3     5816     TIP3     H1       HT       0.417000       1.00800           0   0.00000       0.00000    
     42364 TIP3     5816     TIP3     H2       HT       0.417000       1.00800           0   0.00000     -0.301140E-02
     42365 TIP3     5817     TIP3     OH2      OT      -0.834000       15.9994           0   0.00000       0.00000    
     42366 TIP3     5817     TIP3     H1       HT       0.417000       1.00800           0   0.00000       0.00000    
     42367 TIP3     5817     TIP3     H2       HT       0.417000       1.00800           0   0.00000     -0.301140E-02
     42368 TIP3     5818     TIP3     OH2      OT      -0.834000       15.9994           0   0.00000       0.00000    
     42369 TIP3     5818     TIP3     H1       HT       0.417000       1.00800           0   0.00000       0.00000    
     42370 TIP3     5818     TIP3     H2       HT       0.417000       1.00800           0   0.00000     -0.301140E-02
     42371 TIP3     5819     TIP3     OH2      OT      -0.834000       15.9994           0   0.00000       0.00000    
     42372 TIP3     5819     TIP3     H1       HT       0.417000       1.00800           0   0.00000       0.00000    
     42373 TIP3     5819     TIP3     H2       HT       0.417000       1.00800           0   0.00000     -0.301140E-02
     42374 TIP3     5820     TIP3     OH2      OT      -0.834000       15.9994           0   0.00000       0.00000    
     42375 TIP3     5820     TIP3     H1       HT       0.417000       1.00800           0   0.00000       0.00000    
     42376 TIP3     5820     TIP3     H2       HT       0.417000       1.00800           0   0.00000     -0.301140E-02
     42377 TIP3     5821     TIP3     OH2      OT      -0.834000       15.9994           0   0.00000       0.00000    
     42378 TIP3     5821     TIP3     H1       HT       0.417000       1.00800           0   0.00000       0.00000    
     42379 TIP3     5821     TIP3     H2       HT       0.417000       1.00800           0   0.00000     -0.301140E-02
     42380 TIP3     5822     TIP3     OH2      OT      -0.834000       15.9994           0   0.00000       0.00000    
     42381 TIP3     5822     TIP3     H1       HT       0.417000       1.00800           0   0.00000       0.00000    
     42382 TIP3     5822     TIP3     H2       HT       0.417000       1.00800           0   0.00000     -0.301140E-02
     42383 TIP3     5823     TIP3     OH2      OT      -0.834000       15.9994           0   0.00000       0.00000    
     42384 TIP3     5823     TIP3     H1       HT       0.417000       1.00800           0   0.00000       0.00000    
     42385 TIP3     5823     TIP3     H2       HT       0.417000       1.00800           0   0.00000     -0.301140E-02
     42386 TIP3     5824     TIP3     OH2      OT      -0.834000       15.9994           0   0.00000       0.00000    
     42387 TIP3     5824     TIP3     H1       HT       0.417000       1.00800           0   0.00000       0.00000    
     42388 TIP3     5824     TIP3     H2       HT       0.417000       1.00800           0   0.00000     -0.301140E-02
     42389 TIP3     5825     TIP3     OH2      OT      -0.834000       15.9994           0   0.00000       0.00000    
     42390 TIP3     5825     TIP3     H1       HT       0.417000       1.00800           0   0.00000       0.00000    
     42391 TIP3     5825     TIP3     H2       HT       0.417000       1.00800           0   0.00000     -0.301140E-02
     42392 TIP3     5826     TIP3     OH2      OT      -0.834000       15.9994           0   0.00000       0.00000    
     42393 TIP3     5826     TIP3     H1       HT       0.417000       1.00800           0   0.00000       0.00000    
     42394 TIP3     5826     TIP3     H2       HT       0.417000       1.00800           0   0.00000     -0.301140E-02
     42395 TIP3     5827     TIP3     OH2      OT      -0.834000       15.9994           0   0.00000       0.00000    
     42396 TIP3     5827     TIP3     H1       HT       0.417000       1.00800           0   0.00000       0.00000    
     42397 TIP3     5827     TIP3     H2       HT       0.417000       1.00800           0   0.00000     -0.301140E-02
     42398 TIP3     5828     TIP3     OH2      OT      -0.834000       15.9994           0   0.00000       0.00000    
     42399 TIP3     5828     TIP3     H1       HT       0.417000       1.00800           0   0.00000       0.00000    
     42400 TIP3     5828     TIP3     H2       HT       0.417000       1.00800           0   0.00000     -0.301140E-02
     42401 TIP3     5829     TIP3     OH2      OT      -0.834000       15.9994           0   0.00000       0.00000    
     42402 TIP3     5829     TIP3     H1       HT       0.417000       1.00800           0   0.00000       0.00000    
     42403 TIP3     5829     TIP3     H2       HT       0.417000       1.00800           0   0.00000     -0.301140E-02
     42404 TIP3     5830     TIP3     OH2      OT      -0.834000       15.9994           0   0.00000       0.00000    
     42405 TIP3     5830     TIP3     H1       HT       0.417000       1.00800           0   0.00000       0.00000    
     42406 TIP3     5830     TIP3     H2       HT       0.417000       1.00800           0   0.00000     -0.301140E-02
     42407 TIP3     5831     TIP3     OH2      OT      -0.834000       15.9994           0   0.00000       0.00000    
     42408 TIP3     5831     TIP3     H1       HT       0.417000       1.00800           0   0.00000       0.00000    
     42409 TIP3     5831     TIP3     H2       HT       0.417000       1.00800           0   0.00000     -0.301140E-02
     42410 TIP3     5832     TIP3     OH2      OT      -0.834000       15.9994           0   0.00000       0.00000    
     42411 TIP3     5832     TIP3     H1       HT       0.417000       1.00800           0   0.00000       0.00000    
     42412 TIP3     5832     TIP3     H2       HT       0.417000       1.00800           0   0.00000     -0.301140E-02
     42413 TIP3     5833     TIP3     OH2      OT      -0.834000       15.9994           0   0.00000       0.00000    
     42414 TIP3     5833     TIP3     H1       HT       0.417000       1.00800           0   0.00000       0.00000    
     42415 TIP3     5833     TIP3     H2       HT       0.417000       1.00800           0   0.00000     -0.301140E-02
     42416 TIP3     5834     TIP3     OH2      OT      -0.834000       15.9994           0   0.00000       0.00000    
     42417 TIP3     5834     TIP3     H1       HT       0.417000       1.00800           0   0.00000       0.00000    
     42418 TIP3     5834     TIP3     H2       HT       0.417000       1.00800           0   0.00000     -0.301140E-02
     42419 TIP3     5835     TIP3     OH2      OT      -0.834000       15.9994           0   0.00000       0.00000    
     42420 TIP3     5835     TIP3     H1       HT       0.417000       1.00800           0   0.00000       0.00000    
     42421 TIP3     5835     TIP3     H2       HT       0.417000       1.00800           0   0.00000     -0.301140E-02
     42422 TIP3     5836     TIP3     OH2      OT      -0.834000       15.9994           0   0.00000       0.00000    
     42423 TIP3     5836     TIP3     H1       HT       0.417000       1.00800           0   0.00000       0.00000    
     42424 TIP3     5836     TIP3     H2       HT       0.417000       1.00800           0   0.00000     -0.301140E-02
     42425 TIP3     5837     TIP3     OH2      OT      -0.834000       15.9994           0   0.00000       0.00000    
     42426 TIP3     5837     TIP3     H1       HT       0.417000       1.00800           0   0.00000       0.00000    
     42427 TIP3     5837     TIP3     H2       HT       0.417000       1.00800           0   0.00000     -0.301140E-02
     42428 TIP3     5838     TIP3     OH2      OT      -0.834000       15.9994           0   0.00000       0.00000    
     42429 TIP3     5838     TIP3     H1       HT       0.417000       1.00800           0   0.00000       0.00000    
     42430 TIP3     5838     TIP3     H2       HT       0.417000       1.00800           0   0.00000     -0.301140E-02
     42431 TIP3     5839     TIP3     OH2      OT      -0.834000       15.9994           0   0.00000       0.00000    
     42432 TIP3     5839     TIP3     H1       HT       0.417000       1.00800           0   0.00000       0.00000    
     42433 TIP3     5839     TIP3     H2       HT       0.417000       1.00800           0   0.00000     -0.301140E-02
     42434 TIP3     5840     TIP3     OH2      OT      -0.834000       15.9994           0   0.00000       0.00000    
     42435 TIP3     5840     TIP3     H1       HT       0.417000       1.00800           0   0.00000       0.00000    
     42436 TIP3     5840     TIP3     H2       HT       0.417000       1.00800           0   0.00000     -0.301140E-02
     42437 TIP3     5841     TIP3     OH2      OT      -0.834000       15.9994           0   0.00000       0.00000    
     42438 TIP3     5841     TIP3     H1       HT       0.417000       1.00800           0   0.00000       0.00000    
     42439 TIP3     5841     TIP3     H2       HT       0.417000       1.00800           0   0.00000     -0.301140E-02
     42440 TIP3     5842     TIP3     OH2      OT      -0.834000       15.9994           0   0.00000       0.00000    
     42441 TIP3     5842     TIP3     H1       HT       0.417000       1.00800           0   0.00000       0.00000    
     42442 TIP3     5842     TIP3     H2       HT       0.417000       1.00800           0   0.00000     -0.301140E-02
     42443 TIP3     5843     TIP3     OH2      OT      -0.834000       15.9994           0   0.00000       0.00000    
     42444 TIP3     5843     TIP3     H1       HT       0.417000       1.00800           0   0.00000       0.00000    
     42445 TIP3     5843     TIP3     H2       HT       0.417000       1.00800           0   0.00000     -0.301140E-02
     42446 TIP3     5844     TIP3     OH2      OT      -0.834000       15.9994           0   0.00000       0.00000    
     42447 TIP3     5844     TIP3     H1       HT       0.417000       1.00800           0   0.00000       0.00000    
     42448 TIP3     5844     TIP3     H2       HT       0.417000       1.00800           0   0.00000     -0.301140E-02
     42449 TIP3     5845     TIP3     OH2      OT      -0.834000       15.9994           0   0.00000       0.00000    
     42450 TIP3     5845     TIP3     H1       HT       0.417000       1.00800           0   0.00000       0.00000    
     42451 TIP3     5845     TIP3     H2       HT       0.417000       1.00800           0   0.00000     -0.301140E-02
     42452 TIP3     5846     TIP3     OH2      OT      -0.834000       15.9994           0   0.00000       0.00000    
     42453 TIP3     5846     TIP3     H1       HT       0.417000       1.00800           0   0.00000       0.00000    
     42454 TIP3     5846     TIP3     H2       HT       0.417000       1.00800           0   0.00000     -0.301140E-02
     42455 TIP3     5847     TIP3     OH2      OT      -0.834000       15.9994           0   0.00000       0.00000    
     42456 TIP3     5847     TIP3     H1       HT       0.417000       1.00800           0   0.00000       0.00000    
     42457 TIP3     5847     TIP3     H2       HT       0.417000       1.00800           0   0.00000     -0.301140E-02
     42458 TIP3     5848     TIP3     OH2      OT      -0.834000       15.9994           0   0.00000       0.00000    
     42459 TIP3     5848     TIP3     H1       HT       0.417000       1.00800           0   0.00000       0.00000    
     42460 TIP3     5848     TIP3     H2       HT       0.417000       1.00800           0   0.00000     -0.301140E-02
     42461 TIP3     5849     TIP3     OH2      OT      -0.834000       15.9994           0   0.00000       0.00000    
     42462 TIP3     5849     TIP3     H1       HT       0.417000       1.00800           0   0.00000       0.00000    
     42463 TIP3     5849     TIP3     H2       HT       0.417000       1.00800           0   0.00000     -0.301140E-02
     42464 TIP3     5850     TIP3     OH2      OT      -0.834000       15.9994           0   0.00000       0.00000    
     42465 TIP3     5850     TIP3     H1       HT       0.417000       1.00800           0   0.00000       0.00000    
     42466 TIP3     5850     TIP3     H2       HT       0.417000       1.00800           0   0.00000     -0.301140E-02
     42467 TIP3     5851     TIP3     OH2      OT      -0.834000       15.9994           0   0.00000       0.00000    
     42468 TIP3     5851     TIP3     H1       HT       0.417000       1.00800           0   0.00000       0.00000    
     42469 TIP3     5851     TIP3     H2       HT       0.417000       1.00800           0   0.00000     -0.301140E-02
     42470 TIP3     5852     TIP3     OH2      OT      -0.834000       15.9994           0   0.00000       0.00000    
     42471 TIP3     5852     TIP3     H1       HT       0.417000       1.00800           0   0.00000       0.00000    
     42472 TIP3     5852     TIP3     H2       HT       0.417000       1.00800           0   0.00000     -0.301140E-02
     42473 TIP3     5853     TIP3     OH2      OT      -0.834000       15.9994           0   0.00000       0.00000    
     42474 TIP3     5853     TIP3     H1       HT       0.417000       1.00800           0   0.00000       0.00000    
     42475 TIP3     5853     TIP3     H2       HT       0.417000       1.00800           0   0.00000     -0.301140E-02
     42476 TIP3     5854     TIP3     OH2      OT      -0.834000       15.9994           0   0.00000       0.00000    
     42477 TIP3     5854     TIP3     H1       HT       0.417000       1.00800           0   0.00000       0.00000    
     42478 TIP3     5854     TIP3     H2       HT       0.417000       1.00800           0   0.00000     -0.301140E-02
     42479 TIP3     5855     TIP3     OH2      OT      -0.834000       15.9994           0   0.00000       0.00000    
     42480 TIP3     5855     TIP3     H1       HT       0.417000       1.00800           0   0.00000       0.00000    
     42481 TIP3     5855     TIP3     H2       HT       0.417000       1.00800           0   0.00000     -0.301140E-02
     42482 TIP3     5856     TIP3     OH2      OT      -0.834000       15.9994           0   0.00000       0.00000    
     42483 TIP3     5856     TIP3     H1       HT       0.417000       1.00800           0   0.00000       0.00000    
     42484 TIP3     5856     TIP3     H2       HT       0.417000       1.00800           0   0.00000     -0.301140E-02
     42485 TIP3     5857     TIP3     OH2      OT      -0.834000       15.9994           0   0.00000       0.00000    
     42486 TIP3     5857     TIP3     H1       HT       0.417000       1.00800           0   0.00000       0.00000    
     42487 TIP3     5857     TIP3     H2       HT       0.417000       1.00800           0   0.00000     -0.301140E-02
     42488 TIP3     5858     TIP3     OH2      OT      -0.834000       15.9994           0   0.00000       0.00000    
     42489 TIP3     5858     TIP3     H1       HT       0.417000       1.00800           0   0.00000       0.00000    
     42490 TIP3     5858     TIP3     H2       HT       0.417000       1.00800           0   0.00000     -0.301140E-02
     42491 TIP3     5859     TIP3     OH2      OT      -0.834000       15.9994           0   0.00000       0.00000    
     42492 TIP3     5859     TIP3     H1       HT       0.417000       1.00800           0   0.00000       0.00000    
     42493 TIP3     5859     TIP3     H2       HT       0.417000       1.00800           0   0.00000     -0.301140E-02
     42494 TIP3     5860     TIP3     OH2      OT      -0.834000       15.9994           0   0.00000       0.00000    
     42495 TIP3     5860     TIP3     H1       HT       0.417000       1.00800           0   0.00000       0.00000    
     42496 TIP3     5860     TIP3     H2       HT       0.417000       1.00800           0   0.00000     -0.301140E-02
     42497 TIP3     5861     TIP3     OH2      OT      -0.834000       15.9994           0   0.00000       0.00000    
     42498 TIP3     5861     TIP3     H1       HT       0.417000       1.00800           0   0.00000       0.00000    
     42499 TIP3     5861     TIP3     H2       HT       0.417000       1.00800           0   0.00000     -0.301140E-02
     42500 TIP3     5862     TIP3     OH2      OT      -0.834000       15.9994           0   0.00000       0.00000    
     42501 TIP3     5862     TIP3     H1       HT       0.417000       1.00800           0   0.00000       0.00000    
     42502 TIP3     5862     TIP3     H2       HT       0.417000       1.00800           0   0.00000     -0.301140E-02
     42503 TIP3     5863     TIP3     OH2      OT      -0.834000       15.9994           0   0.00000       0.00000    
     42504 TIP3     5863     TIP3     H1       HT       0.417000       1.00800           0   0.00000       0.00000    
     42505 TIP3     5863     TIP3     H2       HT       0.417000       1.00800           0   0.00000     -0.301140E-02
     42506 TIP3     5864     TIP3     OH2      OT      -0.834000       15.9994           0   0.00000       0.00000    
     42507 TIP3     5864     TIP3     H1       HT       0.417000       1.00800           0   0.00000       0.00000    
     42508 TIP3     5864     TIP3     H2       HT       0.417000       1.00800           0   0.00000     -0.301140E-02
     42509 TIP3     5865     TIP3     OH2      OT      -0.834000       15.9994           0   0.00000       0.00000    
     42510 TIP3     5865     TIP3     H1       HT       0.417000       1.00800           0   0.00000       0.00000    
     42511 TIP3     5865     TIP3     H2       HT       0.417000       1.00800           0   0.00000     -0.301140E-02
     42512 TIP3     5866     TIP3     OH2      OT      -0.834000       15.9994           0   0.00000       0.00000    
     42513 TIP3     5866     TIP3     H1       HT       0.417000       1.00800           0   0.00000       0.00000    
     42514 TIP3     5866     TIP3     H2       HT       0.417000       1.00800           0   0.00000     -0.301140E-02
     42515 TIP3     5867     TIP3     OH2      OT      -0.834000       15.9994           0   0.00000       0.00000    
     42516 TIP3     5867     TIP3     H1       HT       0.417000       1.00800           0   0.00000       0.00000    
     42517 TIP3     5867     TIP3     H2       HT       0.417000       1.00800           0   0.00000     -0.301140E-02
     42518 TIP3     5868     TIP3     OH2      OT      -0.834000       15.9994           0   0.00000       0.00000    
     42519 TIP3     5868     TIP3     H1       HT       0.417000       1.00800           0   0.00000       0.00000    
     42520 TIP3     5868     TIP3     H2       HT       0.417000       1.00800           0   0.00000     -0.301140E-02
     42521 TIP3     5869     TIP3     OH2      OT      -0.834000       15.9994           0   0.00000       0.00000    
     42522 TIP3     5869     TIP3     H1       HT       0.417000       1.00800           0   0.00000       0.00000    
     42523 TIP3     5869     TIP3     H2       HT       0.417000       1.00800           0   0.00000     -0.301140E-02
     42524 TIP3     5870     TIP3     OH2      OT      -0.834000       15.9994           0   0.00000       0.00000    
     42525 TIP3     5870     TIP3     H1       HT       0.417000       1.00800           0   0.00000       0.00000    
     42526 TIP3     5870     TIP3     H2       HT       0.417000       1.00800           0   0.00000     -0.301140E-02
     42527 TIP3     5871     TIP3     OH2      OT      -0.834000       15.9994           0   0.00000       0.00000    
     42528 TIP3     5871     TIP3     H1       HT       0.417000       1.00800           0   0.00000       0.00000    
     42529 TIP3     5871     TIP3     H2       HT       0.417000       1.00800           0   0.00000     -0.301140E-02
     42530 TIP3     5872     TIP3     OH2      OT      -0.834000       15.9994           0   0.00000       0.00000    
     42531 TIP3     5872     TIP3     H1       HT       0.417000       1.00800           0   0.00000       0.00000    
     42532 TIP3     5872     TIP3     H2       HT       0.417000       1.00800           0   0.00000     -0.301140E-02
     42533 TIP3     5873     TIP3     OH2      OT      -0.834000       15.9994           0   0.00000       0.00000    
     42534 TIP3     5873     TIP3     H1       HT       0.417000       1.00800           0   0.00000       0.00000    
     42535 TIP3     5873     TIP3     H2       HT       0.417000       1.00800           0   0.00000     -0.301140E-02
     42536 TIP3     5874     TIP3     OH2      OT      -0.834000       15.9994           0   0.00000       0.00000    
     42537 TIP3     5874     TIP3     H1       HT       0.417000       1.00800           0   0.00000       0.00000    
     42538 TIP3     5874     TIP3     H2       HT       0.417000       1.00800           0   0.00000     -0.301140E-02
     42539 TIP3     5875     TIP3     OH2      OT      -0.834000       15.9994           0   0.00000       0.00000    
     42540 TIP3     5875     TIP3     H1       HT       0.417000       1.00800           0   0.00000       0.00000    
     42541 TIP3     5875     TIP3     H2       HT       0.417000       1.00800           0   0.00000     -0.301140E-02
     42542 TIP3     5876     TIP3     OH2      OT      -0.834000       15.9994           0   0.00000       0.00000    
     42543 TIP3     5876     TIP3     H1       HT       0.417000       1.00800           0   0.00000       0.00000    
     42544 TIP3     5876     TIP3     H2       HT       0.417000       1.00800           0   0.00000     -0.301140E-02
     42545 TIP3     5877     TIP3     OH2      OT      -0.834000       15.9994           0   0.00000       0.00000    
     42546 TIP3     5877     TIP3     H1       HT       0.417000       1.00800           0   0.00000       0.00000    
     42547 TIP3     5877     TIP3     H2       HT       0.417000       1.00800           0   0.00000     -0.301140E-02
     42548 TIP3     5878     TIP3     OH2      OT      -0.834000       15.9994           0   0.00000       0.00000    
     42549 TIP3     5878     TIP3     H1       HT       0.417000       1.00800           0   0.00000       0.00000    
     42550 TIP3     5878     TIP3     H2       HT       0.417000       1.00800           0   0.00000     -0.301140E-02
     42551 TIP3     5879     TIP3     OH2      OT      -0.834000       15.9994           0   0.00000       0.00000    
     42552 TIP3     5879     TIP3     H1       HT       0.417000       1.00800           0   0.00000       0.00000    
     42553 TIP3     5879     TIP3     H2       HT       0.417000       1.00800           0   0.00000     -0.301140E-02
     42554 TIP3     5880     TIP3     OH2      OT      -0.834000       15.9994           0   0.00000       0.00000    
     42555 TIP3     5880     TIP3     H1       HT       0.417000       1.00800           0   0.00000       0.00000    
     42556 TIP3     5880     TIP3     H2       HT       0.417000       1.00800           0   0.00000     -0.301140E-02
     42557 TIP3     5881     TIP3     OH2      OT      -0.834000       15.9994           0   0.00000       0.00000    
     42558 TIP3     5881     TIP3     H1       HT       0.417000       1.00800           0   0.00000       0.00000    
     42559 TIP3     5881     TIP3     H2       HT       0.417000       1.00800           0   0.00000     -0.301140E-02
     42560 TIP3     5882     TIP3     OH2      OT      -0.834000       15.9994           0   0.00000       0.00000    
     42561 TIP3     5882     TIP3     H1       HT       0.417000       1.00800           0   0.00000       0.00000    
     42562 TIP3     5882     TIP3     H2       HT       0.417000       1.00800           0   0.00000     -0.301140E-02
     42563 TIP3     5883     TIP3     OH2      OT      -0.834000       15.9994           0   0.00000       0.00000    
     42564 TIP3     5883     TIP3     H1       HT       0.417000       1.00800           0   0.00000       0.00000    
     42565 TIP3     5883     TIP3     H2       HT       0.417000       1.00800           0   0.00000     -0.301140E-02
     42566 TIP3     5884     TIP3     OH2      OT      -0.834000       15.9994           0   0.00000       0.00000    
     42567 TIP3     5884     TIP3     H1       HT       0.417000       1.00800           0   0.00000       0.00000    
     42568 TIP3     5884     TIP3     H2       HT       0.417000       1.00800           0   0.00000     -0.301140E-02
     42569 TIP3     5885     TIP3     OH2      OT      -0.834000       15.9994           0   0.00000       0.00000    
     42570 TIP3     5885     TIP3     H1       HT       0.417000       1.00800           0   0.00000       0.00000    
     42571 TIP3     5885     TIP3     H2       HT       0.417000       1.00800           0   0.00000     -0.301140E-02
     42572 TIP3     5886     TIP3     OH2      OT      -0.834000       15.9994           0   0.00000       0.00000    
     42573 TIP3     5886     TIP3     H1       HT       0.417000       1.00800           0   0.00000       0.00000    
     42574 TIP3     5886     TIP3     H2       HT       0.417000       1.00800           0   0.00000     -0.301140E-02
     42575 TIP3     5887     TIP3     OH2      OT      -0.834000       15.9994           0   0.00000       0.00000    
     42576 TIP3     5887     TIP3     H1       HT       0.417000       1.00800           0   0.00000       0.00000    
     42577 TIP3     5887     TIP3     H2       HT       0.417000       1.00800           0   0.00000     -0.301140E-02
     42578 TIP3     5888     TIP3     OH2      OT      -0.834000       15.9994           0   0.00000       0.00000    
     42579 TIP3     5888     TIP3     H1       HT       0.417000       1.00800           0   0.00000       0.00000    
     42580 TIP3     5888     TIP3     H2       HT       0.417000       1.00800           0   0.00000     -0.301140E-02
     42581 TIP3     5889     TIP3     OH2      OT      -0.834000       15.9994           0   0.00000       0.00000    
     42582 TIP3     5889     TIP3     H1       HT       0.417000       1.00800           0   0.00000       0.00000    
     42583 TIP3     5889     TIP3     H2       HT       0.417000       1.00800           0   0.00000     -0.301140E-02
     42584 TIP3     5890     TIP3     OH2      OT      -0.834000       15.9994           0   0.00000       0.00000    
     42585 TIP3     5890     TIP3     H1       HT       0.417000       1.00800           0   0.00000       0.00000    
     42586 TIP3     5890     TIP3     H2       HT       0.417000       1.00800           0   0.00000     -0.301140E-02
     42587 TIP3     5891     TIP3     OH2      OT      -0.834000       15.9994           0   0.00000       0.00000    
     42588 TIP3     5891     TIP3     H1       HT       0.417000       1.00800           0   0.00000       0.00000    
     42589 TIP3     5891     TIP3     H2       HT       0.417000       1.00800           0   0.00000     -0.301140E-02
     42590 TIP3     5892     TIP3     OH2      OT      -0.834000       15.9994           0   0.00000       0.00000    
     42591 TIP3     5892     TIP3     H1       HT       0.417000       1.00800           0   0.00000       0.00000    
     42592 TIP3     5892     TIP3     H2       HT       0.417000       1.00800           0   0.00000     -0.301140E-02
     42593 TIP3     5893     TIP3     OH2      OT      -0.834000       15.9994           0   0.00000       0.00000    
     42594 TIP3     5893     TIP3     H1       HT       0.417000       1.00800           0   0.00000       0.00000    
     42595 TIP3     5893     TIP3     H2       HT       0.417000       1.00800           0   0.00000     -0.301140E-02
     42596 TIP3     5894     TIP3     OH2      OT      -0.834000       15.9994           0   0.00000       0.00000    
     42597 TIP3     5894     TIP3     H1       HT       0.417000       1.00800           0   0.00000       0.00000    
     42598 TIP3     5894     TIP3     H2       HT       0.417000       1.00800           0   0.00000     -0.301140E-02
     42599 TIP3     5895     TIP3     OH2      OT      -0.834000       15.9994           0   0.00000       0.00000    
     42600 TIP3     5895     TIP3     H1       HT       0.417000       1.00800           0   0.00000       0.00000    
     42601 TIP3     5895     TIP3     H2       HT       0.417000       1.00800           0   0.00000     -0.301140E-02
     42602 TIP3     5896     TIP3     OH2      OT      -0.834000       15.9994           0   0.00000       0.00000    
     42603 TIP3     5896     TIP3     H1       HT       0.417000       1.00800           0   0.00000       0.00000    
     42604 TIP3     5896     TIP3     H2       HT       0.417000       1.00800           0   0.00000     -0.301140E-02
     42605 TIP3     5897     TIP3     OH2      OT      -0.834000       15.9994           0   0.00000       0.00000    
     42606 TIP3     5897     TIP3     H1       HT       0.417000       1.00800           0   0.00000       0.00000    
     42607 TIP3     5897     TIP3     H2       HT       0.417000       1.00800           0   0.00000     -0.301140E-02
     42608 TIP3     5898     TIP3     OH2      OT      -0.834000       15.9994           0   0.00000       0.00000    
     42609 TIP3     5898     TIP3     H1       HT       0.417000       1.00800           0   0.00000       0.00000    
     42610 TIP3     5898     TIP3     H2       HT       0.417000       1.00800           0   0.00000     -0.301140E-02
     42611 TIP3     5899     TIP3     OH2      OT      -0.834000       15.9994           0   0.00000       0.00000    
     42612 TIP3     5899     TIP3     H1       HT       0.417000       1.00800           0   0.00000       0.00000    
     42613 TIP3     5899     TIP3     H2       HT       0.417000       1.00800           0   0.00000     -0.301140E-02
     42614 TIP3     5900     TIP3     OH2      OT      -0.834000       15.9994           0   0.00000       0.00000    
     42615 TIP3     5900     TIP3     H1       HT       0.417000       1.00800           0   0.00000       0.00000    
     42616 TIP3     5900     TIP3     H2       HT       0.417000       1.00800           0   0.00000     -0.301140E-02
     42617 TIP3     5901     TIP3     OH2      OT      -0.834000       15.9994           0   0.00000       0.00000    
     42618 TIP3     5901     TIP3     H1       HT       0.417000       1.00800           0   0.00000       0.00000    
     42619 TIP3     5901     TIP3     H2       HT       0.417000       1.00800           0   0.00000     -0.301140E-02
     42620 TIP3     5902     TIP3     OH2      OT      -0.834000       15.9994           0   0.00000       0.00000    
     42621 TIP3     5902     TIP3     H1       HT       0.417000       1.00800           0   0.00000       0.00000    
     42622 TIP3     5902     TIP3     H2       HT       0.417000       1.00800           0   0.00000     -0.301140E-02
     42623 TIP3     5903     TIP3     OH2      OT      -0.834000       15.9994           0   0.00000       0.00000    
     42624 TIP3     5903     TIP3     H1       HT       0.417000       1.00800           0   0.00000       0.00000    
     42625 TIP3     5903     TIP3     H2       HT       0.417000       1.00800           0   0.00000     -0.301140E-02
     42626 TIP3     5904     TIP3     OH2      OT      -0.834000       15.9994           0   0.00000       0.00000    
     42627 TIP3     5904     TIP3     H1       HT       0.417000       1.00800           0   0.00000       0.00000    
     42628 TIP3     5904     TIP3     H2       HT       0.417000       1.00800           0   0.00000     -0.301140E-02
     42629 TIP3     5905     TIP3     OH2      OT      -0.834000       15.9994           0   0.00000       0.00000    
     42630 TIP3     5905     TIP3     H1       HT       0.417000       1.00800           0   0.00000       0.00000    
     42631 TIP3     5905     TIP3     H2       HT       0.417000       1.00800           0   0.00000     -0.301140E-02
     42632 TIP3     5906     TIP3     OH2      OT      -0.834000       15.9994           0   0.00000       0.00000    
     42633 TIP3     5906     TIP3     H1       HT       0.417000       1.00800           0   0.00000       0.00000    
     42634 TIP3     5906     TIP3     H2       HT       0.417000       1.00800           0   0.00000     -0.301140E-02
     42635 TIP3     5907     TIP3     OH2      OT      -0.834000       15.9994           0   0.00000       0.00000    
     42636 TIP3     5907     TIP3     H1       HT       0.417000       1.00800           0   0.00000       0.00000    
     42637 TIP3     5907     TIP3     H2       HT       0.417000       1.00800           0   0.00000     -0.301140E-02
     42638 TIP3     5908     TIP3     OH2      OT      -0.834000       15.9994           0   0.00000       0.00000    
     42639 TIP3     5908     TIP3     H1       HT       0.417000       1.00800           0   0.00000       0.00000    
     42640 TIP3     5908     TIP3     H2       HT       0.417000       1.00800           0   0.00000     -0.301140E-02
     42641 TIP3     5909     TIP3     OH2      OT      -0.834000       15.9994           0   0.00000       0.00000    
     42642 TIP3     5909     TIP3     H1       HT       0.417000       1.00800           0   0.00000       0.00000    
     42643 TIP3     5909     TIP3     H2       HT       0.417000       1.00800           0   0.00000     -0.301140E-02
     42644 TIP3     5910     TIP3     OH2      OT      -0.834000       15.9994           0   0.00000       0.00000    
     42645 TIP3     5910     TIP3     H1       HT       0.417000       1.00800           0   0.00000       0.00000    
     42646 TIP3     5910     TIP3     H2       HT       0.417000       1.00800           0   0.00000     -0.301140E-02
     42647 TIP3     5911     TIP3     OH2      OT      -0.834000       15.9994           0   0.00000       0.00000    
     42648 TIP3     5911     TIP3     H1       HT       0.417000       1.00800           0   0.00000       0.00000    
     42649 TIP3     5911     TIP3     H2       HT       0.417000       1.00800           0   0.00000     -0.301140E-02
     42650 TIP3     5912     TIP3     OH2      OT      -0.834000       15.9994           0   0.00000       0.00000    
     42651 TIP3     5912     TIP3     H1       HT       0.417000       1.00800           0   0.00000       0.00000    
     42652 TIP3     5912     TIP3     H2       HT       0.417000       1.00800           0   0.00000     -0.301140E-02
     42653 TIP3     5913     TIP3     OH2      OT      -0.834000       15.9994           0   0.00000       0.00000    
     42654 TIP3     5913     TIP3     H1       HT       0.417000       1.00800           0   0.00000       0.00000    
     42655 TIP3     5913     TIP3     H2       HT       0.417000       1.00800           0   0.00000     -0.301140E-02
     42656 TIP3     5914     TIP3     OH2      OT      -0.834000       15.9994           0   0.00000       0.00000    
     42657 TIP3     5914     TIP3     H1       HT       0.417000       1.00800           0   0.00000       0.00000    
     42658 TIP3     5914     TIP3     H2       HT       0.417000       1.00800           0   0.00000     -0.301140E-02
     42659 TIP3     5915     TIP3     OH2      OT      -0.834000       15.9994           0   0.00000       0.00000    
     42660 TIP3     5915     TIP3     H1       HT       0.417000       1.00800           0   0.00000       0.00000    
     42661 TIP3     5915     TIP3     H2       HT       0.417000       1.00800           0   0.00000     -0.301140E-02
     42662 TIP3     5916     TIP3     OH2      OT      -0.834000       15.9994           0   0.00000       0.00000    
     42663 TIP3     5916     TIP3     H1       HT       0.417000       1.00800           0   0.00000       0.00000    
     42664 TIP3     5916     TIP3     H2       HT       0.417000       1.00800           0   0.00000     -0.301140E-02
     42665 TIP3     5917     TIP3     OH2      OT      -0.834000       15.9994           0   0.00000       0.00000    
     42666 TIP3     5917     TIP3     H1       HT       0.417000       1.00800           0   0.00000       0.00000    
     42667 TIP3     5917     TIP3     H2       HT       0.417000       1.00800           0   0.00000     -0.301140E-02
     42668 TIP3     5918     TIP3     OH2      OT      -0.834000       15.9994           0   0.00000       0.00000    
     42669 TIP3     5918     TIP3     H1       HT       0.417000       1.00800           0   0.00000       0.00000    
     42670 TIP3     5918     TIP3     H2       HT       0.417000       1.00800           0   0.00000     -0.301140E-02
     42671 TIP3     5919     TIP3     OH2      OT      -0.834000       15.9994           0   0.00000       0.00000    
     42672 TIP3     5919     TIP3     H1       HT       0.417000       1.00800           0   0.00000       0.00000    
     42673 TIP3     5919     TIP3     H2       HT       0.417000       1.00800           0   0.00000     -0.301140E-02
     42674 TIP3     5920     TIP3     OH2      OT      -0.834000       15.9994           0   0.00000       0.00000    
     42675 TIP3     5920     TIP3     H1       HT       0.417000       1.00800           0   0.00000       0.00000    
     42676 TIP3     5920     TIP3     H2       HT       0.417000       1.00800           0   0.00000     -0.301140E-02
     42677 TIP3     5921     TIP3     OH2      OT      -0.834000       15.9994           0   0.00000       0.00000    
     42678 TIP3     5921     TIP3     H1       HT       0.417000       1.00800           0   0.00000       0.00000    
     42679 TIP3     5921     TIP3     H2       HT       0.417000       1.00800           0   0.00000     -0.301140E-02
     42680 TIP3     5922     TIP3     OH2      OT      -0.834000       15.9994           0   0.00000       0.00000    
     42681 TIP3     5922     TIP3     H1       HT       0.417000       1.00800           0   0.00000       0.00000    
     42682 TIP3     5922     TIP3     H2       HT       0.417000       1.00800           0   0.00000     -0.301140E-02
     42683 TIP3     5923     TIP3     OH2      OT      -0.834000       15.9994           0   0.00000       0.00000    
     42684 TIP3     5923     TIP3     H1       HT       0.417000       1.00800           0   0.00000       0.00000    
     42685 TIP3     5923     TIP3     H2       HT       0.417000       1.00800           0   0.00000     -0.301140E-02
     42686 TIP3     5924     TIP3     OH2      OT      -0.834000       15.9994           0   0.00000       0.00000    
     42687 TIP3     5924     TIP3     H1       HT       0.417000       1.00800           0   0.00000       0.00000    
     42688 TIP3     5924     TIP3     H2       HT       0.417000       1.00800           0   0.00000     -0.301140E-02
     42689 TIP3     5925     TIP3     OH2      OT      -0.834000       15.9994           0   0.00000       0.00000    
     42690 TIP3     5925     TIP3     H1       HT       0.417000       1.00800           0   0.00000       0.00000    
     42691 TIP3     5925     TIP3     H2       HT       0.417000       1.00800           0   0.00000     -0.301140E-02
     42692 TIP3     5926     TIP3     OH2      OT      -0.834000       15.9994           0   0.00000       0.00000    
     42693 TIP3     5926     TIP3     H1       HT       0.417000       1.00800           0   0.00000       0.00000    
     42694 TIP3     5926     TIP3     H2       HT       0.417000       1.00800           0   0.00000     -0.301140E-02
     42695 TIP3     5927     TIP3     OH2      OT      -0.834000       15.9994           0   0.00000       0.00000    
     42696 TIP3     5927     TIP3     H1       HT       0.417000       1.00800           0   0.00000       0.00000    
     42697 TIP3     5927     TIP3     H2       HT       0.417000       1.00800           0   0.00000     -0.301140E-02
     42698 TIP3     5928     TIP3     OH2      OT      -0.834000       15.9994           0   0.00000       0.00000    
     42699 TIP3     5928     TIP3     H1       HT       0.417000       1.00800           0   0.00000       0.00000    
     42700 TIP3     5928     TIP3     H2       HT       0.417000       1.00800           0   0.00000     -0.301140E-02
     42701 TIP3     5929     TIP3     OH2      OT      -0.834000       15.9994           0   0.00000       0.00000    
     42702 TIP3     5929     TIP3     H1       HT       0.417000       1.00800           0   0.00000       0.00000    
     42703 TIP3     5929     TIP3     H2       HT       0.417000       1.00800           0   0.00000     -0.301140E-02
     42704 TIP3     5930     TIP3     OH2      OT      -0.834000       15.9994           0   0.00000       0.00000    
     42705 TIP3     5930     TIP3     H1       HT       0.417000       1.00800           0   0.00000       0.00000    
     42706 TIP3     5930     TIP3     H2       HT       0.417000       1.00800           0   0.00000     -0.301140E-02
     42707 TIP3     5931     TIP3     OH2      OT      -0.834000       15.9994           0   0.00000       0.00000    
     42708 TIP3     5931     TIP3     H1       HT       0.417000       1.00800           0   0.00000       0.00000    
     42709 TIP3     5931     TIP3     H2       HT       0.417000       1.00800           0   0.00000     -0.301140E-02
     42710 TIP3     5932     TIP3     OH2      OT      -0.834000       15.9994           0   0.00000       0.00000    
     42711 TIP3     5932     TIP3     H1       HT       0.417000       1.00800           0   0.00000       0.00000    
     42712 TIP3     5932     TIP3     H2       HT       0.417000       1.00800           0   0.00000     -0.301140E-02
     42713 TIP3     5933     TIP3     OH2      OT      -0.834000       15.9994           0   0.00000       0.00000    
     42714 TIP3     5933     TIP3     H1       HT       0.417000       1.00800           0   0.00000       0.00000    
     42715 TIP3     5933     TIP3     H2       HT       0.417000       1.00800           0   0.00000     -0.301140E-02
     42716 TIP3     5934     TIP3     OH2      OT      -0.834000       15.9994           0   0.00000       0.00000    
     42717 TIP3     5934     TIP3     H1       HT       0.417000       1.00800           0   0.00000       0.00000    
     42718 TIP3     5934     TIP3     H2       HT       0.417000       1.00800           0   0.00000     -0.301140E-02
     42719 TIP3     5935     TIP3     OH2      OT      -0.834000       15.9994           0   0.00000       0.00000    
     42720 TIP3     5935     TIP3     H1       HT       0.417000       1.00800           0   0.00000       0.00000    
     42721 TIP3     5935     TIP3     H2       HT       0.417000       1.00800           0   0.00000     -0.301140E-02
     42722 TIP3     5936     TIP3     OH2      OT      -0.834000       15.9994           0   0.00000       0.00000    
     42723 TIP3     5936     TIP3     H1       HT       0.417000       1.00800           0   0.00000       0.00000    
     42724 TIP3     5936     TIP3     H2       HT       0.417000       1.00800           0   0.00000     -0.301140E-02
     42725 TIP3     5937     TIP3     OH2      OT      -0.834000       15.9994           0   0.00000       0.00000    
     42726 TIP3     5937     TIP3     H1       HT       0.417000       1.00800           0   0.00000       0.00000    
     42727 TIP3     5937     TIP3     H2       HT       0.417000       1.00800           0   0.00000     -0.301140E-02
     42728 TIP3     5938     TIP3     OH2      OT      -0.834000       15.9994           0   0.00000       0.00000    
     42729 TIP3     5938     TIP3     H1       HT       0.417000       1.00800           0   0.00000       0.00000    
     42730 TIP3     5938     TIP3     H2       HT       0.417000       1.00800           0   0.00000     -0.301140E-02
     42731 TIP3     5939     TIP3     OH2      OT      -0.834000       15.9994           0   0.00000       0.00000    
     42732 TIP3     5939     TIP3     H1       HT       0.417000       1.00800           0   0.00000       0.00000    
     42733 TIP3     5939     TIP3     H2       HT       0.417000       1.00800           0   0.00000     -0.301140E-02
     42734 TIP3     5940     TIP3     OH2      OT      -0.834000       15.9994           0   0.00000       0.00000    
     42735 TIP3     5940     TIP3     H1       HT       0.417000       1.00800           0   0.00000       0.00000    
     42736 TIP3     5940     TIP3     H2       HT       0.417000       1.00800           0   0.00000     -0.301140E-02
     42737 TIP3     5941     TIP3     OH2      OT      -0.834000       15.9994           0   0.00000       0.00000    
     42738 TIP3     5941     TIP3     H1       HT       0.417000       1.00800           0   0.00000       0.00000    
     42739 TIP3     5941     TIP3     H2       HT       0.417000       1.00800           0   0.00000     -0.301140E-02
     42740 TIP3     5942     TIP3     OH2      OT      -0.834000       15.9994           0   0.00000       0.00000    
     42741 TIP3     5942     TIP3     H1       HT       0.417000       1.00800           0   0.00000       0.00000    
     42742 TIP3     5942     TIP3     H2       HT       0.417000       1.00800           0   0.00000     -0.301140E-02
     42743 TIP3     5943     TIP3     OH2      OT      -0.834000       15.9994           0   0.00000       0.00000    
     42744 TIP3     5943     TIP3     H1       HT       0.417000       1.00800           0   0.00000       0.00000    
     42745 TIP3     5943     TIP3     H2       HT       0.417000       1.00800           0   0.00000     -0.301140E-02
     42746 TIP3     5944     TIP3     OH2      OT      -0.834000       15.9994           0   0.00000       0.00000    
     42747 TIP3     5944     TIP3     H1       HT       0.417000       1.00800           0   0.00000       0.00000    
     42748 TIP3     5944     TIP3     H2       HT       0.417000       1.00800           0   0.00000     -0.301140E-02
     42749 TIP3     5945     TIP3     OH2      OT      -0.834000       15.9994           0   0.00000       0.00000    
     42750 TIP3     5945     TIP3     H1       HT       0.417000       1.00800           0   0.00000       0.00000    
     42751 TIP3     5945     TIP3     H2       HT       0.417000       1.00800           0   0.00000     -0.301140E-02
     42752 TIP3     5946     TIP3     OH2      OT      -0.834000       15.9994           0   0.00000       0.00000    
     42753 TIP3     5946     TIP3     H1       HT       0.417000       1.00800           0   0.00000       0.00000    
     42754 TIP3     5946     TIP3     H2       HT       0.417000       1.00800           0   0.00000     -0.301140E-02
     42755 TIP3     5947     TIP3     OH2      OT      -0.834000       15.9994           0   0.00000       0.00000    
     42756 TIP3     5947     TIP3     H1       HT       0.417000       1.00800           0   0.00000       0.00000    
     42757 TIP3     5947     TIP3     H2       HT       0.417000       1.00800           0   0.00000     -0.301140E-02
     42758 TIP3     5948     TIP3     OH2      OT      -0.834000       15.9994           0   0.00000       0.00000    
     42759 TIP3     5948     TIP3     H1       HT       0.417000       1.00800           0   0.00000       0.00000    
     42760 TIP3     5948     TIP3     H2       HT       0.417000       1.00800           0   0.00000     -0.301140E-02
     42761 TIP3     5949     TIP3     OH2      OT      -0.834000       15.9994           0   0.00000       0.00000    
     42762 TIP3     5949     TIP3     H1       HT       0.417000       1.00800           0   0.00000       0.00000    
     42763 TIP3     5949     TIP3     H2       HT       0.417000       1.00800           0   0.00000     -0.301140E-02
     42764 TIP3     5950     TIP3     OH2      OT      -0.834000       15.9994           0   0.00000       0.00000    
     42765 TIP3     5950     TIP3     H1       HT       0.417000       1.00800           0   0.00000       0.00000    
     42766 TIP3     5950     TIP3     H2       HT       0.417000       1.00800           0   0.00000     -0.301140E-02
     42767 TIP3     5951     TIP3     OH2      OT      -0.834000       15.9994           0   0.00000       0.00000    
     42768 TIP3     5951     TIP3     H1       HT       0.417000       1.00800           0   0.00000       0.00000    
     42769 TIP3     5951     TIP3     H2       HT       0.417000       1.00800           0   0.00000     -0.301140E-02
     42770 TIP3     5952     TIP3     OH2      OT      -0.834000       15.9994           0   0.00000       0.00000    
     42771 TIP3     5952     TIP3     H1       HT       0.417000       1.00800           0   0.00000       0.00000    
     42772 TIP3     5952     TIP3     H2       HT       0.417000       1.00800           0   0.00000     -0.301140E-02
     42773 TIP3     5953     TIP3     OH2      OT      -0.834000       15.9994           0   0.00000       0.00000    
     42774 TIP3     5953     TIP3     H1       HT       0.417000       1.00800           0   0.00000       0.00000    
     42775 TIP3     5953     TIP3     H2       HT       0.417000       1.00800           0   0.00000     -0.301140E-02
     42776 TIP3     5954     TIP3     OH2      OT      -0.834000       15.9994           0   0.00000       0.00000    
     42777 TIP3     5954     TIP3     H1       HT       0.417000       1.00800           0   0.00000       0.00000    
     42778 TIP3     5954     TIP3     H2       HT       0.417000       1.00800           0   0.00000     -0.301140E-02
     42779 TIP3     5955     TIP3     OH2      OT      -0.834000       15.9994           0   0.00000       0.00000    
     42780 TIP3     5955     TIP3     H1       HT       0.417000       1.00800           0   0.00000       0.00000    
     42781 TIP3     5955     TIP3     H2       HT       0.417000       1.00800           0   0.00000     -0.301140E-02
     42782 TIP3     5956     TIP3     OH2      OT      -0.834000       15.9994           0   0.00000       0.00000    
     42783 TIP3     5956     TIP3     H1       HT       0.417000       1.00800           0   0.00000       0.00000    
     42784 TIP3     5956     TIP3     H2       HT       0.417000       1.00800           0   0.00000     -0.301140E-02
     42785 TIP3     5957     TIP3     OH2      OT      -0.834000       15.9994           0   0.00000       0.00000    
     42786 TIP3     5957     TIP3     H1       HT       0.417000       1.00800           0   0.00000       0.00000    
     42787 TIP3     5957     TIP3     H2       HT       0.417000       1.00800           0   0.00000     -0.301140E-02
     42788 TIP3     5958     TIP3     OH2      OT      -0.834000       15.9994           0   0.00000       0.00000    
     42789 TIP3     5958     TIP3     H1       HT       0.417000       1.00800           0   0.00000       0.00000    
     42790 TIP3     5958     TIP3     H2       HT       0.417000       1.00800           0   0.00000     -0.301140E-02
     42791 TIP3     5959     TIP3     OH2      OT      -0.834000       15.9994           0   0.00000       0.00000    
     42792 TIP3     5959     TIP3     H1       HT       0.417000       1.00800           0   0.00000       0.00000    
     42793 TIP3     5959     TIP3     H2       HT       0.417000       1.00800           0   0.00000     -0.301140E-02
     42794 TIP3     5960     TIP3     OH2      OT      -0.834000       15.9994           0   0.00000       0.00000    
     42795 TIP3     5960     TIP3     H1       HT       0.417000       1.00800           0   0.00000       0.00000    
     42796 TIP3     5960     TIP3     H2       HT       0.417000       1.00800           0   0.00000     -0.301140E-02
     42797 TIP3     5961     TIP3     OH2      OT      -0.834000       15.9994           0   0.00000       0.00000    
     42798 TIP3     5961     TIP3     H1       HT       0.417000       1.00800           0   0.00000       0.00000    
     42799 TIP3     5961     TIP3     H2       HT       0.417000       1.00800           0   0.00000     -0.301140E-02
     42800 TIP3     5962     TIP3     OH2      OT      -0.834000       15.9994           0   0.00000       0.00000    
     42801 TIP3     5962     TIP3     H1       HT       0.417000       1.00800           0   0.00000       0.00000    
     42802 TIP3     5962     TIP3     H2       HT       0.417000       1.00800           0   0.00000     -0.301140E-02
     42803 TIP3     5963     TIP3     OH2      OT      -0.834000       15.9994           0   0.00000       0.00000    
     42804 TIP3     5963     TIP3     H1       HT       0.417000       1.00800           0   0.00000       0.00000    
     42805 TIP3     5963     TIP3     H2       HT       0.417000       1.00800           0   0.00000     -0.301140E-02
     42806 TIP3     5964     TIP3     OH2      OT      -0.834000       15.9994           0   0.00000       0.00000    
     42807 TIP3     5964     TIP3     H1       HT       0.417000       1.00800           0   0.00000       0.00000    
     42808 TIP3     5964     TIP3     H2       HT       0.417000       1.00800           0   0.00000     -0.301140E-02
     42809 TIP3     5965     TIP3     OH2      OT      -0.834000       15.9994           0   0.00000       0.00000    
     42810 TIP3     5965     TIP3     H1       HT       0.417000       1.00800           0   0.00000       0.00000    
     42811 TIP3     5965     TIP3     H2       HT       0.417000       1.00800           0   0.00000     -0.301140E-02
     42812 TIP3     5966     TIP3     OH2      OT      -0.834000       15.9994           0   0.00000       0.00000    
     42813 TIP3     5966     TIP3     H1       HT       0.417000       1.00800           0   0.00000       0.00000    
     42814 TIP3     5966     TIP3     H2       HT       0.417000       1.00800           0   0.00000     -0.301140E-02
     42815 TIP3     5967     TIP3     OH2      OT      -0.834000       15.9994           0   0.00000       0.00000    
     42816 TIP3     5967     TIP3     H1       HT       0.417000       1.00800           0   0.00000       0.00000    
     42817 TIP3     5967     TIP3     H2       HT       0.417000       1.00800           0   0.00000     -0.301140E-02
     42818 TIP3     5968     TIP3     OH2      OT      -0.834000       15.9994           0   0.00000       0.00000    
     42819 TIP3     5968     TIP3     H1       HT       0.417000       1.00800           0   0.00000       0.00000    
     42820 TIP3     5968     TIP3     H2       HT       0.417000       1.00800           0   0.00000     -0.301140E-02
     42821 TIP3     5969     TIP3     OH2      OT      -0.834000       15.9994           0   0.00000       0.00000    
     42822 TIP3     5969     TIP3     H1       HT       0.417000       1.00800           0   0.00000       0.00000    
     42823 TIP3     5969     TIP3     H2       HT       0.417000       1.00800           0   0.00000     -0.301140E-02
     42824 TIP3     5970     TIP3     OH2      OT      -0.834000       15.9994           0   0.00000       0.00000    
     42825 TIP3     5970     TIP3     H1       HT       0.417000       1.00800           0   0.00000       0.00000    
     42826 TIP3     5970     TIP3     H2       HT       0.417000       1.00800           0   0.00000     -0.301140E-02
     42827 TIP3     5971     TIP3     OH2      OT      -0.834000       15.9994           0   0.00000       0.00000    
     42828 TIP3     5971     TIP3     H1       HT       0.417000       1.00800           0   0.00000       0.00000    
     42829 TIP3     5971     TIP3     H2       HT       0.417000       1.00800           0   0.00000     -0.301140E-02
     42830 TIP3     5972     TIP3     OH2      OT      -0.834000       15.9994           0   0.00000       0.00000    
     42831 TIP3     5972     TIP3     H1       HT       0.417000       1.00800           0   0.00000       0.00000    
     42832 TIP3     5972     TIP3     H2       HT       0.417000       1.00800           0   0.00000     -0.301140E-02
     42833 TIP3     5973     TIP3     OH2      OT      -0.834000       15.9994           0   0.00000       0.00000    
     42834 TIP3     5973     TIP3     H1       HT       0.417000       1.00800           0   0.00000       0.00000    
     42835 TIP3     5973     TIP3     H2       HT       0.417000       1.00800           0   0.00000     -0.301140E-02
     42836 TIP3     5974     TIP3     OH2      OT      -0.834000       15.9994           0   0.00000       0.00000    
     42837 TIP3     5974     TIP3     H1       HT       0.417000       1.00800           0   0.00000       0.00000    
     42838 TIP3     5974     TIP3     H2       HT       0.417000       1.00800           0   0.00000     -0.301140E-02
     42839 TIP3     5975     TIP3     OH2      OT      -0.834000       15.9994           0   0.00000       0.00000    
     42840 TIP3     5975     TIP3     H1       HT       0.417000       1.00800           0   0.00000       0.00000    
     42841 TIP3     5975     TIP3     H2       HT       0.417000       1.00800           0   0.00000     -0.301140E-02
     42842 TIP3     5976     TIP3     OH2      OT      -0.834000       15.9994           0   0.00000       0.00000    
     42843 TIP3     5976     TIP3     H1       HT       0.417000       1.00800           0   0.00000       0.00000    
     42844 TIP3     5976     TIP3     H2       HT       0.417000       1.00800           0   0.00000     -0.301140E-02
     42845 TIP3     5977     TIP3     OH2      OT      -0.834000       15.9994           0   0.00000       0.00000    
     42846 TIP3     5977     TIP3     H1       HT       0.417000       1.00800           0   0.00000       0.00000    
     42847 TIP3     5977     TIP3     H2       HT       0.417000       1.00800           0   0.00000     -0.301140E-02
     42848 TIP3     5978     TIP3     OH2      OT      -0.834000       15.9994           0   0.00000       0.00000    
     42849 TIP3     5978     TIP3     H1       HT       0.417000       1.00800           0   0.00000       0.00000    
     42850 TIP3     5978     TIP3     H2       HT       0.417000       1.00800           0   0.00000     -0.301140E-02
     42851 TIP3     5979     TIP3     OH2      OT      -0.834000       15.9994           0   0.00000       0.00000    
     42852 TIP3     5979     TIP3     H1       HT       0.417000       1.00800           0   0.00000       0.00000    
     42853 TIP3     5979     TIP3     H2       HT       0.417000       1.00800           0   0.00000     -0.301140E-02
     42854 TIP3     5980     TIP3     OH2      OT      -0.834000       15.9994           0   0.00000       0.00000    
     42855 TIP3     5980     TIP3     H1       HT       0.417000       1.00800           0   0.00000       0.00000    
     42856 TIP3     5980     TIP3     H2       HT       0.417000       1.00800           0   0.00000     -0.301140E-02
     42857 TIP3     5981     TIP3     OH2      OT      -0.834000       15.9994           0   0.00000       0.00000    
     42858 TIP3     5981     TIP3     H1       HT       0.417000       1.00800           0   0.00000       0.00000    
     42859 TIP3     5981     TIP3     H2       HT       0.417000       1.00800           0   0.00000     -0.301140E-02
     42860 TIP3     5982     TIP3     OH2      OT      -0.834000       15.9994           0   0.00000       0.00000    
     42861 TIP3     5982     TIP3     H1       HT       0.417000       1.00800           0   0.00000       0.00000    
     42862 TIP3     5982     TIP3     H2       HT       0.417000       1.00800           0   0.00000     -0.301140E-02
     42863 TIP3     5983     TIP3     OH2      OT      -0.834000       15.9994           0   0.00000       0.00000    
     42864 TIP3     5983     TIP3     H1       HT       0.417000       1.00800           0   0.00000       0.00000    
     42865 TIP3     5983     TIP3     H2       HT       0.417000       1.00800           0   0.00000     -0.301140E-02
     42866 TIP3     5984     TIP3     OH2      OT      -0.834000       15.9994           0   0.00000       0.00000    
     42867 TIP3     5984     TIP3     H1       HT       0.417000       1.00800           0   0.00000       0.00000    
     42868 TIP3     5984     TIP3     H2       HT       0.417000       1.00800           0   0.00000     -0.301140E-02
     42869 TIP3     5985     TIP3     OH2      OT      -0.834000       15.9994           0   0.00000       0.00000    
     42870 TIP3     5985     TIP3     H1       HT       0.417000       1.00800           0   0.00000       0.00000    
     42871 TIP3     5985     TIP3     H2       HT       0.417000       1.00800           0   0.00000     -0.301140E-02
     42872 TIP3     5986     TIP3     OH2      OT      -0.834000       15.9994           0   0.00000       0.00000    
     42873 TIP3     5986     TIP3     H1       HT       0.417000       1.00800           0   0.00000       0.00000    
     42874 TIP3     5986     TIP3     H2       HT       0.417000       1.00800           0   0.00000     -0.301140E-02
     42875 TIP3     5987     TIP3     OH2      OT      -0.834000       15.9994           0   0.00000       0.00000    
     42876 TIP3     5987     TIP3     H1       HT       0.417000       1.00800           0   0.00000       0.00000    
     42877 TIP3     5987     TIP3     H2       HT       0.417000       1.00800           0   0.00000     -0.301140E-02
     42878 TIP3     5988     TIP3     OH2      OT      -0.834000       15.9994           0   0.00000       0.00000    
     42879 TIP3     5988     TIP3     H1       HT       0.417000       1.00800           0   0.00000       0.00000    
     42880 TIP3     5988     TIP3     H2       HT       0.417000       1.00800           0   0.00000     -0.301140E-02
     42881 TIP3     5989     TIP3     OH2      OT      -0.834000       15.9994           0   0.00000       0.00000    
     42882 TIP3     5989     TIP3     H1       HT       0.417000       1.00800           0   0.00000       0.00000    
     42883 TIP3     5989     TIP3     H2       HT       0.417000       1.00800           0   0.00000     -0.301140E-02
     42884 TIP3     5990     TIP3     OH2      OT      -0.834000       15.9994           0   0.00000       0.00000    
     42885 TIP3     5990     TIP3     H1       HT       0.417000       1.00800           0   0.00000       0.00000    
     42886 TIP3     5990     TIP3     H2       HT       0.417000       1.00800           0   0.00000     -0.301140E-02
     42887 TIP3     5991     TIP3     OH2      OT      -0.834000       15.9994           0   0.00000       0.00000    
     42888 TIP3     5991     TIP3     H1       HT       0.417000       1.00800           0   0.00000       0.00000    
     42889 TIP3     5991     TIP3     H2       HT       0.417000       1.00800           0   0.00000     -0.301140E-02
     42890 TIP3     5992     TIP3     OH2      OT      -0.834000       15.9994           0   0.00000       0.00000    
     42891 TIP3     5992     TIP3     H1       HT       0.417000       1.00800           0   0.00000       0.00000    
     42892 TIP3     5992     TIP3     H2       HT       0.417000       1.00800           0   0.00000     -0.301140E-02
     42893 TIP3     5993     TIP3     OH2      OT      -0.834000       15.9994           0   0.00000       0.00000    
     42894 TIP3     5993     TIP3     H1       HT       0.417000       1.00800           0   0.00000       0.00000    
     42895 TIP3     5993     TIP3     H2       HT       0.417000       1.00800           0   0.00000     -0.301140E-02
     42896 TIP3     5994     TIP3     OH2      OT      -0.834000       15.9994           0   0.00000       0.00000    
     42897 TIP3     5994     TIP3     H1       HT       0.417000       1.00800           0   0.00000       0.00000    
     42898 TIP3     5994     TIP3     H2       HT       0.417000       1.00800           0   0.00000     -0.301140E-02
     42899 TIP3     5995     TIP3     OH2      OT      -0.834000       15.9994           0   0.00000       0.00000    
     42900 TIP3     5995     TIP3     H1       HT       0.417000       1.00800           0   0.00000       0.00000    
     42901 TIP3     5995     TIP3     H2       HT       0.417000       1.00800           0   0.00000     -0.301140E-02
     42902 TIP3     5996     TIP3     OH2      OT      -0.834000       15.9994           0   0.00000       0.00000    
     42903 TIP3     5996     TIP3     H1       HT       0.417000       1.00800           0   0.00000       0.00000    
     42904 TIP3     5996     TIP3     H2       HT       0.417000       1.00800           0   0.00000     -0.301140E-02
     42905 TIP3     5997     TIP3     OH2      OT      -0.834000       15.9994           0   0.00000       0.00000    
     42906 TIP3     5997     TIP3     H1       HT       0.417000       1.00800           0   0.00000       0.00000    
     42907 TIP3     5997     TIP3     H2       HT       0.417000       1.00800           0   0.00000     -0.301140E-02
     42908 TIP3     5998     TIP3     OH2      OT      -0.834000       15.9994           0   0.00000       0.00000    
     42909 TIP3     5998     TIP3     H1       HT       0.417000       1.00800           0   0.00000       0.00000    
     42910 TIP3     5998     TIP3     H2       HT       0.417000       1.00800           0   0.00000     -0.301140E-02
     42911 TIP3     5999     TIP3     OH2      OT      -0.834000       15.9994           0   0.00000       0.00000    
     42912 TIP3     5999     TIP3     H1       HT       0.417000       1.00800           0   0.00000       0.00000    
     42913 TIP3     5999     TIP3     H2       HT       0.417000       1.00800           0   0.00000     -0.301140E-02
     42914 TIP3     6000     TIP3     OH2      OT      -0.834000       15.9994           0   0.00000       0.00000    
     42915 TIP3     6000     TIP3     H1       HT       0.417000       1.00800           0   0.00000       0.00000    
     42916 TIP3     6000     TIP3     H2       HT       0.417000       1.00800           0   0.00000     -0.301140E-02
     42917 TIP3     6001     TIP3     OH2      OT      -0.834000       15.9994           0   0.00000       0.00000    
     42918 TIP3     6001     TIP3     H1       HT       0.417000       1.00800           0   0.00000       0.00000    
     42919 TIP3     6001     TIP3     H2       HT       0.417000       1.00800           0   0.00000     -0.301140E-02
     42920 TIP3     6002     TIP3     OH2      OT      -0.834000       15.9994           0   0.00000       0.00000    
     42921 TIP3     6002     TIP3     H1       HT       0.417000       1.00800           0   0.00000       0.00000    
     42922 TIP3     6002     TIP3     H2       HT       0.417000       1.00800           0   0.00000     -0.301140E-02
     42923 TIP3     6003     TIP3     OH2      OT      -0.834000       15.9994           0   0.00000       0.00000    
     42924 TIP3     6003     TIP3     H1       HT       0.417000       1.00800           0   0.00000       0.00000    
     42925 TIP3     6003     TIP3     H2       HT       0.417000       1.00800           0   0.00000     -0.301140E-02
     42926 TIP3     6004     TIP3     OH2      OT      -0.834000       15.9994           0   0.00000       0.00000    
     42927 TIP3     6004     TIP3     H1       HT       0.417000       1.00800           0   0.00000       0.00000    
     42928 TIP3     6004     TIP3     H2       HT       0.417000       1.00800           0   0.00000     -0.301140E-02
     42929 TIP3     6005     TIP3     OH2      OT      -0.834000       15.9994           0   0.00000       0.00000    
     42930 TIP3     6005     TIP3     H1       HT       0.417000       1.00800           0   0.00000       0.00000    
     42931 TIP3     6005     TIP3     H2       HT       0.417000       1.00800           0   0.00000     -0.301140E-02
     42932 TIP3     6006     TIP3     OH2      OT      -0.834000       15.9994           0   0.00000       0.00000    
     42933 TIP3     6006     TIP3     H1       HT       0.417000       1.00800           0   0.00000       0.00000    
     42934 TIP3     6006     TIP3     H2       HT       0.417000       1.00800           0   0.00000     -0.301140E-02
     42935 TIP3     6007     TIP3     OH2      OT      -0.834000       15.9994           0   0.00000       0.00000    
     42936 TIP3     6007     TIP3     H1       HT       0.417000       1.00800           0   0.00000       0.00000    
     42937 TIP3     6007     TIP3     H2       HT       0.417000       1.00800           0   0.00000     -0.301140E-02
     42938 TIP3     6008     TIP3     OH2      OT      -0.834000       15.9994           0   0.00000       0.00000    
     42939 TIP3     6008     TIP3     H1       HT       0.417000       1.00800           0   0.00000       0.00000    
     42940 TIP3     6008     TIP3     H2       HT       0.417000       1.00800           0   0.00000     -0.301140E-02
     42941 TIP3     6009     TIP3     OH2      OT      -0.834000       15.9994           0   0.00000       0.00000    
     42942 TIP3     6009     TIP3     H1       HT       0.417000       1.00800           0   0.00000       0.00000    
     42943 TIP3     6009     TIP3     H2       HT       0.417000       1.00800           0   0.00000     -0.301140E-02
     42944 TIP3     6010     TIP3     OH2      OT      -0.834000       15.9994           0   0.00000       0.00000    
     42945 TIP3     6010     TIP3     H1       HT       0.417000       1.00800           0   0.00000       0.00000    
     42946 TIP3     6010     TIP3     H2       HT       0.417000       1.00800           0   0.00000     -0.301140E-02
     42947 TIP3     6011     TIP3     OH2      OT      -0.834000       15.9994           0   0.00000       0.00000    
     42948 TIP3     6011     TIP3     H1       HT       0.417000       1.00800           0   0.00000       0.00000    
     42949 TIP3     6011     TIP3     H2       HT       0.417000       1.00800           0   0.00000     -0.301140E-02
     42950 TIP3     6012     TIP3     OH2      OT      -0.834000       15.9994           0   0.00000       0.00000    
     42951 TIP3     6012     TIP3     H1       HT       0.417000       1.00800           0   0.00000       0.00000    
     42952 TIP3     6012     TIP3     H2       HT       0.417000       1.00800           0   0.00000     -0.301140E-02
     42953 TIP3     6013     TIP3     OH2      OT      -0.834000       15.9994           0   0.00000       0.00000    
     42954 TIP3     6013     TIP3     H1       HT       0.417000       1.00800           0   0.00000       0.00000    
     42955 TIP3     6013     TIP3     H2       HT       0.417000       1.00800           0   0.00000     -0.301140E-02
     42956 TIP3     6014     TIP3     OH2      OT      -0.834000       15.9994           0   0.00000       0.00000    
     42957 TIP3     6014     TIP3     H1       HT       0.417000       1.00800           0   0.00000       0.00000    
     42958 TIP3     6014     TIP3     H2       HT       0.417000       1.00800           0   0.00000     -0.301140E-02
     42959 TIP3     6015     TIP3     OH2      OT      -0.834000       15.9994           0   0.00000       0.00000    
     42960 TIP3     6015     TIP3     H1       HT       0.417000       1.00800           0   0.00000       0.00000    
     42961 TIP3     6015     TIP3     H2       HT       0.417000       1.00800           0   0.00000     -0.301140E-02
     42962 TIP3     6016     TIP3     OH2      OT      -0.834000       15.9994           0   0.00000       0.00000    
     42963 TIP3     6016     TIP3     H1       HT       0.417000       1.00800           0   0.00000       0.00000    
     42964 TIP3     6016     TIP3     H2       HT       0.417000       1.00800           0   0.00000     -0.301140E-02
     42965 TIP3     6017     TIP3     OH2      OT      -0.834000       15.9994           0   0.00000       0.00000    
     42966 TIP3     6017     TIP3     H1       HT       0.417000       1.00800           0   0.00000       0.00000    
     42967 TIP3     6017     TIP3     H2       HT       0.417000       1.00800           0   0.00000     -0.301140E-02
     42968 TIP3     6018     TIP3     OH2      OT      -0.834000       15.9994           0   0.00000       0.00000    
     42969 TIP3     6018     TIP3     H1       HT       0.417000       1.00800           0   0.00000       0.00000    
     42970 TIP3     6018     TIP3     H2       HT       0.417000       1.00800           0   0.00000     -0.301140E-02
     42971 TIP3     6019     TIP3     OH2      OT      -0.834000       15.9994           0   0.00000       0.00000    
     42972 TIP3     6019     TIP3     H1       HT       0.417000       1.00800           0   0.00000       0.00000    
     42973 TIP3     6019     TIP3     H2       HT       0.417000       1.00800           0   0.00000     -0.301140E-02
     42974 TIP3     6020     TIP3     OH2      OT      -0.834000       15.9994           0   0.00000       0.00000    
     42975 TIP3     6020     TIP3     H1       HT       0.417000       1.00800           0   0.00000       0.00000    
     42976 TIP3     6020     TIP3     H2       HT       0.417000       1.00800           0   0.00000     -0.301140E-02
     42977 TIP3     6021     TIP3     OH2      OT      -0.834000       15.9994           0   0.00000       0.00000    
     42978 TIP3     6021     TIP3     H1       HT       0.417000       1.00800           0   0.00000       0.00000    
     42979 TIP3     6021     TIP3     H2       HT       0.417000       1.00800           0   0.00000     -0.301140E-02
     42980 TIP3     6022     TIP3     OH2      OT      -0.834000       15.9994           0   0.00000       0.00000    
     42981 TIP3     6022     TIP3     H1       HT       0.417000       1.00800           0   0.00000       0.00000    
     42982 TIP3     6022     TIP3     H2       HT       0.417000       1.00800           0   0.00000     -0.301140E-02
     42983 TIP3     6023     TIP3     OH2      OT      -0.834000       15.9994           0   0.00000       0.00000    
     42984 TIP3     6023     TIP3     H1       HT       0.417000       1.00800           0   0.00000       0.00000    
     42985 TIP3     6023     TIP3     H2       HT       0.417000       1.00800           0   0.00000     -0.301140E-02
     42986 TIP3     6024     TIP3     OH2      OT      -0.834000       15.9994           0   0.00000       0.00000    
     42987 TIP3     6024     TIP3     H1       HT       0.417000       1.00800           0   0.00000       0.00000    
     42988 TIP3     6024     TIP3     H2       HT       0.417000       1.00800           0   0.00000     -0.301140E-02
     42989 TIP3     6025     TIP3     OH2      OT      -0.834000       15.9994           0   0.00000       0.00000    
     42990 TIP3     6025     TIP3     H1       HT       0.417000       1.00800           0   0.00000       0.00000    
     42991 TIP3     6025     TIP3     H2       HT       0.417000       1.00800           0   0.00000     -0.301140E-02
     42992 TIP3     6026     TIP3     OH2      OT      -0.834000       15.9994           0   0.00000       0.00000    
     42993 TIP3     6026     TIP3     H1       HT       0.417000       1.00800           0   0.00000       0.00000    
     42994 TIP3     6026     TIP3     H2       HT       0.417000       1.00800           0   0.00000     -0.301140E-02
     42995 TIP3     6027     TIP3     OH2      OT      -0.834000       15.9994           0   0.00000       0.00000    
     42996 TIP3     6027     TIP3     H1       HT       0.417000       1.00800           0   0.00000       0.00000    
     42997 TIP3     6027     TIP3     H2       HT       0.417000       1.00800           0   0.00000     -0.301140E-02
     42998 TIP3     6028     TIP3     OH2      OT      -0.834000       15.9994           0   0.00000       0.00000    
     42999 TIP3     6028     TIP3     H1       HT       0.417000       1.00800           0   0.00000       0.00000    
     43000 TIP3     6028     TIP3     H2       HT       0.417000       1.00800           0   0.00000     -0.301140E-02
     43001 TIP3     6029     TIP3     OH2      OT      -0.834000       15.9994           0   0.00000       0.00000    
     43002 TIP3     6029     TIP3     H1       HT       0.417000       1.00800           0   0.00000       0.00000    
     43003 TIP3     6029     TIP3     H2       HT       0.417000       1.00800           0   0.00000     -0.301140E-02
     43004 TIP3     6030     TIP3     OH2      OT      -0.834000       15.9994           0   0.00000       0.00000    
     43005 TIP3     6030     TIP3     H1       HT       0.417000       1.00800           0   0.00000       0.00000    
     43006 TIP3     6030     TIP3     H2       HT       0.417000       1.00800           0   0.00000     -0.301140E-02
     43007 TIP3     6031     TIP3     OH2      OT      -0.834000       15.9994           0   0.00000       0.00000    
     43008 TIP3     6031     TIP3     H1       HT       0.417000       1.00800           0   0.00000       0.00000    
     43009 TIP3     6031     TIP3     H2       HT       0.417000       1.00800           0   0.00000     -0.301140E-02
     43010 TIP3     6032     TIP3     OH2      OT      -0.834000       15.9994           0   0.00000       0.00000    
     43011 TIP3     6032     TIP3     H1       HT       0.417000       1.00800           0   0.00000       0.00000    
     43012 TIP3     6032     TIP3     H2       HT       0.417000       1.00800           0   0.00000     -0.301140E-02
     43013 TIP3     6033     TIP3     OH2      OT      -0.834000       15.9994           0   0.00000       0.00000    
     43014 TIP3     6033     TIP3     H1       HT       0.417000       1.00800           0   0.00000       0.00000    
     43015 TIP3     6033     TIP3     H2       HT       0.417000       1.00800           0   0.00000     -0.301140E-02
     43016 TIP3     6034     TIP3     OH2      OT      -0.834000       15.9994           0   0.00000       0.00000    
     43017 TIP3     6034     TIP3     H1       HT       0.417000       1.00800           0   0.00000       0.00000    
     43018 TIP3     6034     TIP3     H2       HT       0.417000       1.00800           0   0.00000     -0.301140E-02
     43019 TIP3     6035     TIP3     OH2      OT      -0.834000       15.9994           0   0.00000       0.00000    
     43020 TIP3     6035     TIP3     H1       HT       0.417000       1.00800           0   0.00000       0.00000    
     43021 TIP3     6035     TIP3     H2       HT       0.417000       1.00800           0   0.00000     -0.301140E-02
     43022 TIP3     6036     TIP3     OH2      OT      -0.834000       15.9994           0   0.00000       0.00000    
     43023 TIP3     6036     TIP3     H1       HT       0.417000       1.00800           0   0.00000       0.00000    
     43024 TIP3     6036     TIP3     H2       HT       0.417000       1.00800           0   0.00000     -0.301140E-02
     43025 TIP3     6037     TIP3     OH2      OT      -0.834000       15.9994           0   0.00000       0.00000    
     43026 TIP3     6037     TIP3     H1       HT       0.417000       1.00800           0   0.00000       0.00000    
     43027 TIP3     6037     TIP3     H2       HT       0.417000       1.00800           0   0.00000     -0.301140E-02
     43028 TIP3     6038     TIP3     OH2      OT      -0.834000       15.9994           0   0.00000       0.00000    
     43029 TIP3     6038     TIP3     H1       HT       0.417000       1.00800           0   0.00000       0.00000    
     43030 TIP3     6038     TIP3     H2       HT       0.417000       1.00800           0   0.00000     -0.301140E-02
     43031 TIP3     6039     TIP3     OH2      OT      -0.834000       15.9994           0   0.00000       0.00000    
     43032 TIP3     6039     TIP3     H1       HT       0.417000       1.00800           0   0.00000       0.00000    
     43033 TIP3     6039     TIP3     H2       HT       0.417000       1.00800           0   0.00000     -0.301140E-02
     43034 TIP3     6040     TIP3     OH2      OT      -0.834000       15.9994           0   0.00000       0.00000    
     43035 TIP3     6040     TIP3     H1       HT       0.417000       1.00800           0   0.00000       0.00000    
     43036 TIP3     6040     TIP3     H2       HT       0.417000       1.00800           0   0.00000     -0.301140E-02
     43037 TIP3     6041     TIP3     OH2      OT      -0.834000       15.9994           0   0.00000       0.00000    
     43038 TIP3     6041     TIP3     H1       HT       0.417000       1.00800           0   0.00000       0.00000    
     43039 TIP3     6041     TIP3     H2       HT       0.417000       1.00800           0   0.00000     -0.301140E-02
     43040 TIP3     6042     TIP3     OH2      OT      -0.834000       15.9994           0   0.00000       0.00000    
     43041 TIP3     6042     TIP3     H1       HT       0.417000       1.00800           0   0.00000       0.00000    
     43042 TIP3     6042     TIP3     H2       HT       0.417000       1.00800           0   0.00000     -0.301140E-02
     43043 TIP3     6043     TIP3     OH2      OT      -0.834000       15.9994           0   0.00000       0.00000    
     43044 TIP3     6043     TIP3     H1       HT       0.417000       1.00800           0   0.00000       0.00000    
     43045 TIP3     6043     TIP3     H2       HT       0.417000       1.00800           0   0.00000     -0.301140E-02
     43046 TIP3     6044     TIP3     OH2      OT      -0.834000       15.9994           0   0.00000       0.00000    
     43047 TIP3     6044     TIP3     H1       HT       0.417000       1.00800           0   0.00000       0.00000    
     43048 TIP3     6044     TIP3     H2       HT       0.417000       1.00800           0   0.00000     -0.301140E-02
     43049 TIP3     6045     TIP3     OH2      OT      -0.834000       15.9994           0   0.00000       0.00000    
     43050 TIP3     6045     TIP3     H1       HT       0.417000       1.00800           0   0.00000       0.00000    
     43051 TIP3     6045     TIP3     H2       HT       0.417000       1.00800           0   0.00000     -0.301140E-02
     43052 TIP3     6046     TIP3     OH2      OT      -0.834000       15.9994           0   0.00000       0.00000    
     43053 TIP3     6046     TIP3     H1       HT       0.417000       1.00800           0   0.00000       0.00000    
     43054 TIP3     6046     TIP3     H2       HT       0.417000       1.00800           0   0.00000     -0.301140E-02
     43055 TIP3     6047     TIP3     OH2      OT      -0.834000       15.9994           0   0.00000       0.00000    
     43056 TIP3     6047     TIP3     H1       HT       0.417000       1.00800           0   0.00000       0.00000    
     43057 TIP3     6047     TIP3     H2       HT       0.417000       1.00800           0   0.00000     -0.301140E-02
     43058 TIP3     6048     TIP3     OH2      OT      -0.834000       15.9994           0   0.00000       0.00000    
     43059 TIP3     6048     TIP3     H1       HT       0.417000       1.00800           0   0.00000       0.00000    
     43060 TIP3     6048     TIP3     H2       HT       0.417000       1.00800           0   0.00000     -0.301140E-02
     43061 TIP3     6049     TIP3     OH2      OT      -0.834000       15.9994           0   0.00000       0.00000    
     43062 TIP3     6049     TIP3     H1       HT       0.417000       1.00800           0   0.00000       0.00000    
     43063 TIP3     6049     TIP3     H2       HT       0.417000       1.00800           0   0.00000     -0.301140E-02
     43064 TIP3     6050     TIP3     OH2      OT      -0.834000       15.9994           0   0.00000       0.00000    
     43065 TIP3     6050     TIP3     H1       HT       0.417000       1.00800           0   0.00000       0.00000    
     43066 TIP3     6050     TIP3     H2       HT       0.417000       1.00800           0   0.00000     -0.301140E-02
     43067 TIP3     6051     TIP3     OH2      OT      -0.834000       15.9994           0   0.00000       0.00000    
     43068 TIP3     6051     TIP3     H1       HT       0.417000       1.00800           0   0.00000       0.00000    
     43069 TIP3     6051     TIP3     H2       HT       0.417000       1.00800           0   0.00000     -0.301140E-02
     43070 TIP3     6052     TIP3     OH2      OT      -0.834000       15.9994           0   0.00000       0.00000    
     43071 TIP3     6052     TIP3     H1       HT       0.417000       1.00800           0   0.00000       0.00000    
     43072 TIP3     6052     TIP3     H2       HT       0.417000       1.00800           0   0.00000     -0.301140E-02
     43073 TIP3     6053     TIP3     OH2      OT      -0.834000       15.9994           0   0.00000       0.00000    
     43074 TIP3     6053     TIP3     H1       HT       0.417000       1.00800           0   0.00000       0.00000    
     43075 TIP3     6053     TIP3     H2       HT       0.417000       1.00800           0   0.00000     -0.301140E-02
     43076 TIP3     6054     TIP3     OH2      OT      -0.834000       15.9994           0   0.00000       0.00000    
     43077 TIP3     6054     TIP3     H1       HT       0.417000       1.00800           0   0.00000       0.00000    
     43078 TIP3     6054     TIP3     H2       HT       0.417000       1.00800           0   0.00000     -0.301140E-02
     43079 TIP3     6055     TIP3     OH2      OT      -0.834000       15.9994           0   0.00000       0.00000    
     43080 TIP3     6055     TIP3     H1       HT       0.417000       1.00800           0   0.00000       0.00000    
     43081 TIP3     6055     TIP3     H2       HT       0.417000       1.00800           0   0.00000     -0.301140E-02
     43082 TIP3     6056     TIP3     OH2      OT      -0.834000       15.9994           0   0.00000       0.00000    
     43083 TIP3     6056     TIP3     H1       HT       0.417000       1.00800           0   0.00000       0.00000    
     43084 TIP3     6056     TIP3     H2       HT       0.417000       1.00800           0   0.00000     -0.301140E-02
     43085 TIP3     6057     TIP3     OH2      OT      -0.834000       15.9994           0   0.00000       0.00000    
     43086 TIP3     6057     TIP3     H1       HT       0.417000       1.00800           0   0.00000       0.00000    
     43087 TIP3     6057     TIP3     H2       HT       0.417000       1.00800           0   0.00000     -0.301140E-02
     43088 TIP3     6058     TIP3     OH2      OT      -0.834000       15.9994           0   0.00000       0.00000    
     43089 TIP3     6058     TIP3     H1       HT       0.417000       1.00800           0   0.00000       0.00000    
     43090 TIP3     6058     TIP3     H2       HT       0.417000       1.00800           0   0.00000     -0.301140E-02
     43091 TIP3     6059     TIP3     OH2      OT      -0.834000       15.9994           0   0.00000       0.00000    
     43092 TIP3     6059     TIP3     H1       HT       0.417000       1.00800           0   0.00000       0.00000    
     43093 TIP3     6059     TIP3     H2       HT       0.417000       1.00800           0   0.00000     -0.301140E-02
     43094 TIP3     6060     TIP3     OH2      OT      -0.834000       15.9994           0   0.00000       0.00000    
     43095 TIP3     6060     TIP3     H1       HT       0.417000       1.00800           0   0.00000       0.00000    
     43096 TIP3     6060     TIP3     H2       HT       0.417000       1.00800           0   0.00000     -0.301140E-02
     43097 TIP3     6061     TIP3     OH2      OT      -0.834000       15.9994           0   0.00000       0.00000    
     43098 TIP3     6061     TIP3     H1       HT       0.417000       1.00800           0   0.00000       0.00000    
     43099 TIP3     6061     TIP3     H2       HT       0.417000       1.00800           0   0.00000     -0.301140E-02
     43100 TIP3     6062     TIP3     OH2      OT      -0.834000       15.9994           0   0.00000       0.00000    
     43101 TIP3     6062     TIP3     H1       HT       0.417000       1.00800           0   0.00000       0.00000    
     43102 TIP3     6062     TIP3     H2       HT       0.417000       1.00800           0   0.00000     -0.301140E-02
     43103 TIP3     6063     TIP3     OH2      OT      -0.834000       15.9994           0   0.00000       0.00000    
     43104 TIP3     6063     TIP3     H1       HT       0.417000       1.00800           0   0.00000       0.00000    
     43105 TIP3     6063     TIP3     H2       HT       0.417000       1.00800           0   0.00000     -0.301140E-02
     43106 TIP3     6064     TIP3     OH2      OT      -0.834000       15.9994           0   0.00000       0.00000    
     43107 TIP3     6064     TIP3     H1       HT       0.417000       1.00800           0   0.00000       0.00000    
     43108 TIP3     6064     TIP3     H2       HT       0.417000       1.00800           0   0.00000     -0.301140E-02
     43109 TIP3     6065     TIP3     OH2      OT      -0.834000       15.9994           0   0.00000       0.00000    
     43110 TIP3     6065     TIP3     H1       HT       0.417000       1.00800           0   0.00000       0.00000    
     43111 TIP3     6065     TIP3     H2       HT       0.417000       1.00800           0   0.00000     -0.301140E-02
     43112 TIP3     6066     TIP3     OH2      OT      -0.834000       15.9994           0   0.00000       0.00000    
     43113 TIP3     6066     TIP3     H1       HT       0.417000       1.00800           0   0.00000       0.00000    
     43114 TIP3     6066     TIP3     H2       HT       0.417000       1.00800           0   0.00000     -0.301140E-02
     43115 TIP3     6067     TIP3     OH2      OT      -0.834000       15.9994           0   0.00000       0.00000    
     43116 TIP3     6067     TIP3     H1       HT       0.417000       1.00800           0   0.00000       0.00000    
     43117 TIP3     6067     TIP3     H2       HT       0.417000       1.00800           0   0.00000     -0.301140E-02
     43118 TIP3     6068     TIP3     OH2      OT      -0.834000       15.9994           0   0.00000       0.00000    
     43119 TIP3     6068     TIP3     H1       HT       0.417000       1.00800           0   0.00000       0.00000    
     43120 TIP3     6068     TIP3     H2       HT       0.417000       1.00800           0   0.00000     -0.301140E-02
     43121 TIP3     6069     TIP3     OH2      OT      -0.834000       15.9994           0   0.00000       0.00000    
     43122 TIP3     6069     TIP3     H1       HT       0.417000       1.00800           0   0.00000       0.00000    
     43123 TIP3     6069     TIP3     H2       HT       0.417000       1.00800           0   0.00000     -0.301140E-02
     43124 TIP3     6070     TIP3     OH2      OT      -0.834000       15.9994           0   0.00000       0.00000    
     43125 TIP3     6070     TIP3     H1       HT       0.417000       1.00800           0   0.00000       0.00000    
     43126 TIP3     6070     TIP3     H2       HT       0.417000       1.00800           0   0.00000     -0.301140E-02
     43127 TIP3     6071     TIP3     OH2      OT      -0.834000       15.9994           0   0.00000       0.00000    
     43128 TIP3     6071     TIP3     H1       HT       0.417000       1.00800           0   0.00000       0.00000    
     43129 TIP3     6071     TIP3     H2       HT       0.417000       1.00800           0   0.00000     -0.301140E-02
     43130 TIP3     6072     TIP3     OH2      OT      -0.834000       15.9994           0   0.00000       0.00000    
     43131 TIP3     6072     TIP3     H1       HT       0.417000       1.00800           0   0.00000       0.00000    
     43132 TIP3     6072     TIP3     H2       HT       0.417000       1.00800           0   0.00000     -0.301140E-02
     43133 TIP3     6073     TIP3     OH2      OT      -0.834000       15.9994           0   0.00000       0.00000    
     43134 TIP3     6073     TIP3     H1       HT       0.417000       1.00800           0   0.00000       0.00000    
     43135 TIP3     6073     TIP3     H2       HT       0.417000       1.00800           0   0.00000     -0.301140E-02
     43136 TIP3     6074     TIP3     OH2      OT      -0.834000       15.9994           0   0.00000       0.00000    
     43137 TIP3     6074     TIP3     H1       HT       0.417000       1.00800           0   0.00000       0.00000    
     43138 TIP3     6074     TIP3     H2       HT       0.417000       1.00800           0   0.00000     -0.301140E-02
     43139 TIP3     6075     TIP3     OH2      OT      -0.834000       15.9994           0   0.00000       0.00000    
     43140 TIP3     6075     TIP3     H1       HT       0.417000       1.00800           0   0.00000       0.00000    
     43141 TIP3     6075     TIP3     H2       HT       0.417000       1.00800           0   0.00000     -0.301140E-02
     43142 TIP3     6076     TIP3     OH2      OT      -0.834000       15.9994           0   0.00000       0.00000    
     43143 TIP3     6076     TIP3     H1       HT       0.417000       1.00800           0   0.00000       0.00000    
     43144 TIP3     6076     TIP3     H2       HT       0.417000       1.00800           0   0.00000     -0.301140E-02
     43145 TIP3     6077     TIP3     OH2      OT      -0.834000       15.9994           0   0.00000       0.00000    
     43146 TIP3     6077     TIP3     H1       HT       0.417000       1.00800           0   0.00000       0.00000    
     43147 TIP3     6077     TIP3     H2       HT       0.417000       1.00800           0   0.00000     -0.301140E-02
     43148 TIP3     6078     TIP3     OH2      OT      -0.834000       15.9994           0   0.00000       0.00000    
     43149 TIP3     6078     TIP3     H1       HT       0.417000       1.00800           0   0.00000       0.00000    
     43150 TIP3     6078     TIP3     H2       HT       0.417000       1.00800           0   0.00000     -0.301140E-02
     43151 TIP3     6079     TIP3     OH2      OT      -0.834000       15.9994           0   0.00000       0.00000    
     43152 TIP3     6079     TIP3     H1       HT       0.417000       1.00800           0   0.00000       0.00000    
     43153 TIP3     6079     TIP3     H2       HT       0.417000       1.00800           0   0.00000     -0.301140E-02
     43154 TIP3     6080     TIP3     OH2      OT      -0.834000       15.9994           0   0.00000       0.00000    
     43155 TIP3     6080     TIP3     H1       HT       0.417000       1.00800           0   0.00000       0.00000    
     43156 TIP3     6080     TIP3     H2       HT       0.417000       1.00800           0   0.00000     -0.301140E-02
     43157 TIP3     6081     TIP3     OH2      OT      -0.834000       15.9994           0   0.00000       0.00000    
     43158 TIP3     6081     TIP3     H1       HT       0.417000       1.00800           0   0.00000       0.00000    
     43159 TIP3     6081     TIP3     H2       HT       0.417000       1.00800           0   0.00000     -0.301140E-02
     43160 TIP3     6082     TIP3     OH2      OT      -0.834000       15.9994           0   0.00000       0.00000    
     43161 TIP3     6082     TIP3     H1       HT       0.417000       1.00800           0   0.00000       0.00000    
     43162 TIP3     6082     TIP3     H2       HT       0.417000       1.00800           0   0.00000     -0.301140E-02
     43163 TIP3     6083     TIP3     OH2      OT      -0.834000       15.9994           0   0.00000       0.00000    
     43164 TIP3     6083     TIP3     H1       HT       0.417000       1.00800           0   0.00000       0.00000    
     43165 TIP3     6083     TIP3     H2       HT       0.417000       1.00800           0   0.00000     -0.301140E-02
     43166 TIP3     6084     TIP3     OH2      OT      -0.834000       15.9994           0   0.00000       0.00000    
     43167 TIP3     6084     TIP3     H1       HT       0.417000       1.00800           0   0.00000       0.00000    
     43168 TIP3     6084     TIP3     H2       HT       0.417000       1.00800           0   0.00000     -0.301140E-02
     43169 TIP3     6085     TIP3     OH2      OT      -0.834000       15.9994           0   0.00000       0.00000    
     43170 TIP3     6085     TIP3     H1       HT       0.417000       1.00800           0   0.00000       0.00000    
     43171 TIP3     6085     TIP3     H2       HT       0.417000       1.00800           0   0.00000     -0.301140E-02
     43172 TIP3     6086     TIP3     OH2      OT      -0.834000       15.9994           0   0.00000       0.00000    
     43173 TIP3     6086     TIP3     H1       HT       0.417000       1.00800           0   0.00000       0.00000    
     43174 TIP3     6086     TIP3     H2       HT       0.417000       1.00800           0   0.00000     -0.301140E-02
     43175 TIP3     6087     TIP3     OH2      OT      -0.834000       15.9994           0   0.00000       0.00000    
     43176 TIP3     6087     TIP3     H1       HT       0.417000       1.00800           0   0.00000       0.00000    
     43177 TIP3     6087     TIP3     H2       HT       0.417000       1.00800           0   0.00000     -0.301140E-02
     43178 TIP3     6088     TIP3     OH2      OT      -0.834000       15.9994           0   0.00000       0.00000    
     43179 TIP3     6088     TIP3     H1       HT       0.417000       1.00800           0   0.00000       0.00000    
     43180 TIP3     6088     TIP3     H2       HT       0.417000       1.00800           0   0.00000     -0.301140E-02
     43181 TIP3     6089     TIP3     OH2      OT      -0.834000       15.9994           0   0.00000       0.00000    
     43182 TIP3     6089     TIP3     H1       HT       0.417000       1.00800           0   0.00000       0.00000    
     43183 TIP3     6089     TIP3     H2       HT       0.417000       1.00800           0   0.00000     -0.301140E-02
     43184 TIP3     6090     TIP3     OH2      OT      -0.834000       15.9994           0   0.00000       0.00000    
     43185 TIP3     6090     TIP3     H1       HT       0.417000       1.00800           0   0.00000       0.00000    
     43186 TIP3     6090     TIP3     H2       HT       0.417000       1.00800           0   0.00000     -0.301140E-02
     43187 TIP3     6091     TIP3     OH2      OT      -0.834000       15.9994           0   0.00000       0.00000    
     43188 TIP3     6091     TIP3     H1       HT       0.417000       1.00800           0   0.00000       0.00000    
     43189 TIP3     6091     TIP3     H2       HT       0.417000       1.00800           0   0.00000     -0.301140E-02
     43190 TIP3     6092     TIP3     OH2      OT      -0.834000       15.9994           0   0.00000       0.00000    
     43191 TIP3     6092     TIP3     H1       HT       0.417000       1.00800           0   0.00000       0.00000    
     43192 TIP3     6092     TIP3     H2       HT       0.417000       1.00800           0   0.00000     -0.301140E-02
     43193 TIP3     6093     TIP3     OH2      OT      -0.834000       15.9994           0   0.00000       0.00000    
     43194 TIP3     6093     TIP3     H1       HT       0.417000       1.00800           0   0.00000       0.00000    
     43195 TIP3     6093     TIP3     H2       HT       0.417000       1.00800           0   0.00000     -0.301140E-02
     43196 TIP3     6094     TIP3     OH2      OT      -0.834000       15.9994           0   0.00000       0.00000    
     43197 TIP3     6094     TIP3     H1       HT       0.417000       1.00800           0   0.00000       0.00000    
     43198 TIP3     6094     TIP3     H2       HT       0.417000       1.00800           0   0.00000     -0.301140E-02
     43199 TIP3     6095     TIP3     OH2      OT      -0.834000       15.9994           0   0.00000       0.00000    
     43200 TIP3     6095     TIP3     H1       HT       0.417000       1.00800           0   0.00000       0.00000    
     43201 TIP3     6095     TIP3     H2       HT       0.417000       1.00800           0   0.00000     -0.301140E-02
     43202 TIP3     6096     TIP3     OH2      OT      -0.834000       15.9994           0   0.00000       0.00000    
     43203 TIP3     6096     TIP3     H1       HT       0.417000       1.00800           0   0.00000       0.00000    
     43204 TIP3     6096     TIP3     H2       HT       0.417000       1.00800           0   0.00000     -0.301140E-02
     43205 TIP3     6097     TIP3     OH2      OT      -0.834000       15.9994           0   0.00000       0.00000    
     43206 TIP3     6097     TIP3     H1       HT       0.417000       1.00800           0   0.00000       0.00000    
     43207 TIP3     6097     TIP3     H2       HT       0.417000       1.00800           0   0.00000     -0.301140E-02
     43208 TIP3     6098     TIP3     OH2      OT      -0.834000       15.9994           0   0.00000       0.00000    
     43209 TIP3     6098     TIP3     H1       HT       0.417000       1.00800           0   0.00000       0.00000    
     43210 TIP3     6098     TIP3     H2       HT       0.417000       1.00800           0   0.00000     -0.301140E-02
     43211 TIP3     6099     TIP3     OH2      OT      -0.834000       15.9994           0   0.00000       0.00000    
     43212 TIP3     6099     TIP3     H1       HT       0.417000       1.00800           0   0.00000       0.00000    
     43213 TIP3     6099     TIP3     H2       HT       0.417000       1.00800           0   0.00000     -0.301140E-02
     43214 TIP3     6100     TIP3     OH2      OT      -0.834000       15.9994           0   0.00000       0.00000    
     43215 TIP3     6100     TIP3     H1       HT       0.417000       1.00800           0   0.00000       0.00000    
     43216 TIP3     6100     TIP3     H2       HT       0.417000       1.00800           0   0.00000     -0.301140E-02
     43217 TIP3     6101     TIP3     OH2      OT      -0.834000       15.9994           0   0.00000       0.00000    
     43218 TIP3     6101     TIP3     H1       HT       0.417000       1.00800           0   0.00000       0.00000    
     43219 TIP3     6101     TIP3     H2       HT       0.417000       1.00800           0   0.00000     -0.301140E-02
     43220 TIP3     6102     TIP3     OH2      OT      -0.834000       15.9994           0   0.00000       0.00000    
     43221 TIP3     6102     TIP3     H1       HT       0.417000       1.00800           0   0.00000       0.00000    
     43222 TIP3     6102     TIP3     H2       HT       0.417000       1.00800           0   0.00000     -0.301140E-02
     43223 TIP3     6103     TIP3     OH2      OT      -0.834000       15.9994           0   0.00000       0.00000    
     43224 TIP3     6103     TIP3     H1       HT       0.417000       1.00800           0   0.00000       0.00000    
     43225 TIP3     6103     TIP3     H2       HT       0.417000       1.00800           0   0.00000     -0.301140E-02
     43226 TIP3     6104     TIP3     OH2      OT      -0.834000       15.9994           0   0.00000       0.00000    
     43227 TIP3     6104     TIP3     H1       HT       0.417000       1.00800           0   0.00000       0.00000    
     43228 TIP3     6104     TIP3     H2       HT       0.417000       1.00800           0   0.00000     -0.301140E-02
     43229 TIP3     6105     TIP3     OH2      OT      -0.834000       15.9994           0   0.00000       0.00000    
     43230 TIP3     6105     TIP3     H1       HT       0.417000       1.00800           0   0.00000       0.00000    
     43231 TIP3     6105     TIP3     H2       HT       0.417000       1.00800           0   0.00000     -0.301140E-02
     43232 TIP3     6106     TIP3     OH2      OT      -0.834000       15.9994           0   0.00000       0.00000    
     43233 TIP3     6106     TIP3     H1       HT       0.417000       1.00800           0   0.00000       0.00000    
     43234 TIP3     6106     TIP3     H2       HT       0.417000       1.00800           0   0.00000     -0.301140E-02
     43235 TIP3     6107     TIP3     OH2      OT      -0.834000       15.9994           0   0.00000       0.00000    
     43236 TIP3     6107     TIP3     H1       HT       0.417000       1.00800           0   0.00000       0.00000    
     43237 TIP3     6107     TIP3     H2       HT       0.417000       1.00800           0   0.00000     -0.301140E-02
     43238 TIP3     6108     TIP3     OH2      OT      -0.834000       15.9994           0   0.00000       0.00000    
     43239 TIP3     6108     TIP3     H1       HT       0.417000       1.00800           0   0.00000       0.00000    
     43240 TIP3     6108     TIP3     H2       HT       0.417000       1.00800           0   0.00000     -0.301140E-02
     43241 TIP3     6109     TIP3     OH2      OT      -0.834000       15.9994           0   0.00000       0.00000    
     43242 TIP3     6109     TIP3     H1       HT       0.417000       1.00800           0   0.00000       0.00000    
     43243 TIP3     6109     TIP3     H2       HT       0.417000       1.00800           0   0.00000     -0.301140E-02
     43244 TIP3     6110     TIP3     OH2      OT      -0.834000       15.9994           0   0.00000       0.00000    
     43245 TIP3     6110     TIP3     H1       HT       0.417000       1.00800           0   0.00000       0.00000    
     43246 TIP3     6110     TIP3     H2       HT       0.417000       1.00800           0   0.00000     -0.301140E-02
     43247 TIP3     6111     TIP3     OH2      OT      -0.834000       15.9994           0   0.00000       0.00000    
     43248 TIP3     6111     TIP3     H1       HT       0.417000       1.00800           0   0.00000       0.00000    
     43249 TIP3     6111     TIP3     H2       HT       0.417000       1.00800           0   0.00000     -0.301140E-02
     43250 TIP3     6112     TIP3     OH2      OT      -0.834000       15.9994           0   0.00000       0.00000    
     43251 TIP3     6112     TIP3     H1       HT       0.417000       1.00800           0   0.00000       0.00000    
     43252 TIP3     6112     TIP3     H2       HT       0.417000       1.00800           0   0.00000     -0.301140E-02
     43253 TIP3     6113     TIP3     OH2      OT      -0.834000       15.9994           0   0.00000       0.00000    
     43254 TIP3     6113     TIP3     H1       HT       0.417000       1.00800           0   0.00000       0.00000    
     43255 TIP3     6113     TIP3     H2       HT       0.417000       1.00800           0   0.00000     -0.301140E-02
     43256 TIP3     6114     TIP3     OH2      OT      -0.834000       15.9994           0   0.00000       0.00000    
     43257 TIP3     6114     TIP3     H1       HT       0.417000       1.00800           0   0.00000       0.00000    
     43258 TIP3     6114     TIP3     H2       HT       0.417000       1.00800           0   0.00000     -0.301140E-02
     43259 TIP3     6115     TIP3     OH2      OT      -0.834000       15.9994           0   0.00000       0.00000    
     43260 TIP3     6115     TIP3     H1       HT       0.417000       1.00800           0   0.00000       0.00000    
     43261 TIP3     6115     TIP3     H2       HT       0.417000       1.00800           0   0.00000     -0.301140E-02
     43262 TIP3     6116     TIP3     OH2      OT      -0.834000       15.9994           0   0.00000       0.00000    
     43263 TIP3     6116     TIP3     H1       HT       0.417000       1.00800           0   0.00000       0.00000    
     43264 TIP3     6116     TIP3     H2       HT       0.417000       1.00800           0   0.00000     -0.301140E-02
     43265 TIP3     6117     TIP3     OH2      OT      -0.834000       15.9994           0   0.00000       0.00000    
     43266 TIP3     6117     TIP3     H1       HT       0.417000       1.00800           0   0.00000       0.00000    
     43267 TIP3     6117     TIP3     H2       HT       0.417000       1.00800           0   0.00000     -0.301140E-02
     43268 TIP3     6118     TIP3     OH2      OT      -0.834000       15.9994           0   0.00000       0.00000    
     43269 TIP3     6118     TIP3     H1       HT       0.417000       1.00800           0   0.00000       0.00000    
     43270 TIP3     6118     TIP3     H2       HT       0.417000       1.00800           0   0.00000     -0.301140E-02
     43271 TIP3     6119     TIP3     OH2      OT      -0.834000       15.9994           0   0.00000       0.00000    
     43272 TIP3     6119     TIP3     H1       HT       0.417000       1.00800           0   0.00000       0.00000    
     43273 TIP3     6119     TIP3     H2       HT       0.417000       1.00800           0   0.00000     -0.301140E-02
     43274 TIP3     6120     TIP3     OH2      OT      -0.834000       15.9994           0   0.00000       0.00000    
     43275 TIP3     6120     TIP3     H1       HT       0.417000       1.00800           0   0.00000       0.00000    
     43276 TIP3     6120     TIP3     H2       HT       0.417000       1.00800           0   0.00000     -0.301140E-02
     43277 TIP3     6121     TIP3     OH2      OT      -0.834000       15.9994           0   0.00000       0.00000    
     43278 TIP3     6121     TIP3     H1       HT       0.417000       1.00800           0   0.00000       0.00000    
     43279 TIP3     6121     TIP3     H2       HT       0.417000       1.00800           0   0.00000     -0.301140E-02
     43280 TIP3     6122     TIP3     OH2      OT      -0.834000       15.9994           0   0.00000       0.00000    
     43281 TIP3     6122     TIP3     H1       HT       0.417000       1.00800           0   0.00000       0.00000    
     43282 TIP3     6122     TIP3     H2       HT       0.417000       1.00800           0   0.00000     -0.301140E-02
     43283 TIP3     6123     TIP3     OH2      OT      -0.834000       15.9994           0   0.00000       0.00000    
     43284 TIP3     6123     TIP3     H1       HT       0.417000       1.00800           0   0.00000       0.00000    
     43285 TIP3     6123     TIP3     H2       HT       0.417000       1.00800           0   0.00000     -0.301140E-02
     43286 TIP3     6124     TIP3     OH2      OT      -0.834000       15.9994           0   0.00000       0.00000    
     43287 TIP3     6124     TIP3     H1       HT       0.417000       1.00800           0   0.00000       0.00000    
     43288 TIP3     6124     TIP3     H2       HT       0.417000       1.00800           0   0.00000     -0.301140E-02
     43289 TIP3     6125     TIP3     OH2      OT      -0.834000       15.9994           0   0.00000       0.00000    
     43290 TIP3     6125     TIP3     H1       HT       0.417000       1.00800           0   0.00000       0.00000    
     43291 TIP3     6125     TIP3     H2       HT       0.417000       1.00800           0   0.00000     -0.301140E-02
     43292 TIP3     6126     TIP3     OH2      OT      -0.834000       15.9994           0   0.00000       0.00000    
     43293 TIP3     6126     TIP3     H1       HT       0.417000       1.00800           0   0.00000       0.00000    
     43294 TIP3     6126     TIP3     H2       HT       0.417000       1.00800           0   0.00000     -0.301140E-02
     43295 TIP3     6127     TIP3     OH2      OT      -0.834000       15.9994           0   0.00000       0.00000    
     43296 TIP3     6127     TIP3     H1       HT       0.417000       1.00800           0   0.00000       0.00000    
     43297 TIP3     6127     TIP3     H2       HT       0.417000       1.00800           0   0.00000     -0.301140E-02
     43298 TIP3     6128     TIP3     OH2      OT      -0.834000       15.9994           0   0.00000       0.00000    
     43299 TIP3     6128     TIP3     H1       HT       0.417000       1.00800           0   0.00000       0.00000    
     43300 TIP3     6128     TIP3     H2       HT       0.417000       1.00800           0   0.00000     -0.301140E-02
     43301 TIP3     6129     TIP3     OH2      OT      -0.834000       15.9994           0   0.00000       0.00000    
     43302 TIP3     6129     TIP3     H1       HT       0.417000       1.00800           0   0.00000       0.00000    
     43303 TIP3     6129     TIP3     H2       HT       0.417000       1.00800           0   0.00000     -0.301140E-02
     43304 TIP3     6130     TIP3     OH2      OT      -0.834000       15.9994           0   0.00000       0.00000    
     43305 TIP3     6130     TIP3     H1       HT       0.417000       1.00800           0   0.00000       0.00000    
     43306 TIP3     6130     TIP3     H2       HT       0.417000       1.00800           0   0.00000     -0.301140E-02
     43307 TIP3     6131     TIP3     OH2      OT      -0.834000       15.9994           0   0.00000       0.00000    
     43308 TIP3     6131     TIP3     H1       HT       0.417000       1.00800           0   0.00000       0.00000    
     43309 TIP3     6131     TIP3     H2       HT       0.417000       1.00800           0   0.00000     -0.301140E-02
     43310 TIP3     6132     TIP3     OH2      OT      -0.834000       15.9994           0   0.00000       0.00000    
     43311 TIP3     6132     TIP3     H1       HT       0.417000       1.00800           0   0.00000       0.00000    
     43312 TIP3     6132     TIP3     H2       HT       0.417000       1.00800           0   0.00000     -0.301140E-02
     43313 TIP3     6133     TIP3     OH2      OT      -0.834000       15.9994           0   0.00000       0.00000    
     43314 TIP3     6133     TIP3     H1       HT       0.417000       1.00800           0   0.00000       0.00000    
     43315 TIP3     6133     TIP3     H2       HT       0.417000       1.00800           0   0.00000     -0.301140E-02
     43316 TIP3     6134     TIP3     OH2      OT      -0.834000       15.9994           0   0.00000       0.00000    
     43317 TIP3     6134     TIP3     H1       HT       0.417000       1.00800           0   0.00000       0.00000    
     43318 TIP3     6134     TIP3     H2       HT       0.417000       1.00800           0   0.00000     -0.301140E-02
     43319 TIP3     6135     TIP3     OH2      OT      -0.834000       15.9994           0   0.00000       0.00000    
     43320 TIP3     6135     TIP3     H1       HT       0.417000       1.00800           0   0.00000       0.00000    
     43321 TIP3     6135     TIP3     H2       HT       0.417000       1.00800           0   0.00000     -0.301140E-02
     43322 TIP3     6136     TIP3     OH2      OT      -0.834000       15.9994           0   0.00000       0.00000    
     43323 TIP3     6136     TIP3     H1       HT       0.417000       1.00800           0   0.00000       0.00000    
     43324 TIP3     6136     TIP3     H2       HT       0.417000       1.00800           0   0.00000     -0.301140E-02
     43325 TIP3     6137     TIP3     OH2      OT      -0.834000       15.9994           0   0.00000       0.00000    
     43326 TIP3     6137     TIP3     H1       HT       0.417000       1.00800           0   0.00000       0.00000    
     43327 TIP3     6137     TIP3     H2       HT       0.417000       1.00800           0   0.00000     -0.301140E-02
     43328 TIP3     6138     TIP3     OH2      OT      -0.834000       15.9994           0   0.00000       0.00000    
     43329 TIP3     6138     TIP3     H1       HT       0.417000       1.00800           0   0.00000       0.00000    
     43330 TIP3     6138     TIP3     H2       HT       0.417000       1.00800           0   0.00000     -0.301140E-02
     43331 TIP3     6139     TIP3     OH2      OT      -0.834000       15.9994           0   0.00000       0.00000    
     43332 TIP3     6139     TIP3     H1       HT       0.417000       1.00800           0   0.00000       0.00000    
     43333 TIP3     6139     TIP3     H2       HT       0.417000       1.00800           0   0.00000     -0.301140E-02
     43334 TIP3     6140     TIP3     OH2      OT      -0.834000       15.9994           0   0.00000       0.00000    
     43335 TIP3     6140     TIP3     H1       HT       0.417000       1.00800           0   0.00000       0.00000    
     43336 TIP3     6140     TIP3     H2       HT       0.417000       1.00800           0   0.00000     -0.301140E-02
     43337 TIP3     6141     TIP3     OH2      OT      -0.834000       15.9994           0   0.00000       0.00000    
     43338 TIP3     6141     TIP3     H1       HT       0.417000       1.00800           0   0.00000       0.00000    
     43339 TIP3     6141     TIP3     H2       HT       0.417000       1.00800           0   0.00000     -0.301140E-02
     43340 TIP3     6142     TIP3     OH2      OT      -0.834000       15.9994           0   0.00000       0.00000    
     43341 TIP3     6142     TIP3     H1       HT       0.417000       1.00800           0   0.00000       0.00000    
     43342 TIP3     6142     TIP3     H2       HT       0.417000       1.00800           0   0.00000     -0.301140E-02
     43343 TIP3     6143     TIP3     OH2      OT      -0.834000       15.9994           0   0.00000       0.00000    
     43344 TIP3     6143     TIP3     H1       HT       0.417000       1.00800           0   0.00000       0.00000    
     43345 TIP3     6143     TIP3     H2       HT       0.417000       1.00800           0   0.00000     -0.301140E-02
     43346 TIP3     6144     TIP3     OH2      OT      -0.834000       15.9994           0   0.00000       0.00000    
     43347 TIP3     6144     TIP3     H1       HT       0.417000       1.00800           0   0.00000       0.00000    
     43348 TIP3     6144     TIP3     H2       HT       0.417000       1.00800           0   0.00000     -0.301140E-02
     43349 TIP3     6145     TIP3     OH2      OT      -0.834000       15.9994           0   0.00000       0.00000    
     43350 TIP3     6145     TIP3     H1       HT       0.417000       1.00800           0   0.00000       0.00000    
     43351 TIP3     6145     TIP3     H2       HT       0.417000       1.00800           0   0.00000     -0.301140E-02
     43352 TIP3     6146     TIP3     OH2      OT      -0.834000       15.9994           0   0.00000       0.00000    
     43353 TIP3     6146     TIP3     H1       HT       0.417000       1.00800           0   0.00000       0.00000    
     43354 TIP3     6146     TIP3     H2       HT       0.417000       1.00800           0   0.00000     -0.301140E-02
     43355 TIP3     6147     TIP3     OH2      OT      -0.834000       15.9994           0   0.00000       0.00000    
     43356 TIP3     6147     TIP3     H1       HT       0.417000       1.00800           0   0.00000       0.00000    
     43357 TIP3     6147     TIP3     H2       HT       0.417000       1.00800           0   0.00000     -0.301140E-02
     43358 TIP3     6148     TIP3     OH2      OT      -0.834000       15.9994           0   0.00000       0.00000    
     43359 TIP3     6148     TIP3     H1       HT       0.417000       1.00800           0   0.00000       0.00000    
     43360 TIP3     6148     TIP3     H2       HT       0.417000       1.00800           0   0.00000     -0.301140E-02
     43361 TIP3     6149     TIP3     OH2      OT      -0.834000       15.9994           0   0.00000       0.00000    
     43362 TIP3     6149     TIP3     H1       HT       0.417000       1.00800           0   0.00000       0.00000    
     43363 TIP3     6149     TIP3     H2       HT       0.417000       1.00800           0   0.00000     -0.301140E-02
     43364 TIP3     6150     TIP3     OH2      OT      -0.834000       15.9994           0   0.00000       0.00000    
     43365 TIP3     6150     TIP3     H1       HT       0.417000       1.00800           0   0.00000       0.00000    
     43366 TIP3     6150     TIP3     H2       HT       0.417000       1.00800           0   0.00000     -0.301140E-02
     43367 TIP3     6151     TIP3     OH2      OT      -0.834000       15.9994           0   0.00000       0.00000    
     43368 TIP3     6151     TIP3     H1       HT       0.417000       1.00800           0   0.00000       0.00000    
     43369 TIP3     6151     TIP3     H2       HT       0.417000       1.00800           0   0.00000     -0.301140E-02
     43370 TIP3     6152     TIP3     OH2      OT      -0.834000       15.9994           0   0.00000       0.00000    
     43371 TIP3     6152     TIP3     H1       HT       0.417000       1.00800           0   0.00000       0.00000    
     43372 TIP3     6152     TIP3     H2       HT       0.417000       1.00800           0   0.00000     -0.301140E-02
     43373 TIP3     6153     TIP3     OH2      OT      -0.834000       15.9994           0   0.00000       0.00000    
     43374 TIP3     6153     TIP3     H1       HT       0.417000       1.00800           0   0.00000       0.00000    
     43375 TIP3     6153     TIP3     H2       HT       0.417000       1.00800           0   0.00000     -0.301140E-02
     43376 TIP3     6154     TIP3     OH2      OT      -0.834000       15.9994           0   0.00000       0.00000    
     43377 TIP3     6154     TIP3     H1       HT       0.417000       1.00800           0   0.00000       0.00000    
     43378 TIP3     6154     TIP3     H2       HT       0.417000       1.00800           0   0.00000     -0.301140E-02
     43379 TIP3     6155     TIP3     OH2      OT      -0.834000       15.9994           0   0.00000       0.00000    
     43380 TIP3     6155     TIP3     H1       HT       0.417000       1.00800           0   0.00000       0.00000    
     43381 TIP3     6155     TIP3     H2       HT       0.417000       1.00800           0   0.00000     -0.301140E-02
     43382 TIP3     6156     TIP3     OH2      OT      -0.834000       15.9994           0   0.00000       0.00000    
     43383 TIP3     6156     TIP3     H1       HT       0.417000       1.00800           0   0.00000       0.00000    
     43384 TIP3     6156     TIP3     H2       HT       0.417000       1.00800           0   0.00000     -0.301140E-02
     43385 TIP3     6157     TIP3     OH2      OT      -0.834000       15.9994           0   0.00000       0.00000    
     43386 TIP3     6157     TIP3     H1       HT       0.417000       1.00800           0   0.00000       0.00000    
     43387 TIP3     6157     TIP3     H2       HT       0.417000       1.00800           0   0.00000     -0.301140E-02
     43388 TIP3     6158     TIP3     OH2      OT      -0.834000       15.9994           0   0.00000       0.00000    
     43389 TIP3     6158     TIP3     H1       HT       0.417000       1.00800           0   0.00000       0.00000    
     43390 TIP3     6158     TIP3     H2       HT       0.417000       1.00800           0   0.00000     -0.301140E-02
     43391 TIP3     6159     TIP3     OH2      OT      -0.834000       15.9994           0   0.00000       0.00000    
     43392 TIP3     6159     TIP3     H1       HT       0.417000       1.00800           0   0.00000       0.00000    
     43393 TIP3     6159     TIP3     H2       HT       0.417000       1.00800           0   0.00000     -0.301140E-02
     43394 TIP3     6160     TIP3     OH2      OT      -0.834000       15.9994           0   0.00000       0.00000    
     43395 TIP3     6160     TIP3     H1       HT       0.417000       1.00800           0   0.00000       0.00000    
     43396 TIP3     6160     TIP3     H2       HT       0.417000       1.00800           0   0.00000     -0.301140E-02
     43397 TIP3     6161     TIP3     OH2      OT      -0.834000       15.9994           0   0.00000       0.00000    
     43398 TIP3     6161     TIP3     H1       HT       0.417000       1.00800           0   0.00000       0.00000    
     43399 TIP3     6161     TIP3     H2       HT       0.417000       1.00800           0   0.00000     -0.301140E-02
     43400 TIP3     6162     TIP3     OH2      OT      -0.834000       15.9994           0   0.00000       0.00000    
     43401 TIP3     6162     TIP3     H1       HT       0.417000       1.00800           0   0.00000       0.00000    
     43402 TIP3     6162     TIP3     H2       HT       0.417000       1.00800           0   0.00000     -0.301140E-02
     43403 TIP3     6163     TIP3     OH2      OT      -0.834000       15.9994           0   0.00000       0.00000    
     43404 TIP3     6163     TIP3     H1       HT       0.417000       1.00800           0   0.00000       0.00000    
     43405 TIP3     6163     TIP3     H2       HT       0.417000       1.00800           0   0.00000     -0.301140E-02
     43406 TIP3     6164     TIP3     OH2      OT      -0.834000       15.9994           0   0.00000       0.00000    
     43407 TIP3     6164     TIP3     H1       HT       0.417000       1.00800           0   0.00000       0.00000    
     43408 TIP3     6164     TIP3     H2       HT       0.417000       1.00800           0   0.00000     -0.301140E-02
     43409 TIP3     6165     TIP3     OH2      OT      -0.834000       15.9994           0   0.00000       0.00000    
     43410 TIP3     6165     TIP3     H1       HT       0.417000       1.00800           0   0.00000       0.00000    
     43411 TIP3     6165     TIP3     H2       HT       0.417000       1.00800           0   0.00000     -0.301140E-02
     43412 TIP3     6166     TIP3     OH2      OT      -0.834000       15.9994           0   0.00000       0.00000    
     43413 TIP3     6166     TIP3     H1       HT       0.417000       1.00800           0   0.00000       0.00000    
     43414 TIP3     6166     TIP3     H2       HT       0.417000       1.00800           0   0.00000     -0.301140E-02
     43415 TIP3     6167     TIP3     OH2      OT      -0.834000       15.9994           0   0.00000       0.00000    
     43416 TIP3     6167     TIP3     H1       HT       0.417000       1.00800           0   0.00000       0.00000    
     43417 TIP3     6167     TIP3     H2       HT       0.417000       1.00800           0   0.00000     -0.301140E-02
     43418 TIP3     6168     TIP3     OH2      OT      -0.834000       15.9994           0   0.00000       0.00000    
     43419 TIP3     6168     TIP3     H1       HT       0.417000       1.00800           0   0.00000       0.00000    
     43420 TIP3     6168     TIP3     H2       HT       0.417000       1.00800           0   0.00000     -0.301140E-02
     43421 TIP3     6169     TIP3     OH2      OT      -0.834000       15.9994           0   0.00000       0.00000    
     43422 TIP3     6169     TIP3     H1       HT       0.417000       1.00800           0   0.00000       0.00000    
     43423 TIP3     6169     TIP3     H2       HT       0.417000       1.00800           0   0.00000     -0.301140E-02
     43424 TIP3     6170     TIP3     OH2      OT      -0.834000       15.9994           0   0.00000       0.00000    
     43425 TIP3     6170     TIP3     H1       HT       0.417000       1.00800           0   0.00000       0.00000    
     43426 TIP3     6170     TIP3     H2       HT       0.417000       1.00800           0   0.00000     -0.301140E-02
     43427 TIP3     6171     TIP3     OH2      OT      -0.834000       15.9994           0   0.00000       0.00000    
     43428 TIP3     6171     TIP3     H1       HT       0.417000       1.00800           0   0.00000       0.00000    
     43429 TIP3     6171     TIP3     H2       HT       0.417000       1.00800           0   0.00000     -0.301140E-02
     43430 TIP3     6172     TIP3     OH2      OT      -0.834000       15.9994           0   0.00000       0.00000    
     43431 TIP3     6172     TIP3     H1       HT       0.417000       1.00800           0   0.00000       0.00000    
     43432 TIP3     6172     TIP3     H2       HT       0.417000       1.00800           0   0.00000     -0.301140E-02
     43433 TIP3     6173     TIP3     OH2      OT      -0.834000       15.9994           0   0.00000       0.00000    
     43434 TIP3     6173     TIP3     H1       HT       0.417000       1.00800           0   0.00000       0.00000    
     43435 TIP3     6173     TIP3     H2       HT       0.417000       1.00800           0   0.00000     -0.301140E-02
     43436 TIP3     6174     TIP3     OH2      OT      -0.834000       15.9994           0   0.00000       0.00000    
     43437 TIP3     6174     TIP3     H1       HT       0.417000       1.00800           0   0.00000       0.00000    
     43438 TIP3     6174     TIP3     H2       HT       0.417000       1.00800           0   0.00000     -0.301140E-02
     43439 TIP3     6175     TIP3     OH2      OT      -0.834000       15.9994           0   0.00000       0.00000    
     43440 TIP3     6175     TIP3     H1       HT       0.417000       1.00800           0   0.00000       0.00000    
     43441 TIP3     6175     TIP3     H2       HT       0.417000       1.00800           0   0.00000     -0.301140E-02
     43442 TIP3     6176     TIP3     OH2      OT      -0.834000       15.9994           0   0.00000       0.00000    
     43443 TIP3     6176     TIP3     H1       HT       0.417000       1.00800           0   0.00000       0.00000    
     43444 TIP3     6176     TIP3     H2       HT       0.417000       1.00800           0   0.00000     -0.301140E-02
     43445 TIP3     6177     TIP3     OH2      OT      -0.834000       15.9994           0   0.00000       0.00000    
     43446 TIP3     6177     TIP3     H1       HT       0.417000       1.00800           0   0.00000       0.00000    
     43447 TIP3     6177     TIP3     H2       HT       0.417000       1.00800           0   0.00000     -0.301140E-02
     43448 TIP3     6178     TIP3     OH2      OT      -0.834000       15.9994           0   0.00000       0.00000    
     43449 TIP3     6178     TIP3     H1       HT       0.417000       1.00800           0   0.00000       0.00000    
     43450 TIP3     6178     TIP3     H2       HT       0.417000       1.00800           0   0.00000     -0.301140E-02
     43451 TIP3     6179     TIP3     OH2      OT      -0.834000       15.9994           0   0.00000       0.00000    
     43452 TIP3     6179     TIP3     H1       HT       0.417000       1.00800           0   0.00000       0.00000    
     43453 TIP3     6179     TIP3     H2       HT       0.417000       1.00800           0   0.00000     -0.301140E-02
     43454 TIP3     6180     TIP3     OH2      OT      -0.834000       15.9994           0   0.00000       0.00000    
     43455 TIP3     6180     TIP3     H1       HT       0.417000       1.00800           0   0.00000       0.00000    
     43456 TIP3     6180     TIP3     H2       HT       0.417000       1.00800           0   0.00000     -0.301140E-02
     43457 TIP3     6181     TIP3     OH2      OT      -0.834000       15.9994           0   0.00000       0.00000    
     43458 TIP3     6181     TIP3     H1       HT       0.417000       1.00800           0   0.00000       0.00000    
     43459 TIP3     6181     TIP3     H2       HT       0.417000       1.00800           0   0.00000     -0.301140E-02
     43460 TIP3     6182     TIP3     OH2      OT      -0.834000       15.9994           0   0.00000       0.00000    
     43461 TIP3     6182     TIP3     H1       HT       0.417000       1.00800           0   0.00000       0.00000    
     43462 TIP3     6182     TIP3     H2       HT       0.417000       1.00800           0   0.00000     -0.301140E-02
     43463 TIP3     6183     TIP3     OH2      OT      -0.834000       15.9994           0   0.00000       0.00000    
     43464 TIP3     6183     TIP3     H1       HT       0.417000       1.00800           0   0.00000       0.00000    
     43465 TIP3     6183     TIP3     H2       HT       0.417000       1.00800           0   0.00000     -0.301140E-02
     43466 TIP3     6184     TIP3     OH2      OT      -0.834000       15.9994           0   0.00000       0.00000    
     43467 TIP3     6184     TIP3     H1       HT       0.417000       1.00800           0   0.00000       0.00000    
     43468 TIP3     6184     TIP3     H2       HT       0.417000       1.00800           0   0.00000     -0.301140E-02
     43469 TIP3     6185     TIP3     OH2      OT      -0.834000       15.9994           0   0.00000       0.00000    
     43470 TIP3     6185     TIP3     H1       HT       0.417000       1.00800           0   0.00000       0.00000    
     43471 TIP3     6185     TIP3     H2       HT       0.417000       1.00800           0   0.00000     -0.301140E-02
     43472 TIP3     6186     TIP3     OH2      OT      -0.834000       15.9994           0   0.00000       0.00000    
     43473 TIP3     6186     TIP3     H1       HT       0.417000       1.00800           0   0.00000       0.00000    
     43474 TIP3     6186     TIP3     H2       HT       0.417000       1.00800           0   0.00000     -0.301140E-02
     43475 TIP3     6187     TIP3     OH2      OT      -0.834000       15.9994           0   0.00000       0.00000    
     43476 TIP3     6187     TIP3     H1       HT       0.417000       1.00800           0   0.00000       0.00000    
     43477 TIP3     6187     TIP3     H2       HT       0.417000       1.00800           0   0.00000     -0.301140E-02
     43478 TIP3     6188     TIP3     OH2      OT      -0.834000       15.9994           0   0.00000       0.00000    
     43479 TIP3     6188     TIP3     H1       HT       0.417000       1.00800           0   0.00000       0.00000    
     43480 TIP3     6188     TIP3     H2       HT       0.417000       1.00800           0   0.00000     -0.301140E-02
     43481 TIP3     6189     TIP3     OH2      OT      -0.834000       15.9994           0   0.00000       0.00000    
     43482 TIP3     6189     TIP3     H1       HT       0.417000       1.00800           0   0.00000       0.00000    
     43483 TIP3     6189     TIP3     H2       HT       0.417000       1.00800           0   0.00000     -0.301140E-02
     43484 TIP3     6190     TIP3     OH2      OT      -0.834000       15.9994           0   0.00000       0.00000    
     43485 TIP3     6190     TIP3     H1       HT       0.417000       1.00800           0   0.00000       0.00000    
     43486 TIP3     6190     TIP3     H2       HT       0.417000       1.00800           0   0.00000     -0.301140E-02
     43487 TIP3     6191     TIP3     OH2      OT      -0.834000       15.9994           0   0.00000       0.00000    
     43488 TIP3     6191     TIP3     H1       HT       0.417000       1.00800           0   0.00000       0.00000    
     43489 TIP3     6191     TIP3     H2       HT       0.417000       1.00800           0   0.00000     -0.301140E-02
     43490 TIP3     6192     TIP3     OH2      OT      -0.834000       15.9994           0   0.00000       0.00000    
     43491 TIP3     6192     TIP3     H1       HT       0.417000       1.00800           0   0.00000       0.00000    
     43492 TIP3     6192     TIP3     H2       HT       0.417000       1.00800           0   0.00000     -0.301140E-02
     43493 TIP3     6193     TIP3     OH2      OT      -0.834000       15.9994           0   0.00000       0.00000    
     43494 TIP3     6193     TIP3     H1       HT       0.417000       1.00800           0   0.00000       0.00000    
     43495 TIP3     6193     TIP3     H2       HT       0.417000       1.00800           0   0.00000     -0.301140E-02
     43496 TIP3     6194     TIP3     OH2      OT      -0.834000       15.9994           0   0.00000       0.00000    
     43497 TIP3     6194     TIP3     H1       HT       0.417000       1.00800           0   0.00000       0.00000    
     43498 TIP3     6194     TIP3     H2       HT       0.417000       1.00800           0   0.00000     -0.301140E-02
     43499 TIP3     6195     TIP3     OH2      OT      -0.834000       15.9994           0   0.00000       0.00000    
     43500 TIP3     6195     TIP3     H1       HT       0.417000       1.00800           0   0.00000       0.00000    
     43501 TIP3     6195     TIP3     H2       HT       0.417000       1.00800           0   0.00000     -0.301140E-02
     43502 TIP3     6196     TIP3     OH2      OT      -0.834000       15.9994           0   0.00000       0.00000    
     43503 TIP3     6196     TIP3     H1       HT       0.417000       1.00800           0   0.00000       0.00000    
     43504 TIP3     6196     TIP3     H2       HT       0.417000       1.00800           0   0.00000     -0.301140E-02
     43505 TIP3     6197     TIP3     OH2      OT      -0.834000       15.9994           0   0.00000       0.00000    
     43506 TIP3     6197     TIP3     H1       HT       0.417000       1.00800           0   0.00000       0.00000    
     43507 TIP3     6197     TIP3     H2       HT       0.417000       1.00800           0   0.00000     -0.301140E-02
     43508 TIP3     6198     TIP3     OH2      OT      -0.834000       15.9994           0   0.00000       0.00000    
     43509 TIP3     6198     TIP3     H1       HT       0.417000       1.00800           0   0.00000       0.00000    
     43510 TIP3     6198     TIP3     H2       HT       0.417000       1.00800           0   0.00000     -0.301140E-02
     43511 TIP3     6199     TIP3     OH2      OT      -0.834000       15.9994           0   0.00000       0.00000    
     43512 TIP3     6199     TIP3     H1       HT       0.417000       1.00800           0   0.00000       0.00000    
     43513 TIP3     6199     TIP3     H2       HT       0.417000       1.00800           0   0.00000     -0.301140E-02
     43514 TIP3     6200     TIP3     OH2      OT      -0.834000       15.9994           0   0.00000       0.00000    
     43515 TIP3     6200     TIP3     H1       HT       0.417000       1.00800           0   0.00000       0.00000    
     43516 TIP3     6200     TIP3     H2       HT       0.417000       1.00800           0   0.00000     -0.301140E-02
     43517 TIP3     6201     TIP3     OH2      OT      -0.834000       15.9994           0   0.00000       0.00000    
     43518 TIP3     6201     TIP3     H1       HT       0.417000       1.00800           0   0.00000       0.00000    
     43519 TIP3     6201     TIP3     H2       HT       0.417000       1.00800           0   0.00000     -0.301140E-02
     43520 TIP3     6202     TIP3     OH2      OT      -0.834000       15.9994           0   0.00000       0.00000    
     43521 TIP3     6202     TIP3     H1       HT       0.417000       1.00800           0   0.00000       0.00000    
     43522 TIP3     6202     TIP3     H2       HT       0.417000       1.00800           0   0.00000     -0.301140E-02
     43523 TIP3     6203     TIP3     OH2      OT      -0.834000       15.9994           0   0.00000       0.00000    
     43524 TIP3     6203     TIP3     H1       HT       0.417000       1.00800           0   0.00000       0.00000    
     43525 TIP3     6203     TIP3     H2       HT       0.417000       1.00800           0   0.00000     -0.301140E-02
     43526 TIP3     6204     TIP3     OH2      OT      -0.834000       15.9994           0   0.00000       0.00000    
     43527 TIP3     6204     TIP3     H1       HT       0.417000       1.00800           0   0.00000       0.00000    
     43528 TIP3     6204     TIP3     H2       HT       0.417000       1.00800           0   0.00000     -0.301140E-02
     43529 TIP3     6205     TIP3     OH2      OT      -0.834000       15.9994           0   0.00000       0.00000    
     43530 TIP3     6205     TIP3     H1       HT       0.417000       1.00800           0   0.00000       0.00000    
     43531 TIP3     6205     TIP3     H2       HT       0.417000       1.00800           0   0.00000     -0.301140E-02
     43532 TIP3     6206     TIP3     OH2      OT      -0.834000       15.9994           0   0.00000       0.00000    
     43533 TIP3     6206     TIP3     H1       HT       0.417000       1.00800           0   0.00000       0.00000    
     43534 TIP3     6206     TIP3     H2       HT       0.417000       1.00800           0   0.00000     -0.301140E-02
     43535 TIP3     6207     TIP3     OH2      OT      -0.834000       15.9994           0   0.00000       0.00000    
     43536 TIP3     6207     TIP3     H1       HT       0.417000       1.00800           0   0.00000       0.00000    
     43537 TIP3     6207     TIP3     H2       HT       0.417000       1.00800           0   0.00000     -0.301140E-02
     43538 TIP3     6208     TIP3     OH2      OT      -0.834000       15.9994           0   0.00000       0.00000    
     43539 TIP3     6208     TIP3     H1       HT       0.417000       1.00800           0   0.00000       0.00000    
     43540 TIP3     6208     TIP3     H2       HT       0.417000       1.00800           0   0.00000     -0.301140E-02
     43541 TIP3     6209     TIP3     OH2      OT      -0.834000       15.9994           0   0.00000       0.00000    
     43542 TIP3     6209     TIP3     H1       HT       0.417000       1.00800           0   0.00000       0.00000    
     43543 TIP3     6209     TIP3     H2       HT       0.417000       1.00800           0   0.00000     -0.301140E-02
     43544 TIP3     6210     TIP3     OH2      OT      -0.834000       15.9994           0   0.00000       0.00000    
     43545 TIP3     6210     TIP3     H1       HT       0.417000       1.00800           0   0.00000       0.00000    
     43546 TIP3     6210     TIP3     H2       HT       0.417000       1.00800           0   0.00000     -0.301140E-02
     43547 TIP3     6211     TIP3     OH2      OT      -0.834000       15.9994           0   0.00000       0.00000    
     43548 TIP3     6211     TIP3     H1       HT       0.417000       1.00800           0   0.00000       0.00000    
     43549 TIP3     6211     TIP3     H2       HT       0.417000       1.00800           0   0.00000     -0.301140E-02
     43550 TIP3     6212     TIP3     OH2      OT      -0.834000       15.9994           0   0.00000       0.00000    
     43551 TIP3     6212     TIP3     H1       HT       0.417000       1.00800           0   0.00000       0.00000    
     43552 TIP3     6212     TIP3     H2       HT       0.417000       1.00800           0   0.00000     -0.301140E-02
     43553 TIP3     6213     TIP3     OH2      OT      -0.834000       15.9994           0   0.00000       0.00000    
     43554 TIP3     6213     TIP3     H1       HT       0.417000       1.00800           0   0.00000       0.00000    
     43555 TIP3     6213     TIP3     H2       HT       0.417000       1.00800           0   0.00000     -0.301140E-02
     43556 TIP3     6214     TIP3     OH2      OT      -0.834000       15.9994           0   0.00000       0.00000    
     43557 TIP3     6214     TIP3     H1       HT       0.417000       1.00800           0   0.00000       0.00000    
     43558 TIP3     6214     TIP3     H2       HT       0.417000       1.00800           0   0.00000     -0.301140E-02
     43559 TIP3     6215     TIP3     OH2      OT      -0.834000       15.9994           0   0.00000       0.00000    
     43560 TIP3     6215     TIP3     H1       HT       0.417000       1.00800           0   0.00000       0.00000    
     43561 TIP3     6215     TIP3     H2       HT       0.417000       1.00800           0   0.00000     -0.301140E-02
     43562 TIP3     6216     TIP3     OH2      OT      -0.834000       15.9994           0   0.00000       0.00000    
     43563 TIP3     6216     TIP3     H1       HT       0.417000       1.00800           0   0.00000       0.00000    
     43564 TIP3     6216     TIP3     H2       HT       0.417000       1.00800           0   0.00000     -0.301140E-02
     43565 TIP3     6217     TIP3     OH2      OT      -0.834000       15.9994           0   0.00000       0.00000    
     43566 TIP3     6217     TIP3     H1       HT       0.417000       1.00800           0   0.00000       0.00000    
     43567 TIP3     6217     TIP3     H2       HT       0.417000       1.00800           0   0.00000     -0.301140E-02
     43568 TIP3     6218     TIP3     OH2      OT      -0.834000       15.9994           0   0.00000       0.00000    
     43569 TIP3     6218     TIP3     H1       HT       0.417000       1.00800           0   0.00000       0.00000    
     43570 TIP3     6218     TIP3     H2       HT       0.417000       1.00800           0   0.00000     -0.301140E-02
     43571 TIP3     6219     TIP3     OH2      OT      -0.834000       15.9994           0   0.00000       0.00000    
     43572 TIP3     6219     TIP3     H1       HT       0.417000       1.00800           0   0.00000       0.00000    
     43573 TIP3     6219     TIP3     H2       HT       0.417000       1.00800           0   0.00000     -0.301140E-02
     43574 TIP3     6220     TIP3     OH2      OT      -0.834000       15.9994           0   0.00000       0.00000    
     43575 TIP3     6220     TIP3     H1       HT       0.417000       1.00800           0   0.00000       0.00000    
     43576 TIP3     6220     TIP3     H2       HT       0.417000       1.00800           0   0.00000     -0.301140E-02
     43577 TIP3     6221     TIP3     OH2      OT      -0.834000       15.9994           0   0.00000       0.00000    
     43578 TIP3     6221     TIP3     H1       HT       0.417000       1.00800           0   0.00000       0.00000    
     43579 TIP3     6221     TIP3     H2       HT       0.417000       1.00800           0   0.00000     -0.301140E-02
     43580 TIP3     6222     TIP3     OH2      OT      -0.834000       15.9994           0   0.00000       0.00000    
     43581 TIP3     6222     TIP3     H1       HT       0.417000       1.00800           0   0.00000       0.00000    
     43582 TIP3     6222     TIP3     H2       HT       0.417000       1.00800           0   0.00000     -0.301140E-02
     43583 TIP3     6223     TIP3     OH2      OT      -0.834000       15.9994           0   0.00000       0.00000    
     43584 TIP3     6223     TIP3     H1       HT       0.417000       1.00800           0   0.00000       0.00000    
     43585 TIP3     6223     TIP3     H2       HT       0.417000       1.00800           0   0.00000     -0.301140E-02
     43586 TIP3     6224     TIP3     OH2      OT      -0.834000       15.9994           0   0.00000       0.00000    
     43587 TIP3     6224     TIP3     H1       HT       0.417000       1.00800           0   0.00000       0.00000    
     43588 TIP3     6224     TIP3     H2       HT       0.417000       1.00800           0   0.00000     -0.301140E-02
     43589 TIP3     6225     TIP3     OH2      OT      -0.834000       15.9994           0   0.00000       0.00000    
     43590 TIP3     6225     TIP3     H1       HT       0.417000       1.00800           0   0.00000       0.00000    
     43591 TIP3     6225     TIP3     H2       HT       0.417000       1.00800           0   0.00000     -0.301140E-02
     43592 TIP3     6226     TIP3     OH2      OT      -0.834000       15.9994           0   0.00000       0.00000    
     43593 TIP3     6226     TIP3     H1       HT       0.417000       1.00800           0   0.00000       0.00000    
     43594 TIP3     6226     TIP3     H2       HT       0.417000       1.00800           0   0.00000     -0.301140E-02
     43595 TIP3     6227     TIP3     OH2      OT      -0.834000       15.9994           0   0.00000       0.00000    
     43596 TIP3     6227     TIP3     H1       HT       0.417000       1.00800           0   0.00000       0.00000    
     43597 TIP3     6227     TIP3     H2       HT       0.417000       1.00800           0   0.00000     -0.301140E-02
     43598 TIP3     6228     TIP3     OH2      OT      -0.834000       15.9994           0   0.00000       0.00000    
     43599 TIP3     6228     TIP3     H1       HT       0.417000       1.00800           0   0.00000       0.00000    
     43600 TIP3     6228     TIP3     H2       HT       0.417000       1.00800           0   0.00000     -0.301140E-02
     43601 TIP3     6229     TIP3     OH2      OT      -0.834000       15.9994           0   0.00000       0.00000    
     43602 TIP3     6229     TIP3     H1       HT       0.417000       1.00800           0   0.00000       0.00000    
     43603 TIP3     6229     TIP3     H2       HT       0.417000       1.00800           0   0.00000     -0.301140E-02
     43604 TIP3     6230     TIP3     OH2      OT      -0.834000       15.9994           0   0.00000       0.00000    
     43605 TIP3     6230     TIP3     H1       HT       0.417000       1.00800           0   0.00000       0.00000    
     43606 TIP3     6230     TIP3     H2       HT       0.417000       1.00800           0   0.00000     -0.301140E-02
     43607 TIP3     6231     TIP3     OH2      OT      -0.834000       15.9994           0   0.00000       0.00000    
     43608 TIP3     6231     TIP3     H1       HT       0.417000       1.00800           0   0.00000       0.00000    
     43609 TIP3     6231     TIP3     H2       HT       0.417000       1.00800           0   0.00000     -0.301140E-02
     43610 TIP3     6232     TIP3     OH2      OT      -0.834000       15.9994           0   0.00000       0.00000    
     43611 TIP3     6232     TIP3     H1       HT       0.417000       1.00800           0   0.00000       0.00000    
     43612 TIP3     6232     TIP3     H2       HT       0.417000       1.00800           0   0.00000     -0.301140E-02
     43613 TIP3     6233     TIP3     OH2      OT      -0.834000       15.9994           0   0.00000       0.00000    
     43614 TIP3     6233     TIP3     H1       HT       0.417000       1.00800           0   0.00000       0.00000    
     43615 TIP3     6233     TIP3     H2       HT       0.417000       1.00800           0   0.00000     -0.301140E-02
     43616 TIP3     6234     TIP3     OH2      OT      -0.834000       15.9994           0   0.00000       0.00000    
     43617 TIP3     6234     TIP3     H1       HT       0.417000       1.00800           0   0.00000       0.00000    
     43618 TIP3     6234     TIP3     H2       HT       0.417000       1.00800           0   0.00000     -0.301140E-02
     43619 TIP3     6235     TIP3     OH2      OT      -0.834000       15.9994           0   0.00000       0.00000    
     43620 TIP3     6235     TIP3     H1       HT       0.417000       1.00800           0   0.00000       0.00000    
     43621 TIP3     6235     TIP3     H2       HT       0.417000       1.00800           0   0.00000     -0.301140E-02
     43622 TIP3     6236     TIP3     OH2      OT      -0.834000       15.9994           0   0.00000       0.00000    
     43623 TIP3     6236     TIP3     H1       HT       0.417000       1.00800           0   0.00000       0.00000    
     43624 TIP3     6236     TIP3     H2       HT       0.417000       1.00800           0   0.00000     -0.301140E-02
     43625 TIP3     6237     TIP3     OH2      OT      -0.834000       15.9994           0   0.00000       0.00000    
     43626 TIP3     6237     TIP3     H1       HT       0.417000       1.00800           0   0.00000       0.00000    
     43627 TIP3     6237     TIP3     H2       HT       0.417000       1.00800           0   0.00000     -0.301140E-02
     43628 TIP3     6238     TIP3     OH2      OT      -0.834000       15.9994           0   0.00000       0.00000    
     43629 TIP3     6238     TIP3     H1       HT       0.417000       1.00800           0   0.00000       0.00000    
     43630 TIP3     6238     TIP3     H2       HT       0.417000       1.00800           0   0.00000     -0.301140E-02
     43631 TIP3     6239     TIP3     OH2      OT      -0.834000       15.9994           0   0.00000       0.00000    
     43632 TIP3     6239     TIP3     H1       HT       0.417000       1.00800           0   0.00000       0.00000    
     43633 TIP3     6239     TIP3     H2       HT       0.417000       1.00800           0   0.00000     -0.301140E-02
     43634 TIP3     6240     TIP3     OH2      OT      -0.834000       15.9994           0   0.00000       0.00000    
     43635 TIP3     6240     TIP3     H1       HT       0.417000       1.00800           0   0.00000       0.00000    
     43636 TIP3     6240     TIP3     H2       HT       0.417000       1.00800           0   0.00000     -0.301140E-02
     43637 TIP3     6241     TIP3     OH2      OT      -0.834000       15.9994           0   0.00000       0.00000    
     43638 TIP3     6241     TIP3     H1       HT       0.417000       1.00800           0   0.00000       0.00000    
     43639 TIP3     6241     TIP3     H2       HT       0.417000       1.00800           0   0.00000     -0.301140E-02
     43640 TIP3     6242     TIP3     OH2      OT      -0.834000       15.9994           0   0.00000       0.00000    
     43641 TIP3     6242     TIP3     H1       HT       0.417000       1.00800           0   0.00000       0.00000    
     43642 TIP3     6242     TIP3     H2       HT       0.417000       1.00800           0   0.00000     -0.301140E-02
     43643 TIP3     6243     TIP3     OH2      OT      -0.834000       15.9994           0   0.00000       0.00000    
     43644 TIP3     6243     TIP3     H1       HT       0.417000       1.00800           0   0.00000       0.00000    
     43645 TIP3     6243     TIP3     H2       HT       0.417000       1.00800           0   0.00000     -0.301140E-02
     43646 TIP3     6244     TIP3     OH2      OT      -0.834000       15.9994           0   0.00000       0.00000    
     43647 TIP3     6244     TIP3     H1       HT       0.417000       1.00800           0   0.00000       0.00000    
     43648 TIP3     6244     TIP3     H2       HT       0.417000       1.00800           0   0.00000     -0.301140E-02
     43649 TIP3     6245     TIP3     OH2      OT      -0.834000       15.9994           0   0.00000       0.00000    
     43650 TIP3     6245     TIP3     H1       HT       0.417000       1.00800           0   0.00000       0.00000    
     43651 TIP3     6245     TIP3     H2       HT       0.417000       1.00800           0   0.00000     -0.301140E-02
     43652 TIP3     6246     TIP3     OH2      OT      -0.834000       15.9994           0   0.00000       0.00000    
     43653 TIP3     6246     TIP3     H1       HT       0.417000       1.00800           0   0.00000       0.00000    
     43654 TIP3     6246     TIP3     H2       HT       0.417000       1.00800           0   0.00000     -0.301140E-02
     43655 TIP3     6247     TIP3     OH2      OT      -0.834000       15.9994           0   0.00000       0.00000    
     43656 TIP3     6247     TIP3     H1       HT       0.417000       1.00800           0   0.00000       0.00000    
     43657 TIP3     6247     TIP3     H2       HT       0.417000       1.00800           0   0.00000     -0.301140E-02
     43658 TIP3     6248     TIP3     OH2      OT      -0.834000       15.9994           0   0.00000       0.00000    
     43659 TIP3     6248     TIP3     H1       HT       0.417000       1.00800           0   0.00000       0.00000    
     43660 TIP3     6248     TIP3     H2       HT       0.417000       1.00800           0   0.00000     -0.301140E-02
     43661 TIP3     6249     TIP3     OH2      OT      -0.834000       15.9994           0   0.00000       0.00000    
     43662 TIP3     6249     TIP3     H1       HT       0.417000       1.00800           0   0.00000       0.00000    
     43663 TIP3     6249     TIP3     H2       HT       0.417000       1.00800           0   0.00000     -0.301140E-02
     43664 TIP3     6250     TIP3     OH2      OT      -0.834000       15.9994           0   0.00000       0.00000    
     43665 TIP3     6250     TIP3     H1       HT       0.417000       1.00800           0   0.00000       0.00000    
     43666 TIP3     6250     TIP3     H2       HT       0.417000       1.00800           0   0.00000     -0.301140E-02
     43667 TIP3     6251     TIP3     OH2      OT      -0.834000       15.9994           0   0.00000       0.00000    
     43668 TIP3     6251     TIP3     H1       HT       0.417000       1.00800           0   0.00000       0.00000    
     43669 TIP3     6251     TIP3     H2       HT       0.417000       1.00800           0   0.00000     -0.301140E-02
     43670 TIP3     6252     TIP3     OH2      OT      -0.834000       15.9994           0   0.00000       0.00000    
     43671 TIP3     6252     TIP3     H1       HT       0.417000       1.00800           0   0.00000       0.00000    
     43672 TIP3     6252     TIP3     H2       HT       0.417000       1.00800           0   0.00000     -0.301140E-02
     43673 TIP3     6253     TIP3     OH2      OT      -0.834000       15.9994           0   0.00000       0.00000    
     43674 TIP3     6253     TIP3     H1       HT       0.417000       1.00800           0   0.00000       0.00000    
     43675 TIP3     6253     TIP3     H2       HT       0.417000       1.00800           0   0.00000     -0.301140E-02
     43676 TIP3     6254     TIP3     OH2      OT      -0.834000       15.9994           0   0.00000       0.00000    
     43677 TIP3     6254     TIP3     H1       HT       0.417000       1.00800           0   0.00000       0.00000    
     43678 TIP3     6254     TIP3     H2       HT       0.417000       1.00800           0   0.00000     -0.301140E-02
     43679 TIP3     6255     TIP3     OH2      OT      -0.834000       15.9994           0   0.00000       0.00000    
     43680 TIP3     6255     TIP3     H1       HT       0.417000       1.00800           0   0.00000       0.00000    
     43681 TIP3     6255     TIP3     H2       HT       0.417000       1.00800           0   0.00000     -0.301140E-02
     43682 TIP3     6256     TIP3     OH2      OT      -0.834000       15.9994           0   0.00000       0.00000    
     43683 TIP3     6256     TIP3     H1       HT       0.417000       1.00800           0   0.00000       0.00000    
     43684 TIP3     6256     TIP3     H2       HT       0.417000       1.00800           0   0.00000     -0.301140E-02
     43685 TIP3     6257     TIP3     OH2      OT      -0.834000       15.9994           0   0.00000       0.00000    
     43686 TIP3     6257     TIP3     H1       HT       0.417000       1.00800           0   0.00000       0.00000    
     43687 TIP3     6257     TIP3     H2       HT       0.417000       1.00800           0   0.00000     -0.301140E-02
     43688 TIP3     6258     TIP3     OH2      OT      -0.834000       15.9994           0   0.00000       0.00000    
     43689 TIP3     6258     TIP3     H1       HT       0.417000       1.00800           0   0.00000       0.00000    
     43690 TIP3     6258     TIP3     H2       HT       0.417000       1.00800           0   0.00000     -0.301140E-02
     43691 TIP3     6259     TIP3     OH2      OT      -0.834000       15.9994           0   0.00000       0.00000    
     43692 TIP3     6259     TIP3     H1       HT       0.417000       1.00800           0   0.00000       0.00000    
     43693 TIP3     6259     TIP3     H2       HT       0.417000       1.00800           0   0.00000     -0.301140E-02
     43694 TIP3     6260     TIP3     OH2      OT      -0.834000       15.9994           0   0.00000       0.00000    
     43695 TIP3     6260     TIP3     H1       HT       0.417000       1.00800           0   0.00000       0.00000    
     43696 TIP3     6260     TIP3     H2       HT       0.417000       1.00800           0   0.00000     -0.301140E-02
     43697 TIP3     6261     TIP3     OH2      OT      -0.834000       15.9994           0   0.00000       0.00000    
     43698 TIP3     6261     TIP3     H1       HT       0.417000       1.00800           0   0.00000       0.00000    
     43699 TIP3     6261     TIP3     H2       HT       0.417000       1.00800           0   0.00000     -0.301140E-02
     43700 TIP3     6262     TIP3     OH2      OT      -0.834000       15.9994           0   0.00000       0.00000    
     43701 TIP3     6262     TIP3     H1       HT       0.417000       1.00800           0   0.00000       0.00000    
     43702 TIP3     6262     TIP3     H2       HT       0.417000       1.00800           0   0.00000     -0.301140E-02
     43703 TIP3     6263     TIP3     OH2      OT      -0.834000       15.9994           0   0.00000       0.00000    
     43704 TIP3     6263     TIP3     H1       HT       0.417000       1.00800           0   0.00000       0.00000    
     43705 TIP3     6263     TIP3     H2       HT       0.417000       1.00800           0   0.00000     -0.301140E-02
     43706 TIP3     6264     TIP3     OH2      OT      -0.834000       15.9994           0   0.00000       0.00000    
     43707 TIP3     6264     TIP3     H1       HT       0.417000       1.00800           0   0.00000       0.00000    
     43708 TIP3     6264     TIP3     H2       HT       0.417000       1.00800           0   0.00000     -0.301140E-02
     43709 TIP3     6265     TIP3     OH2      OT      -0.834000       15.9994           0   0.00000       0.00000    
     43710 TIP3     6265     TIP3     H1       HT       0.417000       1.00800           0   0.00000       0.00000    
     43711 TIP3     6265     TIP3     H2       HT       0.417000       1.00800           0   0.00000     -0.301140E-02
     43712 TIP3     6266     TIP3     OH2      OT      -0.834000       15.9994           0   0.00000       0.00000    
     43713 TIP3     6266     TIP3     H1       HT       0.417000       1.00800           0   0.00000       0.00000    
     43714 TIP3     6266     TIP3     H2       HT       0.417000       1.00800           0   0.00000     -0.301140E-02
     43715 TIP3     6267     TIP3     OH2      OT      -0.834000       15.9994           0   0.00000       0.00000    
     43716 TIP3     6267     TIP3     H1       HT       0.417000       1.00800           0   0.00000       0.00000    
     43717 TIP3     6267     TIP3     H2       HT       0.417000       1.00800           0   0.00000     -0.301140E-02
     43718 TIP3     6268     TIP3     OH2      OT      -0.834000       15.9994           0   0.00000       0.00000    
     43719 TIP3     6268     TIP3     H1       HT       0.417000       1.00800           0   0.00000       0.00000    
     43720 TIP3     6268     TIP3     H2       HT       0.417000       1.00800           0   0.00000     -0.301140E-02
     43721 TIP3     6269     TIP3     OH2      OT      -0.834000       15.9994           0   0.00000       0.00000    
     43722 TIP3     6269     TIP3     H1       HT       0.417000       1.00800           0   0.00000       0.00000    
     43723 TIP3     6269     TIP3     H2       HT       0.417000       1.00800           0   0.00000     -0.301140E-02
     43724 TIP3     6270     TIP3     OH2      OT      -0.834000       15.9994           0   0.00000       0.00000    
     43725 TIP3     6270     TIP3     H1       HT       0.417000       1.00800           0   0.00000       0.00000    
     43726 TIP3     6270     TIP3     H2       HT       0.417000       1.00800           0   0.00000     -0.301140E-02
     43727 TIP3     6271     TIP3     OH2      OT      -0.834000       15.9994           0   0.00000       0.00000    
     43728 TIP3     6271     TIP3     H1       HT       0.417000       1.00800           0   0.00000       0.00000    
     43729 TIP3     6271     TIP3     H2       HT       0.417000       1.00800           0   0.00000     -0.301140E-02
     43730 TIP3     6272     TIP3     OH2      OT      -0.834000       15.9994           0   0.00000       0.00000    
     43731 TIP3     6272     TIP3     H1       HT       0.417000       1.00800           0   0.00000       0.00000    
     43732 TIP3     6272     TIP3     H2       HT       0.417000       1.00800           0   0.00000     -0.301140E-02
     43733 TIP3     6273     TIP3     OH2      OT      -0.834000       15.9994           0   0.00000       0.00000    
     43734 TIP3     6273     TIP3     H1       HT       0.417000       1.00800           0   0.00000       0.00000    
     43735 TIP3     6273     TIP3     H2       HT       0.417000       1.00800           0   0.00000     -0.301140E-02
     43736 TIP3     6274     TIP3     OH2      OT      -0.834000       15.9994           0   0.00000       0.00000    
     43737 TIP3     6274     TIP3     H1       HT       0.417000       1.00800           0   0.00000       0.00000    
     43738 TIP3     6274     TIP3     H2       HT       0.417000       1.00800           0   0.00000     -0.301140E-02
     43739 TIP3     6275     TIP3     OH2      OT      -0.834000       15.9994           0   0.00000       0.00000    
     43740 TIP3     6275     TIP3     H1       HT       0.417000       1.00800           0   0.00000       0.00000    
     43741 TIP3     6275     TIP3     H2       HT       0.417000       1.00800           0   0.00000     -0.301140E-02
     43742 TIP3     6276     TIP3     OH2      OT      -0.834000       15.9994           0   0.00000       0.00000    
     43743 TIP3     6276     TIP3     H1       HT       0.417000       1.00800           0   0.00000       0.00000    
     43744 TIP3     6276     TIP3     H2       HT       0.417000       1.00800           0   0.00000     -0.301140E-02
     43745 TIP3     6277     TIP3     OH2      OT      -0.834000       15.9994           0   0.00000       0.00000    
     43746 TIP3     6277     TIP3     H1       HT       0.417000       1.00800           0   0.00000       0.00000    
     43747 TIP3     6277     TIP3     H2       HT       0.417000       1.00800           0   0.00000     -0.301140E-02
     43748 TIP3     6278     TIP3     OH2      OT      -0.834000       15.9994           0   0.00000       0.00000    
     43749 TIP3     6278     TIP3     H1       HT       0.417000       1.00800           0   0.00000       0.00000    
     43750 TIP3     6278     TIP3     H2       HT       0.417000       1.00800           0   0.00000     -0.301140E-02
     43751 TIP3     6279     TIP3     OH2      OT      -0.834000       15.9994           0   0.00000       0.00000    
     43752 TIP3     6279     TIP3     H1       HT       0.417000       1.00800           0   0.00000       0.00000    
     43753 TIP3     6279     TIP3     H2       HT       0.417000       1.00800           0   0.00000     -0.301140E-02
     43754 TIP3     6280     TIP3     OH2      OT      -0.834000       15.9994           0   0.00000       0.00000    
     43755 TIP3     6280     TIP3     H1       HT       0.417000       1.00800           0   0.00000       0.00000    
     43756 TIP3     6280     TIP3     H2       HT       0.417000       1.00800           0   0.00000     -0.301140E-02
     43757 TIP3     6281     TIP3     OH2      OT      -0.834000       15.9994           0   0.00000       0.00000    
     43758 TIP3     6281     TIP3     H1       HT       0.417000       1.00800           0   0.00000       0.00000    
     43759 TIP3     6281     TIP3     H2       HT       0.417000       1.00800           0   0.00000     -0.301140E-02
     43760 TIP3     6282     TIP3     OH2      OT      -0.834000       15.9994           0   0.00000       0.00000    
     43761 TIP3     6282     TIP3     H1       HT       0.417000       1.00800           0   0.00000       0.00000    
     43762 TIP3     6282     TIP3     H2       HT       0.417000       1.00800           0   0.00000     -0.301140E-02
     43763 TIP3     6283     TIP3     OH2      OT      -0.834000       15.9994           0   0.00000       0.00000    
     43764 TIP3     6283     TIP3     H1       HT       0.417000       1.00800           0   0.00000       0.00000    
     43765 TIP3     6283     TIP3     H2       HT       0.417000       1.00800           0   0.00000     -0.301140E-02
     43766 TIP3     6284     TIP3     OH2      OT      -0.834000       15.9994           0   0.00000       0.00000    
     43767 TIP3     6284     TIP3     H1       HT       0.417000       1.00800           0   0.00000       0.00000    
     43768 TIP3     6284     TIP3     H2       HT       0.417000       1.00800           0   0.00000     -0.301140E-02
     43769 TIP3     6285     TIP3     OH2      OT      -0.834000       15.9994           0   0.00000       0.00000    
     43770 TIP3     6285     TIP3     H1       HT       0.417000       1.00800           0   0.00000       0.00000    
     43771 TIP3     6285     TIP3     H2       HT       0.417000       1.00800           0   0.00000     -0.301140E-02
     43772 TIP3     6286     TIP3     OH2      OT      -0.834000       15.9994           0   0.00000       0.00000    
     43773 TIP3     6286     TIP3     H1       HT       0.417000       1.00800           0   0.00000       0.00000    
     43774 TIP3     6286     TIP3     H2       HT       0.417000       1.00800           0   0.00000     -0.301140E-02
     43775 TIP3     6287     TIP3     OH2      OT      -0.834000       15.9994           0   0.00000       0.00000    
     43776 TIP3     6287     TIP3     H1       HT       0.417000       1.00800           0   0.00000       0.00000    
     43777 TIP3     6287     TIP3     H2       HT       0.417000       1.00800           0   0.00000     -0.301140E-02
     43778 TIP3     6288     TIP3     OH2      OT      -0.834000       15.9994           0   0.00000       0.00000    
     43779 TIP3     6288     TIP3     H1       HT       0.417000       1.00800           0   0.00000       0.00000    
     43780 TIP3     6288     TIP3     H2       HT       0.417000       1.00800           0   0.00000     -0.301140E-02
     43781 TIP3     6289     TIP3     OH2      OT      -0.834000       15.9994           0   0.00000       0.00000    
     43782 TIP3     6289     TIP3     H1       HT       0.417000       1.00800           0   0.00000       0.00000    
     43783 TIP3     6289     TIP3     H2       HT       0.417000       1.00800           0   0.00000     -0.301140E-02
     43784 TIP3     6290     TIP3     OH2      OT      -0.834000       15.9994           0   0.00000       0.00000    
     43785 TIP3     6290     TIP3     H1       HT       0.417000       1.00800           0   0.00000       0.00000    
     43786 TIP3     6290     TIP3     H2       HT       0.417000       1.00800           0   0.00000     -0.301140E-02
     43787 TIP3     6291     TIP3     OH2      OT      -0.834000       15.9994           0   0.00000       0.00000    
     43788 TIP3     6291     TIP3     H1       HT       0.417000       1.00800           0   0.00000       0.00000    
     43789 TIP3     6291     TIP3     H2       HT       0.417000       1.00800           0   0.00000     -0.301140E-02
     43790 TIP3     6292     TIP3     OH2      OT      -0.834000       15.9994           0   0.00000       0.00000    
     43791 TIP3     6292     TIP3     H1       HT       0.417000       1.00800           0   0.00000       0.00000    
     43792 TIP3     6292     TIP3     H2       HT       0.417000       1.00800           0   0.00000     -0.301140E-02
     43793 TIP3     6293     TIP3     OH2      OT      -0.834000       15.9994           0   0.00000       0.00000    
     43794 TIP3     6293     TIP3     H1       HT       0.417000       1.00800           0   0.00000       0.00000    
     43795 TIP3     6293     TIP3     H2       HT       0.417000       1.00800           0   0.00000     -0.301140E-02
     43796 TIP3     6294     TIP3     OH2      OT      -0.834000       15.9994           0   0.00000       0.00000    
     43797 TIP3     6294     TIP3     H1       HT       0.417000       1.00800           0   0.00000       0.00000    
     43798 TIP3     6294     TIP3     H2       HT       0.417000       1.00800           0   0.00000     -0.301140E-02
     43799 TIP3     6295     TIP3     OH2      OT      -0.834000       15.9994           0   0.00000       0.00000    
     43800 TIP3     6295     TIP3     H1       HT       0.417000       1.00800           0   0.00000       0.00000    
     43801 TIP3     6295     TIP3     H2       HT       0.417000       1.00800           0   0.00000     -0.301140E-02
     43802 TIP3     6296     TIP3     OH2      OT      -0.834000       15.9994           0   0.00000       0.00000    
     43803 TIP3     6296     TIP3     H1       HT       0.417000       1.00800           0   0.00000       0.00000    
     43804 TIP3     6296     TIP3     H2       HT       0.417000       1.00800           0   0.00000     -0.301140E-02
     43805 TIP3     6297     TIP3     OH2      OT      -0.834000       15.9994           0   0.00000       0.00000    
     43806 TIP3     6297     TIP3     H1       HT       0.417000       1.00800           0   0.00000       0.00000    
     43807 TIP3     6297     TIP3     H2       HT       0.417000       1.00800           0   0.00000     -0.301140E-02
     43808 TIP3     6298     TIP3     OH2      OT      -0.834000       15.9994           0   0.00000       0.00000    
     43809 TIP3     6298     TIP3     H1       HT       0.417000       1.00800           0   0.00000       0.00000    
     43810 TIP3     6298     TIP3     H2       HT       0.417000       1.00800           0   0.00000     -0.301140E-02
     43811 TIP3     6299     TIP3     OH2      OT      -0.834000       15.9994           0   0.00000       0.00000    
     43812 TIP3     6299     TIP3     H1       HT       0.417000       1.00800           0   0.00000       0.00000    
     43813 TIP3     6299     TIP3     H2       HT       0.417000       1.00800           0   0.00000     -0.301140E-02
     43814 TIP3     6300     TIP3     OH2      OT      -0.834000       15.9994           0   0.00000       0.00000    
     43815 TIP3     6300     TIP3     H1       HT       0.417000       1.00800           0   0.00000       0.00000    
     43816 TIP3     6300     TIP3     H2       HT       0.417000       1.00800           0   0.00000     -0.301140E-02
     43817 TIP3     6301     TIP3     OH2      OT      -0.834000       15.9994           0   0.00000       0.00000    
     43818 TIP3     6301     TIP3     H1       HT       0.417000       1.00800           0   0.00000       0.00000    
     43819 TIP3     6301     TIP3     H2       HT       0.417000       1.00800           0   0.00000     -0.301140E-02
     43820 TIP3     6302     TIP3     OH2      OT      -0.834000       15.9994           0   0.00000       0.00000    
     43821 TIP3     6302     TIP3     H1       HT       0.417000       1.00800           0   0.00000       0.00000    
     43822 TIP3     6302     TIP3     H2       HT       0.417000       1.00800           0   0.00000     -0.301140E-02
     43823 TIP3     6303     TIP3     OH2      OT      -0.834000       15.9994           0   0.00000       0.00000    
     43824 TIP3     6303     TIP3     H1       HT       0.417000       1.00800           0   0.00000       0.00000    
     43825 TIP3     6303     TIP3     H2       HT       0.417000       1.00800           0   0.00000     -0.301140E-02
     43826 TIP3     6304     TIP3     OH2      OT      -0.834000       15.9994           0   0.00000       0.00000    
     43827 TIP3     6304     TIP3     H1       HT       0.417000       1.00800           0   0.00000       0.00000    
     43828 TIP3     6304     TIP3     H2       HT       0.417000       1.00800           0   0.00000     -0.301140E-02
     43829 TIP3     6305     TIP3     OH2      OT      -0.834000       15.9994           0   0.00000       0.00000    
     43830 TIP3     6305     TIP3     H1       HT       0.417000       1.00800           0   0.00000       0.00000    
     43831 TIP3     6305     TIP3     H2       HT       0.417000       1.00800           0   0.00000     -0.301140E-02
     43832 TIP3     6306     TIP3     OH2      OT      -0.834000       15.9994           0   0.00000       0.00000    
     43833 TIP3     6306     TIP3     H1       HT       0.417000       1.00800           0   0.00000       0.00000    
     43834 TIP3     6306     TIP3     H2       HT       0.417000       1.00800           0   0.00000     -0.301140E-02
     43835 TIP3     6307     TIP3     OH2      OT      -0.834000       15.9994           0   0.00000       0.00000    
     43836 TIP3     6307     TIP3     H1       HT       0.417000       1.00800           0   0.00000       0.00000    
     43837 TIP3     6307     TIP3     H2       HT       0.417000       1.00800           0   0.00000     -0.301140E-02
     43838 TIP3     6308     TIP3     OH2      OT      -0.834000       15.9994           0   0.00000       0.00000    
     43839 TIP3     6308     TIP3     H1       HT       0.417000       1.00800           0   0.00000       0.00000    
     43840 TIP3     6308     TIP3     H2       HT       0.417000       1.00800           0   0.00000     -0.301140E-02
     43841 TIP3     6309     TIP3     OH2      OT      -0.834000       15.9994           0   0.00000       0.00000    
     43842 TIP3     6309     TIP3     H1       HT       0.417000       1.00800           0   0.00000       0.00000    
     43843 TIP3     6309     TIP3     H2       HT       0.417000       1.00800           0   0.00000     -0.301140E-02
     43844 TIP3     6310     TIP3     OH2      OT      -0.834000       15.9994           0   0.00000       0.00000    
     43845 TIP3     6310     TIP3     H1       HT       0.417000       1.00800           0   0.00000       0.00000    
     43846 TIP3     6310     TIP3     H2       HT       0.417000       1.00800           0   0.00000     -0.301140E-02
     43847 TIP3     6311     TIP3     OH2      OT      -0.834000       15.9994           0   0.00000       0.00000    
     43848 TIP3     6311     TIP3     H1       HT       0.417000       1.00800           0   0.00000       0.00000    
     43849 TIP3     6311     TIP3     H2       HT       0.417000       1.00800           0   0.00000     -0.301140E-02
     43850 TIP3     6312     TIP3     OH2      OT      -0.834000       15.9994           0   0.00000       0.00000    
     43851 TIP3     6312     TIP3     H1       HT       0.417000       1.00800           0   0.00000       0.00000    
     43852 TIP3     6312     TIP3     H2       HT       0.417000       1.00800           0   0.00000     -0.301140E-02
     43853 TIP3     6313     TIP3     OH2      OT      -0.834000       15.9994           0   0.00000       0.00000    
     43854 TIP3     6313     TIP3     H1       HT       0.417000       1.00800           0   0.00000       0.00000    
     43855 TIP3     6313     TIP3     H2       HT       0.417000       1.00800           0   0.00000     -0.301140E-02
     43856 TIP3     6314     TIP3     OH2      OT      -0.834000       15.9994           0   0.00000       0.00000    
     43857 TIP3     6314     TIP3     H1       HT       0.417000       1.00800           0   0.00000       0.00000    
     43858 TIP3     6314     TIP3     H2       HT       0.417000       1.00800           0   0.00000     -0.301140E-02
     43859 TIP3     6315     TIP3     OH2      OT      -0.834000       15.9994           0   0.00000       0.00000    
     43860 TIP3     6315     TIP3     H1       HT       0.417000       1.00800           0   0.00000       0.00000    
     43861 TIP3     6315     TIP3     H2       HT       0.417000       1.00800           0   0.00000     -0.301140E-02
     43862 TIP3     6316     TIP3     OH2      OT      -0.834000       15.9994           0   0.00000       0.00000    
     43863 TIP3     6316     TIP3     H1       HT       0.417000       1.00800           0   0.00000       0.00000    
     43864 TIP3     6316     TIP3     H2       HT       0.417000       1.00800           0   0.00000     -0.301140E-02
     43865 TIP3     6317     TIP3     OH2      OT      -0.834000       15.9994           0   0.00000       0.00000    
     43866 TIP3     6317     TIP3     H1       HT       0.417000       1.00800           0   0.00000       0.00000    
     43867 TIP3     6317     TIP3     H2       HT       0.417000       1.00800           0   0.00000     -0.301140E-02
     43868 TIP3     6318     TIP3     OH2      OT      -0.834000       15.9994           0   0.00000       0.00000    
     43869 TIP3     6318     TIP3     H1       HT       0.417000       1.00800           0   0.00000       0.00000    
     43870 TIP3     6318     TIP3     H2       HT       0.417000       1.00800           0   0.00000     -0.301140E-02
     43871 TIP3     6319     TIP3     OH2      OT      -0.834000       15.9994           0   0.00000       0.00000    
     43872 TIP3     6319     TIP3     H1       HT       0.417000       1.00800           0   0.00000       0.00000    
     43873 TIP3     6319     TIP3     H2       HT       0.417000       1.00800           0   0.00000     -0.301140E-02
     43874 TIP3     6320     TIP3     OH2      OT      -0.834000       15.9994           0   0.00000       0.00000    
     43875 TIP3     6320     TIP3     H1       HT       0.417000       1.00800           0   0.00000       0.00000    
     43876 TIP3     6320     TIP3     H2       HT       0.417000       1.00800           0   0.00000     -0.301140E-02
     43877 TIP3     6321     TIP3     OH2      OT      -0.834000       15.9994           0   0.00000       0.00000    
     43878 TIP3     6321     TIP3     H1       HT       0.417000       1.00800           0   0.00000       0.00000    
     43879 TIP3     6321     TIP3     H2       HT       0.417000       1.00800           0   0.00000     -0.301140E-02
     43880 TIP3     6322     TIP3     OH2      OT      -0.834000       15.9994           0   0.00000       0.00000    
     43881 TIP3     6322     TIP3     H1       HT       0.417000       1.00800           0   0.00000       0.00000    
     43882 TIP3     6322     TIP3     H2       HT       0.417000       1.00800           0   0.00000     -0.301140E-02
     43883 TIP3     6323     TIP3     OH2      OT      -0.834000       15.9994           0   0.00000       0.00000    
     43884 TIP3     6323     TIP3     H1       HT       0.417000       1.00800           0   0.00000       0.00000    
     43885 TIP3     6323     TIP3     H2       HT       0.417000       1.00800           0   0.00000     -0.301140E-02
     43886 TIP3     6324     TIP3     OH2      OT      -0.834000       15.9994           0   0.00000       0.00000    
     43887 TIP3     6324     TIP3     H1       HT       0.417000       1.00800           0   0.00000       0.00000    
     43888 TIP3     6324     TIP3     H2       HT       0.417000       1.00800           0   0.00000     -0.301140E-02
     43889 TIP3     6325     TIP3     OH2      OT      -0.834000       15.9994           0   0.00000       0.00000    
     43890 TIP3     6325     TIP3     H1       HT       0.417000       1.00800           0   0.00000       0.00000    
     43891 TIP3     6325     TIP3     H2       HT       0.417000       1.00800           0   0.00000     -0.301140E-02
     43892 TIP3     6326     TIP3     OH2      OT      -0.834000       15.9994           0   0.00000       0.00000    
     43893 TIP3     6326     TIP3     H1       HT       0.417000       1.00800           0   0.00000       0.00000    
     43894 TIP3     6326     TIP3     H2       HT       0.417000       1.00800           0   0.00000     -0.301140E-02
     43895 TIP3     6327     TIP3     OH2      OT      -0.834000       15.9994           0   0.00000       0.00000    
     43896 TIP3     6327     TIP3     H1       HT       0.417000       1.00800           0   0.00000       0.00000    
     43897 TIP3     6327     TIP3     H2       HT       0.417000       1.00800           0   0.00000     -0.301140E-02
     43898 TIP3     6328     TIP3     OH2      OT      -0.834000       15.9994           0   0.00000       0.00000    
     43899 TIP3     6328     TIP3     H1       HT       0.417000       1.00800           0   0.00000       0.00000    
     43900 TIP3     6328     TIP3     H2       HT       0.417000       1.00800           0   0.00000     -0.301140E-02
     43901 TIP3     6329     TIP3     OH2      OT      -0.834000       15.9994           0   0.00000       0.00000    
     43902 TIP3     6329     TIP3     H1       HT       0.417000       1.00800           0   0.00000       0.00000    
     43903 TIP3     6329     TIP3     H2       HT       0.417000       1.00800           0   0.00000     -0.301140E-02
     43904 TIP3     6330     TIP3     OH2      OT      -0.834000       15.9994           0   0.00000       0.00000    
     43905 TIP3     6330     TIP3     H1       HT       0.417000       1.00800           0   0.00000       0.00000    
     43906 TIP3     6330     TIP3     H2       HT       0.417000       1.00800           0   0.00000     -0.301140E-02
     43907 TIP3     6331     TIP3     OH2      OT      -0.834000       15.9994           0   0.00000       0.00000    
     43908 TIP3     6331     TIP3     H1       HT       0.417000       1.00800           0   0.00000       0.00000    
     43909 TIP3     6331     TIP3     H2       HT       0.417000       1.00800           0   0.00000     -0.301140E-02
     43910 TIP3     6332     TIP3     OH2      OT      -0.834000       15.9994           0   0.00000       0.00000    
     43911 TIP3     6332     TIP3     H1       HT       0.417000       1.00800           0   0.00000       0.00000    
     43912 TIP3     6332     TIP3     H2       HT       0.417000       1.00800           0   0.00000     -0.301140E-02
     43913 TIP3     6333     TIP3     OH2      OT      -0.834000       15.9994           0   0.00000       0.00000    
     43914 TIP3     6333     TIP3     H1       HT       0.417000       1.00800           0   0.00000       0.00000    
     43915 TIP3     6333     TIP3     H2       HT       0.417000       1.00800           0   0.00000     -0.301140E-02
     43916 TIP3     6334     TIP3     OH2      OT      -0.834000       15.9994           0   0.00000       0.00000    
     43917 TIP3     6334     TIP3     H1       HT       0.417000       1.00800           0   0.00000       0.00000    
     43918 TIP3     6334     TIP3     H2       HT       0.417000       1.00800           0   0.00000     -0.301140E-02
     43919 TIP3     6335     TIP3     OH2      OT      -0.834000       15.9994           0   0.00000       0.00000    
     43920 TIP3     6335     TIP3     H1       HT       0.417000       1.00800           0   0.00000       0.00000    
     43921 TIP3     6335     TIP3     H2       HT       0.417000       1.00800           0   0.00000     -0.301140E-02
     43922 TIP3     6336     TIP3     OH2      OT      -0.834000       15.9994           0   0.00000       0.00000    
     43923 TIP3     6336     TIP3     H1       HT       0.417000       1.00800           0   0.00000       0.00000    
     43924 TIP3     6336     TIP3     H2       HT       0.417000       1.00800           0   0.00000     -0.301140E-02
     43925 TIP3     6337     TIP3     OH2      OT      -0.834000       15.9994           0   0.00000       0.00000    
     43926 TIP3     6337     TIP3     H1       HT       0.417000       1.00800           0   0.00000       0.00000    
     43927 TIP3     6337     TIP3     H2       HT       0.417000       1.00800           0   0.00000     -0.301140E-02
     43928 TIP3     6338     TIP3     OH2      OT      -0.834000       15.9994           0   0.00000       0.00000    
     43929 TIP3     6338     TIP3     H1       HT       0.417000       1.00800           0   0.00000       0.00000    
     43930 TIP3     6338     TIP3     H2       HT       0.417000       1.00800           0   0.00000     -0.301140E-02
     43931 TIP3     6339     TIP3     OH2      OT      -0.834000       15.9994           0   0.00000       0.00000    
     43932 TIP3     6339     TIP3     H1       HT       0.417000       1.00800           0   0.00000       0.00000    
     43933 TIP3     6339     TIP3     H2       HT       0.417000       1.00800           0   0.00000     -0.301140E-02
     43934 TIP3     6340     TIP3     OH2      OT      -0.834000       15.9994           0   0.00000       0.00000    
     43935 TIP3     6340     TIP3     H1       HT       0.417000       1.00800           0   0.00000       0.00000    
     43936 TIP3     6340     TIP3     H2       HT       0.417000       1.00800           0   0.00000     -0.301140E-02
     43937 TIP3     6341     TIP3     OH2      OT      -0.834000       15.9994           0   0.00000       0.00000    
     43938 TIP3     6341     TIP3     H1       HT       0.417000       1.00800           0   0.00000       0.00000    
     43939 TIP3     6341     TIP3     H2       HT       0.417000       1.00800           0   0.00000     -0.301140E-02
     43940 TIP3     6342     TIP3     OH2      OT      -0.834000       15.9994           0   0.00000       0.00000    
     43941 TIP3     6342     TIP3     H1       HT       0.417000       1.00800           0   0.00000       0.00000    
     43942 TIP3     6342     TIP3     H2       HT       0.417000       1.00800           0   0.00000     -0.301140E-02
     43943 TIP3     6343     TIP3     OH2      OT      -0.834000       15.9994           0   0.00000       0.00000    
     43944 TIP3     6343     TIP3     H1       HT       0.417000       1.00800           0   0.00000       0.00000    
     43945 TIP3     6343     TIP3     H2       HT       0.417000       1.00800           0   0.00000     -0.301140E-02
     43946 TIP3     6344     TIP3     OH2      OT      -0.834000       15.9994           0   0.00000       0.00000    
     43947 TIP3     6344     TIP3     H1       HT       0.417000       1.00800           0   0.00000       0.00000    
     43948 TIP3     6344     TIP3     H2       HT       0.417000       1.00800           0   0.00000     -0.301140E-02
     43949 TIP3     6345     TIP3     OH2      OT      -0.834000       15.9994           0   0.00000       0.00000    
     43950 TIP3     6345     TIP3     H1       HT       0.417000       1.00800           0   0.00000       0.00000    
     43951 TIP3     6345     TIP3     H2       HT       0.417000       1.00800           0   0.00000     -0.301140E-02
     43952 TIP3     6346     TIP3     OH2      OT      -0.834000       15.9994           0   0.00000       0.00000    
     43953 TIP3     6346     TIP3     H1       HT       0.417000       1.00800           0   0.00000       0.00000    
     43954 TIP3     6346     TIP3     H2       HT       0.417000       1.00800           0   0.00000     -0.301140E-02
     43955 TIP3     6347     TIP3     OH2      OT      -0.834000       15.9994           0   0.00000       0.00000    
     43956 TIP3     6347     TIP3     H1       HT       0.417000       1.00800           0   0.00000       0.00000    
     43957 TIP3     6347     TIP3     H2       HT       0.417000       1.00800           0   0.00000     -0.301140E-02
     43958 TIP3     6348     TIP3     OH2      OT      -0.834000       15.9994           0   0.00000       0.00000    
     43959 TIP3     6348     TIP3     H1       HT       0.417000       1.00800           0   0.00000       0.00000    
     43960 TIP3     6348     TIP3     H2       HT       0.417000       1.00800           0   0.00000     -0.301140E-02
     43961 TIP3     6349     TIP3     OH2      OT      -0.834000       15.9994           0   0.00000       0.00000    
     43962 TIP3     6349     TIP3     H1       HT       0.417000       1.00800           0   0.00000       0.00000    
     43963 TIP3     6349     TIP3     H2       HT       0.417000       1.00800           0   0.00000     -0.301140E-02
     43964 TIP3     6350     TIP3     OH2      OT      -0.834000       15.9994           0   0.00000       0.00000    
     43965 TIP3     6350     TIP3     H1       HT       0.417000       1.00800           0   0.00000       0.00000    
     43966 TIP3     6350     TIP3     H2       HT       0.417000       1.00800           0   0.00000     -0.301140E-02
     43967 TIP3     6351     TIP3     OH2      OT      -0.834000       15.9994           0   0.00000       0.00000    
     43968 TIP3     6351     TIP3     H1       HT       0.417000       1.00800           0   0.00000       0.00000    
     43969 TIP3     6351     TIP3     H2       HT       0.417000       1.00800           0   0.00000     -0.301140E-02
     43970 TIP3     6352     TIP3     OH2      OT      -0.834000       15.9994           0   0.00000       0.00000    
     43971 TIP3     6352     TIP3     H1       HT       0.417000       1.00800           0   0.00000       0.00000    
     43972 TIP3     6352     TIP3     H2       HT       0.417000       1.00800           0   0.00000     -0.301140E-02
     43973 TIP3     6353     TIP3     OH2      OT      -0.834000       15.9994           0   0.00000       0.00000    
     43974 TIP3     6353     TIP3     H1       HT       0.417000       1.00800           0   0.00000       0.00000    
     43975 TIP3     6353     TIP3     H2       HT       0.417000       1.00800           0   0.00000     -0.301140E-02
     43976 TIP3     6354     TIP3     OH2      OT      -0.834000       15.9994           0   0.00000       0.00000    
     43977 TIP3     6354     TIP3     H1       HT       0.417000       1.00800           0   0.00000       0.00000    
     43978 TIP3     6354     TIP3     H2       HT       0.417000       1.00800           0   0.00000     -0.301140E-02
     43979 TIP3     6355     TIP3     OH2      OT      -0.834000       15.9994           0   0.00000       0.00000    
     43980 TIP3     6355     TIP3     H1       HT       0.417000       1.00800           0   0.00000       0.00000    
     43981 TIP3     6355     TIP3     H2       HT       0.417000       1.00800           0   0.00000     -0.301140E-02
     43982 TIP3     6356     TIP3     OH2      OT      -0.834000       15.9994           0   0.00000       0.00000    
     43983 TIP3     6356     TIP3     H1       HT       0.417000       1.00800           0   0.00000       0.00000    
     43984 TIP3     6356     TIP3     H2       HT       0.417000       1.00800           0   0.00000     -0.301140E-02
     43985 TIP3     6357     TIP3     OH2      OT      -0.834000       15.9994           0   0.00000       0.00000    
     43986 TIP3     6357     TIP3     H1       HT       0.417000       1.00800           0   0.00000       0.00000    
     43987 TIP3     6357     TIP3     H2       HT       0.417000       1.00800           0   0.00000     -0.301140E-02
     43988 TIP3     6358     TIP3     OH2      OT      -0.834000       15.9994           0   0.00000       0.00000    
     43989 TIP3     6358     TIP3     H1       HT       0.417000       1.00800           0   0.00000       0.00000    
     43990 TIP3     6358     TIP3     H2       HT       0.417000       1.00800           0   0.00000     -0.301140E-02
     43991 TIP3     6359     TIP3     OH2      OT      -0.834000       15.9994           0   0.00000       0.00000    
     43992 TIP3     6359     TIP3     H1       HT       0.417000       1.00800           0   0.00000       0.00000    
     43993 TIP3     6359     TIP3     H2       HT       0.417000       1.00800           0   0.00000     -0.301140E-02
     43994 TIP3     6360     TIP3     OH2      OT      -0.834000       15.9994           0   0.00000       0.00000    
     43995 TIP3     6360     TIP3     H1       HT       0.417000       1.00800           0   0.00000       0.00000    
     43996 TIP3     6360     TIP3     H2       HT       0.417000       1.00800           0   0.00000     -0.301140E-02
     43997 TIP3     6361     TIP3     OH2      OT      -0.834000       15.9994           0   0.00000       0.00000    
     43998 TIP3     6361     TIP3     H1       HT       0.417000       1.00800           0   0.00000       0.00000    
     43999 TIP3     6361     TIP3     H2       HT       0.417000       1.00800           0   0.00000     -0.301140E-02
     44000 TIP3     6362     TIP3     OH2      OT      -0.834000       15.9994           0   0.00000       0.00000    
     44001 TIP3     6362     TIP3     H1       HT       0.417000       1.00800           0   0.00000       0.00000    
     44002 TIP3     6362     TIP3     H2       HT       0.417000       1.00800           0   0.00000     -0.301140E-02
     44003 TIP3     6363     TIP3     OH2      OT      -0.834000       15.9994           0   0.00000       0.00000    
     44004 TIP3     6363     TIP3     H1       HT       0.417000       1.00800           0   0.00000       0.00000    
     44005 TIP3     6363     TIP3     H2       HT       0.417000       1.00800           0   0.00000     -0.301140E-02
     44006 TIP3     6364     TIP3     OH2      OT      -0.834000       15.9994           0   0.00000       0.00000    
     44007 TIP3     6364     TIP3     H1       HT       0.417000       1.00800           0   0.00000       0.00000    
     44008 TIP3     6364     TIP3     H2       HT       0.417000       1.00800           0   0.00000     -0.301140E-02
     44009 TIP3     6365     TIP3     OH2      OT      -0.834000       15.9994           0   0.00000       0.00000    
     44010 TIP3     6365     TIP3     H1       HT       0.417000       1.00800           0   0.00000       0.00000    
     44011 TIP3     6365     TIP3     H2       HT       0.417000       1.00800           0   0.00000     -0.301140E-02
     44012 TIP3     6366     TIP3     OH2      OT      -0.834000       15.9994           0   0.00000       0.00000    
     44013 TIP3     6366     TIP3     H1       HT       0.417000       1.00800           0   0.00000       0.00000    
     44014 TIP3     6366     TIP3     H2       HT       0.417000       1.00800           0   0.00000     -0.301140E-02
     44015 TIP3     6367     TIP3     OH2      OT      -0.834000       15.9994           0   0.00000       0.00000    
     44016 TIP3     6367     TIP3     H1       HT       0.417000       1.00800           0   0.00000       0.00000    
     44017 TIP3     6367     TIP3     H2       HT       0.417000       1.00800           0   0.00000     -0.301140E-02
     44018 TIP3     6368     TIP3     OH2      OT      -0.834000       15.9994           0   0.00000       0.00000    
     44019 TIP3     6368     TIP3     H1       HT       0.417000       1.00800           0   0.00000       0.00000    
     44020 TIP3     6368     TIP3     H2       HT       0.417000       1.00800           0   0.00000     -0.301140E-02
     44021 TIP3     6369     TIP3     OH2      OT      -0.834000       15.9994           0   0.00000       0.00000    
     44022 TIP3     6369     TIP3     H1       HT       0.417000       1.00800           0   0.00000       0.00000    
     44023 TIP3     6369     TIP3     H2       HT       0.417000       1.00800           0   0.00000     -0.301140E-02
     44024 TIP3     6370     TIP3     OH2      OT      -0.834000       15.9994           0   0.00000       0.00000    
     44025 TIP3     6370     TIP3     H1       HT       0.417000       1.00800           0   0.00000       0.00000    
     44026 TIP3     6370     TIP3     H2       HT       0.417000       1.00800           0   0.00000     -0.301140E-02
     44027 TIP3     6371     TIP3     OH2      OT      -0.834000       15.9994           0   0.00000       0.00000    
     44028 TIP3     6371     TIP3     H1       HT       0.417000       1.00800           0   0.00000       0.00000    
     44029 TIP3     6371     TIP3     H2       HT       0.417000       1.00800           0   0.00000     -0.301140E-02
     44030 TIP3     6372     TIP3     OH2      OT      -0.834000       15.9994           0   0.00000       0.00000    
     44031 TIP3     6372     TIP3     H1       HT       0.417000       1.00800           0   0.00000       0.00000    
     44032 TIP3     6372     TIP3     H2       HT       0.417000       1.00800           0   0.00000     -0.301140E-02
     44033 TIP3     6373     TIP3     OH2      OT      -0.834000       15.9994           0   0.00000       0.00000    
     44034 TIP3     6373     TIP3     H1       HT       0.417000       1.00800           0   0.00000       0.00000    
     44035 TIP3     6373     TIP3     H2       HT       0.417000       1.00800           0   0.00000     -0.301140E-02
     44036 TIP3     6374     TIP3     OH2      OT      -0.834000       15.9994           0   0.00000       0.00000    
     44037 TIP3     6374     TIP3     H1       HT       0.417000       1.00800           0   0.00000       0.00000    
     44038 TIP3     6374     TIP3     H2       HT       0.417000       1.00800           0   0.00000     -0.301140E-02
     44039 TIP3     6375     TIP3     OH2      OT      -0.834000       15.9994           0   0.00000       0.00000    
     44040 TIP3     6375     TIP3     H1       HT       0.417000       1.00800           0   0.00000       0.00000    
     44041 TIP3     6375     TIP3     H2       HT       0.417000       1.00800           0   0.00000     -0.301140E-02
     44042 TIP3     6376     TIP3     OH2      OT      -0.834000       15.9994           0   0.00000       0.00000    
     44043 TIP3     6376     TIP3     H1       HT       0.417000       1.00800           0   0.00000       0.00000    
     44044 TIP3     6376     TIP3     H2       HT       0.417000       1.00800           0   0.00000     -0.301140E-02
     44045 TIP3     6377     TIP3     OH2      OT      -0.834000       15.9994           0   0.00000       0.00000    
     44046 TIP3     6377     TIP3     H1       HT       0.417000       1.00800           0   0.00000       0.00000    
     44047 TIP3     6377     TIP3     H2       HT       0.417000       1.00800           0   0.00000     -0.301140E-02
     44048 TIP3     6378     TIP3     OH2      OT      -0.834000       15.9994           0   0.00000       0.00000    
     44049 TIP3     6378     TIP3     H1       HT       0.417000       1.00800           0   0.00000       0.00000    
     44050 TIP3     6378     TIP3     H2       HT       0.417000       1.00800           0   0.00000     -0.301140E-02
     44051 TIP3     6379     TIP3     OH2      OT      -0.834000       15.9994           0   0.00000       0.00000    
     44052 TIP3     6379     TIP3     H1       HT       0.417000       1.00800           0   0.00000       0.00000    
     44053 TIP3     6379     TIP3     H2       HT       0.417000       1.00800           0   0.00000     -0.301140E-02
     44054 TIP3     6380     TIP3     OH2      OT      -0.834000       15.9994           0   0.00000       0.00000    
     44055 TIP3     6380     TIP3     H1       HT       0.417000       1.00800           0   0.00000       0.00000    
     44056 TIP3     6380     TIP3     H2       HT       0.417000       1.00800           0   0.00000     -0.301140E-02
     44057 TIP3     6381     TIP3     OH2      OT      -0.834000       15.9994           0   0.00000       0.00000    
     44058 TIP3     6381     TIP3     H1       HT       0.417000       1.00800           0   0.00000       0.00000    
     44059 TIP3     6381     TIP3     H2       HT       0.417000       1.00800           0   0.00000     -0.301140E-02
     44060 TIP3     6382     TIP3     OH2      OT      -0.834000       15.9994           0   0.00000       0.00000    
     44061 TIP3     6382     TIP3     H1       HT       0.417000       1.00800           0   0.00000       0.00000    
     44062 TIP3     6382     TIP3     H2       HT       0.417000       1.00800           0   0.00000     -0.301140E-02
     44063 TIP3     6383     TIP3     OH2      OT      -0.834000       15.9994           0   0.00000       0.00000    
     44064 TIP3     6383     TIP3     H1       HT       0.417000       1.00800           0   0.00000       0.00000    
     44065 TIP3     6383     TIP3     H2       HT       0.417000       1.00800           0   0.00000     -0.301140E-02
     44066 TIP3     6384     TIP3     OH2      OT      -0.834000       15.9994           0   0.00000       0.00000    
     44067 TIP3     6384     TIP3     H1       HT       0.417000       1.00800           0   0.00000       0.00000    
     44068 TIP3     6384     TIP3     H2       HT       0.417000       1.00800           0   0.00000     -0.301140E-02
     44069 TIP3     6385     TIP3     OH2      OT      -0.834000       15.9994           0   0.00000       0.00000    
     44070 TIP3     6385     TIP3     H1       HT       0.417000       1.00800           0   0.00000       0.00000    
     44071 TIP3     6385     TIP3     H2       HT       0.417000       1.00800           0   0.00000     -0.301140E-02
     44072 TIP3     6386     TIP3     OH2      OT      -0.834000       15.9994           0   0.00000       0.00000    
     44073 TIP3     6386     TIP3     H1       HT       0.417000       1.00800           0   0.00000       0.00000    
     44074 TIP3     6386     TIP3     H2       HT       0.417000       1.00800           0   0.00000     -0.301140E-02
     44075 TIP3     6387     TIP3     OH2      OT      -0.834000       15.9994           0   0.00000       0.00000    
     44076 TIP3     6387     TIP3     H1       HT       0.417000       1.00800           0   0.00000       0.00000    
     44077 TIP3     6387     TIP3     H2       HT       0.417000       1.00800           0   0.00000     -0.301140E-02
     44078 TIP3     6388     TIP3     OH2      OT      -0.834000       15.9994           0   0.00000       0.00000    
     44079 TIP3     6388     TIP3     H1       HT       0.417000       1.00800           0   0.00000       0.00000    
     44080 TIP3     6388     TIP3     H2       HT       0.417000       1.00800           0   0.00000     -0.301140E-02
     44081 TIP3     6389     TIP3     OH2      OT      -0.834000       15.9994           0   0.00000       0.00000    
     44082 TIP3     6389     TIP3     H1       HT       0.417000       1.00800           0   0.00000       0.00000    
     44083 TIP3     6389     TIP3     H2       HT       0.417000       1.00800           0   0.00000     -0.301140E-02
     44084 TIP3     6390     TIP3     OH2      OT      -0.834000       15.9994           0   0.00000       0.00000    
     44085 TIP3     6390     TIP3     H1       HT       0.417000       1.00800           0   0.00000       0.00000    
     44086 TIP3     6390     TIP3     H2       HT       0.417000       1.00800           0   0.00000     -0.301140E-02
     44087 TIP3     6391     TIP3     OH2      OT      -0.834000       15.9994           0   0.00000       0.00000    
     44088 TIP3     6391     TIP3     H1       HT       0.417000       1.00800           0   0.00000       0.00000    
     44089 TIP3     6391     TIP3     H2       HT       0.417000       1.00800           0   0.00000     -0.301140E-02
     44090 TIP3     6392     TIP3     OH2      OT      -0.834000       15.9994           0   0.00000       0.00000    
     44091 TIP3     6392     TIP3     H1       HT       0.417000       1.00800           0   0.00000       0.00000    
     44092 TIP3     6392     TIP3     H2       HT       0.417000       1.00800           0   0.00000     -0.301140E-02
     44093 TIP3     6393     TIP3     OH2      OT      -0.834000       15.9994           0   0.00000       0.00000    
     44094 TIP3     6393     TIP3     H1       HT       0.417000       1.00800           0   0.00000       0.00000    
     44095 TIP3     6393     TIP3     H2       HT       0.417000       1.00800           0   0.00000     -0.301140E-02
     44096 TIP3     6394     TIP3     OH2      OT      -0.834000       15.9994           0   0.00000       0.00000    
     44097 TIP3     6394     TIP3     H1       HT       0.417000       1.00800           0   0.00000       0.00000    
     44098 TIP3     6394     TIP3     H2       HT       0.417000       1.00800           0   0.00000     -0.301140E-02
     44099 TIP3     6395     TIP3     OH2      OT      -0.834000       15.9994           0   0.00000       0.00000    
     44100 TIP3     6395     TIP3     H1       HT       0.417000       1.00800           0   0.00000       0.00000    
     44101 TIP3     6395     TIP3     H2       HT       0.417000       1.00800           0   0.00000     -0.301140E-02
     44102 TIP3     6396     TIP3     OH2      OT      -0.834000       15.9994           0   0.00000       0.00000    
     44103 TIP3     6396     TIP3     H1       HT       0.417000       1.00800           0   0.00000       0.00000    
     44104 TIP3     6396     TIP3     H2       HT       0.417000       1.00800           0   0.00000     -0.301140E-02
     44105 TIP3     6397     TIP3     OH2      OT      -0.834000       15.9994           0   0.00000       0.00000    
     44106 TIP3     6397     TIP3     H1       HT       0.417000       1.00800           0   0.00000       0.00000    
     44107 TIP3     6397     TIP3     H2       HT       0.417000       1.00800           0   0.00000     -0.301140E-02
     44108 TIP3     6398     TIP3     OH2      OT      -0.834000       15.9994           0   0.00000       0.00000    
     44109 TIP3     6398     TIP3     H1       HT       0.417000       1.00800           0   0.00000       0.00000    
     44110 TIP3     6398     TIP3     H2       HT       0.417000       1.00800           0   0.00000     -0.301140E-02
     44111 TIP3     6399     TIP3     OH2      OT      -0.834000       15.9994           0   0.00000       0.00000    
     44112 TIP3     6399     TIP3     H1       HT       0.417000       1.00800           0   0.00000       0.00000    
     44113 TIP3     6399     TIP3     H2       HT       0.417000       1.00800           0   0.00000     -0.301140E-02
     44114 TIP3     6400     TIP3     OH2      OT      -0.834000       15.9994           0   0.00000       0.00000    
     44115 TIP3     6400     TIP3     H1       HT       0.417000       1.00800           0   0.00000       0.00000    
     44116 TIP3     6400     TIP3     H2       HT       0.417000       1.00800           0   0.00000     -0.301140E-02
     44117 TIP3     6401     TIP3     OH2      OT      -0.834000       15.9994           0   0.00000       0.00000    
     44118 TIP3     6401     TIP3     H1       HT       0.417000       1.00800           0   0.00000       0.00000    
     44119 TIP3     6401     TIP3     H2       HT       0.417000       1.00800           0   0.00000     -0.301140E-02
     44120 TIP3     6402     TIP3     OH2      OT      -0.834000       15.9994           0   0.00000       0.00000    
     44121 TIP3     6402     TIP3     H1       HT       0.417000       1.00800           0   0.00000       0.00000    
     44122 TIP3     6402     TIP3     H2       HT       0.417000       1.00800           0   0.00000     -0.301140E-02
     44123 TIP3     6403     TIP3     OH2      OT      -0.834000       15.9994           0   0.00000       0.00000    
     44124 TIP3     6403     TIP3     H1       HT       0.417000       1.00800           0   0.00000       0.00000    
     44125 TIP3     6403     TIP3     H2       HT       0.417000       1.00800           0   0.00000     -0.301140E-02
     44126 TIP3     6404     TIP3     OH2      OT      -0.834000       15.9994           0   0.00000       0.00000    
     44127 TIP3     6404     TIP3     H1       HT       0.417000       1.00800           0   0.00000       0.00000    
     44128 TIP3     6404     TIP3     H2       HT       0.417000       1.00800           0   0.00000     -0.301140E-02
     44129 TIP3     6405     TIP3     OH2      OT      -0.834000       15.9994           0   0.00000       0.00000    
     44130 TIP3     6405     TIP3     H1       HT       0.417000       1.00800           0   0.00000       0.00000    
     44131 TIP3     6405     TIP3     H2       HT       0.417000       1.00800           0   0.00000     -0.301140E-02
     44132 TIP3     6406     TIP3     OH2      OT      -0.834000       15.9994           0   0.00000       0.00000    
     44133 TIP3     6406     TIP3     H1       HT       0.417000       1.00800           0   0.00000       0.00000    
     44134 TIP3     6406     TIP3     H2       HT       0.417000       1.00800           0   0.00000     -0.301140E-02
     44135 TIP3     6407     TIP3     OH2      OT      -0.834000       15.9994           0   0.00000       0.00000    
     44136 TIP3     6407     TIP3     H1       HT       0.417000       1.00800           0   0.00000       0.00000    
     44137 TIP3     6407     TIP3     H2       HT       0.417000       1.00800           0   0.00000     -0.301140E-02
     44138 TIP3     6408     TIP3     OH2      OT      -0.834000       15.9994           0   0.00000       0.00000    
     44139 TIP3     6408     TIP3     H1       HT       0.417000       1.00800           0   0.00000       0.00000    
     44140 TIP3     6408     TIP3     H2       HT       0.417000       1.00800           0   0.00000     -0.301140E-02
     44141 TIP3     6409     TIP3     OH2      OT      -0.834000       15.9994           0   0.00000       0.00000    
     44142 TIP3     6409     TIP3     H1       HT       0.417000       1.00800           0   0.00000       0.00000    
     44143 TIP3     6409     TIP3     H2       HT       0.417000       1.00800           0   0.00000     -0.301140E-02
     44144 TIP3     6410     TIP3     OH2      OT      -0.834000       15.9994           0   0.00000       0.00000    
     44145 TIP3     6410     TIP3     H1       HT       0.417000       1.00800           0   0.00000       0.00000    
     44146 TIP3     6410     TIP3     H2       HT       0.417000       1.00800           0   0.00000     -0.301140E-02
     44147 TIP3     6411     TIP3     OH2      OT      -0.834000       15.9994           0   0.00000       0.00000    
     44148 TIP3     6411     TIP3     H1       HT       0.417000       1.00800           0   0.00000       0.00000    
     44149 TIP3     6411     TIP3     H2       HT       0.417000       1.00800           0   0.00000     -0.301140E-02
     44150 TIP3     6412     TIP3     OH2      OT      -0.834000       15.9994           0   0.00000       0.00000    
     44151 TIP3     6412     TIP3     H1       HT       0.417000       1.00800           0   0.00000       0.00000    
     44152 TIP3     6412     TIP3     H2       HT       0.417000       1.00800           0   0.00000     -0.301140E-02
     44153 TIP3     6413     TIP3     OH2      OT      -0.834000       15.9994           0   0.00000       0.00000    
     44154 TIP3     6413     TIP3     H1       HT       0.417000       1.00800           0   0.00000       0.00000    
     44155 TIP3     6413     TIP3     H2       HT       0.417000       1.00800           0   0.00000     -0.301140E-02
     44156 TIP3     6414     TIP3     OH2      OT      -0.834000       15.9994           0   0.00000       0.00000    
     44157 TIP3     6414     TIP3     H1       HT       0.417000       1.00800           0   0.00000       0.00000    
     44158 TIP3     6414     TIP3     H2       HT       0.417000       1.00800           0   0.00000     -0.301140E-02
     44159 TIP3     6415     TIP3     OH2      OT      -0.834000       15.9994           0   0.00000       0.00000    
     44160 TIP3     6415     TIP3     H1       HT       0.417000       1.00800           0   0.00000       0.00000    
     44161 TIP3     6415     TIP3     H2       HT       0.417000       1.00800           0   0.00000     -0.301140E-02
     44162 TIP3     6416     TIP3     OH2      OT      -0.834000       15.9994           0   0.00000       0.00000    
     44163 TIP3     6416     TIP3     H1       HT       0.417000       1.00800           0   0.00000       0.00000    
     44164 TIP3     6416     TIP3     H2       HT       0.417000       1.00800           0   0.00000     -0.301140E-02
     44165 TIP3     6417     TIP3     OH2      OT      -0.834000       15.9994           0   0.00000       0.00000    
     44166 TIP3     6417     TIP3     H1       HT       0.417000       1.00800           0   0.00000       0.00000    
     44167 TIP3     6417     TIP3     H2       HT       0.417000       1.00800           0   0.00000     -0.301140E-02
     44168 TIP3     6418     TIP3     OH2      OT      -0.834000       15.9994           0   0.00000       0.00000    
     44169 TIP3     6418     TIP3     H1       HT       0.417000       1.00800           0   0.00000       0.00000    
     44170 TIP3     6418     TIP3     H2       HT       0.417000       1.00800           0   0.00000     -0.301140E-02
     44171 TIP3     6419     TIP3     OH2      OT      -0.834000       15.9994           0   0.00000       0.00000    
     44172 TIP3     6419     TIP3     H1       HT       0.417000       1.00800           0   0.00000       0.00000    
     44173 TIP3     6419     TIP3     H2       HT       0.417000       1.00800           0   0.00000     -0.301140E-02
     44174 TIP3     6420     TIP3     OH2      OT      -0.834000       15.9994           0   0.00000       0.00000    
     44175 TIP3     6420     TIP3     H1       HT       0.417000       1.00800           0   0.00000       0.00000    
     44176 TIP3     6420     TIP3     H2       HT       0.417000       1.00800           0   0.00000     -0.301140E-02
     44177 TIP3     6421     TIP3     OH2      OT      -0.834000       15.9994           0   0.00000       0.00000    
     44178 TIP3     6421     TIP3     H1       HT       0.417000       1.00800           0   0.00000       0.00000    
     44179 TIP3     6421     TIP3     H2       HT       0.417000       1.00800           0   0.00000     -0.301140E-02
     44180 TIP3     6422     TIP3     OH2      OT      -0.834000       15.9994           0   0.00000       0.00000    
     44181 TIP3     6422     TIP3     H1       HT       0.417000       1.00800           0   0.00000       0.00000    
     44182 TIP3     6422     TIP3     H2       HT       0.417000       1.00800           0   0.00000     -0.301140E-02
     44183 TIP3     6423     TIP3     OH2      OT      -0.834000       15.9994           0   0.00000       0.00000    
     44184 TIP3     6423     TIP3     H1       HT       0.417000       1.00800           0   0.00000       0.00000    
     44185 TIP3     6423     TIP3     H2       HT       0.417000       1.00800           0   0.00000     -0.301140E-02
     44186 TIP3     6424     TIP3     OH2      OT      -0.834000       15.9994           0   0.00000       0.00000    
     44187 TIP3     6424     TIP3     H1       HT       0.417000       1.00800           0   0.00000       0.00000    
     44188 TIP3     6424     TIP3     H2       HT       0.417000       1.00800           0   0.00000     -0.301140E-02
     44189 TIP3     6425     TIP3     OH2      OT      -0.834000       15.9994           0   0.00000       0.00000    
     44190 TIP3     6425     TIP3     H1       HT       0.417000       1.00800           0   0.00000       0.00000    
     44191 TIP3     6425     TIP3     H2       HT       0.417000       1.00800           0   0.00000     -0.301140E-02
     44192 TIP3     6426     TIP3     OH2      OT      -0.834000       15.9994           0   0.00000       0.00000    
     44193 TIP3     6426     TIP3     H1       HT       0.417000       1.00800           0   0.00000       0.00000    
     44194 TIP3     6426     TIP3     H2       HT       0.417000       1.00800           0   0.00000     -0.301140E-02
     44195 TIP3     6427     TIP3     OH2      OT      -0.834000       15.9994           0   0.00000       0.00000    
     44196 TIP3     6427     TIP3     H1       HT       0.417000       1.00800           0   0.00000       0.00000    
     44197 TIP3     6427     TIP3     H2       HT       0.417000       1.00800           0   0.00000     -0.301140E-02
     44198 TIP3     6428     TIP3     OH2      OT      -0.834000       15.9994           0   0.00000       0.00000    
     44199 TIP3     6428     TIP3     H1       HT       0.417000       1.00800           0   0.00000       0.00000    
     44200 TIP3     6428     TIP3     H2       HT       0.417000       1.00800           0   0.00000     -0.301140E-02
     44201 TIP3     6429     TIP3     OH2      OT      -0.834000       15.9994           0   0.00000       0.00000    
     44202 TIP3     6429     TIP3     H1       HT       0.417000       1.00800           0   0.00000       0.00000    
     44203 TIP3     6429     TIP3     H2       HT       0.417000       1.00800           0   0.00000     -0.301140E-02
     44204 TIP3     6430     TIP3     OH2      OT      -0.834000       15.9994           0   0.00000       0.00000    
     44205 TIP3     6430     TIP3     H1       HT       0.417000       1.00800           0   0.00000       0.00000    
     44206 TIP3     6430     TIP3     H2       HT       0.417000       1.00800           0   0.00000     -0.301140E-02
     44207 TIP3     6431     TIP3     OH2      OT      -0.834000       15.9994           0   0.00000       0.00000    
     44208 TIP3     6431     TIP3     H1       HT       0.417000       1.00800           0   0.00000       0.00000    
     44209 TIP3     6431     TIP3     H2       HT       0.417000       1.00800           0   0.00000     -0.301140E-02
     44210 TIP3     6432     TIP3     OH2      OT      -0.834000       15.9994           0   0.00000       0.00000    
     44211 TIP3     6432     TIP3     H1       HT       0.417000       1.00800           0   0.00000       0.00000    
     44212 TIP3     6432     TIP3     H2       HT       0.417000       1.00800           0   0.00000     -0.301140E-02
     44213 TIP3     6433     TIP3     OH2      OT      -0.834000       15.9994           0   0.00000       0.00000    
     44214 TIP3     6433     TIP3     H1       HT       0.417000       1.00800           0   0.00000       0.00000    
     44215 TIP3     6433     TIP3     H2       HT       0.417000       1.00800           0   0.00000     -0.301140E-02
     44216 TIP3     6434     TIP3     OH2      OT      -0.834000       15.9994           0   0.00000       0.00000    
     44217 TIP3     6434     TIP3     H1       HT       0.417000       1.00800           0   0.00000       0.00000    
     44218 TIP3     6434     TIP3     H2       HT       0.417000       1.00800           0   0.00000     -0.301140E-02
     44219 TIP3     6435     TIP3     OH2      OT      -0.834000       15.9994           0   0.00000       0.00000    
     44220 TIP3     6435     TIP3     H1       HT       0.417000       1.00800           0   0.00000       0.00000    
     44221 TIP3     6435     TIP3     H2       HT       0.417000       1.00800           0   0.00000     -0.301140E-02
     44222 TIP3     6436     TIP3     OH2      OT      -0.834000       15.9994           0   0.00000       0.00000    
     44223 TIP3     6436     TIP3     H1       HT       0.417000       1.00800           0   0.00000       0.00000    
     44224 TIP3     6436     TIP3     H2       HT       0.417000       1.00800           0   0.00000     -0.301140E-02
     44225 TIP3     6437     TIP3     OH2      OT      -0.834000       15.9994           0   0.00000       0.00000    
     44226 TIP3     6437     TIP3     H1       HT       0.417000       1.00800           0   0.00000       0.00000    
     44227 TIP3     6437     TIP3     H2       HT       0.417000       1.00800           0   0.00000     -0.301140E-02
     44228 TIP3     6438     TIP3     OH2      OT      -0.834000       15.9994           0   0.00000       0.00000    
     44229 TIP3     6438     TIP3     H1       HT       0.417000       1.00800           0   0.00000       0.00000    
     44230 TIP3     6438     TIP3     H2       HT       0.417000       1.00800           0   0.00000     -0.301140E-02
     44231 TIP3     6439     TIP3     OH2      OT      -0.834000       15.9994           0   0.00000       0.00000    
     44232 TIP3     6439     TIP3     H1       HT       0.417000       1.00800           0   0.00000       0.00000    
     44233 TIP3     6439     TIP3     H2       HT       0.417000       1.00800           0   0.00000     -0.301140E-02
     44234 TIP3     6440     TIP3     OH2      OT      -0.834000       15.9994           0   0.00000       0.00000    
     44235 TIP3     6440     TIP3     H1       HT       0.417000       1.00800           0   0.00000       0.00000    
     44236 TIP3     6440     TIP3     H2       HT       0.417000       1.00800           0   0.00000     -0.301140E-02
     44237 TIP3     6441     TIP3     OH2      OT      -0.834000       15.9994           0   0.00000       0.00000    
     44238 TIP3     6441     TIP3     H1       HT       0.417000       1.00800           0   0.00000       0.00000    
     44239 TIP3     6441     TIP3     H2       HT       0.417000       1.00800           0   0.00000     -0.301140E-02
     44240 TIP3     6442     TIP3     OH2      OT      -0.834000       15.9994           0   0.00000       0.00000    
     44241 TIP3     6442     TIP3     H1       HT       0.417000       1.00800           0   0.00000       0.00000    
     44242 TIP3     6442     TIP3     H2       HT       0.417000       1.00800           0   0.00000     -0.301140E-02
     44243 TIP3     6443     TIP3     OH2      OT      -0.834000       15.9994           0   0.00000       0.00000    
     44244 TIP3     6443     TIP3     H1       HT       0.417000       1.00800           0   0.00000       0.00000    
     44245 TIP3     6443     TIP3     H2       HT       0.417000       1.00800           0   0.00000     -0.301140E-02
     44246 TIP3     6444     TIP3     OH2      OT      -0.834000       15.9994           0   0.00000       0.00000    
     44247 TIP3     6444     TIP3     H1       HT       0.417000       1.00800           0   0.00000       0.00000    
     44248 TIP3     6444     TIP3     H2       HT       0.417000       1.00800           0   0.00000     -0.301140E-02
     44249 TIP3     6445     TIP3     OH2      OT      -0.834000       15.9994           0   0.00000       0.00000    
     44250 TIP3     6445     TIP3     H1       HT       0.417000       1.00800           0   0.00000       0.00000    
     44251 TIP3     6445     TIP3     H2       HT       0.417000       1.00800           0   0.00000     -0.301140E-02
     44252 TIP3     6446     TIP3     OH2      OT      -0.834000       15.9994           0   0.00000       0.00000    
     44253 TIP3     6446     TIP3     H1       HT       0.417000       1.00800           0   0.00000       0.00000    
     44254 TIP3     6446     TIP3     H2       HT       0.417000       1.00800           0   0.00000     -0.301140E-02
     44255 TIP3     6447     TIP3     OH2      OT      -0.834000       15.9994           0   0.00000       0.00000    
     44256 TIP3     6447     TIP3     H1       HT       0.417000       1.00800           0   0.00000       0.00000    
     44257 TIP3     6447     TIP3     H2       HT       0.417000       1.00800           0   0.00000     -0.301140E-02
     44258 TIP3     6448     TIP3     OH2      OT      -0.834000       15.9994           0   0.00000       0.00000    
     44259 TIP3     6448     TIP3     H1       HT       0.417000       1.00800           0   0.00000       0.00000    
     44260 TIP3     6448     TIP3     H2       HT       0.417000       1.00800           0   0.00000     -0.301140E-02
     44261 TIP3     6449     TIP3     OH2      OT      -0.834000       15.9994           0   0.00000       0.00000    
     44262 TIP3     6449     TIP3     H1       HT       0.417000       1.00800           0   0.00000       0.00000    
     44263 TIP3     6449     TIP3     H2       HT       0.417000       1.00800           0   0.00000     -0.301140E-02
     44264 TIP3     6450     TIP3     OH2      OT      -0.834000       15.9994           0   0.00000       0.00000    
     44265 TIP3     6450     TIP3     H1       HT       0.417000       1.00800           0   0.00000       0.00000    
     44266 TIP3     6450     TIP3     H2       HT       0.417000       1.00800           0   0.00000     -0.301140E-02
     44267 TIP3     6451     TIP3     OH2      OT      -0.834000       15.9994           0   0.00000       0.00000    
     44268 TIP3     6451     TIP3     H1       HT       0.417000       1.00800           0   0.00000       0.00000    
     44269 TIP3     6451     TIP3     H2       HT       0.417000       1.00800           0   0.00000     -0.301140E-02
     44270 TIP3     6452     TIP3     OH2      OT      -0.834000       15.9994           0   0.00000       0.00000    
     44271 TIP3     6452     TIP3     H1       HT       0.417000       1.00800           0   0.00000       0.00000    
     44272 TIP3     6452     TIP3     H2       HT       0.417000       1.00800           0   0.00000     -0.301140E-02
     44273 TIP3     6453     TIP3     OH2      OT      -0.834000       15.9994           0   0.00000       0.00000    
     44274 TIP3     6453     TIP3     H1       HT       0.417000       1.00800           0   0.00000       0.00000    
     44275 TIP3     6453     TIP3     H2       HT       0.417000       1.00800           0   0.00000     -0.301140E-02
     44276 TIP3     6454     TIP3     OH2      OT      -0.834000       15.9994           0   0.00000       0.00000    
     44277 TIP3     6454     TIP3     H1       HT       0.417000       1.00800           0   0.00000       0.00000    
     44278 TIP3     6454     TIP3     H2       HT       0.417000       1.00800           0   0.00000     -0.301140E-02
     44279 TIP3     6455     TIP3     OH2      OT      -0.834000       15.9994           0   0.00000       0.00000    
     44280 TIP3     6455     TIP3     H1       HT       0.417000       1.00800           0   0.00000       0.00000    
     44281 TIP3     6455     TIP3     H2       HT       0.417000       1.00800           0   0.00000     -0.301140E-02
     44282 TIP3     6456     TIP3     OH2      OT      -0.834000       15.9994           0   0.00000       0.00000    
     44283 TIP3     6456     TIP3     H1       HT       0.417000       1.00800           0   0.00000       0.00000    
     44284 TIP3     6456     TIP3     H2       HT       0.417000       1.00800           0   0.00000     -0.301140E-02
     44285 TIP3     6457     TIP3     OH2      OT      -0.834000       15.9994           0   0.00000       0.00000    
     44286 TIP3     6457     TIP3     H1       HT       0.417000       1.00800           0   0.00000       0.00000    
     44287 TIP3     6457     TIP3     H2       HT       0.417000       1.00800           0   0.00000     -0.301140E-02
     44288 TIP3     6458     TIP3     OH2      OT      -0.834000       15.9994           0   0.00000       0.00000    
     44289 TIP3     6458     TIP3     H1       HT       0.417000       1.00800           0   0.00000       0.00000    
     44290 TIP3     6458     TIP3     H2       HT       0.417000       1.00800           0   0.00000     -0.301140E-02
     44291 TIP3     6459     TIP3     OH2      OT      -0.834000       15.9994           0   0.00000       0.00000    
     44292 TIP3     6459     TIP3     H1       HT       0.417000       1.00800           0   0.00000       0.00000    
     44293 TIP3     6459     TIP3     H2       HT       0.417000       1.00800           0   0.00000     -0.301140E-02
     44294 TIP3     6460     TIP3     OH2      OT      -0.834000       15.9994           0   0.00000       0.00000    
     44295 TIP3     6460     TIP3     H1       HT       0.417000       1.00800           0   0.00000       0.00000    
     44296 TIP3     6460     TIP3     H2       HT       0.417000       1.00800           0   0.00000     -0.301140E-02
     44297 TIP3     6461     TIP3     OH2      OT      -0.834000       15.9994           0   0.00000       0.00000    
     44298 TIP3     6461     TIP3     H1       HT       0.417000       1.00800           0   0.00000       0.00000    
     44299 TIP3     6461     TIP3     H2       HT       0.417000       1.00800           0   0.00000     -0.301140E-02
     44300 TIP3     6462     TIP3     OH2      OT      -0.834000       15.9994           0   0.00000       0.00000    
     44301 TIP3     6462     TIP3     H1       HT       0.417000       1.00800           0   0.00000       0.00000    
     44302 TIP3     6462     TIP3     H2       HT       0.417000       1.00800           0   0.00000     -0.301140E-02
     44303 TIP3     6463     TIP3     OH2      OT      -0.834000       15.9994           0   0.00000       0.00000    
     44304 TIP3     6463     TIP3     H1       HT       0.417000       1.00800           0   0.00000       0.00000    
     44305 TIP3     6463     TIP3     H2       HT       0.417000       1.00800           0   0.00000     -0.301140E-02
     44306 TIP3     6464     TIP3     OH2      OT      -0.834000       15.9994           0   0.00000       0.00000    
     44307 TIP3     6464     TIP3     H1       HT       0.417000       1.00800           0   0.00000       0.00000    
     44308 TIP3     6464     TIP3     H2       HT       0.417000       1.00800           0   0.00000     -0.301140E-02
     44309 TIP3     6465     TIP3     OH2      OT      -0.834000       15.9994           0   0.00000       0.00000    
     44310 TIP3     6465     TIP3     H1       HT       0.417000       1.00800           0   0.00000       0.00000    
     44311 TIP3     6465     TIP3     H2       HT       0.417000       1.00800           0   0.00000     -0.301140E-02
     44312 TIP3     6466     TIP3     OH2      OT      -0.834000       15.9994           0   0.00000       0.00000    
     44313 TIP3     6466     TIP3     H1       HT       0.417000       1.00800           0   0.00000       0.00000    
     44314 TIP3     6466     TIP3     H2       HT       0.417000       1.00800           0   0.00000     -0.301140E-02
     44315 TIP3     6467     TIP3     OH2      OT      -0.834000       15.9994           0   0.00000       0.00000    
     44316 TIP3     6467     TIP3     H1       HT       0.417000       1.00800           0   0.00000       0.00000    
     44317 TIP3     6467     TIP3     H2       HT       0.417000       1.00800           0   0.00000     -0.301140E-02
     44318 TIP3     6468     TIP3     OH2      OT      -0.834000       15.9994           0   0.00000       0.00000    
     44319 TIP3     6468     TIP3     H1       HT       0.417000       1.00800           0   0.00000       0.00000    
     44320 TIP3     6468     TIP3     H2       HT       0.417000       1.00800           0   0.00000     -0.301140E-02
     44321 TIP3     6469     TIP3     OH2      OT      -0.834000       15.9994           0   0.00000       0.00000    
     44322 TIP3     6469     TIP3     H1       HT       0.417000       1.00800           0   0.00000       0.00000    
     44323 TIP3     6469     TIP3     H2       HT       0.417000       1.00800           0   0.00000     -0.301140E-02
     44324 TIP3     6470     TIP3     OH2      OT      -0.834000       15.9994           0   0.00000       0.00000    
     44325 TIP3     6470     TIP3     H1       HT       0.417000       1.00800           0   0.00000       0.00000    
     44326 TIP3     6470     TIP3     H2       HT       0.417000       1.00800           0   0.00000     -0.301140E-02
     44327 TIP3     6471     TIP3     OH2      OT      -0.834000       15.9994           0   0.00000       0.00000    
     44328 TIP3     6471     TIP3     H1       HT       0.417000       1.00800           0   0.00000       0.00000    
     44329 TIP3     6471     TIP3     H2       HT       0.417000       1.00800           0   0.00000     -0.301140E-02
     44330 TIP3     6472     TIP3     OH2      OT      -0.834000       15.9994           0   0.00000       0.00000    
     44331 TIP3     6472     TIP3     H1       HT       0.417000       1.00800           0   0.00000       0.00000    
     44332 TIP3     6472     TIP3     H2       HT       0.417000       1.00800           0   0.00000     -0.301140E-02
     44333 TIP3     6473     TIP3     OH2      OT      -0.834000       15.9994           0   0.00000       0.00000    
     44334 TIP3     6473     TIP3     H1       HT       0.417000       1.00800           0   0.00000       0.00000    
     44335 TIP3     6473     TIP3     H2       HT       0.417000       1.00800           0   0.00000     -0.301140E-02
     44336 TIP3     6474     TIP3     OH2      OT      -0.834000       15.9994           0   0.00000       0.00000    
     44337 TIP3     6474     TIP3     H1       HT       0.417000       1.00800           0   0.00000       0.00000    
     44338 TIP3     6474     TIP3     H2       HT       0.417000       1.00800           0   0.00000     -0.301140E-02
     44339 TIP3     6475     TIP3     OH2      OT      -0.834000       15.9994           0   0.00000       0.00000    
     44340 TIP3     6475     TIP3     H1       HT       0.417000       1.00800           0   0.00000       0.00000    
     44341 TIP3     6475     TIP3     H2       HT       0.417000       1.00800           0   0.00000     -0.301140E-02
     44342 TIP3     6476     TIP3     OH2      OT      -0.834000       15.9994           0   0.00000       0.00000    
     44343 TIP3     6476     TIP3     H1       HT       0.417000       1.00800           0   0.00000       0.00000    
     44344 TIP3     6476     TIP3     H2       HT       0.417000       1.00800           0   0.00000     -0.301140E-02
     44345 TIP3     6477     TIP3     OH2      OT      -0.834000       15.9994           0   0.00000       0.00000    
     44346 TIP3     6477     TIP3     H1       HT       0.417000       1.00800           0   0.00000       0.00000    
     44347 TIP3     6477     TIP3     H2       HT       0.417000       1.00800           0   0.00000     -0.301140E-02
     44348 TIP3     6478     TIP3     OH2      OT      -0.834000       15.9994           0   0.00000       0.00000    
     44349 TIP3     6478     TIP3     H1       HT       0.417000       1.00800           0   0.00000       0.00000    
     44350 TIP3     6478     TIP3     H2       HT       0.417000       1.00800           0   0.00000     -0.301140E-02
     44351 TIP3     6479     TIP3     OH2      OT      -0.834000       15.9994           0   0.00000       0.00000    
     44352 TIP3     6479     TIP3     H1       HT       0.417000       1.00800           0   0.00000       0.00000    
     44353 TIP3     6479     TIP3     H2       HT       0.417000       1.00800           0   0.00000     -0.301140E-02
     44354 TIP3     6480     TIP3     OH2      OT      -0.834000       15.9994           0   0.00000       0.00000    
     44355 TIP3     6480     TIP3     H1       HT       0.417000       1.00800           0   0.00000       0.00000    
     44356 TIP3     6480     TIP3     H2       HT       0.417000       1.00800           0   0.00000     -0.301140E-02
     44357 TIP3     6481     TIP3     OH2      OT      -0.834000       15.9994           0   0.00000       0.00000    
     44358 TIP3     6481     TIP3     H1       HT       0.417000       1.00800           0   0.00000       0.00000    
     44359 TIP3     6481     TIP3     H2       HT       0.417000       1.00800           0   0.00000     -0.301140E-02
     44360 TIP3     6482     TIP3     OH2      OT      -0.834000       15.9994           0   0.00000       0.00000    
     44361 TIP3     6482     TIP3     H1       HT       0.417000       1.00800           0   0.00000       0.00000    
     44362 TIP3     6482     TIP3     H2       HT       0.417000       1.00800           0   0.00000     -0.301140E-02
     44363 TIP3     6483     TIP3     OH2      OT      -0.834000       15.9994           0   0.00000       0.00000    
     44364 TIP3     6483     TIP3     H1       HT       0.417000       1.00800           0   0.00000       0.00000    
     44365 TIP3     6483     TIP3     H2       HT       0.417000       1.00800           0   0.00000     -0.301140E-02
     44366 TIP3     6484     TIP3     OH2      OT      -0.834000       15.9994           0   0.00000       0.00000    
     44367 TIP3     6484     TIP3     H1       HT       0.417000       1.00800           0   0.00000       0.00000    
     44368 TIP3     6484     TIP3     H2       HT       0.417000       1.00800           0   0.00000     -0.301140E-02
     44369 TIP3     6485     TIP3     OH2      OT      -0.834000       15.9994           0   0.00000       0.00000    
     44370 TIP3     6485     TIP3     H1       HT       0.417000       1.00800           0   0.00000       0.00000    
     44371 TIP3     6485     TIP3     H2       HT       0.417000       1.00800           0   0.00000     -0.301140E-02
     44372 TIP3     6486     TIP3     OH2      OT      -0.834000       15.9994           0   0.00000       0.00000    
     44373 TIP3     6486     TIP3     H1       HT       0.417000       1.00800           0   0.00000       0.00000    
     44374 TIP3     6486     TIP3     H2       HT       0.417000       1.00800           0   0.00000     -0.301140E-02
     44375 TIP3     6487     TIP3     OH2      OT      -0.834000       15.9994           0   0.00000       0.00000    
     44376 TIP3     6487     TIP3     H1       HT       0.417000       1.00800           0   0.00000       0.00000    
     44377 TIP3     6487     TIP3     H2       HT       0.417000       1.00800           0   0.00000     -0.301140E-02
     44378 TIP3     6488     TIP3     OH2      OT      -0.834000       15.9994           0   0.00000       0.00000    
     44379 TIP3     6488     TIP3     H1       HT       0.417000       1.00800           0   0.00000       0.00000    
     44380 TIP3     6488     TIP3     H2       HT       0.417000       1.00800           0   0.00000     -0.301140E-02
     44381 TIP3     6489     TIP3     OH2      OT      -0.834000       15.9994           0   0.00000       0.00000    
     44382 TIP3     6489     TIP3     H1       HT       0.417000       1.00800           0   0.00000       0.00000    
     44383 TIP3     6489     TIP3     H2       HT       0.417000       1.00800           0   0.00000     -0.301140E-02
     44384 TIP3     6490     TIP3     OH2      OT      -0.834000       15.9994           0   0.00000       0.00000    
     44385 TIP3     6490     TIP3     H1       HT       0.417000       1.00800           0   0.00000       0.00000    
     44386 TIP3     6490     TIP3     H2       HT       0.417000       1.00800           0   0.00000     -0.301140E-02
     44387 TIP3     6491     TIP3     OH2      OT      -0.834000       15.9994           0   0.00000       0.00000    
     44388 TIP3     6491     TIP3     H1       HT       0.417000       1.00800           0   0.00000       0.00000    
     44389 TIP3     6491     TIP3     H2       HT       0.417000       1.00800           0   0.00000     -0.301140E-02
     44390 TIP3     6492     TIP3     OH2      OT      -0.834000       15.9994           0   0.00000       0.00000    
     44391 TIP3     6492     TIP3     H1       HT       0.417000       1.00800           0   0.00000       0.00000    
     44392 TIP3     6492     TIP3     H2       HT       0.417000       1.00800           0   0.00000     -0.301140E-02
     44393 TIP3     6493     TIP3     OH2      OT      -0.834000       15.9994           0   0.00000       0.00000    
     44394 TIP3     6493     TIP3     H1       HT       0.417000       1.00800           0   0.00000       0.00000    
     44395 TIP3     6493     TIP3     H2       HT       0.417000       1.00800           0   0.00000     -0.301140E-02
     44396 TIP3     6494     TIP3     OH2      OT      -0.834000       15.9994           0   0.00000       0.00000    
     44397 TIP3     6494     TIP3     H1       HT       0.417000       1.00800           0   0.00000       0.00000    
     44398 TIP3     6494     TIP3     H2       HT       0.417000       1.00800           0   0.00000     -0.301140E-02
     44399 TIP3     6495     TIP3     OH2      OT      -0.834000       15.9994           0   0.00000       0.00000    
     44400 TIP3     6495     TIP3     H1       HT       0.417000       1.00800           0   0.00000       0.00000    
     44401 TIP3     6495     TIP3     H2       HT       0.417000       1.00800           0   0.00000     -0.301140E-02
     44402 TIP3     6496     TIP3     OH2      OT      -0.834000       15.9994           0   0.00000       0.00000    
     44403 TIP3     6496     TIP3     H1       HT       0.417000       1.00800           0   0.00000       0.00000    
     44404 TIP3     6496     TIP3     H2       HT       0.417000       1.00800           0   0.00000     -0.301140E-02
     44405 TIP3     6497     TIP3     OH2      OT      -0.834000       15.9994           0   0.00000       0.00000    
     44406 TIP3     6497     TIP3     H1       HT       0.417000       1.00800           0   0.00000       0.00000    
     44407 TIP3     6497     TIP3     H2       HT       0.417000       1.00800           0   0.00000     -0.301140E-02
     44408 TIP3     6498     TIP3     OH2      OT      -0.834000       15.9994           0   0.00000       0.00000    
     44409 TIP3     6498     TIP3     H1       HT       0.417000       1.00800           0   0.00000       0.00000    
     44410 TIP3     6498     TIP3     H2       HT       0.417000       1.00800           0   0.00000     -0.301140E-02
     44411 TIP3     6499     TIP3     OH2      OT      -0.834000       15.9994           0   0.00000       0.00000    
     44412 TIP3     6499     TIP3     H1       HT       0.417000       1.00800           0   0.00000       0.00000    
     44413 TIP3     6499     TIP3     H2       HT       0.417000       1.00800           0   0.00000     -0.301140E-02
     44414 TIP3     6500     TIP3     OH2      OT      -0.834000       15.9994           0   0.00000       0.00000    
     44415 TIP3     6500     TIP3     H1       HT       0.417000       1.00800           0   0.00000       0.00000    
     44416 TIP3     6500     TIP3     H2       HT       0.417000       1.00800           0   0.00000     -0.301140E-02
     44417 TIP3     6501     TIP3     OH2      OT      -0.834000       15.9994           0   0.00000       0.00000    
     44418 TIP3     6501     TIP3     H1       HT       0.417000       1.00800           0   0.00000       0.00000    
     44419 TIP3     6501     TIP3     H2       HT       0.417000       1.00800           0   0.00000     -0.301140E-02
     44420 TIP3     6502     TIP3     OH2      OT      -0.834000       15.9994           0   0.00000       0.00000    
     44421 TIP3     6502     TIP3     H1       HT       0.417000       1.00800           0   0.00000       0.00000    
     44422 TIP3     6502     TIP3     H2       HT       0.417000       1.00800           0   0.00000     -0.301140E-02
     44423 TIP3     6503     TIP3     OH2      OT      -0.834000       15.9994           0   0.00000       0.00000    
     44424 TIP3     6503     TIP3     H1       HT       0.417000       1.00800           0   0.00000       0.00000    
     44425 TIP3     6503     TIP3     H2       HT       0.417000       1.00800           0   0.00000     -0.301140E-02
     44426 TIP3     6504     TIP3     OH2      OT      -0.834000       15.9994           0   0.00000       0.00000    
     44427 TIP3     6504     TIP3     H1       HT       0.417000       1.00800           0   0.00000       0.00000    
     44428 TIP3     6504     TIP3     H2       HT       0.417000       1.00800           0   0.00000     -0.301140E-02
     44429 TIP3     6505     TIP3     OH2      OT      -0.834000       15.9994           0   0.00000       0.00000    
     44430 TIP3     6505     TIP3     H1       HT       0.417000       1.00800           0   0.00000       0.00000    
     44431 TIP3     6505     TIP3     H2       HT       0.417000       1.00800           0   0.00000     -0.301140E-02
     44432 TIP3     6506     TIP3     OH2      OT      -0.834000       15.9994           0   0.00000       0.00000    
     44433 TIP3     6506     TIP3     H1       HT       0.417000       1.00800           0   0.00000       0.00000    
     44434 TIP3     6506     TIP3     H2       HT       0.417000       1.00800           0   0.00000     -0.301140E-02
     44435 TIP3     6507     TIP3     OH2      OT      -0.834000       15.9994           0   0.00000       0.00000    
     44436 TIP3     6507     TIP3     H1       HT       0.417000       1.00800           0   0.00000       0.00000    
     44437 TIP3     6507     TIP3     H2       HT       0.417000       1.00800           0   0.00000     -0.301140E-02
     44438 TIP3     6508     TIP3     OH2      OT      -0.834000       15.9994           0   0.00000       0.00000    
     44439 TIP3     6508     TIP3     H1       HT       0.417000       1.00800           0   0.00000       0.00000    
     44440 TIP3     6508     TIP3     H2       HT       0.417000       1.00800           0   0.00000     -0.301140E-02
     44441 TIP3     6509     TIP3     OH2      OT      -0.834000       15.9994           0   0.00000       0.00000    
     44442 TIP3     6509     TIP3     H1       HT       0.417000       1.00800           0   0.00000       0.00000    
     44443 TIP3     6509     TIP3     H2       HT       0.417000       1.00800           0   0.00000     -0.301140E-02
     44444 TIP3     6510     TIP3     OH2      OT      -0.834000       15.9994           0   0.00000       0.00000    
     44445 TIP3     6510     TIP3     H1       HT       0.417000       1.00800           0   0.00000       0.00000    
     44446 TIP3     6510     TIP3     H2       HT       0.417000       1.00800           0   0.00000     -0.301140E-02
     44447 TIP3     6511     TIP3     OH2      OT      -0.834000       15.9994           0   0.00000       0.00000    
     44448 TIP3     6511     TIP3     H1       HT       0.417000       1.00800           0   0.00000       0.00000    
     44449 TIP3     6511     TIP3     H2       HT       0.417000       1.00800           0   0.00000     -0.301140E-02
     44450 TIP3     6512     TIP3     OH2      OT      -0.834000       15.9994           0   0.00000       0.00000    
     44451 TIP3     6512     TIP3     H1       HT       0.417000       1.00800           0   0.00000       0.00000    
     44452 TIP3     6512     TIP3     H2       HT       0.417000       1.00800           0   0.00000     -0.301140E-02
     44453 TIP3     6513     TIP3     OH2      OT      -0.834000       15.9994           0   0.00000       0.00000    
     44454 TIP3     6513     TIP3     H1       HT       0.417000       1.00800           0   0.00000       0.00000    
     44455 TIP3     6513     TIP3     H2       HT       0.417000       1.00800           0   0.00000     -0.301140E-02
     44456 TIP3     6514     TIP3     OH2      OT      -0.834000       15.9994           0   0.00000       0.00000    
     44457 TIP3     6514     TIP3     H1       HT       0.417000       1.00800           0   0.00000       0.00000    
     44458 TIP3     6514     TIP3     H2       HT       0.417000       1.00800           0   0.00000     -0.301140E-02
     44459 TIP3     6515     TIP3     OH2      OT      -0.834000       15.9994           0   0.00000       0.00000    
     44460 TIP3     6515     TIP3     H1       HT       0.417000       1.00800           0   0.00000       0.00000    
     44461 TIP3     6515     TIP3     H2       HT       0.417000       1.00800           0   0.00000     -0.301140E-02
     44462 TIP3     6516     TIP3     OH2      OT      -0.834000       15.9994           0   0.00000       0.00000    
     44463 TIP3     6516     TIP3     H1       HT       0.417000       1.00800           0   0.00000       0.00000    
     44464 TIP3     6516     TIP3     H2       HT       0.417000       1.00800           0   0.00000     -0.301140E-02
     44465 TIP3     6517     TIP3     OH2      OT      -0.834000       15.9994           0   0.00000       0.00000    
     44466 TIP3     6517     TIP3     H1       HT       0.417000       1.00800           0   0.00000       0.00000    
     44467 TIP3     6517     TIP3     H2       HT       0.417000       1.00800           0   0.00000     -0.301140E-02
     44468 TIP3     6518     TIP3     OH2      OT      -0.834000       15.9994           0   0.00000       0.00000    
     44469 TIP3     6518     TIP3     H1       HT       0.417000       1.00800           0   0.00000       0.00000    
     44470 TIP3     6518     TIP3     H2       HT       0.417000       1.00800           0   0.00000     -0.301140E-02
     44471 TIP3     6519     TIP3     OH2      OT      -0.834000       15.9994           0   0.00000       0.00000    
     44472 TIP3     6519     TIP3     H1       HT       0.417000       1.00800           0   0.00000       0.00000    
     44473 TIP3     6519     TIP3     H2       HT       0.417000       1.00800           0   0.00000     -0.301140E-02
     44474 TIP3     6520     TIP3     OH2      OT      -0.834000       15.9994           0   0.00000       0.00000    
     44475 TIP3     6520     TIP3     H1       HT       0.417000       1.00800           0   0.00000       0.00000    
     44476 TIP3     6520     TIP3     H2       HT       0.417000       1.00800           0   0.00000     -0.301140E-02
     44477 TIP3     6521     TIP3     OH2      OT      -0.834000       15.9994           0   0.00000       0.00000    
     44478 TIP3     6521     TIP3     H1       HT       0.417000       1.00800           0   0.00000       0.00000    
     44479 TIP3     6521     TIP3     H2       HT       0.417000       1.00800           0   0.00000     -0.301140E-02
     44480 TIP3     6522     TIP3     OH2      OT      -0.834000       15.9994           0   0.00000       0.00000    
     44481 TIP3     6522     TIP3     H1       HT       0.417000       1.00800           0   0.00000       0.00000    
     44482 TIP3     6522     TIP3     H2       HT       0.417000       1.00800           0   0.00000     -0.301140E-02
     44483 TIP3     6523     TIP3     OH2      OT      -0.834000       15.9994           0   0.00000       0.00000    
     44484 TIP3     6523     TIP3     H1       HT       0.417000       1.00800           0   0.00000       0.00000    
     44485 TIP3     6523     TIP3     H2       HT       0.417000       1.00800           0   0.00000     -0.301140E-02
     44486 TIP3     6524     TIP3     OH2      OT      -0.834000       15.9994           0   0.00000       0.00000    
     44487 TIP3     6524     TIP3     H1       HT       0.417000       1.00800           0   0.00000       0.00000    
     44488 TIP3     6524     TIP3     H2       HT       0.417000       1.00800           0   0.00000     -0.301140E-02
     44489 TIP3     6525     TIP3     OH2      OT      -0.834000       15.9994           0   0.00000       0.00000    
     44490 TIP3     6525     TIP3     H1       HT       0.417000       1.00800           0   0.00000       0.00000    
     44491 TIP3     6525     TIP3     H2       HT       0.417000       1.00800           0   0.00000     -0.301140E-02
     44492 TIP3     6526     TIP3     OH2      OT      -0.834000       15.9994           0   0.00000       0.00000    
     44493 TIP3     6526     TIP3     H1       HT       0.417000       1.00800           0   0.00000       0.00000    
     44494 TIP3     6526     TIP3     H2       HT       0.417000       1.00800           0   0.00000     -0.301140E-02
     44495 TIP3     6527     TIP3     OH2      OT      -0.834000       15.9994           0   0.00000       0.00000    
     44496 TIP3     6527     TIP3     H1       HT       0.417000       1.00800           0   0.00000       0.00000    
     44497 TIP3     6527     TIP3     H2       HT       0.417000       1.00800           0   0.00000     -0.301140E-02
     44498 TIP3     6528     TIP3     OH2      OT      -0.834000       15.9994           0   0.00000       0.00000    
     44499 TIP3     6528     TIP3     H1       HT       0.417000       1.00800           0   0.00000       0.00000    
     44500 TIP3     6528     TIP3     H2       HT       0.417000       1.00800           0   0.00000     -0.301140E-02
     44501 TIP3     6529     TIP3     OH2      OT      -0.834000       15.9994           0   0.00000       0.00000    
     44502 TIP3     6529     TIP3     H1       HT       0.417000       1.00800           0   0.00000       0.00000    
     44503 TIP3     6529     TIP3     H2       HT       0.417000       1.00800           0   0.00000     -0.301140E-02
     44504 TIP3     6530     TIP3     OH2      OT      -0.834000       15.9994           0   0.00000       0.00000    
     44505 TIP3     6530     TIP3     H1       HT       0.417000       1.00800           0   0.00000       0.00000    
     44506 TIP3     6530     TIP3     H2       HT       0.417000       1.00800           0   0.00000     -0.301140E-02
     44507 TIP3     6531     TIP3     OH2      OT      -0.834000       15.9994           0   0.00000       0.00000    
     44508 TIP3     6531     TIP3     H1       HT       0.417000       1.00800           0   0.00000       0.00000    
     44509 TIP3     6531     TIP3     H2       HT       0.417000       1.00800           0   0.00000     -0.301140E-02
     44510 TIP3     6532     TIP3     OH2      OT      -0.834000       15.9994           0   0.00000       0.00000    
     44511 TIP3     6532     TIP3     H1       HT       0.417000       1.00800           0   0.00000       0.00000    
     44512 TIP3     6532     TIP3     H2       HT       0.417000       1.00800           0   0.00000     -0.301140E-02
     44513 TIP3     6533     TIP3     OH2      OT      -0.834000       15.9994           0   0.00000       0.00000    
     44514 TIP3     6533     TIP3     H1       HT       0.417000       1.00800           0   0.00000       0.00000    
     44515 TIP3     6533     TIP3     H2       HT       0.417000       1.00800           0   0.00000     -0.301140E-02
     44516 TIP3     6534     TIP3     OH2      OT      -0.834000       15.9994           0   0.00000       0.00000    
     44517 TIP3     6534     TIP3     H1       HT       0.417000       1.00800           0   0.00000       0.00000    
     44518 TIP3     6534     TIP3     H2       HT       0.417000       1.00800           0   0.00000     -0.301140E-02
     44519 TIP3     6535     TIP3     OH2      OT      -0.834000       15.9994           0   0.00000       0.00000    
     44520 TIP3     6535     TIP3     H1       HT       0.417000       1.00800           0   0.00000       0.00000    
     44521 TIP3     6535     TIP3     H2       HT       0.417000       1.00800           0   0.00000     -0.301140E-02
     44522 TIP3     6536     TIP3     OH2      OT      -0.834000       15.9994           0   0.00000       0.00000    
     44523 TIP3     6536     TIP3     H1       HT       0.417000       1.00800           0   0.00000       0.00000    
     44524 TIP3     6536     TIP3     H2       HT       0.417000       1.00800           0   0.00000     -0.301140E-02
     44525 TIP3     6537     TIP3     OH2      OT      -0.834000       15.9994           0   0.00000       0.00000    
     44526 TIP3     6537     TIP3     H1       HT       0.417000       1.00800           0   0.00000       0.00000    
     44527 TIP3     6537     TIP3     H2       HT       0.417000       1.00800           0   0.00000     -0.301140E-02
     44528 TIP3     6538     TIP3     OH2      OT      -0.834000       15.9994           0   0.00000       0.00000    
     44529 TIP3     6538     TIP3     H1       HT       0.417000       1.00800           0   0.00000       0.00000    
     44530 TIP3     6538     TIP3     H2       HT       0.417000       1.00800           0   0.00000     -0.301140E-02
     44531 TIP3     6539     TIP3     OH2      OT      -0.834000       15.9994           0   0.00000       0.00000    
     44532 TIP3     6539     TIP3     H1       HT       0.417000       1.00800           0   0.00000       0.00000    
     44533 TIP3     6539     TIP3     H2       HT       0.417000       1.00800           0   0.00000     -0.301140E-02
     44534 TIP3     6540     TIP3     OH2      OT      -0.834000       15.9994           0   0.00000       0.00000    
     44535 TIP3     6540     TIP3     H1       HT       0.417000       1.00800           0   0.00000       0.00000    
     44536 TIP3     6540     TIP3     H2       HT       0.417000       1.00800           0   0.00000     -0.301140E-02
     44537 TIP3     6541     TIP3     OH2      OT      -0.834000       15.9994           0   0.00000       0.00000    
     44538 TIP3     6541     TIP3     H1       HT       0.417000       1.00800           0   0.00000       0.00000    
     44539 TIP3     6541     TIP3     H2       HT       0.417000       1.00800           0   0.00000     -0.301140E-02
     44540 TIP3     6542     TIP3     OH2      OT      -0.834000       15.9994           0   0.00000       0.00000    
     44541 TIP3     6542     TIP3     H1       HT       0.417000       1.00800           0   0.00000       0.00000    
     44542 TIP3     6542     TIP3     H2       HT       0.417000       1.00800           0   0.00000     -0.301140E-02
     44543 TIP3     6543     TIP3     OH2      OT      -0.834000       15.9994           0   0.00000       0.00000    
     44544 TIP3     6543     TIP3     H1       HT       0.417000       1.00800           0   0.00000       0.00000    
     44545 TIP3     6543     TIP3     H2       HT       0.417000       1.00800           0   0.00000     -0.301140E-02
     44546 TIP3     6544     TIP3     OH2      OT      -0.834000       15.9994           0   0.00000       0.00000    
     44547 TIP3     6544     TIP3     H1       HT       0.417000       1.00800           0   0.00000       0.00000    
     44548 TIP3     6544     TIP3     H2       HT       0.417000       1.00800           0   0.00000     -0.301140E-02
     44549 TIP3     6545     TIP3     OH2      OT      -0.834000       15.9994           0   0.00000       0.00000    
     44550 TIP3     6545     TIP3     H1       HT       0.417000       1.00800           0   0.00000       0.00000    
     44551 TIP3     6545     TIP3     H2       HT       0.417000       1.00800           0   0.00000     -0.301140E-02
     44552 TIP3     6546     TIP3     OH2      OT      -0.834000       15.9994           0   0.00000       0.00000    
     44553 TIP3     6546     TIP3     H1       HT       0.417000       1.00800           0   0.00000       0.00000    
     44554 TIP3     6546     TIP3     H2       HT       0.417000       1.00800           0   0.00000     -0.301140E-02
     44555 TIP3     6547     TIP3     OH2      OT      -0.834000       15.9994           0   0.00000       0.00000    
     44556 TIP3     6547     TIP3     H1       HT       0.417000       1.00800           0   0.00000       0.00000    
     44557 TIP3     6547     TIP3     H2       HT       0.417000       1.00800           0   0.00000     -0.301140E-02
     44558 TIP3     6548     TIP3     OH2      OT      -0.834000       15.9994           0   0.00000       0.00000    
     44559 TIP3     6548     TIP3     H1       HT       0.417000       1.00800           0   0.00000       0.00000    
     44560 TIP3     6548     TIP3     H2       HT       0.417000       1.00800           0   0.00000     -0.301140E-02
     44561 TIP3     6549     TIP3     OH2      OT      -0.834000       15.9994           0   0.00000       0.00000    
     44562 TIP3     6549     TIP3     H1       HT       0.417000       1.00800           0   0.00000       0.00000    
     44563 TIP3     6549     TIP3     H2       HT       0.417000       1.00800           0   0.00000     -0.301140E-02
     44564 TIP3     6550     TIP3     OH2      OT      -0.834000       15.9994           0   0.00000       0.00000    
     44565 TIP3     6550     TIP3     H1       HT       0.417000       1.00800           0   0.00000       0.00000    
     44566 TIP3     6550     TIP3     H2       HT       0.417000       1.00800           0   0.00000     -0.301140E-02
     44567 TIP3     6551     TIP3     OH2      OT      -0.834000       15.9994           0   0.00000       0.00000    
     44568 TIP3     6551     TIP3     H1       HT       0.417000       1.00800           0   0.00000       0.00000    
     44569 TIP3     6551     TIP3     H2       HT       0.417000       1.00800           0   0.00000     -0.301140E-02
     44570 TIP3     6552     TIP3     OH2      OT      -0.834000       15.9994           0   0.00000       0.00000    
     44571 TIP3     6552     TIP3     H1       HT       0.417000       1.00800           0   0.00000       0.00000    
     44572 TIP3     6552     TIP3     H2       HT       0.417000       1.00800           0   0.00000     -0.301140E-02
     44573 TIP3     6553     TIP3     OH2      OT      -0.834000       15.9994           0   0.00000       0.00000    
     44574 TIP3     6553     TIP3     H1       HT       0.417000       1.00800           0   0.00000       0.00000    
     44575 TIP3     6553     TIP3     H2       HT       0.417000       1.00800           0   0.00000     -0.301140E-02
     44576 TIP3     6554     TIP3     OH2      OT      -0.834000       15.9994           0   0.00000       0.00000    
     44577 TIP3     6554     TIP3     H1       HT       0.417000       1.00800           0   0.00000       0.00000    
     44578 TIP3     6554     TIP3     H2       HT       0.417000       1.00800           0   0.00000     -0.301140E-02
     44579 TIP3     6555     TIP3     OH2      OT      -0.834000       15.9994           0   0.00000       0.00000    
     44580 TIP3     6555     TIP3     H1       HT       0.417000       1.00800           0   0.00000       0.00000    
     44581 TIP3     6555     TIP3     H2       HT       0.417000       1.00800           0   0.00000     -0.301140E-02
     44582 TIP3     6556     TIP3     OH2      OT      -0.834000       15.9994           0   0.00000       0.00000    
     44583 TIP3     6556     TIP3     H1       HT       0.417000       1.00800           0   0.00000       0.00000    
     44584 TIP3     6556     TIP3     H2       HT       0.417000       1.00800           0   0.00000     -0.301140E-02
     44585 TIP3     6557     TIP3     OH2      OT      -0.834000       15.9994           0   0.00000       0.00000    
     44586 TIP3     6557     TIP3     H1       HT       0.417000       1.00800           0   0.00000       0.00000    
     44587 TIP3     6557     TIP3     H2       HT       0.417000       1.00800           0   0.00000     -0.301140E-02
     44588 TIP3     6558     TIP3     OH2      OT      -0.834000       15.9994           0   0.00000       0.00000    
     44589 TIP3     6558     TIP3     H1       HT       0.417000       1.00800           0   0.00000       0.00000    
     44590 TIP3     6558     TIP3     H2       HT       0.417000       1.00800           0   0.00000     -0.301140E-02
     44591 TIP3     6559     TIP3     OH2      OT      -0.834000       15.9994           0   0.00000       0.00000    
     44592 TIP3     6559     TIP3     H1       HT       0.417000       1.00800           0   0.00000       0.00000    
     44593 TIP3     6559     TIP3     H2       HT       0.417000       1.00800           0   0.00000     -0.301140E-02
     44594 TIP3     6560     TIP3     OH2      OT      -0.834000       15.9994           0   0.00000       0.00000    
     44595 TIP3     6560     TIP3     H1       HT       0.417000       1.00800           0   0.00000       0.00000    
     44596 TIP3     6560     TIP3     H2       HT       0.417000       1.00800           0   0.00000     -0.301140E-02
     44597 TIP3     6561     TIP3     OH2      OT      -0.834000       15.9994           0   0.00000       0.00000    
     44598 TIP3     6561     TIP3     H1       HT       0.417000       1.00800           0   0.00000       0.00000    
     44599 TIP3     6561     TIP3     H2       HT       0.417000       1.00800           0   0.00000     -0.301140E-02
     44600 TIP3     6562     TIP3     OH2      OT      -0.834000       15.9994           0   0.00000       0.00000    
     44601 TIP3     6562     TIP3     H1       HT       0.417000       1.00800           0   0.00000       0.00000    
     44602 TIP3     6562     TIP3     H2       HT       0.417000       1.00800           0   0.00000     -0.301140E-02
     44603 TIP3     6563     TIP3     OH2      OT      -0.834000       15.9994           0   0.00000       0.00000    
     44604 TIP3     6563     TIP3     H1       HT       0.417000       1.00800           0   0.00000       0.00000    
     44605 TIP3     6563     TIP3     H2       HT       0.417000       1.00800           0   0.00000     -0.301140E-02
     44606 TIP3     6564     TIP3     OH2      OT      -0.834000       15.9994           0   0.00000       0.00000    
     44607 TIP3     6564     TIP3     H1       HT       0.417000       1.00800           0   0.00000       0.00000    
     44608 TIP3     6564     TIP3     H2       HT       0.417000       1.00800           0   0.00000     -0.301140E-02
     44609 TIP3     6565     TIP3     OH2      OT      -0.834000       15.9994           0   0.00000       0.00000    
     44610 TIP3     6565     TIP3     H1       HT       0.417000       1.00800           0   0.00000       0.00000    
     44611 TIP3     6565     TIP3     H2       HT       0.417000       1.00800           0   0.00000     -0.301140E-02
     44612 TIP3     6566     TIP3     OH2      OT      -0.834000       15.9994           0   0.00000       0.00000    
     44613 TIP3     6566     TIP3     H1       HT       0.417000       1.00800           0   0.00000       0.00000    
     44614 TIP3     6566     TIP3     H2       HT       0.417000       1.00800           0   0.00000     -0.301140E-02
     44615 TIP3     6567     TIP3     OH2      OT      -0.834000       15.9994           0   0.00000       0.00000    
     44616 TIP3     6567     TIP3     H1       HT       0.417000       1.00800           0   0.00000       0.00000    
     44617 TIP3     6567     TIP3     H2       HT       0.417000       1.00800           0   0.00000     -0.301140E-02
     44618 TIP3     6568     TIP3     OH2      OT      -0.834000       15.9994           0   0.00000       0.00000    
     44619 TIP3     6568     TIP3     H1       HT       0.417000       1.00800           0   0.00000       0.00000    
     44620 TIP3     6568     TIP3     H2       HT       0.417000       1.00800           0   0.00000     -0.301140E-02
     44621 TIP3     6569     TIP3     OH2      OT      -0.834000       15.9994           0   0.00000       0.00000    
     44622 TIP3     6569     TIP3     H1       HT       0.417000       1.00800           0   0.00000       0.00000    
     44623 TIP3     6569     TIP3     H2       HT       0.417000       1.00800           0   0.00000     -0.301140E-02
     44624 TIP3     6570     TIP3     OH2      OT      -0.834000       15.9994           0   0.00000       0.00000    
     44625 TIP3     6570     TIP3     H1       HT       0.417000       1.00800           0   0.00000       0.00000    
     44626 TIP3     6570     TIP3     H2       HT       0.417000       1.00800           0   0.00000     -0.301140E-02
     44627 TIP3     6571     TIP3     OH2      OT      -0.834000       15.9994           0   0.00000       0.00000    
     44628 TIP3     6571     TIP3     H1       HT       0.417000       1.00800           0   0.00000       0.00000    
     44629 TIP3     6571     TIP3     H2       HT       0.417000       1.00800           0   0.00000     -0.301140E-02
     44630 TIP3     6572     TIP3     OH2      OT      -0.834000       15.9994           0   0.00000       0.00000    
     44631 TIP3     6572     TIP3     H1       HT       0.417000       1.00800           0   0.00000       0.00000    
     44632 TIP3     6572     TIP3     H2       HT       0.417000       1.00800           0   0.00000     -0.301140E-02
     44633 TIP3     6573     TIP3     OH2      OT      -0.834000       15.9994           0   0.00000       0.00000    
     44634 TIP3     6573     TIP3     H1       HT       0.417000       1.00800           0   0.00000       0.00000    
     44635 TIP3     6573     TIP3     H2       HT       0.417000       1.00800           0   0.00000     -0.301140E-02
     44636 TIP3     6574     TIP3     OH2      OT      -0.834000       15.9994           0   0.00000       0.00000    
     44637 TIP3     6574     TIP3     H1       HT       0.417000       1.00800           0   0.00000       0.00000    
     44638 TIP3     6574     TIP3     H2       HT       0.417000       1.00800           0   0.00000     -0.301140E-02
     44639 TIP3     6575     TIP3     OH2      OT      -0.834000       15.9994           0   0.00000       0.00000    
     44640 TIP3     6575     TIP3     H1       HT       0.417000       1.00800           0   0.00000       0.00000    
     44641 TIP3     6575     TIP3     H2       HT       0.417000       1.00800           0   0.00000     -0.301140E-02
     44642 TIP3     6576     TIP3     OH2      OT      -0.834000       15.9994           0   0.00000       0.00000    
     44643 TIP3     6576     TIP3     H1       HT       0.417000       1.00800           0   0.00000       0.00000    
     44644 TIP3     6576     TIP3     H2       HT       0.417000       1.00800           0   0.00000     -0.301140E-02
     44645 TIP3     6577     TIP3     OH2      OT      -0.834000       15.9994           0   0.00000       0.00000    
     44646 TIP3     6577     TIP3     H1       HT       0.417000       1.00800           0   0.00000       0.00000    
     44647 TIP3     6577     TIP3     H2       HT       0.417000       1.00800           0   0.00000     -0.301140E-02
     44648 TIP3     6578     TIP3     OH2      OT      -0.834000       15.9994           0   0.00000       0.00000    
     44649 TIP3     6578     TIP3     H1       HT       0.417000       1.00800           0   0.00000       0.00000    
     44650 TIP3     6578     TIP3     H2       HT       0.417000       1.00800           0   0.00000     -0.301140E-02
     44651 TIP3     6579     TIP3     OH2      OT      -0.834000       15.9994           0   0.00000       0.00000    
     44652 TIP3     6579     TIP3     H1       HT       0.417000       1.00800           0   0.00000       0.00000    
     44653 TIP3     6579     TIP3     H2       HT       0.417000       1.00800           0   0.00000     -0.301140E-02
     44654 TIP3     6580     TIP3     OH2      OT      -0.834000       15.9994           0   0.00000       0.00000    
     44655 TIP3     6580     TIP3     H1       HT       0.417000       1.00800           0   0.00000       0.00000    
     44656 TIP3     6580     TIP3     H2       HT       0.417000       1.00800           0   0.00000     -0.301140E-02
     44657 TIP3     6581     TIP3     OH2      OT      -0.834000       15.9994           0   0.00000       0.00000    
     44658 TIP3     6581     TIP3     H1       HT       0.417000       1.00800           0   0.00000       0.00000    
     44659 TIP3     6581     TIP3     H2       HT       0.417000       1.00800           0   0.00000     -0.301140E-02
     44660 TIP3     6582     TIP3     OH2      OT      -0.834000       15.9994           0   0.00000       0.00000    
     44661 TIP3     6582     TIP3     H1       HT       0.417000       1.00800           0   0.00000       0.00000    
     44662 TIP3     6582     TIP3     H2       HT       0.417000       1.00800           0   0.00000     -0.301140E-02
     44663 TIP3     6583     TIP3     OH2      OT      -0.834000       15.9994           0   0.00000       0.00000    
     44664 TIP3     6583     TIP3     H1       HT       0.417000       1.00800           0   0.00000       0.00000    
     44665 TIP3     6583     TIP3     H2       HT       0.417000       1.00800           0   0.00000     -0.301140E-02
     44666 TIP3     6584     TIP3     OH2      OT      -0.834000       15.9994           0   0.00000       0.00000    
     44667 TIP3     6584     TIP3     H1       HT       0.417000       1.00800           0   0.00000       0.00000    
     44668 TIP3     6584     TIP3     H2       HT       0.417000       1.00800           0   0.00000     -0.301140E-02
     44669 TIP3     6585     TIP3     OH2      OT      -0.834000       15.9994           0   0.00000       0.00000    
     44670 TIP3     6585     TIP3     H1       HT       0.417000       1.00800           0   0.00000       0.00000    
     44671 TIP3     6585     TIP3     H2       HT       0.417000       1.00800           0   0.00000     -0.301140E-02
     44672 TIP3     6586     TIP3     OH2      OT      -0.834000       15.9994           0   0.00000       0.00000    
     44673 TIP3     6586     TIP3     H1       HT       0.417000       1.00800           0   0.00000       0.00000    
     44674 TIP3     6586     TIP3     H2       HT       0.417000       1.00800           0   0.00000     -0.301140E-02
     44675 TIP3     6587     TIP3     OH2      OT      -0.834000       15.9994           0   0.00000       0.00000    
     44676 TIP3     6587     TIP3     H1       HT       0.417000       1.00800           0   0.00000       0.00000    
     44677 TIP3     6587     TIP3     H2       HT       0.417000       1.00800           0   0.00000     -0.301140E-02
     44678 TIP3     6588     TIP3     OH2      OT      -0.834000       15.9994           0   0.00000       0.00000    
     44679 TIP3     6588     TIP3     H1       HT       0.417000       1.00800           0   0.00000       0.00000    
     44680 TIP3     6588     TIP3     H2       HT       0.417000       1.00800           0   0.00000     -0.301140E-02
     44681 TIP3     6589     TIP3     OH2      OT      -0.834000       15.9994           0   0.00000       0.00000    
     44682 TIP3     6589     TIP3     H1       HT       0.417000       1.00800           0   0.00000       0.00000    
     44683 TIP3     6589     TIP3     H2       HT       0.417000       1.00800           0   0.00000     -0.301140E-02
     44684 TIP3     6590     TIP3     OH2      OT      -0.834000       15.9994           0   0.00000       0.00000    
     44685 TIP3     6590     TIP3     H1       HT       0.417000       1.00800           0   0.00000       0.00000    
     44686 TIP3     6590     TIP3     H2       HT       0.417000       1.00800           0   0.00000     -0.301140E-02
     44687 TIP3     6591     TIP3     OH2      OT      -0.834000       15.9994           0   0.00000       0.00000    
     44688 TIP3     6591     TIP3     H1       HT       0.417000       1.00800           0   0.00000       0.00000    
     44689 TIP3     6591     TIP3     H2       HT       0.417000       1.00800           0   0.00000     -0.301140E-02
     44690 TIP3     6592     TIP3     OH2      OT      -0.834000       15.9994           0   0.00000       0.00000    
     44691 TIP3     6592     TIP3     H1       HT       0.417000       1.00800           0   0.00000       0.00000    
     44692 TIP3     6592     TIP3     H2       HT       0.417000       1.00800           0   0.00000     -0.301140E-02
     44693 TIP3     6593     TIP3     OH2      OT      -0.834000       15.9994           0   0.00000       0.00000    
     44694 TIP3     6593     TIP3     H1       HT       0.417000       1.00800           0   0.00000       0.00000    
     44695 TIP3     6593     TIP3     H2       HT       0.417000       1.00800           0   0.00000     -0.301140E-02
     44696 TIP3     6594     TIP3     OH2      OT      -0.834000       15.9994           0   0.00000       0.00000    
     44697 TIP3     6594     TIP3     H1       HT       0.417000       1.00800           0   0.00000       0.00000    
     44698 TIP3     6594     TIP3     H2       HT       0.417000       1.00800           0   0.00000     -0.301140E-02
     44699 TIP3     6595     TIP3     OH2      OT      -0.834000       15.9994           0   0.00000       0.00000    
     44700 TIP3     6595     TIP3     H1       HT       0.417000       1.00800           0   0.00000       0.00000    
     44701 TIP3     6595     TIP3     H2       HT       0.417000       1.00800           0   0.00000     -0.301140E-02
     44702 TIP3     6596     TIP3     OH2      OT      -0.834000       15.9994           0   0.00000       0.00000    
     44703 TIP3     6596     TIP3     H1       HT       0.417000       1.00800           0   0.00000       0.00000    
     44704 TIP3     6596     TIP3     H2       HT       0.417000       1.00800           0   0.00000     -0.301140E-02
     44705 TIP3     6597     TIP3     OH2      OT      -0.834000       15.9994           0   0.00000       0.00000    
     44706 TIP3     6597     TIP3     H1       HT       0.417000       1.00800           0   0.00000       0.00000    
     44707 TIP3     6597     TIP3     H2       HT       0.417000       1.00800           0   0.00000     -0.301140E-02
     44708 TIP3     6598     TIP3     OH2      OT      -0.834000       15.9994           0   0.00000       0.00000    
     44709 TIP3     6598     TIP3     H1       HT       0.417000       1.00800           0   0.00000       0.00000    
     44710 TIP3     6598     TIP3     H2       HT       0.417000       1.00800           0   0.00000     -0.301140E-02
     44711 TIP3     6599     TIP3     OH2      OT      -0.834000       15.9994           0   0.00000       0.00000    
     44712 TIP3     6599     TIP3     H1       HT       0.417000       1.00800           0   0.00000       0.00000    
     44713 TIP3     6599     TIP3     H2       HT       0.417000       1.00800           0   0.00000     -0.301140E-02
     44714 TIP3     6600     TIP3     OH2      OT      -0.834000       15.9994           0   0.00000       0.00000    
     44715 TIP3     6600     TIP3     H1       HT       0.417000       1.00800           0   0.00000       0.00000    
     44716 TIP3     6600     TIP3     H2       HT       0.417000       1.00800           0   0.00000     -0.301140E-02
     44717 TIP3     6601     TIP3     OH2      OT      -0.834000       15.9994           0   0.00000       0.00000    
     44718 TIP3     6601     TIP3     H1       HT       0.417000       1.00800           0   0.00000       0.00000    
     44719 TIP3     6601     TIP3     H2       HT       0.417000       1.00800           0   0.00000     -0.301140E-02
     44720 TIP3     6602     TIP3     OH2      OT      -0.834000       15.9994           0   0.00000       0.00000    
     44721 TIP3     6602     TIP3     H1       HT       0.417000       1.00800           0   0.00000       0.00000    
     44722 TIP3     6602     TIP3     H2       HT       0.417000       1.00800           0   0.00000     -0.301140E-02
     44723 TIP3     6603     TIP3     OH2      OT      -0.834000       15.9994           0   0.00000       0.00000    
     44724 TIP3     6603     TIP3     H1       HT       0.417000       1.00800           0   0.00000       0.00000    
     44725 TIP3     6603     TIP3     H2       HT       0.417000       1.00800           0   0.00000     -0.301140E-02
     44726 TIP3     6604     TIP3     OH2      OT      -0.834000       15.9994           0   0.00000       0.00000    
     44727 TIP3     6604     TIP3     H1       HT       0.417000       1.00800           0   0.00000       0.00000    
     44728 TIP3     6604     TIP3     H2       HT       0.417000       1.00800           0   0.00000     -0.301140E-02
     44729 TIP3     6605     TIP3     OH2      OT      -0.834000       15.9994           0   0.00000       0.00000    
     44730 TIP3     6605     TIP3     H1       HT       0.417000       1.00800           0   0.00000       0.00000    
     44731 TIP3     6605     TIP3     H2       HT       0.417000       1.00800           0   0.00000     -0.301140E-02
     44732 TIP3     6606     TIP3     OH2      OT      -0.834000       15.9994           0   0.00000       0.00000    
     44733 TIP3     6606     TIP3     H1       HT       0.417000       1.00800           0   0.00000       0.00000    
     44734 TIP3     6606     TIP3     H2       HT       0.417000       1.00800           0   0.00000     -0.301140E-02
     44735 TIP3     6607     TIP3     OH2      OT      -0.834000       15.9994           0   0.00000       0.00000    
     44736 TIP3     6607     TIP3     H1       HT       0.417000       1.00800           0   0.00000       0.00000    
     44737 TIP3     6607     TIP3     H2       HT       0.417000       1.00800           0   0.00000     -0.301140E-02
     44738 TIP3     6608     TIP3     OH2      OT      -0.834000       15.9994           0   0.00000       0.00000    
     44739 TIP3     6608     TIP3     H1       HT       0.417000       1.00800           0   0.00000       0.00000    
     44740 TIP3     6608     TIP3     H2       HT       0.417000       1.00800           0   0.00000     -0.301140E-02
     44741 TIP3     6609     TIP3     OH2      OT      -0.834000       15.9994           0   0.00000       0.00000    
     44742 TIP3     6609     TIP3     H1       HT       0.417000       1.00800           0   0.00000       0.00000    
     44743 TIP3     6609     TIP3     H2       HT       0.417000       1.00800           0   0.00000     -0.301140E-02
     44744 TIP3     6610     TIP3     OH2      OT      -0.834000       15.9994           0   0.00000       0.00000    
     44745 TIP3     6610     TIP3     H1       HT       0.417000       1.00800           0   0.00000       0.00000    
     44746 TIP3     6610     TIP3     H2       HT       0.417000       1.00800           0   0.00000     -0.301140E-02
     44747 TIP3     6611     TIP3     OH2      OT      -0.834000       15.9994           0   0.00000       0.00000    
     44748 TIP3     6611     TIP3     H1       HT       0.417000       1.00800           0   0.00000       0.00000    
     44749 TIP3     6611     TIP3     H2       HT       0.417000       1.00800           0   0.00000     -0.301140E-02
     44750 TIP3     6612     TIP3     OH2      OT      -0.834000       15.9994           0   0.00000       0.00000    
     44751 TIP3     6612     TIP3     H1       HT       0.417000       1.00800           0   0.00000       0.00000    
     44752 TIP3     6612     TIP3     H2       HT       0.417000       1.00800           0   0.00000     -0.301140E-02
     44753 TIP3     6613     TIP3     OH2      OT      -0.834000       15.9994           0   0.00000       0.00000    
     44754 TIP3     6613     TIP3     H1       HT       0.417000       1.00800           0   0.00000       0.00000    
     44755 TIP3     6613     TIP3     H2       HT       0.417000       1.00800           0   0.00000     -0.301140E-02
     44756 TIP3     6614     TIP3     OH2      OT      -0.834000       15.9994           0   0.00000       0.00000    
     44757 TIP3     6614     TIP3     H1       HT       0.417000       1.00800           0   0.00000       0.00000    
     44758 TIP3     6614     TIP3     H2       HT       0.417000       1.00800           0   0.00000     -0.301140E-02
     44759 TIP3     6615     TIP3     OH2      OT      -0.834000       15.9994           0   0.00000       0.00000    
     44760 TIP3     6615     TIP3     H1       HT       0.417000       1.00800           0   0.00000       0.00000    
     44761 TIP3     6615     TIP3     H2       HT       0.417000       1.00800           0   0.00000     -0.301140E-02
     44762 TIP3     6616     TIP3     OH2      OT      -0.834000       15.9994           0   0.00000       0.00000    
     44763 TIP3     6616     TIP3     H1       HT       0.417000       1.00800           0   0.00000       0.00000    
     44764 TIP3     6616     TIP3     H2       HT       0.417000       1.00800           0   0.00000     -0.301140E-02
     44765 TIP3     6617     TIP3     OH2      OT      -0.834000       15.9994           0   0.00000       0.00000    
     44766 TIP3     6617     TIP3     H1       HT       0.417000       1.00800           0   0.00000       0.00000    
     44767 TIP3     6617     TIP3     H2       HT       0.417000       1.00800           0   0.00000     -0.301140E-02
     44768 TIP3     6618     TIP3     OH2      OT      -0.834000       15.9994           0   0.00000       0.00000    
     44769 TIP3     6618     TIP3     H1       HT       0.417000       1.00800           0   0.00000       0.00000    
     44770 TIP3     6618     TIP3     H2       HT       0.417000       1.00800           0   0.00000     -0.301140E-02
     44771 TIP3     6619     TIP3     OH2      OT      -0.834000       15.9994           0   0.00000       0.00000    
     44772 TIP3     6619     TIP3     H1       HT       0.417000       1.00800           0   0.00000       0.00000    
     44773 TIP3     6619     TIP3     H2       HT       0.417000       1.00800           0   0.00000     -0.301140E-02
     44774 TIP3     6620     TIP3     OH2      OT      -0.834000       15.9994           0   0.00000       0.00000    
     44775 TIP3     6620     TIP3     H1       HT       0.417000       1.00800           0   0.00000       0.00000    
     44776 TIP3     6620     TIP3     H2       HT       0.417000       1.00800           0   0.00000     -0.301140E-02
     44777 TIP3     6621     TIP3     OH2      OT      -0.834000       15.9994           0   0.00000       0.00000    
     44778 TIP3     6621     TIP3     H1       HT       0.417000       1.00800           0   0.00000       0.00000    
     44779 TIP3     6621     TIP3     H2       HT       0.417000       1.00800           0   0.00000     -0.301140E-02
     44780 TIP3     6622     TIP3     OH2      OT      -0.834000       15.9994           0   0.00000       0.00000    
     44781 TIP3     6622     TIP3     H1       HT       0.417000       1.00800           0   0.00000       0.00000    
     44782 TIP3     6622     TIP3     H2       HT       0.417000       1.00800           0   0.00000     -0.301140E-02
     44783 TIP3     6623     TIP3     OH2      OT      -0.834000       15.9994           0   0.00000       0.00000    
     44784 TIP3     6623     TIP3     H1       HT       0.417000       1.00800           0   0.00000       0.00000    
     44785 TIP3     6623     TIP3     H2       HT       0.417000       1.00800           0   0.00000     -0.301140E-02
     44786 TIP3     6624     TIP3     OH2      OT      -0.834000       15.9994           0   0.00000       0.00000    
     44787 TIP3     6624     TIP3     H1       HT       0.417000       1.00800           0   0.00000       0.00000    
     44788 TIP3     6624     TIP3     H2       HT       0.417000       1.00800           0   0.00000     -0.301140E-02
     44789 TIP3     6625     TIP3     OH2      OT      -0.834000       15.9994           0   0.00000       0.00000    
     44790 TIP3     6625     TIP3     H1       HT       0.417000       1.00800           0   0.00000       0.00000    
     44791 TIP3     6625     TIP3     H2       HT       0.417000       1.00800           0   0.00000     -0.301140E-02
     44792 TIP3     6626     TIP3     OH2      OT      -0.834000       15.9994           0   0.00000       0.00000    
     44793 TIP3     6626     TIP3     H1       HT       0.417000       1.00800           0   0.00000       0.00000    
     44794 TIP3     6626     TIP3     H2       HT       0.417000       1.00800           0   0.00000     -0.301140E-02
     44795 TIP3     6627     TIP3     OH2      OT      -0.834000       15.9994           0   0.00000       0.00000    
     44796 TIP3     6627     TIP3     H1       HT       0.417000       1.00800           0   0.00000       0.00000    
     44797 TIP3     6627     TIP3     H2       HT       0.417000       1.00800           0   0.00000     -0.301140E-02
     44798 TIP3     6628     TIP3     OH2      OT      -0.834000       15.9994           0   0.00000       0.00000    
     44799 TIP3     6628     TIP3     H1       HT       0.417000       1.00800           0   0.00000       0.00000    
     44800 TIP3     6628     TIP3     H2       HT       0.417000       1.00800           0   0.00000     -0.301140E-02
     44801 TIP3     6629     TIP3     OH2      OT      -0.834000       15.9994           0   0.00000       0.00000    
     44802 TIP3     6629     TIP3     H1       HT       0.417000       1.00800           0   0.00000       0.00000    
     44803 TIP3     6629     TIP3     H2       HT       0.417000       1.00800           0   0.00000     -0.301140E-02
     44804 TIP3     6630     TIP3     OH2      OT      -0.834000       15.9994           0   0.00000       0.00000    
     44805 TIP3     6630     TIP3     H1       HT       0.417000       1.00800           0   0.00000       0.00000    
     44806 TIP3     6630     TIP3     H2       HT       0.417000       1.00800           0   0.00000     -0.301140E-02
     44807 TIP3     6631     TIP3     OH2      OT      -0.834000       15.9994           0   0.00000       0.00000    
     44808 TIP3     6631     TIP3     H1       HT       0.417000       1.00800           0   0.00000       0.00000    
     44809 TIP3     6631     TIP3     H2       HT       0.417000       1.00800           0   0.00000     -0.301140E-02
     44810 TIP3     6632     TIP3     OH2      OT      -0.834000       15.9994           0   0.00000       0.00000    
     44811 TIP3     6632     TIP3     H1       HT       0.417000       1.00800           0   0.00000       0.00000    
     44812 TIP3     6632     TIP3     H2       HT       0.417000       1.00800           0   0.00000     -0.301140E-02
     44813 TIP3     6633     TIP3     OH2      OT      -0.834000       15.9994           0   0.00000       0.00000    
     44814 TIP3     6633     TIP3     H1       HT       0.417000       1.00800           0   0.00000       0.00000    
     44815 TIP3     6633     TIP3     H2       HT       0.417000       1.00800           0   0.00000     -0.301140E-02
     44816 TIP3     6634     TIP3     OH2      OT      -0.834000       15.9994           0   0.00000       0.00000    
     44817 TIP3     6634     TIP3     H1       HT       0.417000       1.00800           0   0.00000       0.00000    
     44818 TIP3     6634     TIP3     H2       HT       0.417000       1.00800           0   0.00000     -0.301140E-02
     44819 TIP3     6635     TIP3     OH2      OT      -0.834000       15.9994           0   0.00000       0.00000    
     44820 TIP3     6635     TIP3     H1       HT       0.417000       1.00800           0   0.00000       0.00000    
     44821 TIP3     6635     TIP3     H2       HT       0.417000       1.00800           0   0.00000     -0.301140E-02
     44822 TIP3     6636     TIP3     OH2      OT      -0.834000       15.9994           0   0.00000       0.00000    
     44823 TIP3     6636     TIP3     H1       HT       0.417000       1.00800           0   0.00000       0.00000    
     44824 TIP3     6636     TIP3     H2       HT       0.417000       1.00800           0   0.00000     -0.301140E-02
     44825 TIP3     6637     TIP3     OH2      OT      -0.834000       15.9994           0   0.00000       0.00000    
     44826 TIP3     6637     TIP3     H1       HT       0.417000       1.00800           0   0.00000       0.00000    
     44827 TIP3     6637     TIP3     H2       HT       0.417000       1.00800           0   0.00000     -0.301140E-02
     44828 TIP3     6638     TIP3     OH2      OT      -0.834000       15.9994           0   0.00000       0.00000    
     44829 TIP3     6638     TIP3     H1       HT       0.417000       1.00800           0   0.00000       0.00000    
     44830 TIP3     6638     TIP3     H2       HT       0.417000       1.00800           0   0.00000     -0.301140E-02
     44831 TIP3     6639     TIP3     OH2      OT      -0.834000       15.9994           0   0.00000       0.00000    
     44832 TIP3     6639     TIP3     H1       HT       0.417000       1.00800           0   0.00000       0.00000    
     44833 TIP3     6639     TIP3     H2       HT       0.417000       1.00800           0   0.00000     -0.301140E-02
     44834 TIP3     6640     TIP3     OH2      OT      -0.834000       15.9994           0   0.00000       0.00000    
     44835 TIP3     6640     TIP3     H1       HT       0.417000       1.00800           0   0.00000       0.00000    
     44836 TIP3     6640     TIP3     H2       HT       0.417000       1.00800           0   0.00000     -0.301140E-02
     44837 TIP3     6641     TIP3     OH2      OT      -0.834000       15.9994           0   0.00000       0.00000    
     44838 TIP3     6641     TIP3     H1       HT       0.417000       1.00800           0   0.00000       0.00000    
     44839 TIP3     6641     TIP3     H2       HT       0.417000       1.00800           0   0.00000     -0.301140E-02
     44840 TIP3     6642     TIP3     OH2      OT      -0.834000       15.9994           0   0.00000       0.00000    
     44841 TIP3     6642     TIP3     H1       HT       0.417000       1.00800           0   0.00000       0.00000    
     44842 TIP3     6642     TIP3     H2       HT       0.417000       1.00800           0   0.00000     -0.301140E-02
     44843 TIP3     6643     TIP3     OH2      OT      -0.834000       15.9994           0   0.00000       0.00000    
     44844 TIP3     6643     TIP3     H1       HT       0.417000       1.00800           0   0.00000       0.00000    
     44845 TIP3     6643     TIP3     H2       HT       0.417000       1.00800           0   0.00000     -0.301140E-02
     44846 TIP3     6644     TIP3     OH2      OT      -0.834000       15.9994           0   0.00000       0.00000    
     44847 TIP3     6644     TIP3     H1       HT       0.417000       1.00800           0   0.00000       0.00000    
     44848 TIP3     6644     TIP3     H2       HT       0.417000       1.00800           0   0.00000     -0.301140E-02
     44849 TIP3     6645     TIP3     OH2      OT      -0.834000       15.9994           0   0.00000       0.00000    
     44850 TIP3     6645     TIP3     H1       HT       0.417000       1.00800           0   0.00000       0.00000    
     44851 TIP3     6645     TIP3     H2       HT       0.417000       1.00800           0   0.00000     -0.301140E-02
     44852 TIP3     6646     TIP3     OH2      OT      -0.834000       15.9994           0   0.00000       0.00000    
     44853 TIP3     6646     TIP3     H1       HT       0.417000       1.00800           0   0.00000       0.00000    
     44854 TIP3     6646     TIP3     H2       HT       0.417000       1.00800           0   0.00000     -0.301140E-02
     44855 TIP3     6647     TIP3     OH2      OT      -0.834000       15.9994           0   0.00000       0.00000    
     44856 TIP3     6647     TIP3     H1       HT       0.417000       1.00800           0   0.00000       0.00000    
     44857 TIP3     6647     TIP3     H2       HT       0.417000       1.00800           0   0.00000     -0.301140E-02
     44858 TIP3     6648     TIP3     OH2      OT      -0.834000       15.9994           0   0.00000       0.00000    
     44859 TIP3     6648     TIP3     H1       HT       0.417000       1.00800           0   0.00000       0.00000    
     44860 TIP3     6648     TIP3     H2       HT       0.417000       1.00800           0   0.00000     -0.301140E-02
     44861 TIP3     6649     TIP3     OH2      OT      -0.834000       15.9994           0   0.00000       0.00000    
     44862 TIP3     6649     TIP3     H1       HT       0.417000       1.00800           0   0.00000       0.00000    
     44863 TIP3     6649     TIP3     H2       HT       0.417000       1.00800           0   0.00000     -0.301140E-02
     44864 TIP3     6650     TIP3     OH2      OT      -0.834000       15.9994           0   0.00000       0.00000    
     44865 TIP3     6650     TIP3     H1       HT       0.417000       1.00800           0   0.00000       0.00000    
     44866 TIP3     6650     TIP3     H2       HT       0.417000       1.00800           0   0.00000     -0.301140E-02
     44867 TIP3     6651     TIP3     OH2      OT      -0.834000       15.9994           0   0.00000       0.00000    
     44868 TIP3     6651     TIP3     H1       HT       0.417000       1.00800           0   0.00000       0.00000    
     44869 TIP3     6651     TIP3     H2       HT       0.417000       1.00800           0   0.00000     -0.301140E-02
     44870 TIP3     6652     TIP3     OH2      OT      -0.834000       15.9994           0   0.00000       0.00000    
     44871 TIP3     6652     TIP3     H1       HT       0.417000       1.00800           0   0.00000       0.00000    
     44872 TIP3     6652     TIP3     H2       HT       0.417000       1.00800           0   0.00000     -0.301140E-02
     44873 TIP3     6653     TIP3     OH2      OT      -0.834000       15.9994           0   0.00000       0.00000    
     44874 TIP3     6653     TIP3     H1       HT       0.417000       1.00800           0   0.00000       0.00000    
     44875 TIP3     6653     TIP3     H2       HT       0.417000       1.00800           0   0.00000     -0.301140E-02
     44876 TIP3     6654     TIP3     OH2      OT      -0.834000       15.9994           0   0.00000       0.00000    
     44877 TIP3     6654     TIP3     H1       HT       0.417000       1.00800           0   0.00000       0.00000    
     44878 TIP3     6654     TIP3     H2       HT       0.417000       1.00800           0   0.00000     -0.301140E-02
     44879 TIP3     6655     TIP3     OH2      OT      -0.834000       15.9994           0   0.00000       0.00000    
     44880 TIP3     6655     TIP3     H1       HT       0.417000       1.00800           0   0.00000       0.00000    
     44881 TIP3     6655     TIP3     H2       HT       0.417000       1.00800           0   0.00000     -0.301140E-02
     44882 TIP3     6656     TIP3     OH2      OT      -0.834000       15.9994           0   0.00000       0.00000    
     44883 TIP3     6656     TIP3     H1       HT       0.417000       1.00800           0   0.00000       0.00000    
     44884 TIP3     6656     TIP3     H2       HT       0.417000       1.00800           0   0.00000     -0.301140E-02
     44885 TIP3     6657     TIP3     OH2      OT      -0.834000       15.9994           0   0.00000       0.00000    
     44886 TIP3     6657     TIP3     H1       HT       0.417000       1.00800           0   0.00000       0.00000    
     44887 TIP3     6657     TIP3     H2       HT       0.417000       1.00800           0   0.00000     -0.301140E-02
     44888 TIP3     6658     TIP3     OH2      OT      -0.834000       15.9994           0   0.00000       0.00000    
     44889 TIP3     6658     TIP3     H1       HT       0.417000       1.00800           0   0.00000       0.00000    
     44890 TIP3     6658     TIP3     H2       HT       0.417000       1.00800           0   0.00000     -0.301140E-02
     44891 TIP3     6659     TIP3     OH2      OT      -0.834000       15.9994           0   0.00000       0.00000    
     44892 TIP3     6659     TIP3     H1       HT       0.417000       1.00800           0   0.00000       0.00000    
     44893 TIP3     6659     TIP3     H2       HT       0.417000       1.00800           0   0.00000     -0.301140E-02
     44894 TIP3     6660     TIP3     OH2      OT      -0.834000       15.9994           0   0.00000       0.00000    
     44895 TIP3     6660     TIP3     H1       HT       0.417000       1.00800           0   0.00000       0.00000    
     44896 TIP3     6660     TIP3     H2       HT       0.417000       1.00800           0   0.00000     -0.301140E-02
     44897 TIP3     6661     TIP3     OH2      OT      -0.834000       15.9994           0   0.00000       0.00000    
     44898 TIP3     6661     TIP3     H1       HT       0.417000       1.00800           0   0.00000       0.00000    
     44899 TIP3     6661     TIP3     H2       HT       0.417000       1.00800           0   0.00000     -0.301140E-02
     44900 TIP3     6662     TIP3     OH2      OT      -0.834000       15.9994           0   0.00000       0.00000    
     44901 TIP3     6662     TIP3     H1       HT       0.417000       1.00800           0   0.00000       0.00000    
     44902 TIP3     6662     TIP3     H2       HT       0.417000       1.00800           0   0.00000     -0.301140E-02
     44903 TIP3     6663     TIP3     OH2      OT      -0.834000       15.9994           0   0.00000       0.00000    
     44904 TIP3     6663     TIP3     H1       HT       0.417000       1.00800           0   0.00000       0.00000    
     44905 TIP3     6663     TIP3     H2       HT       0.417000       1.00800           0   0.00000     -0.301140E-02
     44906 TIP3     6664     TIP3     OH2      OT      -0.834000       15.9994           0   0.00000       0.00000    
     44907 TIP3     6664     TIP3     H1       HT       0.417000       1.00800           0   0.00000       0.00000    
     44908 TIP3     6664     TIP3     H2       HT       0.417000       1.00800           0   0.00000     -0.301140E-02
     44909 TIP3     6665     TIP3     OH2      OT      -0.834000       15.9994           0   0.00000       0.00000    
     44910 TIP3     6665     TIP3     H1       HT       0.417000       1.00800           0   0.00000       0.00000    
     44911 TIP3     6665     TIP3     H2       HT       0.417000       1.00800           0   0.00000     -0.301140E-02
     44912 TIP3     6666     TIP3     OH2      OT      -0.834000       15.9994           0   0.00000       0.00000    
     44913 TIP3     6666     TIP3     H1       HT       0.417000       1.00800           0   0.00000       0.00000    
     44914 TIP3     6666     TIP3     H2       HT       0.417000       1.00800           0   0.00000     -0.301140E-02
     44915 TIP3     6667     TIP3     OH2      OT      -0.834000       15.9994           0   0.00000       0.00000    
     44916 TIP3     6667     TIP3     H1       HT       0.417000       1.00800           0   0.00000       0.00000    
     44917 TIP3     6667     TIP3     H2       HT       0.417000       1.00800           0   0.00000     -0.301140E-02
     44918 TIP3     6668     TIP3     OH2      OT      -0.834000       15.9994           0   0.00000       0.00000    
     44919 TIP3     6668     TIP3     H1       HT       0.417000       1.00800           0   0.00000       0.00000    
     44920 TIP3     6668     TIP3     H2       HT       0.417000       1.00800           0   0.00000     -0.301140E-02
     44921 TIP3     6669     TIP3     OH2      OT      -0.834000       15.9994           0   0.00000       0.00000    
     44922 TIP3     6669     TIP3     H1       HT       0.417000       1.00800           0   0.00000       0.00000    
     44923 TIP3     6669     TIP3     H2       HT       0.417000       1.00800           0   0.00000     -0.301140E-02
     44924 TIP3     6670     TIP3     OH2      OT      -0.834000       15.9994           0   0.00000       0.00000    
     44925 TIP3     6670     TIP3     H1       HT       0.417000       1.00800           0   0.00000       0.00000    
     44926 TIP3     6670     TIP3     H2       HT       0.417000       1.00800           0   0.00000     -0.301140E-02
     44927 TIP3     6671     TIP3     OH2      OT      -0.834000       15.9994           0   0.00000       0.00000    
     44928 TIP3     6671     TIP3     H1       HT       0.417000       1.00800           0   0.00000       0.00000    
     44929 TIP3     6671     TIP3     H2       HT       0.417000       1.00800           0   0.00000     -0.301140E-02
     44930 TIP3     6672     TIP3     OH2      OT      -0.834000       15.9994           0   0.00000       0.00000    
     44931 TIP3     6672     TIP3     H1       HT       0.417000       1.00800           0   0.00000       0.00000    
     44932 TIP3     6672     TIP3     H2       HT       0.417000       1.00800           0   0.00000     -0.301140E-02
     44933 TIP3     6673     TIP3     OH2      OT      -0.834000       15.9994           0   0.00000       0.00000    
     44934 TIP3     6673     TIP3     H1       HT       0.417000       1.00800           0   0.00000       0.00000    
     44935 TIP3     6673     TIP3     H2       HT       0.417000       1.00800           0   0.00000     -0.301140E-02
     44936 TIP3     6674     TIP3     OH2      OT      -0.834000       15.9994           0   0.00000       0.00000    
     44937 TIP3     6674     TIP3     H1       HT       0.417000       1.00800           0   0.00000       0.00000    
     44938 TIP3     6674     TIP3     H2       HT       0.417000       1.00800           0   0.00000     -0.301140E-02
     44939 TIP3     6675     TIP3     OH2      OT      -0.834000       15.9994           0   0.00000       0.00000    
     44940 TIP3     6675     TIP3     H1       HT       0.417000       1.00800           0   0.00000       0.00000    
     44941 TIP3     6675     TIP3     H2       HT       0.417000       1.00800           0   0.00000     -0.301140E-02
     44942 TIP3     6676     TIP3     OH2      OT      -0.834000       15.9994           0   0.00000       0.00000    
     44943 TIP3     6676     TIP3     H1       HT       0.417000       1.00800           0   0.00000       0.00000    
     44944 TIP3     6676     TIP3     H2       HT       0.417000       1.00800           0   0.00000     -0.301140E-02
     44945 TIP3     6677     TIP3     OH2      OT      -0.834000       15.9994           0   0.00000       0.00000    
     44946 TIP3     6677     TIP3     H1       HT       0.417000       1.00800           0   0.00000       0.00000    
     44947 TIP3     6677     TIP3     H2       HT       0.417000       1.00800           0   0.00000     -0.301140E-02
     44948 TIP3     6678     TIP3     OH2      OT      -0.834000       15.9994           0   0.00000       0.00000    
     44949 TIP3     6678     TIP3     H1       HT       0.417000       1.00800           0   0.00000       0.00000    
     44950 TIP3     6678     TIP3     H2       HT       0.417000       1.00800           0   0.00000     -0.301140E-02
     44951 TIP3     6679     TIP3     OH2      OT      -0.834000       15.9994           0   0.00000       0.00000    
     44952 TIP3     6679     TIP3     H1       HT       0.417000       1.00800           0   0.00000       0.00000    
     44953 TIP3     6679     TIP3     H2       HT       0.417000       1.00800           0   0.00000     -0.301140E-02
     44954 TIP3     6680     TIP3     OH2      OT      -0.834000       15.9994           0   0.00000       0.00000    
     44955 TIP3     6680     TIP3     H1       HT       0.417000       1.00800           0   0.00000       0.00000    
     44956 TIP3     6680     TIP3     H2       HT       0.417000       1.00800           0   0.00000     -0.301140E-02
     44957 TIP3     6681     TIP3     OH2      OT      -0.834000       15.9994           0   0.00000       0.00000    
     44958 TIP3     6681     TIP3     H1       HT       0.417000       1.00800           0   0.00000       0.00000    
     44959 TIP3     6681     TIP3     H2       HT       0.417000       1.00800           0   0.00000     -0.301140E-02
     44960 TIP3     6682     TIP3     OH2      OT      -0.834000       15.9994           0   0.00000       0.00000    
     44961 TIP3     6682     TIP3     H1       HT       0.417000       1.00800           0   0.00000       0.00000    
     44962 TIP3     6682     TIP3     H2       HT       0.417000       1.00800           0   0.00000     -0.301140E-02
     44963 TIP3     6683     TIP3     OH2      OT      -0.834000       15.9994           0   0.00000       0.00000    
     44964 TIP3     6683     TIP3     H1       HT       0.417000       1.00800           0   0.00000       0.00000    
     44965 TIP3     6683     TIP3     H2       HT       0.417000       1.00800           0   0.00000     -0.301140E-02
     44966 TIP3     6684     TIP3     OH2      OT      -0.834000       15.9994           0   0.00000       0.00000    
     44967 TIP3     6684     TIP3     H1       HT       0.417000       1.00800           0   0.00000       0.00000    
     44968 TIP3     6684     TIP3     H2       HT       0.417000       1.00800           0   0.00000     -0.301140E-02
     44969 TIP3     6685     TIP3     OH2      OT      -0.834000       15.9994           0   0.00000       0.00000    
     44970 TIP3     6685     TIP3     H1       HT       0.417000       1.00800           0   0.00000       0.00000    
     44971 TIP3     6685     TIP3     H2       HT       0.417000       1.00800           0   0.00000     -0.301140E-02
     44972 TIP3     6686     TIP3     OH2      OT      -0.834000       15.9994           0   0.00000       0.00000    
     44973 TIP3     6686     TIP3     H1       HT       0.417000       1.00800           0   0.00000       0.00000    
     44974 TIP3     6686     TIP3     H2       HT       0.417000       1.00800           0   0.00000     -0.301140E-02
     44975 TIP3     6687     TIP3     OH2      OT      -0.834000       15.9994           0   0.00000       0.00000    
     44976 TIP3     6687     TIP3     H1       HT       0.417000       1.00800           0   0.00000       0.00000    
     44977 TIP3     6687     TIP3     H2       HT       0.417000       1.00800           0   0.00000     -0.301140E-02
     44978 TIP3     6688     TIP3     OH2      OT      -0.834000       15.9994           0   0.00000       0.00000    
     44979 TIP3     6688     TIP3     H1       HT       0.417000       1.00800           0   0.00000       0.00000    
     44980 TIP3     6688     TIP3     H2       HT       0.417000       1.00800           0   0.00000     -0.301140E-02
     44981 TIP3     6689     TIP3     OH2      OT      -0.834000       15.9994           0   0.00000       0.00000    
     44982 TIP3     6689     TIP3     H1       HT       0.417000       1.00800           0   0.00000       0.00000    
     44983 TIP3     6689     TIP3     H2       HT       0.417000       1.00800           0   0.00000     -0.301140E-02
     44984 TIP3     6690     TIP3     OH2      OT      -0.834000       15.9994           0   0.00000       0.00000    
     44985 TIP3     6690     TIP3     H1       HT       0.417000       1.00800           0   0.00000       0.00000    
     44986 TIP3     6690     TIP3     H2       HT       0.417000       1.00800           0   0.00000     -0.301140E-02
     44987 TIP3     6691     TIP3     OH2      OT      -0.834000       15.9994           0   0.00000       0.00000    
     44988 TIP3     6691     TIP3     H1       HT       0.417000       1.00800           0   0.00000       0.00000    
     44989 TIP3     6691     TIP3     H2       HT       0.417000       1.00800           0   0.00000     -0.301140E-02
     44990 TIP3     6692     TIP3     OH2      OT      -0.834000       15.9994           0   0.00000       0.00000    
     44991 TIP3     6692     TIP3     H1       HT       0.417000       1.00800           0   0.00000       0.00000    
     44992 TIP3     6692     TIP3     H2       HT       0.417000       1.00800           0   0.00000     -0.301140E-02
     44993 TIP3     6693     TIP3     OH2      OT      -0.834000       15.9994           0   0.00000       0.00000    
     44994 TIP3     6693     TIP3     H1       HT       0.417000       1.00800           0   0.00000       0.00000    
     44995 TIP3     6693     TIP3     H2       HT       0.417000       1.00800           0   0.00000     -0.301140E-02
     44996 TIP3     6694     TIP3     OH2      OT      -0.834000       15.9994           0   0.00000       0.00000    
     44997 TIP3     6694     TIP3     H1       HT       0.417000       1.00800           0   0.00000       0.00000    
     44998 TIP3     6694     TIP3     H2       HT       0.417000       1.00800           0   0.00000     -0.301140E-02
     44999 TIP3     6695     TIP3     OH2      OT      -0.834000       15.9994           0   0.00000       0.00000    
     45000 TIP3     6695     TIP3     H1       HT       0.417000       1.00800           0   0.00000       0.00000    
     45001 TIP3     6695     TIP3     H2       HT       0.417000       1.00800           0   0.00000     -0.301140E-02
     45002 TIP3     6696     TIP3     OH2      OT      -0.834000       15.9994           0   0.00000       0.00000    
     45003 TIP3     6696     TIP3     H1       HT       0.417000       1.00800           0   0.00000       0.00000    
     45004 TIP3     6696     TIP3     H2       HT       0.417000       1.00800           0   0.00000     -0.301140E-02
     45005 TIP3     6697     TIP3     OH2      OT      -0.834000       15.9994           0   0.00000       0.00000    
     45006 TIP3     6697     TIP3     H1       HT       0.417000       1.00800           0   0.00000       0.00000    
     45007 TIP3     6697     TIP3     H2       HT       0.417000       1.00800           0   0.00000     -0.301140E-02
     45008 TIP3     6698     TIP3     OH2      OT      -0.834000       15.9994           0   0.00000       0.00000    
     45009 TIP3     6698     TIP3     H1       HT       0.417000       1.00800           0   0.00000       0.00000    
     45010 TIP3     6698     TIP3     H2       HT       0.417000       1.00800           0   0.00000     -0.301140E-02
     45011 TIP3     6699     TIP3     OH2      OT      -0.834000       15.9994           0   0.00000       0.00000    
     45012 TIP3     6699     TIP3     H1       HT       0.417000       1.00800           0   0.00000       0.00000    
     45013 TIP3     6699     TIP3     H2       HT       0.417000       1.00800           0   0.00000     -0.301140E-02
     45014 TIP3     6700     TIP3     OH2      OT      -0.834000       15.9994           0   0.00000       0.00000    
     45015 TIP3     6700     TIP3     H1       HT       0.417000       1.00800           0   0.00000       0.00000    
     45016 TIP3     6700     TIP3     H2       HT       0.417000       1.00800           0   0.00000     -0.301140E-02
     45017 TIP3     6701     TIP3     OH2      OT      -0.834000       15.9994           0   0.00000       0.00000    
     45018 TIP3     6701     TIP3     H1       HT       0.417000       1.00800           0   0.00000       0.00000    
     45019 TIP3     6701     TIP3     H2       HT       0.417000       1.00800           0   0.00000     -0.301140E-02
     45020 TIP3     6702     TIP3     OH2      OT      -0.834000       15.9994           0   0.00000       0.00000    
     45021 TIP3     6702     TIP3     H1       HT       0.417000       1.00800           0   0.00000       0.00000    
     45022 TIP3     6702     TIP3     H2       HT       0.417000       1.00800           0   0.00000     -0.301140E-02
     45023 TIP3     6703     TIP3     OH2      OT      -0.834000       15.9994           0   0.00000       0.00000    
     45024 TIP3     6703     TIP3     H1       HT       0.417000       1.00800           0   0.00000       0.00000    
     45025 TIP3     6703     TIP3     H2       HT       0.417000       1.00800           0   0.00000     -0.301140E-02
     45026 TIP3     6704     TIP3     OH2      OT      -0.834000       15.9994           0   0.00000       0.00000    
     45027 TIP3     6704     TIP3     H1       HT       0.417000       1.00800           0   0.00000       0.00000    
     45028 TIP3     6704     TIP3     H2       HT       0.417000       1.00800           0   0.00000     -0.301140E-02
     45029 TIP3     6705     TIP3     OH2      OT      -0.834000       15.9994           0   0.00000       0.00000    
     45030 TIP3     6705     TIP3     H1       HT       0.417000       1.00800           0   0.00000       0.00000    
     45031 TIP3     6705     TIP3     H2       HT       0.417000       1.00800           0   0.00000     -0.301140E-02
     45032 TIP3     6706     TIP3     OH2      OT      -0.834000       15.9994           0   0.00000       0.00000    
     45033 TIP3     6706     TIP3     H1       HT       0.417000       1.00800           0   0.00000       0.00000    
     45034 TIP3     6706     TIP3     H2       HT       0.417000       1.00800           0   0.00000     -0.301140E-02
     45035 TIP3     6707     TIP3     OH2      OT      -0.834000       15.9994           0   0.00000       0.00000    
     45036 TIP3     6707     TIP3     H1       HT       0.417000       1.00800           0   0.00000       0.00000    
     45037 TIP3     6707     TIP3     H2       HT       0.417000       1.00800           0   0.00000     -0.301140E-02
     45038 TIP3     6708     TIP3     OH2      OT      -0.834000       15.9994           0   0.00000       0.00000    
     45039 TIP3     6708     TIP3     H1       HT       0.417000       1.00800           0   0.00000       0.00000    
     45040 TIP3     6708     TIP3     H2       HT       0.417000       1.00800           0   0.00000     -0.301140E-02
     45041 TIP3     6709     TIP3     OH2      OT      -0.834000       15.9994           0   0.00000       0.00000    
     45042 TIP3     6709     TIP3     H1       HT       0.417000       1.00800           0   0.00000       0.00000    
     45043 TIP3     6709     TIP3     H2       HT       0.417000       1.00800           0   0.00000     -0.301140E-02
     45044 TIP3     6710     TIP3     OH2      OT      -0.834000       15.9994           0   0.00000       0.00000    
     45045 TIP3     6710     TIP3     H1       HT       0.417000       1.00800           0   0.00000       0.00000    
     45046 TIP3     6710     TIP3     H2       HT       0.417000       1.00800           0   0.00000     -0.301140E-02
     45047 TIP3     6711     TIP3     OH2      OT      -0.834000       15.9994           0   0.00000       0.00000    
     45048 TIP3     6711     TIP3     H1       HT       0.417000       1.00800           0   0.00000       0.00000    
     45049 TIP3     6711     TIP3     H2       HT       0.417000       1.00800           0   0.00000     -0.301140E-02
     45050 TIP3     6712     TIP3     OH2      OT      -0.834000       15.9994           0   0.00000       0.00000    
     45051 TIP3     6712     TIP3     H1       HT       0.417000       1.00800           0   0.00000       0.00000    
     45052 TIP3     6712     TIP3     H2       HT       0.417000       1.00800           0   0.00000     -0.301140E-02
     45053 TIP3     6713     TIP3     OH2      OT      -0.834000       15.9994           0   0.00000       0.00000    
     45054 TIP3     6713     TIP3     H1       HT       0.417000       1.00800           0   0.00000       0.00000    
     45055 TIP3     6713     TIP3     H2       HT       0.417000       1.00800           0   0.00000     -0.301140E-02
     45056 TIP3     6714     TIP3     OH2      OT      -0.834000       15.9994           0   0.00000       0.00000    
     45057 TIP3     6714     TIP3     H1       HT       0.417000       1.00800           0   0.00000       0.00000    
     45058 TIP3     6714     TIP3     H2       HT       0.417000       1.00800           0   0.00000     -0.301140E-02
     45059 TIP3     6715     TIP3     OH2      OT      -0.834000       15.9994           0   0.00000       0.00000    
     45060 TIP3     6715     TIP3     H1       HT       0.417000       1.00800           0   0.00000       0.00000    
     45061 TIP3     6715     TIP3     H2       HT       0.417000       1.00800           0   0.00000     -0.301140E-02
     45062 TIP3     6716     TIP3     OH2      OT      -0.834000       15.9994           0   0.00000       0.00000    
     45063 TIP3     6716     TIP3     H1       HT       0.417000       1.00800           0   0.00000       0.00000    
     45064 TIP3     6716     TIP3     H2       HT       0.417000       1.00800           0   0.00000     -0.301140E-02
     45065 TIP3     6717     TIP3     OH2      OT      -0.834000       15.9994           0   0.00000       0.00000    
     45066 TIP3     6717     TIP3     H1       HT       0.417000       1.00800           0   0.00000       0.00000    
     45067 TIP3     6717     TIP3     H2       HT       0.417000       1.00800           0   0.00000     -0.301140E-02
     45068 TIP3     6718     TIP3     OH2      OT      -0.834000       15.9994           0   0.00000       0.00000    
     45069 TIP3     6718     TIP3     H1       HT       0.417000       1.00800           0   0.00000       0.00000    
     45070 TIP3     6718     TIP3     H2       HT       0.417000       1.00800           0   0.00000     -0.301140E-02
     45071 TIP3     6719     TIP3     OH2      OT      -0.834000       15.9994           0   0.00000       0.00000    
     45072 TIP3     6719     TIP3     H1       HT       0.417000       1.00800           0   0.00000       0.00000    
     45073 TIP3     6719     TIP3     H2       HT       0.417000       1.00800           0   0.00000     -0.301140E-02
     45074 TIP3     6720     TIP3     OH2      OT      -0.834000       15.9994           0   0.00000       0.00000    
     45075 TIP3     6720     TIP3     H1       HT       0.417000       1.00800           0   0.00000       0.00000    
     45076 TIP3     6720     TIP3     H2       HT       0.417000       1.00800           0   0.00000     -0.301140E-02
     45077 TIP3     6721     TIP3     OH2      OT      -0.834000       15.9994           0   0.00000       0.00000    
     45078 TIP3     6721     TIP3     H1       HT       0.417000       1.00800           0   0.00000       0.00000    
     45079 TIP3     6721     TIP3     H2       HT       0.417000       1.00800           0   0.00000     -0.301140E-02
     45080 TIP3     6722     TIP3     OH2      OT      -0.834000       15.9994           0   0.00000       0.00000    
     45081 TIP3     6722     TIP3     H1       HT       0.417000       1.00800           0   0.00000       0.00000    
     45082 TIP3     6722     TIP3     H2       HT       0.417000       1.00800           0   0.00000     -0.301140E-02
     45083 TIP3     6723     TIP3     OH2      OT      -0.834000       15.9994           0   0.00000       0.00000    
     45084 TIP3     6723     TIP3     H1       HT       0.417000       1.00800           0   0.00000       0.00000    
     45085 TIP3     6723     TIP3     H2       HT       0.417000       1.00800           0   0.00000     -0.301140E-02
     45086 TIP3     6724     TIP3     OH2      OT      -0.834000       15.9994           0   0.00000       0.00000    
     45087 TIP3     6724     TIP3     H1       HT       0.417000       1.00800           0   0.00000       0.00000    
     45088 TIP3     6724     TIP3     H2       HT       0.417000       1.00800           0   0.00000     -0.301140E-02
     45089 TIP3     6725     TIP3     OH2      OT      -0.834000       15.9994           0   0.00000       0.00000    
     45090 TIP3     6725     TIP3     H1       HT       0.417000       1.00800           0   0.00000       0.00000    
     45091 TIP3     6725     TIP3     H2       HT       0.417000       1.00800           0   0.00000     -0.301140E-02
     45092 TIP3     6726     TIP3     OH2      OT      -0.834000       15.9994           0   0.00000       0.00000    
     45093 TIP3     6726     TIP3     H1       HT       0.417000       1.00800           0   0.00000       0.00000    
     45094 TIP3     6726     TIP3     H2       HT       0.417000       1.00800           0   0.00000     -0.301140E-02
     45095 TIP3     6727     TIP3     OH2      OT      -0.834000       15.9994           0   0.00000       0.00000    
     45096 TIP3     6727     TIP3     H1       HT       0.417000       1.00800           0   0.00000       0.00000    
     45097 TIP3     6727     TIP3     H2       HT       0.417000       1.00800           0   0.00000     -0.301140E-02
     45098 TIP3     6728     TIP3     OH2      OT      -0.834000       15.9994           0   0.00000       0.00000    
     45099 TIP3     6728     TIP3     H1       HT       0.417000       1.00800           0   0.00000       0.00000    
     45100 TIP3     6728     TIP3     H2       HT       0.417000       1.00800           0   0.00000     -0.301140E-02
     45101 TIP3     6729     TIP3     OH2      OT      -0.834000       15.9994           0   0.00000       0.00000    
     45102 TIP3     6729     TIP3     H1       HT       0.417000       1.00800           0   0.00000       0.00000    
     45103 TIP3     6729     TIP3     H2       HT       0.417000       1.00800           0   0.00000     -0.301140E-02
     45104 TIP3     6730     TIP3     OH2      OT      -0.834000       15.9994           0   0.00000       0.00000    
     45105 TIP3     6730     TIP3     H1       HT       0.417000       1.00800           0   0.00000       0.00000    
     45106 TIP3     6730     TIP3     H2       HT       0.417000       1.00800           0   0.00000     -0.301140E-02
     45107 TIP3     6731     TIP3     OH2      OT      -0.834000       15.9994           0   0.00000       0.00000    
     45108 TIP3     6731     TIP3     H1       HT       0.417000       1.00800           0   0.00000       0.00000    
     45109 TIP3     6731     TIP3     H2       HT       0.417000       1.00800           0   0.00000     -0.301140E-02
     45110 TIP3     6732     TIP3     OH2      OT      -0.834000       15.9994           0   0.00000       0.00000    
     45111 TIP3     6732     TIP3     H1       HT       0.417000       1.00800           0   0.00000       0.00000    
     45112 TIP3     6732     TIP3     H2       HT       0.417000       1.00800           0   0.00000     -0.301140E-02
     45113 TIP3     6733     TIP3     OH2      OT      -0.834000       15.9994           0   0.00000       0.00000    
     45114 TIP3     6733     TIP3     H1       HT       0.417000       1.00800           0   0.00000       0.00000    
     45115 TIP3     6733     TIP3     H2       HT       0.417000       1.00800           0   0.00000     -0.301140E-02
     45116 TIP3     6734     TIP3     OH2      OT      -0.834000       15.9994           0   0.00000       0.00000    
     45117 TIP3     6734     TIP3     H1       HT       0.417000       1.00800           0   0.00000       0.00000    
     45118 TIP3     6734     TIP3     H2       HT       0.417000       1.00800           0   0.00000     -0.301140E-02
     45119 TIP3     6735     TIP3     OH2      OT      -0.834000       15.9994           0   0.00000       0.00000    
     45120 TIP3     6735     TIP3     H1       HT       0.417000       1.00800           0   0.00000       0.00000    
     45121 TIP3     6735     TIP3     H2       HT       0.417000       1.00800           0   0.00000     -0.301140E-02
     45122 TIP3     6736     TIP3     OH2      OT      -0.834000       15.9994           0   0.00000       0.00000    
     45123 TIP3     6736     TIP3     H1       HT       0.417000       1.00800           0   0.00000       0.00000    
     45124 TIP3     6736     TIP3     H2       HT       0.417000       1.00800           0   0.00000     -0.301140E-02
     45125 TIP3     6737     TIP3     OH2      OT      -0.834000       15.9994           0   0.00000       0.00000    
     45126 TIP3     6737     TIP3     H1       HT       0.417000       1.00800           0   0.00000       0.00000    
     45127 TIP3     6737     TIP3     H2       HT       0.417000       1.00800           0   0.00000     -0.301140E-02
     45128 TIP3     6738     TIP3     OH2      OT      -0.834000       15.9994           0   0.00000       0.00000    
     45129 TIP3     6738     TIP3     H1       HT       0.417000       1.00800           0   0.00000       0.00000    
     45130 TIP3     6738     TIP3     H2       HT       0.417000       1.00800           0   0.00000     -0.301140E-02
     45131 TIP3     6739     TIP3     OH2      OT      -0.834000       15.9994           0   0.00000       0.00000    
     45132 TIP3     6739     TIP3     H1       HT       0.417000       1.00800           0   0.00000       0.00000    
     45133 TIP3     6739     TIP3     H2       HT       0.417000       1.00800           0   0.00000     -0.301140E-02
     45134 TIP3     6740     TIP3     OH2      OT      -0.834000       15.9994           0   0.00000       0.00000    
     45135 TIP3     6740     TIP3     H1       HT       0.417000       1.00800           0   0.00000       0.00000    
     45136 TIP3     6740     TIP3     H2       HT       0.417000       1.00800           0   0.00000     -0.301140E-02
     45137 TIP3     6741     TIP3     OH2      OT      -0.834000       15.9994           0   0.00000       0.00000    
     45138 TIP3     6741     TIP3     H1       HT       0.417000       1.00800           0   0.00000       0.00000    
     45139 TIP3     6741     TIP3     H2       HT       0.417000       1.00800           0   0.00000     -0.301140E-02
     45140 TIP3     6742     TIP3     OH2      OT      -0.834000       15.9994           0   0.00000       0.00000    
     45141 TIP3     6742     TIP3     H1       HT       0.417000       1.00800           0   0.00000       0.00000    
     45142 TIP3     6742     TIP3     H2       HT       0.417000       1.00800           0   0.00000     -0.301140E-02
     45143 TIP3     6743     TIP3     OH2      OT      -0.834000       15.9994           0   0.00000       0.00000    
     45144 TIP3     6743     TIP3     H1       HT       0.417000       1.00800           0   0.00000       0.00000    
     45145 TIP3     6743     TIP3     H2       HT       0.417000       1.00800           0   0.00000     -0.301140E-02
     45146 TIP3     6744     TIP3     OH2      OT      -0.834000       15.9994           0   0.00000       0.00000    
     45147 TIP3     6744     TIP3     H1       HT       0.417000       1.00800           0   0.00000       0.00000    
     45148 TIP3     6744     TIP3     H2       HT       0.417000       1.00800           0   0.00000     -0.301140E-02
     45149 TIP3     6745     TIP3     OH2      OT      -0.834000       15.9994           0   0.00000       0.00000    
     45150 TIP3     6745     TIP3     H1       HT       0.417000       1.00800           0   0.00000       0.00000    
     45151 TIP3     6745     TIP3     H2       HT       0.417000       1.00800           0   0.00000     -0.301140E-02
     45152 TIP3     6746     TIP3     OH2      OT      -0.834000       15.9994           0   0.00000       0.00000    
     45153 TIP3     6746     TIP3     H1       HT       0.417000       1.00800           0   0.00000       0.00000    
     45154 TIP3     6746     TIP3     H2       HT       0.417000       1.00800           0   0.00000     -0.301140E-02
     45155 TIP3     6747     TIP3     OH2      OT      -0.834000       15.9994           0   0.00000       0.00000    
     45156 TIP3     6747     TIP3     H1       HT       0.417000       1.00800           0   0.00000       0.00000    
     45157 TIP3     6747     TIP3     H2       HT       0.417000       1.00800           0   0.00000     -0.301140E-02
     45158 TIP3     6748     TIP3     OH2      OT      -0.834000       15.9994           0   0.00000       0.00000    
     45159 TIP3     6748     TIP3     H1       HT       0.417000       1.00800           0   0.00000       0.00000    
     45160 TIP3     6748     TIP3     H2       HT       0.417000       1.00800           0   0.00000     -0.301140E-02
     45161 TIP3     6749     TIP3     OH2      OT      -0.834000       15.9994           0   0.00000       0.00000    
     45162 TIP3     6749     TIP3     H1       HT       0.417000       1.00800           0   0.00000       0.00000    
     45163 TIP3     6749     TIP3     H2       HT       0.417000       1.00800           0   0.00000     -0.301140E-02
     45164 TIP3     6750     TIP3     OH2      OT      -0.834000       15.9994           0   0.00000       0.00000    
     45165 TIP3     6750     TIP3     H1       HT       0.417000       1.00800           0   0.00000       0.00000    
     45166 TIP3     6750     TIP3     H2       HT       0.417000       1.00800           0   0.00000     -0.301140E-02
     45167 TIP3     6751     TIP3     OH2      OT      -0.834000       15.9994           0   0.00000       0.00000    
     45168 TIP3     6751     TIP3     H1       HT       0.417000       1.00800           0   0.00000       0.00000    
     45169 TIP3     6751     TIP3     H2       HT       0.417000       1.00800           0   0.00000     -0.301140E-02
     45170 TIP3     6752     TIP3     OH2      OT      -0.834000       15.9994           0   0.00000       0.00000    
     45171 TIP3     6752     TIP3     H1       HT       0.417000       1.00800           0   0.00000       0.00000    
     45172 TIP3     6752     TIP3     H2       HT       0.417000       1.00800           0   0.00000     -0.301140E-02
     45173 TIP3     6753     TIP3     OH2      OT      -0.834000       15.9994           0   0.00000       0.00000    
     45174 TIP3     6753     TIP3     H1       HT       0.417000       1.00800           0   0.00000       0.00000    
     45175 TIP3     6753     TIP3     H2       HT       0.417000       1.00800           0   0.00000     -0.301140E-02
     45176 TIP3     6754     TIP3     OH2      OT      -0.834000       15.9994           0   0.00000       0.00000    
     45177 TIP3     6754     TIP3     H1       HT       0.417000       1.00800           0   0.00000       0.00000    
     45178 TIP3     6754     TIP3     H2       HT       0.417000       1.00800           0   0.00000     -0.301140E-02
     45179 TIP3     6755     TIP3     OH2      OT      -0.834000       15.9994           0   0.00000       0.00000    
     45180 TIP3     6755     TIP3     H1       HT       0.417000       1.00800           0   0.00000       0.00000    
     45181 TIP3     6755     TIP3     H2       HT       0.417000       1.00800           0   0.00000     -0.301140E-02
     45182 TIP3     6756     TIP3     OH2      OT      -0.834000       15.9994           0   0.00000       0.00000    
     45183 TIP3     6756     TIP3     H1       HT       0.417000       1.00800           0   0.00000       0.00000    
     45184 TIP3     6756     TIP3     H2       HT       0.417000       1.00800           0   0.00000     -0.301140E-02
     45185 TIP3     6757     TIP3     OH2      OT      -0.834000       15.9994           0   0.00000       0.00000    
     45186 TIP3     6757     TIP3     H1       HT       0.417000       1.00800           0   0.00000       0.00000    
     45187 TIP3     6757     TIP3     H2       HT       0.417000       1.00800           0   0.00000     -0.301140E-02
     45188 TIP3     6758     TIP3     OH2      OT      -0.834000       15.9994           0   0.00000       0.00000    
     45189 TIP3     6758     TIP3     H1       HT       0.417000       1.00800           0   0.00000       0.00000    
     45190 TIP3     6758     TIP3     H2       HT       0.417000       1.00800           0   0.00000     -0.301140E-02
     45191 TIP3     6759     TIP3     OH2      OT      -0.834000       15.9994           0   0.00000       0.00000    
     45192 TIP3     6759     TIP3     H1       HT       0.417000       1.00800           0   0.00000       0.00000    
     45193 TIP3     6759     TIP3     H2       HT       0.417000       1.00800           0   0.00000     -0.301140E-02
     45194 TIP3     6760     TIP3     OH2      OT      -0.834000       15.9994           0   0.00000       0.00000    
     45195 TIP3     6760     TIP3     H1       HT       0.417000       1.00800           0   0.00000       0.00000    
     45196 TIP3     6760     TIP3     H2       HT       0.417000       1.00800           0   0.00000     -0.301140E-02
     45197 TIP3     6761     TIP3     OH2      OT      -0.834000       15.9994           0   0.00000       0.00000    
     45198 TIP3     6761     TIP3     H1       HT       0.417000       1.00800           0   0.00000       0.00000    
     45199 TIP3     6761     TIP3     H2       HT       0.417000       1.00800           0   0.00000     -0.301140E-02
     45200 TIP3     6762     TIP3     OH2      OT      -0.834000       15.9994           0   0.00000       0.00000    
     45201 TIP3     6762     TIP3     H1       HT       0.417000       1.00800           0   0.00000       0.00000    
     45202 TIP3     6762     TIP3     H2       HT       0.417000       1.00800           0   0.00000     -0.301140E-02
     45203 TIP3     6763     TIP3     OH2      OT      -0.834000       15.9994           0   0.00000       0.00000    
     45204 TIP3     6763     TIP3     H1       HT       0.417000       1.00800           0   0.00000       0.00000    
     45205 TIP3     6763     TIP3     H2       HT       0.417000       1.00800           0   0.00000     -0.301140E-02
     45206 TIP3     6764     TIP3     OH2      OT      -0.834000       15.9994           0   0.00000       0.00000    
     45207 TIP3     6764     TIP3     H1       HT       0.417000       1.00800           0   0.00000       0.00000    
     45208 TIP3     6764     TIP3     H2       HT       0.417000       1.00800           0   0.00000     -0.301140E-02
     45209 TIP3     6765     TIP3     OH2      OT      -0.834000       15.9994           0   0.00000       0.00000    
     45210 TIP3     6765     TIP3     H1       HT       0.417000       1.00800           0   0.00000       0.00000    
     45211 TIP3     6765     TIP3     H2       HT       0.417000       1.00800           0   0.00000     -0.301140E-02
     45212 TIP3     6766     TIP3     OH2      OT      -0.834000       15.9994           0   0.00000       0.00000    
     45213 TIP3     6766     TIP3     H1       HT       0.417000       1.00800           0   0.00000       0.00000    
     45214 TIP3     6766     TIP3     H2       HT       0.417000       1.00800           0   0.00000     -0.301140E-02
     45215 TIP3     6767     TIP3     OH2      OT      -0.834000       15.9994           0   0.00000       0.00000    
     45216 TIP3     6767     TIP3     H1       HT       0.417000       1.00800           0   0.00000       0.00000    
     45217 TIP3     6767     TIP3     H2       HT       0.417000       1.00800           0   0.00000     -0.301140E-02
     45218 TIP3     6768     TIP3     OH2      OT      -0.834000       15.9994           0   0.00000       0.00000    
     45219 TIP3     6768     TIP3     H1       HT       0.417000       1.00800           0   0.00000       0.00000    
     45220 TIP3     6768     TIP3     H2       HT       0.417000       1.00800           0   0.00000     -0.301140E-02
     45221 TIP3     6769     TIP3     OH2      OT      -0.834000       15.9994           0   0.00000       0.00000    
     45222 TIP3     6769     TIP3     H1       HT       0.417000       1.00800           0   0.00000       0.00000    
     45223 TIP3     6769     TIP3     H2       HT       0.417000       1.00800           0   0.00000     -0.301140E-02
     45224 TIP3     6770     TIP3     OH2      OT      -0.834000       15.9994           0   0.00000       0.00000    
     45225 TIP3     6770     TIP3     H1       HT       0.417000       1.00800           0   0.00000       0.00000    
     45226 TIP3     6770     TIP3     H2       HT       0.417000       1.00800           0   0.00000     -0.301140E-02
     45227 TIP3     6771     TIP3     OH2      OT      -0.834000       15.9994           0   0.00000       0.00000    
     45228 TIP3     6771     TIP3     H1       HT       0.417000       1.00800           0   0.00000       0.00000    
     45229 TIP3     6771     TIP3     H2       HT       0.417000       1.00800           0   0.00000     -0.301140E-02
     45230 TIP3     6772     TIP3     OH2      OT      -0.834000       15.9994           0   0.00000       0.00000    
     45231 TIP3     6772     TIP3     H1       HT       0.417000       1.00800           0   0.00000       0.00000    
     45232 TIP3     6772     TIP3     H2       HT       0.417000       1.00800           0   0.00000     -0.301140E-02
     45233 TIP3     6773     TIP3     OH2      OT      -0.834000       15.9994           0   0.00000       0.00000    
     45234 TIP3     6773     TIP3     H1       HT       0.417000       1.00800           0   0.00000       0.00000    
     45235 TIP3     6773     TIP3     H2       HT       0.417000       1.00800           0   0.00000     -0.301140E-02
     45236 TIP3     6774     TIP3     OH2      OT      -0.834000       15.9994           0   0.00000       0.00000    
     45237 TIP3     6774     TIP3     H1       HT       0.417000       1.00800           0   0.00000       0.00000    
     45238 TIP3     6774     TIP3     H2       HT       0.417000       1.00800           0   0.00000     -0.301140E-02
     45239 TIP3     6775     TIP3     OH2      OT      -0.834000       15.9994           0   0.00000       0.00000    
     45240 TIP3     6775     TIP3     H1       HT       0.417000       1.00800           0   0.00000       0.00000    
     45241 TIP3     6775     TIP3     H2       HT       0.417000       1.00800           0   0.00000     -0.301140E-02
     45242 TIP3     6776     TIP3     OH2      OT      -0.834000       15.9994           0   0.00000       0.00000    
     45243 TIP3     6776     TIP3     H1       HT       0.417000       1.00800           0   0.00000       0.00000    
     45244 TIP3     6776     TIP3     H2       HT       0.417000       1.00800           0   0.00000     -0.301140E-02
     45245 TIP3     6777     TIP3     OH2      OT      -0.834000       15.9994           0   0.00000       0.00000    
     45246 TIP3     6777     TIP3     H1       HT       0.417000       1.00800           0   0.00000       0.00000    
     45247 TIP3     6777     TIP3     H2       HT       0.417000       1.00800           0   0.00000     -0.301140E-02
     45248 TIP3     6778     TIP3     OH2      OT      -0.834000       15.9994           0   0.00000       0.00000    
     45249 TIP3     6778     TIP3     H1       HT       0.417000       1.00800           0   0.00000       0.00000    
     45250 TIP3     6778     TIP3     H2       HT       0.417000       1.00800           0   0.00000     -0.301140E-02
     45251 TIP3     6779     TIP3     OH2      OT      -0.834000       15.9994           0   0.00000       0.00000    
     45252 TIP3     6779     TIP3     H1       HT       0.417000       1.00800           0   0.00000       0.00000    
     45253 TIP3     6779     TIP3     H2       HT       0.417000       1.00800           0   0.00000     -0.301140E-02
     45254 TIP3     6780     TIP3     OH2      OT      -0.834000       15.9994           0   0.00000       0.00000    
     45255 TIP3     6780     TIP3     H1       HT       0.417000       1.00800           0   0.00000       0.00000    
     45256 TIP3     6780     TIP3     H2       HT       0.417000       1.00800           0   0.00000     -0.301140E-02
     45257 TIP3     6781     TIP3     OH2      OT      -0.834000       15.9994           0   0.00000       0.00000    
     45258 TIP3     6781     TIP3     H1       HT       0.417000       1.00800           0   0.00000       0.00000    
     45259 TIP3     6781     TIP3     H2       HT       0.417000       1.00800           0   0.00000     -0.301140E-02
     45260 TIP3     6782     TIP3     OH2      OT      -0.834000       15.9994           0   0.00000       0.00000    
     45261 TIP3     6782     TIP3     H1       HT       0.417000       1.00800           0   0.00000       0.00000    
     45262 TIP3     6782     TIP3     H2       HT       0.417000       1.00800           0   0.00000     -0.301140E-02
     45263 TIP3     6783     TIP3     OH2      OT      -0.834000       15.9994           0   0.00000       0.00000    
     45264 TIP3     6783     TIP3     H1       HT       0.417000       1.00800           0   0.00000       0.00000    
     45265 TIP3     6783     TIP3     H2       HT       0.417000       1.00800           0   0.00000     -0.301140E-02
     45266 TIP3     6784     TIP3     OH2      OT      -0.834000       15.9994           0   0.00000       0.00000    
     45267 TIP3     6784     TIP3     H1       HT       0.417000       1.00800           0   0.00000       0.00000    
     45268 TIP3     6784     TIP3     H2       HT       0.417000       1.00800           0   0.00000     -0.301140E-02
     45269 TIP3     6785     TIP3     OH2      OT      -0.834000       15.9994           0   0.00000       0.00000    
     45270 TIP3     6785     TIP3     H1       HT       0.417000       1.00800           0   0.00000       0.00000    
     45271 TIP3     6785     TIP3     H2       HT       0.417000       1.00800           0   0.00000     -0.301140E-02
     45272 TIP3     6786     TIP3     OH2      OT      -0.834000       15.9994           0   0.00000       0.00000    
     45273 TIP3     6786     TIP3     H1       HT       0.417000       1.00800           0   0.00000       0.00000    
     45274 TIP3     6786     TIP3     H2       HT       0.417000       1.00800           0   0.00000     -0.301140E-02
     45275 TIP3     6787     TIP3     OH2      OT      -0.834000       15.9994           0   0.00000       0.00000    
     45276 TIP3     6787     TIP3     H1       HT       0.417000       1.00800           0   0.00000       0.00000    
     45277 TIP3     6787     TIP3     H2       HT       0.417000       1.00800           0   0.00000     -0.301140E-02
     45278 TIP3     6788     TIP3     OH2      OT      -0.834000       15.9994           0   0.00000       0.00000    
     45279 TIP3     6788     TIP3     H1       HT       0.417000       1.00800           0   0.00000       0.00000    
     45280 TIP3     6788     TIP3     H2       HT       0.417000       1.00800           0   0.00000     -0.301140E-02
     45281 TIP3     6789     TIP3     OH2      OT      -0.834000       15.9994           0   0.00000       0.00000    
     45282 TIP3     6789     TIP3     H1       HT       0.417000       1.00800           0   0.00000       0.00000    
     45283 TIP3     6789     TIP3     H2       HT       0.417000       1.00800           0   0.00000     -0.301140E-02
     45284 TIP3     6790     TIP3     OH2      OT      -0.834000       15.9994           0   0.00000       0.00000    
     45285 TIP3     6790     TIP3     H1       HT       0.417000       1.00800           0   0.00000       0.00000    
     45286 TIP3     6790     TIP3     H2       HT       0.417000       1.00800           0   0.00000     -0.301140E-02
     45287 TIP3     6791     TIP3     OH2      OT      -0.834000       15.9994           0   0.00000       0.00000    
     45288 TIP3     6791     TIP3     H1       HT       0.417000       1.00800           0   0.00000       0.00000    
     45289 TIP3     6791     TIP3     H2       HT       0.417000       1.00800           0   0.00000     -0.301140E-02
     45290 TIP3     6792     TIP3     OH2      OT      -0.834000       15.9994           0   0.00000       0.00000    
     45291 TIP3     6792     TIP3     H1       HT       0.417000       1.00800           0   0.00000       0.00000    
     45292 TIP3     6792     TIP3     H2       HT       0.417000       1.00800           0   0.00000     -0.301140E-02
     45293 TIP3     6793     TIP3     OH2      OT      -0.834000       15.9994           0   0.00000       0.00000    
     45294 TIP3     6793     TIP3     H1       HT       0.417000       1.00800           0   0.00000       0.00000    
     45295 TIP3     6793     TIP3     H2       HT       0.417000       1.00800           0   0.00000     -0.301140E-02
     45296 TIP3     6794     TIP3     OH2      OT      -0.834000       15.9994           0   0.00000       0.00000    
     45297 TIP3     6794     TIP3     H1       HT       0.417000       1.00800           0   0.00000       0.00000    
     45298 TIP3     6794     TIP3     H2       HT       0.417000       1.00800           0   0.00000     -0.301140E-02
     45299 TIP3     6795     TIP3     OH2      OT      -0.834000       15.9994           0   0.00000       0.00000    
     45300 TIP3     6795     TIP3     H1       HT       0.417000       1.00800           0   0.00000       0.00000    
     45301 TIP3     6795     TIP3     H2       HT       0.417000       1.00800           0   0.00000     -0.301140E-02
     45302 TIP3     6796     TIP3     OH2      OT      -0.834000       15.9994           0   0.00000       0.00000    
     45303 TIP3     6796     TIP3     H1       HT       0.417000       1.00800           0   0.00000       0.00000    
     45304 TIP3     6796     TIP3     H2       HT       0.417000       1.00800           0   0.00000     -0.301140E-02
     45305 TIP3     6797     TIP3     OH2      OT      -0.834000       15.9994           0   0.00000       0.00000    
     45306 TIP3     6797     TIP3     H1       HT       0.417000       1.00800           0   0.00000       0.00000    
     45307 TIP3     6797     TIP3     H2       HT       0.417000       1.00800           0   0.00000     -0.301140E-02
     45308 TIP3     6798     TIP3     OH2      OT      -0.834000       15.9994           0   0.00000       0.00000    
     45309 TIP3     6798     TIP3     H1       HT       0.417000       1.00800           0   0.00000       0.00000    
     45310 TIP3     6798     TIP3     H2       HT       0.417000       1.00800           0   0.00000     -0.301140E-02
     45311 TIP3     6799     TIP3     OH2      OT      -0.834000       15.9994           0   0.00000       0.00000    
     45312 TIP3     6799     TIP3     H1       HT       0.417000       1.00800           0   0.00000       0.00000    
     45313 TIP3     6799     TIP3     H2       HT       0.417000       1.00800           0   0.00000     -0.301140E-02
     45314 TIP3     6800     TIP3     OH2      OT      -0.834000       15.9994           0   0.00000       0.00000    
     45315 TIP3     6800     TIP3     H1       HT       0.417000       1.00800           0   0.00000       0.00000    
     45316 TIP3     6800     TIP3     H2       HT       0.417000       1.00800           0   0.00000     -0.301140E-02
     45317 TIP3     6801     TIP3     OH2      OT      -0.834000       15.9994           0   0.00000       0.00000    
     45318 TIP3     6801     TIP3     H1       HT       0.417000       1.00800           0   0.00000       0.00000    
     45319 TIP3     6801     TIP3     H2       HT       0.417000       1.00800           0   0.00000     -0.301140E-02
     45320 TIP3     6802     TIP3     OH2      OT      -0.834000       15.9994           0   0.00000       0.00000    
     45321 TIP3     6802     TIP3     H1       HT       0.417000       1.00800           0   0.00000       0.00000    
     45322 TIP3     6802     TIP3     H2       HT       0.417000       1.00800           0   0.00000     -0.301140E-02
     45323 TIP3     6803     TIP3     OH2      OT      -0.834000       15.9994           0   0.00000       0.00000    
     45324 TIP3     6803     TIP3     H1       HT       0.417000       1.00800           0   0.00000       0.00000    
     45325 TIP3     6803     TIP3     H2       HT       0.417000       1.00800           0   0.00000     -0.301140E-02
     45326 TIP3     6804     TIP3     OH2      OT      -0.834000       15.9994           0   0.00000       0.00000    
     45327 TIP3     6804     TIP3     H1       HT       0.417000       1.00800           0   0.00000       0.00000    
     45328 TIP3     6804     TIP3     H2       HT       0.417000       1.00800           0   0.00000     -0.301140E-02
     45329 TIP3     6805     TIP3     OH2      OT      -0.834000       15.9994           0   0.00000       0.00000    
     45330 TIP3     6805     TIP3     H1       HT       0.417000       1.00800           0   0.00000       0.00000    
     45331 TIP3     6805     TIP3     H2       HT       0.417000       1.00800           0   0.00000     -0.301140E-02
     45332 TIP3     6806     TIP3     OH2      OT      -0.834000       15.9994           0   0.00000       0.00000    
     45333 TIP3     6806     TIP3     H1       HT       0.417000       1.00800           0   0.00000       0.00000    
     45334 TIP3     6806     TIP3     H2       HT       0.417000       1.00800           0   0.00000     -0.301140E-02
     45335 TIP3     6807     TIP3     OH2      OT      -0.834000       15.9994           0   0.00000       0.00000    
     45336 TIP3     6807     TIP3     H1       HT       0.417000       1.00800           0   0.00000       0.00000    
     45337 TIP3     6807     TIP3     H2       HT       0.417000       1.00800           0   0.00000     -0.301140E-02
     45338 TIP3     6808     TIP3     OH2      OT      -0.834000       15.9994           0   0.00000       0.00000    
     45339 TIP3     6808     TIP3     H1       HT       0.417000       1.00800           0   0.00000       0.00000    
     45340 TIP3     6808     TIP3     H2       HT       0.417000       1.00800           0   0.00000     -0.301140E-02
     45341 TIP3     6809     TIP3     OH2      OT      -0.834000       15.9994           0   0.00000       0.00000    
     45342 TIP3     6809     TIP3     H1       HT       0.417000       1.00800           0   0.00000       0.00000    
     45343 TIP3     6809     TIP3     H2       HT       0.417000       1.00800           0   0.00000     -0.301140E-02
     45344 TIP3     6810     TIP3     OH2      OT      -0.834000       15.9994           0   0.00000       0.00000    
     45345 TIP3     6810     TIP3     H1       HT       0.417000       1.00800           0   0.00000       0.00000    
     45346 TIP3     6810     TIP3     H2       HT       0.417000       1.00800           0   0.00000     -0.301140E-02
     45347 TIP3     6811     TIP3     OH2      OT      -0.834000       15.9994           0   0.00000       0.00000    
     45348 TIP3     6811     TIP3     H1       HT       0.417000       1.00800           0   0.00000       0.00000    
     45349 TIP3     6811     TIP3     H2       HT       0.417000       1.00800           0   0.00000     -0.301140E-02
     45350 TIP3     6812     TIP3     OH2      OT      -0.834000       15.9994           0   0.00000       0.00000    
     45351 TIP3     6812     TIP3     H1       HT       0.417000       1.00800           0   0.00000       0.00000    
     45352 TIP3     6812     TIP3     H2       HT       0.417000       1.00800           0   0.00000     -0.301140E-02
     45353 TIP3     6813     TIP3     OH2      OT      -0.834000       15.9994           0   0.00000       0.00000    
     45354 TIP3     6813     TIP3     H1       HT       0.417000       1.00800           0   0.00000       0.00000    
     45355 TIP3     6813     TIP3     H2       HT       0.417000       1.00800           0   0.00000     -0.301140E-02
     45356 TIP3     6814     TIP3     OH2      OT      -0.834000       15.9994           0   0.00000       0.00000    
     45357 TIP3     6814     TIP3     H1       HT       0.417000       1.00800           0   0.00000       0.00000    
     45358 TIP3     6814     TIP3     H2       HT       0.417000       1.00800           0   0.00000     -0.301140E-02
     45359 TIP3     6815     TIP3     OH2      OT      -0.834000       15.9994           0   0.00000       0.00000    
     45360 TIP3     6815     TIP3     H1       HT       0.417000       1.00800           0   0.00000       0.00000    
     45361 TIP3     6815     TIP3     H2       HT       0.417000       1.00800           0   0.00000     -0.301140E-02
     45362 TIP3     6816     TIP3     OH2      OT      -0.834000       15.9994           0   0.00000       0.00000    
     45363 TIP3     6816     TIP3     H1       HT       0.417000       1.00800           0   0.00000       0.00000    
     45364 TIP3     6816     TIP3     H2       HT       0.417000       1.00800           0   0.00000     -0.301140E-02
     45365 TIP3     6817     TIP3     OH2      OT      -0.834000       15.9994           0   0.00000       0.00000    
     45366 TIP3     6817     TIP3     H1       HT       0.417000       1.00800           0   0.00000       0.00000    
     45367 TIP3     6817     TIP3     H2       HT       0.417000       1.00800           0   0.00000     -0.301140E-02
     45368 TIP3     6818     TIP3     OH2      OT      -0.834000       15.9994           0   0.00000       0.00000    
     45369 TIP3     6818     TIP3     H1       HT       0.417000       1.00800           0   0.00000       0.00000    
     45370 TIP3     6818     TIP3     H2       HT       0.417000       1.00800           0   0.00000     -0.301140E-02
     45371 TIP3     6819     TIP3     OH2      OT      -0.834000       15.9994           0   0.00000       0.00000    
     45372 TIP3     6819     TIP3     H1       HT       0.417000       1.00800           0   0.00000       0.00000    
     45373 TIP3     6819     TIP3     H2       HT       0.417000       1.00800           0   0.00000     -0.301140E-02
     45374 TIP3     6820     TIP3     OH2      OT      -0.834000       15.9994           0   0.00000       0.00000    
     45375 TIP3     6820     TIP3     H1       HT       0.417000       1.00800           0   0.00000       0.00000    
     45376 TIP3     6820     TIP3     H2       HT       0.417000       1.00800           0   0.00000     -0.301140E-02
     45377 TIP3     6821     TIP3     OH2      OT      -0.834000       15.9994           0   0.00000       0.00000    
     45378 TIP3     6821     TIP3     H1       HT       0.417000       1.00800           0   0.00000       0.00000    
     45379 TIP3     6821     TIP3     H2       HT       0.417000       1.00800           0   0.00000     -0.301140E-02
     45380 TIP3     6822     TIP3     OH2      OT      -0.834000       15.9994           0   0.00000       0.00000    
     45381 TIP3     6822     TIP3     H1       HT       0.417000       1.00800           0   0.00000       0.00000    
     45382 TIP3     6822     TIP3     H2       HT       0.417000       1.00800           0   0.00000     -0.301140E-02
     45383 TIP3     6823     TIP3     OH2      OT      -0.834000       15.9994           0   0.00000       0.00000    
     45384 TIP3     6823     TIP3     H1       HT       0.417000       1.00800           0   0.00000       0.00000    
     45385 TIP3     6823     TIP3     H2       HT       0.417000       1.00800           0   0.00000     -0.301140E-02
     45386 TIP3     6824     TIP3     OH2      OT      -0.834000       15.9994           0   0.00000       0.00000    
     45387 TIP3     6824     TIP3     H1       HT       0.417000       1.00800           0   0.00000       0.00000    
     45388 TIP3     6824     TIP3     H2       HT       0.417000       1.00800           0   0.00000     -0.301140E-02
     45389 TIP3     6825     TIP3     OH2      OT      -0.834000       15.9994           0   0.00000       0.00000    
     45390 TIP3     6825     TIP3     H1       HT       0.417000       1.00800           0   0.00000       0.00000    
     45391 TIP3     6825     TIP3     H2       HT       0.417000       1.00800           0   0.00000     -0.301140E-02
     45392 TIP3     6826     TIP3     OH2      OT      -0.834000       15.9994           0   0.00000       0.00000    
     45393 TIP3     6826     TIP3     H1       HT       0.417000       1.00800           0   0.00000       0.00000    
     45394 TIP3     6826     TIP3     H2       HT       0.417000       1.00800           0   0.00000     -0.301140E-02
     45395 TIP3     6827     TIP3     OH2      OT      -0.834000       15.9994           0   0.00000       0.00000    
     45396 TIP3     6827     TIP3     H1       HT       0.417000       1.00800           0   0.00000       0.00000    
     45397 TIP3     6827     TIP3     H2       HT       0.417000       1.00800           0   0.00000     -0.301140E-02
     45398 TIP3     6828     TIP3     OH2      OT      -0.834000       15.9994           0   0.00000       0.00000    
     45399 TIP3     6828     TIP3     H1       HT       0.417000       1.00800           0   0.00000       0.00000    
     45400 TIP3     6828     TIP3     H2       HT       0.417000       1.00800           0   0.00000     -0.301140E-02
     45401 TIP3     6829     TIP3     OH2      OT      -0.834000       15.9994           0   0.00000       0.00000    
     45402 TIP3     6829     TIP3     H1       HT       0.417000       1.00800           0   0.00000       0.00000    
     45403 TIP3     6829     TIP3     H2       HT       0.417000       1.00800           0   0.00000     -0.301140E-02
     45404 TIP3     6830     TIP3     OH2      OT      -0.834000       15.9994           0   0.00000       0.00000    
     45405 TIP3     6830     TIP3     H1       HT       0.417000       1.00800           0   0.00000       0.00000    
     45406 TIP3     6830     TIP3     H2       HT       0.417000       1.00800           0   0.00000     -0.301140E-02
     45407 TIP3     6831     TIP3     OH2      OT      -0.834000       15.9994           0   0.00000       0.00000    
     45408 TIP3     6831     TIP3     H1       HT       0.417000       1.00800           0   0.00000       0.00000    
     45409 TIP3     6831     TIP3     H2       HT       0.417000       1.00800           0   0.00000     -0.301140E-02
     45410 TIP3     6832     TIP3     OH2      OT      -0.834000       15.9994           0   0.00000       0.00000    
     45411 TIP3     6832     TIP3     H1       HT       0.417000       1.00800           0   0.00000       0.00000    
     45412 TIP3     6832     TIP3     H2       HT       0.417000       1.00800           0   0.00000     -0.301140E-02
     45413 TIP3     6833     TIP3     OH2      OT      -0.834000       15.9994           0   0.00000       0.00000    
     45414 TIP3     6833     TIP3     H1       HT       0.417000       1.00800           0   0.00000       0.00000    
     45415 TIP3     6833     TIP3     H2       HT       0.417000       1.00800           0   0.00000     -0.301140E-02
     45416 TIP3     6834     TIP3     OH2      OT      -0.834000       15.9994           0   0.00000       0.00000    
     45417 TIP3     6834     TIP3     H1       HT       0.417000       1.00800           0   0.00000       0.00000    
     45418 TIP3     6834     TIP3     H2       HT       0.417000       1.00800           0   0.00000     -0.301140E-02
     45419 TIP3     6835     TIP3     OH2      OT      -0.834000       15.9994           0   0.00000       0.00000    
     45420 TIP3     6835     TIP3     H1       HT       0.417000       1.00800           0   0.00000       0.00000    
     45421 TIP3     6835     TIP3     H2       HT       0.417000       1.00800           0   0.00000     -0.301140E-02
     45422 TIP3     6836     TIP3     OH2      OT      -0.834000       15.9994           0   0.00000       0.00000    
     45423 TIP3     6836     TIP3     H1       HT       0.417000       1.00800           0   0.00000       0.00000    
     45424 TIP3     6836     TIP3     H2       HT       0.417000       1.00800           0   0.00000     -0.301140E-02
     45425 TIP3     6837     TIP3     OH2      OT      -0.834000       15.9994           0   0.00000       0.00000    
     45426 TIP3     6837     TIP3     H1       HT       0.417000       1.00800           0   0.00000       0.00000    
     45427 TIP3     6837     TIP3     H2       HT       0.417000       1.00800           0   0.00000     -0.301140E-02
     45428 TIP3     6838     TIP3     OH2      OT      -0.834000       15.9994           0   0.00000       0.00000    
     45429 TIP3     6838     TIP3     H1       HT       0.417000       1.00800           0   0.00000       0.00000    
     45430 TIP3     6838     TIP3     H2       HT       0.417000       1.00800           0   0.00000     -0.301140E-02
     45431 TIP3     6839     TIP3     OH2      OT      -0.834000       15.9994           0   0.00000       0.00000    
     45432 TIP3     6839     TIP3     H1       HT       0.417000       1.00800           0   0.00000       0.00000    
     45433 TIP3     6839     TIP3     H2       HT       0.417000       1.00800           0   0.00000     -0.301140E-02
     45434 TIP3     6840     TIP3     OH2      OT      -0.834000       15.9994           0   0.00000       0.00000    
     45435 TIP3     6840     TIP3     H1       HT       0.417000       1.00800           0   0.00000       0.00000    
     45436 TIP3     6840     TIP3     H2       HT       0.417000       1.00800           0   0.00000     -0.301140E-02
     45437 TIP3     6841     TIP3     OH2      OT      -0.834000       15.9994           0   0.00000       0.00000    
     45438 TIP3     6841     TIP3     H1       HT       0.417000       1.00800           0   0.00000       0.00000    
     45439 TIP3     6841     TIP3     H2       HT       0.417000       1.00800           0   0.00000     -0.301140E-02
     45440 TIP3     6842     TIP3     OH2      OT      -0.834000       15.9994           0   0.00000       0.00000    
     45441 TIP3     6842     TIP3     H1       HT       0.417000       1.00800           0   0.00000       0.00000    
     45442 TIP3     6842     TIP3     H2       HT       0.417000       1.00800           0   0.00000     -0.301140E-02
     45443 TIP3     6843     TIP3     OH2      OT      -0.834000       15.9994           0   0.00000       0.00000    
     45444 TIP3     6843     TIP3     H1       HT       0.417000       1.00800           0   0.00000       0.00000    
     45445 TIP3     6843     TIP3     H2       HT       0.417000       1.00800           0   0.00000     -0.301140E-02
     45446 TIP3     6844     TIP3     OH2      OT      -0.834000       15.9994           0   0.00000       0.00000    
     45447 TIP3     6844     TIP3     H1       HT       0.417000       1.00800           0   0.00000       0.00000    
     45448 TIP3     6844     TIP3     H2       HT       0.417000       1.00800           0   0.00000     -0.301140E-02
     45449 TIP3     6845     TIP3     OH2      OT      -0.834000       15.9994           0   0.00000       0.00000    
     45450 TIP3     6845     TIP3     H1       HT       0.417000       1.00800           0   0.00000       0.00000    
     45451 TIP3     6845     TIP3     H2       HT       0.417000       1.00800           0   0.00000     -0.301140E-02
     45452 TIP3     6846     TIP3     OH2      OT      -0.834000       15.9994           0   0.00000       0.00000    
     45453 TIP3     6846     TIP3     H1       HT       0.417000       1.00800           0   0.00000       0.00000    
     45454 TIP3     6846     TIP3     H2       HT       0.417000       1.00800           0   0.00000     -0.301140E-02
     45455 TIP3     6847     TIP3     OH2      OT      -0.834000       15.9994           0   0.00000       0.00000    
     45456 TIP3     6847     TIP3     H1       HT       0.417000       1.00800           0   0.00000       0.00000    
     45457 TIP3     6847     TIP3     H2       HT       0.417000       1.00800           0   0.00000     -0.301140E-02
     45458 TIP3     6848     TIP3     OH2      OT      -0.834000       15.9994           0   0.00000       0.00000    
     45459 TIP3     6848     TIP3     H1       HT       0.417000       1.00800           0   0.00000       0.00000    
     45460 TIP3     6848     TIP3     H2       HT       0.417000       1.00800           0   0.00000     -0.301140E-02
     45461 TIP3     6849     TIP3     OH2      OT      -0.834000       15.9994           0   0.00000       0.00000    
     45462 TIP3     6849     TIP3     H1       HT       0.417000       1.00800           0   0.00000       0.00000    
     45463 TIP3     6849     TIP3     H2       HT       0.417000       1.00800           0   0.00000     -0.301140E-02
     45464 TIP3     6850     TIP3     OH2      OT      -0.834000       15.9994           0   0.00000       0.00000    
     45465 TIP3     6850     TIP3     H1       HT       0.417000       1.00800           0   0.00000       0.00000    
     45466 TIP3     6850     TIP3     H2       HT       0.417000       1.00800           0   0.00000     -0.301140E-02
     45467 TIP3     6851     TIP3     OH2      OT      -0.834000       15.9994           0   0.00000       0.00000    
     45468 TIP3     6851     TIP3     H1       HT       0.417000       1.00800           0   0.00000       0.00000    
     45469 TIP3     6851     TIP3     H2       HT       0.417000       1.00800           0   0.00000     -0.301140E-02
     45470 TIP3     6852     TIP3     OH2      OT      -0.834000       15.9994           0   0.00000       0.00000    
     45471 TIP3     6852     TIP3     H1       HT       0.417000       1.00800           0   0.00000       0.00000    
     45472 TIP3     6852     TIP3     H2       HT       0.417000       1.00800           0   0.00000     -0.301140E-02
     45473 TIP3     6853     TIP3     OH2      OT      -0.834000       15.9994           0   0.00000       0.00000    
     45474 TIP3     6853     TIP3     H1       HT       0.417000       1.00800           0   0.00000       0.00000    
     45475 TIP3     6853     TIP3     H2       HT       0.417000       1.00800           0   0.00000     -0.301140E-02
     45476 TIP3     6854     TIP3     OH2      OT      -0.834000       15.9994           0   0.00000       0.00000    
     45477 TIP3     6854     TIP3     H1       HT       0.417000       1.00800           0   0.00000       0.00000    
     45478 TIP3     6854     TIP3     H2       HT       0.417000       1.00800           0   0.00000     -0.301140E-02
     45479 TIP3     6855     TIP3     OH2      OT      -0.834000       15.9994           0   0.00000       0.00000    
     45480 TIP3     6855     TIP3     H1       HT       0.417000       1.00800           0   0.00000       0.00000    
     45481 TIP3     6855     TIP3     H2       HT       0.417000       1.00800           0   0.00000     -0.301140E-02
     45482 TIP3     6856     TIP3     OH2      OT      -0.834000       15.9994           0   0.00000       0.00000    
     45483 TIP3     6856     TIP3     H1       HT       0.417000       1.00800           0   0.00000       0.00000    
     45484 TIP3     6856     TIP3     H2       HT       0.417000       1.00800           0   0.00000     -0.301140E-02
     45485 TIP3     6857     TIP3     OH2      OT      -0.834000       15.9994           0   0.00000       0.00000    
     45486 TIP3     6857     TIP3     H1       HT       0.417000       1.00800           0   0.00000       0.00000    
     45487 TIP3     6857     TIP3     H2       HT       0.417000       1.00800           0   0.00000     -0.301140E-02
     45488 TIP3     6858     TIP3     OH2      OT      -0.834000       15.9994           0   0.00000       0.00000    
     45489 TIP3     6858     TIP3     H1       HT       0.417000       1.00800           0   0.00000       0.00000    
     45490 TIP3     6858     TIP3     H2       HT       0.417000       1.00800           0   0.00000     -0.301140E-02
     45491 TIP3     6859     TIP3     OH2      OT      -0.834000       15.9994           0   0.00000       0.00000    
     45492 TIP3     6859     TIP3     H1       HT       0.417000       1.00800           0   0.00000       0.00000    
     45493 TIP3     6859     TIP3     H2       HT       0.417000       1.00800           0   0.00000     -0.301140E-02
     45494 TIP3     6860     TIP3     OH2      OT      -0.834000       15.9994           0   0.00000       0.00000    
     45495 TIP3     6860     TIP3     H1       HT       0.417000       1.00800           0   0.00000       0.00000    
     45496 TIP3     6860     TIP3     H2       HT       0.417000       1.00800           0   0.00000     -0.301140E-02
     45497 TIP3     6861     TIP3     OH2      OT      -0.834000       15.9994           0   0.00000       0.00000    
     45498 TIP3     6861     TIP3     H1       HT       0.417000       1.00800           0   0.00000       0.00000    
     45499 TIP3     6861     TIP3     H2       HT       0.417000       1.00800           0   0.00000     -0.301140E-02
     45500 TIP3     6862     TIP3     OH2      OT      -0.834000       15.9994           0   0.00000       0.00000    
     45501 TIP3     6862     TIP3     H1       HT       0.417000       1.00800           0   0.00000       0.00000    
     45502 TIP3     6862     TIP3     H2       HT       0.417000       1.00800           0   0.00000     -0.301140E-02
     45503 TIP3     6863     TIP3     OH2      OT      -0.834000       15.9994           0   0.00000       0.00000    
     45504 TIP3     6863     TIP3     H1       HT       0.417000       1.00800           0   0.00000       0.00000    
     45505 TIP3     6863     TIP3     H2       HT       0.417000       1.00800           0   0.00000     -0.301140E-02
     45506 TIP3     6864     TIP3     OH2      OT      -0.834000       15.9994           0   0.00000       0.00000    
     45507 TIP3     6864     TIP3     H1       HT       0.417000       1.00800           0   0.00000       0.00000    
     45508 TIP3     6864     TIP3     H2       HT       0.417000       1.00800           0   0.00000     -0.301140E-02
     45509 TIP3     6865     TIP3     OH2      OT      -0.834000       15.9994           0   0.00000       0.00000    
     45510 TIP3     6865     TIP3     H1       HT       0.417000       1.00800           0   0.00000       0.00000    
     45511 TIP3     6865     TIP3     H2       HT       0.417000       1.00800           0   0.00000     -0.301140E-02
     45512 TIP3     6866     TIP3     OH2      OT      -0.834000       15.9994           0   0.00000       0.00000    
     45513 TIP3     6866     TIP3     H1       HT       0.417000       1.00800           0   0.00000       0.00000    
     45514 TIP3     6866     TIP3     H2       HT       0.417000       1.00800           0   0.00000     -0.301140E-02
     45515 TIP3     6867     TIP3     OH2      OT      -0.834000       15.9994           0   0.00000       0.00000    
     45516 TIP3     6867     TIP3     H1       HT       0.417000       1.00800           0   0.00000       0.00000    
     45517 TIP3     6867     TIP3     H2       HT       0.417000       1.00800           0   0.00000     -0.301140E-02
     45518 TIP3     6868     TIP3     OH2      OT      -0.834000       15.9994           0   0.00000       0.00000    
     45519 TIP3     6868     TIP3     H1       HT       0.417000       1.00800           0   0.00000       0.00000    
     45520 TIP3     6868     TIP3     H2       HT       0.417000       1.00800           0   0.00000     -0.301140E-02
     45521 TIP3     6869     TIP3     OH2      OT      -0.834000       15.9994           0   0.00000       0.00000    
     45522 TIP3     6869     TIP3     H1       HT       0.417000       1.00800           0   0.00000       0.00000    
     45523 TIP3     6869     TIP3     H2       HT       0.417000       1.00800           0   0.00000     -0.301140E-02
     45524 TIP3     6870     TIP3     OH2      OT      -0.834000       15.9994           0   0.00000       0.00000    
     45525 TIP3     6870     TIP3     H1       HT       0.417000       1.00800           0   0.00000       0.00000    
     45526 TIP3     6870     TIP3     H2       HT       0.417000       1.00800           0   0.00000     -0.301140E-02
     45527 TIP3     6871     TIP3     OH2      OT      -0.834000       15.9994           0   0.00000       0.00000    
     45528 TIP3     6871     TIP3     H1       HT       0.417000       1.00800           0   0.00000       0.00000    
     45529 TIP3     6871     TIP3     H2       HT       0.417000       1.00800           0   0.00000     -0.301140E-02
     45530 TIP3     6872     TIP3     OH2      OT      -0.834000       15.9994           0   0.00000       0.00000    
     45531 TIP3     6872     TIP3     H1       HT       0.417000       1.00800           0   0.00000       0.00000    
     45532 TIP3     6872     TIP3     H2       HT       0.417000       1.00800           0   0.00000     -0.301140E-02
     45533 TIP3     6873     TIP3     OH2      OT      -0.834000       15.9994           0   0.00000       0.00000    
     45534 TIP3     6873     TIP3     H1       HT       0.417000       1.00800           0   0.00000       0.00000    
     45535 TIP3     6873     TIP3     H2       HT       0.417000       1.00800           0   0.00000     -0.301140E-02
     45536 TIP3     6874     TIP3     OH2      OT      -0.834000       15.9994           0   0.00000       0.00000    
     45537 TIP3     6874     TIP3     H1       HT       0.417000       1.00800           0   0.00000       0.00000    
     45538 TIP3     6874     TIP3     H2       HT       0.417000       1.00800           0   0.00000     -0.301140E-02
     45539 TIP3     6875     TIP3     OH2      OT      -0.834000       15.9994           0   0.00000       0.00000    
     45540 TIP3     6875     TIP3     H1       HT       0.417000       1.00800           0   0.00000       0.00000    
     45541 TIP3     6875     TIP3     H2       HT       0.417000       1.00800           0   0.00000     -0.301140E-02
     45542 TIP3     6876     TIP3     OH2      OT      -0.834000       15.9994           0   0.00000       0.00000    
     45543 TIP3     6876     TIP3     H1       HT       0.417000       1.00800           0   0.00000       0.00000    
     45544 TIP3     6876     TIP3     H2       HT       0.417000       1.00800           0   0.00000     -0.301140E-02
     45545 TIP3     6877     TIP3     OH2      OT      -0.834000       15.9994           0   0.00000       0.00000    
     45546 TIP3     6877     TIP3     H1       HT       0.417000       1.00800           0   0.00000       0.00000    
     45547 TIP3     6877     TIP3     H2       HT       0.417000       1.00800           0   0.00000     -0.301140E-02
     45548 TIP3     6878     TIP3     OH2      OT      -0.834000       15.9994           0   0.00000       0.00000    
     45549 TIP3     6878     TIP3     H1       HT       0.417000       1.00800           0   0.00000       0.00000    
     45550 TIP3     6878     TIP3     H2       HT       0.417000       1.00800           0   0.00000     -0.301140E-02
     45551 TIP3     6879     TIP3     OH2      OT      -0.834000       15.9994           0   0.00000       0.00000    
     45552 TIP3     6879     TIP3     H1       HT       0.417000       1.00800           0   0.00000       0.00000    
     45553 TIP3     6879     TIP3     H2       HT       0.417000       1.00800           0   0.00000     -0.301140E-02
     45554 TIP3     6880     TIP3     OH2      OT      -0.834000       15.9994           0   0.00000       0.00000    
     45555 TIP3     6880     TIP3     H1       HT       0.417000       1.00800           0   0.00000       0.00000    
     45556 TIP3     6880     TIP3     H2       HT       0.417000       1.00800           0   0.00000     -0.301140E-02
     45557 TIP3     6881     TIP3     OH2      OT      -0.834000       15.9994           0   0.00000       0.00000    
     45558 TIP3     6881     TIP3     H1       HT       0.417000       1.00800           0   0.00000       0.00000    
     45559 TIP3     6881     TIP3     H2       HT       0.417000       1.00800           0   0.00000     -0.301140E-02
     45560 TIP3     6882     TIP3     OH2      OT      -0.834000       15.9994           0   0.00000       0.00000    
     45561 TIP3     6882     TIP3     H1       HT       0.417000       1.00800           0   0.00000       0.00000    
     45562 TIP3     6882     TIP3     H2       HT       0.417000       1.00800           0   0.00000     -0.301140E-02
     45563 TIP3     6883     TIP3     OH2      OT      -0.834000       15.9994           0   0.00000       0.00000    
     45564 TIP3     6883     TIP3     H1       HT       0.417000       1.00800           0   0.00000       0.00000    
     45565 TIP3     6883     TIP3     H2       HT       0.417000       1.00800           0   0.00000     -0.301140E-02
     45566 TIP3     6884     TIP3     OH2      OT      -0.834000       15.9994           0   0.00000       0.00000    
     45567 TIP3     6884     TIP3     H1       HT       0.417000       1.00800           0   0.00000       0.00000    
     45568 TIP3     6884     TIP3     H2       HT       0.417000       1.00800           0   0.00000     -0.301140E-02
     45569 TIP3     6885     TIP3     OH2      OT      -0.834000       15.9994           0   0.00000       0.00000    
     45570 TIP3     6885     TIP3     H1       HT       0.417000       1.00800           0   0.00000       0.00000    
     45571 TIP3     6885     TIP3     H2       HT       0.417000       1.00800           0   0.00000     -0.301140E-02
     45572 TIP3     6886     TIP3     OH2      OT      -0.834000       15.9994           0   0.00000       0.00000    
     45573 TIP3     6886     TIP3     H1       HT       0.417000       1.00800           0   0.00000       0.00000    
     45574 TIP3     6886     TIP3     H2       HT       0.417000       1.00800           0   0.00000     -0.301140E-02
     45575 TIP3     6887     TIP3     OH2      OT      -0.834000       15.9994           0   0.00000       0.00000    
     45576 TIP3     6887     TIP3     H1       HT       0.417000       1.00800           0   0.00000       0.00000    
     45577 TIP3     6887     TIP3     H2       HT       0.417000       1.00800           0   0.00000     -0.301140E-02
     45578 TIP3     6888     TIP3     OH2      OT      -0.834000       15.9994           0   0.00000       0.00000    
     45579 TIP3     6888     TIP3     H1       HT       0.417000       1.00800           0   0.00000       0.00000    
     45580 TIP3     6888     TIP3     H2       HT       0.417000       1.00800           0   0.00000     -0.301140E-02
     45581 TIP3     6889     TIP3     OH2      OT      -0.834000       15.9994           0   0.00000       0.00000    
     45582 TIP3     6889     TIP3     H1       HT       0.417000       1.00800           0   0.00000       0.00000    
     45583 TIP3     6889     TIP3     H2       HT       0.417000       1.00800           0   0.00000     -0.301140E-02
     45584 TIP3     6890     TIP3     OH2      OT      -0.834000       15.9994           0   0.00000       0.00000    
     45585 TIP3     6890     TIP3     H1       HT       0.417000       1.00800           0   0.00000       0.00000    
     45586 TIP3     6890     TIP3     H2       HT       0.417000       1.00800           0   0.00000     -0.301140E-02
     45587 TIP3     6891     TIP3     OH2      OT      -0.834000       15.9994           0   0.00000       0.00000    
     45588 TIP3     6891     TIP3     H1       HT       0.417000       1.00800           0   0.00000       0.00000    
     45589 TIP3     6891     TIP3     H2       HT       0.417000       1.00800           0   0.00000     -0.301140E-02
     45590 TIP3     6892     TIP3     OH2      OT      -0.834000       15.9994           0   0.00000       0.00000    
     45591 TIP3     6892     TIP3     H1       HT       0.417000       1.00800           0   0.00000       0.00000    
     45592 TIP3     6892     TIP3     H2       HT       0.417000       1.00800           0   0.00000     -0.301140E-02
     45593 TIP3     6893     TIP3     OH2      OT      -0.834000       15.9994           0   0.00000       0.00000    
     45594 TIP3     6893     TIP3     H1       HT       0.417000       1.00800           0   0.00000       0.00000    
     45595 TIP3     6893     TIP3     H2       HT       0.417000       1.00800           0   0.00000     -0.301140E-02
     45596 TIP3     6894     TIP3     OH2      OT      -0.834000       15.9994           0   0.00000       0.00000    
     45597 TIP3     6894     TIP3     H1       HT       0.417000       1.00800           0   0.00000       0.00000    
     45598 TIP3     6894     TIP3     H2       HT       0.417000       1.00800           0   0.00000     -0.301140E-02
     45599 TIP3     6895     TIP3     OH2      OT      -0.834000       15.9994           0   0.00000       0.00000    
     45600 TIP3     6895     TIP3     H1       HT       0.417000       1.00800           0   0.00000       0.00000    
     45601 TIP3     6895     TIP3     H2       HT       0.417000       1.00800           0   0.00000     -0.301140E-02
     45602 TIP3     6896     TIP3     OH2      OT      -0.834000       15.9994           0   0.00000       0.00000    
     45603 TIP3     6896     TIP3     H1       HT       0.417000       1.00800           0   0.00000       0.00000    
     45604 TIP3     6896     TIP3     H2       HT       0.417000       1.00800           0   0.00000     -0.301140E-02
     45605 TIP3     6897     TIP3     OH2      OT      -0.834000       15.9994           0   0.00000       0.00000    
     45606 TIP3     6897     TIP3     H1       HT       0.417000       1.00800           0   0.00000       0.00000    
     45607 TIP3     6897     TIP3     H2       HT       0.417000       1.00800           0   0.00000     -0.301140E-02
     45608 TIP3     6898     TIP3     OH2      OT      -0.834000       15.9994           0   0.00000       0.00000    
     45609 TIP3     6898     TIP3     H1       HT       0.417000       1.00800           0   0.00000       0.00000    
     45610 TIP3     6898     TIP3     H2       HT       0.417000       1.00800           0   0.00000     -0.301140E-02
     45611 TIP3     6899     TIP3     OH2      OT      -0.834000       15.9994           0   0.00000       0.00000    
     45612 TIP3     6899     TIP3     H1       HT       0.417000       1.00800           0   0.00000       0.00000    
     45613 TIP3     6899     TIP3     H2       HT       0.417000       1.00800           0   0.00000     -0.301140E-02
     45614 TIP3     6900     TIP3     OH2      OT      -0.834000       15.9994           0   0.00000       0.00000    
     45615 TIP3     6900     TIP3     H1       HT       0.417000       1.00800           0   0.00000       0.00000    
     45616 TIP3     6900     TIP3     H2       HT       0.417000       1.00800           0   0.00000     -0.301140E-02
     45617 TIP3     6901     TIP3     OH2      OT      -0.834000       15.9994           0   0.00000       0.00000    
     45618 TIP3     6901     TIP3     H1       HT       0.417000       1.00800           0   0.00000       0.00000    
     45619 TIP3     6901     TIP3     H2       HT       0.417000       1.00800           0   0.00000     -0.301140E-02
     45620 TIP3     6902     TIP3     OH2      OT      -0.834000       15.9994           0   0.00000       0.00000    
     45621 TIP3     6902     TIP3     H1       HT       0.417000       1.00800           0   0.00000       0.00000    
     45622 TIP3     6902     TIP3     H2       HT       0.417000       1.00800           0   0.00000     -0.301140E-02
     45623 TIP3     6903     TIP3     OH2      OT      -0.834000       15.9994           0   0.00000       0.00000    
     45624 TIP3     6903     TIP3     H1       HT       0.417000       1.00800           0   0.00000       0.00000    
     45625 TIP3     6903     TIP3     H2       HT       0.417000       1.00800           0   0.00000     -0.301140E-02
     45626 TIP3     6904     TIP3     OH2      OT      -0.834000       15.9994           0   0.00000       0.00000    
     45627 TIP3     6904     TIP3     H1       HT       0.417000       1.00800           0   0.00000       0.00000    
     45628 TIP3     6904     TIP3     H2       HT       0.417000       1.00800           0   0.00000     -0.301140E-02
     45629 TIP3     6905     TIP3     OH2      OT      -0.834000       15.9994           0   0.00000       0.00000    
     45630 TIP3     6905     TIP3     H1       HT       0.417000       1.00800           0   0.00000       0.00000    
     45631 TIP3     6905     TIP3     H2       HT       0.417000       1.00800           0   0.00000     -0.301140E-02
     45632 TIP3     6906     TIP3     OH2      OT      -0.834000       15.9994           0   0.00000       0.00000    
     45633 TIP3     6906     TIP3     H1       HT       0.417000       1.00800           0   0.00000       0.00000    
     45634 TIP3     6906     TIP3     H2       HT       0.417000       1.00800           0   0.00000     -0.301140E-02
     45635 TIP3     6907     TIP3     OH2      OT      -0.834000       15.9994           0   0.00000       0.00000    
     45636 TIP3     6907     TIP3     H1       HT       0.417000       1.00800           0   0.00000       0.00000    
     45637 TIP3     6907     TIP3     H2       HT       0.417000       1.00800           0   0.00000     -0.301140E-02
     45638 TIP3     6908     TIP3     OH2      OT      -0.834000       15.9994           0   0.00000       0.00000    
     45639 TIP3     6908     TIP3     H1       HT       0.417000       1.00800           0   0.00000       0.00000    
     45640 TIP3     6908     TIP3     H2       HT       0.417000       1.00800           0   0.00000     -0.301140E-02
     45641 TIP3     6909     TIP3     OH2      OT      -0.834000       15.9994           0   0.00000       0.00000    
     45642 TIP3     6909     TIP3     H1       HT       0.417000       1.00800           0   0.00000       0.00000    
     45643 TIP3     6909     TIP3     H2       HT       0.417000       1.00800           0   0.00000     -0.301140E-02
     45644 TIP3     6910     TIP3     OH2      OT      -0.834000       15.9994           0   0.00000       0.00000    
     45645 TIP3     6910     TIP3     H1       HT       0.417000       1.00800           0   0.00000       0.00000    
     45646 TIP3     6910     TIP3     H2       HT       0.417000       1.00800           0   0.00000     -0.301140E-02
     45647 TIP3     6911     TIP3     OH2      OT      -0.834000       15.9994           0   0.00000       0.00000    
     45648 TIP3     6911     TIP3     H1       HT       0.417000       1.00800           0   0.00000       0.00000    
     45649 TIP3     6911     TIP3     H2       HT       0.417000       1.00800           0   0.00000     -0.301140E-02
     45650 TIP3     6912     TIP3     OH2      OT      -0.834000       15.9994           0   0.00000       0.00000    
     45651 TIP3     6912     TIP3     H1       HT       0.417000       1.00800           0   0.00000       0.00000    
     45652 TIP3     6912     TIP3     H2       HT       0.417000       1.00800           0   0.00000     -0.301140E-02
     45653 TIP3     6913     TIP3     OH2      OT      -0.834000       15.9994           0   0.00000       0.00000    
     45654 TIP3     6913     TIP3     H1       HT       0.417000       1.00800           0   0.00000       0.00000    
     45655 TIP3     6913     TIP3     H2       HT       0.417000       1.00800           0   0.00000     -0.301140E-02
     45656 TIP3     6914     TIP3     OH2      OT      -0.834000       15.9994           0   0.00000       0.00000    
     45657 TIP3     6914     TIP3     H1       HT       0.417000       1.00800           0   0.00000       0.00000    
     45658 TIP3     6914     TIP3     H2       HT       0.417000       1.00800           0   0.00000     -0.301140E-02
     45659 TIP3     6915     TIP3     OH2      OT      -0.834000       15.9994           0   0.00000       0.00000    
     45660 TIP3     6915     TIP3     H1       HT       0.417000       1.00800           0   0.00000       0.00000    
     45661 TIP3     6915     TIP3     H2       HT       0.417000       1.00800           0   0.00000     -0.301140E-02
     45662 TIP3     6916     TIP3     OH2      OT      -0.834000       15.9994           0   0.00000       0.00000    
     45663 TIP3     6916     TIP3     H1       HT       0.417000       1.00800           0   0.00000       0.00000    
     45664 TIP3     6916     TIP3     H2       HT       0.417000       1.00800           0   0.00000     -0.301140E-02
     45665 TIP3     6917     TIP3     OH2      OT      -0.834000       15.9994           0   0.00000       0.00000    
     45666 TIP3     6917     TIP3     H1       HT       0.417000       1.00800           0   0.00000       0.00000    
     45667 TIP3     6917     TIP3     H2       HT       0.417000       1.00800           0   0.00000     -0.301140E-02
     45668 TIP3     6918     TIP3     OH2      OT      -0.834000       15.9994           0   0.00000       0.00000    
     45669 TIP3     6918     TIP3     H1       HT       0.417000       1.00800           0   0.00000       0.00000    
     45670 TIP3     6918     TIP3     H2       HT       0.417000       1.00800           0   0.00000     -0.301140E-02
     45671 TIP3     6919     TIP3     OH2      OT      -0.834000       15.9994           0   0.00000       0.00000    
     45672 TIP3     6919     TIP3     H1       HT       0.417000       1.00800           0   0.00000       0.00000    
     45673 TIP3     6919     TIP3     H2       HT       0.417000       1.00800           0   0.00000     -0.301140E-02
     45674 TIP3     6920     TIP3     OH2      OT      -0.834000       15.9994           0   0.00000       0.00000    
     45675 TIP3     6920     TIP3     H1       HT       0.417000       1.00800           0   0.00000       0.00000    
     45676 TIP3     6920     TIP3     H2       HT       0.417000       1.00800           0   0.00000     -0.301140E-02
     45677 TIP3     6921     TIP3     OH2      OT      -0.834000       15.9994           0   0.00000       0.00000    
     45678 TIP3     6921     TIP3     H1       HT       0.417000       1.00800           0   0.00000       0.00000    
     45679 TIP3     6921     TIP3     H2       HT       0.417000       1.00800           0   0.00000     -0.301140E-02
     45680 TIP3     6922     TIP3     OH2      OT      -0.834000       15.9994           0   0.00000       0.00000    
     45681 TIP3     6922     TIP3     H1       HT       0.417000       1.00800           0   0.00000       0.00000    
     45682 TIP3     6922     TIP3     H2       HT       0.417000       1.00800           0   0.00000     -0.301140E-02
     45683 TIP3     6923     TIP3     OH2      OT      -0.834000       15.9994           0   0.00000       0.00000    
     45684 TIP3     6923     TIP3     H1       HT       0.417000       1.00800           0   0.00000       0.00000    
     45685 TIP3     6923     TIP3     H2       HT       0.417000       1.00800           0   0.00000     -0.301140E-02
     45686 TIP3     6924     TIP3     OH2      OT      -0.834000       15.9994           0   0.00000       0.00000    
     45687 TIP3     6924     TIP3     H1       HT       0.417000       1.00800           0   0.00000       0.00000    
     45688 TIP3     6924     TIP3     H2       HT       0.417000       1.00800           0   0.00000     -0.301140E-02
     45689 TIP3     6925     TIP3     OH2      OT      -0.834000       15.9994           0   0.00000       0.00000    
     45690 TIP3     6925     TIP3     H1       HT       0.417000       1.00800           0   0.00000       0.00000    
     45691 TIP3     6925     TIP3     H2       HT       0.417000       1.00800           0   0.00000     -0.301140E-02
     45692 TIP3     6926     TIP3     OH2      OT      -0.834000       15.9994           0   0.00000       0.00000    
     45693 TIP3     6926     TIP3     H1       HT       0.417000       1.00800           0   0.00000       0.00000    
     45694 TIP3     6926     TIP3     H2       HT       0.417000       1.00800           0   0.00000     -0.301140E-02
     45695 TIP3     6927     TIP3     OH2      OT      -0.834000       15.9994           0   0.00000       0.00000    
     45696 TIP3     6927     TIP3     H1       HT       0.417000       1.00800           0   0.00000       0.00000    
     45697 TIP3     6927     TIP3     H2       HT       0.417000       1.00800           0   0.00000     -0.301140E-02
     45698 TIP3     6928     TIP3     OH2      OT      -0.834000       15.9994           0   0.00000       0.00000    
     45699 TIP3     6928     TIP3     H1       HT       0.417000       1.00800           0   0.00000       0.00000    
     45700 TIP3     6928     TIP3     H2       HT       0.417000       1.00800           0   0.00000     -0.301140E-02
     45701 TIP3     6929     TIP3     OH2      OT      -0.834000       15.9994           0   0.00000       0.00000    
     45702 TIP3     6929     TIP3     H1       HT       0.417000       1.00800           0   0.00000       0.00000    
     45703 TIP3     6929     TIP3     H2       HT       0.417000       1.00800           0   0.00000     -0.301140E-02
     45704 TIP3     6930     TIP3     OH2      OT      -0.834000       15.9994           0   0.00000       0.00000    
     45705 TIP3     6930     TIP3     H1       HT       0.417000       1.00800           0   0.00000       0.00000    
     45706 TIP3     6930     TIP3     H2       HT       0.417000       1.00800           0   0.00000     -0.301140E-02
     45707 TIP3     6931     TIP3     OH2      OT      -0.834000       15.9994           0   0.00000       0.00000    
     45708 TIP3     6931     TIP3     H1       HT       0.417000       1.00800           0   0.00000       0.00000    
     45709 TIP3     6931     TIP3     H2       HT       0.417000       1.00800           0   0.00000     -0.301140E-02
     45710 TIP3     6932     TIP3     OH2      OT      -0.834000       15.9994           0   0.00000       0.00000    
     45711 TIP3     6932     TIP3     H1       HT       0.417000       1.00800           0   0.00000       0.00000    
     45712 TIP3     6932     TIP3     H2       HT       0.417000       1.00800           0   0.00000     -0.301140E-02
     45713 TIP3     6933     TIP3     OH2      OT      -0.834000       15.9994           0   0.00000       0.00000    
     45714 TIP3     6933     TIP3     H1       HT       0.417000       1.00800           0   0.00000       0.00000    
     45715 TIP3     6933     TIP3     H2       HT       0.417000       1.00800           0   0.00000     -0.301140E-02
     45716 TIP3     6934     TIP3     OH2      OT      -0.834000       15.9994           0   0.00000       0.00000    
     45717 TIP3     6934     TIP3     H1       HT       0.417000       1.00800           0   0.00000       0.00000    
     45718 TIP3     6934     TIP3     H2       HT       0.417000       1.00800           0   0.00000     -0.301140E-02
     45719 TIP3     6935     TIP3     OH2      OT      -0.834000       15.9994           0   0.00000       0.00000    
     45720 TIP3     6935     TIP3     H1       HT       0.417000       1.00800           0   0.00000       0.00000    
     45721 TIP3     6935     TIP3     H2       HT       0.417000       1.00800           0   0.00000     -0.301140E-02
     45722 TIP3     6936     TIP3     OH2      OT      -0.834000       15.9994           0   0.00000       0.00000    
     45723 TIP3     6936     TIP3     H1       HT       0.417000       1.00800           0   0.00000       0.00000    
     45724 TIP3     6936     TIP3     H2       HT       0.417000       1.00800           0   0.00000     -0.301140E-02
     45725 TIP3     6937     TIP3     OH2      OT      -0.834000       15.9994           0   0.00000       0.00000    
     45726 TIP3     6937     TIP3     H1       HT       0.417000       1.00800           0   0.00000       0.00000    
     45727 TIP3     6937     TIP3     H2       HT       0.417000       1.00800           0   0.00000     -0.301140E-02
     45728 TIP3     6938     TIP3     OH2      OT      -0.834000       15.9994           0   0.00000       0.00000    
     45729 TIP3     6938     TIP3     H1       HT       0.417000       1.00800           0   0.00000       0.00000    
     45730 TIP3     6938     TIP3     H2       HT       0.417000       1.00800           0   0.00000     -0.301140E-02
     45731 TIP3     6939     TIP3     OH2      OT      -0.834000       15.9994           0   0.00000       0.00000    
     45732 TIP3     6939     TIP3     H1       HT       0.417000       1.00800           0   0.00000       0.00000    
     45733 TIP3     6939     TIP3     H2       HT       0.417000       1.00800           0   0.00000     -0.301140E-02
     45734 TIP3     6940     TIP3     OH2      OT      -0.834000       15.9994           0   0.00000       0.00000    
     45735 TIP3     6940     TIP3     H1       HT       0.417000       1.00800           0   0.00000       0.00000    
     45736 TIP3     6940     TIP3     H2       HT       0.417000       1.00800           0   0.00000     -0.301140E-02
     45737 TIP3     6941     TIP3     OH2      OT      -0.834000       15.9994           0   0.00000       0.00000    
     45738 TIP3     6941     TIP3     H1       HT       0.417000       1.00800           0   0.00000       0.00000    
     45739 TIP3     6941     TIP3     H2       HT       0.417000       1.00800           0   0.00000     -0.301140E-02
     45740 TIP3     6942     TIP3     OH2      OT      -0.834000       15.9994           0   0.00000       0.00000    
     45741 TIP3     6942     TIP3     H1       HT       0.417000       1.00800           0   0.00000       0.00000    
     45742 TIP3     6942     TIP3     H2       HT       0.417000       1.00800           0   0.00000     -0.301140E-02
     45743 TIP3     6943     TIP3     OH2      OT      -0.834000       15.9994           0   0.00000       0.00000    
     45744 TIP3     6943     TIP3     H1       HT       0.417000       1.00800           0   0.00000       0.00000    
     45745 TIP3     6943     TIP3     H2       HT       0.417000       1.00800           0   0.00000     -0.301140E-02
     45746 TIP3     6944     TIP3     OH2      OT      -0.834000       15.9994           0   0.00000       0.00000    
     45747 TIP3     6944     TIP3     H1       HT       0.417000       1.00800           0   0.00000       0.00000    
     45748 TIP3     6944     TIP3     H2       HT       0.417000       1.00800           0   0.00000     -0.301140E-02
     45749 TIP3     6945     TIP3     OH2      OT      -0.834000       15.9994           0   0.00000       0.00000    
     45750 TIP3     6945     TIP3     H1       HT       0.417000       1.00800           0   0.00000       0.00000    
     45751 TIP3     6945     TIP3     H2       HT       0.417000       1.00800           0   0.00000     -0.301140E-02
     45752 TIP3     6946     TIP3     OH2      OT      -0.834000       15.9994           0   0.00000       0.00000    
     45753 TIP3     6946     TIP3     H1       HT       0.417000       1.00800           0   0.00000       0.00000    
     45754 TIP3     6946     TIP3     H2       HT       0.417000       1.00800           0   0.00000     -0.301140E-02
     45755 TIP3     6947     TIP3     OH2      OT      -0.834000       15.9994           0   0.00000       0.00000    
     45756 TIP3     6947     TIP3     H1       HT       0.417000       1.00800           0   0.00000       0.00000    
     45757 TIP3     6947     TIP3     H2       HT       0.417000       1.00800           0   0.00000     -0.301140E-02
     45758 TIP3     6948     TIP3     OH2      OT      -0.834000       15.9994           0   0.00000       0.00000    
     45759 TIP3     6948     TIP3     H1       HT       0.417000       1.00800           0   0.00000       0.00000    
     45760 TIP3     6948     TIP3     H2       HT       0.417000       1.00800           0   0.00000     -0.301140E-02
     45761 TIP3     6949     TIP3     OH2      OT      -0.834000       15.9994           0   0.00000       0.00000    
     45762 TIP3     6949     TIP3     H1       HT       0.417000       1.00800           0   0.00000       0.00000    
     45763 TIP3     6949     TIP3     H2       HT       0.417000       1.00800           0   0.00000     -0.301140E-02
     45764 TIP3     6950     TIP3     OH2      OT      -0.834000       15.9994           0   0.00000       0.00000    
     45765 TIP3     6950     TIP3     H1       HT       0.417000       1.00800           0   0.00000       0.00000    
     45766 TIP3     6950     TIP3     H2       HT       0.417000       1.00800           0   0.00000     -0.301140E-02
     45767 TIP3     6951     TIP3     OH2      OT      -0.834000       15.9994           0   0.00000       0.00000    
     45768 TIP3     6951     TIP3     H1       HT       0.417000       1.00800           0   0.00000       0.00000    
     45769 TIP3     6951     TIP3     H2       HT       0.417000       1.00800           0   0.00000     -0.301140E-02
     45770 TIP3     6952     TIP3     OH2      OT      -0.834000       15.9994           0   0.00000       0.00000    
     45771 TIP3     6952     TIP3     H1       HT       0.417000       1.00800           0   0.00000       0.00000    
     45772 TIP3     6952     TIP3     H2       HT       0.417000       1.00800           0   0.00000     -0.301140E-02
     45773 TIP3     6953     TIP3     OH2      OT      -0.834000       15.9994           0   0.00000       0.00000    
     45774 TIP3     6953     TIP3     H1       HT       0.417000       1.00800           0   0.00000       0.00000    
     45775 TIP3     6953     TIP3     H2       HT       0.417000       1.00800           0   0.00000     -0.301140E-02
     45776 TIP3     6954     TIP3     OH2      OT      -0.834000       15.9994           0   0.00000       0.00000    
     45777 TIP3     6954     TIP3     H1       HT       0.417000       1.00800           0   0.00000       0.00000    
     45778 TIP3     6954     TIP3     H2       HT       0.417000       1.00800           0   0.00000     -0.301140E-02
     45779 TIP3     6955     TIP3     OH2      OT      -0.834000       15.9994           0   0.00000       0.00000    
     45780 TIP3     6955     TIP3     H1       HT       0.417000       1.00800           0   0.00000       0.00000    
     45781 TIP3     6955     TIP3     H2       HT       0.417000       1.00800           0   0.00000     -0.301140E-02
     45782 TIP3     6956     TIP3     OH2      OT      -0.834000       15.9994           0   0.00000       0.00000    
     45783 TIP3     6956     TIP3     H1       HT       0.417000       1.00800           0   0.00000       0.00000    
     45784 TIP3     6956     TIP3     H2       HT       0.417000       1.00800           0   0.00000     -0.301140E-02
     45785 TIP3     6957     TIP3     OH2      OT      -0.834000       15.9994           0   0.00000       0.00000    
     45786 TIP3     6957     TIP3     H1       HT       0.417000       1.00800           0   0.00000       0.00000    
     45787 TIP3     6957     TIP3     H2       HT       0.417000       1.00800           0   0.00000     -0.301140E-02
     45788 TIP3     6958     TIP3     OH2      OT      -0.834000       15.9994           0   0.00000       0.00000    
     45789 TIP3     6958     TIP3     H1       HT       0.417000       1.00800           0   0.00000       0.00000    
     45790 TIP3     6958     TIP3     H2       HT       0.417000       1.00800           0   0.00000     -0.301140E-02
     45791 TIP3     6959     TIP3     OH2      OT      -0.834000       15.9994           0   0.00000       0.00000    
     45792 TIP3     6959     TIP3     H1       HT       0.417000       1.00800           0   0.00000       0.00000    
     45793 TIP3     6959     TIP3     H2       HT       0.417000       1.00800           0   0.00000     -0.301140E-02
     45794 TIP3     6960     TIP3     OH2      OT      -0.834000       15.9994           0   0.00000       0.00000    
     45795 TIP3     6960     TIP3     H1       HT       0.417000       1.00800           0   0.00000       0.00000    
     45796 TIP3     6960     TIP3     H2       HT       0.417000       1.00800           0   0.00000     -0.301140E-02
     45797 TIP3     6961     TIP3     OH2      OT      -0.834000       15.9994           0   0.00000       0.00000    
     45798 TIP3     6961     TIP3     H1       HT       0.417000       1.00800           0   0.00000       0.00000    
     45799 TIP3     6961     TIP3     H2       HT       0.417000       1.00800           0   0.00000     -0.301140E-02
     45800 TIP3     6962     TIP3     OH2      OT      -0.834000       15.9994           0   0.00000       0.00000    
     45801 TIP3     6962     TIP3     H1       HT       0.417000       1.00800           0   0.00000       0.00000    
     45802 TIP3     6962     TIP3     H2       HT       0.417000       1.00800           0   0.00000     -0.301140E-02
     45803 TIP3     6963     TIP3     OH2      OT      -0.834000       15.9994           0   0.00000       0.00000    
     45804 TIP3     6963     TIP3     H1       HT       0.417000       1.00800           0   0.00000       0.00000    
     45805 TIP3     6963     TIP3     H2       HT       0.417000       1.00800           0   0.00000     -0.301140E-02
     45806 TIP3     6964     TIP3     OH2      OT      -0.834000       15.9994           0   0.00000       0.00000    
     45807 TIP3     6964     TIP3     H1       HT       0.417000       1.00800           0   0.00000       0.00000    
     45808 TIP3     6964     TIP3     H2       HT       0.417000       1.00800           0   0.00000     -0.301140E-02
     45809 TIP3     6965     TIP3     OH2      OT      -0.834000       15.9994           0   0.00000       0.00000    
     45810 TIP3     6965     TIP3     H1       HT       0.417000       1.00800           0   0.00000       0.00000    
     45811 TIP3     6965     TIP3     H2       HT       0.417000       1.00800           0   0.00000     -0.301140E-02
     45812 TIP3     6966     TIP3     OH2      OT      -0.834000       15.9994           0   0.00000       0.00000    
     45813 TIP3     6966     TIP3     H1       HT       0.417000       1.00800           0   0.00000       0.00000    
     45814 TIP3     6966     TIP3     H2       HT       0.417000       1.00800           0   0.00000     -0.301140E-02
     45815 TIP3     6967     TIP3     OH2      OT      -0.834000       15.9994           0   0.00000       0.00000    
     45816 TIP3     6967     TIP3     H1       HT       0.417000       1.00800           0   0.00000       0.00000    
     45817 TIP3     6967     TIP3     H2       HT       0.417000       1.00800           0   0.00000     -0.301140E-02
     45818 TIP3     6968     TIP3     OH2      OT      -0.834000       15.9994           0   0.00000       0.00000    
     45819 TIP3     6968     TIP3     H1       HT       0.417000       1.00800           0   0.00000       0.00000    
     45820 TIP3     6968     TIP3     H2       HT       0.417000       1.00800           0   0.00000     -0.301140E-02
     45821 TIP3     6969     TIP3     OH2      OT      -0.834000       15.9994           0   0.00000       0.00000    
     45822 TIP3     6969     TIP3     H1       HT       0.417000       1.00800           0   0.00000       0.00000    
     45823 TIP3     6969     TIP3     H2       HT       0.417000       1.00800           0   0.00000     -0.301140E-02
     45824 TIP3     6970     TIP3     OH2      OT      -0.834000       15.9994           0   0.00000       0.00000    
     45825 TIP3     6970     TIP3     H1       HT       0.417000       1.00800           0   0.00000       0.00000    
     45826 TIP3     6970     TIP3     H2       HT       0.417000       1.00800           0   0.00000     -0.301140E-02
     45827 TIP3     6971     TIP3     OH2      OT      -0.834000       15.9994           0   0.00000       0.00000    
     45828 TIP3     6971     TIP3     H1       HT       0.417000       1.00800           0   0.00000       0.00000    
     45829 TIP3     6971     TIP3     H2       HT       0.417000       1.00800           0   0.00000     -0.301140E-02
     45830 TIP3     6972     TIP3     OH2      OT      -0.834000       15.9994           0   0.00000       0.00000    
     45831 TIP3     6972     TIP3     H1       HT       0.417000       1.00800           0   0.00000       0.00000    
     45832 TIP3     6972     TIP3     H2       HT       0.417000       1.00800           0   0.00000     -0.301140E-02
     45833 TIP3     6973     TIP3     OH2      OT      -0.834000       15.9994           0   0.00000       0.00000    
     45834 TIP3     6973     TIP3     H1       HT       0.417000       1.00800           0   0.00000       0.00000    
     45835 TIP3     6973     TIP3     H2       HT       0.417000       1.00800           0   0.00000     -0.301140E-02
     45836 TIP3     6974     TIP3     OH2      OT      -0.834000       15.9994           0   0.00000       0.00000    
     45837 TIP3     6974     TIP3     H1       HT       0.417000       1.00800           0   0.00000       0.00000    
     45838 TIP3     6974     TIP3     H2       HT       0.417000       1.00800           0   0.00000     -0.301140E-02
     45839 TIP3     6975     TIP3     OH2      OT      -0.834000       15.9994           0   0.00000       0.00000    
     45840 TIP3     6975     TIP3     H1       HT       0.417000       1.00800           0   0.00000       0.00000    
     45841 TIP3     6975     TIP3     H2       HT       0.417000       1.00800           0   0.00000     -0.301140E-02
     45842 TIP3     6976     TIP3     OH2      OT      -0.834000       15.9994           0   0.00000       0.00000    
     45843 TIP3     6976     TIP3     H1       HT       0.417000       1.00800           0   0.00000       0.00000    
     45844 TIP3     6976     TIP3     H2       HT       0.417000       1.00800           0   0.00000     -0.301140E-02
     45845 TIP3     6977     TIP3     OH2      OT      -0.834000       15.9994           0   0.00000       0.00000    
     45846 TIP3     6977     TIP3     H1       HT       0.417000       1.00800           0   0.00000       0.00000    
     45847 TIP3     6977     TIP3     H2       HT       0.417000       1.00800           0   0.00000     -0.301140E-02
     45848 TIP3     6978     TIP3     OH2      OT      -0.834000       15.9994           0   0.00000       0.00000    
     45849 TIP3     6978     TIP3     H1       HT       0.417000       1.00800           0   0.00000       0.00000    
     45850 TIP3     6978     TIP3     H2       HT       0.417000       1.00800           0   0.00000     -0.301140E-02
     45851 TIP3     6979     TIP3     OH2      OT      -0.834000       15.9994           0   0.00000       0.00000    
     45852 TIP3     6979     TIP3     H1       HT       0.417000       1.00800           0   0.00000       0.00000    
     45853 TIP3     6979     TIP3     H2       HT       0.417000       1.00800           0   0.00000     -0.301140E-02
     45854 TIP3     6980     TIP3     OH2      OT      -0.834000       15.9994           0   0.00000       0.00000    
     45855 TIP3     6980     TIP3     H1       HT       0.417000       1.00800           0   0.00000       0.00000    
     45856 TIP3     6980     TIP3     H2       HT       0.417000       1.00800           0   0.00000     -0.301140E-02
     45857 TIP3     6981     TIP3     OH2      OT      -0.834000       15.9994           0   0.00000       0.00000    
     45858 TIP3     6981     TIP3     H1       HT       0.417000       1.00800           0   0.00000       0.00000    
     45859 TIP3     6981     TIP3     H2       HT       0.417000       1.00800           0   0.00000     -0.301140E-02
     45860 TIP3     6982     TIP3     OH2      OT      -0.834000       15.9994           0   0.00000       0.00000    
     45861 TIP3     6982     TIP3     H1       HT       0.417000       1.00800           0   0.00000       0.00000    
     45862 TIP3     6982     TIP3     H2       HT       0.417000       1.00800           0   0.00000     -0.301140E-02
     45863 TIP3     6983     TIP3     OH2      OT      -0.834000       15.9994           0   0.00000       0.00000    
     45864 TIP3     6983     TIP3     H1       HT       0.417000       1.00800           0   0.00000       0.00000    
     45865 TIP3     6983     TIP3     H2       HT       0.417000       1.00800           0   0.00000     -0.301140E-02
     45866 TIP3     6984     TIP3     OH2      OT      -0.834000       15.9994           0   0.00000       0.00000    
     45867 TIP3     6984     TIP3     H1       HT       0.417000       1.00800           0   0.00000       0.00000    
     45868 TIP3     6984     TIP3     H2       HT       0.417000       1.00800           0   0.00000     -0.301140E-02
     45869 TIP3     6985     TIP3     OH2      OT      -0.834000       15.9994           0   0.00000       0.00000    
     45870 TIP3     6985     TIP3     H1       HT       0.417000       1.00800           0   0.00000       0.00000    
     45871 TIP3     6985     TIP3     H2       HT       0.417000       1.00800           0   0.00000     -0.301140E-02
     45872 TIP3     6986     TIP3     OH2      OT      -0.834000       15.9994           0   0.00000       0.00000    
     45873 TIP3     6986     TIP3     H1       HT       0.417000       1.00800           0   0.00000       0.00000    
     45874 TIP3     6986     TIP3     H2       HT       0.417000       1.00800           0   0.00000     -0.301140E-02
     45875 TIP3     6987     TIP3     OH2      OT      -0.834000       15.9994           0   0.00000       0.00000    
     45876 TIP3     6987     TIP3     H1       HT       0.417000       1.00800           0   0.00000       0.00000    
     45877 TIP3     6987     TIP3     H2       HT       0.417000       1.00800           0   0.00000     -0.301140E-02
     45878 TIP3     6988     TIP3     OH2      OT      -0.834000       15.9994           0   0.00000       0.00000    
     45879 TIP3     6988     TIP3     H1       HT       0.417000       1.00800           0   0.00000       0.00000    
     45880 TIP3     6988     TIP3     H2       HT       0.417000       1.00800           0   0.00000     -0.301140E-02
     45881 TIP3     6989     TIP3     OH2      OT      -0.834000       15.9994           0   0.00000       0.00000    
     45882 TIP3     6989     TIP3     H1       HT       0.417000       1.00800           0   0.00000       0.00000    
     45883 TIP3     6989     TIP3     H2       HT       0.417000       1.00800           0   0.00000     -0.301140E-02
     45884 TIP3     6990     TIP3     OH2      OT      -0.834000       15.9994           0   0.00000       0.00000    
     45885 TIP3     6990     TIP3     H1       HT       0.417000       1.00800           0   0.00000       0.00000    
     45886 TIP3     6990     TIP3     H2       HT       0.417000       1.00800           0   0.00000     -0.301140E-02
     45887 TIP3     6991     TIP3     OH2      OT      -0.834000       15.9994           0   0.00000       0.00000    
     45888 TIP3     6991     TIP3     H1       HT       0.417000       1.00800           0   0.00000       0.00000    
     45889 TIP3     6991     TIP3     H2       HT       0.417000       1.00800           0   0.00000     -0.301140E-02
     45890 TIP3     6992     TIP3     OH2      OT      -0.834000       15.9994           0   0.00000       0.00000    
     45891 TIP3     6992     TIP3     H1       HT       0.417000       1.00800           0   0.00000       0.00000    
     45892 TIP3     6992     TIP3     H2       HT       0.417000       1.00800           0   0.00000     -0.301140E-02
     45893 TIP3     6993     TIP3     OH2      OT      -0.834000       15.9994           0   0.00000       0.00000    
     45894 TIP3     6993     TIP3     H1       HT       0.417000       1.00800           0   0.00000       0.00000    
     45895 TIP3     6993     TIP3     H2       HT       0.417000       1.00800           0   0.00000     -0.301140E-02
     45896 TIP3     6994     TIP3     OH2      OT      -0.834000       15.9994           0   0.00000       0.00000    
     45897 TIP3     6994     TIP3     H1       HT       0.417000       1.00800           0   0.00000       0.00000    
     45898 TIP3     6994     TIP3     H2       HT       0.417000       1.00800           0   0.00000     -0.301140E-02
     45899 TIP3     6995     TIP3     OH2      OT      -0.834000       15.9994           0   0.00000       0.00000    
     45900 TIP3     6995     TIP3     H1       HT       0.417000       1.00800           0   0.00000       0.00000    
     45901 TIP3     6995     TIP3     H2       HT       0.417000       1.00800           0   0.00000     -0.301140E-02
     45902 TIP3     6996     TIP3     OH2      OT      -0.834000       15.9994           0   0.00000       0.00000    
     45903 TIP3     6996     TIP3     H1       HT       0.417000       1.00800           0   0.00000       0.00000    
     45904 TIP3     6996     TIP3     H2       HT       0.417000       1.00800           0   0.00000     -0.301140E-02
     45905 TIP3     6997     TIP3     OH2      OT      -0.834000       15.9994           0   0.00000       0.00000    
     45906 TIP3     6997     TIP3     H1       HT       0.417000       1.00800           0   0.00000       0.00000    
     45907 TIP3     6997     TIP3     H2       HT       0.417000       1.00800           0   0.00000     -0.301140E-02
     45908 TIP3     6998     TIP3     OH2      OT      -0.834000       15.9994           0   0.00000       0.00000    
     45909 TIP3     6998     TIP3     H1       HT       0.417000       1.00800           0   0.00000       0.00000    
     45910 TIP3     6998     TIP3     H2       HT       0.417000       1.00800           0   0.00000     -0.301140E-02
     45911 TIP3     6999     TIP3     OH2      OT      -0.834000       15.9994           0   0.00000       0.00000    
     45912 TIP3     6999     TIP3     H1       HT       0.417000       1.00800           0   0.00000       0.00000    
     45913 TIP3     6999     TIP3     H2       HT       0.417000       1.00800           0   0.00000     -0.301140E-02
     45914 TIP3     7000     TIP3     OH2      OT      -0.834000       15.9994           0   0.00000       0.00000    
     45915 TIP3     7000     TIP3     H1       HT       0.417000       1.00800           0   0.00000       0.00000    
     45916 TIP3     7000     TIP3     H2       HT       0.417000       1.00800           0   0.00000     -0.301140E-02
     45917 TIP3     7001     TIP3     OH2      OT      -0.834000       15.9994           0   0.00000       0.00000    
     45918 TIP3     7001     TIP3     H1       HT       0.417000       1.00800           0   0.00000       0.00000    
     45919 TIP3     7001     TIP3     H2       HT       0.417000       1.00800           0   0.00000     -0.301140E-02
     45920 TIP3     7002     TIP3     OH2      OT      -0.834000       15.9994           0   0.00000       0.00000    
     45921 TIP3     7002     TIP3     H1       HT       0.417000       1.00800           0   0.00000       0.00000    
     45922 TIP3     7002     TIP3     H2       HT       0.417000       1.00800           0   0.00000     -0.301140E-02
     45923 TIP3     7003     TIP3     OH2      OT      -0.834000       15.9994           0   0.00000       0.00000    
     45924 TIP3     7003     TIP3     H1       HT       0.417000       1.00800           0   0.00000       0.00000    
     45925 TIP3     7003     TIP3     H2       HT       0.417000       1.00800           0   0.00000     -0.301140E-02
     45926 TIP3     7004     TIP3     OH2      OT      -0.834000       15.9994           0   0.00000       0.00000    
     45927 TIP3     7004     TIP3     H1       HT       0.417000       1.00800           0   0.00000       0.00000    
     45928 TIP3     7004     TIP3     H2       HT       0.417000       1.00800           0   0.00000     -0.301140E-02
     45929 TIP3     7005     TIP3     OH2      OT      -0.834000       15.9994           0   0.00000       0.00000    
     45930 TIP3     7005     TIP3     H1       HT       0.417000       1.00800           0   0.00000       0.00000    
     45931 TIP3     7005     TIP3     H2       HT       0.417000       1.00800           0   0.00000     -0.301140E-02
     45932 TIP3     7006     TIP3     OH2      OT      -0.834000       15.9994           0   0.00000       0.00000    
     45933 TIP3     7006     TIP3     H1       HT       0.417000       1.00800           0   0.00000       0.00000    
     45934 TIP3     7006     TIP3     H2       HT       0.417000       1.00800           0   0.00000     -0.301140E-02
     45935 TIP3     7007     TIP3     OH2      OT      -0.834000       15.9994           0   0.00000       0.00000    
     45936 TIP3     7007     TIP3     H1       HT       0.417000       1.00800           0   0.00000       0.00000    
     45937 TIP3     7007     TIP3     H2       HT       0.417000       1.00800           0   0.00000     -0.301140E-02
     45938 TIP3     7008     TIP3     OH2      OT      -0.834000       15.9994           0   0.00000       0.00000    
     45939 TIP3     7008     TIP3     H1       HT       0.417000       1.00800           0   0.00000       0.00000    
     45940 TIP3     7008     TIP3     H2       HT       0.417000       1.00800           0   0.00000     -0.301140E-02
     45941 TIP3     7009     TIP3     OH2      OT      -0.834000       15.9994           0   0.00000       0.00000    
     45942 TIP3     7009     TIP3     H1       HT       0.417000       1.00800           0   0.00000       0.00000    
     45943 TIP3     7009     TIP3     H2       HT       0.417000       1.00800           0   0.00000     -0.301140E-02
     45944 TIP3     7010     TIP3     OH2      OT      -0.834000       15.9994           0   0.00000       0.00000    
     45945 TIP3     7010     TIP3     H1       HT       0.417000       1.00800           0   0.00000       0.00000    
     45946 TIP3     7010     TIP3     H2       HT       0.417000       1.00800           0   0.00000     -0.301140E-02
     45947 TIP3     7011     TIP3     OH2      OT      -0.834000       15.9994           0   0.00000       0.00000    
     45948 TIP3     7011     TIP3     H1       HT       0.417000       1.00800           0   0.00000       0.00000    
     45949 TIP3     7011     TIP3     H2       HT       0.417000       1.00800           0   0.00000     -0.301140E-02
     45950 TIP3     7012     TIP3     OH2      OT      -0.834000       15.9994           0   0.00000       0.00000    
     45951 TIP3     7012     TIP3     H1       HT       0.417000       1.00800           0   0.00000       0.00000    
     45952 TIP3     7012     TIP3     H2       HT       0.417000       1.00800           0   0.00000     -0.301140E-02
     45953 TIP3     7013     TIP3     OH2      OT      -0.834000       15.9994           0   0.00000       0.00000    
     45954 TIP3     7013     TIP3     H1       HT       0.417000       1.00800           0   0.00000       0.00000    
     45955 TIP3     7013     TIP3     H2       HT       0.417000       1.00800           0   0.00000     -0.301140E-02
     45956 TIP3     7014     TIP3     OH2      OT      -0.834000       15.9994           0   0.00000       0.00000    
     45957 TIP3     7014     TIP3     H1       HT       0.417000       1.00800           0   0.00000       0.00000    
     45958 TIP3     7014     TIP3     H2       HT       0.417000       1.00800           0   0.00000     -0.301140E-02
     45959 TIP3     7015     TIP3     OH2      OT      -0.834000       15.9994           0   0.00000       0.00000    
     45960 TIP3     7015     TIP3     H1       HT       0.417000       1.00800           0   0.00000       0.00000    
     45961 TIP3     7015     TIP3     H2       HT       0.417000       1.00800           0   0.00000     -0.301140E-02
     45962 TIP3     7016     TIP3     OH2      OT      -0.834000       15.9994           0   0.00000       0.00000    
     45963 TIP3     7016     TIP3     H1       HT       0.417000       1.00800           0   0.00000       0.00000    
     45964 TIP3     7016     TIP3     H2       HT       0.417000       1.00800           0   0.00000     -0.301140E-02
     45965 TIP3     7017     TIP3     OH2      OT      -0.834000       15.9994           0   0.00000       0.00000    
     45966 TIP3     7017     TIP3     H1       HT       0.417000       1.00800           0   0.00000       0.00000    
     45967 TIP3     7017     TIP3     H2       HT       0.417000       1.00800           0   0.00000     -0.301140E-02
     45968 TIP3     7018     TIP3     OH2      OT      -0.834000       15.9994           0   0.00000       0.00000    
     45969 TIP3     7018     TIP3     H1       HT       0.417000       1.00800           0   0.00000       0.00000    
     45970 TIP3     7018     TIP3     H2       HT       0.417000       1.00800           0   0.00000     -0.301140E-02
     45971 TIP3     7019     TIP3     OH2      OT      -0.834000       15.9994           0   0.00000       0.00000    
     45972 TIP3     7019     TIP3     H1       HT       0.417000       1.00800           0   0.00000       0.00000    
     45973 TIP3     7019     TIP3     H2       HT       0.417000       1.00800           0   0.00000     -0.301140E-02
     45974 TIP3     7020     TIP3     OH2      OT      -0.834000       15.9994           0   0.00000       0.00000    
     45975 TIP3     7020     TIP3     H1       HT       0.417000       1.00800           0   0.00000       0.00000    
     45976 TIP3     7020     TIP3     H2       HT       0.417000       1.00800           0   0.00000     -0.301140E-02
     45977 TIP3     7021     TIP3     OH2      OT      -0.834000       15.9994           0   0.00000       0.00000    
     45978 TIP3     7021     TIP3     H1       HT       0.417000       1.00800           0   0.00000       0.00000    
     45979 TIP3     7021     TIP3     H2       HT       0.417000       1.00800           0   0.00000     -0.301140E-02
     45980 TIP3     7022     TIP3     OH2      OT      -0.834000       15.9994           0   0.00000       0.00000    
     45981 TIP3     7022     TIP3     H1       HT       0.417000       1.00800           0   0.00000       0.00000    
     45982 TIP3     7022     TIP3     H2       HT       0.417000       1.00800           0   0.00000     -0.301140E-02
     45983 TIP3     7023     TIP3     OH2      OT      -0.834000       15.9994           0   0.00000       0.00000    
     45984 TIP3     7023     TIP3     H1       HT       0.417000       1.00800           0   0.00000       0.00000    
     45985 TIP3     7023     TIP3     H2       HT       0.417000       1.00800           0   0.00000     -0.301140E-02
     45986 TIP3     7024     TIP3     OH2      OT      -0.834000       15.9994           0   0.00000       0.00000    
     45987 TIP3     7024     TIP3     H1       HT       0.417000       1.00800           0   0.00000       0.00000    
     45988 TIP3     7024     TIP3     H2       HT       0.417000       1.00800           0   0.00000     -0.301140E-02
     45989 TIP3     7025     TIP3     OH2      OT      -0.834000       15.9994           0   0.00000       0.00000    
     45990 TIP3     7025     TIP3     H1       HT       0.417000       1.00800           0   0.00000       0.00000    
     45991 TIP3     7025     TIP3     H2       HT       0.417000       1.00800           0   0.00000     -0.301140E-02
     45992 TIP3     7026     TIP3     OH2      OT      -0.834000       15.9994           0   0.00000       0.00000    
     45993 TIP3     7026     TIP3     H1       HT       0.417000       1.00800           0   0.00000       0.00000    
     45994 TIP3     7026     TIP3     H2       HT       0.417000       1.00800           0   0.00000     -0.301140E-02
     45995 TIP3     7027     TIP3     OH2      OT      -0.834000       15.9994           0   0.00000       0.00000    
     45996 TIP3     7027     TIP3     H1       HT       0.417000       1.00800           0   0.00000       0.00000    
     45997 TIP3     7027     TIP3     H2       HT       0.417000       1.00800           0   0.00000     -0.301140E-02
     45998 TIP3     7028     TIP3     OH2      OT      -0.834000       15.9994           0   0.00000       0.00000    
     45999 TIP3     7028     TIP3     H1       HT       0.417000       1.00800           0   0.00000       0.00000    
     46000 TIP3     7028     TIP3     H2       HT       0.417000       1.00800           0   0.00000     -0.301140E-02
     46001 TIP3     7029     TIP3     OH2      OT      -0.834000       15.9994           0   0.00000       0.00000    
     46002 TIP3     7029     TIP3     H1       HT       0.417000       1.00800           0   0.00000       0.00000    
     46003 TIP3     7029     TIP3     H2       HT       0.417000       1.00800           0   0.00000     -0.301140E-02
     46004 TIP3     7030     TIP3     OH2      OT      -0.834000       15.9994           0   0.00000       0.00000    
     46005 TIP3     7030     TIP3     H1       HT       0.417000       1.00800           0   0.00000       0.00000    
     46006 TIP3     7030     TIP3     H2       HT       0.417000       1.00800           0   0.00000     -0.301140E-02
     46007 TIP3     7031     TIP3     OH2      OT      -0.834000       15.9994           0   0.00000       0.00000    
     46008 TIP3     7031     TIP3     H1       HT       0.417000       1.00800           0   0.00000       0.00000    
     46009 TIP3     7031     TIP3     H2       HT       0.417000       1.00800           0   0.00000     -0.301140E-02
     46010 TIP3     7032     TIP3     OH2      OT      -0.834000       15.9994           0   0.00000       0.00000    
     46011 TIP3     7032     TIP3     H1       HT       0.417000       1.00800           0   0.00000       0.00000    
     46012 TIP3     7032     TIP3     H2       HT       0.417000       1.00800           0   0.00000     -0.301140E-02
     46013 TIP3     7033     TIP3     OH2      OT      -0.834000       15.9994           0   0.00000       0.00000    
     46014 TIP3     7033     TIP3     H1       HT       0.417000       1.00800           0   0.00000       0.00000    
     46015 TIP3     7033     TIP3     H2       HT       0.417000       1.00800           0   0.00000     -0.301140E-02
     46016 TIP3     7034     TIP3     OH2      OT      -0.834000       15.9994           0   0.00000       0.00000    
     46017 TIP3     7034     TIP3     H1       HT       0.417000       1.00800           0   0.00000       0.00000    
     46018 TIP3     7034     TIP3     H2       HT       0.417000       1.00800           0   0.00000     -0.301140E-02
     46019 TIP3     7035     TIP3     OH2      OT      -0.834000       15.9994           0   0.00000       0.00000    
     46020 TIP3     7035     TIP3     H1       HT       0.417000       1.00800           0   0.00000       0.00000    
     46021 TIP3     7035     TIP3     H2       HT       0.417000       1.00800           0   0.00000     -0.301140E-02
     46022 TIP3     7036     TIP3     OH2      OT      -0.834000       15.9994           0   0.00000       0.00000    
     46023 TIP3     7036     TIP3     H1       HT       0.417000       1.00800           0   0.00000       0.00000    
     46024 TIP3     7036     TIP3     H2       HT       0.417000       1.00800           0   0.00000     -0.301140E-02
     46025 TIP3     7037     TIP3     OH2      OT      -0.834000       15.9994           0   0.00000       0.00000    
     46026 TIP3     7037     TIP3     H1       HT       0.417000       1.00800           0   0.00000       0.00000    
     46027 TIP3     7037     TIP3     H2       HT       0.417000       1.00800           0   0.00000     -0.301140E-02
     46028 TIP3     7038     TIP3     OH2      OT      -0.834000       15.9994           0   0.00000       0.00000    
     46029 TIP3     7038     TIP3     H1       HT       0.417000       1.00800           0   0.00000       0.00000    
     46030 TIP3     7038     TIP3     H2       HT       0.417000       1.00800           0   0.00000     -0.301140E-02
     46031 TIP3     7039     TIP3     OH2      OT      -0.834000       15.9994           0   0.00000       0.00000    
     46032 TIP3     7039     TIP3     H1       HT       0.417000       1.00800           0   0.00000       0.00000    
     46033 TIP3     7039     TIP3     H2       HT       0.417000       1.00800           0   0.00000     -0.301140E-02
     46034 TIP3     7040     TIP3     OH2      OT      -0.834000       15.9994           0   0.00000       0.00000    
     46035 TIP3     7040     TIP3     H1       HT       0.417000       1.00800           0   0.00000       0.00000    
     46036 TIP3     7040     TIP3     H2       HT       0.417000       1.00800           0   0.00000     -0.301140E-02
     46037 TIP3     7041     TIP3     OH2      OT      -0.834000       15.9994           0   0.00000       0.00000    
     46038 TIP3     7041     TIP3     H1       HT       0.417000       1.00800           0   0.00000       0.00000    
     46039 TIP3     7041     TIP3     H2       HT       0.417000       1.00800           0   0.00000     -0.301140E-02
     46040 TIP3     7042     TIP3     OH2      OT      -0.834000       15.9994           0   0.00000       0.00000    
     46041 TIP3     7042     TIP3     H1       HT       0.417000       1.00800           0   0.00000       0.00000    
     46042 TIP3     7042     TIP3     H2       HT       0.417000       1.00800           0   0.00000     -0.301140E-02
     46043 TIP3     7043     TIP3     OH2      OT      -0.834000       15.9994           0   0.00000       0.00000    
     46044 TIP3     7043     TIP3     H1       HT       0.417000       1.00800           0   0.00000       0.00000    
     46045 TIP3     7043     TIP3     H2       HT       0.417000       1.00800           0   0.00000     -0.301140E-02
     46046 TIP3     7044     TIP3     OH2      OT      -0.834000       15.9994           0   0.00000       0.00000    
     46047 TIP3     7044     TIP3     H1       HT       0.417000       1.00800           0   0.00000       0.00000    
     46048 TIP3     7044     TIP3     H2       HT       0.417000       1.00800           0   0.00000     -0.301140E-02
     46049 TIP3     7045     TIP3     OH2      OT      -0.834000       15.9994           0   0.00000       0.00000    
     46050 TIP3     7045     TIP3     H1       HT       0.417000       1.00800           0   0.00000       0.00000    
     46051 TIP3     7045     TIP3     H2       HT       0.417000       1.00800           0   0.00000     -0.301140E-02
     46052 TIP3     7046     TIP3     OH2      OT      -0.834000       15.9994           0   0.00000       0.00000    
     46053 TIP3     7046     TIP3     H1       HT       0.417000       1.00800           0   0.00000       0.00000    
     46054 TIP3     7046     TIP3     H2       HT       0.417000       1.00800           0   0.00000     -0.301140E-02
     46055 TIP3     7047     TIP3     OH2      OT      -0.834000       15.9994           0   0.00000       0.00000    
     46056 TIP3     7047     TIP3     H1       HT       0.417000       1.00800           0   0.00000       0.00000    
     46057 TIP3     7047     TIP3     H2       HT       0.417000       1.00800           0   0.00000     -0.301140E-02
     46058 TIP3     7048     TIP3     OH2      OT      -0.834000       15.9994           0   0.00000       0.00000    
     46059 TIP3     7048     TIP3     H1       HT       0.417000       1.00800           0   0.00000       0.00000    
     46060 TIP3     7048     TIP3     H2       HT       0.417000       1.00800           0   0.00000     -0.301140E-02
     46061 TIP3     7049     TIP3     OH2      OT      -0.834000       15.9994           0   0.00000       0.00000    
     46062 TIP3     7049     TIP3     H1       HT       0.417000       1.00800           0   0.00000       0.00000    
     46063 TIP3     7049     TIP3     H2       HT       0.417000       1.00800           0   0.00000     -0.301140E-02
     46064 TIP3     7050     TIP3     OH2      OT      -0.834000       15.9994           0   0.00000       0.00000    
     46065 TIP3     7050     TIP3     H1       HT       0.417000       1.00800           0   0.00000       0.00000    
     46066 TIP3     7050     TIP3     H2       HT       0.417000       1.00800           0   0.00000     -0.301140E-02
     46067 TIP3     7051     TIP3     OH2      OT      -0.834000       15.9994           0   0.00000       0.00000    
     46068 TIP3     7051     TIP3     H1       HT       0.417000       1.00800           0   0.00000       0.00000    
     46069 TIP3     7051     TIP3     H2       HT       0.417000       1.00800           0   0.00000     -0.301140E-02
     46070 TIP3     7052     TIP3     OH2      OT      -0.834000       15.9994           0   0.00000       0.00000    
     46071 TIP3     7052     TIP3     H1       HT       0.417000       1.00800           0   0.00000       0.00000    
     46072 TIP3     7052     TIP3     H2       HT       0.417000       1.00800           0   0.00000     -0.301140E-02
     46073 TIP3     7053     TIP3     OH2      OT      -0.834000       15.9994           0   0.00000       0.00000    
     46074 TIP3     7053     TIP3     H1       HT       0.417000       1.00800           0   0.00000       0.00000    
     46075 TIP3     7053     TIP3     H2       HT       0.417000       1.00800           0   0.00000     -0.301140E-02
     46076 TIP3     7054     TIP3     OH2      OT      -0.834000       15.9994           0   0.00000       0.00000    
     46077 TIP3     7054     TIP3     H1       HT       0.417000       1.00800           0   0.00000       0.00000    
     46078 TIP3     7054     TIP3     H2       HT       0.417000       1.00800           0   0.00000     -0.301140E-02
     46079 TIP3     7055     TIP3     OH2      OT      -0.834000       15.9994           0   0.00000       0.00000    
     46080 TIP3     7055     TIP3     H1       HT       0.417000       1.00800           0   0.00000       0.00000    
     46081 TIP3     7055     TIP3     H2       HT       0.417000       1.00800           0   0.00000     -0.301140E-02
     46082 TIP3     7056     TIP3     OH2      OT      -0.834000       15.9994           0   0.00000       0.00000    
     46083 TIP3     7056     TIP3     H1       HT       0.417000       1.00800           0   0.00000       0.00000    
     46084 TIP3     7056     TIP3     H2       HT       0.417000       1.00800           0   0.00000     -0.301140E-02
     46085 TIP3     7057     TIP3     OH2      OT      -0.834000       15.9994           0   0.00000       0.00000    
     46086 TIP3     7057     TIP3     H1       HT       0.417000       1.00800           0   0.00000       0.00000    
     46087 TIP3     7057     TIP3     H2       HT       0.417000       1.00800           0   0.00000     -0.301140E-02
     46088 TIP3     7058     TIP3     OH2      OT      -0.834000       15.9994           0   0.00000       0.00000    
     46089 TIP3     7058     TIP3     H1       HT       0.417000       1.00800           0   0.00000       0.00000    
     46090 TIP3     7058     TIP3     H2       HT       0.417000       1.00800           0   0.00000     -0.301140E-02
     46091 TIP3     7059     TIP3     OH2      OT      -0.834000       15.9994           0   0.00000       0.00000    
     46092 TIP3     7059     TIP3     H1       HT       0.417000       1.00800           0   0.00000       0.00000    
     46093 TIP3     7059     TIP3     H2       HT       0.417000       1.00800           0   0.00000     -0.301140E-02
     46094 TIP3     7060     TIP3     OH2      OT      -0.834000       15.9994           0   0.00000       0.00000    
     46095 TIP3     7060     TIP3     H1       HT       0.417000       1.00800           0   0.00000       0.00000    
     46096 TIP3     7060     TIP3     H2       HT       0.417000       1.00800           0   0.00000     -0.301140E-02
     46097 TIP3     7061     TIP3     OH2      OT      -0.834000       15.9994           0   0.00000       0.00000    
     46098 TIP3     7061     TIP3     H1       HT       0.417000       1.00800           0   0.00000       0.00000    
     46099 TIP3     7061     TIP3     H2       HT       0.417000       1.00800           0   0.00000     -0.301140E-02
     46100 TIP3     7062     TIP3     OH2      OT      -0.834000       15.9994           0   0.00000       0.00000    
     46101 TIP3     7062     TIP3     H1       HT       0.417000       1.00800           0   0.00000       0.00000    
     46102 TIP3     7062     TIP3     H2       HT       0.417000       1.00800           0   0.00000     -0.301140E-02
     46103 TIP3     7063     TIP3     OH2      OT      -0.834000       15.9994           0   0.00000       0.00000    
     46104 TIP3     7063     TIP3     H1       HT       0.417000       1.00800           0   0.00000       0.00000    
     46105 TIP3     7063     TIP3     H2       HT       0.417000       1.00800           0   0.00000     -0.301140E-02
     46106 TIP3     7064     TIP3     OH2      OT      -0.834000       15.9994           0   0.00000       0.00000    
     46107 TIP3     7064     TIP3     H1       HT       0.417000       1.00800           0   0.00000       0.00000    
     46108 TIP3     7064     TIP3     H2       HT       0.417000       1.00800           0   0.00000     -0.301140E-02
     46109 TIP3     7065     TIP3     OH2      OT      -0.834000       15.9994           0   0.00000       0.00000    
     46110 TIP3     7065     TIP3     H1       HT       0.417000       1.00800           0   0.00000       0.00000    
     46111 TIP3     7065     TIP3     H2       HT       0.417000       1.00800           0   0.00000     -0.301140E-02
     46112 TIP3     7066     TIP3     OH2      OT      -0.834000       15.9994           0   0.00000       0.00000    
     46113 TIP3     7066     TIP3     H1       HT       0.417000       1.00800           0   0.00000       0.00000    
     46114 TIP3     7066     TIP3     H2       HT       0.417000       1.00800           0   0.00000     -0.301140E-02
     46115 TIP3     7067     TIP3     OH2      OT      -0.834000       15.9994           0   0.00000       0.00000    
     46116 TIP3     7067     TIP3     H1       HT       0.417000       1.00800           0   0.00000       0.00000    
     46117 TIP3     7067     TIP3     H2       HT       0.417000       1.00800           0   0.00000     -0.301140E-02
     46118 TIP3     7068     TIP3     OH2      OT      -0.834000       15.9994           0   0.00000       0.00000    
     46119 TIP3     7068     TIP3     H1       HT       0.417000       1.00800           0   0.00000       0.00000    
     46120 TIP3     7068     TIP3     H2       HT       0.417000       1.00800           0   0.00000     -0.301140E-02
     46121 TIP3     7069     TIP3     OH2      OT      -0.834000       15.9994           0   0.00000       0.00000    
     46122 TIP3     7069     TIP3     H1       HT       0.417000       1.00800           0   0.00000       0.00000    
     46123 TIP3     7069     TIP3     H2       HT       0.417000       1.00800           0   0.00000     -0.301140E-02
     46124 TIP3     7070     TIP3     OH2      OT      -0.834000       15.9994           0   0.00000       0.00000    
     46125 TIP3     7070     TIP3     H1       HT       0.417000       1.00800           0   0.00000       0.00000    
     46126 TIP3     7070     TIP3     H2       HT       0.417000       1.00800           0   0.00000     -0.301140E-02
     46127 TIP3     7071     TIP3     OH2      OT      -0.834000       15.9994           0   0.00000       0.00000    
     46128 TIP3     7071     TIP3     H1       HT       0.417000       1.00800           0   0.00000       0.00000    
     46129 TIP3     7071     TIP3     H2       HT       0.417000       1.00800           0   0.00000     -0.301140E-02
     46130 TIP3     7072     TIP3     OH2      OT      -0.834000       15.9994           0   0.00000       0.00000    
     46131 TIP3     7072     TIP3     H1       HT       0.417000       1.00800           0   0.00000       0.00000    
     46132 TIP3     7072     TIP3     H2       HT       0.417000       1.00800           0   0.00000     -0.301140E-02
     46133 TIP3     7073     TIP3     OH2      OT      -0.834000       15.9994           0   0.00000       0.00000    
     46134 TIP3     7073     TIP3     H1       HT       0.417000       1.00800           0   0.00000       0.00000    
     46135 TIP3     7073     TIP3     H2       HT       0.417000       1.00800           0   0.00000     -0.301140E-02
     46136 TIP3     7074     TIP3     OH2      OT      -0.834000       15.9994           0   0.00000       0.00000    
     46137 TIP3     7074     TIP3     H1       HT       0.417000       1.00800           0   0.00000       0.00000    
     46138 TIP3     7074     TIP3     H2       HT       0.417000       1.00800           0   0.00000     -0.301140E-02
     46139 TIP3     7075     TIP3     OH2      OT      -0.834000       15.9994           0   0.00000       0.00000    
     46140 TIP3     7075     TIP3     H1       HT       0.417000       1.00800           0   0.00000       0.00000    
     46141 TIP3     7075     TIP3     H2       HT       0.417000       1.00800           0   0.00000     -0.301140E-02
     46142 TIP3     7076     TIP3     OH2      OT      -0.834000       15.9994           0   0.00000       0.00000    
     46143 TIP3     7076     TIP3     H1       HT       0.417000       1.00800           0   0.00000       0.00000    
     46144 TIP3     7076     TIP3     H2       HT       0.417000       1.00800           0   0.00000     -0.301140E-02
     46145 TIP3     7077     TIP3     OH2      OT      -0.834000       15.9994           0   0.00000       0.00000    
     46146 TIP3     7077     TIP3     H1       HT       0.417000       1.00800           0   0.00000       0.00000    
     46147 TIP3     7077     TIP3     H2       HT       0.417000       1.00800           0   0.00000     -0.301140E-02
     46148 TIP3     7078     TIP3     OH2      OT      -0.834000       15.9994           0   0.00000       0.00000    
     46149 TIP3     7078     TIP3     H1       HT       0.417000       1.00800           0   0.00000       0.00000    
     46150 TIP3     7078     TIP3     H2       HT       0.417000       1.00800           0   0.00000     -0.301140E-02
     46151 TIP3     7079     TIP3     OH2      OT      -0.834000       15.9994           0   0.00000       0.00000    
     46152 TIP3     7079     TIP3     H1       HT       0.417000       1.00800           0   0.00000       0.00000    
     46153 TIP3     7079     TIP3     H2       HT       0.417000       1.00800           0   0.00000     -0.301140E-02
     46154 TIP3     7080     TIP3     OH2      OT      -0.834000       15.9994           0   0.00000       0.00000    
     46155 TIP3     7080     TIP3     H1       HT       0.417000       1.00800           0   0.00000       0.00000    
     46156 TIP3     7080     TIP3     H2       HT       0.417000       1.00800           0   0.00000     -0.301140E-02
     46157 TIP3     7081     TIP3     OH2      OT      -0.834000       15.9994           0   0.00000       0.00000    
     46158 TIP3     7081     TIP3     H1       HT       0.417000       1.00800           0   0.00000       0.00000    
     46159 TIP3     7081     TIP3     H2       HT       0.417000       1.00800           0   0.00000     -0.301140E-02
     46160 TIP3     7082     TIP3     OH2      OT      -0.834000       15.9994           0   0.00000       0.00000    
     46161 TIP3     7082     TIP3     H1       HT       0.417000       1.00800           0   0.00000       0.00000    
     46162 TIP3     7082     TIP3     H2       HT       0.417000       1.00800           0   0.00000     -0.301140E-02
     46163 TIP3     7083     TIP3     OH2      OT      -0.834000       15.9994           0   0.00000       0.00000    
     46164 TIP3     7083     TIP3     H1       HT       0.417000       1.00800           0   0.00000       0.00000    
     46165 TIP3     7083     TIP3     H2       HT       0.417000       1.00800           0   0.00000     -0.301140E-02
     46166 TIP3     7084     TIP3     OH2      OT      -0.834000       15.9994           0   0.00000       0.00000    
     46167 TIP3     7084     TIP3     H1       HT       0.417000       1.00800           0   0.00000       0.00000    
     46168 TIP3     7084     TIP3     H2       HT       0.417000       1.00800           0   0.00000     -0.301140E-02
     46169 TIP3     7085     TIP3     OH2      OT      -0.834000       15.9994           0   0.00000       0.00000    
     46170 TIP3     7085     TIP3     H1       HT       0.417000       1.00800           0   0.00000       0.00000    
     46171 TIP3     7085     TIP3     H2       HT       0.417000       1.00800           0   0.00000     -0.301140E-02
     46172 TIP3     7086     TIP3     OH2      OT      -0.834000       15.9994           0   0.00000       0.00000    
     46173 TIP3     7086     TIP3     H1       HT       0.417000       1.00800           0   0.00000       0.00000    
     46174 TIP3     7086     TIP3     H2       HT       0.417000       1.00800           0   0.00000     -0.301140E-02
     46175 TIP3     7087     TIP3     OH2      OT      -0.834000       15.9994           0   0.00000       0.00000    
     46176 TIP3     7087     TIP3     H1       HT       0.417000       1.00800           0   0.00000       0.00000    
     46177 TIP3     7087     TIP3     H2       HT       0.417000       1.00800           0   0.00000     -0.301140E-02
     46178 TIP3     7088     TIP3     OH2      OT      -0.834000       15.9994           0   0.00000       0.00000    
     46179 TIP3     7088     TIP3     H1       HT       0.417000       1.00800           0   0.00000       0.00000    
     46180 TIP3     7088     TIP3     H2       HT       0.417000       1.00800           0   0.00000     -0.301140E-02
     46181 TIP3     7089     TIP3     OH2      OT      -0.834000       15.9994           0   0.00000       0.00000    
     46182 TIP3     7089     TIP3     H1       HT       0.417000       1.00800           0   0.00000       0.00000    
     46183 TIP3     7089     TIP3     H2       HT       0.417000       1.00800           0   0.00000     -0.301140E-02
     46184 TIP3     7090     TIP3     OH2      OT      -0.834000       15.9994           0   0.00000       0.00000    
     46185 TIP3     7090     TIP3     H1       HT       0.417000       1.00800           0   0.00000       0.00000    
     46186 TIP3     7090     TIP3     H2       HT       0.417000       1.00800           0   0.00000     -0.301140E-02
     46187 TIP3     7091     TIP3     OH2      OT      -0.834000       15.9994           0   0.00000       0.00000    
     46188 TIP3     7091     TIP3     H1       HT       0.417000       1.00800           0   0.00000       0.00000    
     46189 TIP3     7091     TIP3     H2       HT       0.417000       1.00800           0   0.00000     -0.301140E-02
     46190 TIP3     7092     TIP3     OH2      OT      -0.834000       15.9994           0   0.00000       0.00000    
     46191 TIP3     7092     TIP3     H1       HT       0.417000       1.00800           0   0.00000       0.00000    
     46192 TIP3     7092     TIP3     H2       HT       0.417000       1.00800           0   0.00000     -0.301140E-02
     46193 TIP3     7093     TIP3     OH2      OT      -0.834000       15.9994           0   0.00000       0.00000    
     46194 TIP3     7093     TIP3     H1       HT       0.417000       1.00800           0   0.00000       0.00000    
     46195 TIP3     7093     TIP3     H2       HT       0.417000       1.00800           0   0.00000     -0.301140E-02
     46196 TIP3     7094     TIP3     OH2      OT      -0.834000       15.9994           0   0.00000       0.00000    
     46197 TIP3     7094     TIP3     H1       HT       0.417000       1.00800           0   0.00000       0.00000    
     46198 TIP3     7094     TIP3     H2       HT       0.417000       1.00800           0   0.00000     -0.301140E-02
     46199 TIP3     7095     TIP3     OH2      OT      -0.834000       15.9994           0   0.00000       0.00000    
     46200 TIP3     7095     TIP3     H1       HT       0.417000       1.00800           0   0.00000       0.00000    
     46201 TIP3     7095     TIP3     H2       HT       0.417000       1.00800           0   0.00000     -0.301140E-02
     46202 TIP3     7096     TIP3     OH2      OT      -0.834000       15.9994           0   0.00000       0.00000    
     46203 TIP3     7096     TIP3     H1       HT       0.417000       1.00800           0   0.00000       0.00000    
     46204 TIP3     7096     TIP3     H2       HT       0.417000       1.00800           0   0.00000     -0.301140E-02
     46205 TIP3     7097     TIP3     OH2      OT      -0.834000       15.9994           0   0.00000       0.00000    
     46206 TIP3     7097     TIP3     H1       HT       0.417000       1.00800           0   0.00000       0.00000    
     46207 TIP3     7097     TIP3     H2       HT       0.417000       1.00800           0   0.00000     -0.301140E-02
     46208 TIP3     7098     TIP3     OH2      OT      -0.834000       15.9994           0   0.00000       0.00000    
     46209 TIP3     7098     TIP3     H1       HT       0.417000       1.00800           0   0.00000       0.00000    
     46210 TIP3     7098     TIP3     H2       HT       0.417000       1.00800           0   0.00000     -0.301140E-02
     46211 TIP3     7099     TIP3     OH2      OT      -0.834000       15.9994           0   0.00000       0.00000    
     46212 TIP3     7099     TIP3     H1       HT       0.417000       1.00800           0   0.00000       0.00000    
     46213 TIP3     7099     TIP3     H2       HT       0.417000       1.00800           0   0.00000     -0.301140E-02
     46214 TIP3     7100     TIP3     OH2      OT      -0.834000       15.9994           0   0.00000       0.00000    
     46215 TIP3     7100     TIP3     H1       HT       0.417000       1.00800           0   0.00000       0.00000    
     46216 TIP3     7100     TIP3     H2       HT       0.417000       1.00800           0   0.00000     -0.301140E-02
     46217 TIP3     7101     TIP3     OH2      OT      -0.834000       15.9994           0   0.00000       0.00000    
     46218 TIP3     7101     TIP3     H1       HT       0.417000       1.00800           0   0.00000       0.00000    
     46219 TIP3     7101     TIP3     H2       HT       0.417000       1.00800           0   0.00000     -0.301140E-02
     46220 TIP3     7102     TIP3     OH2      OT      -0.834000       15.9994           0   0.00000       0.00000    
     46221 TIP3     7102     TIP3     H1       HT       0.417000       1.00800           0   0.00000       0.00000    
     46222 TIP3     7102     TIP3     H2       HT       0.417000       1.00800           0   0.00000     -0.301140E-02
     46223 TIP3     7103     TIP3     OH2      OT      -0.834000       15.9994           0   0.00000       0.00000    
     46224 TIP3     7103     TIP3     H1       HT       0.417000       1.00800           0   0.00000       0.00000    
     46225 TIP3     7103     TIP3     H2       HT       0.417000       1.00800           0   0.00000     -0.301140E-02
     46226 TIP3     7104     TIP3     OH2      OT      -0.834000       15.9994           0   0.00000       0.00000    
     46227 TIP3     7104     TIP3     H1       HT       0.417000       1.00800           0   0.00000       0.00000    
     46228 TIP3     7104     TIP3     H2       HT       0.417000       1.00800           0   0.00000     -0.301140E-02
     46229 TIP3     7105     TIP3     OH2      OT      -0.834000       15.9994           0   0.00000       0.00000    
     46230 TIP3     7105     TIP3     H1       HT       0.417000       1.00800           0   0.00000       0.00000    
     46231 TIP3     7105     TIP3     H2       HT       0.417000       1.00800           0   0.00000     -0.301140E-02
     46232 TIP3     7106     TIP3     OH2      OT      -0.834000       15.9994           0   0.00000       0.00000    
     46233 TIP3     7106     TIP3     H1       HT       0.417000       1.00800           0   0.00000       0.00000    
     46234 TIP3     7106     TIP3     H2       HT       0.417000       1.00800           0   0.00000     -0.301140E-02
     46235 TIP3     7107     TIP3     OH2      OT      -0.834000       15.9994           0   0.00000       0.00000    
     46236 TIP3     7107     TIP3     H1       HT       0.417000       1.00800           0   0.00000       0.00000    
     46237 TIP3     7107     TIP3     H2       HT       0.417000       1.00800           0   0.00000     -0.301140E-02
     46238 TIP3     7108     TIP3     OH2      OT      -0.834000       15.9994           0   0.00000       0.00000    
     46239 TIP3     7108     TIP3     H1       HT       0.417000       1.00800           0   0.00000       0.00000    
     46240 TIP3     7108     TIP3     H2       HT       0.417000       1.00800           0   0.00000     -0.301140E-02
     46241 TIP3     7109     TIP3     OH2      OT      -0.834000       15.9994           0   0.00000       0.00000    
     46242 TIP3     7109     TIP3     H1       HT       0.417000       1.00800           0   0.00000       0.00000    
     46243 TIP3     7109     TIP3     H2       HT       0.417000       1.00800           0   0.00000     -0.301140E-02
     46244 TIP3     7110     TIP3     OH2      OT      -0.834000       15.9994           0   0.00000       0.00000    
     46245 TIP3     7110     TIP3     H1       HT       0.417000       1.00800           0   0.00000       0.00000    
     46246 TIP3     7110     TIP3     H2       HT       0.417000       1.00800           0   0.00000     -0.301140E-02
     46247 TIP3     7111     TIP3     OH2      OT      -0.834000       15.9994           0   0.00000       0.00000    
     46248 TIP3     7111     TIP3     H1       HT       0.417000       1.00800           0   0.00000       0.00000    
     46249 TIP3     7111     TIP3     H2       HT       0.417000       1.00800           0   0.00000     -0.301140E-02
     46250 TIP3     7112     TIP3     OH2      OT      -0.834000       15.9994           0   0.00000       0.00000    
     46251 TIP3     7112     TIP3     H1       HT       0.417000       1.00800           0   0.00000       0.00000    
     46252 TIP3     7112     TIP3     H2       HT       0.417000       1.00800           0   0.00000     -0.301140E-02
     46253 TIP3     7113     TIP3     OH2      OT      -0.834000       15.9994           0   0.00000       0.00000    
     46254 TIP3     7113     TIP3     H1       HT       0.417000       1.00800           0   0.00000       0.00000    
     46255 TIP3     7113     TIP3     H2       HT       0.417000       1.00800           0   0.00000     -0.301140E-02
     46256 TIP3     7114     TIP3     OH2      OT      -0.834000       15.9994           0   0.00000       0.00000    
     46257 TIP3     7114     TIP3     H1       HT       0.417000       1.00800           0   0.00000       0.00000    
     46258 TIP3     7114     TIP3     H2       HT       0.417000       1.00800           0   0.00000     -0.301140E-02
     46259 TIP3     7115     TIP3     OH2      OT      -0.834000       15.9994           0   0.00000       0.00000    
     46260 TIP3     7115     TIP3     H1       HT       0.417000       1.00800           0   0.00000       0.00000    
     46261 TIP3     7115     TIP3     H2       HT       0.417000       1.00800           0   0.00000     -0.301140E-02
     46262 TIP3     7116     TIP3     OH2      OT      -0.834000       15.9994           0   0.00000       0.00000    
     46263 TIP3     7116     TIP3     H1       HT       0.417000       1.00800           0   0.00000       0.00000    
     46264 TIP3     7116     TIP3     H2       HT       0.417000       1.00800           0   0.00000     -0.301140E-02
     46265 TIP3     7117     TIP3     OH2      OT      -0.834000       15.9994           0   0.00000       0.00000    
     46266 TIP3     7117     TIP3     H1       HT       0.417000       1.00800           0   0.00000       0.00000    
     46267 TIP3     7117     TIP3     H2       HT       0.417000       1.00800           0   0.00000     -0.301140E-02
     46268 TIP3     7118     TIP3     OH2      OT      -0.834000       15.9994           0   0.00000       0.00000    
     46269 TIP3     7118     TIP3     H1       HT       0.417000       1.00800           0   0.00000       0.00000    
     46270 TIP3     7118     TIP3     H2       HT       0.417000       1.00800           0   0.00000     -0.301140E-02
     46271 TIP3     7119     TIP3     OH2      OT      -0.834000       15.9994           0   0.00000       0.00000    
     46272 TIP3     7119     TIP3     H1       HT       0.417000       1.00800           0   0.00000       0.00000    
     46273 TIP3     7119     TIP3     H2       HT       0.417000       1.00800           0   0.00000     -0.301140E-02
     46274 TIP3     7120     TIP3     OH2      OT      -0.834000       15.9994           0   0.00000       0.00000    
     46275 TIP3     7120     TIP3     H1       HT       0.417000       1.00800           0   0.00000       0.00000    
     46276 TIP3     7120     TIP3     H2       HT       0.417000       1.00800           0   0.00000     -0.301140E-02
     46277 TIP3     7121     TIP3     OH2      OT      -0.834000       15.9994           0   0.00000       0.00000    
     46278 TIP3     7121     TIP3     H1       HT       0.417000       1.00800           0   0.00000       0.00000    
     46279 TIP3     7121     TIP3     H2       HT       0.417000       1.00800           0   0.00000     -0.301140E-02
     46280 TIP3     7122     TIP3     OH2      OT      -0.834000       15.9994           0   0.00000       0.00000    
     46281 TIP3     7122     TIP3     H1       HT       0.417000       1.00800           0   0.00000       0.00000    
     46282 TIP3     7122     TIP3     H2       HT       0.417000       1.00800           0   0.00000     -0.301140E-02
     46283 TIP3     7123     TIP3     OH2      OT      -0.834000       15.9994           0   0.00000       0.00000    
     46284 TIP3     7123     TIP3     H1       HT       0.417000       1.00800           0   0.00000       0.00000    
     46285 TIP3     7123     TIP3     H2       HT       0.417000       1.00800           0   0.00000     -0.301140E-02
     46286 TIP3     7124     TIP3     OH2      OT      -0.834000       15.9994           0   0.00000       0.00000    
     46287 TIP3     7124     TIP3     H1       HT       0.417000       1.00800           0   0.00000       0.00000    
     46288 TIP3     7124     TIP3     H2       HT       0.417000       1.00800           0   0.00000     -0.301140E-02
     46289 TIP3     7125     TIP3     OH2      OT      -0.834000       15.9994           0   0.00000       0.00000    
     46290 TIP3     7125     TIP3     H1       HT       0.417000       1.00800           0   0.00000       0.00000    
     46291 TIP3     7125     TIP3     H2       HT       0.417000       1.00800           0   0.00000     -0.301140E-02
     46292 TIP3     7126     TIP3     OH2      OT      -0.834000       15.9994           0   0.00000       0.00000    
     46293 TIP3     7126     TIP3     H1       HT       0.417000       1.00800           0   0.00000       0.00000    
     46294 TIP3     7126     TIP3     H2       HT       0.417000       1.00800           0   0.00000     -0.301140E-02
     46295 TIP3     7127     TIP3     OH2      OT      -0.834000       15.9994           0   0.00000       0.00000    
     46296 TIP3     7127     TIP3     H1       HT       0.417000       1.00800           0   0.00000       0.00000    
     46297 TIP3     7127     TIP3     H2       HT       0.417000       1.00800           0   0.00000     -0.301140E-02
     46298 TIP3     7128     TIP3     OH2      OT      -0.834000       15.9994           0   0.00000       0.00000    
     46299 TIP3     7128     TIP3     H1       HT       0.417000       1.00800           0   0.00000       0.00000    
     46300 TIP3     7128     TIP3     H2       HT       0.417000       1.00800           0   0.00000     -0.301140E-02
     46301 TIP3     7129     TIP3     OH2      OT      -0.834000       15.9994           0   0.00000       0.00000    
     46302 TIP3     7129     TIP3     H1       HT       0.417000       1.00800           0   0.00000       0.00000    
     46303 TIP3     7129     TIP3     H2       HT       0.417000       1.00800           0   0.00000     -0.301140E-02
     46304 TIP3     7130     TIP3     OH2      OT      -0.834000       15.9994           0   0.00000       0.00000    
     46305 TIP3     7130     TIP3     H1       HT       0.417000       1.00800           0   0.00000       0.00000    
     46306 TIP3     7130     TIP3     H2       HT       0.417000       1.00800           0   0.00000     -0.301140E-02
     46307 TIP3     7131     TIP3     OH2      OT      -0.834000       15.9994           0   0.00000       0.00000    
     46308 TIP3     7131     TIP3     H1       HT       0.417000       1.00800           0   0.00000       0.00000    
     46309 TIP3     7131     TIP3     H2       HT       0.417000       1.00800           0   0.00000     -0.301140E-02
     46310 TIP3     7132     TIP3     OH2      OT      -0.834000       15.9994           0   0.00000       0.00000    
     46311 TIP3     7132     TIP3     H1       HT       0.417000       1.00800           0   0.00000       0.00000    
     46312 TIP3     7132     TIP3     H2       HT       0.417000       1.00800           0   0.00000     -0.301140E-02
     46313 TIP3     7133     TIP3     OH2      OT      -0.834000       15.9994           0   0.00000       0.00000    
     46314 TIP3     7133     TIP3     H1       HT       0.417000       1.00800           0   0.00000       0.00000    
     46315 TIP3     7133     TIP3     H2       HT       0.417000       1.00800           0   0.00000     -0.301140E-02
     46316 TIP3     7134     TIP3     OH2      OT      -0.834000       15.9994           0   0.00000       0.00000    
     46317 TIP3     7134     TIP3     H1       HT       0.417000       1.00800           0   0.00000       0.00000    
     46318 TIP3     7134     TIP3     H2       HT       0.417000       1.00800           0   0.00000     -0.301140E-02
     46319 TIP3     7135     TIP3     OH2      OT      -0.834000       15.9994           0   0.00000       0.00000    
     46320 TIP3     7135     TIP3     H1       HT       0.417000       1.00800           0   0.00000       0.00000    
     46321 TIP3     7135     TIP3     H2       HT       0.417000       1.00800           0   0.00000     -0.301140E-02
     46322 TIP3     7136     TIP3     OH2      OT      -0.834000       15.9994           0   0.00000       0.00000    
     46323 TIP3     7136     TIP3     H1       HT       0.417000       1.00800           0   0.00000       0.00000    
     46324 TIP3     7136     TIP3     H2       HT       0.417000       1.00800           0   0.00000     -0.301140E-02
     46325 TIP3     7137     TIP3     OH2      OT      -0.834000       15.9994           0   0.00000       0.00000    
     46326 TIP3     7137     TIP3     H1       HT       0.417000       1.00800           0   0.00000       0.00000    
     46327 TIP3     7137     TIP3     H2       HT       0.417000       1.00800           0   0.00000     -0.301140E-02
     46328 TIP3     7138     TIP3     OH2      OT      -0.834000       15.9994           0   0.00000       0.00000    
     46329 TIP3     7138     TIP3     H1       HT       0.417000       1.00800           0   0.00000       0.00000    
     46330 TIP3     7138     TIP3     H2       HT       0.417000       1.00800           0   0.00000     -0.301140E-02
     46331 TIP3     7139     TIP3     OH2      OT      -0.834000       15.9994           0   0.00000       0.00000    
     46332 TIP3     7139     TIP3     H1       HT       0.417000       1.00800           0   0.00000       0.00000    
     46333 TIP3     7139     TIP3     H2       HT       0.417000       1.00800           0   0.00000     -0.301140E-02
     46334 TIP3     7140     TIP3     OH2      OT      -0.834000       15.9994           0   0.00000       0.00000    
     46335 TIP3     7140     TIP3     H1       HT       0.417000       1.00800           0   0.00000       0.00000    
     46336 TIP3     7140     TIP3     H2       HT       0.417000       1.00800           0   0.00000     -0.301140E-02
     46337 TIP3     7141     TIP3     OH2      OT      -0.834000       15.9994           0   0.00000       0.00000    
     46338 TIP3     7141     TIP3     H1       HT       0.417000       1.00800           0   0.00000       0.00000    
     46339 TIP3     7141     TIP3     H2       HT       0.417000       1.00800           0   0.00000     -0.301140E-02
     46340 TIP3     7142     TIP3     OH2      OT      -0.834000       15.9994           0   0.00000       0.00000    
     46341 TIP3     7142     TIP3     H1       HT       0.417000       1.00800           0   0.00000       0.00000    
     46342 TIP3     7142     TIP3     H2       HT       0.417000       1.00800           0   0.00000     -0.301140E-02
     46343 TIP3     7143     TIP3     OH2      OT      -0.834000       15.9994           0   0.00000       0.00000    
     46344 TIP3     7143     TIP3     H1       HT       0.417000       1.00800           0   0.00000       0.00000    
     46345 TIP3     7143     TIP3     H2       HT       0.417000       1.00800           0   0.00000     -0.301140E-02
     46346 TIP3     7144     TIP3     OH2      OT      -0.834000       15.9994           0   0.00000       0.00000    
     46347 TIP3     7144     TIP3     H1       HT       0.417000       1.00800           0   0.00000       0.00000    
     46348 TIP3     7144     TIP3     H2       HT       0.417000       1.00800           0   0.00000     -0.301140E-02
     46349 TIP3     7145     TIP3     OH2      OT      -0.834000       15.9994           0   0.00000       0.00000    
     46350 TIP3     7145     TIP3     H1       HT       0.417000       1.00800           0   0.00000       0.00000    
     46351 TIP3     7145     TIP3     H2       HT       0.417000       1.00800           0   0.00000     -0.301140E-02
     46352 TIP3     7146     TIP3     OH2      OT      -0.834000       15.9994           0   0.00000       0.00000    
     46353 TIP3     7146     TIP3     H1       HT       0.417000       1.00800           0   0.00000       0.00000    
     46354 TIP3     7146     TIP3     H2       HT       0.417000       1.00800           0   0.00000     -0.301140E-02
     46355 TIP3     7147     TIP3     OH2      OT      -0.834000       15.9994           0   0.00000       0.00000    
     46356 TIP3     7147     TIP3     H1       HT       0.417000       1.00800           0   0.00000       0.00000    
     46357 TIP3     7147     TIP3     H2       HT       0.417000       1.00800           0   0.00000     -0.301140E-02
     46358 TIP3     7148     TIP3     OH2      OT      -0.834000       15.9994           0   0.00000       0.00000    
     46359 TIP3     7148     TIP3     H1       HT       0.417000       1.00800           0   0.00000       0.00000    
     46360 TIP3     7148     TIP3     H2       HT       0.417000       1.00800           0   0.00000     -0.301140E-02
     46361 TIP3     7149     TIP3     OH2      OT      -0.834000       15.9994           0   0.00000       0.00000    
     46362 TIP3     7149     TIP3     H1       HT       0.417000       1.00800           0   0.00000       0.00000    
     46363 TIP3     7149     TIP3     H2       HT       0.417000       1.00800           0   0.00000     -0.301140E-02
     46364 TIP3     7150     TIP3     OH2      OT      -0.834000       15.9994           0   0.00000       0.00000    
     46365 TIP3     7150     TIP3     H1       HT       0.417000       1.00800           0   0.00000       0.00000    
     46366 TIP3     7150     TIP3     H2       HT       0.417000       1.00800           0   0.00000     -0.301140E-02
     46367 TIP3     7151     TIP3     OH2      OT      -0.834000       15.9994           0   0.00000       0.00000    
     46368 TIP3     7151     TIP3     H1       HT       0.417000       1.00800           0   0.00000       0.00000    
     46369 TIP3     7151     TIP3     H2       HT       0.417000       1.00800           0   0.00000     -0.301140E-02
     46370 TIP3     7152     TIP3     OH2      OT      -0.834000       15.9994           0   0.00000       0.00000    
     46371 TIP3     7152     TIP3     H1       HT       0.417000       1.00800           0   0.00000       0.00000    
     46372 TIP3     7152     TIP3     H2       HT       0.417000       1.00800           0   0.00000     -0.301140E-02
     46373 TIP3     7153     TIP3     OH2      OT      -0.834000       15.9994           0   0.00000       0.00000    
     46374 TIP3     7153     TIP3     H1       HT       0.417000       1.00800           0   0.00000       0.00000    
     46375 TIP3     7153     TIP3     H2       HT       0.417000       1.00800           0   0.00000     -0.301140E-02
     46376 TIP3     7154     TIP3     OH2      OT      -0.834000       15.9994           0   0.00000       0.00000    
     46377 TIP3     7154     TIP3     H1       HT       0.417000       1.00800           0   0.00000       0.00000    
     46378 TIP3     7154     TIP3     H2       HT       0.417000       1.00800           0   0.00000     -0.301140E-02
     46379 TIP3     7155     TIP3     OH2      OT      -0.834000       15.9994           0   0.00000       0.00000    
     46380 TIP3     7155     TIP3     H1       HT       0.417000       1.00800           0   0.00000       0.00000    
     46381 TIP3     7155     TIP3     H2       HT       0.417000       1.00800           0   0.00000     -0.301140E-02
     46382 TIP3     7156     TIP3     OH2      OT      -0.834000       15.9994           0   0.00000       0.00000    
     46383 TIP3     7156     TIP3     H1       HT       0.417000       1.00800           0   0.00000       0.00000    
     46384 TIP3     7156     TIP3     H2       HT       0.417000       1.00800           0   0.00000     -0.301140E-02
     46385 TIP3     7157     TIP3     OH2      OT      -0.834000       15.9994           0   0.00000       0.00000    
     46386 TIP3     7157     TIP3     H1       HT       0.417000       1.00800           0   0.00000       0.00000    
     46387 TIP3     7157     TIP3     H2       HT       0.417000       1.00800           0   0.00000     -0.301140E-02
     46388 TIP3     7158     TIP3     OH2      OT      -0.834000       15.9994           0   0.00000       0.00000    
     46389 TIP3     7158     TIP3     H1       HT       0.417000       1.00800           0   0.00000       0.00000    
     46390 TIP3     7158     TIP3     H2       HT       0.417000       1.00800           0   0.00000     -0.301140E-02
     46391 TIP3     7159     TIP3     OH2      OT      -0.834000       15.9994           0   0.00000       0.00000    
     46392 TIP3     7159     TIP3     H1       HT       0.417000       1.00800           0   0.00000       0.00000    
     46393 TIP3     7159     TIP3     H2       HT       0.417000       1.00800           0   0.00000     -0.301140E-02
     46394 TIP3     7160     TIP3     OH2      OT      -0.834000       15.9994           0   0.00000       0.00000    
     46395 TIP3     7160     TIP3     H1       HT       0.417000       1.00800           0   0.00000       0.00000    
     46396 TIP3     7160     TIP3     H2       HT       0.417000       1.00800           0   0.00000     -0.301140E-02
     46397 TIP3     7161     TIP3     OH2      OT      -0.834000       15.9994           0   0.00000       0.00000    
     46398 TIP3     7161     TIP3     H1       HT       0.417000       1.00800           0   0.00000       0.00000    
     46399 TIP3     7161     TIP3     H2       HT       0.417000       1.00800           0   0.00000     -0.301140E-02
     46400 TIP3     7162     TIP3     OH2      OT      -0.834000       15.9994           0   0.00000       0.00000    
     46401 TIP3     7162     TIP3     H1       HT       0.417000       1.00800           0   0.00000       0.00000    
     46402 TIP3     7162     TIP3     H2       HT       0.417000       1.00800           0   0.00000     -0.301140E-02
     46403 TIP3     7163     TIP3     OH2      OT      -0.834000       15.9994           0   0.00000       0.00000    
     46404 TIP3     7163     TIP3     H1       HT       0.417000       1.00800           0   0.00000       0.00000    
     46405 TIP3     7163     TIP3     H2       HT       0.417000       1.00800           0   0.00000     -0.301140E-02
     46406 TIP3     7164     TIP3     OH2      OT      -0.834000       15.9994           0   0.00000       0.00000    
     46407 TIP3     7164     TIP3     H1       HT       0.417000       1.00800           0   0.00000       0.00000    
     46408 TIP3     7164     TIP3     H2       HT       0.417000       1.00800           0   0.00000     -0.301140E-02
     46409 TIP3     7165     TIP3     OH2      OT      -0.834000       15.9994           0   0.00000       0.00000    
     46410 TIP3     7165     TIP3     H1       HT       0.417000       1.00800           0   0.00000       0.00000    
     46411 TIP3     7165     TIP3     H2       HT       0.417000       1.00800           0   0.00000     -0.301140E-02
     46412 TIP3     7166     TIP3     OH2      OT      -0.834000       15.9994           0   0.00000       0.00000    
     46413 TIP3     7166     TIP3     H1       HT       0.417000       1.00800           0   0.00000       0.00000    
     46414 TIP3     7166     TIP3     H2       HT       0.417000       1.00800           0   0.00000     -0.301140E-02
     46415 TIP3     7167     TIP3     OH2      OT      -0.834000       15.9994           0   0.00000       0.00000    
     46416 TIP3     7167     TIP3     H1       HT       0.417000       1.00800           0   0.00000       0.00000    
     46417 TIP3     7167     TIP3     H2       HT       0.417000       1.00800           0   0.00000     -0.301140E-02
     46418 TIP3     7168     TIP3     OH2      OT      -0.834000       15.9994           0   0.00000       0.00000    
     46419 TIP3     7168     TIP3     H1       HT       0.417000       1.00800           0   0.00000       0.00000    
     46420 TIP3     7168     TIP3     H2       HT       0.417000       1.00800           0   0.00000     -0.301140E-02
     46421 TIP3     7169     TIP3     OH2      OT      -0.834000       15.9994           0   0.00000       0.00000    
     46422 TIP3     7169     TIP3     H1       HT       0.417000       1.00800           0   0.00000       0.00000    
     46423 TIP3     7169     TIP3     H2       HT       0.417000       1.00800           0   0.00000     -0.301140E-02
     46424 TIP3     7170     TIP3     OH2      OT      -0.834000       15.9994           0   0.00000       0.00000    
     46425 TIP3     7170     TIP3     H1       HT       0.417000       1.00800           0   0.00000       0.00000    
     46426 TIP3     7170     TIP3     H2       HT       0.417000       1.00800           0   0.00000     -0.301140E-02
     46427 TIP3     7171     TIP3     OH2      OT      -0.834000       15.9994           0   0.00000       0.00000    
     46428 TIP3     7171     TIP3     H1       HT       0.417000       1.00800           0   0.00000       0.00000    
     46429 TIP3     7171     TIP3     H2       HT       0.417000       1.00800           0   0.00000     -0.301140E-02
     46430 TIP3     7172     TIP3     OH2      OT      -0.834000       15.9994           0   0.00000       0.00000    
     46431 TIP3     7172     TIP3     H1       HT       0.417000       1.00800           0   0.00000       0.00000    
     46432 TIP3     7172     TIP3     H2       HT       0.417000       1.00800           0   0.00000     -0.301140E-02
     46433 TIP3     7173     TIP3     OH2      OT      -0.834000       15.9994           0   0.00000       0.00000    
     46434 TIP3     7173     TIP3     H1       HT       0.417000       1.00800           0   0.00000       0.00000    
     46435 TIP3     7173     TIP3     H2       HT       0.417000       1.00800           0   0.00000     -0.301140E-02
     46436 TIP3     7174     TIP3     OH2      OT      -0.834000       15.9994           0   0.00000       0.00000    
     46437 TIP3     7174     TIP3     H1       HT       0.417000       1.00800           0   0.00000       0.00000    
     46438 TIP3     7174     TIP3     H2       HT       0.417000       1.00800           0   0.00000     -0.301140E-02
     46439 TIP3     7175     TIP3     OH2      OT      -0.834000       15.9994           0   0.00000       0.00000    
     46440 TIP3     7175     TIP3     H1       HT       0.417000       1.00800           0   0.00000       0.00000    
     46441 TIP3     7175     TIP3     H2       HT       0.417000       1.00800           0   0.00000     -0.301140E-02
     46442 TIP3     7176     TIP3     OH2      OT      -0.834000       15.9994           0   0.00000       0.00000    
     46443 TIP3     7176     TIP3     H1       HT       0.417000       1.00800           0   0.00000       0.00000    
     46444 TIP3     7176     TIP3     H2       HT       0.417000       1.00800           0   0.00000     -0.301140E-02
     46445 TIP3     7177     TIP3     OH2      OT      -0.834000       15.9994           0   0.00000       0.00000    
     46446 TIP3     7177     TIP3     H1       HT       0.417000       1.00800           0   0.00000       0.00000    
     46447 TIP3     7177     TIP3     H2       HT       0.417000       1.00800           0   0.00000     -0.301140E-02
     46448 TIP3     7178     TIP3     OH2      OT      -0.834000       15.9994           0   0.00000       0.00000    
     46449 TIP3     7178     TIP3     H1       HT       0.417000       1.00800           0   0.00000       0.00000    
     46450 TIP3     7178     TIP3     H2       HT       0.417000       1.00800           0   0.00000     -0.301140E-02
     46451 TIP3     7179     TIP3     OH2      OT      -0.834000       15.9994           0   0.00000       0.00000    
     46452 TIP3     7179     TIP3     H1       HT       0.417000       1.00800           0   0.00000       0.00000    
     46453 TIP3     7179     TIP3     H2       HT       0.417000       1.00800           0   0.00000     -0.301140E-02
     46454 TIP3     7180     TIP3     OH2      OT      -0.834000       15.9994           0   0.00000       0.00000    
     46455 TIP3     7180     TIP3     H1       HT       0.417000       1.00800           0   0.00000       0.00000    
     46456 TIP3     7180     TIP3     H2       HT       0.417000       1.00800           0   0.00000     -0.301140E-02
     46457 TIP3     7181     TIP3     OH2      OT      -0.834000       15.9994           0   0.00000       0.00000    
     46458 TIP3     7181     TIP3     H1       HT       0.417000       1.00800           0   0.00000       0.00000    
     46459 TIP3     7181     TIP3     H2       HT       0.417000       1.00800           0   0.00000     -0.301140E-02
     46460 TIP3     7182     TIP3     OH2      OT      -0.834000       15.9994           0   0.00000       0.00000    
     46461 TIP3     7182     TIP3     H1       HT       0.417000       1.00800           0   0.00000       0.00000    
     46462 TIP3     7182     TIP3     H2       HT       0.417000       1.00800           0   0.00000     -0.301140E-02
     46463 TIP3     7183     TIP3     OH2      OT      -0.834000       15.9994           0   0.00000       0.00000    
     46464 TIP3     7183     TIP3     H1       HT       0.417000       1.00800           0   0.00000       0.00000    
     46465 TIP3     7183     TIP3     H2       HT       0.417000       1.00800           0   0.00000     -0.301140E-02
     46466 TIP3     7184     TIP3     OH2      OT      -0.834000       15.9994           0   0.00000       0.00000    
     46467 TIP3     7184     TIP3     H1       HT       0.417000       1.00800           0   0.00000       0.00000    
     46468 TIP3     7184     TIP3     H2       HT       0.417000       1.00800           0   0.00000     -0.301140E-02
     46469 TIP3     7185     TIP3     OH2      OT      -0.834000       15.9994           0   0.00000       0.00000    
     46470 TIP3     7185     TIP3     H1       HT       0.417000       1.00800           0   0.00000       0.00000    
     46471 TIP3     7185     TIP3     H2       HT       0.417000       1.00800           0   0.00000     -0.301140E-02
     46472 TIP3     7186     TIP3     OH2      OT      -0.834000       15.9994           0   0.00000       0.00000    
     46473 TIP3     7186     TIP3     H1       HT       0.417000       1.00800           0   0.00000       0.00000    
     46474 TIP3     7186     TIP3     H2       HT       0.417000       1.00800           0   0.00000     -0.301140E-02
     46475 TIP3     7187     TIP3     OH2      OT      -0.834000       15.9994           0   0.00000       0.00000    
     46476 TIP3     7187     TIP3     H1       HT       0.417000       1.00800           0   0.00000       0.00000    
     46477 TIP3     7187     TIP3     H2       HT       0.417000       1.00800           0   0.00000     -0.301140E-02
     46478 TIP3     7188     TIP3     OH2      OT      -0.834000       15.9994           0   0.00000       0.00000    
     46479 TIP3     7188     TIP3     H1       HT       0.417000       1.00800           0   0.00000       0.00000    
     46480 TIP3     7188     TIP3     H2       HT       0.417000       1.00800           0   0.00000     -0.301140E-02
     46481 TIP3     7189     TIP3     OH2      OT      -0.834000       15.9994           0   0.00000       0.00000    
     46482 TIP3     7189     TIP3     H1       HT       0.417000       1.00800           0   0.00000       0.00000    
     46483 TIP3     7189     TIP3     H2       HT       0.417000       1.00800           0   0.00000     -0.301140E-02
     46484 TIP3     7190     TIP3     OH2      OT      -0.834000       15.9994           0   0.00000       0.00000    
     46485 TIP3     7190     TIP3     H1       HT       0.417000       1.00800           0   0.00000       0.00000    
     46486 TIP3     7190     TIP3     H2       HT       0.417000       1.00800           0   0.00000     -0.301140E-02
     46487 TIP3     7191     TIP3     OH2      OT      -0.834000       15.9994           0   0.00000       0.00000    
     46488 TIP3     7191     TIP3     H1       HT       0.417000       1.00800           0   0.00000       0.00000    
     46489 TIP3     7191     TIP3     H2       HT       0.417000       1.00800           0   0.00000     -0.301140E-02
     46490 TIP3     7192     TIP3     OH2      OT      -0.834000       15.9994           0   0.00000       0.00000    
     46491 TIP3     7192     TIP3     H1       HT       0.417000       1.00800           0   0.00000       0.00000    
     46492 TIP3     7192     TIP3     H2       HT       0.417000       1.00800           0   0.00000     -0.301140E-02
     46493 TIP3     7193     TIP3     OH2      OT      -0.834000       15.9994           0   0.00000       0.00000    
     46494 TIP3     7193     TIP3     H1       HT       0.417000       1.00800           0   0.00000       0.00000    
     46495 TIP3     7193     TIP3     H2       HT       0.417000       1.00800           0   0.00000     -0.301140E-02
     46496 TIP3     7194     TIP3     OH2      OT      -0.834000       15.9994           0   0.00000       0.00000    
     46497 TIP3     7194     TIP3     H1       HT       0.417000       1.00800           0   0.00000       0.00000    
     46498 TIP3     7194     TIP3     H2       HT       0.417000       1.00800           0   0.00000     -0.301140E-02
     46499 TIP3     7195     TIP3     OH2      OT      -0.834000       15.9994           0   0.00000       0.00000    
     46500 TIP3     7195     TIP3     H1       HT       0.417000       1.00800           0   0.00000       0.00000    
     46501 TIP3     7195     TIP3     H2       HT       0.417000       1.00800           0   0.00000     -0.301140E-02
     46502 TIP3     7196     TIP3     OH2      OT      -0.834000       15.9994           0   0.00000       0.00000    
     46503 TIP3     7196     TIP3     H1       HT       0.417000       1.00800           0   0.00000       0.00000    
     46504 TIP3     7196     TIP3     H2       HT       0.417000       1.00800           0   0.00000     -0.301140E-02
     46505 TIP3     7197     TIP3     OH2      OT      -0.834000       15.9994           0   0.00000       0.00000    
     46506 TIP3     7197     TIP3     H1       HT       0.417000       1.00800           0   0.00000       0.00000    
     46507 TIP3     7197     TIP3     H2       HT       0.417000       1.00800           0   0.00000     -0.301140E-02
     46508 TIP3     7198     TIP3     OH2      OT      -0.834000       15.9994           0   0.00000       0.00000    
     46509 TIP3     7198     TIP3     H1       HT       0.417000       1.00800           0   0.00000       0.00000    
     46510 TIP3     7198     TIP3     H2       HT       0.417000       1.00800           0   0.00000     -0.301140E-02
     46511 TIP3     7199     TIP3     OH2      OT      -0.834000       15.9994           0   0.00000       0.00000    
     46512 TIP3     7199     TIP3     H1       HT       0.417000       1.00800           0   0.00000       0.00000    
     46513 TIP3     7199     TIP3     H2       HT       0.417000       1.00800           0   0.00000     -0.301140E-02
     46514 TIP3     7200     TIP3     OH2      OT      -0.834000       15.9994           0   0.00000       0.00000    
     46515 TIP3     7200     TIP3     H1       HT       0.417000       1.00800           0   0.00000       0.00000    
     46516 TIP3     7200     TIP3     H2       HT       0.417000       1.00800           0   0.00000     -0.301140E-02
     46517 TIP3     7201     TIP3     OH2      OT      -0.834000       15.9994           0   0.00000       0.00000    
     46518 TIP3     7201     TIP3     H1       HT       0.417000       1.00800           0   0.00000       0.00000    
     46519 TIP3     7201     TIP3     H2       HT       0.417000       1.00800           0   0.00000     -0.301140E-02
     46520 TIP3     7202     TIP3     OH2      OT      -0.834000       15.9994           0   0.00000       0.00000    
     46521 TIP3     7202     TIP3     H1       HT       0.417000       1.00800           0   0.00000       0.00000    
     46522 TIP3     7202     TIP3     H2       HT       0.417000       1.00800           0   0.00000     -0.301140E-02
     46523 TIP3     7203     TIP3     OH2      OT      -0.834000       15.9994           0   0.00000       0.00000    
     46524 TIP3     7203     TIP3     H1       HT       0.417000       1.00800           0   0.00000       0.00000    
     46525 TIP3     7203     TIP3     H2       HT       0.417000       1.00800           0   0.00000     -0.301140E-02
     46526 TIP3     7204     TIP3     OH2      OT      -0.834000       15.9994           0   0.00000       0.00000    
     46527 TIP3     7204     TIP3     H1       HT       0.417000       1.00800           0   0.00000       0.00000    
     46528 TIP3     7204     TIP3     H2       HT       0.417000       1.00800           0   0.00000     -0.301140E-02
     46529 TIP3     7205     TIP3     OH2      OT      -0.834000       15.9994           0   0.00000       0.00000    
     46530 TIP3     7205     TIP3     H1       HT       0.417000       1.00800           0   0.00000       0.00000    
     46531 TIP3     7205     TIP3     H2       HT       0.417000       1.00800           0   0.00000     -0.301140E-02
     46532 TIP3     7206     TIP3     OH2      OT      -0.834000       15.9994           0   0.00000       0.00000    
     46533 TIP3     7206     TIP3     H1       HT       0.417000       1.00800           0   0.00000       0.00000    
     46534 TIP3     7206     TIP3     H2       HT       0.417000       1.00800           0   0.00000     -0.301140E-02
     46535 TIP3     7207     TIP3     OH2      OT      -0.834000       15.9994           0   0.00000       0.00000    
     46536 TIP3     7207     TIP3     H1       HT       0.417000       1.00800           0   0.00000       0.00000    
     46537 TIP3     7207     TIP3     H2       HT       0.417000       1.00800           0   0.00000     -0.301140E-02
     46538 TIP3     7208     TIP3     OH2      OT      -0.834000       15.9994           0   0.00000       0.00000    
     46539 TIP3     7208     TIP3     H1       HT       0.417000       1.00800           0   0.00000       0.00000    
     46540 TIP3     7208     TIP3     H2       HT       0.417000       1.00800           0   0.00000     -0.301140E-02
     46541 TIP3     7209     TIP3     OH2      OT      -0.834000       15.9994           0   0.00000       0.00000    
     46542 TIP3     7209     TIP3     H1       HT       0.417000       1.00800           0   0.00000       0.00000    
     46543 TIP3     7209     TIP3     H2       HT       0.417000       1.00800           0   0.00000     -0.301140E-02
     46544 TIP3     7210     TIP3     OH2      OT      -0.834000       15.9994           0   0.00000       0.00000    
     46545 TIP3     7210     TIP3     H1       HT       0.417000       1.00800           0   0.00000       0.00000    
     46546 TIP3     7210     TIP3     H2       HT       0.417000       1.00800           0   0.00000     -0.301140E-02
     46547 TIP3     7211     TIP3     OH2      OT      -0.834000       15.9994           0   0.00000       0.00000    
     46548 TIP3     7211     TIP3     H1       HT       0.417000       1.00800           0   0.00000       0.00000    
     46549 TIP3     7211     TIP3     H2       HT       0.417000       1.00800           0   0.00000     -0.301140E-02
     46550 TIP3     7212     TIP3     OH2      OT      -0.834000       15.9994           0   0.00000       0.00000    
     46551 TIP3     7212     TIP3     H1       HT       0.417000       1.00800           0   0.00000       0.00000    
     46552 TIP3     7212     TIP3     H2       HT       0.417000       1.00800           0   0.00000     -0.301140E-02
     46553 TIP3     7213     TIP3     OH2      OT      -0.834000       15.9994           0   0.00000       0.00000    
     46554 TIP3     7213     TIP3     H1       HT       0.417000       1.00800           0   0.00000       0.00000    
     46555 TIP3     7213     TIP3     H2       HT       0.417000       1.00800           0   0.00000     -0.301140E-02
     46556 TIP3     7214     TIP3     OH2      OT      -0.834000       15.9994           0   0.00000       0.00000    
     46557 TIP3     7214     TIP3     H1       HT       0.417000       1.00800           0   0.00000       0.00000    
     46558 TIP3     7214     TIP3     H2       HT       0.417000       1.00800           0   0.00000     -0.301140E-02
     46559 TIP3     7215     TIP3     OH2      OT      -0.834000       15.9994           0   0.00000       0.00000    
     46560 TIP3     7215     TIP3     H1       HT       0.417000       1.00800           0   0.00000       0.00000    
     46561 TIP3     7215     TIP3     H2       HT       0.417000       1.00800           0   0.00000     -0.301140E-02
     46562 TIP3     7216     TIP3     OH2      OT      -0.834000       15.9994           0   0.00000       0.00000    
     46563 TIP3     7216     TIP3     H1       HT       0.417000       1.00800           0   0.00000       0.00000    
     46564 TIP3     7216     TIP3     H2       HT       0.417000       1.00800           0   0.00000     -0.301140E-02
     46565 TIP3     7217     TIP3     OH2      OT      -0.834000       15.9994           0   0.00000       0.00000    
     46566 TIP3     7217     TIP3     H1       HT       0.417000       1.00800           0   0.00000       0.00000    
     46567 TIP3     7217     TIP3     H2       HT       0.417000       1.00800           0   0.00000     -0.301140E-02
     46568 TIP3     7218     TIP3     OH2      OT      -0.834000       15.9994           0   0.00000       0.00000    
     46569 TIP3     7218     TIP3     H1       HT       0.417000       1.00800           0   0.00000       0.00000    
     46570 TIP3     7218     TIP3     H2       HT       0.417000       1.00800           0   0.00000     -0.301140E-02
     46571 TIP3     7219     TIP3     OH2      OT      -0.834000       15.9994           0   0.00000       0.00000    
     46572 TIP3     7219     TIP3     H1       HT       0.417000       1.00800           0   0.00000       0.00000    
     46573 TIP3     7219     TIP3     H2       HT       0.417000       1.00800           0   0.00000     -0.301140E-02
     46574 TIP3     7220     TIP3     OH2      OT      -0.834000       15.9994           0   0.00000       0.00000    
     46575 TIP3     7220     TIP3     H1       HT       0.417000       1.00800           0   0.00000       0.00000    
     46576 TIP3     7220     TIP3     H2       HT       0.417000       1.00800           0   0.00000     -0.301140E-02
     46577 TIP3     7221     TIP3     OH2      OT      -0.834000       15.9994           0   0.00000       0.00000    
     46578 TIP3     7221     TIP3     H1       HT       0.417000       1.00800           0   0.00000       0.00000    
     46579 TIP3     7221     TIP3     H2       HT       0.417000       1.00800           0   0.00000     -0.301140E-02
     46580 TIP3     7222     TIP3     OH2      OT      -0.834000       15.9994           0   0.00000       0.00000    
     46581 TIP3     7222     TIP3     H1       HT       0.417000       1.00800           0   0.00000       0.00000    
     46582 TIP3     7222     TIP3     H2       HT       0.417000       1.00800           0   0.00000     -0.301140E-02
     46583 TIP3     7223     TIP3     OH2      OT      -0.834000       15.9994           0   0.00000       0.00000    
     46584 TIP3     7223     TIP3     H1       HT       0.417000       1.00800           0   0.00000       0.00000    
     46585 TIP3     7223     TIP3     H2       HT       0.417000       1.00800           0   0.00000     -0.301140E-02
     46586 TIP3     7224     TIP3     OH2      OT      -0.834000       15.9994           0   0.00000       0.00000    
     46587 TIP3     7224     TIP3     H1       HT       0.417000       1.00800           0   0.00000       0.00000    
     46588 TIP3     7224     TIP3     H2       HT       0.417000       1.00800           0   0.00000     -0.301140E-02
     46589 TIP3     7225     TIP3     OH2      OT      -0.834000       15.9994           0   0.00000       0.00000    
     46590 TIP3     7225     TIP3     H1       HT       0.417000       1.00800           0   0.00000       0.00000    
     46591 TIP3     7225     TIP3     H2       HT       0.417000       1.00800           0   0.00000     -0.301140E-02
     46592 TIP3     7226     TIP3     OH2      OT      -0.834000       15.9994           0   0.00000       0.00000    
     46593 TIP3     7226     TIP3     H1       HT       0.417000       1.00800           0   0.00000       0.00000    
     46594 TIP3     7226     TIP3     H2       HT       0.417000       1.00800           0   0.00000     -0.301140E-02
     46595 TIP3     7227     TIP3     OH2      OT      -0.834000       15.9994           0   0.00000       0.00000    
     46596 TIP3     7227     TIP3     H1       HT       0.417000       1.00800           0   0.00000       0.00000    
     46597 TIP3     7227     TIP3     H2       HT       0.417000       1.00800           0   0.00000     -0.301140E-02
     46598 TIP3     7228     TIP3     OH2      OT      -0.834000       15.9994           0   0.00000       0.00000    
     46599 TIP3     7228     TIP3     H1       HT       0.417000       1.00800           0   0.00000       0.00000    
     46600 TIP3     7228     TIP3     H2       HT       0.417000       1.00800           0   0.00000     -0.301140E-02
     46601 TIP3     7229     TIP3     OH2      OT      -0.834000       15.9994           0   0.00000       0.00000    
     46602 TIP3     7229     TIP3     H1       HT       0.417000       1.00800           0   0.00000       0.00000    
     46603 TIP3     7229     TIP3     H2       HT       0.417000       1.00800           0   0.00000     -0.301140E-02
     46604 TIP3     7230     TIP3     OH2      OT      -0.834000       15.9994           0   0.00000       0.00000    
     46605 TIP3     7230     TIP3     H1       HT       0.417000       1.00800           0   0.00000       0.00000    
     46606 TIP3     7230     TIP3     H2       HT       0.417000       1.00800           0   0.00000     -0.301140E-02
     46607 TIP3     7231     TIP3     OH2      OT      -0.834000       15.9994           0   0.00000       0.00000    
     46608 TIP3     7231     TIP3     H1       HT       0.417000       1.00800           0   0.00000       0.00000    
     46609 TIP3     7231     TIP3     H2       HT       0.417000       1.00800           0   0.00000     -0.301140E-02
     46610 TIP3     7232     TIP3     OH2      OT      -0.834000       15.9994           0   0.00000       0.00000    
     46611 TIP3     7232     TIP3     H1       HT       0.417000       1.00800           0   0.00000       0.00000    
     46612 TIP3     7232     TIP3     H2       HT       0.417000       1.00800           0   0.00000     -0.301140E-02
     46613 TIP3     7233     TIP3     OH2      OT      -0.834000       15.9994           0   0.00000       0.00000    
     46614 TIP3     7233     TIP3     H1       HT       0.417000       1.00800           0   0.00000       0.00000    
     46615 TIP3     7233     TIP3     H2       HT       0.417000       1.00800           0   0.00000     -0.301140E-02
     46616 TIP3     7234     TIP3     OH2      OT      -0.834000       15.9994           0   0.00000       0.00000    
     46617 TIP3     7234     TIP3     H1       HT       0.417000       1.00800           0   0.00000       0.00000    
     46618 TIP3     7234     TIP3     H2       HT       0.417000       1.00800           0   0.00000     -0.301140E-02
     46619 TIP3     7235     TIP3     OH2      OT      -0.834000       15.9994           0   0.00000       0.00000    
     46620 TIP3     7235     TIP3     H1       HT       0.417000       1.00800           0   0.00000       0.00000    
     46621 TIP3     7235     TIP3     H2       HT       0.417000       1.00800           0   0.00000     -0.301140E-02
     46622 TIP3     7236     TIP3     OH2      OT      -0.834000       15.9994           0   0.00000       0.00000    
     46623 TIP3     7236     TIP3     H1       HT       0.417000       1.00800           0   0.00000       0.00000    
     46624 TIP3     7236     TIP3     H2       HT       0.417000       1.00800           0   0.00000     -0.301140E-02
     46625 TIP3     7237     TIP3     OH2      OT      -0.834000       15.9994           0   0.00000       0.00000    
     46626 TIP3     7237     TIP3     H1       HT       0.417000       1.00800           0   0.00000       0.00000    
     46627 TIP3     7237     TIP3     H2       HT       0.417000       1.00800           0   0.00000     -0.301140E-02
     46628 TIP3     7238     TIP3     OH2      OT      -0.834000       15.9994           0   0.00000       0.00000    
     46629 TIP3     7238     TIP3     H1       HT       0.417000       1.00800           0   0.00000       0.00000    
     46630 TIP3     7238     TIP3     H2       HT       0.417000       1.00800           0   0.00000     -0.301140E-02
     46631 TIP3     7239     TIP3     OH2      OT      -0.834000       15.9994           0   0.00000       0.00000    
     46632 TIP3     7239     TIP3     H1       HT       0.417000       1.00800           0   0.00000       0.00000    
     46633 TIP3     7239     TIP3     H2       HT       0.417000       1.00800           0   0.00000     -0.301140E-02
     46634 TIP3     7240     TIP3     OH2      OT      -0.834000       15.9994           0   0.00000       0.00000    
     46635 TIP3     7240     TIP3     H1       HT       0.417000       1.00800           0   0.00000       0.00000    
     46636 TIP3     7240     TIP3     H2       HT       0.417000       1.00800           0   0.00000     -0.301140E-02
     46637 TIP3     7241     TIP3     OH2      OT      -0.834000       15.9994           0   0.00000       0.00000    
     46638 TIP3     7241     TIP3     H1       HT       0.417000       1.00800           0   0.00000       0.00000    
     46639 TIP3     7241     TIP3     H2       HT       0.417000       1.00800           0   0.00000     -0.301140E-02
     46640 TIP3     7242     TIP3     OH2      OT      -0.834000       15.9994           0   0.00000       0.00000    
     46641 TIP3     7242     TIP3     H1       HT       0.417000       1.00800           0   0.00000       0.00000    
     46642 TIP3     7242     TIP3     H2       HT       0.417000       1.00800           0   0.00000     -0.301140E-02
     46643 TIP3     7243     TIP3     OH2      OT      -0.834000       15.9994           0   0.00000       0.00000    
     46644 TIP3     7243     TIP3     H1       HT       0.417000       1.00800           0   0.00000       0.00000    
     46645 TIP3     7243     TIP3     H2       HT       0.417000       1.00800           0   0.00000     -0.301140E-02
     46646 TIP3     7244     TIP3     OH2      OT      -0.834000       15.9994           0   0.00000       0.00000    
     46647 TIP3     7244     TIP3     H1       HT       0.417000       1.00800           0   0.00000       0.00000    
     46648 TIP3     7244     TIP3     H2       HT       0.417000       1.00800           0   0.00000     -0.301140E-02
     46649 TIP3     7245     TIP3     OH2      OT      -0.834000       15.9994           0   0.00000       0.00000    
     46650 TIP3     7245     TIP3     H1       HT       0.417000       1.00800           0   0.00000       0.00000    
     46651 TIP3     7245     TIP3     H2       HT       0.417000       1.00800           0   0.00000     -0.301140E-02
     46652 TIP3     7246     TIP3     OH2      OT      -0.834000       15.9994           0   0.00000       0.00000    
     46653 TIP3     7246     TIP3     H1       HT       0.417000       1.00800           0   0.00000       0.00000    
     46654 TIP3     7246     TIP3     H2       HT       0.417000       1.00800           0   0.00000     -0.301140E-02
     46655 TIP3     7247     TIP3     OH2      OT      -0.834000       15.9994           0   0.00000       0.00000    
     46656 TIP3     7247     TIP3     H1       HT       0.417000       1.00800           0   0.00000       0.00000    
     46657 TIP3     7247     TIP3     H2       HT       0.417000       1.00800           0   0.00000     -0.301140E-02
     46658 TIP3     7248     TIP3     OH2      OT      -0.834000       15.9994           0   0.00000       0.00000    
     46659 TIP3     7248     TIP3     H1       HT       0.417000       1.00800           0   0.00000       0.00000    
     46660 TIP3     7248     TIP3     H2       HT       0.417000       1.00800           0   0.00000     -0.301140E-02
     46661 TIP3     7249     TIP3     OH2      OT      -0.834000       15.9994           0   0.00000       0.00000    
     46662 TIP3     7249     TIP3     H1       HT       0.417000       1.00800           0   0.00000       0.00000    
     46663 TIP3     7249     TIP3     H2       HT       0.417000       1.00800           0   0.00000     -0.301140E-02
     46664 TIP3     7250     TIP3     OH2      OT      -0.834000       15.9994           0   0.00000       0.00000    
     46665 TIP3     7250     TIP3     H1       HT       0.417000       1.00800           0   0.00000       0.00000    
     46666 TIP3     7250     TIP3     H2       HT       0.417000       1.00800           0   0.00000     -0.301140E-02
     46667 TIP3     7251     TIP3     OH2      OT      -0.834000       15.9994           0   0.00000       0.00000    
     46668 TIP3     7251     TIP3     H1       HT       0.417000       1.00800           0   0.00000       0.00000    
     46669 TIP3     7251     TIP3     H2       HT       0.417000       1.00800           0   0.00000     -0.301140E-02
     46670 TIP3     7252     TIP3     OH2      OT      -0.834000       15.9994           0   0.00000       0.00000    
     46671 TIP3     7252     TIP3     H1       HT       0.417000       1.00800           0   0.00000       0.00000    
     46672 TIP3     7252     TIP3     H2       HT       0.417000       1.00800           0   0.00000     -0.301140E-02
     46673 TIP3     7253     TIP3     OH2      OT      -0.834000       15.9994           0   0.00000       0.00000    
     46674 TIP3     7253     TIP3     H1       HT       0.417000       1.00800           0   0.00000       0.00000    
     46675 TIP3     7253     TIP3     H2       HT       0.417000       1.00800           0   0.00000     -0.301140E-02
     46676 TIP3     7254     TIP3     OH2      OT      -0.834000       15.9994           0   0.00000       0.00000    
     46677 TIP3     7254     TIP3     H1       HT       0.417000       1.00800           0   0.00000       0.00000    
     46678 TIP3     7254     TIP3     H2       HT       0.417000       1.00800           0   0.00000     -0.301140E-02
     46679 TIP3     7255     TIP3     OH2      OT      -0.834000       15.9994           0   0.00000       0.00000    
     46680 TIP3     7255     TIP3     H1       HT       0.417000       1.00800           0   0.00000       0.00000    
     46681 TIP3     7255     TIP3     H2       HT       0.417000       1.00800           0   0.00000     -0.301140E-02
     46682 TIP3     7256     TIP3     OH2      OT      -0.834000       15.9994           0   0.00000       0.00000    
     46683 TIP3     7256     TIP3     H1       HT       0.417000       1.00800           0   0.00000       0.00000    
     46684 TIP3     7256     TIP3     H2       HT       0.417000       1.00800           0   0.00000     -0.301140E-02
     46685 TIP3     7257     TIP3     OH2      OT      -0.834000       15.9994           0   0.00000       0.00000    
     46686 TIP3     7257     TIP3     H1       HT       0.417000       1.00800           0   0.00000       0.00000    
     46687 TIP3     7257     TIP3     H2       HT       0.417000       1.00800           0   0.00000     -0.301140E-02
     46688 TIP3     7258     TIP3     OH2      OT      -0.834000       15.9994           0   0.00000       0.00000    
     46689 TIP3     7258     TIP3     H1       HT       0.417000       1.00800           0   0.00000       0.00000    
     46690 TIP3     7258     TIP3     H2       HT       0.417000       1.00800           0   0.00000     -0.301140E-02
     46691 TIP3     7259     TIP3     OH2      OT      -0.834000       15.9994           0   0.00000       0.00000    
     46692 TIP3     7259     TIP3     H1       HT       0.417000       1.00800           0   0.00000       0.00000    
     46693 TIP3     7259     TIP3     H2       HT       0.417000       1.00800           0   0.00000     -0.301140E-02
     46694 TIP3     7260     TIP3     OH2      OT      -0.834000       15.9994           0   0.00000       0.00000    
     46695 TIP3     7260     TIP3     H1       HT       0.417000       1.00800           0   0.00000       0.00000    
     46696 TIP3     7260     TIP3     H2       HT       0.417000       1.00800           0   0.00000     -0.301140E-02
     46697 TIP3     7261     TIP3     OH2      OT      -0.834000       15.9994           0   0.00000       0.00000    
     46698 TIP3     7261     TIP3     H1       HT       0.417000       1.00800           0   0.00000       0.00000    
     46699 TIP3     7261     TIP3     H2       HT       0.417000       1.00800           0   0.00000     -0.301140E-02
     46700 TIP3     7262     TIP3     OH2      OT      -0.834000       15.9994           0   0.00000       0.00000    
     46701 TIP3     7262     TIP3     H1       HT       0.417000       1.00800           0   0.00000       0.00000    
     46702 TIP3     7262     TIP3     H2       HT       0.417000       1.00800           0   0.00000     -0.301140E-02
     46703 TIP3     7263     TIP3     OH2      OT      -0.834000       15.9994           0   0.00000       0.00000    
     46704 TIP3     7263     TIP3     H1       HT       0.417000       1.00800           0   0.00000       0.00000    
     46705 TIP3     7263     TIP3     H2       HT       0.417000       1.00800           0   0.00000     -0.301140E-02
     46706 TIP3     7264     TIP3     OH2      OT      -0.834000       15.9994           0   0.00000       0.00000    
     46707 TIP3     7264     TIP3     H1       HT       0.417000       1.00800           0   0.00000       0.00000    
     46708 TIP3     7264     TIP3     H2       HT       0.417000       1.00800           0   0.00000     -0.301140E-02
     46709 TIP3     7265     TIP3     OH2      OT      -0.834000       15.9994           0   0.00000       0.00000    
     46710 TIP3     7265     TIP3     H1       HT       0.417000       1.00800           0   0.00000       0.00000    
     46711 TIP3     7265     TIP3     H2       HT       0.417000       1.00800           0   0.00000     -0.301140E-02
     46712 TIP3     7266     TIP3     OH2      OT      -0.834000       15.9994           0   0.00000       0.00000    
     46713 TIP3     7266     TIP3     H1       HT       0.417000       1.00800           0   0.00000       0.00000    
     46714 TIP3     7266     TIP3     H2       HT       0.417000       1.00800           0   0.00000     -0.301140E-02
     46715 TIP3     7267     TIP3     OH2      OT      -0.834000       15.9994           0   0.00000       0.00000    
     46716 TIP3     7267     TIP3     H1       HT       0.417000       1.00800           0   0.00000       0.00000    
     46717 TIP3     7267     TIP3     H2       HT       0.417000       1.00800           0   0.00000     -0.301140E-02
     46718 TIP3     7268     TIP3     OH2      OT      -0.834000       15.9994           0   0.00000       0.00000    
     46719 TIP3     7268     TIP3     H1       HT       0.417000       1.00800           0   0.00000       0.00000    
     46720 TIP3     7268     TIP3     H2       HT       0.417000       1.00800           0   0.00000     -0.301140E-02
     46721 TIP3     7269     TIP3     OH2      OT      -0.834000       15.9994           0   0.00000       0.00000    
     46722 TIP3     7269     TIP3     H1       HT       0.417000       1.00800           0   0.00000       0.00000    
     46723 TIP3     7269     TIP3     H2       HT       0.417000       1.00800           0   0.00000     -0.301140E-02
     46724 TIP3     7270     TIP3     OH2      OT      -0.834000       15.9994           0   0.00000       0.00000    
     46725 TIP3     7270     TIP3     H1       HT       0.417000       1.00800           0   0.00000       0.00000    
     46726 TIP3     7270     TIP3     H2       HT       0.417000       1.00800           0   0.00000     -0.301140E-02
     46727 TIP3     7271     TIP3     OH2      OT      -0.834000       15.9994           0   0.00000       0.00000    
     46728 TIP3     7271     TIP3     H1       HT       0.417000       1.00800           0   0.00000       0.00000    
     46729 TIP3     7271     TIP3     H2       HT       0.417000       1.00800           0   0.00000     -0.301140E-02
     46730 TIP3     7272     TIP3     OH2      OT      -0.834000       15.9994           0   0.00000       0.00000    
     46731 TIP3     7272     TIP3     H1       HT       0.417000       1.00800           0   0.00000       0.00000    
     46732 TIP3     7272     TIP3     H2       HT       0.417000       1.00800           0   0.00000     -0.301140E-02
     46733 TIP3     7273     TIP3     OH2      OT      -0.834000       15.9994           0   0.00000       0.00000    
     46734 TIP3     7273     TIP3     H1       HT       0.417000       1.00800           0   0.00000       0.00000    
     46735 TIP3     7273     TIP3     H2       HT       0.417000       1.00800           0   0.00000     -0.301140E-02
     46736 TIP3     7274     TIP3     OH2      OT      -0.834000       15.9994           0   0.00000       0.00000    
     46737 TIP3     7274     TIP3     H1       HT       0.417000       1.00800           0   0.00000       0.00000    
     46738 TIP3     7274     TIP3     H2       HT       0.417000       1.00800           0   0.00000     -0.301140E-02
     46739 TIP3     7275     TIP3     OH2      OT      -0.834000       15.9994           0   0.00000       0.00000    
     46740 TIP3     7275     TIP3     H1       HT       0.417000       1.00800           0   0.00000       0.00000    
     46741 TIP3     7275     TIP3     H2       HT       0.417000       1.00800           0   0.00000     -0.301140E-02
     46742 TIP3     7276     TIP3     OH2      OT      -0.834000       15.9994           0   0.00000       0.00000    
     46743 TIP3     7276     TIP3     H1       HT       0.417000       1.00800           0   0.00000       0.00000    
     46744 TIP3     7276     TIP3     H2       HT       0.417000       1.00800           0   0.00000     -0.301140E-02
     46745 TIP3     7277     TIP3     OH2      OT      -0.834000       15.9994           0   0.00000       0.00000    
     46746 TIP3     7277     TIP3     H1       HT       0.417000       1.00800           0   0.00000       0.00000    
     46747 TIP3     7277     TIP3     H2       HT       0.417000       1.00800           0   0.00000     -0.301140E-02
     46748 TIP3     7278     TIP3     OH2      OT      -0.834000       15.9994           0   0.00000       0.00000    
     46749 TIP3     7278     TIP3     H1       HT       0.417000       1.00800           0   0.00000       0.00000    
     46750 TIP3     7278     TIP3     H2       HT       0.417000       1.00800           0   0.00000     -0.301140E-02
     46751 TIP3     7279     TIP3     OH2      OT      -0.834000       15.9994           0   0.00000       0.00000    
     46752 TIP3     7279     TIP3     H1       HT       0.417000       1.00800           0   0.00000       0.00000    
     46753 TIP3     7279     TIP3     H2       HT       0.417000       1.00800           0   0.00000     -0.301140E-02
     46754 TIP3     7280     TIP3     OH2      OT      -0.834000       15.9994           0   0.00000       0.00000    
     46755 TIP3     7280     TIP3     H1       HT       0.417000       1.00800           0   0.00000       0.00000    
     46756 TIP3     7280     TIP3     H2       HT       0.417000       1.00800           0   0.00000     -0.301140E-02
     46757 TIP3     7281     TIP3     OH2      OT      -0.834000       15.9994           0   0.00000       0.00000    
     46758 TIP3     7281     TIP3     H1       HT       0.417000       1.00800           0   0.00000       0.00000    
     46759 TIP3     7281     TIP3     H2       HT       0.417000       1.00800           0   0.00000     -0.301140E-02
     46760 TIP3     7282     TIP3     OH2      OT      -0.834000       15.9994           0   0.00000       0.00000    
     46761 TIP3     7282     TIP3     H1       HT       0.417000       1.00800           0   0.00000       0.00000    
     46762 TIP3     7282     TIP3     H2       HT       0.417000       1.00800           0   0.00000     -0.301140E-02
     46763 TIP3     7283     TIP3     OH2      OT      -0.834000       15.9994           0   0.00000       0.00000    
     46764 TIP3     7283     TIP3     H1       HT       0.417000       1.00800           0   0.00000       0.00000    
     46765 TIP3     7283     TIP3     H2       HT       0.417000       1.00800           0   0.00000     -0.301140E-02
     46766 TIP3     7284     TIP3     OH2      OT      -0.834000       15.9994           0   0.00000       0.00000    
     46767 TIP3     7284     TIP3     H1       HT       0.417000       1.00800           0   0.00000       0.00000    
     46768 TIP3     7284     TIP3     H2       HT       0.417000       1.00800           0   0.00000     -0.301140E-02
     46769 TIP3     7285     TIP3     OH2      OT      -0.834000       15.9994           0   0.00000       0.00000    
     46770 TIP3     7285     TIP3     H1       HT       0.417000       1.00800           0   0.00000       0.00000    
     46771 TIP3     7285     TIP3     H2       HT       0.417000       1.00800           0   0.00000     -0.301140E-02
     46772 TIP3     7286     TIP3     OH2      OT      -0.834000       15.9994           0   0.00000       0.00000    
     46773 TIP3     7286     TIP3     H1       HT       0.417000       1.00800           0   0.00000       0.00000    
     46774 TIP3     7286     TIP3     H2       HT       0.417000       1.00800           0   0.00000     -0.301140E-02
     46775 TIP3     7287     TIP3     OH2      OT      -0.834000       15.9994           0   0.00000       0.00000    
     46776 TIP3     7287     TIP3     H1       HT       0.417000       1.00800           0   0.00000       0.00000    
     46777 TIP3     7287     TIP3     H2       HT       0.417000       1.00800           0   0.00000     -0.301140E-02
     46778 TIP3     7288     TIP3     OH2      OT      -0.834000       15.9994           0   0.00000       0.00000    
     46779 TIP3     7288     TIP3     H1       HT       0.417000       1.00800           0   0.00000       0.00000    
     46780 TIP3     7288     TIP3     H2       HT       0.417000       1.00800           0   0.00000     -0.301140E-02
     46781 TIP3     7289     TIP3     OH2      OT      -0.834000       15.9994           0   0.00000       0.00000    
     46782 TIP3     7289     TIP3     H1       HT       0.417000       1.00800           0   0.00000       0.00000    
     46783 TIP3     7289     TIP3     H2       HT       0.417000       1.00800           0   0.00000     -0.301140E-02
     46784 TIP3     7290     TIP3     OH2      OT      -0.834000       15.9994           0   0.00000       0.00000    
     46785 TIP3     7290     TIP3     H1       HT       0.417000       1.00800           0   0.00000       0.00000    
     46786 TIP3     7290     TIP3     H2       HT       0.417000       1.00800           0   0.00000     -0.301140E-02
     46787 TIP3     7291     TIP3     OH2      OT      -0.834000       15.9994           0   0.00000       0.00000    
     46788 TIP3     7291     TIP3     H1       HT       0.417000       1.00800           0   0.00000       0.00000    
     46789 TIP3     7291     TIP3     H2       HT       0.417000       1.00800           0   0.00000     -0.301140E-02
     46790 TIP3     7292     TIP3     OH2      OT      -0.834000       15.9994           0   0.00000       0.00000    
     46791 TIP3     7292     TIP3     H1       HT       0.417000       1.00800           0   0.00000       0.00000    
     46792 TIP3     7292     TIP3     H2       HT       0.417000       1.00800           0   0.00000     -0.301140E-02
     46793 TIP3     7293     TIP3     OH2      OT      -0.834000       15.9994           0   0.00000       0.00000    
     46794 TIP3     7293     TIP3     H1       HT       0.417000       1.00800           0   0.00000       0.00000    
     46795 TIP3     7293     TIP3     H2       HT       0.417000       1.00800           0   0.00000     -0.301140E-02
     46796 TIP3     7294     TIP3     OH2      OT      -0.834000       15.9994           0   0.00000       0.00000    
     46797 TIP3     7294     TIP3     H1       HT       0.417000       1.00800           0   0.00000       0.00000    
     46798 TIP3     7294     TIP3     H2       HT       0.417000       1.00800           0   0.00000     -0.301140E-02
     46799 TIP3     7295     TIP3     OH2      OT      -0.834000       15.9994           0   0.00000       0.00000    
     46800 TIP3     7295     TIP3     H1       HT       0.417000       1.00800           0   0.00000       0.00000    
     46801 TIP3     7295     TIP3     H2       HT       0.417000       1.00800           0   0.00000     -0.301140E-02
     46802 TIP3     7296     TIP3     OH2      OT      -0.834000       15.9994           0   0.00000       0.00000    
     46803 TIP3     7296     TIP3     H1       HT       0.417000       1.00800           0   0.00000       0.00000    
     46804 TIP3     7296     TIP3     H2       HT       0.417000       1.00800           0   0.00000     -0.301140E-02
     46805 TIP3     7297     TIP3     OH2      OT      -0.834000       15.9994           0   0.00000       0.00000    
     46806 TIP3     7297     TIP3     H1       HT       0.417000       1.00800           0   0.00000       0.00000    
     46807 TIP3     7297     TIP3     H2       HT       0.417000       1.00800           0   0.00000     -0.301140E-02
     46808 TIP3     7298     TIP3     OH2      OT      -0.834000       15.9994           0   0.00000       0.00000    
     46809 TIP3     7298     TIP3     H1       HT       0.417000       1.00800           0   0.00000       0.00000    
     46810 TIP3     7298     TIP3     H2       HT       0.417000       1.00800           0   0.00000     -0.301140E-02
     46811 TIP3     7299     TIP3     OH2      OT      -0.834000       15.9994           0   0.00000       0.00000    
     46812 TIP3     7299     TIP3     H1       HT       0.417000       1.00800           0   0.00000       0.00000    
     46813 TIP3     7299     TIP3     H2       HT       0.417000       1.00800           0   0.00000     -0.301140E-02
     46814 TIP3     7300     TIP3     OH2      OT      -0.834000       15.9994           0   0.00000       0.00000    
     46815 TIP3     7300     TIP3     H1       HT       0.417000       1.00800           0   0.00000       0.00000    
     46816 TIP3     7300     TIP3     H2       HT       0.417000       1.00800           0   0.00000     -0.301140E-02
     46817 TIP3     7301     TIP3     OH2      OT      -0.834000       15.9994           0   0.00000       0.00000    
     46818 TIP3     7301     TIP3     H1       HT       0.417000       1.00800           0   0.00000       0.00000    
     46819 TIP3     7301     TIP3     H2       HT       0.417000       1.00800           0   0.00000     -0.301140E-02
     46820 TIP3     7302     TIP3     OH2      OT      -0.834000       15.9994           0   0.00000       0.00000    
     46821 TIP3     7302     TIP3     H1       HT       0.417000       1.00800           0   0.00000       0.00000    
     46822 TIP3     7302     TIP3     H2       HT       0.417000       1.00800           0   0.00000     -0.301140E-02
     46823 TIP3     7303     TIP3     OH2      OT      -0.834000       15.9994           0   0.00000       0.00000    
     46824 TIP3     7303     TIP3     H1       HT       0.417000       1.00800           0   0.00000       0.00000    
     46825 TIP3     7303     TIP3     H2       HT       0.417000       1.00800           0   0.00000     -0.301140E-02
     46826 TIP3     7304     TIP3     OH2      OT      -0.834000       15.9994           0   0.00000       0.00000    
     46827 TIP3     7304     TIP3     H1       HT       0.417000       1.00800           0   0.00000       0.00000    
     46828 TIP3     7304     TIP3     H2       HT       0.417000       1.00800           0   0.00000     -0.301140E-02
     46829 TIP3     7305     TIP3     OH2      OT      -0.834000       15.9994           0   0.00000       0.00000    
     46830 TIP3     7305     TIP3     H1       HT       0.417000       1.00800           0   0.00000       0.00000    
     46831 TIP3     7305     TIP3     H2       HT       0.417000       1.00800           0   0.00000     -0.301140E-02
     46832 TIP3     7306     TIP3     OH2      OT      -0.834000       15.9994           0   0.00000       0.00000    
     46833 TIP3     7306     TIP3     H1       HT       0.417000       1.00800           0   0.00000       0.00000    
     46834 TIP3     7306     TIP3     H2       HT       0.417000       1.00800           0   0.00000     -0.301140E-02
     46835 TIP3     7307     TIP3     OH2      OT      -0.834000       15.9994           0   0.00000       0.00000    
     46836 TIP3     7307     TIP3     H1       HT       0.417000       1.00800           0   0.00000       0.00000    
     46837 TIP3     7307     TIP3     H2       HT       0.417000       1.00800           0   0.00000     -0.301140E-02
     46838 TIP3     7308     TIP3     OH2      OT      -0.834000       15.9994           0   0.00000       0.00000    
     46839 TIP3     7308     TIP3     H1       HT       0.417000       1.00800           0   0.00000       0.00000    
     46840 TIP3     7308     TIP3     H2       HT       0.417000       1.00800           0   0.00000     -0.301140E-02
     46841 TIP3     7309     TIP3     OH2      OT      -0.834000       15.9994           0   0.00000       0.00000    
     46842 TIP3     7309     TIP3     H1       HT       0.417000       1.00800           0   0.00000       0.00000    
     46843 TIP3     7309     TIP3     H2       HT       0.417000       1.00800           0   0.00000     -0.301140E-02
     46844 TIP3     7310     TIP3     OH2      OT      -0.834000       15.9994           0   0.00000       0.00000    
     46845 TIP3     7310     TIP3     H1       HT       0.417000       1.00800           0   0.00000       0.00000    
     46846 TIP3     7310     TIP3     H2       HT       0.417000       1.00800           0   0.00000     -0.301140E-02
     46847 TIP3     7311     TIP3     OH2      OT      -0.834000       15.9994           0   0.00000       0.00000    
     46848 TIP3     7311     TIP3     H1       HT       0.417000       1.00800           0   0.00000       0.00000    
     46849 TIP3     7311     TIP3     H2       HT       0.417000       1.00800           0   0.00000     -0.301140E-02
     46850 TIP3     7312     TIP3     OH2      OT      -0.834000       15.9994           0   0.00000       0.00000    
     46851 TIP3     7312     TIP3     H1       HT       0.417000       1.00800           0   0.00000       0.00000    
     46852 TIP3     7312     TIP3     H2       HT       0.417000       1.00800           0   0.00000     -0.301140E-02
     46853 TIP3     7313     TIP3     OH2      OT      -0.834000       15.9994           0   0.00000       0.00000    
     46854 TIP3     7313     TIP3     H1       HT       0.417000       1.00800           0   0.00000       0.00000    
     46855 TIP3     7313     TIP3     H2       HT       0.417000       1.00800           0   0.00000     -0.301140E-02
     46856 TIP3     7314     TIP3     OH2      OT      -0.834000       15.9994           0   0.00000       0.00000    
     46857 TIP3     7314     TIP3     H1       HT       0.417000       1.00800           0   0.00000       0.00000    
     46858 TIP3     7314     TIP3     H2       HT       0.417000       1.00800           0   0.00000     -0.301140E-02
     46859 TIP3     7315     TIP3     OH2      OT      -0.834000       15.9994           0   0.00000       0.00000    
     46860 TIP3     7315     TIP3     H1       HT       0.417000       1.00800           0   0.00000       0.00000    
     46861 TIP3     7315     TIP3     H2       HT       0.417000       1.00800           0   0.00000     -0.301140E-02
     46862 TIP3     7316     TIP3     OH2      OT      -0.834000       15.9994           0   0.00000       0.00000    
     46863 TIP3     7316     TIP3     H1       HT       0.417000       1.00800           0   0.00000       0.00000    
     46864 TIP3     7316     TIP3     H2       HT       0.417000       1.00800           0   0.00000     -0.301140E-02
     46865 TIP3     7317     TIP3     OH2      OT      -0.834000       15.9994           0   0.00000       0.00000    
     46866 TIP3     7317     TIP3     H1       HT       0.417000       1.00800           0   0.00000       0.00000    
     46867 TIP3     7317     TIP3     H2       HT       0.417000       1.00800           0   0.00000     -0.301140E-02
     46868 TIP3     7318     TIP3     OH2      OT      -0.834000       15.9994           0   0.00000       0.00000    
     46869 TIP3     7318     TIP3     H1       HT       0.417000       1.00800           0   0.00000       0.00000    
     46870 TIP3     7318     TIP3     H2       HT       0.417000       1.00800           0   0.00000     -0.301140E-02
     46871 TIP3     7319     TIP3     OH2      OT      -0.834000       15.9994           0   0.00000       0.00000    
     46872 TIP3     7319     TIP3     H1       HT       0.417000       1.00800           0   0.00000       0.00000    
     46873 TIP3     7319     TIP3     H2       HT       0.417000       1.00800           0   0.00000     -0.301140E-02
     46874 TIP3     7320     TIP3     OH2      OT      -0.834000       15.9994           0   0.00000       0.00000    
     46875 TIP3     7320     TIP3     H1       HT       0.417000       1.00800           0   0.00000       0.00000    
     46876 TIP3     7320     TIP3     H2       HT       0.417000       1.00800           0   0.00000     -0.301140E-02
     46877 TIP3     7321     TIP3     OH2      OT      -0.834000       15.9994           0   0.00000       0.00000    
     46878 TIP3     7321     TIP3     H1       HT       0.417000       1.00800           0   0.00000       0.00000    
     46879 TIP3     7321     TIP3     H2       HT       0.417000       1.00800           0   0.00000     -0.301140E-02
     46880 TIP3     7322     TIP3     OH2      OT      -0.834000       15.9994           0   0.00000       0.00000    
     46881 TIP3     7322     TIP3     H1       HT       0.417000       1.00800           0   0.00000       0.00000    
     46882 TIP3     7322     TIP3     H2       HT       0.417000       1.00800           0   0.00000     -0.301140E-02
     46883 TIP3     7323     TIP3     OH2      OT      -0.834000       15.9994           0   0.00000       0.00000    
     46884 TIP3     7323     TIP3     H1       HT       0.417000       1.00800           0   0.00000       0.00000    
     46885 TIP3     7323     TIP3     H2       HT       0.417000       1.00800           0   0.00000     -0.301140E-02
     46886 TIP3     7324     TIP3     OH2      OT      -0.834000       15.9994           0   0.00000       0.00000    
     46887 TIP3     7324     TIP3     H1       HT       0.417000       1.00800           0   0.00000       0.00000    
     46888 TIP3     7324     TIP3     H2       HT       0.417000       1.00800           0   0.00000     -0.301140E-02
     46889 TIP3     7325     TIP3     OH2      OT      -0.834000       15.9994           0   0.00000       0.00000    
     46890 TIP3     7325     TIP3     H1       HT       0.417000       1.00800           0   0.00000       0.00000    
     46891 TIP3     7325     TIP3     H2       HT       0.417000       1.00800           0   0.00000     -0.301140E-02
     46892 TIP3     7326     TIP3     OH2      OT      -0.834000       15.9994           0   0.00000       0.00000    
     46893 TIP3     7326     TIP3     H1       HT       0.417000       1.00800           0   0.00000       0.00000    
     46894 TIP3     7326     TIP3     H2       HT       0.417000       1.00800           0   0.00000     -0.301140E-02
     46895 TIP3     7327     TIP3     OH2      OT      -0.834000       15.9994           0   0.00000       0.00000    
     46896 TIP3     7327     TIP3     H1       HT       0.417000       1.00800           0   0.00000       0.00000    
     46897 TIP3     7327     TIP3     H2       HT       0.417000       1.00800           0   0.00000     -0.301140E-02
     46898 TIP3     7328     TIP3     OH2      OT      -0.834000       15.9994           0   0.00000       0.00000    
     46899 TIP3     7328     TIP3     H1       HT       0.417000       1.00800           0   0.00000       0.00000    
     46900 TIP3     7328     TIP3     H2       HT       0.417000       1.00800           0   0.00000     -0.301140E-02
     46901 TIP3     7329     TIP3     OH2      OT      -0.834000       15.9994           0   0.00000       0.00000    
     46902 TIP3     7329     TIP3     H1       HT       0.417000       1.00800           0   0.00000       0.00000    
     46903 TIP3     7329     TIP3     H2       HT       0.417000       1.00800           0   0.00000     -0.301140E-02
     46904 TIP3     7330     TIP3     OH2      OT      -0.834000       15.9994           0   0.00000       0.00000    
     46905 TIP3     7330     TIP3     H1       HT       0.417000       1.00800           0   0.00000       0.00000    
     46906 TIP3     7330     TIP3     H2       HT       0.417000       1.00800           0   0.00000     -0.301140E-02
     46907 TIP3     7331     TIP3     OH2      OT      -0.834000       15.9994           0   0.00000       0.00000    
     46908 TIP3     7331     TIP3     H1       HT       0.417000       1.00800           0   0.00000       0.00000    
     46909 TIP3     7331     TIP3     H2       HT       0.417000       1.00800           0   0.00000     -0.301140E-02
     46910 TIP3     7332     TIP3     OH2      OT      -0.834000       15.9994           0   0.00000       0.00000    
     46911 TIP3     7332     TIP3     H1       HT       0.417000       1.00800           0   0.00000       0.00000    
     46912 TIP3     7332     TIP3     H2       HT       0.417000       1.00800           0   0.00000     -0.301140E-02
     46913 TIP3     7333     TIP3     OH2      OT      -0.834000       15.9994           0   0.00000       0.00000    
     46914 TIP3     7333     TIP3     H1       HT       0.417000       1.00800           0   0.00000       0.00000    
     46915 TIP3     7333     TIP3     H2       HT       0.417000       1.00800           0   0.00000     -0.301140E-02
     46916 TIP3     7334     TIP3     OH2      OT      -0.834000       15.9994           0   0.00000       0.00000    
     46917 TIP3     7334     TIP3     H1       HT       0.417000       1.00800           0   0.00000       0.00000    
     46918 TIP3     7334     TIP3     H2       HT       0.417000       1.00800           0   0.00000     -0.301140E-02
     46919 TIP3     7335     TIP3     OH2      OT      -0.834000       15.9994           0   0.00000       0.00000    
     46920 TIP3     7335     TIP3     H1       HT       0.417000       1.00800           0   0.00000       0.00000    
     46921 TIP3     7335     TIP3     H2       HT       0.417000       1.00800           0   0.00000     -0.301140E-02
     46922 TIP3     7336     TIP3     OH2      OT      -0.834000       15.9994           0   0.00000       0.00000    
     46923 TIP3     7336     TIP3     H1       HT       0.417000       1.00800           0   0.00000       0.00000    
     46924 TIP3     7336     TIP3     H2       HT       0.417000       1.00800           0   0.00000     -0.301140E-02
     46925 TIP3     7337     TIP3     OH2      OT      -0.834000       15.9994           0   0.00000       0.00000    
     46926 TIP3     7337     TIP3     H1       HT       0.417000       1.00800           0   0.00000       0.00000    
     46927 TIP3     7337     TIP3     H2       HT       0.417000       1.00800           0   0.00000     -0.301140E-02
     46928 TIP3     7338     TIP3     OH2      OT      -0.834000       15.9994           0   0.00000       0.00000    
     46929 TIP3     7338     TIP3     H1       HT       0.417000       1.00800           0   0.00000       0.00000    
     46930 TIP3     7338     TIP3     H2       HT       0.417000       1.00800           0   0.00000     -0.301140E-02
     46931 TIP3     7339     TIP3     OH2      OT      -0.834000       15.9994           0   0.00000       0.00000    
     46932 TIP3     7339     TIP3     H1       HT       0.417000       1.00800           0   0.00000       0.00000    
     46933 TIP3     7339     TIP3     H2       HT       0.417000       1.00800           0   0.00000     -0.301140E-02
     46934 TIP3     7340     TIP3     OH2      OT      -0.834000       15.9994           0   0.00000       0.00000    
     46935 TIP3     7340     TIP3     H1       HT       0.417000       1.00800           0   0.00000       0.00000    
     46936 TIP3     7340     TIP3     H2       HT       0.417000       1.00800           0   0.00000     -0.301140E-02
     46937 TIP3     7341     TIP3     OH2      OT      -0.834000       15.9994           0   0.00000       0.00000    
     46938 TIP3     7341     TIP3     H1       HT       0.417000       1.00800           0   0.00000       0.00000    
     46939 TIP3     7341     TIP3     H2       HT       0.417000       1.00800           0   0.00000     -0.301140E-02
     46940 TIP3     7342     TIP3     OH2      OT      -0.834000       15.9994           0   0.00000       0.00000    
     46941 TIP3     7342     TIP3     H1       HT       0.417000       1.00800           0   0.00000       0.00000    
     46942 TIP3     7342     TIP3     H2       HT       0.417000       1.00800           0   0.00000     -0.301140E-02
     46943 TIP3     7343     TIP3     OH2      OT      -0.834000       15.9994           0   0.00000       0.00000    
     46944 TIP3     7343     TIP3     H1       HT       0.417000       1.00800           0   0.00000       0.00000    
     46945 TIP3     7343     TIP3     H2       HT       0.417000       1.00800           0   0.00000     -0.301140E-02
     46946 TIP3     7344     TIP3     OH2      OT      -0.834000       15.9994           0   0.00000       0.00000    
     46947 TIP3     7344     TIP3     H1       HT       0.417000       1.00800           0   0.00000       0.00000    
     46948 TIP3     7344     TIP3     H2       HT       0.417000       1.00800           0   0.00000     -0.301140E-02
     46949 TIP3     7345     TIP3     OH2      OT      -0.834000       15.9994           0   0.00000       0.00000    
     46950 TIP3     7345     TIP3     H1       HT       0.417000       1.00800           0   0.00000       0.00000    
     46951 TIP3     7345     TIP3     H2       HT       0.417000       1.00800           0   0.00000     -0.301140E-02
     46952 TIP3     7346     TIP3     OH2      OT      -0.834000       15.9994           0   0.00000       0.00000    
     46953 TIP3     7346     TIP3     H1       HT       0.417000       1.00800           0   0.00000       0.00000    
     46954 TIP3     7346     TIP3     H2       HT       0.417000       1.00800           0   0.00000     -0.301140E-02
     46955 TIP3     7347     TIP3     OH2      OT      -0.834000       15.9994           0   0.00000       0.00000    
     46956 TIP3     7347     TIP3     H1       HT       0.417000       1.00800           0   0.00000       0.00000    
     46957 TIP3     7347     TIP3     H2       HT       0.417000       1.00800           0   0.00000     -0.301140E-02
     46958 TIP3     7348     TIP3     OH2      OT      -0.834000       15.9994           0   0.00000       0.00000    
     46959 TIP3     7348     TIP3     H1       HT       0.417000       1.00800           0   0.00000       0.00000    
     46960 TIP3     7348     TIP3     H2       HT       0.417000       1.00800           0   0.00000     -0.301140E-02
     46961 TIP3     7349     TIP3     OH2      OT      -0.834000       15.9994           0   0.00000       0.00000    
     46962 TIP3     7349     TIP3     H1       HT       0.417000       1.00800           0   0.00000       0.00000    
     46963 TIP3     7349     TIP3     H2       HT       0.417000       1.00800           0   0.00000     -0.301140E-02
     46964 TIP3     7350     TIP3     OH2      OT      -0.834000       15.9994           0   0.00000       0.00000    
     46965 TIP3     7350     TIP3     H1       HT       0.417000       1.00800           0   0.00000       0.00000    
     46966 TIP3     7350     TIP3     H2       HT       0.417000       1.00800           0   0.00000     -0.301140E-02
     46967 TIP3     7351     TIP3     OH2      OT      -0.834000       15.9994           0   0.00000       0.00000    
     46968 TIP3     7351     TIP3     H1       HT       0.417000       1.00800           0   0.00000       0.00000    
     46969 TIP3     7351     TIP3     H2       HT       0.417000       1.00800           0   0.00000     -0.301140E-02
     46970 TIP3     7352     TIP3     OH2      OT      -0.834000       15.9994           0   0.00000       0.00000    
     46971 TIP3     7352     TIP3     H1       HT       0.417000       1.00800           0   0.00000       0.00000    
     46972 TIP3     7352     TIP3     H2       HT       0.417000       1.00800           0   0.00000     -0.301140E-02
     46973 TIP3     7353     TIP3     OH2      OT      -0.834000       15.9994           0   0.00000       0.00000    
     46974 TIP3     7353     TIP3     H1       HT       0.417000       1.00800           0   0.00000       0.00000    
     46975 TIP3     7353     TIP3     H2       HT       0.417000       1.00800           0   0.00000     -0.301140E-02
     46976 TIP3     7354     TIP3     OH2      OT      -0.834000       15.9994           0   0.00000       0.00000    
     46977 TIP3     7354     TIP3     H1       HT       0.417000       1.00800           0   0.00000       0.00000    
     46978 TIP3     7354     TIP3     H2       HT       0.417000       1.00800           0   0.00000     -0.301140E-02
     46979 TIP3     7355     TIP3     OH2      OT      -0.834000       15.9994           0   0.00000       0.00000    
     46980 TIP3     7355     TIP3     H1       HT       0.417000       1.00800           0   0.00000       0.00000    
     46981 TIP3     7355     TIP3     H2       HT       0.417000       1.00800           0   0.00000     -0.301140E-02
     46982 TIP3     7356     TIP3     OH2      OT      -0.834000       15.9994           0   0.00000       0.00000    
     46983 TIP3     7356     TIP3     H1       HT       0.417000       1.00800           0   0.00000       0.00000    
     46984 TIP3     7356     TIP3     H2       HT       0.417000       1.00800           0   0.00000     -0.301140E-02
     46985 TIP3     7357     TIP3     OH2      OT      -0.834000       15.9994           0   0.00000       0.00000    
     46986 TIP3     7357     TIP3     H1       HT       0.417000       1.00800           0   0.00000       0.00000    
     46987 TIP3     7357     TIP3     H2       HT       0.417000       1.00800           0   0.00000     -0.301140E-02
     46988 TIP3     7358     TIP3     OH2      OT      -0.834000       15.9994           0   0.00000       0.00000    
     46989 TIP3     7358     TIP3     H1       HT       0.417000       1.00800           0   0.00000       0.00000    
     46990 TIP3     7358     TIP3     H2       HT       0.417000       1.00800           0   0.00000     -0.301140E-02
     46991 TIP3     7359     TIP3     OH2      OT      -0.834000       15.9994           0   0.00000       0.00000    
     46992 TIP3     7359     TIP3     H1       HT       0.417000       1.00800           0   0.00000       0.00000    
     46993 TIP3     7359     TIP3     H2       HT       0.417000       1.00800           0   0.00000     -0.301140E-02
     46994 TIP3     7360     TIP3     OH2      OT      -0.834000       15.9994           0   0.00000       0.00000    
     46995 TIP3     7360     TIP3     H1       HT       0.417000       1.00800           0   0.00000       0.00000    
     46996 TIP3     7360     TIP3     H2       HT       0.417000       1.00800           0   0.00000     -0.301140E-02
     46997 TIP3     7361     TIP3     OH2      OT      -0.834000       15.9994           0   0.00000       0.00000    
     46998 TIP3     7361     TIP3     H1       HT       0.417000       1.00800           0   0.00000       0.00000    
     46999 TIP3     7361     TIP3     H2       HT       0.417000       1.00800           0   0.00000     -0.301140E-02
     47000 TIP3     7362     TIP3     OH2      OT      -0.834000       15.9994           0   0.00000       0.00000    
     47001 TIP3     7362     TIP3     H1       HT       0.417000       1.00800           0   0.00000       0.00000    
     47002 TIP3     7362     TIP3     H2       HT       0.417000       1.00800           0   0.00000     -0.301140E-02
     47003 TIP3     7363     TIP3     OH2      OT      -0.834000       15.9994           0   0.00000       0.00000    
     47004 TIP3     7363     TIP3     H1       HT       0.417000       1.00800           0   0.00000       0.00000    
     47005 TIP3     7363     TIP3     H2       HT       0.417000       1.00800           0   0.00000     -0.301140E-02
     47006 TIP3     7364     TIP3     OH2      OT      -0.834000       15.9994           0   0.00000       0.00000    
     47007 TIP3     7364     TIP3     H1       HT       0.417000       1.00800           0   0.00000       0.00000    
     47008 TIP3     7364     TIP3     H2       HT       0.417000       1.00800           0   0.00000     -0.301140E-02
     47009 TIP3     7365     TIP3     OH2      OT      -0.834000       15.9994           0   0.00000       0.00000    
     47010 TIP3     7365     TIP3     H1       HT       0.417000       1.00800           0   0.00000       0.00000    
     47011 TIP3     7365     TIP3     H2       HT       0.417000       1.00800           0   0.00000     -0.301140E-02
     47012 TIP3     7366     TIP3     OH2      OT      -0.834000       15.9994           0   0.00000       0.00000    
     47013 TIP3     7366     TIP3     H1       HT       0.417000       1.00800           0   0.00000       0.00000    
     47014 TIP3     7366     TIP3     H2       HT       0.417000       1.00800           0   0.00000     -0.301140E-02
     47015 TIP3     7367     TIP3     OH2      OT      -0.834000       15.9994           0   0.00000       0.00000    
     47016 TIP3     7367     TIP3     H1       HT       0.417000       1.00800           0   0.00000       0.00000    
     47017 TIP3     7367     TIP3     H2       HT       0.417000       1.00800           0   0.00000     -0.301140E-02
     47018 TIP3     7368     TIP3     OH2      OT      -0.834000       15.9994           0   0.00000       0.00000    
     47019 TIP3     7368     TIP3     H1       HT       0.417000       1.00800           0   0.00000       0.00000    
     47020 TIP3     7368     TIP3     H2       HT       0.417000       1.00800           0   0.00000     -0.301140E-02
     47021 TIP3     7369     TIP3     OH2      OT      -0.834000       15.9994           0   0.00000       0.00000    
     47022 TIP3     7369     TIP3     H1       HT       0.417000       1.00800           0   0.00000       0.00000    
     47023 TIP3     7369     TIP3     H2       HT       0.417000       1.00800           0   0.00000     -0.301140E-02
     47024 TIP3     7370     TIP3     OH2      OT      -0.834000       15.9994           0   0.00000       0.00000    
     47025 TIP3     7370     TIP3     H1       HT       0.417000       1.00800           0   0.00000       0.00000    
     47026 TIP3     7370     TIP3     H2       HT       0.417000       1.00800           0   0.00000     -0.301140E-02
     47027 TIP3     7371     TIP3     OH2      OT      -0.834000       15.9994           0   0.00000       0.00000    
     47028 TIP3     7371     TIP3     H1       HT       0.417000       1.00800           0   0.00000       0.00000    
     47029 TIP3     7371     TIP3     H2       HT       0.417000       1.00800           0   0.00000     -0.301140E-02
     47030 TIP3     7372     TIP3     OH2      OT      -0.834000       15.9994           0   0.00000       0.00000    
     47031 TIP3     7372     TIP3     H1       HT       0.417000       1.00800           0   0.00000       0.00000    
     47032 TIP3     7372     TIP3     H2       HT       0.417000       1.00800           0   0.00000     -0.301140E-02
     47033 TIP3     7373     TIP3     OH2      OT      -0.834000       15.9994           0   0.00000       0.00000    
     47034 TIP3     7373     TIP3     H1       HT       0.417000       1.00800           0   0.00000       0.00000    
     47035 TIP3     7373     TIP3     H2       HT       0.417000       1.00800           0   0.00000     -0.301140E-02
     47036 TIP3     7374     TIP3     OH2      OT      -0.834000       15.9994           0   0.00000       0.00000    
     47037 TIP3     7374     TIP3     H1       HT       0.417000       1.00800           0   0.00000       0.00000    
     47038 TIP3     7374     TIP3     H2       HT       0.417000       1.00800           0   0.00000     -0.301140E-02
     47039 TIP3     7375     TIP3     OH2      OT      -0.834000       15.9994           0   0.00000       0.00000    
     47040 TIP3     7375     TIP3     H1       HT       0.417000       1.00800           0   0.00000       0.00000    
     47041 TIP3     7375     TIP3     H2       HT       0.417000       1.00800           0   0.00000     -0.301140E-02
     47042 TIP3     7376     TIP3     OH2      OT      -0.834000       15.9994           0   0.00000       0.00000    
     47043 TIP3     7376     TIP3     H1       HT       0.417000       1.00800           0   0.00000       0.00000    
     47044 TIP3     7376     TIP3     H2       HT       0.417000       1.00800           0   0.00000     -0.301140E-02
     47045 TIP3     7377     TIP3     OH2      OT      -0.834000       15.9994           0   0.00000       0.00000    
     47046 TIP3     7377     TIP3     H1       HT       0.417000       1.00800           0   0.00000       0.00000    
     47047 TIP3     7377     TIP3     H2       HT       0.417000       1.00800           0   0.00000     -0.301140E-02
     47048 TIP3     7378     TIP3     OH2      OT      -0.834000       15.9994           0   0.00000       0.00000    
     47049 TIP3     7378     TIP3     H1       HT       0.417000       1.00800           0   0.00000       0.00000    
     47050 TIP3     7378     TIP3     H2       HT       0.417000       1.00800           0   0.00000     -0.301140E-02
     47051 TIP3     7379     TIP3     OH2      OT      -0.834000       15.9994           0   0.00000       0.00000    
     47052 TIP3     7379     TIP3     H1       HT       0.417000       1.00800           0   0.00000       0.00000    
     47053 TIP3     7379     TIP3     H2       HT       0.417000       1.00800           0   0.00000     -0.301140E-02
     47054 TIP3     7380     TIP3     OH2      OT      -0.834000       15.9994           0   0.00000       0.00000    
     47055 TIP3     7380     TIP3     H1       HT       0.417000       1.00800           0   0.00000       0.00000    
     47056 TIP3     7380     TIP3     H2       HT       0.417000       1.00800           0   0.00000     -0.301140E-02
     47057 TIP3     7381     TIP3     OH2      OT      -0.834000       15.9994           0   0.00000       0.00000    
     47058 TIP3     7381     TIP3     H1       HT       0.417000       1.00800           0   0.00000       0.00000    
     47059 TIP3     7381     TIP3     H2       HT       0.417000       1.00800           0   0.00000     -0.301140E-02
     47060 TIP3     7382     TIP3     OH2      OT      -0.834000       15.9994           0   0.00000       0.00000    
     47061 TIP3     7382     TIP3     H1       HT       0.417000       1.00800           0   0.00000       0.00000    
     47062 TIP3     7382     TIP3     H2       HT       0.417000       1.00800           0   0.00000     -0.301140E-02
     47063 TIP3     7383     TIP3     OH2      OT      -0.834000       15.9994           0   0.00000       0.00000    
     47064 TIP3     7383     TIP3     H1       HT       0.417000       1.00800           0   0.00000       0.00000    
     47065 TIP3     7383     TIP3     H2       HT       0.417000       1.00800           0   0.00000     -0.301140E-02
     47066 TIP3     7384     TIP3     OH2      OT      -0.834000       15.9994           0   0.00000       0.00000    
     47067 TIP3     7384     TIP3     H1       HT       0.417000       1.00800           0   0.00000       0.00000    
     47068 TIP3     7384     TIP3     H2       HT       0.417000       1.00800           0   0.00000     -0.301140E-02
     47069 TIP3     7385     TIP3     OH2      OT      -0.834000       15.9994           0   0.00000       0.00000    
     47070 TIP3     7385     TIP3     H1       HT       0.417000       1.00800           0   0.00000       0.00000    
     47071 TIP3     7385     TIP3     H2       HT       0.417000       1.00800           0   0.00000     -0.301140E-02
     47072 TIP3     7386     TIP3     OH2      OT      -0.834000       15.9994           0   0.00000       0.00000    
     47073 TIP3     7386     TIP3     H1       HT       0.417000       1.00800           0   0.00000       0.00000    
     47074 TIP3     7386     TIP3     H2       HT       0.417000       1.00800           0   0.00000     -0.301140E-02
     47075 TIP3     7387     TIP3     OH2      OT      -0.834000       15.9994           0   0.00000       0.00000    
     47076 TIP3     7387     TIP3     H1       HT       0.417000       1.00800           0   0.00000       0.00000    
     47077 TIP3     7387     TIP3     H2       HT       0.417000       1.00800           0   0.00000     -0.301140E-02
     47078 TIP3     7388     TIP3     OH2      OT      -0.834000       15.9994           0   0.00000       0.00000    
     47079 TIP3     7388     TIP3     H1       HT       0.417000       1.00800           0   0.00000       0.00000    
     47080 TIP3     7388     TIP3     H2       HT       0.417000       1.00800           0   0.00000     -0.301140E-02
     47081 TIP3     7389     TIP3     OH2      OT      -0.834000       15.9994           0   0.00000       0.00000    
     47082 TIP3     7389     TIP3     H1       HT       0.417000       1.00800           0   0.00000       0.00000    
     47083 TIP3     7389     TIP3     H2       HT       0.417000       1.00800           0   0.00000     -0.301140E-02
     47084 TIP3     7390     TIP3     OH2      OT      -0.834000       15.9994           0   0.00000       0.00000    
     47085 TIP3     7390     TIP3     H1       HT       0.417000       1.00800           0   0.00000       0.00000    
     47086 TIP3     7390     TIP3     H2       HT       0.417000       1.00800           0   0.00000     -0.301140E-02
     47087 TIP3     7391     TIP3     OH2      OT      -0.834000       15.9994           0   0.00000       0.00000    
     47088 TIP3     7391     TIP3     H1       HT       0.417000       1.00800           0   0.00000       0.00000    
     47089 TIP3     7391     TIP3     H2       HT       0.417000       1.00800           0   0.00000     -0.301140E-02
     47090 TIP3     7392     TIP3     OH2      OT      -0.834000       15.9994           0   0.00000       0.00000    
     47091 TIP3     7392     TIP3     H1       HT       0.417000       1.00800           0   0.00000       0.00000    
     47092 TIP3     7392     TIP3     H2       HT       0.417000       1.00800           0   0.00000     -0.301140E-02
     47093 TIP3     7393     TIP3     OH2      OT      -0.834000       15.9994           0   0.00000       0.00000    
     47094 TIP3     7393     TIP3     H1       HT       0.417000       1.00800           0   0.00000       0.00000    
     47095 TIP3     7393     TIP3     H2       HT       0.417000       1.00800           0   0.00000     -0.301140E-02
     47096 TIP3     7394     TIP3     OH2      OT      -0.834000       15.9994           0   0.00000       0.00000    
     47097 TIP3     7394     TIP3     H1       HT       0.417000       1.00800           0   0.00000       0.00000    
     47098 TIP3     7394     TIP3     H2       HT       0.417000       1.00800           0   0.00000     -0.301140E-02
     47099 TIP3     7395     TIP3     OH2      OT      -0.834000       15.9994           0   0.00000       0.00000    
     47100 TIP3     7395     TIP3     H1       HT       0.417000       1.00800           0   0.00000       0.00000    
     47101 TIP3     7395     TIP3     H2       HT       0.417000       1.00800           0   0.00000     -0.301140E-02
     47102 TIP3     7396     TIP3     OH2      OT      -0.834000       15.9994           0   0.00000       0.00000    
     47103 TIP3     7396     TIP3     H1       HT       0.417000       1.00800           0   0.00000       0.00000    
     47104 TIP3     7396     TIP3     H2       HT       0.417000       1.00800           0   0.00000     -0.301140E-02
     47105 TIP3     7397     TIP3     OH2      OT      -0.834000       15.9994           0   0.00000       0.00000    
     47106 TIP3     7397     TIP3     H1       HT       0.417000       1.00800           0   0.00000       0.00000    
     47107 TIP3     7397     TIP3     H2       HT       0.417000       1.00800           0   0.00000     -0.301140E-02
     47108 TIP3     7398     TIP3     OH2      OT      -0.834000       15.9994           0   0.00000       0.00000    
     47109 TIP3     7398     TIP3     H1       HT       0.417000       1.00800           0   0.00000       0.00000    
     47110 TIP3     7398     TIP3     H2       HT       0.417000       1.00800           0   0.00000     -0.301140E-02
     47111 TIP3     7399     TIP3     OH2      OT      -0.834000       15.9994           0   0.00000       0.00000    
     47112 TIP3     7399     TIP3     H1       HT       0.417000       1.00800           0   0.00000       0.00000    
     47113 TIP3     7399     TIP3     H2       HT       0.417000       1.00800           0   0.00000     -0.301140E-02
     47114 TIP3     7400     TIP3     OH2      OT      -0.834000       15.9994           0   0.00000       0.00000    
     47115 TIP3     7400     TIP3     H1       HT       0.417000       1.00800           0   0.00000       0.00000    
     47116 TIP3     7400     TIP3     H2       HT       0.417000       1.00800           0   0.00000     -0.301140E-02
     47117 TIP3     7401     TIP3     OH2      OT      -0.834000       15.9994           0   0.00000       0.00000    
     47118 TIP3     7401     TIP3     H1       HT       0.417000       1.00800           0   0.00000       0.00000    
     47119 TIP3     7401     TIP3     H2       HT       0.417000       1.00800           0   0.00000     -0.301140E-02
     47120 TIP3     7402     TIP3     OH2      OT      -0.834000       15.9994           0   0.00000       0.00000    
     47121 TIP3     7402     TIP3     H1       HT       0.417000       1.00800           0   0.00000       0.00000    
     47122 TIP3     7402     TIP3     H2       HT       0.417000       1.00800           0   0.00000     -0.301140E-02
     47123 TIP3     7403     TIP3     OH2      OT      -0.834000       15.9994           0   0.00000       0.00000    
     47124 TIP3     7403     TIP3     H1       HT       0.417000       1.00800           0   0.00000       0.00000    
     47125 TIP3     7403     TIP3     H2       HT       0.417000       1.00800           0   0.00000     -0.301140E-02
     47126 TIP3     7404     TIP3     OH2      OT      -0.834000       15.9994           0   0.00000       0.00000    
     47127 TIP3     7404     TIP3     H1       HT       0.417000       1.00800           0   0.00000       0.00000    
     47128 TIP3     7404     TIP3     H2       HT       0.417000       1.00800           0   0.00000     -0.301140E-02
     47129 TIP3     7405     TIP3     OH2      OT      -0.834000       15.9994           0   0.00000       0.00000    
     47130 TIP3     7405     TIP3     H1       HT       0.417000       1.00800           0   0.00000       0.00000    
     47131 TIP3     7405     TIP3     H2       HT       0.417000       1.00800           0   0.00000     -0.301140E-02
     47132 TIP3     7406     TIP3     OH2      OT      -0.834000       15.9994           0   0.00000       0.00000    
     47133 TIP3     7406     TIP3     H1       HT       0.417000       1.00800           0   0.00000       0.00000    
     47134 TIP3     7406     TIP3     H2       HT       0.417000       1.00800           0   0.00000     -0.301140E-02
     47135 TIP3     7407     TIP3     OH2      OT      -0.834000       15.9994           0   0.00000       0.00000    
     47136 TIP3     7407     TIP3     H1       HT       0.417000       1.00800           0   0.00000       0.00000    
     47137 TIP3     7407     TIP3     H2       HT       0.417000       1.00800           0   0.00000     -0.301140E-02
     47138 TIP3     7408     TIP3     OH2      OT      -0.834000       15.9994           0   0.00000       0.00000    
     47139 TIP3     7408     TIP3     H1       HT       0.417000       1.00800           0   0.00000       0.00000    
     47140 TIP3     7408     TIP3     H2       HT       0.417000       1.00800           0   0.00000     -0.301140E-02
     47141 TIP3     7409     TIP3     OH2      OT      -0.834000       15.9994           0   0.00000       0.00000    
     47142 TIP3     7409     TIP3     H1       HT       0.417000       1.00800           0   0.00000       0.00000    
     47143 TIP3     7409     TIP3     H2       HT       0.417000       1.00800           0   0.00000     -0.301140E-02
     47144 TIP3     7410     TIP3     OH2      OT      -0.834000       15.9994           0   0.00000       0.00000    
     47145 TIP3     7410     TIP3     H1       HT       0.417000       1.00800           0   0.00000       0.00000    
     47146 TIP3     7410     TIP3     H2       HT       0.417000       1.00800           0   0.00000     -0.301140E-02
     47147 TIP3     7411     TIP3     OH2      OT      -0.834000       15.9994           0   0.00000       0.00000    
     47148 TIP3     7411     TIP3     H1       HT       0.417000       1.00800           0   0.00000       0.00000    
     47149 TIP3     7411     TIP3     H2       HT       0.417000       1.00800           0   0.00000     -0.301140E-02
     47150 TIP3     7412     TIP3     OH2      OT      -0.834000       15.9994           0   0.00000       0.00000    
     47151 TIP3     7412     TIP3     H1       HT       0.417000       1.00800           0   0.00000       0.00000    
     47152 TIP3     7412     TIP3     H2       HT       0.417000       1.00800           0   0.00000     -0.301140E-02
     47153 TIP3     7413     TIP3     OH2      OT      -0.834000       15.9994           0   0.00000       0.00000    
     47154 TIP3     7413     TIP3     H1       HT       0.417000       1.00800           0   0.00000       0.00000    
     47155 TIP3     7413     TIP3     H2       HT       0.417000       1.00800           0   0.00000     -0.301140E-02
     47156 TIP3     7414     TIP3     OH2      OT      -0.834000       15.9994           0   0.00000       0.00000    
     47157 TIP3     7414     TIP3     H1       HT       0.417000       1.00800           0   0.00000       0.00000    
     47158 TIP3     7414     TIP3     H2       HT       0.417000       1.00800           0   0.00000     -0.301140E-02
     47159 TIP3     7415     TIP3     OH2      OT      -0.834000       15.9994           0   0.00000       0.00000    
     47160 TIP3     7415     TIP3     H1       HT       0.417000       1.00800           0   0.00000       0.00000    
     47161 TIP3     7415     TIP3     H2       HT       0.417000       1.00800           0   0.00000     -0.301140E-02
     47162 TIP3     7416     TIP3     OH2      OT      -0.834000       15.9994           0   0.00000       0.00000    
     47163 TIP3     7416     TIP3     H1       HT       0.417000       1.00800           0   0.00000       0.00000    
     47164 TIP3     7416     TIP3     H2       HT       0.417000       1.00800           0   0.00000     -0.301140E-02
     47165 TIP3     7417     TIP3     OH2      OT      -0.834000       15.9994           0   0.00000       0.00000    
     47166 TIP3     7417     TIP3     H1       HT       0.417000       1.00800           0   0.00000       0.00000    
     47167 TIP3     7417     TIP3     H2       HT       0.417000       1.00800           0   0.00000     -0.301140E-02
     47168 TIP3     7418     TIP3     OH2      OT      -0.834000       15.9994           0   0.00000       0.00000    
     47169 TIP3     7418     TIP3     H1       HT       0.417000       1.00800           0   0.00000       0.00000    
     47170 TIP3     7418     TIP3     H2       HT       0.417000       1.00800           0   0.00000     -0.301140E-02
     47171 TIP3     7419     TIP3     OH2      OT      -0.834000       15.9994           0   0.00000       0.00000    
     47172 TIP3     7419     TIP3     H1       HT       0.417000       1.00800           0   0.00000       0.00000    
     47173 TIP3     7419     TIP3     H2       HT       0.417000       1.00800           0   0.00000     -0.301140E-02
     47174 TIP3     7420     TIP3     OH2      OT      -0.834000       15.9994           0   0.00000       0.00000    
     47175 TIP3     7420     TIP3     H1       HT       0.417000       1.00800           0   0.00000       0.00000    
     47176 TIP3     7420     TIP3     H2       HT       0.417000       1.00800           0   0.00000     -0.301140E-02
     47177 TIP3     7421     TIP3     OH2      OT      -0.834000       15.9994           0   0.00000       0.00000    
     47178 TIP3     7421     TIP3     H1       HT       0.417000       1.00800           0   0.00000       0.00000    
     47179 TIP3     7421     TIP3     H2       HT       0.417000       1.00800           0   0.00000     -0.301140E-02
     47180 TIP3     7422     TIP3     OH2      OT      -0.834000       15.9994           0   0.00000       0.00000    
     47181 TIP3     7422     TIP3     H1       HT       0.417000       1.00800           0   0.00000       0.00000    
     47182 TIP3     7422     TIP3     H2       HT       0.417000       1.00800           0   0.00000     -0.301140E-02
     47183 TIP3     7423     TIP3     OH2      OT      -0.834000       15.9994           0   0.00000       0.00000    
     47184 TIP3     7423     TIP3     H1       HT       0.417000       1.00800           0   0.00000       0.00000    
     47185 TIP3     7423     TIP3     H2       HT       0.417000       1.00800           0   0.00000     -0.301140E-02
     47186 TIP3     7424     TIP3     OH2      OT      -0.834000       15.9994           0   0.00000       0.00000    
     47187 TIP3     7424     TIP3     H1       HT       0.417000       1.00800           0   0.00000       0.00000    
     47188 TIP3     7424     TIP3     H2       HT       0.417000       1.00800           0   0.00000     -0.301140E-02
     47189 TIP3     7425     TIP3     OH2      OT      -0.834000       15.9994           0   0.00000       0.00000    
     47190 TIP3     7425     TIP3     H1       HT       0.417000       1.00800           0   0.00000       0.00000    
     47191 TIP3     7425     TIP3     H2       HT       0.417000       1.00800           0   0.00000     -0.301140E-02
     47192 TIP3     7426     TIP3     OH2      OT      -0.834000       15.9994           0   0.00000       0.00000    
     47193 TIP3     7426     TIP3     H1       HT       0.417000       1.00800           0   0.00000       0.00000    
     47194 TIP3     7426     TIP3     H2       HT       0.417000       1.00800           0   0.00000     -0.301140E-02
     47195 TIP3     7427     TIP3     OH2      OT      -0.834000       15.9994           0   0.00000       0.00000    
     47196 TIP3     7427     TIP3     H1       HT       0.417000       1.00800           0   0.00000       0.00000    
     47197 TIP3     7427     TIP3     H2       HT       0.417000       1.00800           0   0.00000     -0.301140E-02
     47198 TIP3     7428     TIP3     OH2      OT      -0.834000       15.9994           0   0.00000       0.00000    
     47199 TIP3     7428     TIP3     H1       HT       0.417000       1.00800           0   0.00000       0.00000    
     47200 TIP3     7428     TIP3     H2       HT       0.417000       1.00800           0   0.00000     -0.301140E-02
     47201 TIP3     7429     TIP3     OH2      OT      -0.834000       15.9994           0   0.00000       0.00000    
     47202 TIP3     7429     TIP3     H1       HT       0.417000       1.00800           0   0.00000       0.00000    
     47203 TIP3     7429     TIP3     H2       HT       0.417000       1.00800           0   0.00000     -0.301140E-02
     47204 TIP3     7430     TIP3     OH2      OT      -0.834000       15.9994           0   0.00000       0.00000    
     47205 TIP3     7430     TIP3     H1       HT       0.417000       1.00800           0   0.00000       0.00000    
     47206 TIP3     7430     TIP3     H2       HT       0.417000       1.00800           0   0.00000     -0.301140E-02
     47207 TIP3     7431     TIP3     OH2      OT      -0.834000       15.9994           0   0.00000       0.00000    
     47208 TIP3     7431     TIP3     H1       HT       0.417000       1.00800           0   0.00000       0.00000    
     47209 TIP3     7431     TIP3     H2       HT       0.417000       1.00800           0   0.00000     -0.301140E-02
     47210 TIP3     7432     TIP3     OH2      OT      -0.834000       15.9994           0   0.00000       0.00000    
     47211 TIP3     7432     TIP3     H1       HT       0.417000       1.00800           0   0.00000       0.00000    
     47212 TIP3     7432     TIP3     H2       HT       0.417000       1.00800           0   0.00000     -0.301140E-02
     47213 TIP3     7433     TIP3     OH2      OT      -0.834000       15.9994           0   0.00000       0.00000    
     47214 TIP3     7433     TIP3     H1       HT       0.417000       1.00800           0   0.00000       0.00000    
     47215 TIP3     7433     TIP3     H2       HT       0.417000       1.00800           0   0.00000     -0.301140E-02
     47216 TIP3     7434     TIP3     OH2      OT      -0.834000       15.9994           0   0.00000       0.00000    
     47217 TIP3     7434     TIP3     H1       HT       0.417000       1.00800           0   0.00000       0.00000    
     47218 TIP3     7434     TIP3     H2       HT       0.417000       1.00800           0   0.00000     -0.301140E-02
     47219 TIP3     7435     TIP3     OH2      OT      -0.834000       15.9994           0   0.00000       0.00000    
     47220 TIP3     7435     TIP3     H1       HT       0.417000       1.00800           0   0.00000       0.00000    
     47221 TIP3     7435     TIP3     H2       HT       0.417000       1.00800           0   0.00000     -0.301140E-02
     47222 TIP3     7436     TIP3     OH2      OT      -0.834000       15.9994           0   0.00000       0.00000    
     47223 TIP3     7436     TIP3     H1       HT       0.417000       1.00800           0   0.00000       0.00000    
     47224 TIP3     7436     TIP3     H2       HT       0.417000       1.00800           0   0.00000     -0.301140E-02
     47225 TIP3     7437     TIP3     OH2      OT      -0.834000       15.9994           0   0.00000       0.00000    
     47226 TIP3     7437     TIP3     H1       HT       0.417000       1.00800           0   0.00000       0.00000    
     47227 TIP3     7437     TIP3     H2       HT       0.417000       1.00800           0   0.00000     -0.301140E-02
     47228 TIP3     7438     TIP3     OH2      OT      -0.834000       15.9994           0   0.00000       0.00000    
     47229 TIP3     7438     TIP3     H1       HT       0.417000       1.00800           0   0.00000       0.00000    
     47230 TIP3     7438     TIP3     H2       HT       0.417000       1.00800           0   0.00000     -0.301140E-02
     47231 TIP3     7439     TIP3     OH2      OT      -0.834000       15.9994           0   0.00000       0.00000    
     47232 TIP3     7439     TIP3     H1       HT       0.417000       1.00800           0   0.00000       0.00000    
     47233 TIP3     7439     TIP3     H2       HT       0.417000       1.00800           0   0.00000     -0.301140E-02
     47234 TIP3     7440     TIP3     OH2      OT      -0.834000       15.9994           0   0.00000       0.00000    
     47235 TIP3     7440     TIP3     H1       HT       0.417000       1.00800           0   0.00000       0.00000    
     47236 TIP3     7440     TIP3     H2       HT       0.417000       1.00800           0   0.00000     -0.301140E-02
     47237 TIP3     7441     TIP3     OH2      OT      -0.834000       15.9994           0   0.00000       0.00000    
     47238 TIP3     7441     TIP3     H1       HT       0.417000       1.00800           0   0.00000       0.00000    
     47239 TIP3     7441     TIP3     H2       HT       0.417000       1.00800           0   0.00000     -0.301140E-02
     47240 TIP3     7442     TIP3     OH2      OT      -0.834000       15.9994           0   0.00000       0.00000    
     47241 TIP3     7442     TIP3     H1       HT       0.417000       1.00800           0   0.00000       0.00000    
     47242 TIP3     7442     TIP3     H2       HT       0.417000       1.00800           0   0.00000     -0.301140E-02
     47243 TIP3     7443     TIP3     OH2      OT      -0.834000       15.9994           0   0.00000       0.00000    
     47244 TIP3     7443     TIP3     H1       HT       0.417000       1.00800           0   0.00000       0.00000    
     47245 TIP3     7443     TIP3     H2       HT       0.417000       1.00800           0   0.00000     -0.301140E-02
     47246 TIP3     7444     TIP3     OH2      OT      -0.834000       15.9994           0   0.00000       0.00000    
     47247 TIP3     7444     TIP3     H1       HT       0.417000       1.00800           0   0.00000       0.00000    
     47248 TIP3     7444     TIP3     H2       HT       0.417000       1.00800           0   0.00000     -0.301140E-02
     47249 TIP3     7445     TIP3     OH2      OT      -0.834000       15.9994           0   0.00000       0.00000    
     47250 TIP3     7445     TIP3     H1       HT       0.417000       1.00800           0   0.00000       0.00000    
     47251 TIP3     7445     TIP3     H2       HT       0.417000       1.00800           0   0.00000     -0.301140E-02
     47252 TIP3     7446     TIP3     OH2      OT      -0.834000       15.9994           0   0.00000       0.00000    
     47253 TIP3     7446     TIP3     H1       HT       0.417000       1.00800           0   0.00000       0.00000    
     47254 TIP3     7446     TIP3     H2       HT       0.417000       1.00800           0   0.00000     -0.301140E-02
     47255 TIP3     7447     TIP3     OH2      OT      -0.834000       15.9994           0   0.00000       0.00000    
     47256 TIP3     7447     TIP3     H1       HT       0.417000       1.00800           0   0.00000       0.00000    
     47257 TIP3     7447     TIP3     H2       HT       0.417000       1.00800           0   0.00000     -0.301140E-02
     47258 TIP3     7448     TIP3     OH2      OT      -0.834000       15.9994           0   0.00000       0.00000    
     47259 TIP3     7448     TIP3     H1       HT       0.417000       1.00800           0   0.00000       0.00000    
     47260 TIP3     7448     TIP3     H2       HT       0.417000       1.00800           0   0.00000     -0.301140E-02
     47261 TIP3     7449     TIP3     OH2      OT      -0.834000       15.9994           0   0.00000       0.00000    
     47262 TIP3     7449     TIP3     H1       HT       0.417000       1.00800           0   0.00000       0.00000    
     47263 TIP3     7449     TIP3     H2       HT       0.417000       1.00800           0   0.00000     -0.301140E-02
     47264 TIP3     7450     TIP3     OH2      OT      -0.834000       15.9994           0   0.00000       0.00000    
     47265 TIP3     7450     TIP3     H1       HT       0.417000       1.00800           0   0.00000       0.00000    
     47266 TIP3     7450     TIP3     H2       HT       0.417000       1.00800           0   0.00000     -0.301140E-02
     47267 TIP3     7451     TIP3     OH2      OT      -0.834000       15.9994           0   0.00000       0.00000    
     47268 TIP3     7451     TIP3     H1       HT       0.417000       1.00800           0   0.00000       0.00000    
     47269 TIP3     7451     TIP3     H2       HT       0.417000       1.00800           0   0.00000     -0.301140E-02
     47270 TIP3     7452     TIP3     OH2      OT      -0.834000       15.9994           0   0.00000       0.00000    
     47271 TIP3     7452     TIP3     H1       HT       0.417000       1.00800           0   0.00000       0.00000    
     47272 TIP3     7452     TIP3     H2       HT       0.417000       1.00800           0   0.00000     -0.301140E-02
     47273 TIP3     7453     TIP3     OH2      OT      -0.834000       15.9994           0   0.00000       0.00000    
     47274 TIP3     7453     TIP3     H1       HT       0.417000       1.00800           0   0.00000       0.00000    
     47275 TIP3     7453     TIP3     H2       HT       0.417000       1.00800           0   0.00000     -0.301140E-02
     47276 TIP3     7454     TIP3     OH2      OT      -0.834000       15.9994           0   0.00000       0.00000    
     47277 TIP3     7454     TIP3     H1       HT       0.417000       1.00800           0   0.00000       0.00000    
     47278 TIP3     7454     TIP3     H2       HT       0.417000       1.00800           0   0.00000     -0.301140E-02
     47279 TIP3     7455     TIP3     OH2      OT      -0.834000       15.9994           0   0.00000       0.00000    
     47280 TIP3     7455     TIP3     H1       HT       0.417000       1.00800           0   0.00000       0.00000    
     47281 TIP3     7455     TIP3     H2       HT       0.417000       1.00800           0   0.00000     -0.301140E-02
     47282 TIP3     7456     TIP3     OH2      OT      -0.834000       15.9994           0   0.00000       0.00000    
     47283 TIP3     7456     TIP3     H1       HT       0.417000       1.00800           0   0.00000       0.00000    
     47284 TIP3     7456     TIP3     H2       HT       0.417000       1.00800           0   0.00000     -0.301140E-02
     47285 TIP3     7457     TIP3     OH2      OT      -0.834000       15.9994           0   0.00000       0.00000    
     47286 TIP3     7457     TIP3     H1       HT       0.417000       1.00800           0   0.00000       0.00000    
     47287 TIP3     7457     TIP3     H2       HT       0.417000       1.00800           0   0.00000     -0.301140E-02
     47288 TIP3     7458     TIP3     OH2      OT      -0.834000       15.9994           0   0.00000       0.00000    
     47289 TIP3     7458     TIP3     H1       HT       0.417000       1.00800           0   0.00000       0.00000    
     47290 TIP3     7458     TIP3     H2       HT       0.417000       1.00800           0   0.00000     -0.301140E-02
     47291 TIP3     7459     TIP3     OH2      OT      -0.834000       15.9994           0   0.00000       0.00000    
     47292 TIP3     7459     TIP3     H1       HT       0.417000       1.00800           0   0.00000       0.00000    
     47293 TIP3     7459     TIP3     H2       HT       0.417000       1.00800           0   0.00000     -0.301140E-02
     47294 TIP3     7460     TIP3     OH2      OT      -0.834000       15.9994           0   0.00000       0.00000    
     47295 TIP3     7460     TIP3     H1       HT       0.417000       1.00800           0   0.00000       0.00000    
     47296 TIP3     7460     TIP3     H2       HT       0.417000       1.00800           0   0.00000     -0.301140E-02
     47297 TIP3     7461     TIP3     OH2      OT      -0.834000       15.9994           0   0.00000       0.00000    
     47298 TIP3     7461     TIP3     H1       HT       0.417000       1.00800           0   0.00000       0.00000    
     47299 TIP3     7461     TIP3     H2       HT       0.417000       1.00800           0   0.00000     -0.301140E-02
     47300 TIP3     7462     TIP3     OH2      OT      -0.834000       15.9994           0   0.00000       0.00000    
     47301 TIP3     7462     TIP3     H1       HT       0.417000       1.00800           0   0.00000       0.00000    
     47302 TIP3     7462     TIP3     H2       HT       0.417000       1.00800           0   0.00000     -0.301140E-02
     47303 TIP3     7463     TIP3     OH2      OT      -0.834000       15.9994           0   0.00000       0.00000    
     47304 TIP3     7463     TIP3     H1       HT       0.417000       1.00800           0   0.00000       0.00000    
     47305 TIP3     7463     TIP3     H2       HT       0.417000       1.00800           0   0.00000     -0.301140E-02
     47306 TIP3     7464     TIP3     OH2      OT      -0.834000       15.9994           0   0.00000       0.00000    
     47307 TIP3     7464     TIP3     H1       HT       0.417000       1.00800           0   0.00000       0.00000    
     47308 TIP3     7464     TIP3     H2       HT       0.417000       1.00800           0   0.00000     -0.301140E-02
     47309 TIP3     7465     TIP3     OH2      OT      -0.834000       15.9994           0   0.00000       0.00000    
     47310 TIP3     7465     TIP3     H1       HT       0.417000       1.00800           0   0.00000       0.00000    
     47311 TIP3     7465     TIP3     H2       HT       0.417000       1.00800           0   0.00000     -0.301140E-02
     47312 TIP3     7466     TIP3     OH2      OT      -0.834000       15.9994           0   0.00000       0.00000    
     47313 TIP3     7466     TIP3     H1       HT       0.417000       1.00800           0   0.00000       0.00000    
     47314 TIP3     7466     TIP3     H2       HT       0.417000       1.00800           0   0.00000     -0.301140E-02
     47315 TIP3     7467     TIP3     OH2      OT      -0.834000       15.9994           0   0.00000       0.00000    
     47316 TIP3     7467     TIP3     H1       HT       0.417000       1.00800           0   0.00000       0.00000    
     47317 TIP3     7467     TIP3     H2       HT       0.417000       1.00800           0   0.00000     -0.301140E-02
     47318 TIP3     7468     TIP3     OH2      OT      -0.834000       15.9994           0   0.00000       0.00000    
     47319 TIP3     7468     TIP3     H1       HT       0.417000       1.00800           0   0.00000       0.00000    
     47320 TIP3     7468     TIP3     H2       HT       0.417000       1.00800           0   0.00000     -0.301140E-02
     47321 TIP3     7469     TIP3     OH2      OT      -0.834000       15.9994           0   0.00000       0.00000    
     47322 TIP3     7469     TIP3     H1       HT       0.417000       1.00800           0   0.00000       0.00000    
     47323 TIP3     7469     TIP3     H2       HT       0.417000       1.00800           0   0.00000     -0.301140E-02
     47324 TIP3     7470     TIP3     OH2      OT      -0.834000       15.9994           0   0.00000       0.00000    
     47325 TIP3     7470     TIP3     H1       HT       0.417000       1.00800           0   0.00000       0.00000    
     47326 TIP3     7470     TIP3     H2       HT       0.417000       1.00800           0   0.00000     -0.301140E-02
     47327 TIP3     7471     TIP3     OH2      OT      -0.834000       15.9994           0   0.00000       0.00000    
     47328 TIP3     7471     TIP3     H1       HT       0.417000       1.00800           0   0.00000       0.00000    
     47329 TIP3     7471     TIP3     H2       HT       0.417000       1.00800           0   0.00000     -0.301140E-02
     47330 TIP3     7472     TIP3     OH2      OT      -0.834000       15.9994           0   0.00000       0.00000    
     47331 TIP3     7472     TIP3     H1       HT       0.417000       1.00800           0   0.00000       0.00000    
     47332 TIP3     7472     TIP3     H2       HT       0.417000       1.00800           0   0.00000     -0.301140E-02
     47333 TIP3     7473     TIP3     OH2      OT      -0.834000       15.9994           0   0.00000       0.00000    
     47334 TIP3     7473     TIP3     H1       HT       0.417000       1.00800           0   0.00000       0.00000    
     47335 TIP3     7473     TIP3     H2       HT       0.417000       1.00800           0   0.00000     -0.301140E-02
     47336 TIP3     7474     TIP3     OH2      OT      -0.834000       15.9994           0   0.00000       0.00000    
     47337 TIP3     7474     TIP3     H1       HT       0.417000       1.00800           0   0.00000       0.00000    
     47338 TIP3     7474     TIP3     H2       HT       0.417000       1.00800           0   0.00000     -0.301140E-02
     47339 TIP3     7475     TIP3     OH2      OT      -0.834000       15.9994           0   0.00000       0.00000    
     47340 TIP3     7475     TIP3     H1       HT       0.417000       1.00800           0   0.00000       0.00000    
     47341 TIP3     7475     TIP3     H2       HT       0.417000       1.00800           0   0.00000     -0.301140E-02
     47342 TIP3     7476     TIP3     OH2      OT      -0.834000       15.9994           0   0.00000       0.00000    
     47343 TIP3     7476     TIP3     H1       HT       0.417000       1.00800           0   0.00000       0.00000    
     47344 TIP3     7476     TIP3     H2       HT       0.417000       1.00800           0   0.00000     -0.301140E-02
     47345 TIP3     7477     TIP3     OH2      OT      -0.834000       15.9994           0   0.00000       0.00000    
     47346 TIP3     7477     TIP3     H1       HT       0.417000       1.00800           0   0.00000       0.00000    
     47347 TIP3     7477     TIP3     H2       HT       0.417000       1.00800           0   0.00000     -0.301140E-02
     47348 TIP3     7478     TIP3     OH2      OT      -0.834000       15.9994           0   0.00000       0.00000    
     47349 TIP3     7478     TIP3     H1       HT       0.417000       1.00800           0   0.00000       0.00000    
     47350 TIP3     7478     TIP3     H2       HT       0.417000       1.00800           0   0.00000     -0.301140E-02
     47351 TIP3     7479     TIP3     OH2      OT      -0.834000       15.9994           0   0.00000       0.00000    
     47352 TIP3     7479     TIP3     H1       HT       0.417000       1.00800           0   0.00000       0.00000    
     47353 TIP3     7479     TIP3     H2       HT       0.417000       1.00800           0   0.00000     -0.301140E-02
     47354 TIP3     7480     TIP3     OH2      OT      -0.834000       15.9994           0   0.00000       0.00000    
     47355 TIP3     7480     TIP3     H1       HT       0.417000       1.00800           0   0.00000       0.00000    
     47356 TIP3     7480     TIP3     H2       HT       0.417000       1.00800           0   0.00000     -0.301140E-02
     47357 TIP3     7481     TIP3     OH2      OT      -0.834000       15.9994           0   0.00000       0.00000    
     47358 TIP3     7481     TIP3     H1       HT       0.417000       1.00800           0   0.00000       0.00000    
     47359 TIP3     7481     TIP3     H2       HT       0.417000       1.00800           0   0.00000     -0.301140E-02
     47360 TIP3     7482     TIP3     OH2      OT      -0.834000       15.9994           0   0.00000       0.00000    
     47361 TIP3     7482     TIP3     H1       HT       0.417000       1.00800           0   0.00000       0.00000    
     47362 TIP3     7482     TIP3     H2       HT       0.417000       1.00800           0   0.00000     -0.301140E-02
     47363 TIP3     7483     TIP3     OH2      OT      -0.834000       15.9994           0   0.00000       0.00000    
     47364 TIP3     7483     TIP3     H1       HT       0.417000       1.00800           0   0.00000       0.00000    
     47365 TIP3     7483     TIP3     H2       HT       0.417000       1.00800           0   0.00000     -0.301140E-02
     47366 TIP3     7484     TIP3     OH2      OT      -0.834000       15.9994           0   0.00000       0.00000    
     47367 TIP3     7484     TIP3     H1       HT       0.417000       1.00800           0   0.00000       0.00000    
     47368 TIP3     7484     TIP3     H2       HT       0.417000       1.00800           0   0.00000     -0.301140E-02
     47369 TIP3     7485     TIP3     OH2      OT      -0.834000       15.9994           0   0.00000       0.00000    
     47370 TIP3     7485     TIP3     H1       HT       0.417000       1.00800           0   0.00000       0.00000    
     47371 TIP3     7485     TIP3     H2       HT       0.417000       1.00800           0   0.00000     -0.301140E-02
     47372 TIP3     7486     TIP3     OH2      OT      -0.834000       15.9994           0   0.00000       0.00000    
     47373 TIP3     7486     TIP3     H1       HT       0.417000       1.00800           0   0.00000       0.00000    
     47374 TIP3     7486     TIP3     H2       HT       0.417000       1.00800           0   0.00000     -0.301140E-02
     47375 TIP3     7487     TIP3     OH2      OT      -0.834000       15.9994           0   0.00000       0.00000    
     47376 TIP3     7487     TIP3     H1       HT       0.417000       1.00800           0   0.00000       0.00000    
     47377 TIP3     7487     TIP3     H2       HT       0.417000       1.00800           0   0.00000     -0.301140E-02
     47378 TIP3     7488     TIP3     OH2      OT      -0.834000       15.9994           0   0.00000       0.00000    
     47379 TIP3     7488     TIP3     H1       HT       0.417000       1.00800           0   0.00000       0.00000    
     47380 TIP3     7488     TIP3     H2       HT       0.417000       1.00800           0   0.00000     -0.301140E-02
     47381 TIP3     7489     TIP3     OH2      OT      -0.834000       15.9994           0   0.00000       0.00000    
     47382 TIP3     7489     TIP3     H1       HT       0.417000       1.00800           0   0.00000       0.00000    
     47383 TIP3     7489     TIP3     H2       HT       0.417000       1.00800           0   0.00000     -0.301140E-02
     47384 TIP3     7490     TIP3     OH2      OT      -0.834000       15.9994           0   0.00000       0.00000    
     47385 TIP3     7490     TIP3     H1       HT       0.417000       1.00800           0   0.00000       0.00000    
     47386 TIP3     7490     TIP3     H2       HT       0.417000       1.00800           0   0.00000     -0.301140E-02
     47387 TIP3     7491     TIP3     OH2      OT      -0.834000       15.9994           0   0.00000       0.00000    
     47388 TIP3     7491     TIP3     H1       HT       0.417000       1.00800           0   0.00000       0.00000    
     47389 TIP3     7491     TIP3     H2       HT       0.417000       1.00800           0   0.00000     -0.301140E-02
     47390 TIP3     7492     TIP3     OH2      OT      -0.834000       15.9994           0   0.00000       0.00000    
     47391 TIP3     7492     TIP3     H1       HT       0.417000       1.00800           0   0.00000       0.00000    
     47392 TIP3     7492     TIP3     H2       HT       0.417000       1.00800           0   0.00000     -0.301140E-02
     47393 TIP3     7493     TIP3     OH2      OT      -0.834000       15.9994           0   0.00000       0.00000    
     47394 TIP3     7493     TIP3     H1       HT       0.417000       1.00800           0   0.00000       0.00000    
     47395 TIP3     7493     TIP3     H2       HT       0.417000       1.00800           0   0.00000     -0.301140E-02
     47396 TIP3     7494     TIP3     OH2      OT      -0.834000       15.9994           0   0.00000       0.00000    
     47397 TIP3     7494     TIP3     H1       HT       0.417000       1.00800           0   0.00000       0.00000    
     47398 TIP3     7494     TIP3     H2       HT       0.417000       1.00800           0   0.00000     -0.301140E-02
     47399 TIP3     7495     TIP3     OH2      OT      -0.834000       15.9994           0   0.00000       0.00000    
     47400 TIP3     7495     TIP3     H1       HT       0.417000       1.00800           0   0.00000       0.00000    
     47401 TIP3     7495     TIP3     H2       HT       0.417000       1.00800           0   0.00000     -0.301140E-02
     47402 TIP3     7496     TIP3     OH2      OT      -0.834000       15.9994           0   0.00000       0.00000    
     47403 TIP3     7496     TIP3     H1       HT       0.417000       1.00800           0   0.00000       0.00000    
     47404 TIP3     7496     TIP3     H2       HT       0.417000       1.00800           0   0.00000     -0.301140E-02
     47405 TIP3     7497     TIP3     OH2      OT      -0.834000       15.9994           0   0.00000       0.00000    
     47406 TIP3     7497     TIP3     H1       HT       0.417000       1.00800           0   0.00000       0.00000    
     47407 TIP3     7497     TIP3     H2       HT       0.417000       1.00800           0   0.00000     -0.301140E-02
     47408 TIP3     7498     TIP3     OH2      OT      -0.834000       15.9994           0   0.00000       0.00000    
     47409 TIP3     7498     TIP3     H1       HT       0.417000       1.00800           0   0.00000       0.00000    
     47410 TIP3     7498     TIP3     H2       HT       0.417000       1.00800           0   0.00000     -0.301140E-02
     47411 TIP3     7499     TIP3     OH2      OT      -0.834000       15.9994           0   0.00000       0.00000    
     47412 TIP3     7499     TIP3     H1       HT       0.417000       1.00800           0   0.00000       0.00000    
     47413 TIP3     7499     TIP3     H2       HT       0.417000       1.00800           0   0.00000     -0.301140E-02
     47414 TIP3     7500     TIP3     OH2      OT      -0.834000       15.9994           0   0.00000       0.00000    
     47415 TIP3     7500     TIP3     H1       HT       0.417000       1.00800           0   0.00000       0.00000    
     47416 TIP3     7500     TIP3     H2       HT       0.417000       1.00800           0   0.00000     -0.301140E-02
     47417 TIP3     7501     TIP3     OH2      OT      -0.834000       15.9994           0   0.00000       0.00000    
     47418 TIP3     7501     TIP3     H1       HT       0.417000       1.00800           0   0.00000       0.00000    
     47419 TIP3     7501     TIP3     H2       HT       0.417000       1.00800           0   0.00000     -0.301140E-02
     47420 TIP3     7502     TIP3     OH2      OT      -0.834000       15.9994           0   0.00000       0.00000    
     47421 TIP3     7502     TIP3     H1       HT       0.417000       1.00800           0   0.00000       0.00000    
     47422 TIP3     7502     TIP3     H2       HT       0.417000       1.00800           0   0.00000     -0.301140E-02
     47423 TIP3     7503     TIP3     OH2      OT      -0.834000       15.9994           0   0.00000       0.00000    
     47424 TIP3     7503     TIP3     H1       HT       0.417000       1.00800           0   0.00000       0.00000    
     47425 TIP3     7503     TIP3     H2       HT       0.417000       1.00800           0   0.00000     -0.301140E-02
     47426 TIP3     7504     TIP3     OH2      OT      -0.834000       15.9994           0   0.00000       0.00000    
     47427 TIP3     7504     TIP3     H1       HT       0.417000       1.00800           0   0.00000       0.00000    
     47428 TIP3     7504     TIP3     H2       HT       0.417000       1.00800           0   0.00000     -0.301140E-02
     47429 TIP3     7505     TIP3     OH2      OT      -0.834000       15.9994           0   0.00000       0.00000    
     47430 TIP3     7505     TIP3     H1       HT       0.417000       1.00800           0   0.00000       0.00000    
     47431 TIP3     7505     TIP3     H2       HT       0.417000       1.00800           0   0.00000     -0.301140E-02
     47432 TIP3     7506     TIP3     OH2      OT      -0.834000       15.9994           0   0.00000       0.00000    
     47433 TIP3     7506     TIP3     H1       HT       0.417000       1.00800           0   0.00000       0.00000    
     47434 TIP3     7506     TIP3     H2       HT       0.417000       1.00800           0   0.00000     -0.301140E-02
     47435 TIP3     7507     TIP3     OH2      OT      -0.834000       15.9994           0   0.00000       0.00000    
     47436 TIP3     7507     TIP3     H1       HT       0.417000       1.00800           0   0.00000       0.00000    
     47437 TIP3     7507     TIP3     H2       HT       0.417000       1.00800           0   0.00000     -0.301140E-02
     47438 TIP3     7508     TIP3     OH2      OT      -0.834000       15.9994           0   0.00000       0.00000    
     47439 TIP3     7508     TIP3     H1       HT       0.417000       1.00800           0   0.00000       0.00000    
     47440 TIP3     7508     TIP3     H2       HT       0.417000       1.00800           0   0.00000     -0.301140E-02
     47441 TIP3     7509     TIP3     OH2      OT      -0.834000       15.9994           0   0.00000       0.00000    
     47442 TIP3     7509     TIP3     H1       HT       0.417000       1.00800           0   0.00000       0.00000    
     47443 TIP3     7509     TIP3     H2       HT       0.417000       1.00800           0   0.00000     -0.301140E-02
     47444 TIP3     7510     TIP3     OH2      OT      -0.834000       15.9994           0   0.00000       0.00000    
     47445 TIP3     7510     TIP3     H1       HT       0.417000       1.00800           0   0.00000       0.00000    
     47446 TIP3     7510     TIP3     H2       HT       0.417000       1.00800           0   0.00000     -0.301140E-02
     47447 TIP3     7511     TIP3     OH2      OT      -0.834000       15.9994           0   0.00000       0.00000    
     47448 TIP3     7511     TIP3     H1       HT       0.417000       1.00800           0   0.00000       0.00000    
     47449 TIP3     7511     TIP3     H2       HT       0.417000       1.00800           0   0.00000     -0.301140E-02
     47450 TIP3     7512     TIP3     OH2      OT      -0.834000       15.9994           0   0.00000       0.00000    
     47451 TIP3     7512     TIP3     H1       HT       0.417000       1.00800           0   0.00000       0.00000    
     47452 TIP3     7512     TIP3     H2       HT       0.417000       1.00800           0   0.00000     -0.301140E-02
     47453 TIP3     7513     TIP3     OH2      OT      -0.834000       15.9994           0   0.00000       0.00000    
     47454 TIP3     7513     TIP3     H1       HT       0.417000       1.00800           0   0.00000       0.00000    
     47455 TIP3     7513     TIP3     H2       HT       0.417000       1.00800           0   0.00000     -0.301140E-02
     47456 TIP3     7514     TIP3     OH2      OT      -0.834000       15.9994           0   0.00000       0.00000    
     47457 TIP3     7514     TIP3     H1       HT       0.417000       1.00800           0   0.00000       0.00000    
     47458 TIP3     7514     TIP3     H2       HT       0.417000       1.00800           0   0.00000     -0.301140E-02
     47459 TIP3     7515     TIP3     OH2      OT      -0.834000       15.9994           0   0.00000       0.00000    
     47460 TIP3     7515     TIP3     H1       HT       0.417000       1.00800           0   0.00000       0.00000    
     47461 TIP3     7515     TIP3     H2       HT       0.417000       1.00800           0   0.00000     -0.301140E-02
     47462 TIP3     7516     TIP3     OH2      OT      -0.834000       15.9994           0   0.00000       0.00000    
     47463 TIP3     7516     TIP3     H1       HT       0.417000       1.00800           0   0.00000       0.00000    
     47464 TIP3     7516     TIP3     H2       HT       0.417000       1.00800           0   0.00000     -0.301140E-02
     47465 TIP3     7517     TIP3     OH2      OT      -0.834000       15.9994           0   0.00000       0.00000    
     47466 TIP3     7517     TIP3     H1       HT       0.417000       1.00800           0   0.00000       0.00000    
     47467 TIP3     7517     TIP3     H2       HT       0.417000       1.00800           0   0.00000     -0.301140E-02
     47468 TIP3     7518     TIP3     OH2      OT      -0.834000       15.9994           0   0.00000       0.00000    
     47469 TIP3     7518     TIP3     H1       HT       0.417000       1.00800           0   0.00000       0.00000    
     47470 TIP3     7518     TIP3     H2       HT       0.417000       1.00800           0   0.00000     -0.301140E-02
     47471 TIP3     7519     TIP3     OH2      OT      -0.834000       15.9994           0   0.00000       0.00000    
     47472 TIP3     7519     TIP3     H1       HT       0.417000       1.00800           0   0.00000       0.00000    
     47473 TIP3     7519     TIP3     H2       HT       0.417000       1.00800           0   0.00000     -0.301140E-02
     47474 TIP3     7520     TIP3     OH2      OT      -0.834000       15.9994           0   0.00000       0.00000    
     47475 TIP3     7520     TIP3     H1       HT       0.417000       1.00800           0   0.00000       0.00000    
     47476 TIP3     7520     TIP3     H2       HT       0.417000       1.00800           0   0.00000     -0.301140E-02
     47477 TIP3     7521     TIP3     OH2      OT      -0.834000       15.9994           0   0.00000       0.00000    
     47478 TIP3     7521     TIP3     H1       HT       0.417000       1.00800           0   0.00000       0.00000    
     47479 TIP3     7521     TIP3     H2       HT       0.417000       1.00800           0   0.00000     -0.301140E-02
     47480 TIP3     7522     TIP3     OH2      OT      -0.834000       15.9994           0   0.00000       0.00000    
     47481 TIP3     7522     TIP3     H1       HT       0.417000       1.00800           0   0.00000       0.00000    
     47482 TIP3     7522     TIP3     H2       HT       0.417000       1.00800           0   0.00000     -0.301140E-02
     47483 TIP3     7523     TIP3     OH2      OT      -0.834000       15.9994           0   0.00000       0.00000    
     47484 TIP3     7523     TIP3     H1       HT       0.417000       1.00800           0   0.00000       0.00000    
     47485 TIP3     7523     TIP3     H2       HT       0.417000       1.00800           0   0.00000     -0.301140E-02
     47486 TIP3     7524     TIP3     OH2      OT      -0.834000       15.9994           0   0.00000       0.00000    
     47487 TIP3     7524     TIP3     H1       HT       0.417000       1.00800           0   0.00000       0.00000    
     47488 TIP3     7524     TIP3     H2       HT       0.417000       1.00800           0   0.00000     -0.301140E-02
     47489 TIP3     7525     TIP3     OH2      OT      -0.834000       15.9994           0   0.00000       0.00000    
     47490 TIP3     7525     TIP3     H1       HT       0.417000       1.00800           0   0.00000       0.00000    
     47491 TIP3     7525     TIP3     H2       HT       0.417000       1.00800           0   0.00000     -0.301140E-02
     47492 TIP3     7526     TIP3     OH2      OT      -0.834000       15.9994           0   0.00000       0.00000    
     47493 TIP3     7526     TIP3     H1       HT       0.417000       1.00800           0   0.00000       0.00000    
     47494 TIP3     7526     TIP3     H2       HT       0.417000       1.00800           0   0.00000     -0.301140E-02
     47495 TIP3     7527     TIP3     OH2      OT      -0.834000       15.9994           0   0.00000       0.00000    
     47496 TIP3     7527     TIP3     H1       HT       0.417000       1.00800           0   0.00000       0.00000    
     47497 TIP3     7527     TIP3     H2       HT       0.417000       1.00800           0   0.00000     -0.301140E-02
     47498 TIP3     7528     TIP3     OH2      OT      -0.834000       15.9994           0   0.00000       0.00000    
     47499 TIP3     7528     TIP3     H1       HT       0.417000       1.00800           0   0.00000       0.00000    
     47500 TIP3     7528     TIP3     H2       HT       0.417000       1.00800           0   0.00000     -0.301140E-02
     47501 TIP3     7529     TIP3     OH2      OT      -0.834000       15.9994           0   0.00000       0.00000    
     47502 TIP3     7529     TIP3     H1       HT       0.417000       1.00800           0   0.00000       0.00000    
     47503 TIP3     7529     TIP3     H2       HT       0.417000       1.00800           0   0.00000     -0.301140E-02
     47504 TIP3     7530     TIP3     OH2      OT      -0.834000       15.9994           0   0.00000       0.00000    
     47505 TIP3     7530     TIP3     H1       HT       0.417000       1.00800           0   0.00000       0.00000    
     47506 TIP3     7530     TIP3     H2       HT       0.417000       1.00800           0   0.00000     -0.301140E-02
     47507 TIP3     7531     TIP3     OH2      OT      -0.834000       15.9994           0   0.00000       0.00000    
     47508 TIP3     7531     TIP3     H1       HT       0.417000       1.00800           0   0.00000       0.00000    
     47509 TIP3     7531     TIP3     H2       HT       0.417000       1.00800           0   0.00000     -0.301140E-02
     47510 TIP3     7532     TIP3     OH2      OT      -0.834000       15.9994           0   0.00000       0.00000    
     47511 TIP3     7532     TIP3     H1       HT       0.417000       1.00800           0   0.00000       0.00000    
     47512 TIP3     7532     TIP3     H2       HT       0.417000       1.00800           0   0.00000     -0.301140E-02
     47513 TIP3     7533     TIP3     OH2      OT      -0.834000       15.9994           0   0.00000       0.00000    
     47514 TIP3     7533     TIP3     H1       HT       0.417000       1.00800           0   0.00000       0.00000    
     47515 TIP3     7533     TIP3     H2       HT       0.417000       1.00800           0   0.00000     -0.301140E-02
     47516 TIP3     7534     TIP3     OH2      OT      -0.834000       15.9994           0   0.00000       0.00000    
     47517 TIP3     7534     TIP3     H1       HT       0.417000       1.00800           0   0.00000       0.00000    
     47518 TIP3     7534     TIP3     H2       HT       0.417000       1.00800           0   0.00000     -0.301140E-02
     47519 TIP3     7535     TIP3     OH2      OT      -0.834000       15.9994           0   0.00000       0.00000    
     47520 TIP3     7535     TIP3     H1       HT       0.417000       1.00800           0   0.00000       0.00000    
     47521 TIP3     7535     TIP3     H2       HT       0.417000       1.00800           0   0.00000     -0.301140E-02
     47522 TIP3     7536     TIP3     OH2      OT      -0.834000       15.9994           0   0.00000       0.00000    
     47523 TIP3     7536     TIP3     H1       HT       0.417000       1.00800           0   0.00000       0.00000    
     47524 TIP3     7536     TIP3     H2       HT       0.417000       1.00800           0   0.00000     -0.301140E-02
     47525 TIP3     7537     TIP3     OH2      OT      -0.834000       15.9994           0   0.00000       0.00000    
     47526 TIP3     7537     TIP3     H1       HT       0.417000       1.00800           0   0.00000       0.00000    
     47527 TIP3     7537     TIP3     H2       HT       0.417000       1.00800           0   0.00000     -0.301140E-02
     47528 TIP3     7538     TIP3     OH2      OT      -0.834000       15.9994           0   0.00000       0.00000    
     47529 TIP3     7538     TIP3     H1       HT       0.417000       1.00800           0   0.00000       0.00000    
     47530 TIP3     7538     TIP3     H2       HT       0.417000       1.00800           0   0.00000     -0.301140E-02
     47531 TIP3     7539     TIP3     OH2      OT      -0.834000       15.9994           0   0.00000       0.00000    
     47532 TIP3     7539     TIP3     H1       HT       0.417000       1.00800           0   0.00000       0.00000    
     47533 TIP3     7539     TIP3     H2       HT       0.417000       1.00800           0   0.00000     -0.301140E-02
     47534 TIP3     7540     TIP3     OH2      OT      -0.834000       15.9994           0   0.00000       0.00000    
     47535 TIP3     7540     TIP3     H1       HT       0.417000       1.00800           0   0.00000       0.00000    
     47536 TIP3     7540     TIP3     H2       HT       0.417000       1.00800           0   0.00000     -0.301140E-02
     47537 TIP3     7541     TIP3     OH2      OT      -0.834000       15.9994           0   0.00000       0.00000    
     47538 TIP3     7541     TIP3     H1       HT       0.417000       1.00800           0   0.00000       0.00000    
     47539 TIP3     7541     TIP3     H2       HT       0.417000       1.00800           0   0.00000     -0.301140E-02
     47540 TIP3     7542     TIP3     OH2      OT      -0.834000       15.9994           0   0.00000       0.00000    
     47541 TIP3     7542     TIP3     H1       HT       0.417000       1.00800           0   0.00000       0.00000    
     47542 TIP3     7542     TIP3     H2       HT       0.417000       1.00800           0   0.00000     -0.301140E-02
     47543 TIP3     7543     TIP3     OH2      OT      -0.834000       15.9994           0   0.00000       0.00000    
     47544 TIP3     7543     TIP3     H1       HT       0.417000       1.00800           0   0.00000       0.00000    
     47545 TIP3     7543     TIP3     H2       HT       0.417000       1.00800           0   0.00000     -0.301140E-02
     47546 TIP3     7544     TIP3     OH2      OT      -0.834000       15.9994           0   0.00000       0.00000    
     47547 TIP3     7544     TIP3     H1       HT       0.417000       1.00800           0   0.00000       0.00000    
     47548 TIP3     7544     TIP3     H2       HT       0.417000       1.00800           0   0.00000     -0.301140E-02
     47549 TIP3     7545     TIP3     OH2      OT      -0.834000       15.9994           0   0.00000       0.00000    
     47550 TIP3     7545     TIP3     H1       HT       0.417000       1.00800           0   0.00000       0.00000    
     47551 TIP3     7545     TIP3     H2       HT       0.417000       1.00800           0   0.00000     -0.301140E-02
     47552 TIP3     7546     TIP3     OH2      OT      -0.834000       15.9994           0   0.00000       0.00000    
     47553 TIP3     7546     TIP3     H1       HT       0.417000       1.00800           0   0.00000       0.00000    
     47554 TIP3     7546     TIP3     H2       HT       0.417000       1.00800           0   0.00000     -0.301140E-02
     47555 TIP3     7547     TIP3     OH2      OT      -0.834000       15.9994           0   0.00000       0.00000    
     47556 TIP3     7547     TIP3     H1       HT       0.417000       1.00800           0   0.00000       0.00000    
     47557 TIP3     7547     TIP3     H2       HT       0.417000       1.00800           0   0.00000     -0.301140E-02
     47558 TIP3     7548     TIP3     OH2      OT      -0.834000       15.9994           0   0.00000       0.00000    
     47559 TIP3     7548     TIP3     H1       HT       0.417000       1.00800           0   0.00000       0.00000    
     47560 TIP3     7548     TIP3     H2       HT       0.417000       1.00800           0   0.00000     -0.301140E-02
     47561 TIP3     7549     TIP3     OH2      OT      -0.834000       15.9994           0   0.00000       0.00000    
     47562 TIP3     7549     TIP3     H1       HT       0.417000       1.00800           0   0.00000       0.00000    
     47563 TIP3     7549     TIP3     H2       HT       0.417000       1.00800           0   0.00000     -0.301140E-02
     47564 TIP3     7550     TIP3     OH2      OT      -0.834000       15.9994           0   0.00000       0.00000    
     47565 TIP3     7550     TIP3     H1       HT       0.417000       1.00800           0   0.00000       0.00000    
     47566 TIP3     7550     TIP3     H2       HT       0.417000       1.00800           0   0.00000     -0.301140E-02
     47567 TIP3     7551     TIP3     OH2      OT      -0.834000       15.9994           0   0.00000       0.00000    
     47568 TIP3     7551     TIP3     H1       HT       0.417000       1.00800           0   0.00000       0.00000    
     47569 TIP3     7551     TIP3     H2       HT       0.417000       1.00800           0   0.00000     -0.301140E-02
     47570 TIP3     7552     TIP3     OH2      OT      -0.834000       15.9994           0   0.00000       0.00000    
     47571 TIP3     7552     TIP3     H1       HT       0.417000       1.00800           0   0.00000       0.00000    
     47572 TIP3     7552     TIP3     H2       HT       0.417000       1.00800           0   0.00000     -0.301140E-02
     47573 TIP3     7553     TIP3     OH2      OT      -0.834000       15.9994           0   0.00000       0.00000    
     47574 TIP3     7553     TIP3     H1       HT       0.417000       1.00800           0   0.00000       0.00000    
     47575 TIP3     7553     TIP3     H2       HT       0.417000       1.00800           0   0.00000     -0.301140E-02
     47576 TIP3     7554     TIP3     OH2      OT      -0.834000       15.9994           0   0.00000       0.00000    
     47577 TIP3     7554     TIP3     H1       HT       0.417000       1.00800           0   0.00000       0.00000    
     47578 TIP3     7554     TIP3     H2       HT       0.417000       1.00800           0   0.00000     -0.301140E-02
     47579 TIP3     7555     TIP3     OH2      OT      -0.834000       15.9994           0   0.00000       0.00000    
     47580 TIP3     7555     TIP3     H1       HT       0.417000       1.00800           0   0.00000       0.00000    
     47581 TIP3     7555     TIP3     H2       HT       0.417000       1.00800           0   0.00000     -0.301140E-02
     47582 TIP3     7556     TIP3     OH2      OT      -0.834000       15.9994           0   0.00000       0.00000    
     47583 TIP3     7556     TIP3     H1       HT       0.417000       1.00800           0   0.00000       0.00000    
     47584 TIP3     7556     TIP3     H2       HT       0.417000       1.00800           0   0.00000     -0.301140E-02
     47585 TIP3     7557     TIP3     OH2      OT      -0.834000       15.9994           0   0.00000       0.00000    
     47586 TIP3     7557     TIP3     H1       HT       0.417000       1.00800           0   0.00000       0.00000    
     47587 TIP3     7557     TIP3     H2       HT       0.417000       1.00800           0   0.00000     -0.301140E-02
     47588 TIP3     7558     TIP3     OH2      OT      -0.834000       15.9994           0   0.00000       0.00000    
     47589 TIP3     7558     TIP3     H1       HT       0.417000       1.00800           0   0.00000       0.00000    
     47590 TIP3     7558     TIP3     H2       HT       0.417000       1.00800           0   0.00000     -0.301140E-02
     47591 TIP3     7559     TIP3     OH2      OT      -0.834000       15.9994           0   0.00000       0.00000    
     47592 TIP3     7559     TIP3     H1       HT       0.417000       1.00800           0   0.00000       0.00000    
     47593 TIP3     7559     TIP3     H2       HT       0.417000       1.00800           0   0.00000     -0.301140E-02
     47594 TIP3     7560     TIP3     OH2      OT      -0.834000       15.9994           0   0.00000       0.00000    
     47595 TIP3     7560     TIP3     H1       HT       0.417000       1.00800           0   0.00000       0.00000    
     47596 TIP3     7560     TIP3     H2       HT       0.417000       1.00800           0   0.00000     -0.301140E-02
     47597 TIP3     7561     TIP3     OH2      OT      -0.834000       15.9994           0   0.00000       0.00000    
     47598 TIP3     7561     TIP3     H1       HT       0.417000       1.00800           0   0.00000       0.00000    
     47599 TIP3     7561     TIP3     H2       HT       0.417000       1.00800           0   0.00000     -0.301140E-02
     47600 TIP3     7562     TIP3     OH2      OT      -0.834000       15.9994           0   0.00000       0.00000    
     47601 TIP3     7562     TIP3     H1       HT       0.417000       1.00800           0   0.00000       0.00000    
     47602 TIP3     7562     TIP3     H2       HT       0.417000       1.00800           0   0.00000     -0.301140E-02
     47603 TIP3     7563     TIP3     OH2      OT      -0.834000       15.9994           0   0.00000       0.00000    
     47604 TIP3     7563     TIP3     H1       HT       0.417000       1.00800           0   0.00000       0.00000    
     47605 TIP3     7563     TIP3     H2       HT       0.417000       1.00800           0   0.00000     -0.301140E-02
     47606 TIP3     7564     TIP3     OH2      OT      -0.834000       15.9994           0   0.00000       0.00000    
     47607 TIP3     7564     TIP3     H1       HT       0.417000       1.00800           0   0.00000       0.00000    
     47608 TIP3     7564     TIP3     H2       HT       0.417000       1.00800           0   0.00000     -0.301140E-02
     47609 TIP3     7565     TIP3     OH2      OT      -0.834000       15.9994           0   0.00000       0.00000    
     47610 TIP3     7565     TIP3     H1       HT       0.417000       1.00800           0   0.00000       0.00000    
     47611 TIP3     7565     TIP3     H2       HT       0.417000       1.00800           0   0.00000     -0.301140E-02
     47612 TIP3     7566     TIP3     OH2      OT      -0.834000       15.9994           0   0.00000       0.00000    
     47613 TIP3     7566     TIP3     H1       HT       0.417000       1.00800           0   0.00000       0.00000    
     47614 TIP3     7566     TIP3     H2       HT       0.417000       1.00800           0   0.00000     -0.301140E-02
     47615 TIP3     7567     TIP3     OH2      OT      -0.834000       15.9994           0   0.00000       0.00000    
     47616 TIP3     7567     TIP3     H1       HT       0.417000       1.00800           0   0.00000       0.00000    
     47617 TIP3     7567     TIP3     H2       HT       0.417000       1.00800           0   0.00000     -0.301140E-02
     47618 TIP3     7568     TIP3     OH2      OT      -0.834000       15.9994           0   0.00000       0.00000    
     47619 TIP3     7568     TIP3     H1       HT       0.417000       1.00800           0   0.00000       0.00000    
     47620 TIP3     7568     TIP3     H2       HT       0.417000       1.00800           0   0.00000     -0.301140E-02
     47621 TIP3     7569     TIP3     OH2      OT      -0.834000       15.9994           0   0.00000       0.00000    
     47622 TIP3     7569     TIP3     H1       HT       0.417000       1.00800           0   0.00000       0.00000    
     47623 TIP3     7569     TIP3     H2       HT       0.417000       1.00800           0   0.00000     -0.301140E-02
     47624 TIP3     7570     TIP3     OH2      OT      -0.834000       15.9994           0   0.00000       0.00000    
     47625 TIP3     7570     TIP3     H1       HT       0.417000       1.00800           0   0.00000       0.00000    
     47626 TIP3     7570     TIP3     H2       HT       0.417000       1.00800           0   0.00000     -0.301140E-02
     47627 TIP3     7571     TIP3     OH2      OT      -0.834000       15.9994           0   0.00000       0.00000    
     47628 TIP3     7571     TIP3     H1       HT       0.417000       1.00800           0   0.00000       0.00000    
     47629 TIP3     7571     TIP3     H2       HT       0.417000       1.00800           0   0.00000     -0.301140E-02
     47630 TIP3     7572     TIP3     OH2      OT      -0.834000       15.9994           0   0.00000       0.00000    
     47631 TIP3     7572     TIP3     H1       HT       0.417000       1.00800           0   0.00000       0.00000    
     47632 TIP3     7572     TIP3     H2       HT       0.417000       1.00800           0   0.00000     -0.301140E-02
     47633 TIP3     7573     TIP3     OH2      OT      -0.834000       15.9994           0   0.00000       0.00000    
     47634 TIP3     7573     TIP3     H1       HT       0.417000       1.00800           0   0.00000       0.00000    
     47635 TIP3     7573     TIP3     H2       HT       0.417000       1.00800           0   0.00000     -0.301140E-02
     47636 TIP3     7574     TIP3     OH2      OT      -0.834000       15.9994           0   0.00000       0.00000    
     47637 TIP3     7574     TIP3     H1       HT       0.417000       1.00800           0   0.00000       0.00000    
     47638 TIP3     7574     TIP3     H2       HT       0.417000       1.00800           0   0.00000     -0.301140E-02
     47639 TIP3     7575     TIP3     OH2      OT      -0.834000       15.9994           0   0.00000       0.00000    
     47640 TIP3     7575     TIP3     H1       HT       0.417000       1.00800           0   0.00000       0.00000    
     47641 TIP3     7575     TIP3     H2       HT       0.417000       1.00800           0   0.00000     -0.301140E-02
     47642 TIP3     7576     TIP3     OH2      OT      -0.834000       15.9994           0   0.00000       0.00000    
     47643 TIP3     7576     TIP3     H1       HT       0.417000       1.00800           0   0.00000       0.00000    
     47644 TIP3     7576     TIP3     H2       HT       0.417000       1.00800           0   0.00000     -0.301140E-02
     47645 TIP3     7577     TIP3     OH2      OT      -0.834000       15.9994           0   0.00000       0.00000    
     47646 TIP3     7577     TIP3     H1       HT       0.417000       1.00800           0   0.00000       0.00000    
     47647 TIP3     7577     TIP3     H2       HT       0.417000       1.00800           0   0.00000     -0.301140E-02
     47648 TIP3     7578     TIP3     OH2      OT      -0.834000       15.9994           0   0.00000       0.00000    
     47649 TIP3     7578     TIP3     H1       HT       0.417000       1.00800           0   0.00000       0.00000    
     47650 TIP3     7578     TIP3     H2       HT       0.417000       1.00800           0   0.00000     -0.301140E-02
     47651 TIP3     7579     TIP3     OH2      OT      -0.834000       15.9994           0   0.00000       0.00000    
     47652 TIP3     7579     TIP3     H1       HT       0.417000       1.00800           0   0.00000       0.00000    
     47653 TIP3     7579     TIP3     H2       HT       0.417000       1.00800           0   0.00000     -0.301140E-02
     47654 TIP3     7580     TIP3     OH2      OT      -0.834000       15.9994           0   0.00000       0.00000    
     47655 TIP3     7580     TIP3     H1       HT       0.417000       1.00800           0   0.00000       0.00000    
     47656 TIP3     7580     TIP3     H2       HT       0.417000       1.00800           0   0.00000     -0.301140E-02
     47657 TIP3     7581     TIP3     OH2      OT      -0.834000       15.9994           0   0.00000       0.00000    
     47658 TIP3     7581     TIP3     H1       HT       0.417000       1.00800           0   0.00000       0.00000    
     47659 TIP3     7581     TIP3     H2       HT       0.417000       1.00800           0   0.00000     -0.301140E-02
     47660 TIP3     7582     TIP3     OH2      OT      -0.834000       15.9994           0   0.00000       0.00000    
     47661 TIP3     7582     TIP3     H1       HT       0.417000       1.00800           0   0.00000       0.00000    
     47662 TIP3     7582     TIP3     H2       HT       0.417000       1.00800           0   0.00000     -0.301140E-02
     47663 TIP3     7583     TIP3     OH2      OT      -0.834000       15.9994           0   0.00000       0.00000    
     47664 TIP3     7583     TIP3     H1       HT       0.417000       1.00800           0   0.00000       0.00000    
     47665 TIP3     7583     TIP3     H2       HT       0.417000       1.00800           0   0.00000     -0.301140E-02
     47666 TIP3     7584     TIP3     OH2      OT      -0.834000       15.9994           0   0.00000       0.00000    
     47667 TIP3     7584     TIP3     H1       HT       0.417000       1.00800           0   0.00000       0.00000    
     47668 TIP3     7584     TIP3     H2       HT       0.417000       1.00800           0   0.00000     -0.301140E-02
     47669 TIP3     7585     TIP3     OH2      OT      -0.834000       15.9994           0   0.00000       0.00000    
     47670 TIP3     7585     TIP3     H1       HT       0.417000       1.00800           0   0.00000       0.00000    
     47671 TIP3     7585     TIP3     H2       HT       0.417000       1.00800           0   0.00000     -0.301140E-02
     47672 TIP3     7586     TIP3     OH2      OT      -0.834000       15.9994           0   0.00000       0.00000    
     47673 TIP3     7586     TIP3     H1       HT       0.417000       1.00800           0   0.00000       0.00000    
     47674 TIP3     7586     TIP3     H2       HT       0.417000       1.00800           0   0.00000     -0.301140E-02
     47675 TIP3     7587     TIP3     OH2      OT      -0.834000       15.9994           0   0.00000       0.00000    
     47676 TIP3     7587     TIP3     H1       HT       0.417000       1.00800           0   0.00000       0.00000    
     47677 TIP3     7587     TIP3     H2       HT       0.417000       1.00800           0   0.00000     -0.301140E-02
     47678 TIP3     7588     TIP3     OH2      OT      -0.834000       15.9994           0   0.00000       0.00000    
     47679 TIP3     7588     TIP3     H1       HT       0.417000       1.00800           0   0.00000       0.00000    
     47680 TIP3     7588     TIP3     H2       HT       0.417000       1.00800           0   0.00000     -0.301140E-02
     47681 TIP3     7589     TIP3     OH2      OT      -0.834000       15.9994           0   0.00000       0.00000    
     47682 TIP3     7589     TIP3     H1       HT       0.417000       1.00800           0   0.00000       0.00000    
     47683 TIP3     7589     TIP3     H2       HT       0.417000       1.00800           0   0.00000     -0.301140E-02
     47684 TIP3     7590     TIP3     OH2      OT      -0.834000       15.9994           0   0.00000       0.00000    
     47685 TIP3     7590     TIP3     H1       HT       0.417000       1.00800           0   0.00000       0.00000    
     47686 TIP3     7590     TIP3     H2       HT       0.417000       1.00800           0   0.00000     -0.301140E-02
     47687 TIP3     7591     TIP3     OH2      OT      -0.834000       15.9994           0   0.00000       0.00000    
     47688 TIP3     7591     TIP3     H1       HT       0.417000       1.00800           0   0.00000       0.00000    
     47689 TIP3     7591     TIP3     H2       HT       0.417000       1.00800           0   0.00000     -0.301140E-02
     47690 TIP3     7592     TIP3     OH2      OT      -0.834000       15.9994           0   0.00000       0.00000    
     47691 TIP3     7592     TIP3     H1       HT       0.417000       1.00800           0   0.00000       0.00000    
     47692 TIP3     7592     TIP3     H2       HT       0.417000       1.00800           0   0.00000     -0.301140E-02
     47693 TIP3     7593     TIP3     OH2      OT      -0.834000       15.9994           0   0.00000       0.00000    
     47694 TIP3     7593     TIP3     H1       HT       0.417000       1.00800           0   0.00000       0.00000    
     47695 TIP3     7593     TIP3     H2       HT       0.417000       1.00800           0   0.00000     -0.301140E-02
     47696 TIP3     7594     TIP3     OH2      OT      -0.834000       15.9994           0   0.00000       0.00000    
     47697 TIP3     7594     TIP3     H1       HT       0.417000       1.00800           0   0.00000       0.00000    
     47698 TIP3     7594     TIP3     H2       HT       0.417000       1.00800           0   0.00000     -0.301140E-02
     47699 TIP3     7595     TIP3     OH2      OT      -0.834000       15.9994           0   0.00000       0.00000    
     47700 TIP3     7595     TIP3     H1       HT       0.417000       1.00800           0   0.00000       0.00000    
     47701 TIP3     7595     TIP3     H2       HT       0.417000       1.00800           0   0.00000     -0.301140E-02
     47702 TIP3     7596     TIP3     OH2      OT      -0.834000       15.9994           0   0.00000       0.00000    
     47703 TIP3     7596     TIP3     H1       HT       0.417000       1.00800           0   0.00000       0.00000    
     47704 TIP3     7596     TIP3     H2       HT       0.417000       1.00800           0   0.00000     -0.301140E-02
     47705 TIP3     7597     TIP3     OH2      OT      -0.834000       15.9994           0   0.00000       0.00000    
     47706 TIP3     7597     TIP3     H1       HT       0.417000       1.00800           0   0.00000       0.00000    
     47707 TIP3     7597     TIP3     H2       HT       0.417000       1.00800           0   0.00000     -0.301140E-02
     47708 TIP3     7598     TIP3     OH2      OT      -0.834000       15.9994           0   0.00000       0.00000    
     47709 TIP3     7598     TIP3     H1       HT       0.417000       1.00800           0   0.00000       0.00000    
     47710 TIP3     7598     TIP3     H2       HT       0.417000       1.00800           0   0.00000     -0.301140E-02
     47711 TIP3     7599     TIP3     OH2      OT      -0.834000       15.9994           0   0.00000       0.00000    
     47712 TIP3     7599     TIP3     H1       HT       0.417000       1.00800           0   0.00000       0.00000    
     47713 TIP3     7599     TIP3     H2       HT       0.417000       1.00800           0   0.00000     -0.301140E-02
     47714 TIP3     7600     TIP3     OH2      OT      -0.834000       15.9994           0   0.00000       0.00000    
     47715 TIP3     7600     TIP3     H1       HT       0.417000       1.00800           0   0.00000       0.00000    
     47716 TIP3     7600     TIP3     H2       HT       0.417000       1.00800           0   0.00000     -0.301140E-02
     47717 TIP3     7601     TIP3     OH2      OT      -0.834000       15.9994           0   0.00000       0.00000    
     47718 TIP3     7601     TIP3     H1       HT       0.417000       1.00800           0   0.00000       0.00000    
     47719 TIP3     7601     TIP3     H2       HT       0.417000       1.00800           0   0.00000     -0.301140E-02
     47720 TIP3     7602     TIP3     OH2      OT      -0.834000       15.9994           0   0.00000       0.00000    
     47721 TIP3     7602     TIP3     H1       HT       0.417000       1.00800           0   0.00000       0.00000    
     47722 TIP3     7602     TIP3     H2       HT       0.417000       1.00800           0   0.00000     -0.301140E-02
     47723 TIP3     7603     TIP3     OH2      OT      -0.834000       15.9994           0   0.00000       0.00000    
     47724 TIP3     7603     TIP3     H1       HT       0.417000       1.00800           0   0.00000       0.00000    
     47725 TIP3     7603     TIP3     H2       HT       0.417000       1.00800           0   0.00000     -0.301140E-02
     47726 TIP3     7604     TIP3     OH2      OT      -0.834000       15.9994           0   0.00000       0.00000    
     47727 TIP3     7604     TIP3     H1       HT       0.417000       1.00800           0   0.00000       0.00000    
     47728 TIP3     7604     TIP3     H2       HT       0.417000       1.00800           0   0.00000     -0.301140E-02
     47729 TIP3     7605     TIP3     OH2      OT      -0.834000       15.9994           0   0.00000       0.00000    
     47730 TIP3     7605     TIP3     H1       HT       0.417000       1.00800           0   0.00000       0.00000    
     47731 TIP3     7605     TIP3     H2       HT       0.417000       1.00800           0   0.00000     -0.301140E-02
     47732 TIP3     7606     TIP3     OH2      OT      -0.834000       15.9994           0   0.00000       0.00000    
     47733 TIP3     7606     TIP3     H1       HT       0.417000       1.00800           0   0.00000       0.00000    
     47734 TIP3     7606     TIP3     H2       HT       0.417000       1.00800           0   0.00000     -0.301140E-02
     47735 TIP3     7607     TIP3     OH2      OT      -0.834000       15.9994           0   0.00000       0.00000    
     47736 TIP3     7607     TIP3     H1       HT       0.417000       1.00800           0   0.00000       0.00000    
     47737 TIP3     7607     TIP3     H2       HT       0.417000       1.00800           0   0.00000     -0.301140E-02
     47738 TIP3     7608     TIP3     OH2      OT      -0.834000       15.9994           0   0.00000       0.00000    
     47739 TIP3     7608     TIP3     H1       HT       0.417000       1.00800           0   0.00000       0.00000    
     47740 TIP3     7608     TIP3     H2       HT       0.417000       1.00800           0   0.00000     -0.301140E-02
     47741 TIP3     7609     TIP3     OH2      OT      -0.834000       15.9994           0   0.00000       0.00000    
     47742 TIP3     7609     TIP3     H1       HT       0.417000       1.00800           0   0.00000       0.00000    
     47743 TIP3     7609     TIP3     H2       HT       0.417000       1.00800           0   0.00000     -0.301140E-02
     47744 TIP3     7610     TIP3     OH2      OT      -0.834000       15.9994           0   0.00000       0.00000    
     47745 TIP3     7610     TIP3     H1       HT       0.417000       1.00800           0   0.00000       0.00000    
     47746 TIP3     7610     TIP3     H2       HT       0.417000       1.00800           0   0.00000     -0.301140E-02
     47747 TIP3     7611     TIP3     OH2      OT      -0.834000       15.9994           0   0.00000       0.00000    
     47748 TIP3     7611     TIP3     H1       HT       0.417000       1.00800           0   0.00000       0.00000    
     47749 TIP3     7611     TIP3     H2       HT       0.417000       1.00800           0   0.00000     -0.301140E-02
     47750 TIP3     7612     TIP3     OH2      OT      -0.834000       15.9994           0   0.00000       0.00000    
     47751 TIP3     7612     TIP3     H1       HT       0.417000       1.00800           0   0.00000       0.00000    
     47752 TIP3     7612     TIP3     H2       HT       0.417000       1.00800           0   0.00000     -0.301140E-02
     47753 TIP3     7613     TIP3     OH2      OT      -0.834000       15.9994           0   0.00000       0.00000    
     47754 TIP3     7613     TIP3     H1       HT       0.417000       1.00800           0   0.00000       0.00000    
     47755 TIP3     7613     TIP3     H2       HT       0.417000       1.00800           0   0.00000     -0.301140E-02
     47756 TIP3     7614     TIP3     OH2      OT      -0.834000       15.9994           0   0.00000       0.00000    
     47757 TIP3     7614     TIP3     H1       HT       0.417000       1.00800           0   0.00000       0.00000    
     47758 TIP3     7614     TIP3     H2       HT       0.417000       1.00800           0   0.00000     -0.301140E-02
     47759 TIP3     7615     TIP3     OH2      OT      -0.834000       15.9994           0   0.00000       0.00000    
     47760 TIP3     7615     TIP3     H1       HT       0.417000       1.00800           0   0.00000       0.00000    
     47761 TIP3     7615     TIP3     H2       HT       0.417000       1.00800           0   0.00000     -0.301140E-02
     47762 TIP3     7616     TIP3     OH2      OT      -0.834000       15.9994           0   0.00000       0.00000    
     47763 TIP3     7616     TIP3     H1       HT       0.417000       1.00800           0   0.00000       0.00000    
     47764 TIP3     7616     TIP3     H2       HT       0.417000       1.00800           0   0.00000     -0.301140E-02
     47765 TIP3     7617     TIP3     OH2      OT      -0.834000       15.9994           0   0.00000       0.00000    
     47766 TIP3     7617     TIP3     H1       HT       0.417000       1.00800           0   0.00000       0.00000    
     47767 TIP3     7617     TIP3     H2       HT       0.417000       1.00800           0   0.00000     -0.301140E-02
     47768 TIP3     7618     TIP3     OH2      OT      -0.834000       15.9994           0   0.00000       0.00000    
     47769 TIP3     7618     TIP3     H1       HT       0.417000       1.00800           0   0.00000       0.00000    
     47770 TIP3     7618     TIP3     H2       HT       0.417000       1.00800           0   0.00000     -0.301140E-02
     47771 TIP3     7619     TIP3     OH2      OT      -0.834000       15.9994           0   0.00000       0.00000    
     47772 TIP3     7619     TIP3     H1       HT       0.417000       1.00800           0   0.00000       0.00000    
     47773 TIP3     7619     TIP3     H2       HT       0.417000       1.00800           0   0.00000     -0.301140E-02
     47774 TIP3     7620     TIP3     OH2      OT      -0.834000       15.9994           0   0.00000       0.00000    
     47775 TIP3     7620     TIP3     H1       HT       0.417000       1.00800           0   0.00000       0.00000    
     47776 TIP3     7620     TIP3     H2       HT       0.417000       1.00800           0   0.00000     -0.301140E-02
     47777 TIP3     7621     TIP3     OH2      OT      -0.834000       15.9994           0   0.00000       0.00000    
     47778 TIP3     7621     TIP3     H1       HT       0.417000       1.00800           0   0.00000       0.00000    
     47779 TIP3     7621     TIP3     H2       HT       0.417000       1.00800           0   0.00000     -0.301140E-02
     47780 TIP3     7622     TIP3     OH2      OT      -0.834000       15.9994           0   0.00000       0.00000    
     47781 TIP3     7622     TIP3     H1       HT       0.417000       1.00800           0   0.00000       0.00000    
     47782 TIP3     7622     TIP3     H2       HT       0.417000       1.00800           0   0.00000     -0.301140E-02
     47783 TIP3     7623     TIP3     OH2      OT      -0.834000       15.9994           0   0.00000       0.00000    
     47784 TIP3     7623     TIP3     H1       HT       0.417000       1.00800           0   0.00000       0.00000    
     47785 TIP3     7623     TIP3     H2       HT       0.417000       1.00800           0   0.00000     -0.301140E-02
     47786 TIP3     7624     TIP3     OH2      OT      -0.834000       15.9994           0   0.00000       0.00000    
     47787 TIP3     7624     TIP3     H1       HT       0.417000       1.00800           0   0.00000       0.00000    
     47788 TIP3     7624     TIP3     H2       HT       0.417000       1.00800           0   0.00000     -0.301140E-02
     47789 TIP3     7625     TIP3     OH2      OT      -0.834000       15.9994           0   0.00000       0.00000    
     47790 TIP3     7625     TIP3     H1       HT       0.417000       1.00800           0   0.00000       0.00000    
     47791 TIP3     7625     TIP3     H2       HT       0.417000       1.00800           0   0.00000     -0.301140E-02
     47792 TIP3     7626     TIP3     OH2      OT      -0.834000       15.9994           0   0.00000       0.00000    
     47793 TIP3     7626     TIP3     H1       HT       0.417000       1.00800           0   0.00000       0.00000    
     47794 TIP3     7626     TIP3     H2       HT       0.417000       1.00800           0   0.00000     -0.301140E-02
     47795 TIP3     7627     TIP3     OH2      OT      -0.834000       15.9994           0   0.00000       0.00000    
     47796 TIP3     7627     TIP3     H1       HT       0.417000       1.00800           0   0.00000       0.00000    
     47797 TIP3     7627     TIP3     H2       HT       0.417000       1.00800           0   0.00000     -0.301140E-02
     47798 TIP3     7628     TIP3     OH2      OT      -0.834000       15.9994           0   0.00000       0.00000    
     47799 TIP3     7628     TIP3     H1       HT       0.417000       1.00800           0   0.00000       0.00000    
     47800 TIP3     7628     TIP3     H2       HT       0.417000       1.00800           0   0.00000     -0.301140E-02
     47801 TIP3     7629     TIP3     OH2      OT      -0.834000       15.9994           0   0.00000       0.00000    
     47802 TIP3     7629     TIP3     H1       HT       0.417000       1.00800           0   0.00000       0.00000    
     47803 TIP3     7629     TIP3     H2       HT       0.417000       1.00800           0   0.00000     -0.301140E-02
     47804 TIP3     7630     TIP3     OH2      OT      -0.834000       15.9994           0   0.00000       0.00000    
     47805 TIP3     7630     TIP3     H1       HT       0.417000       1.00800           0   0.00000       0.00000    
     47806 TIP3     7630     TIP3     H2       HT       0.417000       1.00800           0   0.00000     -0.301140E-02
     47807 TIP3     7631     TIP3     OH2      OT      -0.834000       15.9994           0   0.00000       0.00000    
     47808 TIP3     7631     TIP3     H1       HT       0.417000       1.00800           0   0.00000       0.00000    
     47809 TIP3     7631     TIP3     H2       HT       0.417000       1.00800           0   0.00000     -0.301140E-02
     47810 TIP3     7632     TIP3     OH2      OT      -0.834000       15.9994           0   0.00000       0.00000    
     47811 TIP3     7632     TIP3     H1       HT       0.417000       1.00800           0   0.00000       0.00000    
     47812 TIP3     7632     TIP3     H2       HT       0.417000       1.00800           0   0.00000     -0.301140E-02
     47813 TIP3     7633     TIP3     OH2      OT      -0.834000       15.9994           0   0.00000       0.00000    
     47814 TIP3     7633     TIP3     H1       HT       0.417000       1.00800           0   0.00000       0.00000    
     47815 TIP3     7633     TIP3     H2       HT       0.417000       1.00800           0   0.00000     -0.301140E-02
     47816 TIP3     7634     TIP3     OH2      OT      -0.834000       15.9994           0   0.00000       0.00000    
     47817 TIP3     7634     TIP3     H1       HT       0.417000       1.00800           0   0.00000       0.00000    
     47818 TIP3     7634     TIP3     H2       HT       0.417000       1.00800           0   0.00000     -0.301140E-02
     47819 TIP3     7635     TIP3     OH2      OT      -0.834000       15.9994           0   0.00000       0.00000    
     47820 TIP3     7635     TIP3     H1       HT       0.417000       1.00800           0   0.00000       0.00000    
     47821 TIP3     7635     TIP3     H2       HT       0.417000       1.00800           0   0.00000     -0.301140E-02
     47822 TIP3     7636     TIP3     OH2      OT      -0.834000       15.9994           0   0.00000       0.00000    
     47823 TIP3     7636     TIP3     H1       HT       0.417000       1.00800           0   0.00000       0.00000    
     47824 TIP3     7636     TIP3     H2       HT       0.417000       1.00800           0   0.00000     -0.301140E-02
     47825 TIP3     7637     TIP3     OH2      OT      -0.834000       15.9994           0   0.00000       0.00000    
     47826 TIP3     7637     TIP3     H1       HT       0.417000       1.00800           0   0.00000       0.00000    
     47827 TIP3     7637     TIP3     H2       HT       0.417000       1.00800           0   0.00000     -0.301140E-02
     47828 TIP3     7638     TIP3     OH2      OT      -0.834000       15.9994           0   0.00000       0.00000    
     47829 TIP3     7638     TIP3     H1       HT       0.417000       1.00800           0   0.00000       0.00000    
     47830 TIP3     7638     TIP3     H2       HT       0.417000       1.00800           0   0.00000     -0.301140E-02
     47831 TIP3     7639     TIP3     OH2      OT      -0.834000       15.9994           0   0.00000       0.00000    
     47832 TIP3     7639     TIP3     H1       HT       0.417000       1.00800           0   0.00000       0.00000    
     47833 TIP3     7639     TIP3     H2       HT       0.417000       1.00800           0   0.00000     -0.301140E-02
     47834 TIP3     7640     TIP3     OH2      OT      -0.834000       15.9994           0   0.00000       0.00000    
     47835 TIP3     7640     TIP3     H1       HT       0.417000       1.00800           0   0.00000       0.00000    
     47836 TIP3     7640     TIP3     H2       HT       0.417000       1.00800           0   0.00000     -0.301140E-02
     47837 TIP3     7641     TIP3     OH2      OT      -0.834000       15.9994           0   0.00000       0.00000    
     47838 TIP3     7641     TIP3     H1       HT       0.417000       1.00800           0   0.00000       0.00000    
     47839 TIP3     7641     TIP3     H2       HT       0.417000       1.00800           0   0.00000     -0.301140E-02
     47840 TIP3     7642     TIP3     OH2      OT      -0.834000       15.9994           0   0.00000       0.00000    
     47841 TIP3     7642     TIP3     H1       HT       0.417000       1.00800           0   0.00000       0.00000    
     47842 TIP3     7642     TIP3     H2       HT       0.417000       1.00800           0   0.00000     -0.301140E-02
     47843 TIP3     7643     TIP3     OH2      OT      -0.834000       15.9994           0   0.00000       0.00000    
     47844 TIP3     7643     TIP3     H1       HT       0.417000       1.00800           0   0.00000       0.00000    
     47845 TIP3     7643     TIP3     H2       HT       0.417000       1.00800           0   0.00000     -0.301140E-02
     47846 TIP3     7644     TIP3     OH2      OT      -0.834000       15.9994           0   0.00000       0.00000    
     47847 TIP3     7644     TIP3     H1       HT       0.417000       1.00800           0   0.00000       0.00000    
     47848 TIP3     7644     TIP3     H2       HT       0.417000       1.00800           0   0.00000     -0.301140E-02
     47849 TIP3     7645     TIP3     OH2      OT      -0.834000       15.9994           0   0.00000       0.00000    
     47850 TIP3     7645     TIP3     H1       HT       0.417000       1.00800           0   0.00000       0.00000    
     47851 TIP3     7645     TIP3     H2       HT       0.417000       1.00800           0   0.00000     -0.301140E-02
     47852 TIP3     7646     TIP3     OH2      OT      -0.834000       15.9994           0   0.00000       0.00000    
     47853 TIP3     7646     TIP3     H1       HT       0.417000       1.00800           0   0.00000       0.00000    
     47854 TIP3     7646     TIP3     H2       HT       0.417000       1.00800           0   0.00000     -0.301140E-02
     47855 TIP3     7647     TIP3     OH2      OT      -0.834000       15.9994           0   0.00000       0.00000    
     47856 TIP3     7647     TIP3     H1       HT       0.417000       1.00800           0   0.00000       0.00000    
     47857 TIP3     7647     TIP3     H2       HT       0.417000       1.00800           0   0.00000     -0.301140E-02
     47858 TIP3     7648     TIP3     OH2      OT      -0.834000       15.9994           0   0.00000       0.00000    
     47859 TIP3     7648     TIP3     H1       HT       0.417000       1.00800           0   0.00000       0.00000    
     47860 TIP3     7648     TIP3     H2       HT       0.417000       1.00800           0   0.00000     -0.301140E-02
     47861 TIP3     7649     TIP3     OH2      OT      -0.834000       15.9994           0   0.00000       0.00000    
     47862 TIP3     7649     TIP3     H1       HT       0.417000       1.00800           0   0.00000       0.00000    
     47863 TIP3     7649     TIP3     H2       HT       0.417000       1.00800           0   0.00000     -0.301140E-02
     47864 TIP3     7650     TIP3     OH2      OT      -0.834000       15.9994           0   0.00000       0.00000    
     47865 TIP3     7650     TIP3     H1       HT       0.417000       1.00800           0   0.00000       0.00000    
     47866 TIP3     7650     TIP3     H2       HT       0.417000       1.00800           0   0.00000     -0.301140E-02
     47867 TIP3     7651     TIP3     OH2      OT      -0.834000       15.9994           0   0.00000       0.00000    
     47868 TIP3     7651     TIP3     H1       HT       0.417000       1.00800           0   0.00000       0.00000    
     47869 TIP3     7651     TIP3     H2       HT       0.417000       1.00800           0   0.00000     -0.301140E-02
     47870 TIP3     7652     TIP3     OH2      OT      -0.834000       15.9994           0   0.00000       0.00000    
     47871 TIP3     7652     TIP3     H1       HT       0.417000       1.00800           0   0.00000       0.00000    
     47872 TIP3     7652     TIP3     H2       HT       0.417000       1.00800           0   0.00000     -0.301140E-02
     47873 TIP3     7653     TIP3     OH2      OT      -0.834000       15.9994           0   0.00000       0.00000    
     47874 TIP3     7653     TIP3     H1       HT       0.417000       1.00800           0   0.00000       0.00000    
     47875 TIP3     7653     TIP3     H2       HT       0.417000       1.00800           0   0.00000     -0.301140E-02
     47876 TIP3     7654     TIP3     OH2      OT      -0.834000       15.9994           0   0.00000       0.00000    
     47877 TIP3     7654     TIP3     H1       HT       0.417000       1.00800           0   0.00000       0.00000    
     47878 TIP3     7654     TIP3     H2       HT       0.417000       1.00800           0   0.00000     -0.301140E-02
     47879 TIP3     7655     TIP3     OH2      OT      -0.834000       15.9994           0   0.00000       0.00000    
     47880 TIP3     7655     TIP3     H1       HT       0.417000       1.00800           0   0.00000       0.00000    
     47881 TIP3     7655     TIP3     H2       HT       0.417000       1.00800           0   0.00000     -0.301140E-02
     47882 TIP3     7656     TIP3     OH2      OT      -0.834000       15.9994           0   0.00000       0.00000    
     47883 TIP3     7656     TIP3     H1       HT       0.417000       1.00800           0   0.00000       0.00000    
     47884 TIP3     7656     TIP3     H2       HT       0.417000       1.00800           0   0.00000     -0.301140E-02
     47885 TIP3     7657     TIP3     OH2      OT      -0.834000       15.9994           0   0.00000       0.00000    
     47886 TIP3     7657     TIP3     H1       HT       0.417000       1.00800           0   0.00000       0.00000    
     47887 TIP3     7657     TIP3     H2       HT       0.417000       1.00800           0   0.00000     -0.301140E-02
     47888 TIP3     7658     TIP3     OH2      OT      -0.834000       15.9994           0   0.00000       0.00000    
     47889 TIP3     7658     TIP3     H1       HT       0.417000       1.00800           0   0.00000       0.00000    
     47890 TIP3     7658     TIP3     H2       HT       0.417000       1.00800           0   0.00000     -0.301140E-02
     47891 TIP3     7659     TIP3     OH2      OT      -0.834000       15.9994           0   0.00000       0.00000    
     47892 TIP3     7659     TIP3     H1       HT       0.417000       1.00800           0   0.00000       0.00000    
     47893 TIP3     7659     TIP3     H2       HT       0.417000       1.00800           0   0.00000     -0.301140E-02
     47894 TIP3     7660     TIP3     OH2      OT      -0.834000       15.9994           0   0.00000       0.00000    
     47895 TIP3     7660     TIP3     H1       HT       0.417000       1.00800           0   0.00000       0.00000    
     47896 TIP3     7660     TIP3     H2       HT       0.417000       1.00800           0   0.00000     -0.301140E-02
     47897 TIP3     7661     TIP3     OH2      OT      -0.834000       15.9994           0   0.00000       0.00000    
     47898 TIP3     7661     TIP3     H1       HT       0.417000       1.00800           0   0.00000       0.00000    
     47899 TIP3     7661     TIP3     H2       HT       0.417000       1.00800           0   0.00000     -0.301140E-02
     47900 TIP3     7662     TIP3     OH2      OT      -0.834000       15.9994           0   0.00000       0.00000    
     47901 TIP3     7662     TIP3     H1       HT       0.417000       1.00800           0   0.00000       0.00000    
     47902 TIP3     7662     TIP3     H2       HT       0.417000       1.00800           0   0.00000     -0.301140E-02
     47903 TIP3     7663     TIP3     OH2      OT      -0.834000       15.9994           0   0.00000       0.00000    
     47904 TIP3     7663     TIP3     H1       HT       0.417000       1.00800           0   0.00000       0.00000    
     47905 TIP3     7663     TIP3     H2       HT       0.417000       1.00800           0   0.00000     -0.301140E-02
     47906 TIP3     7664     TIP3     OH2      OT      -0.834000       15.9994           0   0.00000       0.00000    
     47907 TIP3     7664     TIP3     H1       HT       0.417000       1.00800           0   0.00000       0.00000    
     47908 TIP3     7664     TIP3     H2       HT       0.417000       1.00800           0   0.00000     -0.301140E-02
     47909 TIP3     7665     TIP3     OH2      OT      -0.834000       15.9994           0   0.00000       0.00000    
     47910 TIP3     7665     TIP3     H1       HT       0.417000       1.00800           0   0.00000       0.00000    
     47911 TIP3     7665     TIP3     H2       HT       0.417000       1.00800           0   0.00000     -0.301140E-02
     47912 TIP3     7666     TIP3     OH2      OT      -0.834000       15.9994           0   0.00000       0.00000    
     47913 TIP3     7666     TIP3     H1       HT       0.417000       1.00800           0   0.00000       0.00000    
     47914 TIP3     7666     TIP3     H2       HT       0.417000       1.00800           0   0.00000     -0.301140E-02
     47915 TIP3     7667     TIP3     OH2      OT      -0.834000       15.9994           0   0.00000       0.00000    
     47916 TIP3     7667     TIP3     H1       HT       0.417000       1.00800           0   0.00000       0.00000    
     47917 TIP3     7667     TIP3     H2       HT       0.417000       1.00800           0   0.00000     -0.301140E-02
     47918 TIP3     7668     TIP3     OH2      OT      -0.834000       15.9994           0   0.00000       0.00000    
     47919 TIP3     7668     TIP3     H1       HT       0.417000       1.00800           0   0.00000       0.00000    
     47920 TIP3     7668     TIP3     H2       HT       0.417000       1.00800           0   0.00000     -0.301140E-02
     47921 TIP3     7669     TIP3     OH2      OT      -0.834000       15.9994           0   0.00000       0.00000    
     47922 TIP3     7669     TIP3     H1       HT       0.417000       1.00800           0   0.00000       0.00000    
     47923 TIP3     7669     TIP3     H2       HT       0.417000       1.00800           0   0.00000     -0.301140E-02
     47924 TIP3     7670     TIP3     OH2      OT      -0.834000       15.9994           0   0.00000       0.00000    
     47925 TIP3     7670     TIP3     H1       HT       0.417000       1.00800           0   0.00000       0.00000    
     47926 TIP3     7670     TIP3     H2       HT       0.417000       1.00800           0   0.00000     -0.301140E-02
     47927 TIP3     7671     TIP3     OH2      OT      -0.834000       15.9994           0   0.00000       0.00000    
     47928 TIP3     7671     TIP3     H1       HT       0.417000       1.00800           0   0.00000       0.00000    
     47929 TIP3     7671     TIP3     H2       HT       0.417000       1.00800           0   0.00000     -0.301140E-02
     47930 TIP3     7672     TIP3     OH2      OT      -0.834000       15.9994           0   0.00000       0.00000    
     47931 TIP3     7672     TIP3     H1       HT       0.417000       1.00800           0   0.00000       0.00000    
     47932 TIP3     7672     TIP3     H2       HT       0.417000       1.00800           0   0.00000     -0.301140E-02
     47933 TIP3     7673     TIP3     OH2      OT      -0.834000       15.9994           0   0.00000       0.00000    
     47934 TIP3     7673     TIP3     H1       HT       0.417000       1.00800           0   0.00000       0.00000    
     47935 TIP3     7673     TIP3     H2       HT       0.417000       1.00800           0   0.00000     -0.301140E-02
     47936 TIP3     7674     TIP3     OH2      OT      -0.834000       15.9994           0   0.00000       0.00000    
     47937 TIP3     7674     TIP3     H1       HT       0.417000       1.00800           0   0.00000       0.00000    
     47938 TIP3     7674     TIP3     H2       HT       0.417000       1.00800           0   0.00000     -0.301140E-02
     47939 TIP3     7675     TIP3     OH2      OT      -0.834000       15.9994           0   0.00000       0.00000    
     47940 TIP3     7675     TIP3     H1       HT       0.417000       1.00800           0   0.00000       0.00000    
     47941 TIP3     7675     TIP3     H2       HT       0.417000       1.00800           0   0.00000     -0.301140E-02
     47942 TIP3     7676     TIP3     OH2      OT      -0.834000       15.9994           0   0.00000       0.00000    
     47943 TIP3     7676     TIP3     H1       HT       0.417000       1.00800           0   0.00000       0.00000    
     47944 TIP3     7676     TIP3     H2       HT       0.417000       1.00800           0   0.00000     -0.301140E-02
     47945 TIP3     7677     TIP3     OH2      OT      -0.834000       15.9994           0   0.00000       0.00000    
     47946 TIP3     7677     TIP3     H1       HT       0.417000       1.00800           0   0.00000       0.00000    
     47947 TIP3     7677     TIP3     H2       HT       0.417000       1.00800           0   0.00000     -0.301140E-02
     47948 TIP3     7678     TIP3     OH2      OT      -0.834000       15.9994           0   0.00000       0.00000    
     47949 TIP3     7678     TIP3     H1       HT       0.417000       1.00800           0   0.00000       0.00000    
     47950 TIP3     7678     TIP3     H2       HT       0.417000       1.00800           0   0.00000     -0.301140E-02
     47951 TIP3     7679     TIP3     OH2      OT      -0.834000       15.9994           0   0.00000       0.00000    
     47952 TIP3     7679     TIP3     H1       HT       0.417000       1.00800           0   0.00000       0.00000    
     47953 TIP3     7679     TIP3     H2       HT       0.417000       1.00800           0   0.00000     -0.301140E-02
     47954 TIP3     7680     TIP3     OH2      OT      -0.834000       15.9994           0   0.00000       0.00000    
     47955 TIP3     7680     TIP3     H1       HT       0.417000       1.00800           0   0.00000       0.00000    
     47956 TIP3     7680     TIP3     H2       HT       0.417000       1.00800           0   0.00000     -0.301140E-02
     47957 TIP3     7681     TIP3     OH2      OT      -0.834000       15.9994           0   0.00000       0.00000    
     47958 TIP3     7681     TIP3     H1       HT       0.417000       1.00800           0   0.00000       0.00000    
     47959 TIP3     7681     TIP3     H2       HT       0.417000       1.00800           0   0.00000     -0.301140E-02
     47960 TIP3     7682     TIP3     OH2      OT      -0.834000       15.9994           0   0.00000       0.00000    
     47961 TIP3     7682     TIP3     H1       HT       0.417000       1.00800           0   0.00000       0.00000    
     47962 TIP3     7682     TIP3     H2       HT       0.417000       1.00800           0   0.00000     -0.301140E-02
     47963 TIP3     7683     TIP3     OH2      OT      -0.834000       15.9994           0   0.00000       0.00000    
     47964 TIP3     7683     TIP3     H1       HT       0.417000       1.00800           0   0.00000       0.00000    
     47965 TIP3     7683     TIP3     H2       HT       0.417000       1.00800           0   0.00000     -0.301140E-02
     47966 TIP3     7684     TIP3     OH2      OT      -0.834000       15.9994           0   0.00000       0.00000    
     47967 TIP3     7684     TIP3     H1       HT       0.417000       1.00800           0   0.00000       0.00000    
     47968 TIP3     7684     TIP3     H2       HT       0.417000       1.00800           0   0.00000     -0.301140E-02
     47969 TIP3     7685     TIP3     OH2      OT      -0.834000       15.9994           0   0.00000       0.00000    
     47970 TIP3     7685     TIP3     H1       HT       0.417000       1.00800           0   0.00000       0.00000    
     47971 TIP3     7685     TIP3     H2       HT       0.417000       1.00800           0   0.00000     -0.301140E-02
     47972 TIP3     7686     TIP3     OH2      OT      -0.834000       15.9994           0   0.00000       0.00000    
     47973 TIP3     7686     TIP3     H1       HT       0.417000       1.00800           0   0.00000       0.00000    
     47974 TIP3     7686     TIP3     H2       HT       0.417000       1.00800           0   0.00000     -0.301140E-02
     47975 TIP3     7687     TIP3     OH2      OT      -0.834000       15.9994           0   0.00000       0.00000    
     47976 TIP3     7687     TIP3     H1       HT       0.417000       1.00800           0   0.00000       0.00000    
     47977 TIP3     7687     TIP3     H2       HT       0.417000       1.00800           0   0.00000     -0.301140E-02
     47978 TIP3     7688     TIP3     OH2      OT      -0.834000       15.9994           0   0.00000       0.00000    
     47979 TIP3     7688     TIP3     H1       HT       0.417000       1.00800           0   0.00000       0.00000    
     47980 TIP3     7688     TIP3     H2       HT       0.417000       1.00800           0   0.00000     -0.301140E-02
     47981 TIP3     7689     TIP3     OH2      OT      -0.834000       15.9994           0   0.00000       0.00000    
     47982 TIP3     7689     TIP3     H1       HT       0.417000       1.00800           0   0.00000       0.00000    
     47983 TIP3     7689     TIP3     H2       HT       0.417000       1.00800           0   0.00000     -0.301140E-02
     47984 TIP3     7690     TIP3     OH2      OT      -0.834000       15.9994           0   0.00000       0.00000    
     47985 TIP3     7690     TIP3     H1       HT       0.417000       1.00800           0   0.00000       0.00000    
     47986 TIP3     7690     TIP3     H2       HT       0.417000       1.00800           0   0.00000     -0.301140E-02
     47987 TIP3     7691     TIP3     OH2      OT      -0.834000       15.9994           0   0.00000       0.00000    
     47988 TIP3     7691     TIP3     H1       HT       0.417000       1.00800           0   0.00000       0.00000    
     47989 TIP3     7691     TIP3     H2       HT       0.417000       1.00800           0   0.00000     -0.301140E-02
     47990 TIP3     7692     TIP3     OH2      OT      -0.834000       15.9994           0   0.00000       0.00000    
     47991 TIP3     7692     TIP3     H1       HT       0.417000       1.00800           0   0.00000       0.00000    
     47992 TIP3     7692     TIP3     H2       HT       0.417000       1.00800           0   0.00000     -0.301140E-02
     47993 TIP3     7693     TIP3     OH2      OT      -0.834000       15.9994           0   0.00000       0.00000    
     47994 TIP3     7693     TIP3     H1       HT       0.417000       1.00800           0   0.00000       0.00000    
     47995 TIP3     7693     TIP3     H2       HT       0.417000       1.00800           0   0.00000     -0.301140E-02
     47996 TIP3     7694     TIP3     OH2      OT      -0.834000       15.9994           0   0.00000       0.00000    
     47997 TIP3     7694     TIP3     H1       HT       0.417000       1.00800           0   0.00000       0.00000    
     47998 TIP3     7694     TIP3     H2       HT       0.417000       1.00800           0   0.00000     -0.301140E-02
     47999 TIP3     7695     TIP3     OH2      OT      -0.834000       15.9994           0   0.00000       0.00000    
     48000 TIP3     7695     TIP3     H1       HT       0.417000       1.00800           0   0.00000       0.00000    
     48001 TIP3     7695     TIP3     H2       HT       0.417000       1.00800           0   0.00000     -0.301140E-02
     48002 TIP3     7696     TIP3     OH2      OT      -0.834000       15.9994           0   0.00000       0.00000    
     48003 TIP3     7696     TIP3     H1       HT       0.417000       1.00800           0   0.00000       0.00000    
     48004 TIP3     7696     TIP3     H2       HT       0.417000       1.00800           0   0.00000     -0.301140E-02
     48005 TIP3     7697     TIP3     OH2      OT      -0.834000       15.9994           0   0.00000       0.00000    
     48006 TIP3     7697     TIP3     H1       HT       0.417000       1.00800           0   0.00000       0.00000    
     48007 TIP3     7697     TIP3     H2       HT       0.417000       1.00800           0   0.00000     -0.301140E-02
     48008 TIP3     7698     TIP3     OH2      OT      -0.834000       15.9994           0   0.00000       0.00000    
     48009 TIP3     7698     TIP3     H1       HT       0.417000       1.00800           0   0.00000       0.00000    
     48010 TIP3     7698     TIP3     H2       HT       0.417000       1.00800           0   0.00000     -0.301140E-02
     48011 TIP3     7699     TIP3     OH2      OT      -0.834000       15.9994           0   0.00000       0.00000    
     48012 TIP3     7699     TIP3     H1       HT       0.417000       1.00800           0   0.00000       0.00000    
     48013 TIP3     7699     TIP3     H2       HT       0.417000       1.00800           0   0.00000     -0.301140E-02
     48014 TIP3     7700     TIP3     OH2      OT      -0.834000       15.9994           0   0.00000       0.00000    
     48015 TIP3     7700     TIP3     H1       HT       0.417000       1.00800           0   0.00000       0.00000    
     48016 TIP3     7700     TIP3     H2       HT       0.417000       1.00800           0   0.00000     -0.301140E-02
     48017 TIP3     7701     TIP3     OH2      OT      -0.834000       15.9994           0   0.00000       0.00000    
     48018 TIP3     7701     TIP3     H1       HT       0.417000       1.00800           0   0.00000       0.00000    
     48019 TIP3     7701     TIP3     H2       HT       0.417000       1.00800           0   0.00000     -0.301140E-02
     48020 TIP3     7702     TIP3     OH2      OT      -0.834000       15.9994           0   0.00000       0.00000    
     48021 TIP3     7702     TIP3     H1       HT       0.417000       1.00800           0   0.00000       0.00000    
     48022 TIP3     7702     TIP3     H2       HT       0.417000       1.00800           0   0.00000     -0.301140E-02
     48023 TIP3     7703     TIP3     OH2      OT      -0.834000       15.9994           0   0.00000       0.00000    
     48024 TIP3     7703     TIP3     H1       HT       0.417000       1.00800           0   0.00000       0.00000    
     48025 TIP3     7703     TIP3     H2       HT       0.417000       1.00800           0   0.00000     -0.301140E-02
     48026 TIP3     7704     TIP3     OH2      OT      -0.834000       15.9994           0   0.00000       0.00000    
     48027 TIP3     7704     TIP3     H1       HT       0.417000       1.00800           0   0.00000       0.00000    
     48028 TIP3     7704     TIP3     H2       HT       0.417000       1.00800           0   0.00000     -0.301140E-02
     48029 TIP3     7705     TIP3     OH2      OT      -0.834000       15.9994           0   0.00000       0.00000    
     48030 TIP3     7705     TIP3     H1       HT       0.417000       1.00800           0   0.00000       0.00000    
     48031 TIP3     7705     TIP3     H2       HT       0.417000       1.00800           0   0.00000     -0.301140E-02
     48032 TIP3     7706     TIP3     OH2      OT      -0.834000       15.9994           0   0.00000       0.00000    
     48033 TIP3     7706     TIP3     H1       HT       0.417000       1.00800           0   0.00000       0.00000    
     48034 TIP3     7706     TIP3     H2       HT       0.417000       1.00800           0   0.00000     -0.301140E-02
     48035 TIP3     7707     TIP3     OH2      OT      -0.834000       15.9994           0   0.00000       0.00000    
     48036 TIP3     7707     TIP3     H1       HT       0.417000       1.00800           0   0.00000       0.00000    
     48037 TIP3     7707     TIP3     H2       HT       0.417000       1.00800           0   0.00000     -0.301140E-02
     48038 TIP3     7708     TIP3     OH2      OT      -0.834000       15.9994           0   0.00000       0.00000    
     48039 TIP3     7708     TIP3     H1       HT       0.417000       1.00800           0   0.00000       0.00000    
     48040 TIP3     7708     TIP3     H2       HT       0.417000       1.00800           0   0.00000     -0.301140E-02
     48041 TIP3     7709     TIP3     OH2      OT      -0.834000       15.9994           0   0.00000       0.00000    
     48042 TIP3     7709     TIP3     H1       HT       0.417000       1.00800           0   0.00000       0.00000    
     48043 TIP3     7709     TIP3     H2       HT       0.417000       1.00800           0   0.00000     -0.301140E-02
     48044 TIP3     7710     TIP3     OH2      OT      -0.834000       15.9994           0   0.00000       0.00000    
     48045 TIP3     7710     TIP3     H1       HT       0.417000       1.00800           0   0.00000       0.00000    
     48046 TIP3     7710     TIP3     H2       HT       0.417000       1.00800           0   0.00000     -0.301140E-02
     48047 TIP3     7711     TIP3     OH2      OT      -0.834000       15.9994           0   0.00000       0.00000    
     48048 TIP3     7711     TIP3     H1       HT       0.417000       1.00800           0   0.00000       0.00000    
     48049 TIP3     7711     TIP3     H2       HT       0.417000       1.00800           0   0.00000     -0.301140E-02
     48050 TIP3     7712     TIP3     OH2      OT      -0.834000       15.9994           0   0.00000       0.00000    
     48051 TIP3     7712     TIP3     H1       HT       0.417000       1.00800           0   0.00000       0.00000    
     48052 TIP3     7712     TIP3     H2       HT       0.417000       1.00800           0   0.00000     -0.301140E-02
     48053 TIP3     7713     TIP3     OH2      OT      -0.834000       15.9994           0   0.00000       0.00000    
     48054 TIP3     7713     TIP3     H1       HT       0.417000       1.00800           0   0.00000       0.00000    
     48055 TIP3     7713     TIP3     H2       HT       0.417000       1.00800           0   0.00000     -0.301140E-02
     48056 TIP3     7714     TIP3     OH2      OT      -0.834000       15.9994           0   0.00000       0.00000    
     48057 TIP3     7714     TIP3     H1       HT       0.417000       1.00800           0   0.00000       0.00000    
     48058 TIP3     7714     TIP3     H2       HT       0.417000       1.00800           0   0.00000     -0.301140E-02
     48059 TIP3     7715     TIP3     OH2      OT      -0.834000       15.9994           0   0.00000       0.00000    
     48060 TIP3     7715     TIP3     H1       HT       0.417000       1.00800           0   0.00000       0.00000    
     48061 TIP3     7715     TIP3     H2       HT       0.417000       1.00800           0   0.00000     -0.301140E-02
     48062 TIP3     7716     TIP3     OH2      OT      -0.834000       15.9994           0   0.00000       0.00000    
     48063 TIP3     7716     TIP3     H1       HT       0.417000       1.00800           0   0.00000       0.00000    
     48064 TIP3     7716     TIP3     H2       HT       0.417000       1.00800           0   0.00000     -0.301140E-02
     48065 TIP3     7717     TIP3     OH2      OT      -0.834000       15.9994           0   0.00000       0.00000    
     48066 TIP3     7717     TIP3     H1       HT       0.417000       1.00800           0   0.00000       0.00000    
     48067 TIP3     7717     TIP3     H2       HT       0.417000       1.00800           0   0.00000     -0.301140E-02
     48068 TIP3     7718     TIP3     OH2      OT      -0.834000       15.9994           0   0.00000       0.00000    
     48069 TIP3     7718     TIP3     H1       HT       0.417000       1.00800           0   0.00000       0.00000    
     48070 TIP3     7718     TIP3     H2       HT       0.417000       1.00800           0   0.00000     -0.301140E-02
     48071 TIP3     7719     TIP3     OH2      OT      -0.834000       15.9994           0   0.00000       0.00000    
     48072 TIP3     7719     TIP3     H1       HT       0.417000       1.00800           0   0.00000       0.00000    
     48073 TIP3     7719     TIP3     H2       HT       0.417000       1.00800           0   0.00000     -0.301140E-02
     48074 TIP3     7720     TIP3     OH2      OT      -0.834000       15.9994           0   0.00000       0.00000    
     48075 TIP3     7720     TIP3     H1       HT       0.417000       1.00800           0   0.00000       0.00000    
     48076 TIP3     7720     TIP3     H2       HT       0.417000       1.00800           0   0.00000     -0.301140E-02
     48077 TIP3     7721     TIP3     OH2      OT      -0.834000       15.9994           0   0.00000       0.00000    
     48078 TIP3     7721     TIP3     H1       HT       0.417000       1.00800           0   0.00000       0.00000    
     48079 TIP3     7721     TIP3     H2       HT       0.417000       1.00800           0   0.00000     -0.301140E-02
     48080 TIP3     7722     TIP3     OH2      OT      -0.834000       15.9994           0   0.00000       0.00000    
     48081 TIP3     7722     TIP3     H1       HT       0.417000       1.00800           0   0.00000       0.00000    
     48082 TIP3     7722     TIP3     H2       HT       0.417000       1.00800           0   0.00000     -0.301140E-02
     48083 TIP3     7723     TIP3     OH2      OT      -0.834000       15.9994           0   0.00000       0.00000    
     48084 TIP3     7723     TIP3     H1       HT       0.417000       1.00800           0   0.00000       0.00000    
     48085 TIP3     7723     TIP3     H2       HT       0.417000       1.00800           0   0.00000     -0.301140E-02
     48086 TIP3     7724     TIP3     OH2      OT      -0.834000       15.9994           0   0.00000       0.00000    
     48087 TIP3     7724     TIP3     H1       HT       0.417000       1.00800           0   0.00000       0.00000    
     48088 TIP3     7724     TIP3     H2       HT       0.417000       1.00800           0   0.00000     -0.301140E-02
     48089 TIP3     7725     TIP3     OH2      OT      -0.834000       15.9994           0   0.00000       0.00000    
     48090 TIP3     7725     TIP3     H1       HT       0.417000       1.00800           0   0.00000       0.00000    
     48091 TIP3     7725     TIP3     H2       HT       0.417000       1.00800           0   0.00000     -0.301140E-02
     48092 TIP3     7726     TIP3     OH2      OT      -0.834000       15.9994           0   0.00000       0.00000    
     48093 TIP3     7726     TIP3     H1       HT       0.417000       1.00800           0   0.00000       0.00000    
     48094 TIP3     7726     TIP3     H2       HT       0.417000       1.00800           0   0.00000     -0.301140E-02
     48095 TIP3     7727     TIP3     OH2      OT      -0.834000       15.9994           0   0.00000       0.00000    
     48096 TIP3     7727     TIP3     H1       HT       0.417000       1.00800           0   0.00000       0.00000    
     48097 TIP3     7727     TIP3     H2       HT       0.417000       1.00800           0   0.00000     -0.301140E-02
     48098 TIP3     7728     TIP3     OH2      OT      -0.834000       15.9994           0   0.00000       0.00000    
     48099 TIP3     7728     TIP3     H1       HT       0.417000       1.00800           0   0.00000       0.00000    
     48100 TIP3     7728     TIP3     H2       HT       0.417000       1.00800           0   0.00000     -0.301140E-02
     48101 TIP3     7729     TIP3     OH2      OT      -0.834000       15.9994           0   0.00000       0.00000    
     48102 TIP3     7729     TIP3     H1       HT       0.417000       1.00800           0   0.00000       0.00000    
     48103 TIP3     7729     TIP3     H2       HT       0.417000       1.00800           0   0.00000     -0.301140E-02
     48104 TIP3     7730     TIP3     OH2      OT      -0.834000       15.9994           0   0.00000       0.00000    
     48105 TIP3     7730     TIP3     H1       HT       0.417000       1.00800           0   0.00000       0.00000    
     48106 TIP3     7730     TIP3     H2       HT       0.417000       1.00800           0   0.00000     -0.301140E-02
     48107 TIP3     7731     TIP3     OH2      OT      -0.834000       15.9994           0   0.00000       0.00000    
     48108 TIP3     7731     TIP3     H1       HT       0.417000       1.00800           0   0.00000       0.00000    
     48109 TIP3     7731     TIP3     H2       HT       0.417000       1.00800           0   0.00000     -0.301140E-02
     48110 TIP3     7732     TIP3     OH2      OT      -0.834000       15.9994           0   0.00000       0.00000    
     48111 TIP3     7732     TIP3     H1       HT       0.417000       1.00800           0   0.00000       0.00000    
     48112 TIP3     7732     TIP3     H2       HT       0.417000       1.00800           0   0.00000     -0.301140E-02
     48113 TIP3     7733     TIP3     OH2      OT      -0.834000       15.9994           0   0.00000       0.00000    
     48114 TIP3     7733     TIP3     H1       HT       0.417000       1.00800           0   0.00000       0.00000    
     48115 TIP3     7733     TIP3     H2       HT       0.417000       1.00800           0   0.00000     -0.301140E-02
     48116 TIP3     7734     TIP3     OH2      OT      -0.834000       15.9994           0   0.00000       0.00000    
     48117 TIP3     7734     TIP3     H1       HT       0.417000       1.00800           0   0.00000       0.00000    
     48118 TIP3     7734     TIP3     H2       HT       0.417000       1.00800           0   0.00000     -0.301140E-02
     48119 TIP3     7735     TIP3     OH2      OT      -0.834000       15.9994           0   0.00000       0.00000    
     48120 TIP3     7735     TIP3     H1       HT       0.417000       1.00800           0   0.00000       0.00000    
     48121 TIP3     7735     TIP3     H2       HT       0.417000       1.00800           0   0.00000     -0.301140E-02
     48122 TIP3     7736     TIP3     OH2      OT      -0.834000       15.9994           0   0.00000       0.00000    
     48123 TIP3     7736     TIP3     H1       HT       0.417000       1.00800           0   0.00000       0.00000    
     48124 TIP3     7736     TIP3     H2       HT       0.417000       1.00800           0   0.00000     -0.301140E-02
     48125 TIP3     7737     TIP3     OH2      OT      -0.834000       15.9994           0   0.00000       0.00000    
     48126 TIP3     7737     TIP3     H1       HT       0.417000       1.00800           0   0.00000       0.00000    
     48127 TIP3     7737     TIP3     H2       HT       0.417000       1.00800           0   0.00000     -0.301140E-02
     48128 TIP3     7738     TIP3     OH2      OT      -0.834000       15.9994           0   0.00000       0.00000    
     48129 TIP3     7738     TIP3     H1       HT       0.417000       1.00800           0   0.00000       0.00000    
     48130 TIP3     7738     TIP3     H2       HT       0.417000       1.00800           0   0.00000     -0.301140E-02
     48131 TIP3     7739     TIP3     OH2      OT      -0.834000       15.9994           0   0.00000       0.00000    
     48132 TIP3     7739     TIP3     H1       HT       0.417000       1.00800           0   0.00000       0.00000    
     48133 TIP3     7739     TIP3     H2       HT       0.417000       1.00800           0   0.00000     -0.301140E-02
     48134 TIP3     7740     TIP3     OH2      OT      -0.834000       15.9994           0   0.00000       0.00000    
     48135 TIP3     7740     TIP3     H1       HT       0.417000       1.00800           0   0.00000       0.00000    
     48136 TIP3     7740     TIP3     H2       HT       0.417000       1.00800           0   0.00000     -0.301140E-02
     48137 TIP3     7741     TIP3     OH2      OT      -0.834000       15.9994           0   0.00000       0.00000    
     48138 TIP3     7741     TIP3     H1       HT       0.417000       1.00800           0   0.00000       0.00000    
     48139 TIP3     7741     TIP3     H2       HT       0.417000       1.00800           0   0.00000     -0.301140E-02
     48140 TIP3     7742     TIP3     OH2      OT      -0.834000       15.9994           0   0.00000       0.00000    
     48141 TIP3     7742     TIP3     H1       HT       0.417000       1.00800           0   0.00000       0.00000    
     48142 TIP3     7742     TIP3     H2       HT       0.417000       1.00800           0   0.00000     -0.301140E-02
     48143 TIP3     7743     TIP3     OH2      OT      -0.834000       15.9994           0   0.00000       0.00000    
     48144 TIP3     7743     TIP3     H1       HT       0.417000       1.00800           0   0.00000       0.00000    
     48145 TIP3     7743     TIP3     H2       HT       0.417000       1.00800           0   0.00000     -0.301140E-02
     48146 TIP3     7744     TIP3     OH2      OT      -0.834000       15.9994           0   0.00000       0.00000    
     48147 TIP3     7744     TIP3     H1       HT       0.417000       1.00800           0   0.00000       0.00000    
     48148 TIP3     7744     TIP3     H2       HT       0.417000       1.00800           0   0.00000     -0.301140E-02
     48149 TIP3     7745     TIP3     OH2      OT      -0.834000       15.9994           0   0.00000       0.00000    
     48150 TIP3     7745     TIP3     H1       HT       0.417000       1.00800           0   0.00000       0.00000    
     48151 TIP3     7745     TIP3     H2       HT       0.417000       1.00800           0   0.00000     -0.301140E-02
     48152 TIP3     7746     TIP3     OH2      OT      -0.834000       15.9994           0   0.00000       0.00000    
     48153 TIP3     7746     TIP3     H1       HT       0.417000       1.00800           0   0.00000       0.00000    
     48154 TIP3     7746     TIP3     H2       HT       0.417000       1.00800           0   0.00000     -0.301140E-02
     48155 TIP3     7747     TIP3     OH2      OT      -0.834000       15.9994           0   0.00000       0.00000    
     48156 TIP3     7747     TIP3     H1       HT       0.417000       1.00800           0   0.00000       0.00000    
     48157 TIP3     7747     TIP3     H2       HT       0.417000       1.00800           0   0.00000     -0.301140E-02
     48158 TIP3     7748     TIP3     OH2      OT      -0.834000       15.9994           0   0.00000       0.00000    
     48159 TIP3     7748     TIP3     H1       HT       0.417000       1.00800           0   0.00000       0.00000    
     48160 TIP3     7748     TIP3     H2       HT       0.417000       1.00800           0   0.00000     -0.301140E-02
     48161 TIP3     7749     TIP3     OH2      OT      -0.834000       15.9994           0   0.00000       0.00000    
     48162 TIP3     7749     TIP3     H1       HT       0.417000       1.00800           0   0.00000       0.00000    
     48163 TIP3     7749     TIP3     H2       HT       0.417000       1.00800           0   0.00000     -0.301140E-02
     48164 TIP3     7750     TIP3     OH2      OT      -0.834000       15.9994           0   0.00000       0.00000    
     48165 TIP3     7750     TIP3     H1       HT       0.417000       1.00800           0   0.00000       0.00000    
     48166 TIP3     7750     TIP3     H2       HT       0.417000       1.00800           0   0.00000     -0.301140E-02
     48167 TIP3     7751     TIP3     OH2      OT      -0.834000       15.9994           0   0.00000       0.00000    
     48168 TIP3     7751     TIP3     H1       HT       0.417000       1.00800           0   0.00000       0.00000    
     48169 TIP3     7751     TIP3     H2       HT       0.417000       1.00800           0   0.00000     -0.301140E-02
     48170 TIP3     7752     TIP3     OH2      OT      -0.834000       15.9994           0   0.00000       0.00000    
     48171 TIP3     7752     TIP3     H1       HT       0.417000       1.00800           0   0.00000       0.00000    
     48172 TIP3     7752     TIP3     H2       HT       0.417000       1.00800           0   0.00000     -0.301140E-02
     48173 TIP3     7753     TIP3     OH2      OT      -0.834000       15.9994           0   0.00000       0.00000    
     48174 TIP3     7753     TIP3     H1       HT       0.417000       1.00800           0   0.00000       0.00000    
     48175 TIP3     7753     TIP3     H2       HT       0.417000       1.00800           0   0.00000     -0.301140E-02
     48176 TIP3     7754     TIP3     OH2      OT      -0.834000       15.9994           0   0.00000       0.00000    
     48177 TIP3     7754     TIP3     H1       HT       0.417000       1.00800           0   0.00000       0.00000    
     48178 TIP3     7754     TIP3     H2       HT       0.417000       1.00800           0   0.00000     -0.301140E-02
     48179 TIP3     7755     TIP3     OH2      OT      -0.834000       15.9994           0   0.00000       0.00000    
     48180 TIP3     7755     TIP3     H1       HT       0.417000       1.00800           0   0.00000       0.00000    
     48181 TIP3     7755     TIP3     H2       HT       0.417000       1.00800           0   0.00000     -0.301140E-02
     48182 TIP3     7756     TIP3     OH2      OT      -0.834000       15.9994           0   0.00000       0.00000    
     48183 TIP3     7756     TIP3     H1       HT       0.417000       1.00800           0   0.00000       0.00000    
     48184 TIP3     7756     TIP3     H2       HT       0.417000       1.00800           0   0.00000     -0.301140E-02
     48185 TIP3     7757     TIP3     OH2      OT      -0.834000       15.9994           0   0.00000       0.00000    
     48186 TIP3     7757     TIP3     H1       HT       0.417000       1.00800           0   0.00000       0.00000    
     48187 TIP3     7757     TIP3     H2       HT       0.417000       1.00800           0   0.00000     -0.301140E-02
     48188 TIP3     7758     TIP3     OH2      OT      -0.834000       15.9994           0   0.00000       0.00000    
     48189 TIP3     7758     TIP3     H1       HT       0.417000       1.00800           0   0.00000       0.00000    
     48190 TIP3     7758     TIP3     H2       HT       0.417000       1.00800           0   0.00000     -0.301140E-02
     48191 TIP3     7759     TIP3     OH2      OT      -0.834000       15.9994           0   0.00000       0.00000    
     48192 TIP3     7759     TIP3     H1       HT       0.417000       1.00800           0   0.00000       0.00000    
     48193 TIP3     7759     TIP3     H2       HT       0.417000       1.00800           0   0.00000     -0.301140E-02
     48194 TIP3     7760     TIP3     OH2      OT      -0.834000       15.9994           0   0.00000       0.00000    
     48195 TIP3     7760     TIP3     H1       HT       0.417000       1.00800           0   0.00000       0.00000    
     48196 TIP3     7760     TIP3     H2       HT       0.417000       1.00800           0   0.00000     -0.301140E-02
     48197 TIP3     7761     TIP3     OH2      OT      -0.834000       15.9994           0   0.00000       0.00000    
     48198 TIP3     7761     TIP3     H1       HT       0.417000       1.00800           0   0.00000       0.00000    
     48199 TIP3     7761     TIP3     H2       HT       0.417000       1.00800           0   0.00000     -0.301140E-02
     48200 TIP3     7762     TIP3     OH2      OT      -0.834000       15.9994           0   0.00000       0.00000    
     48201 TIP3     7762     TIP3     H1       HT       0.417000       1.00800           0   0.00000       0.00000    
     48202 TIP3     7762     TIP3     H2       HT       0.417000       1.00800           0   0.00000     -0.301140E-02
     48203 TIP3     7763     TIP3     OH2      OT      -0.834000       15.9994           0   0.00000       0.00000    
     48204 TIP3     7763     TIP3     H1       HT       0.417000       1.00800           0   0.00000       0.00000    
     48205 TIP3     7763     TIP3     H2       HT       0.417000       1.00800           0   0.00000     -0.301140E-02
     48206 TIP3     7764     TIP3     OH2      OT      -0.834000       15.9994           0   0.00000       0.00000    
     48207 TIP3     7764     TIP3     H1       HT       0.417000       1.00800           0   0.00000       0.00000    
     48208 TIP3     7764     TIP3     H2       HT       0.417000       1.00800           0   0.00000     -0.301140E-02
     48209 TIP3     7765     TIP3     OH2      OT      -0.834000       15.9994           0   0.00000       0.00000    
     48210 TIP3     7765     TIP3     H1       HT       0.417000       1.00800           0   0.00000       0.00000    
     48211 TIP3     7765     TIP3     H2       HT       0.417000       1.00800           0   0.00000     -0.301140E-02
     48212 TIP3     7766     TIP3     OH2      OT      -0.834000       15.9994           0   0.00000       0.00000    
     48213 TIP3     7766     TIP3     H1       HT       0.417000       1.00800           0   0.00000       0.00000    
     48214 TIP3     7766     TIP3     H2       HT       0.417000       1.00800           0   0.00000     -0.301140E-02
     48215 TIP3     7767     TIP3     OH2      OT      -0.834000       15.9994           0   0.00000       0.00000    
     48216 TIP3     7767     TIP3     H1       HT       0.417000       1.00800           0   0.00000       0.00000    
     48217 TIP3     7767     TIP3     H2       HT       0.417000       1.00800           0   0.00000     -0.301140E-02
     48218 TIP3     7768     TIP3     OH2      OT      -0.834000       15.9994           0   0.00000       0.00000    
     48219 TIP3     7768     TIP3     H1       HT       0.417000       1.00800           0   0.00000       0.00000    
     48220 TIP3     7768     TIP3     H2       HT       0.417000       1.00800           0   0.00000     -0.301140E-02
     48221 TIP3     7769     TIP3     OH2      OT      -0.834000       15.9994           0   0.00000       0.00000    
     48222 TIP3     7769     TIP3     H1       HT       0.417000       1.00800           0   0.00000       0.00000    
     48223 TIP3     7769     TIP3     H2       HT       0.417000       1.00800           0   0.00000     -0.301140E-02
     48224 TIP3     7770     TIP3     OH2      OT      -0.834000       15.9994           0   0.00000       0.00000    
     48225 TIP3     7770     TIP3     H1       HT       0.417000       1.00800           0   0.00000       0.00000    
     48226 TIP3     7770     TIP3     H2       HT       0.417000       1.00800           0   0.00000     -0.301140E-02
     48227 TIP3     7771     TIP3     OH2      OT      -0.834000       15.9994           0   0.00000       0.00000    
     48228 TIP3     7771     TIP3     H1       HT       0.417000       1.00800           0   0.00000       0.00000    
     48229 TIP3     7771     TIP3     H2       HT       0.417000       1.00800           0   0.00000     -0.301140E-02
     48230 TIP3     7772     TIP3     OH2      OT      -0.834000       15.9994           0   0.00000       0.00000    
     48231 TIP3     7772     TIP3     H1       HT       0.417000       1.00800           0   0.00000       0.00000    
     48232 TIP3     7772     TIP3     H2       HT       0.417000       1.00800           0   0.00000     -0.301140E-02
     48233 TIP3     7773     TIP3     OH2      OT      -0.834000       15.9994           0   0.00000       0.00000    
     48234 TIP3     7773     TIP3     H1       HT       0.417000       1.00800           0   0.00000       0.00000    
     48235 TIP3     7773     TIP3     H2       HT       0.417000       1.00800           0   0.00000     -0.301140E-02
     48236 TIP3     7774     TIP3     OH2      OT      -0.834000       15.9994           0   0.00000       0.00000    
     48237 TIP3     7774     TIP3     H1       HT       0.417000       1.00800           0   0.00000       0.00000    
     48238 TIP3     7774     TIP3     H2       HT       0.417000       1.00800           0   0.00000     -0.301140E-02
     48239 TIP3     7775     TIP3     OH2      OT      -0.834000       15.9994           0   0.00000       0.00000    
     48240 TIP3     7775     TIP3     H1       HT       0.417000       1.00800           0   0.00000       0.00000    
     48241 TIP3     7775     TIP3     H2       HT       0.417000       1.00800           0   0.00000     -0.301140E-02
     48242 TIP3     7776     TIP3     OH2      OT      -0.834000       15.9994           0   0.00000       0.00000    
     48243 TIP3     7776     TIP3     H1       HT       0.417000       1.00800           0   0.00000       0.00000    
     48244 TIP3     7776     TIP3     H2       HT       0.417000       1.00800           0   0.00000     -0.301140E-02
     48245 TIP3     7777     TIP3     OH2      OT      -0.834000       15.9994           0   0.00000       0.00000    
     48246 TIP3     7777     TIP3     H1       HT       0.417000       1.00800           0   0.00000       0.00000    
     48247 TIP3     7777     TIP3     H2       HT       0.417000       1.00800           0   0.00000     -0.301140E-02
     48248 TIP3     7778     TIP3     OH2      OT      -0.834000       15.9994           0   0.00000       0.00000    
     48249 TIP3     7778     TIP3     H1       HT       0.417000       1.00800           0   0.00000       0.00000    
     48250 TIP3     7778     TIP3     H2       HT       0.417000       1.00800           0   0.00000     -0.301140E-02
     48251 TIP3     7779     TIP3     OH2      OT      -0.834000       15.9994           0   0.00000       0.00000    
     48252 TIP3     7779     TIP3     H1       HT       0.417000       1.00800           0   0.00000       0.00000    
     48253 TIP3     7779     TIP3     H2       HT       0.417000       1.00800           0   0.00000     -0.301140E-02
     48254 TIP3     7780     TIP3     OH2      OT      -0.834000       15.9994           0   0.00000       0.00000    
     48255 TIP3     7780     TIP3     H1       HT       0.417000       1.00800           0   0.00000       0.00000    
     48256 TIP3     7780     TIP3     H2       HT       0.417000       1.00800           0   0.00000     -0.301140E-02
     48257 TIP3     7781     TIP3     OH2      OT      -0.834000       15.9994           0   0.00000       0.00000    
     48258 TIP3     7781     TIP3     H1       HT       0.417000       1.00800           0   0.00000       0.00000    
     48259 TIP3     7781     TIP3     H2       HT       0.417000       1.00800           0   0.00000     -0.301140E-02
     48260 TIP3     7782     TIP3     OH2      OT      -0.834000       15.9994           0   0.00000       0.00000    
     48261 TIP3     7782     TIP3     H1       HT       0.417000       1.00800           0   0.00000       0.00000    
     48262 TIP3     7782     TIP3     H2       HT       0.417000       1.00800           0   0.00000     -0.301140E-02
     48263 TIP3     7783     TIP3     OH2      OT      -0.834000       15.9994           0   0.00000       0.00000    
     48264 TIP3     7783     TIP3     H1       HT       0.417000       1.00800           0   0.00000       0.00000    
     48265 TIP3     7783     TIP3     H2       HT       0.417000       1.00800           0   0.00000     -0.301140E-02
     48266 TIP3     7784     TIP3     OH2      OT      -0.834000       15.9994           0   0.00000       0.00000    
     48267 TIP3     7784     TIP3     H1       HT       0.417000       1.00800           0   0.00000       0.00000    
     48268 TIP3     7784     TIP3     H2       HT       0.417000       1.00800           0   0.00000     -0.301140E-02
     48269 TIP3     7785     TIP3     OH2      OT      -0.834000       15.9994           0   0.00000       0.00000    
     48270 TIP3     7785     TIP3     H1       HT       0.417000       1.00800           0   0.00000       0.00000    
     48271 TIP3     7785     TIP3     H2       HT       0.417000       1.00800           0   0.00000     -0.301140E-02
     48272 TIP3     7786     TIP3     OH2      OT      -0.834000       15.9994           0   0.00000       0.00000    
     48273 TIP3     7786     TIP3     H1       HT       0.417000       1.00800           0   0.00000       0.00000    
     48274 TIP3     7786     TIP3     H2       HT       0.417000       1.00800           0   0.00000     -0.301140E-02
     48275 TIP3     7787     TIP3     OH2      OT      -0.834000       15.9994           0   0.00000       0.00000    
     48276 TIP3     7787     TIP3     H1       HT       0.417000       1.00800           0   0.00000       0.00000    
     48277 TIP3     7787     TIP3     H2       HT       0.417000       1.00800           0   0.00000     -0.301140E-02
     48278 TIP3     7788     TIP3     OH2      OT      -0.834000       15.9994           0   0.00000       0.00000    
     48279 TIP3     7788     TIP3     H1       HT       0.417000       1.00800           0   0.00000       0.00000    
     48280 TIP3     7788     TIP3     H2       HT       0.417000       1.00800           0   0.00000     -0.301140E-02
     48281 TIP3     7789     TIP3     OH2      OT      -0.834000       15.9994           0   0.00000       0.00000    
     48282 TIP3     7789     TIP3     H1       HT       0.417000       1.00800           0   0.00000       0.00000    
     48283 TIP3     7789     TIP3     H2       HT       0.417000       1.00800           0   0.00000     -0.301140E-02
     48284 TIP3     7790     TIP3     OH2      OT      -0.834000       15.9994           0   0.00000       0.00000    
     48285 TIP3     7790     TIP3     H1       HT       0.417000       1.00800           0   0.00000       0.00000    
     48286 TIP3     7790     TIP3     H2       HT       0.417000       1.00800           0   0.00000     -0.301140E-02
     48287 TIP3     7791     TIP3     OH2      OT      -0.834000       15.9994           0   0.00000       0.00000    
     48288 TIP3     7791     TIP3     H1       HT       0.417000       1.00800           0   0.00000       0.00000    
     48289 TIP3     7791     TIP3     H2       HT       0.417000       1.00800           0   0.00000     -0.301140E-02
     48290 TIP3     7792     TIP3     OH2      OT      -0.834000       15.9994           0   0.00000       0.00000    
     48291 TIP3     7792     TIP3     H1       HT       0.417000       1.00800           0   0.00000       0.00000    
     48292 TIP3     7792     TIP3     H2       HT       0.417000       1.00800           0   0.00000     -0.301140E-02
     48293 TIP3     7793     TIP3     OH2      OT      -0.834000       15.9994           0   0.00000       0.00000    
     48294 TIP3     7793     TIP3     H1       HT       0.417000       1.00800           0   0.00000       0.00000    
     48295 TIP3     7793     TIP3     H2       HT       0.417000       1.00800           0   0.00000     -0.301140E-02
     48296 TIP3     7794     TIP3     OH2      OT      -0.834000       15.9994           0   0.00000       0.00000    
     48297 TIP3     7794     TIP3     H1       HT       0.417000       1.00800           0   0.00000       0.00000    
     48298 TIP3     7794     TIP3     H2       HT       0.417000       1.00800           0   0.00000     -0.301140E-02
     48299 TIP3     7795     TIP3     OH2      OT      -0.834000       15.9994           0   0.00000       0.00000    
     48300 TIP3     7795     TIP3     H1       HT       0.417000       1.00800           0   0.00000       0.00000    
     48301 TIP3     7795     TIP3     H2       HT       0.417000       1.00800           0   0.00000     -0.301140E-02
     48302 TIP3     7796     TIP3     OH2      OT      -0.834000       15.9994           0   0.00000       0.00000    
     48303 TIP3     7796     TIP3     H1       HT       0.417000       1.00800           0   0.00000       0.00000    
     48304 TIP3     7796     TIP3     H2       HT       0.417000       1.00800           0   0.00000     -0.301140E-02
     48305 TIP3     7797     TIP3     OH2      OT      -0.834000       15.9994           0   0.00000       0.00000    
     48306 TIP3     7797     TIP3     H1       HT       0.417000       1.00800           0   0.00000       0.00000    
     48307 TIP3     7797     TIP3     H2       HT       0.417000       1.00800           0   0.00000     -0.301140E-02
     48308 TIP3     7798     TIP3     OH2      OT      -0.834000       15.9994           0   0.00000       0.00000    
     48309 TIP3     7798     TIP3     H1       HT       0.417000       1.00800           0   0.00000       0.00000    
     48310 TIP3     7798     TIP3     H2       HT       0.417000       1.00800           0   0.00000     -0.301140E-02
     48311 TIP3     7799     TIP3     OH2      OT      -0.834000       15.9994           0   0.00000       0.00000    
     48312 TIP3     7799     TIP3     H1       HT       0.417000       1.00800           0   0.00000       0.00000    
     48313 TIP3     7799     TIP3     H2       HT       0.417000       1.00800           0   0.00000     -0.301140E-02
     48314 TIP3     7800     TIP3     OH2      OT      -0.834000       15.9994           0   0.00000       0.00000    
     48315 TIP3     7800     TIP3     H1       HT       0.417000       1.00800           0   0.00000       0.00000    
     48316 TIP3     7800     TIP3     H2       HT       0.417000       1.00800           0   0.00000     -0.301140E-02
     48317 TIP3     7801     TIP3     OH2      OT      -0.834000       15.9994           0   0.00000       0.00000    
     48318 TIP3     7801     TIP3     H1       HT       0.417000       1.00800           0   0.00000       0.00000    
     48319 TIP3     7801     TIP3     H2       HT       0.417000       1.00800           0   0.00000     -0.301140E-02
     48320 TIP3     7802     TIP3     OH2      OT      -0.834000       15.9994           0   0.00000       0.00000    
     48321 TIP3     7802     TIP3     H1       HT       0.417000       1.00800           0   0.00000       0.00000    
     48322 TIP3     7802     TIP3     H2       HT       0.417000       1.00800           0   0.00000     -0.301140E-02
     48323 TIP3     7803     TIP3     OH2      OT      -0.834000       15.9994           0   0.00000       0.00000    
     48324 TIP3     7803     TIP3     H1       HT       0.417000       1.00800           0   0.00000       0.00000    
     48325 TIP3     7803     TIP3     H2       HT       0.417000       1.00800           0   0.00000     -0.301140E-02
     48326 TIP3     7804     TIP3     OH2      OT      -0.834000       15.9994           0   0.00000       0.00000    
     48327 TIP3     7804     TIP3     H1       HT       0.417000       1.00800           0   0.00000       0.00000    
     48328 TIP3     7804     TIP3     H2       HT       0.417000       1.00800           0   0.00000     -0.301140E-02
     48329 TIP3     7805     TIP3     OH2      OT      -0.834000       15.9994           0   0.00000       0.00000    
     48330 TIP3     7805     TIP3     H1       HT       0.417000       1.00800           0   0.00000       0.00000    
     48331 TIP3     7805     TIP3     H2       HT       0.417000       1.00800           0   0.00000     -0.301140E-02
     48332 TIP3     7806     TIP3     OH2      OT      -0.834000       15.9994           0   0.00000       0.00000    
     48333 TIP3     7806     TIP3     H1       HT       0.417000       1.00800           0   0.00000       0.00000    
     48334 TIP3     7806     TIP3     H2       HT       0.417000       1.00800           0   0.00000     -0.301140E-02
     48335 TIP3     7807     TIP3     OH2      OT      -0.834000       15.9994           0   0.00000       0.00000    
     48336 TIP3     7807     TIP3     H1       HT       0.417000       1.00800           0   0.00000       0.00000    
     48337 TIP3     7807     TIP3     H2       HT       0.417000       1.00800           0   0.00000     -0.301140E-02
     48338 TIP3     7808     TIP3     OH2      OT      -0.834000       15.9994           0   0.00000       0.00000    
     48339 TIP3     7808     TIP3     H1       HT       0.417000       1.00800           0   0.00000       0.00000    
     48340 TIP3     7808     TIP3     H2       HT       0.417000       1.00800           0   0.00000     -0.301140E-02
     48341 TIP3     7809     TIP3     OH2      OT      -0.834000       15.9994           0   0.00000       0.00000    
     48342 TIP3     7809     TIP3     H1       HT       0.417000       1.00800           0   0.00000       0.00000    
     48343 TIP3     7809     TIP3     H2       HT       0.417000       1.00800           0   0.00000     -0.301140E-02
     48344 TIP3     7810     TIP3     OH2      OT      -0.834000       15.9994           0   0.00000       0.00000    
     48345 TIP3     7810     TIP3     H1       HT       0.417000       1.00800           0   0.00000       0.00000    
     48346 TIP3     7810     TIP3     H2       HT       0.417000       1.00800           0   0.00000     -0.301140E-02
     48347 TIP3     7811     TIP3     OH2      OT      -0.834000       15.9994           0   0.00000       0.00000    
     48348 TIP3     7811     TIP3     H1       HT       0.417000       1.00800           0   0.00000       0.00000    
     48349 TIP3     7811     TIP3     H2       HT       0.417000       1.00800           0   0.00000     -0.301140E-02
     48350 TIP3     7812     TIP3     OH2      OT      -0.834000       15.9994           0   0.00000       0.00000    
     48351 TIP3     7812     TIP3     H1       HT       0.417000       1.00800           0   0.00000       0.00000    
     48352 TIP3     7812     TIP3     H2       HT       0.417000       1.00800           0   0.00000     -0.301140E-02
     48353 TIP3     7813     TIP3     OH2      OT      -0.834000       15.9994           0   0.00000       0.00000    
     48354 TIP3     7813     TIP3     H1       HT       0.417000       1.00800           0   0.00000       0.00000    
     48355 TIP3     7813     TIP3     H2       HT       0.417000       1.00800           0   0.00000     -0.301140E-02
     48356 TIP3     7814     TIP3     OH2      OT      -0.834000       15.9994           0   0.00000       0.00000    
     48357 TIP3     7814     TIP3     H1       HT       0.417000       1.00800           0   0.00000       0.00000    
     48358 TIP3     7814     TIP3     H2       HT       0.417000       1.00800           0   0.00000     -0.301140E-02
     48359 TIP3     7815     TIP3     OH2      OT      -0.834000       15.9994           0   0.00000       0.00000    
     48360 TIP3     7815     TIP3     H1       HT       0.417000       1.00800           0   0.00000       0.00000    
     48361 TIP3     7815     TIP3     H2       HT       0.417000       1.00800           0   0.00000     -0.301140E-02
     48362 TIP3     7816     TIP3     OH2      OT      -0.834000       15.9994           0   0.00000       0.00000    
     48363 TIP3     7816     TIP3     H1       HT       0.417000       1.00800           0   0.00000       0.00000    
     48364 TIP3     7816     TIP3     H2       HT       0.417000       1.00800           0   0.00000     -0.301140E-02
     48365 TIP3     7817     TIP3     OH2      OT      -0.834000       15.9994           0   0.00000       0.00000    
     48366 TIP3     7817     TIP3     H1       HT       0.417000       1.00800           0   0.00000       0.00000    
     48367 TIP3     7817     TIP3     H2       HT       0.417000       1.00800           0   0.00000     -0.301140E-02
     48368 TIP3     7818     TIP3     OH2      OT      -0.834000       15.9994           0   0.00000       0.00000    
     48369 TIP3     7818     TIP3     H1       HT       0.417000       1.00800           0   0.00000       0.00000    
     48370 TIP3     7818     TIP3     H2       HT       0.417000       1.00800           0   0.00000     -0.301140E-02
     48371 TIP3     7819     TIP3     OH2      OT      -0.834000       15.9994           0   0.00000       0.00000    
     48372 TIP3     7819     TIP3     H1       HT       0.417000       1.00800           0   0.00000       0.00000    
     48373 TIP3     7819     TIP3     H2       HT       0.417000       1.00800           0   0.00000     -0.301140E-02
     48374 TIP3     7820     TIP3     OH2      OT      -0.834000       15.9994           0   0.00000       0.00000    
     48375 TIP3     7820     TIP3     H1       HT       0.417000       1.00800           0   0.00000       0.00000    
     48376 TIP3     7820     TIP3     H2       HT       0.417000       1.00800           0   0.00000     -0.301140E-02
     48377 TIP3     7821     TIP3     OH2      OT      -0.834000       15.9994           0   0.00000       0.00000    
     48378 TIP3     7821     TIP3     H1       HT       0.417000       1.00800           0   0.00000       0.00000    
     48379 TIP3     7821     TIP3     H2       HT       0.417000       1.00800           0   0.00000     -0.301140E-02
     48380 TIP3     7822     TIP3     OH2      OT      -0.834000       15.9994           0   0.00000       0.00000    
     48381 TIP3     7822     TIP3     H1       HT       0.417000       1.00800           0   0.00000       0.00000    
     48382 TIP3     7822     TIP3     H2       HT       0.417000       1.00800           0   0.00000     -0.301140E-02
     48383 TIP3     7823     TIP3     OH2      OT      -0.834000       15.9994           0   0.00000       0.00000    
     48384 TIP3     7823     TIP3     H1       HT       0.417000       1.00800           0   0.00000       0.00000    
     48385 TIP3     7823     TIP3     H2       HT       0.417000       1.00800           0   0.00000     -0.301140E-02
     48386 TIP3     7824     TIP3     OH2      OT      -0.834000       15.9994           0   0.00000       0.00000    
     48387 TIP3     7824     TIP3     H1       HT       0.417000       1.00800           0   0.00000       0.00000    
     48388 TIP3     7824     TIP3     H2       HT       0.417000       1.00800           0   0.00000     -0.301140E-02
     48389 TIP3     7825     TIP3     OH2      OT      -0.834000       15.9994           0   0.00000       0.00000    
     48390 TIP3     7825     TIP3     H1       HT       0.417000       1.00800           0   0.00000       0.00000    
     48391 TIP3     7825     TIP3     H2       HT       0.417000       1.00800           0   0.00000     -0.301140E-02
     48392 TIP3     7826     TIP3     OH2      OT      -0.834000       15.9994           0   0.00000       0.00000    
     48393 TIP3     7826     TIP3     H1       HT       0.417000       1.00800           0   0.00000       0.00000    
     48394 TIP3     7826     TIP3     H2       HT       0.417000       1.00800           0   0.00000     -0.301140E-02
     48395 TIP3     7827     TIP3     OH2      OT      -0.834000       15.9994           0   0.00000       0.00000    
     48396 TIP3     7827     TIP3     H1       HT       0.417000       1.00800           0   0.00000       0.00000    
     48397 TIP3     7827     TIP3     H2       HT       0.417000       1.00800           0   0.00000     -0.301140E-02
     48398 TIP3     7828     TIP3     OH2      OT      -0.834000       15.9994           0   0.00000       0.00000    
     48399 TIP3     7828     TIP3     H1       HT       0.417000       1.00800           0   0.00000       0.00000    
     48400 TIP3     7828     TIP3     H2       HT       0.417000       1.00800           0   0.00000     -0.301140E-02
     48401 TIP3     7829     TIP3     OH2      OT      -0.834000       15.9994           0   0.00000       0.00000    
     48402 TIP3     7829     TIP3     H1       HT       0.417000       1.00800           0   0.00000       0.00000    
     48403 TIP3     7829     TIP3     H2       HT       0.417000       1.00800           0   0.00000     -0.301140E-02
     48404 TIP3     7830     TIP3     OH2      OT      -0.834000       15.9994           0   0.00000       0.00000    
     48405 TIP3     7830     TIP3     H1       HT       0.417000       1.00800           0   0.00000       0.00000    
     48406 TIP3     7830     TIP3     H2       HT       0.417000       1.00800           0   0.00000     -0.301140E-02
     48407 TIP3     7831     TIP3     OH2      OT      -0.834000       15.9994           0   0.00000       0.00000    
     48408 TIP3     7831     TIP3     H1       HT       0.417000       1.00800           0   0.00000       0.00000    
     48409 TIP3     7831     TIP3     H2       HT       0.417000       1.00800           0   0.00000     -0.301140E-02
     48410 TIP3     7832     TIP3     OH2      OT      -0.834000       15.9994           0   0.00000       0.00000    
     48411 TIP3     7832     TIP3     H1       HT       0.417000       1.00800           0   0.00000       0.00000    
     48412 TIP3     7832     TIP3     H2       HT       0.417000       1.00800           0   0.00000     -0.301140E-02
     48413 TIP3     7833     TIP3     OH2      OT      -0.834000       15.9994           0   0.00000       0.00000    
     48414 TIP3     7833     TIP3     H1       HT       0.417000       1.00800           0   0.00000       0.00000    
     48415 TIP3     7833     TIP3     H2       HT       0.417000       1.00800           0   0.00000     -0.301140E-02
     48416 TIP3     7834     TIP3     OH2      OT      -0.834000       15.9994           0   0.00000       0.00000    
     48417 TIP3     7834     TIP3     H1       HT       0.417000       1.00800           0   0.00000       0.00000    
     48418 TIP3     7834     TIP3     H2       HT       0.417000       1.00800           0   0.00000     -0.301140E-02
     48419 TIP3     7835     TIP3     OH2      OT      -0.834000       15.9994           0   0.00000       0.00000    
     48420 TIP3     7835     TIP3     H1       HT       0.417000       1.00800           0   0.00000       0.00000    
     48421 TIP3     7835     TIP3     H2       HT       0.417000       1.00800           0   0.00000     -0.301140E-02
     48422 TIP3     7836     TIP3     OH2      OT      -0.834000       15.9994           0   0.00000       0.00000    
     48423 TIP3     7836     TIP3     H1       HT       0.417000       1.00800           0   0.00000       0.00000    
     48424 TIP3     7836     TIP3     H2       HT       0.417000       1.00800           0   0.00000     -0.301140E-02
     48425 TIP3     7837     TIP3     OH2      OT      -0.834000       15.9994           0   0.00000       0.00000    
     48426 TIP3     7837     TIP3     H1       HT       0.417000       1.00800           0   0.00000       0.00000    
     48427 TIP3     7837     TIP3     H2       HT       0.417000       1.00800           0   0.00000     -0.301140E-02
     48428 TIP3     7838     TIP3     OH2      OT      -0.834000       15.9994           0   0.00000       0.00000    
     48429 TIP3     7838     TIP3     H1       HT       0.417000       1.00800           0   0.00000       0.00000    
     48430 TIP3     7838     TIP3     H2       HT       0.417000       1.00800           0   0.00000     -0.301140E-02
     48431 TIP3     7839     TIP3     OH2      OT      -0.834000       15.9994           0   0.00000       0.00000    
     48432 TIP3     7839     TIP3     H1       HT       0.417000       1.00800           0   0.00000       0.00000    
     48433 TIP3     7839     TIP3     H2       HT       0.417000       1.00800           0   0.00000     -0.301140E-02
     48434 TIP3     7840     TIP3     OH2      OT      -0.834000       15.9994           0   0.00000       0.00000    
     48435 TIP3     7840     TIP3     H1       HT       0.417000       1.00800           0   0.00000       0.00000    
     48436 TIP3     7840     TIP3     H2       HT       0.417000       1.00800           0   0.00000     -0.301140E-02
     48437 TIP3     7841     TIP3     OH2      OT      -0.834000       15.9994           0   0.00000       0.00000    
     48438 TIP3     7841     TIP3     H1       HT       0.417000       1.00800           0   0.00000       0.00000    
     48439 TIP3     7841     TIP3     H2       HT       0.417000       1.00800           0   0.00000     -0.301140E-02
     48440 TIP3     7842     TIP3     OH2      OT      -0.834000       15.9994           0   0.00000       0.00000    
     48441 TIP3     7842     TIP3     H1       HT       0.417000       1.00800           0   0.00000       0.00000    
     48442 TIP3     7842     TIP3     H2       HT       0.417000       1.00800           0   0.00000     -0.301140E-02
     48443 TIP3     7843     TIP3     OH2      OT      -0.834000       15.9994           0   0.00000       0.00000    
     48444 TIP3     7843     TIP3     H1       HT       0.417000       1.00800           0   0.00000       0.00000    
     48445 TIP3     7843     TIP3     H2       HT       0.417000       1.00800           0   0.00000     -0.301140E-02
     48446 TIP3     7844     TIP3     OH2      OT      -0.834000       15.9994           0   0.00000       0.00000    
     48447 TIP3     7844     TIP3     H1       HT       0.417000       1.00800           0   0.00000       0.00000    
     48448 TIP3     7844     TIP3     H2       HT       0.417000       1.00800           0   0.00000     -0.301140E-02
     48449 TIP3     7845     TIP3     OH2      OT      -0.834000       15.9994           0   0.00000       0.00000    
     48450 TIP3     7845     TIP3     H1       HT       0.417000       1.00800           0   0.00000       0.00000    
     48451 TIP3     7845     TIP3     H2       HT       0.417000       1.00800           0   0.00000     -0.301140E-02
     48452 TIP3     7846     TIP3     OH2      OT      -0.834000       15.9994           0   0.00000       0.00000    
     48453 TIP3     7846     TIP3     H1       HT       0.417000       1.00800           0   0.00000       0.00000    
     48454 TIP3     7846     TIP3     H2       HT       0.417000       1.00800           0   0.00000     -0.301140E-02
     48455 TIP3     7847     TIP3     OH2      OT      -0.834000       15.9994           0   0.00000       0.00000    
     48456 TIP3     7847     TIP3     H1       HT       0.417000       1.00800           0   0.00000       0.00000    
     48457 TIP3     7847     TIP3     H2       HT       0.417000       1.00800           0   0.00000     -0.301140E-02
     48458 TIP3     7848     TIP3     OH2      OT      -0.834000       15.9994           0   0.00000       0.00000    
     48459 TIP3     7848     TIP3     H1       HT       0.417000       1.00800           0   0.00000       0.00000    
     48460 TIP3     7848     TIP3     H2       HT       0.417000       1.00800           0   0.00000     -0.301140E-02
     48461 TIP3     7849     TIP3     OH2      OT      -0.834000       15.9994           0   0.00000       0.00000    
     48462 TIP3     7849     TIP3     H1       HT       0.417000       1.00800           0   0.00000       0.00000    
     48463 TIP3     7849     TIP3     H2       HT       0.417000       1.00800           0   0.00000     -0.301140E-02
     48464 TIP3     7850     TIP3     OH2      OT      -0.834000       15.9994           0   0.00000       0.00000    
     48465 TIP3     7850     TIP3     H1       HT       0.417000       1.00800           0   0.00000       0.00000    
     48466 TIP3     7850     TIP3     H2       HT       0.417000       1.00800           0   0.00000     -0.301140E-02
     48467 TIP3     7851     TIP3     OH2      OT      -0.834000       15.9994           0   0.00000       0.00000    
     48468 TIP3     7851     TIP3     H1       HT       0.417000       1.00800           0   0.00000       0.00000    
     48469 TIP3     7851     TIP3     H2       HT       0.417000       1.00800           0   0.00000     -0.301140E-02
     48470 TIP3     7852     TIP3     OH2      OT      -0.834000       15.9994           0   0.00000       0.00000    
     48471 TIP3     7852     TIP3     H1       HT       0.417000       1.00800           0   0.00000       0.00000    
     48472 TIP3     7852     TIP3     H2       HT       0.417000       1.00800           0   0.00000     -0.301140E-02
     48473 TIP3     7853     TIP3     OH2      OT      -0.834000       15.9994           0   0.00000       0.00000    
     48474 TIP3     7853     TIP3     H1       HT       0.417000       1.00800           0   0.00000       0.00000    
     48475 TIP3     7853     TIP3     H2       HT       0.417000       1.00800           0   0.00000     -0.301140E-02
     48476 TIP3     7854     TIP3     OH2      OT      -0.834000       15.9994           0   0.00000       0.00000    
     48477 TIP3     7854     TIP3     H1       HT       0.417000       1.00800           0   0.00000       0.00000    
     48478 TIP3     7854     TIP3     H2       HT       0.417000       1.00800           0   0.00000     -0.301140E-02
     48479 TIP3     7855     TIP3     OH2      OT      -0.834000       15.9994           0   0.00000       0.00000    
     48480 TIP3     7855     TIP3     H1       HT       0.417000       1.00800           0   0.00000       0.00000    
     48481 TIP3     7855     TIP3     H2       HT       0.417000       1.00800           0   0.00000     -0.301140E-02
     48482 TIP3     7856     TIP3     OH2      OT      -0.834000       15.9994           0   0.00000       0.00000    
     48483 TIP3     7856     TIP3     H1       HT       0.417000       1.00800           0   0.00000       0.00000    
     48484 TIP3     7856     TIP3     H2       HT       0.417000       1.00800           0   0.00000     -0.301140E-02
     48485 TIP3     7857     TIP3     OH2      OT      -0.834000       15.9994           0   0.00000       0.00000    
     48486 TIP3     7857     TIP3     H1       HT       0.417000       1.00800           0   0.00000       0.00000    
     48487 TIP3     7857     TIP3     H2       HT       0.417000       1.00800           0   0.00000     -0.301140E-02
     48488 TIP3     7858     TIP3     OH2      OT      -0.834000       15.9994           0   0.00000       0.00000    
     48489 TIP3     7858     TIP3     H1       HT       0.417000       1.00800           0   0.00000       0.00000    
     48490 TIP3     7858     TIP3     H2       HT       0.417000       1.00800           0   0.00000     -0.301140E-02
     48491 TIP3     7859     TIP3     OH2      OT      -0.834000       15.9994           0   0.00000       0.00000    
     48492 TIP3     7859     TIP3     H1       HT       0.417000       1.00800           0   0.00000       0.00000    
     48493 TIP3     7859     TIP3     H2       HT       0.417000       1.00800           0   0.00000     -0.301140E-02
     48494 TIP3     7860     TIP3     OH2      OT      -0.834000       15.9994           0   0.00000       0.00000    
     48495 TIP3     7860     TIP3     H1       HT       0.417000       1.00800           0   0.00000       0.00000    
     48496 TIP3     7860     TIP3     H2       HT       0.417000       1.00800           0   0.00000     -0.301140E-02
     48497 TIP3     7861     TIP3     OH2      OT      -0.834000       15.9994           0   0.00000       0.00000    
     48498 TIP3     7861     TIP3     H1       HT       0.417000       1.00800           0   0.00000       0.00000    
     48499 TIP3     7861     TIP3     H2       HT       0.417000       1.00800           0   0.00000     -0.301140E-02
     48500 TIP3     7862     TIP3     OH2      OT      -0.834000       15.9994           0   0.00000       0.00000    
     48501 TIP3     7862     TIP3     H1       HT       0.417000       1.00800           0   0.00000       0.00000    
     48502 TIP3     7862     TIP3     H2       HT       0.417000       1.00800           0   0.00000     -0.301140E-02
     48503 TIP3     7863     TIP3     OH2      OT      -0.834000       15.9994           0   0.00000       0.00000    
     48504 TIP3     7863     TIP3     H1       HT       0.417000       1.00800           0   0.00000       0.00000    
     48505 TIP3     7863     TIP3     H2       HT       0.417000       1.00800           0   0.00000     -0.301140E-02
     48506 TIP3     7864     TIP3     OH2      OT      -0.834000       15.9994           0   0.00000       0.00000    
     48507 TIP3     7864     TIP3     H1       HT       0.417000       1.00800           0   0.00000       0.00000    
     48508 TIP3     7864     TIP3     H2       HT       0.417000       1.00800           0   0.00000     -0.301140E-02
     48509 TIP3     7865     TIP3     OH2      OT      -0.834000       15.9994           0   0.00000       0.00000    
     48510 TIP3     7865     TIP3     H1       HT       0.417000       1.00800           0   0.00000       0.00000    
     48511 TIP3     7865     TIP3     H2       HT       0.417000       1.00800           0   0.00000     -0.301140E-02
     48512 TIP3     7866     TIP3     OH2      OT      -0.834000       15.9994           0   0.00000       0.00000    
     48513 TIP3     7866     TIP3     H1       HT       0.417000       1.00800           0   0.00000       0.00000    
     48514 TIP3     7866     TIP3     H2       HT       0.417000       1.00800           0   0.00000     -0.301140E-02
     48515 TIP3     7867     TIP3     OH2      OT      -0.834000       15.9994           0   0.00000       0.00000    
     48516 TIP3     7867     TIP3     H1       HT       0.417000       1.00800           0   0.00000       0.00000    
     48517 TIP3     7867     TIP3     H2       HT       0.417000       1.00800           0   0.00000     -0.301140E-02
     48518 TIP3     7868     TIP3     OH2      OT      -0.834000       15.9994           0   0.00000       0.00000    
     48519 TIP3     7868     TIP3     H1       HT       0.417000       1.00800           0   0.00000       0.00000    
     48520 TIP3     7868     TIP3     H2       HT       0.417000       1.00800           0   0.00000     -0.301140E-02
     48521 TIP3     7869     TIP3     OH2      OT      -0.834000       15.9994           0   0.00000       0.00000    
     48522 TIP3     7869     TIP3     H1       HT       0.417000       1.00800           0   0.00000       0.00000    
     48523 TIP3     7869     TIP3     H2       HT       0.417000       1.00800           0   0.00000     -0.301140E-02
     48524 TIP3     7870     TIP3     OH2      OT      -0.834000       15.9994           0   0.00000       0.00000    
     48525 TIP3     7870     TIP3     H1       HT       0.417000       1.00800           0   0.00000       0.00000    
     48526 TIP3     7870     TIP3     H2       HT       0.417000       1.00800           0   0.00000     -0.301140E-02
     48527 TIP3     7871     TIP3     OH2      OT      -0.834000       15.9994           0   0.00000       0.00000    
     48528 TIP3     7871     TIP3     H1       HT       0.417000       1.00800           0   0.00000       0.00000    
     48529 TIP3     7871     TIP3     H2       HT       0.417000       1.00800           0   0.00000     -0.301140E-02
     48530 TIP3     7872     TIP3     OH2      OT      -0.834000       15.9994           0   0.00000       0.00000    
     48531 TIP3     7872     TIP3     H1       HT       0.417000       1.00800           0   0.00000       0.00000    
     48532 TIP3     7872     TIP3     H2       HT       0.417000       1.00800           0   0.00000     -0.301140E-02
     48533 TIP3     7873     TIP3     OH2      OT      -0.834000       15.9994           0   0.00000       0.00000    
     48534 TIP3     7873     TIP3     H1       HT       0.417000       1.00800           0   0.00000       0.00000    
     48535 TIP3     7873     TIP3     H2       HT       0.417000       1.00800           0   0.00000     -0.301140E-02
     48536 TIP3     7874     TIP3     OH2      OT      -0.834000       15.9994           0   0.00000       0.00000    
     48537 TIP3     7874     TIP3     H1       HT       0.417000       1.00800           0   0.00000       0.00000    
     48538 TIP3     7874     TIP3     H2       HT       0.417000       1.00800           0   0.00000     -0.301140E-02
     48539 TIP3     7875     TIP3     OH2      OT      -0.834000       15.9994           0   0.00000       0.00000    
     48540 TIP3     7875     TIP3     H1       HT       0.417000       1.00800           0   0.00000       0.00000    
     48541 TIP3     7875     TIP3     H2       HT       0.417000       1.00800           0   0.00000     -0.301140E-02
     48542 TIP3     7876     TIP3     OH2      OT      -0.834000       15.9994           0   0.00000       0.00000    
     48543 TIP3     7876     TIP3     H1       HT       0.417000       1.00800           0   0.00000       0.00000    
     48544 TIP3     7876     TIP3     H2       HT       0.417000       1.00800           0   0.00000     -0.301140E-02
     48545 TIP3     7877     TIP3     OH2      OT      -0.834000       15.9994           0   0.00000       0.00000    
     48546 TIP3     7877     TIP3     H1       HT       0.417000       1.00800           0   0.00000       0.00000    
     48547 TIP3     7877     TIP3     H2       HT       0.417000       1.00800           0   0.00000     -0.301140E-02
     48548 TIP3     7878     TIP3     OH2      OT      -0.834000       15.9994           0   0.00000       0.00000    
     48549 TIP3     7878     TIP3     H1       HT       0.417000       1.00800           0   0.00000       0.00000    
     48550 TIP3     7878     TIP3     H2       HT       0.417000       1.00800           0   0.00000     -0.301140E-02
     48551 TIP3     7879     TIP3     OH2      OT      -0.834000       15.9994           0   0.00000       0.00000    
     48552 TIP3     7879     TIP3     H1       HT       0.417000       1.00800           0   0.00000       0.00000    
     48553 TIP3     7879     TIP3     H2       HT       0.417000       1.00800           0   0.00000     -0.301140E-02
     48554 TIP3     7880     TIP3     OH2      OT      -0.834000       15.9994           0   0.00000       0.00000    
     48555 TIP3     7880     TIP3     H1       HT       0.417000       1.00800           0   0.00000       0.00000    
     48556 TIP3     7880     TIP3     H2       HT       0.417000       1.00800           0   0.00000     -0.301140E-02
     48557 TIP3     7881     TIP3     OH2      OT      -0.834000       15.9994           0   0.00000       0.00000    
     48558 TIP3     7881     TIP3     H1       HT       0.417000       1.00800           0   0.00000       0.00000    
     48559 TIP3     7881     TIP3     H2       HT       0.417000       1.00800           0   0.00000     -0.301140E-02
     48560 TIP3     7882     TIP3     OH2      OT      -0.834000       15.9994           0   0.00000       0.00000    
     48561 TIP3     7882     TIP3     H1       HT       0.417000       1.00800           0   0.00000       0.00000    
     48562 TIP3     7882     TIP3     H2       HT       0.417000       1.00800           0   0.00000     -0.301140E-02
     48563 TIP3     7883     TIP3     OH2      OT      -0.834000       15.9994           0   0.00000       0.00000    
     48564 TIP3     7883     TIP3     H1       HT       0.417000       1.00800           0   0.00000       0.00000    
     48565 TIP3     7883     TIP3     H2       HT       0.417000       1.00800           0   0.00000     -0.301140E-02
     48566 TIP3     7884     TIP3     OH2      OT      -0.834000       15.9994           0   0.00000       0.00000    
     48567 TIP3     7884     TIP3     H1       HT       0.417000       1.00800           0   0.00000       0.00000    
     48568 TIP3     7884     TIP3     H2       HT       0.417000       1.00800           0   0.00000     -0.301140E-02
     48569 TIP3     7885     TIP3     OH2      OT      -0.834000       15.9994           0   0.00000       0.00000    
     48570 TIP3     7885     TIP3     H1       HT       0.417000       1.00800           0   0.00000       0.00000    
     48571 TIP3     7885     TIP3     H2       HT       0.417000       1.00800           0   0.00000     -0.301140E-02
     48572 TIP3     7886     TIP3     OH2      OT      -0.834000       15.9994           0   0.00000       0.00000    
     48573 TIP3     7886     TIP3     H1       HT       0.417000       1.00800           0   0.00000       0.00000    
     48574 TIP3     7886     TIP3     H2       HT       0.417000       1.00800           0   0.00000     -0.301140E-02
     48575 TIP3     7887     TIP3     OH2      OT      -0.834000       15.9994           0   0.00000       0.00000    
     48576 TIP3     7887     TIP3     H1       HT       0.417000       1.00800           0   0.00000       0.00000    
     48577 TIP3     7887     TIP3     H2       HT       0.417000       1.00800           0   0.00000     -0.301140E-02
     48578 TIP3     7888     TIP3     OH2      OT      -0.834000       15.9994           0   0.00000       0.00000    
     48579 TIP3     7888     TIP3     H1       HT       0.417000       1.00800           0   0.00000       0.00000    
     48580 TIP3     7888     TIP3     H2       HT       0.417000       1.00800           0   0.00000     -0.301140E-02
     48581 TIP3     7889     TIP3     OH2      OT      -0.834000       15.9994           0   0.00000       0.00000    
     48582 TIP3     7889     TIP3     H1       HT       0.417000       1.00800           0   0.00000       0.00000    
     48583 TIP3     7889     TIP3     H2       HT       0.417000       1.00800           0   0.00000     -0.301140E-02
     48584 TIP3     7890     TIP3     OH2      OT      -0.834000       15.9994           0   0.00000       0.00000    
     48585 TIP3     7890     TIP3     H1       HT       0.417000       1.00800           0   0.00000       0.00000    
     48586 TIP3     7890     TIP3     H2       HT       0.417000       1.00800           0   0.00000     -0.301140E-02
     48587 TIP3     7891     TIP3     OH2      OT      -0.834000       15.9994           0   0.00000       0.00000    
     48588 TIP3     7891     TIP3     H1       HT       0.417000       1.00800           0   0.00000       0.00000    
     48589 TIP3     7891     TIP3     H2       HT       0.417000       1.00800           0   0.00000     -0.301140E-02
     48590 TIP3     7892     TIP3     OH2      OT      -0.834000       15.9994           0   0.00000       0.00000    
     48591 TIP3     7892     TIP3     H1       HT       0.417000       1.00800           0   0.00000       0.00000    
     48592 TIP3     7892     TIP3     H2       HT       0.417000       1.00800           0   0.00000     -0.301140E-02
     48593 TIP3     7893     TIP3     OH2      OT      -0.834000       15.9994           0   0.00000       0.00000    
     48594 TIP3     7893     TIP3     H1       HT       0.417000       1.00800           0   0.00000       0.00000    
     48595 TIP3     7893     TIP3     H2       HT       0.417000       1.00800           0   0.00000     -0.301140E-02
     48596 TIP3     7894     TIP3     OH2      OT      -0.834000       15.9994           0   0.00000       0.00000    
     48597 TIP3     7894     TIP3     H1       HT       0.417000       1.00800           0   0.00000       0.00000    
     48598 TIP3     7894     TIP3     H2       HT       0.417000       1.00800           0   0.00000     -0.301140E-02
     48599 TIP3     7895     TIP3     OH2      OT      -0.834000       15.9994           0   0.00000       0.00000    
     48600 TIP3     7895     TIP3     H1       HT       0.417000       1.00800           0   0.00000       0.00000    
     48601 TIP3     7895     TIP3     H2       HT       0.417000       1.00800           0   0.00000     -0.301140E-02
     48602 TIP3     7896     TIP3     OH2      OT      -0.834000       15.9994           0   0.00000       0.00000    
     48603 TIP3     7896     TIP3     H1       HT       0.417000       1.00800           0   0.00000       0.00000    
     48604 TIP3     7896     TIP3     H2       HT       0.417000       1.00800           0   0.00000     -0.301140E-02
     48605 TIP3     7897     TIP3     OH2      OT      -0.834000       15.9994           0   0.00000       0.00000    
     48606 TIP3     7897     TIP3     H1       HT       0.417000       1.00800           0   0.00000       0.00000    
     48607 TIP3     7897     TIP3     H2       HT       0.417000       1.00800           0   0.00000     -0.301140E-02
     48608 TIP3     7898     TIP3     OH2      OT      -0.834000       15.9994           0   0.00000       0.00000    
     48609 TIP3     7898     TIP3     H1       HT       0.417000       1.00800           0   0.00000       0.00000    
     48610 TIP3     7898     TIP3     H2       HT       0.417000       1.00800           0   0.00000     -0.301140E-02
     48611 TIP3     7899     TIP3     OH2      OT      -0.834000       15.9994           0   0.00000       0.00000    
     48612 TIP3     7899     TIP3     H1       HT       0.417000       1.00800           0   0.00000       0.00000    
     48613 TIP3     7899     TIP3     H2       HT       0.417000       1.00800           0   0.00000     -0.301140E-02
     48614 TIP3     7900     TIP3     OH2      OT      -0.834000       15.9994           0   0.00000       0.00000    
     48615 TIP3     7900     TIP3     H1       HT       0.417000       1.00800           0   0.00000       0.00000    
     48616 TIP3     7900     TIP3     H2       HT       0.417000       1.00800           0   0.00000     -0.301140E-02
     48617 TIP3     7901     TIP3     OH2      OT      -0.834000       15.9994           0   0.00000       0.00000    
     48618 TIP3     7901     TIP3     H1       HT       0.417000       1.00800           0   0.00000       0.00000    
     48619 TIP3     7901     TIP3     H2       HT       0.417000       1.00800           0   0.00000     -0.301140E-02
     48620 TIP3     7902     TIP3     OH2      OT      -0.834000       15.9994           0   0.00000       0.00000    
     48621 TIP3     7902     TIP3     H1       HT       0.417000       1.00800           0   0.00000       0.00000    
     48622 TIP3     7902     TIP3     H2       HT       0.417000       1.00800           0   0.00000     -0.301140E-02
     48623 TIP3     7903     TIP3     OH2      OT      -0.834000       15.9994           0   0.00000       0.00000    
     48624 TIP3     7903     TIP3     H1       HT       0.417000       1.00800           0   0.00000       0.00000    
     48625 TIP3     7903     TIP3     H2       HT       0.417000       1.00800           0   0.00000     -0.301140E-02
     48626 TIP3     7904     TIP3     OH2      OT      -0.834000       15.9994           0   0.00000       0.00000    
     48627 TIP3     7904     TIP3     H1       HT       0.417000       1.00800           0   0.00000       0.00000    
     48628 TIP3     7904     TIP3     H2       HT       0.417000       1.00800           0   0.00000     -0.301140E-02
     48629 TIP3     7905     TIP3     OH2      OT      -0.834000       15.9994           0   0.00000       0.00000    
     48630 TIP3     7905     TIP3     H1       HT       0.417000       1.00800           0   0.00000       0.00000    
     48631 TIP3     7905     TIP3     H2       HT       0.417000       1.00800           0   0.00000     -0.301140E-02
     48632 TIP3     7906     TIP3     OH2      OT      -0.834000       15.9994           0   0.00000       0.00000    
     48633 TIP3     7906     TIP3     H1       HT       0.417000       1.00800           0   0.00000       0.00000    
     48634 TIP3     7906     TIP3     H2       HT       0.417000       1.00800           0   0.00000     -0.301140E-02
     48635 TIP3     7907     TIP3     OH2      OT      -0.834000       15.9994           0   0.00000       0.00000    
     48636 TIP3     7907     TIP3     H1       HT       0.417000       1.00800           0   0.00000       0.00000    
     48637 TIP3     7907     TIP3     H2       HT       0.417000       1.00800           0   0.00000     -0.301140E-02
     48638 TIP3     7908     TIP3     OH2      OT      -0.834000       15.9994           0   0.00000       0.00000    
     48639 TIP3     7908     TIP3     H1       HT       0.417000       1.00800           0   0.00000       0.00000    
     48640 TIP3     7908     TIP3     H2       HT       0.417000       1.00800           0   0.00000     -0.301140E-02
     48641 TIP3     7909     TIP3     OH2      OT      -0.834000       15.9994           0   0.00000       0.00000    
     48642 TIP3     7909     TIP3     H1       HT       0.417000       1.00800           0   0.00000       0.00000    
     48643 TIP3     7909     TIP3     H2       HT       0.417000       1.00800           0   0.00000     -0.301140E-02
     48644 TIP3     7910     TIP3     OH2      OT      -0.834000       15.9994           0   0.00000       0.00000    
     48645 TIP3     7910     TIP3     H1       HT       0.417000       1.00800           0   0.00000       0.00000    
     48646 TIP3     7910     TIP3     H2       HT       0.417000       1.00800           0   0.00000     -0.301140E-02
     48647 TIP3     7911     TIP3     OH2      OT      -0.834000       15.9994           0   0.00000       0.00000    
     48648 TIP3     7911     TIP3     H1       HT       0.417000       1.00800           0   0.00000       0.00000    
     48649 TIP3     7911     TIP3     H2       HT       0.417000       1.00800           0   0.00000     -0.301140E-02
     48650 TIP3     7912     TIP3     OH2      OT      -0.834000       15.9994           0   0.00000       0.00000    
     48651 TIP3     7912     TIP3     H1       HT       0.417000       1.00800           0   0.00000       0.00000    
     48652 TIP3     7912     TIP3     H2       HT       0.417000       1.00800           0   0.00000     -0.301140E-02
     48653 TIP3     7913     TIP3     OH2      OT      -0.834000       15.9994           0   0.00000       0.00000    
     48654 TIP3     7913     TIP3     H1       HT       0.417000       1.00800           0   0.00000       0.00000    
     48655 TIP3     7913     TIP3     H2       HT       0.417000       1.00800           0   0.00000     -0.301140E-02
     48656 TIP3     7914     TIP3     OH2      OT      -0.834000       15.9994           0   0.00000       0.00000    
     48657 TIP3     7914     TIP3     H1       HT       0.417000       1.00800           0   0.00000       0.00000    
     48658 TIP3     7914     TIP3     H2       HT       0.417000       1.00800           0   0.00000     -0.301140E-02
     48659 TIP3     7915     TIP3     OH2      OT      -0.834000       15.9994           0   0.00000       0.00000    
     48660 TIP3     7915     TIP3     H1       HT       0.417000       1.00800           0   0.00000       0.00000    
     48661 TIP3     7915     TIP3     H2       HT       0.417000       1.00800           0   0.00000     -0.301140E-02
     48662 TIP3     7916     TIP3     OH2      OT      -0.834000       15.9994           0   0.00000       0.00000    
     48663 TIP3     7916     TIP3     H1       HT       0.417000       1.00800           0   0.00000       0.00000    
     48664 TIP3     7916     TIP3     H2       HT       0.417000       1.00800           0   0.00000     -0.301140E-02
     48665 TIP3     7917     TIP3     OH2      OT      -0.834000       15.9994           0   0.00000       0.00000    
     48666 TIP3     7917     TIP3     H1       HT       0.417000       1.00800           0   0.00000       0.00000    
     48667 TIP3     7917     TIP3     H2       HT       0.417000       1.00800           0   0.00000     -0.301140E-02
     48668 TIP3     7918     TIP3     OH2      OT      -0.834000       15.9994           0   0.00000       0.00000    
     48669 TIP3     7918     TIP3     H1       HT       0.417000       1.00800           0   0.00000       0.00000    
     48670 TIP3     7918     TIP3     H2       HT       0.417000       1.00800           0   0.00000     -0.301140E-02
     48671 TIP3     7919     TIP3     OH2      OT      -0.834000       15.9994           0   0.00000       0.00000    
     48672 TIP3     7919     TIP3     H1       HT       0.417000       1.00800           0   0.00000       0.00000    
     48673 TIP3     7919     TIP3     H2       HT       0.417000       1.00800           0   0.00000     -0.301140E-02
     48674 TIP3     7920     TIP3     OH2      OT      -0.834000       15.9994           0   0.00000       0.00000    
     48675 TIP3     7920     TIP3     H1       HT       0.417000       1.00800           0   0.00000       0.00000    
     48676 TIP3     7920     TIP3     H2       HT       0.417000       1.00800           0   0.00000     -0.301140E-02
     48677 TIP3     7921     TIP3     OH2      OT      -0.834000       15.9994           0   0.00000       0.00000    
     48678 TIP3     7921     TIP3     H1       HT       0.417000       1.00800           0   0.00000       0.00000    
     48679 TIP3     7921     TIP3     H2       HT       0.417000       1.00800           0   0.00000     -0.301140E-02
     48680 TIP3     7922     TIP3     OH2      OT      -0.834000       15.9994           0   0.00000       0.00000    
     48681 TIP3     7922     TIP3     H1       HT       0.417000       1.00800           0   0.00000       0.00000    
     48682 TIP3     7922     TIP3     H2       HT       0.417000       1.00800           0   0.00000     -0.301140E-02
     48683 TIP3     7923     TIP3     OH2      OT      -0.834000       15.9994           0   0.00000       0.00000    
     48684 TIP3     7923     TIP3     H1       HT       0.417000       1.00800           0   0.00000       0.00000    
     48685 TIP3     7923     TIP3     H2       HT       0.417000       1.00800           0   0.00000     -0.301140E-02
     48686 TIP3     7924     TIP3     OH2      OT      -0.834000       15.9994           0   0.00000       0.00000    
     48687 TIP3     7924     TIP3     H1       HT       0.417000       1.00800           0   0.00000       0.00000    
     48688 TIP3     7924     TIP3     H2       HT       0.417000       1.00800           0   0.00000     -0.301140E-02
     48689 TIP3     7925     TIP3     OH2      OT      -0.834000       15.9994           0   0.00000       0.00000    
     48690 TIP3     7925     TIP3     H1       HT       0.417000       1.00800           0   0.00000       0.00000    
     48691 TIP3     7925     TIP3     H2       HT       0.417000       1.00800           0   0.00000     -0.301140E-02
     48692 TIP3     7926     TIP3     OH2      OT      -0.834000       15.9994           0   0.00000       0.00000    
     48693 TIP3     7926     TIP3     H1       HT       0.417000       1.00800           0   0.00000       0.00000    
     48694 TIP3     7926     TIP3     H2       HT       0.417000       1.00800           0   0.00000     -0.301140E-02
     48695 TIP3     7927     TIP3     OH2      OT      -0.834000       15.9994           0   0.00000       0.00000    
     48696 TIP3     7927     TIP3     H1       HT       0.417000       1.00800           0   0.00000       0.00000    
     48697 TIP3     7927     TIP3     H2       HT       0.417000       1.00800           0   0.00000     -0.301140E-02
     48698 TIP3     7928     TIP3     OH2      OT      -0.834000       15.9994           0   0.00000       0.00000    
     48699 TIP3     7928     TIP3     H1       HT       0.417000       1.00800           0   0.00000       0.00000    
     48700 TIP3     7928     TIP3     H2       HT       0.417000       1.00800           0   0.00000     -0.301140E-02
     48701 TIP3     7929     TIP3     OH2      OT      -0.834000       15.9994           0   0.00000       0.00000    
     48702 TIP3     7929     TIP3     H1       HT       0.417000       1.00800           0   0.00000       0.00000    
     48703 TIP3     7929     TIP3     H2       HT       0.417000       1.00800           0   0.00000     -0.301140E-02
     48704 TIP3     7930     TIP3     OH2      OT      -0.834000       15.9994           0   0.00000       0.00000    
     48705 TIP3     7930     TIP3     H1       HT       0.417000       1.00800           0   0.00000       0.00000    
     48706 TIP3     7930     TIP3     H2       HT       0.417000       1.00800           0   0.00000     -0.301140E-02
     48707 TIP3     7931     TIP3     OH2      OT      -0.834000       15.9994           0   0.00000       0.00000    
     48708 TIP3     7931     TIP3     H1       HT       0.417000       1.00800           0   0.00000       0.00000    
     48709 TIP3     7931     TIP3     H2       HT       0.417000       1.00800           0   0.00000     -0.301140E-02
     48710 TIP3     7932     TIP3     OH2      OT      -0.834000       15.9994           0   0.00000       0.00000    
     48711 TIP3     7932     TIP3     H1       HT       0.417000       1.00800           0   0.00000       0.00000    
     48712 TIP3     7932     TIP3     H2       HT       0.417000       1.00800           0   0.00000     -0.301140E-02
     48713 TIP3     7933     TIP3     OH2      OT      -0.834000       15.9994           0   0.00000       0.00000    
     48714 TIP3     7933     TIP3     H1       HT       0.417000       1.00800           0   0.00000       0.00000    
     48715 TIP3     7933     TIP3     H2       HT       0.417000       1.00800           0   0.00000     -0.301140E-02
     48716 TIP3     7934     TIP3     OH2      OT      -0.834000       15.9994           0   0.00000       0.00000    
     48717 TIP3     7934     TIP3     H1       HT       0.417000       1.00800           0   0.00000       0.00000    
     48718 TIP3     7934     TIP3     H2       HT       0.417000       1.00800           0   0.00000     -0.301140E-02
     48719 TIP3     7935     TIP3     OH2      OT      -0.834000       15.9994           0   0.00000       0.00000    
     48720 TIP3     7935     TIP3     H1       HT       0.417000       1.00800           0   0.00000       0.00000    
     48721 TIP3     7935     TIP3     H2       HT       0.417000       1.00800           0   0.00000     -0.301140E-02
     48722 TIP3     7936     TIP3     OH2      OT      -0.834000       15.9994           0   0.00000       0.00000    
     48723 TIP3     7936     TIP3     H1       HT       0.417000       1.00800           0   0.00000       0.00000    
     48724 TIP3     7936     TIP3     H2       HT       0.417000       1.00800           0   0.00000     -0.301140E-02
     48725 TIP3     7937     TIP3     OH2      OT      -0.834000       15.9994           0   0.00000       0.00000    
     48726 TIP3     7937     TIP3     H1       HT       0.417000       1.00800           0   0.00000       0.00000    
     48727 TIP3     7937     TIP3     H2       HT       0.417000       1.00800           0   0.00000     -0.301140E-02
     48728 TIP3     7938     TIP3     OH2      OT      -0.834000       15.9994           0   0.00000       0.00000    
     48729 TIP3     7938     TIP3     H1       HT       0.417000       1.00800           0   0.00000       0.00000    
     48730 TIP3     7938     TIP3     H2       HT       0.417000       1.00800           0   0.00000     -0.301140E-02
     48731 TIP3     7939     TIP3     OH2      OT      -0.834000       15.9994           0   0.00000       0.00000    
     48732 TIP3     7939     TIP3     H1       HT       0.417000       1.00800           0   0.00000       0.00000    
     48733 TIP3     7939     TIP3     H2       HT       0.417000       1.00800           0   0.00000     -0.301140E-02
     48734 TIP3     7940     TIP3     OH2      OT      -0.834000       15.9994           0   0.00000       0.00000    
     48735 TIP3     7940     TIP3     H1       HT       0.417000       1.00800           0   0.00000       0.00000    
     48736 TIP3     7940     TIP3     H2       HT       0.417000       1.00800           0   0.00000     -0.301140E-02
     48737 TIP3     7941     TIP3     OH2      OT      -0.834000       15.9994           0   0.00000       0.00000    
     48738 TIP3     7941     TIP3     H1       HT       0.417000       1.00800           0   0.00000       0.00000    
     48739 TIP3     7941     TIP3     H2       HT       0.417000       1.00800           0   0.00000     -0.301140E-02
     48740 TIP3     7942     TIP3     OH2      OT      -0.834000       15.9994           0   0.00000       0.00000    
     48741 TIP3     7942     TIP3     H1       HT       0.417000       1.00800           0   0.00000       0.00000    
     48742 TIP3     7942     TIP3     H2       HT       0.417000       1.00800           0   0.00000     -0.301140E-02
     48743 TIP3     7943     TIP3     OH2      OT      -0.834000       15.9994           0   0.00000       0.00000    
     48744 TIP3     7943     TIP3     H1       HT       0.417000       1.00800           0   0.00000       0.00000    
     48745 TIP3     7943     TIP3     H2       HT       0.417000       1.00800           0   0.00000     -0.301140E-02
     48746 TIP3     7944     TIP3     OH2      OT      -0.834000       15.9994           0   0.00000       0.00000    
     48747 TIP3     7944     TIP3     H1       HT       0.417000       1.00800           0   0.00000       0.00000    
     48748 TIP3     7944     TIP3     H2       HT       0.417000       1.00800           0   0.00000     -0.301140E-02
     48749 TIP3     7945     TIP3     OH2      OT      -0.834000       15.9994           0   0.00000       0.00000    
     48750 TIP3     7945     TIP3     H1       HT       0.417000       1.00800           0   0.00000       0.00000    
     48751 TIP3     7945     TIP3     H2       HT       0.417000       1.00800           0   0.00000     -0.301140E-02
     48752 TIP3     7946     TIP3     OH2      OT      -0.834000       15.9994           0   0.00000       0.00000    
     48753 TIP3     7946     TIP3     H1       HT       0.417000       1.00800           0   0.00000       0.00000    
     48754 TIP3     7946     TIP3     H2       HT       0.417000       1.00800           0   0.00000     -0.301140E-02
     48755 TIP3     7947     TIP3     OH2      OT      -0.834000       15.9994           0   0.00000       0.00000    
     48756 TIP3     7947     TIP3     H1       HT       0.417000       1.00800           0   0.00000       0.00000    
     48757 TIP3     7947     TIP3     H2       HT       0.417000       1.00800           0   0.00000     -0.301140E-02
     48758 TIP3     7948     TIP3     OH2      OT      -0.834000       15.9994           0   0.00000       0.00000    
     48759 TIP3     7948     TIP3     H1       HT       0.417000       1.00800           0   0.00000       0.00000    
     48760 TIP3     7948     TIP3     H2       HT       0.417000       1.00800           0   0.00000     -0.301140E-02
     48761 TIP3     7949     TIP3     OH2      OT      -0.834000       15.9994           0   0.00000       0.00000    
     48762 TIP3     7949     TIP3     H1       HT       0.417000       1.00800           0   0.00000       0.00000    
     48763 TIP3     7949     TIP3     H2       HT       0.417000       1.00800           0   0.00000     -0.301140E-02
     48764 TIP3     7950     TIP3     OH2      OT      -0.834000       15.9994           0   0.00000       0.00000    
     48765 TIP3     7950     TIP3     H1       HT       0.417000       1.00800           0   0.00000       0.00000    
     48766 TIP3     7950     TIP3     H2       HT       0.417000       1.00800           0   0.00000     -0.301140E-02
     48767 TIP3     7951     TIP3     OH2      OT      -0.834000       15.9994           0   0.00000       0.00000    
     48768 TIP3     7951     TIP3     H1       HT       0.417000       1.00800           0   0.00000       0.00000    
     48769 TIP3     7951     TIP3     H2       HT       0.417000       1.00800           0   0.00000     -0.301140E-02
     48770 TIP3     7952     TIP3     OH2      OT      -0.834000       15.9994           0   0.00000       0.00000    
     48771 TIP3     7952     TIP3     H1       HT       0.417000       1.00800           0   0.00000       0.00000    
     48772 TIP3     7952     TIP3     H2       HT       0.417000       1.00800           0   0.00000     -0.301140E-02
     48773 TIP3     7953     TIP3     OH2      OT      -0.834000       15.9994           0   0.00000       0.00000    
     48774 TIP3     7953     TIP3     H1       HT       0.417000       1.00800           0   0.00000       0.00000    
     48775 TIP3     7953     TIP3     H2       HT       0.417000       1.00800           0   0.00000     -0.301140E-02
     48776 TIP3     7954     TIP3     OH2      OT      -0.834000       15.9994           0   0.00000       0.00000    
     48777 TIP3     7954     TIP3     H1       HT       0.417000       1.00800           0   0.00000       0.00000    
     48778 TIP3     7954     TIP3     H2       HT       0.417000       1.00800           0   0.00000     -0.301140E-02
     48779 TIP3     7955     TIP3     OH2      OT      -0.834000       15.9994           0   0.00000       0.00000    
     48780 TIP3     7955     TIP3     H1       HT       0.417000       1.00800           0   0.00000       0.00000    
     48781 TIP3     7955     TIP3     H2       HT       0.417000       1.00800           0   0.00000     -0.301140E-02
     48782 TIP3     7956     TIP3     OH2      OT      -0.834000       15.9994           0   0.00000       0.00000    
     48783 TIP3     7956     TIP3     H1       HT       0.417000       1.00800           0   0.00000       0.00000    
     48784 TIP3     7956     TIP3     H2       HT       0.417000       1.00800           0   0.00000     -0.301140E-02
     48785 TIP3     7957     TIP3     OH2      OT      -0.834000       15.9994           0   0.00000       0.00000    
     48786 TIP3     7957     TIP3     H1       HT       0.417000       1.00800           0   0.00000       0.00000    
     48787 TIP3     7957     TIP3     H2       HT       0.417000       1.00800           0   0.00000     -0.301140E-02
     48788 TIP3     7958     TIP3     OH2      OT      -0.834000       15.9994           0   0.00000       0.00000    
     48789 TIP3     7958     TIP3     H1       HT       0.417000       1.00800           0   0.00000       0.00000    
     48790 TIP3     7958     TIP3     H2       HT       0.417000       1.00800           0   0.00000     -0.301140E-02
     48791 TIP3     7959     TIP3     OH2      OT      -0.834000       15.9994           0   0.00000       0.00000    
     48792 TIP3     7959     TIP3     H1       HT       0.417000       1.00800           0   0.00000       0.00000    
     48793 TIP3     7959     TIP3     H2       HT       0.417000       1.00800           0   0.00000     -0.301140E-02
     48794 TIP3     7960     TIP3     OH2      OT      -0.834000       15.9994           0   0.00000       0.00000    
     48795 TIP3     7960     TIP3     H1       HT       0.417000       1.00800           0   0.00000       0.00000    
     48796 TIP3     7960     TIP3     H2       HT       0.417000       1.00800           0   0.00000     -0.301140E-02
     48797 TIP3     7961     TIP3     OH2      OT      -0.834000       15.9994           0   0.00000       0.00000    
     48798 TIP3     7961     TIP3     H1       HT       0.417000       1.00800           0   0.00000       0.00000    
     48799 TIP3     7961     TIP3     H2       HT       0.417000       1.00800           0   0.00000     -0.301140E-02
     48800 TIP3     7962     TIP3     OH2      OT      -0.834000       15.9994           0   0.00000       0.00000    
     48801 TIP3     7962     TIP3     H1       HT       0.417000       1.00800           0   0.00000       0.00000    
     48802 TIP3     7962     TIP3     H2       HT       0.417000       1.00800           0   0.00000     -0.301140E-02
     48803 TIP3     7963     TIP3     OH2      OT      -0.834000       15.9994           0   0.00000       0.00000    
     48804 TIP3     7963     TIP3     H1       HT       0.417000       1.00800           0   0.00000       0.00000    
     48805 TIP3     7963     TIP3     H2       HT       0.417000       1.00800           0   0.00000     -0.301140E-02
     48806 TIP3     7964     TIP3     OH2      OT      -0.834000       15.9994           0   0.00000       0.00000    
     48807 TIP3     7964     TIP3     H1       HT       0.417000       1.00800           0   0.00000       0.00000    
     48808 TIP3     7964     TIP3     H2       HT       0.417000       1.00800           0   0.00000     -0.301140E-02
     48809 TIP3     7965     TIP3     OH2      OT      -0.834000       15.9994           0   0.00000       0.00000    
     48810 TIP3     7965     TIP3     H1       HT       0.417000       1.00800           0   0.00000       0.00000    
     48811 TIP3     7965     TIP3     H2       HT       0.417000       1.00800           0   0.00000     -0.301140E-02
     48812 TIP3     7966     TIP3     OH2      OT      -0.834000       15.9994           0   0.00000       0.00000    
     48813 TIP3     7966     TIP3     H1       HT       0.417000       1.00800           0   0.00000       0.00000    
     48814 TIP3     7966     TIP3     H2       HT       0.417000       1.00800           0   0.00000     -0.301140E-02
     48815 TIP3     7967     TIP3     OH2      OT      -0.834000       15.9994           0   0.00000       0.00000    
     48816 TIP3     7967     TIP3     H1       HT       0.417000       1.00800           0   0.00000       0.00000    
     48817 TIP3     7967     TIP3     H2       HT       0.417000       1.00800           0   0.00000     -0.301140E-02
     48818 TIP3     7968     TIP3     OH2      OT      -0.834000       15.9994           0   0.00000       0.00000    
     48819 TIP3     7968     TIP3     H1       HT       0.417000       1.00800           0   0.00000       0.00000    
     48820 TIP3     7968     TIP3     H2       HT       0.417000       1.00800           0   0.00000     -0.301140E-02
     48821 TIP3     7969     TIP3     OH2      OT      -0.834000       15.9994           0   0.00000       0.00000    
     48822 TIP3     7969     TIP3     H1       HT       0.417000       1.00800           0   0.00000       0.00000    
     48823 TIP3     7969     TIP3     H2       HT       0.417000       1.00800           0   0.00000     -0.301140E-02
     48824 TIP3     7970     TIP3     OH2      OT      -0.834000       15.9994           0   0.00000       0.00000    
     48825 TIP3     7970     TIP3     H1       HT       0.417000       1.00800           0   0.00000       0.00000    
     48826 TIP3     7970     TIP3     H2       HT       0.417000       1.00800           0   0.00000     -0.301140E-02
     48827 TIP3     7971     TIP3     OH2      OT      -0.834000       15.9994           0   0.00000       0.00000    
     48828 TIP3     7971     TIP3     H1       HT       0.417000       1.00800           0   0.00000       0.00000    
     48829 TIP3     7971     TIP3     H2       HT       0.417000       1.00800           0   0.00000     -0.301140E-02
     48830 TIP3     7972     TIP3     OH2      OT      -0.834000       15.9994           0   0.00000       0.00000    
     48831 TIP3     7972     TIP3     H1       HT       0.417000       1.00800           0   0.00000       0.00000    
     48832 TIP3     7972     TIP3     H2       HT       0.417000       1.00800           0   0.00000     -0.301140E-02
     48833 TIP3     7973     TIP3     OH2      OT      -0.834000       15.9994           0   0.00000       0.00000    
     48834 TIP3     7973     TIP3     H1       HT       0.417000       1.00800           0   0.00000       0.00000    
     48835 TIP3     7973     TIP3     H2       HT       0.417000       1.00800           0   0.00000     -0.301140E-02
     48836 TIP3     7974     TIP3     OH2      OT      -0.834000       15.9994           0   0.00000       0.00000    
     48837 TIP3     7974     TIP3     H1       HT       0.417000       1.00800           0   0.00000       0.00000    
     48838 TIP3     7974     TIP3     H2       HT       0.417000       1.00800           0   0.00000     -0.301140E-02
     48839 TIP3     7975     TIP3     OH2      OT      -0.834000       15.9994           0   0.00000       0.00000    
     48840 TIP3     7975     TIP3     H1       HT       0.417000       1.00800           0   0.00000       0.00000    
     48841 TIP3     7975     TIP3     H2       HT       0.417000       1.00800           0   0.00000     -0.301140E-02
     48842 TIP3     7976     TIP3     OH2      OT      -0.834000       15.9994           0   0.00000       0.00000    
     48843 TIP3     7976     TIP3     H1       HT       0.417000       1.00800           0   0.00000       0.00000    
     48844 TIP3     7976     TIP3     H2       HT       0.417000       1.00800           0   0.00000     -0.301140E-02
     48845 TIP3     7977     TIP3     OH2      OT      -0.834000       15.9994           0   0.00000       0.00000    
     48846 TIP3     7977     TIP3     H1       HT       0.417000       1.00800           0   0.00000       0.00000    
     48847 TIP3     7977     TIP3     H2       HT       0.417000       1.00800           0   0.00000     -0.301140E-02
     48848 TIP3     7978     TIP3     OH2      OT      -0.834000       15.9994           0   0.00000       0.00000    
     48849 TIP3     7978     TIP3     H1       HT       0.417000       1.00800           0   0.00000       0.00000    
     48850 TIP3     7978     TIP3     H2       HT       0.417000       1.00800           0   0.00000     -0.301140E-02
     48851 TIP3     7979     TIP3     OH2      OT      -0.834000       15.9994           0   0.00000       0.00000    
     48852 TIP3     7979     TIP3     H1       HT       0.417000       1.00800           0   0.00000       0.00000    
     48853 TIP3     7979     TIP3     H2       HT       0.417000       1.00800           0   0.00000     -0.301140E-02
     48854 TIP3     7980     TIP3     OH2      OT      -0.834000       15.9994           0   0.00000       0.00000    
     48855 TIP3     7980     TIP3     H1       HT       0.417000       1.00800           0   0.00000       0.00000    
     48856 TIP3     7980     TIP3     H2       HT       0.417000       1.00800           0   0.00000     -0.301140E-02
     48857 TIP3     7981     TIP3     OH2      OT      -0.834000       15.9994           0   0.00000       0.00000    
     48858 TIP3     7981     TIP3     H1       HT       0.417000       1.00800           0   0.00000       0.00000    
     48859 TIP3     7981     TIP3     H2       HT       0.417000       1.00800           0   0.00000     -0.301140E-02
     48860 TIP3     7982     TIP3     OH2      OT      -0.834000       15.9994           0   0.00000       0.00000    
     48861 TIP3     7982     TIP3     H1       HT       0.417000       1.00800           0   0.00000       0.00000    
     48862 TIP3     7982     TIP3     H2       HT       0.417000       1.00800           0   0.00000     -0.301140E-02
     48863 TIP3     7983     TIP3     OH2      OT      -0.834000       15.9994           0   0.00000       0.00000    
     48864 TIP3     7983     TIP3     H1       HT       0.417000       1.00800           0   0.00000       0.00000    
     48865 TIP3     7983     TIP3     H2       HT       0.417000       1.00800           0   0.00000     -0.301140E-02
     48866 TIP3     7984     TIP3     OH2      OT      -0.834000       15.9994           0   0.00000       0.00000    
     48867 TIP3     7984     TIP3     H1       HT       0.417000       1.00800           0   0.00000       0.00000    
     48868 TIP3     7984     TIP3     H2       HT       0.417000       1.00800           0   0.00000     -0.301140E-02
     48869 TIP3     7985     TIP3     OH2      OT      -0.834000       15.9994           0   0.00000       0.00000    
     48870 TIP3     7985     TIP3     H1       HT       0.417000       1.00800           0   0.00000       0.00000    
     48871 TIP3     7985     TIP3     H2       HT       0.417000       1.00800           0   0.00000     -0.301140E-02
     48872 TIP3     7986     TIP3     OH2      OT      -0.834000       15.9994           0   0.00000       0.00000    
     48873 TIP3     7986     TIP3     H1       HT       0.417000       1.00800           0   0.00000       0.00000    
     48874 TIP3     7986     TIP3     H2       HT       0.417000       1.00800           0   0.00000     -0.301140E-02
     48875 TIP3     7987     TIP3     OH2      OT      -0.834000       15.9994           0   0.00000       0.00000    
     48876 TIP3     7987     TIP3     H1       HT       0.417000       1.00800           0   0.00000       0.00000    
     48877 TIP3     7987     TIP3     H2       HT       0.417000       1.00800           0   0.00000     -0.301140E-02
     48878 TIP3     7988     TIP3     OH2      OT      -0.834000       15.9994           0   0.00000       0.00000    
     48879 TIP3     7988     TIP3     H1       HT       0.417000       1.00800           0   0.00000       0.00000    
     48880 TIP3     7988     TIP3     H2       HT       0.417000       1.00800           0   0.00000     -0.301140E-02
     48881 TIP3     7989     TIP3     OH2      OT      -0.834000       15.9994           0   0.00000       0.00000    
     48882 TIP3     7989     TIP3     H1       HT       0.417000       1.00800           0   0.00000       0.00000    
     48883 TIP3     7989     TIP3     H2       HT       0.417000       1.00800           0   0.00000     -0.301140E-02
     48884 TIP3     7990     TIP3     OH2      OT      -0.834000       15.9994           0   0.00000       0.00000    
     48885 TIP3     7990     TIP3     H1       HT       0.417000       1.00800           0   0.00000       0.00000    
     48886 TIP3     7990     TIP3     H2       HT       0.417000       1.00800           0   0.00000     -0.301140E-02
     48887 TIP3     7991     TIP3     OH2      OT      -0.834000       15.9994           0   0.00000       0.00000    
     48888 TIP3     7991     TIP3     H1       HT       0.417000       1.00800           0   0.00000       0.00000    
     48889 TIP3     7991     TIP3     H2       HT       0.417000       1.00800           0   0.00000     -0.301140E-02
     48890 TIP3     7992     TIP3     OH2      OT      -0.834000       15.9994           0   0.00000       0.00000    
     48891 TIP3     7992     TIP3     H1       HT       0.417000       1.00800           0   0.00000       0.00000    
     48892 TIP3     7992     TIP3     H2       HT       0.417000       1.00800           0   0.00000     -0.301140E-02
     48893 TIP3     7993     TIP3     OH2      OT      -0.834000       15.9994           0   0.00000       0.00000    
     48894 TIP3     7993     TIP3     H1       HT       0.417000       1.00800           0   0.00000       0.00000    
     48895 TIP3     7993     TIP3     H2       HT       0.417000       1.00800           0   0.00000     -0.301140E-02
     48896 TIP3     7994     TIP3     OH2      OT      -0.834000       15.9994           0   0.00000       0.00000    
     48897 TIP3     7994     TIP3     H1       HT       0.417000       1.00800           0   0.00000       0.00000    
     48898 TIP3     7994     TIP3     H2       HT       0.417000       1.00800           0   0.00000     -0.301140E-02
     48899 TIP3     7995     TIP3     OH2      OT      -0.834000       15.9994           0   0.00000       0.00000    
     48900 TIP3     7995     TIP3     H1       HT       0.417000       1.00800           0   0.00000       0.00000    
     48901 TIP3     7995     TIP3     H2       HT       0.417000       1.00800           0   0.00000     -0.301140E-02
     48902 TIP3     7996     TIP3     OH2      OT      -0.834000       15.9994           0   0.00000       0.00000    
     48903 TIP3     7996     TIP3     H1       HT       0.417000       1.00800           0   0.00000       0.00000    
     48904 TIP3     7996     TIP3     H2       HT       0.417000       1.00800           0   0.00000     -0.301140E-02
     48905 TIP3     7997     TIP3     OH2      OT      -0.834000       15.9994           0   0.00000       0.00000    
     48906 TIP3     7997     TIP3     H1       HT       0.417000       1.00800           0   0.00000       0.00000    
     48907 TIP3     7997     TIP3     H2       HT       0.417000       1.00800           0   0.00000     -0.301140E-02
     48908 TIP3     7998     TIP3     OH2      OT      -0.834000       15.9994           0   0.00000       0.00000    
     48909 TIP3     7998     TIP3     H1       HT       0.417000       1.00800           0   0.00000       0.00000    
     48910 TIP3     7998     TIP3     H2       HT       0.417000       1.00800           0   0.00000     -0.301140E-02
     48911 TIP3     7999     TIP3     OH2      OT      -0.834000       15.9994           0   0.00000       0.00000    
     48912 TIP3     7999     TIP3     H1       HT       0.417000       1.00800           0   0.00000       0.00000    
     48913 TIP3     7999     TIP3     H2       HT       0.417000       1.00800           0   0.00000     -0.301140E-02
     48914 TIP3     8000     TIP3     OH2      OT      -0.834000       15.9994           0   0.00000       0.00000    
     48915 TIP3     8000     TIP3     H1       HT       0.417000       1.00800           0   0.00000       0.00000    
     48916 TIP3     8000     TIP3     H2       HT       0.417000       1.00800           0   0.00000     -0.301140E-02
     48917 TIP3     8001     TIP3     OH2      OT      -0.834000       15.9994           0   0.00000       0.00000    
     48918 TIP3     8001     TIP3     H1       HT       0.417000       1.00800           0   0.00000       0.00000    
     48919 TIP3     8001     TIP3     H2       HT       0.417000       1.00800           0   0.00000     -0.301140E-02
     48920 TIP3     8002     TIP3     OH2      OT      -0.834000       15.9994           0   0.00000       0.00000    
     48921 TIP3     8002     TIP3     H1       HT       0.417000       1.00800           0   0.00000       0.00000    
     48922 TIP3     8002     TIP3     H2       HT       0.417000       1.00800           0   0.00000     -0.301140E-02
     48923 TIP3     8003     TIP3     OH2      OT      -0.834000       15.9994           0   0.00000       0.00000    
     48924 TIP3     8003     TIP3     H1       HT       0.417000       1.00800           0   0.00000       0.00000    
     48925 TIP3     8003     TIP3     H2       HT       0.417000       1.00800           0   0.00000     -0.301140E-02
     48926 TIP3     8004     TIP3     OH2      OT      -0.834000       15.9994           0   0.00000       0.00000    
     48927 TIP3     8004     TIP3     H1       HT       0.417000       1.00800           0   0.00000       0.00000    
     48928 TIP3     8004     TIP3     H2       HT       0.417000       1.00800           0   0.00000     -0.301140E-02
     48929 TIP3     8005     TIP3     OH2      OT      -0.834000       15.9994           0   0.00000       0.00000    
     48930 TIP3     8005     TIP3     H1       HT       0.417000       1.00800           0   0.00000       0.00000    
     48931 TIP3     8005     TIP3     H2       HT       0.417000       1.00800           0   0.00000     -0.301140E-02
     48932 TIP3     8006     TIP3     OH2      OT      -0.834000       15.9994           0   0.00000       0.00000    
     48933 TIP3     8006     TIP3     H1       HT       0.417000       1.00800           0   0.00000       0.00000    
     48934 TIP3     8006     TIP3     H2       HT       0.417000       1.00800           0   0.00000     -0.301140E-02
     48935 TIP3     8007     TIP3     OH2      OT      -0.834000       15.9994           0   0.00000       0.00000    
     48936 TIP3     8007     TIP3     H1       HT       0.417000       1.00800           0   0.00000       0.00000    
     48937 TIP3     8007     TIP3     H2       HT       0.417000       1.00800           0   0.00000     -0.301140E-02
     48938 TIP3     8008     TIP3     OH2      OT      -0.834000       15.9994           0   0.00000       0.00000    
     48939 TIP3     8008     TIP3     H1       HT       0.417000       1.00800           0   0.00000       0.00000    
     48940 TIP3     8008     TIP3     H2       HT       0.417000       1.00800           0   0.00000     -0.301140E-02
     48941 TIP3     8009     TIP3     OH2      OT      -0.834000       15.9994           0   0.00000       0.00000    
     48942 TIP3     8009     TIP3     H1       HT       0.417000       1.00800           0   0.00000       0.00000    
     48943 TIP3     8009     TIP3     H2       HT       0.417000       1.00800           0   0.00000     -0.301140E-02
     48944 TIP3     8010     TIP3     OH2      OT      -0.834000       15.9994           0   0.00000       0.00000    
     48945 TIP3     8010     TIP3     H1       HT       0.417000       1.00800           0   0.00000       0.00000    
     48946 TIP3     8010     TIP3     H2       HT       0.417000       1.00800           0   0.00000     -0.301140E-02
     48947 TIP3     8011     TIP3     OH2      OT      -0.834000       15.9994           0   0.00000       0.00000    
     48948 TIP3     8011     TIP3     H1       HT       0.417000       1.00800           0   0.00000       0.00000    
     48949 TIP3     8011     TIP3     H2       HT       0.417000       1.00800           0   0.00000     -0.301140E-02
     48950 TIP3     8012     TIP3     OH2      OT      -0.834000       15.9994           0   0.00000       0.00000    
     48951 TIP3     8012     TIP3     H1       HT       0.417000       1.00800           0   0.00000       0.00000    
     48952 TIP3     8012     TIP3     H2       HT       0.417000       1.00800           0   0.00000     -0.301140E-02
     48953 TIP3     8013     TIP3     OH2      OT      -0.834000       15.9994           0   0.00000       0.00000    
     48954 TIP3     8013     TIP3     H1       HT       0.417000       1.00800           0   0.00000       0.00000    
     48955 TIP3     8013     TIP3     H2       HT       0.417000       1.00800           0   0.00000     -0.301140E-02
     48956 TIP3     8014     TIP3     OH2      OT      -0.834000       15.9994           0   0.00000       0.00000    
     48957 TIP3     8014     TIP3     H1       HT       0.417000       1.00800           0   0.00000       0.00000    
     48958 TIP3     8014     TIP3     H2       HT       0.417000       1.00800           0   0.00000     -0.301140E-02
     48959 TIP3     8015     TIP3     OH2      OT      -0.834000       15.9994           0   0.00000       0.00000    
     48960 TIP3     8015     TIP3     H1       HT       0.417000       1.00800           0   0.00000       0.00000    
     48961 TIP3     8015     TIP3     H2       HT       0.417000       1.00800           0   0.00000     -0.301140E-02
     48962 TIP3     8016     TIP3     OH2      OT      -0.834000       15.9994           0   0.00000       0.00000    
     48963 TIP3     8016     TIP3     H1       HT       0.417000       1.00800           0   0.00000       0.00000    
     48964 TIP3     8016     TIP3     H2       HT       0.417000       1.00800           0   0.00000     -0.301140E-02
     48965 TIP3     8017     TIP3     OH2      OT      -0.834000       15.9994           0   0.00000       0.00000    
     48966 TIP3     8017     TIP3     H1       HT       0.417000       1.00800           0   0.00000       0.00000    
     48967 TIP3     8017     TIP3     H2       HT       0.417000       1.00800           0   0.00000     -0.301140E-02
     48968 TIP3     8018     TIP3     OH2      OT      -0.834000       15.9994           0   0.00000       0.00000    
     48969 TIP3     8018     TIP3     H1       HT       0.417000       1.00800           0   0.00000       0.00000    
     48970 TIP3     8018     TIP3     H2       HT       0.417000       1.00800           0   0.00000     -0.301140E-02
     48971 TIP3     8019     TIP3     OH2      OT      -0.834000       15.9994           0   0.00000       0.00000    
     48972 TIP3     8019     TIP3     H1       HT       0.417000       1.00800           0   0.00000       0.00000    
     48973 TIP3     8019     TIP3     H2       HT       0.417000       1.00800           0   0.00000     -0.301140E-02
     48974 TIP3     8020     TIP3     OH2      OT      -0.834000       15.9994           0   0.00000       0.00000    
     48975 TIP3     8020     TIP3     H1       HT       0.417000       1.00800           0   0.00000       0.00000    
     48976 TIP3     8020     TIP3     H2       HT       0.417000       1.00800           0   0.00000     -0.301140E-02
     48977 TIP3     8021     TIP3     OH2      OT      -0.834000       15.9994           0   0.00000       0.00000    
     48978 TIP3     8021     TIP3     H1       HT       0.417000       1.00800           0   0.00000       0.00000    
     48979 TIP3     8021     TIP3     H2       HT       0.417000       1.00800           0   0.00000     -0.301140E-02
     48980 TIP3     8022     TIP3     OH2      OT      -0.834000       15.9994           0   0.00000       0.00000    
     48981 TIP3     8022     TIP3     H1       HT       0.417000       1.00800           0   0.00000       0.00000    
     48982 TIP3     8022     TIP3     H2       HT       0.417000       1.00800           0   0.00000     -0.301140E-02
     48983 TIP3     8023     TIP3     OH2      OT      -0.834000       15.9994           0   0.00000       0.00000    
     48984 TIP3     8023     TIP3     H1       HT       0.417000       1.00800           0   0.00000       0.00000    
     48985 TIP3     8023     TIP3     H2       HT       0.417000       1.00800           0   0.00000     -0.301140E-02
     48986 TIP3     8024     TIP3     OH2      OT      -0.834000       15.9994           0   0.00000       0.00000    
     48987 TIP3     8024     TIP3     H1       HT       0.417000       1.00800           0   0.00000       0.00000    
     48988 TIP3     8024     TIP3     H2       HT       0.417000       1.00800           0   0.00000     -0.301140E-02
     48989 TIP3     8025     TIP3     OH2      OT      -0.834000       15.9994           0   0.00000       0.00000    
     48990 TIP3     8025     TIP3     H1       HT       0.417000       1.00800           0   0.00000       0.00000    
     48991 TIP3     8025     TIP3     H2       HT       0.417000       1.00800           0   0.00000     -0.301140E-02
     48992 TIP3     8026     TIP3     OH2      OT      -0.834000       15.9994           0   0.00000       0.00000    
     48993 TIP3     8026     TIP3     H1       HT       0.417000       1.00800           0   0.00000       0.00000    
     48994 TIP3     8026     TIP3     H2       HT       0.417000       1.00800           0   0.00000     -0.301140E-02
     48995 TIP3     8027     TIP3     OH2      OT      -0.834000       15.9994           0   0.00000       0.00000    
     48996 TIP3     8027     TIP3     H1       HT       0.417000       1.00800           0   0.00000       0.00000    
     48997 TIP3     8027     TIP3     H2       HT       0.417000       1.00800           0   0.00000     -0.301140E-02
     48998 TIP3     8028     TIP3     OH2      OT      -0.834000       15.9994           0   0.00000       0.00000    
     48999 TIP3     8028     TIP3     H1       HT       0.417000       1.00800           0   0.00000       0.00000    
     49000 TIP3     8028     TIP3     H2       HT       0.417000       1.00800           0   0.00000     -0.301140E-02
     49001 TIP3     8029     TIP3     OH2      OT      -0.834000       15.9994           0   0.00000       0.00000    
     49002 TIP3     8029     TIP3     H1       HT       0.417000       1.00800           0   0.00000       0.00000    
     49003 TIP3     8029     TIP3     H2       HT       0.417000       1.00800           0   0.00000     -0.301140E-02
     49004 TIP3     8030     TIP3     OH2      OT      -0.834000       15.9994           0   0.00000       0.00000    
     49005 TIP3     8030     TIP3     H1       HT       0.417000       1.00800           0   0.00000       0.00000    
     49006 TIP3     8030     TIP3     H2       HT       0.417000       1.00800           0   0.00000     -0.301140E-02
     49007 TIP3     8031     TIP3     OH2      OT      -0.834000       15.9994           0   0.00000       0.00000    
     49008 TIP3     8031     TIP3     H1       HT       0.417000       1.00800           0   0.00000       0.00000    
     49009 TIP3     8031     TIP3     H2       HT       0.417000       1.00800           0   0.00000     -0.301140E-02
     49010 TIP3     8032     TIP3     OH2      OT      -0.834000       15.9994           0   0.00000       0.00000    
     49011 TIP3     8032     TIP3     H1       HT       0.417000       1.00800           0   0.00000       0.00000    
     49012 TIP3     8032     TIP3     H2       HT       0.417000       1.00800           0   0.00000     -0.301140E-02
     49013 TIP3     8033     TIP3     OH2      OT      -0.834000       15.9994           0   0.00000       0.00000    
     49014 TIP3     8033     TIP3     H1       HT       0.417000       1.00800           0   0.00000       0.00000    
     49015 TIP3     8033     TIP3     H2       HT       0.417000       1.00800           0   0.00000     -0.301140E-02
     49016 TIP3     8034     TIP3     OH2      OT      -0.834000       15.9994           0   0.00000       0.00000    
     49017 TIP3     8034     TIP3     H1       HT       0.417000       1.00800           0   0.00000       0.00000    
     49018 TIP3     8034     TIP3     H2       HT       0.417000       1.00800           0   0.00000     -0.301140E-02
     49019 TIP3     8035     TIP3     OH2      OT      -0.834000       15.9994           0   0.00000       0.00000    
     49020 TIP3     8035     TIP3     H1       HT       0.417000       1.00800           0   0.00000       0.00000    
     49021 TIP3     8035     TIP3     H2       HT       0.417000       1.00800           0   0.00000     -0.301140E-02
     49022 TIP3     8036     TIP3     OH2      OT      -0.834000       15.9994           0   0.00000       0.00000    
     49023 TIP3     8036     TIP3     H1       HT       0.417000       1.00800           0   0.00000       0.00000    
     49024 TIP3     8036     TIP3     H2       HT       0.417000       1.00800           0   0.00000     -0.301140E-02
     49025 TIP3     8037     TIP3     OH2      OT      -0.834000       15.9994           0   0.00000       0.00000    
     49026 TIP3     8037     TIP3     H1       HT       0.417000       1.00800           0   0.00000       0.00000    
     49027 TIP3     8037     TIP3     H2       HT       0.417000       1.00800           0   0.00000     -0.301140E-02
     49028 TIP3     8038     TIP3     OH2      OT      -0.834000       15.9994           0   0.00000       0.00000    
     49029 TIP3     8038     TIP3     H1       HT       0.417000       1.00800           0   0.00000       0.00000    
     49030 TIP3     8038     TIP3     H2       HT       0.417000       1.00800           0   0.00000     -0.301140E-02
     49031 TIP3     8039     TIP3     OH2      OT      -0.834000       15.9994           0   0.00000       0.00000    
     49032 TIP3     8039     TIP3     H1       HT       0.417000       1.00800           0   0.00000       0.00000    
     49033 TIP3     8039     TIP3     H2       HT       0.417000       1.00800           0   0.00000     -0.301140E-02
     49034 TIP3     8040     TIP3     OH2      OT      -0.834000       15.9994           0   0.00000       0.00000    
     49035 TIP3     8040     TIP3     H1       HT       0.417000       1.00800           0   0.00000       0.00000    
     49036 TIP3     8040     TIP3     H2       HT       0.417000       1.00800           0   0.00000     -0.301140E-02
     49037 TIP3     8041     TIP3     OH2      OT      -0.834000       15.9994           0   0.00000       0.00000    
     49038 TIP3     8041     TIP3     H1       HT       0.417000       1.00800           0   0.00000       0.00000    
     49039 TIP3     8041     TIP3     H2       HT       0.417000       1.00800           0   0.00000     -0.301140E-02
     49040 TIP3     8042     TIP3     OH2      OT      -0.834000       15.9994           0   0.00000       0.00000    
     49041 TIP3     8042     TIP3     H1       HT       0.417000       1.00800           0   0.00000       0.00000    
     49042 TIP3     8042     TIP3     H2       HT       0.417000       1.00800           0   0.00000     -0.301140E-02
     49043 TIP3     8043     TIP3     OH2      OT      -0.834000       15.9994           0   0.00000       0.00000    
     49044 TIP3     8043     TIP3     H1       HT       0.417000       1.00800           0   0.00000       0.00000    
     49045 TIP3     8043     TIP3     H2       HT       0.417000       1.00800           0   0.00000     -0.301140E-02
     49046 TIP3     8044     TIP3     OH2      OT      -0.834000       15.9994           0   0.00000       0.00000    
     49047 TIP3     8044     TIP3     H1       HT       0.417000       1.00800           0   0.00000       0.00000    
     49048 TIP3     8044     TIP3     H2       HT       0.417000       1.00800           0   0.00000     -0.301140E-02
     49049 TIP3     8045     TIP3     OH2      OT      -0.834000       15.9994           0   0.00000       0.00000    
     49050 TIP3     8045     TIP3     H1       HT       0.417000       1.00800           0   0.00000       0.00000    
     49051 TIP3     8045     TIP3     H2       HT       0.417000       1.00800           0   0.00000     -0.301140E-02
     49052 TIP3     8046     TIP3     OH2      OT      -0.834000       15.9994           0   0.00000       0.00000    
     49053 TIP3     8046     TIP3     H1       HT       0.417000       1.00800           0   0.00000       0.00000    
     49054 TIP3     8046     TIP3     H2       HT       0.417000       1.00800           0   0.00000     -0.301140E-02
     49055 TIP3     8047     TIP3     OH2      OT      -0.834000       15.9994           0   0.00000       0.00000    
     49056 TIP3     8047     TIP3     H1       HT       0.417000       1.00800           0   0.00000       0.00000    
     49057 TIP3     8047     TIP3     H2       HT       0.417000       1.00800           0   0.00000     -0.301140E-02
     49058 TIP3     8048     TIP3     OH2      OT      -0.834000       15.9994           0   0.00000       0.00000    
     49059 TIP3     8048     TIP3     H1       HT       0.417000       1.00800           0   0.00000       0.00000    
     49060 TIP3     8048     TIP3     H2       HT       0.417000       1.00800           0   0.00000     -0.301140E-02
     49061 TIP3     8049     TIP3     OH2      OT      -0.834000       15.9994           0   0.00000       0.00000    
     49062 TIP3     8049     TIP3     H1       HT       0.417000       1.00800           0   0.00000       0.00000    
     49063 TIP3     8049     TIP3     H2       HT       0.417000       1.00800           0   0.00000     -0.301140E-02
     49064 TIP3     8050     TIP3     OH2      OT      -0.834000       15.9994           0   0.00000       0.00000    
     49065 TIP3     8050     TIP3     H1       HT       0.417000       1.00800           0   0.00000       0.00000    
     49066 TIP3     8050     TIP3     H2       HT       0.417000       1.00800           0   0.00000     -0.301140E-02
     49067 TIP3     8051     TIP3     OH2      OT      -0.834000       15.9994           0   0.00000       0.00000    
     49068 TIP3     8051     TIP3     H1       HT       0.417000       1.00800           0   0.00000       0.00000    
     49069 TIP3     8051     TIP3     H2       HT       0.417000       1.00800           0   0.00000     -0.301140E-02
     49070 TIP3     8052     TIP3     OH2      OT      -0.834000       15.9994           0   0.00000       0.00000    
     49071 TIP3     8052     TIP3     H1       HT       0.417000       1.00800           0   0.00000       0.00000    
     49072 TIP3     8052     TIP3     H2       HT       0.417000       1.00800           0   0.00000     -0.301140E-02
     49073 TIP3     8053     TIP3     OH2      OT      -0.834000       15.9994           0   0.00000       0.00000    
     49074 TIP3     8053     TIP3     H1       HT       0.417000       1.00800           0   0.00000       0.00000    
     49075 TIP3     8053     TIP3     H2       HT       0.417000       1.00800           0   0.00000     -0.301140E-02
     49076 TIP3     8054     TIP3     OH2      OT      -0.834000       15.9994           0   0.00000       0.00000    
     49077 TIP3     8054     TIP3     H1       HT       0.417000       1.00800           0   0.00000       0.00000    
     49078 TIP3     8054     TIP3     H2       HT       0.417000       1.00800           0   0.00000     -0.301140E-02
     49079 TIP3     8055     TIP3     OH2      OT      -0.834000       15.9994           0   0.00000       0.00000    
     49080 TIP3     8055     TIP3     H1       HT       0.417000       1.00800           0   0.00000       0.00000    
     49081 TIP3     8055     TIP3     H2       HT       0.417000       1.00800           0   0.00000     -0.301140E-02
     49082 TIP3     8056     TIP3     OH2      OT      -0.834000       15.9994           0   0.00000       0.00000    
     49083 TIP3     8056     TIP3     H1       HT       0.417000       1.00800           0   0.00000       0.00000    
     49084 TIP3     8056     TIP3     H2       HT       0.417000       1.00800           0   0.00000     -0.301140E-02
     49085 TIP3     8057     TIP3     OH2      OT      -0.834000       15.9994           0   0.00000       0.00000    
     49086 TIP3     8057     TIP3     H1       HT       0.417000       1.00800           0   0.00000       0.00000    
     49087 TIP3     8057     TIP3     H2       HT       0.417000       1.00800           0   0.00000     -0.301140E-02
     49088 TIP3     8058     TIP3     OH2      OT      -0.834000       15.9994           0   0.00000       0.00000    
     49089 TIP3     8058     TIP3     H1       HT       0.417000       1.00800           0   0.00000       0.00000    
     49090 TIP3     8058     TIP3     H2       HT       0.417000       1.00800           0   0.00000     -0.301140E-02
     49091 TIP3     8059     TIP3     OH2      OT      -0.834000       15.9994           0   0.00000       0.00000    
     49092 TIP3     8059     TIP3     H1       HT       0.417000       1.00800           0   0.00000       0.00000    
     49093 TIP3     8059     TIP3     H2       HT       0.417000       1.00800           0   0.00000     -0.301140E-02
     49094 TIP3     8060     TIP3     OH2      OT      -0.834000       15.9994           0   0.00000       0.00000    
     49095 TIP3     8060     TIP3     H1       HT       0.417000       1.00800           0   0.00000       0.00000    
     49096 TIP3     8060     TIP3     H2       HT       0.417000       1.00800           0   0.00000     -0.301140E-02
     49097 TIP3     8061     TIP3     OH2      OT      -0.834000       15.9994           0   0.00000       0.00000    
     49098 TIP3     8061     TIP3     H1       HT       0.417000       1.00800           0   0.00000       0.00000    
     49099 TIP3     8061     TIP3     H2       HT       0.417000       1.00800           0   0.00000     -0.301140E-02
     49100 TIP3     8062     TIP3     OH2      OT      -0.834000       15.9994           0   0.00000       0.00000    
     49101 TIP3     8062     TIP3     H1       HT       0.417000       1.00800           0   0.00000       0.00000    
     49102 TIP3     8062     TIP3     H2       HT       0.417000       1.00800           0   0.00000     -0.301140E-02
     49103 TIP3     8063     TIP3     OH2      OT      -0.834000       15.9994           0   0.00000       0.00000    
     49104 TIP3     8063     TIP3     H1       HT       0.417000       1.00800           0   0.00000       0.00000    
     49105 TIP3     8063     TIP3     H2       HT       0.417000       1.00800           0   0.00000     -0.301140E-02
     49106 TIP3     8064     TIP3     OH2      OT      -0.834000       15.9994           0   0.00000       0.00000    
     49107 TIP3     8064     TIP3     H1       HT       0.417000       1.00800           0   0.00000       0.00000    
     49108 TIP3     8064     TIP3     H2       HT       0.417000       1.00800           0   0.00000     -0.301140E-02
     49109 TIP3     8065     TIP3     OH2      OT      -0.834000       15.9994           0   0.00000       0.00000    
     49110 TIP3     8065     TIP3     H1       HT       0.417000       1.00800           0   0.00000       0.00000    
     49111 TIP3     8065     TIP3     H2       HT       0.417000       1.00800           0   0.00000     -0.301140E-02
     49112 TIP3     8066     TIP3     OH2      OT      -0.834000       15.9994           0   0.00000       0.00000    
     49113 TIP3     8066     TIP3     H1       HT       0.417000       1.00800           0   0.00000       0.00000    
     49114 TIP3     8066     TIP3     H2       HT       0.417000       1.00800           0   0.00000     -0.301140E-02
     49115 TIP3     8067     TIP3     OH2      OT      -0.834000       15.9994           0   0.00000       0.00000    
     49116 TIP3     8067     TIP3     H1       HT       0.417000       1.00800           0   0.00000       0.00000    
     49117 TIP3     8067     TIP3     H2       HT       0.417000       1.00800           0   0.00000     -0.301140E-02
     49118 TIP3     8068     TIP3     OH2      OT      -0.834000       15.9994           0   0.00000       0.00000    
     49119 TIP3     8068     TIP3     H1       HT       0.417000       1.00800           0   0.00000       0.00000    
     49120 TIP3     8068     TIP3     H2       HT       0.417000       1.00800           0   0.00000     -0.301140E-02
     49121 TIP3     8069     TIP3     OH2      OT      -0.834000       15.9994           0   0.00000       0.00000    
     49122 TIP3     8069     TIP3     H1       HT       0.417000       1.00800           0   0.00000       0.00000    
     49123 TIP3     8069     TIP3     H2       HT       0.417000       1.00800           0   0.00000     -0.301140E-02
     49124 TIP3     8070     TIP3     OH2      OT      -0.834000       15.9994           0   0.00000       0.00000    
     49125 TIP3     8070     TIP3     H1       HT       0.417000       1.00800           0   0.00000       0.00000    
     49126 TIP3     8070     TIP3     H2       HT       0.417000       1.00800           0   0.00000     -0.301140E-02
     49127 TIP3     8071     TIP3     OH2      OT      -0.834000       15.9994           0   0.00000       0.00000    
     49128 TIP3     8071     TIP3     H1       HT       0.417000       1.00800           0   0.00000       0.00000    
     49129 TIP3     8071     TIP3     H2       HT       0.417000       1.00800           0   0.00000     -0.301140E-02
     49130 TIP3     8072     TIP3     OH2      OT      -0.834000       15.9994           0   0.00000       0.00000    
     49131 TIP3     8072     TIP3     H1       HT       0.417000       1.00800           0   0.00000       0.00000    
     49132 TIP3     8072     TIP3     H2       HT       0.417000       1.00800           0   0.00000     -0.301140E-02
     49133 TIP3     8073     TIP3     OH2      OT      -0.834000       15.9994           0   0.00000       0.00000    
     49134 TIP3     8073     TIP3     H1       HT       0.417000       1.00800           0   0.00000       0.00000    
     49135 TIP3     8073     TIP3     H2       HT       0.417000       1.00800           0   0.00000     -0.301140E-02
     49136 TIP3     8074     TIP3     OH2      OT      -0.834000       15.9994           0   0.00000       0.00000    
     49137 TIP3     8074     TIP3     H1       HT       0.417000       1.00800           0   0.00000       0.00000    
     49138 TIP3     8074     TIP3     H2       HT       0.417000       1.00800           0   0.00000     -0.301140E-02
     49139 TIP3     8075     TIP3     OH2      OT      -0.834000       15.9994           0   0.00000       0.00000    
     49140 TIP3     8075     TIP3     H1       HT       0.417000       1.00800           0   0.00000       0.00000    
     49141 TIP3     8075     TIP3     H2       HT       0.417000       1.00800           0   0.00000     -0.301140E-02
     49142 TIP3     8076     TIP3     OH2      OT      -0.834000       15.9994           0   0.00000       0.00000    
     49143 TIP3     8076     TIP3     H1       HT       0.417000       1.00800           0   0.00000       0.00000    
     49144 TIP3     8076     TIP3     H2       HT       0.417000       1.00800           0   0.00000     -0.301140E-02
     49145 TIP3     8077     TIP3     OH2      OT      -0.834000       15.9994           0   0.00000       0.00000    
     49146 TIP3     8077     TIP3     H1       HT       0.417000       1.00800           0   0.00000       0.00000    
     49147 TIP3     8077     TIP3     H2       HT       0.417000       1.00800           0   0.00000     -0.301140E-02
     49148 TIP3     8078     TIP3     OH2      OT      -0.834000       15.9994           0   0.00000       0.00000    
     49149 TIP3     8078     TIP3     H1       HT       0.417000       1.00800           0   0.00000       0.00000    
     49150 TIP3     8078     TIP3     H2       HT       0.417000       1.00800           0   0.00000     -0.301140E-02
     49151 TIP3     8079     TIP3     OH2      OT      -0.834000       15.9994           0   0.00000       0.00000    
     49152 TIP3     8079     TIP3     H1       HT       0.417000       1.00800           0   0.00000       0.00000    
     49153 TIP3     8079     TIP3     H2       HT       0.417000       1.00800           0   0.00000     -0.301140E-02
     49154 TIP3     8080     TIP3     OH2      OT      -0.834000       15.9994           0   0.00000       0.00000    
     49155 TIP3     8080     TIP3     H1       HT       0.417000       1.00800           0   0.00000       0.00000    
     49156 TIP3     8080     TIP3     H2       HT       0.417000       1.00800           0   0.00000     -0.301140E-02
     49157 TIP3     8081     TIP3     OH2      OT      -0.834000       15.9994           0   0.00000       0.00000    
     49158 TIP3     8081     TIP3     H1       HT       0.417000       1.00800           0   0.00000       0.00000    
     49159 TIP3     8081     TIP3     H2       HT       0.417000       1.00800           0   0.00000     -0.301140E-02
     49160 TIP3     8082     TIP3     OH2      OT      -0.834000       15.9994           0   0.00000       0.00000    
     49161 TIP3     8082     TIP3     H1       HT       0.417000       1.00800           0   0.00000       0.00000    
     49162 TIP3     8082     TIP3     H2       HT       0.417000       1.00800           0   0.00000     -0.301140E-02
     49163 TIP3     8083     TIP3     OH2      OT      -0.834000       15.9994           0   0.00000       0.00000    
     49164 TIP3     8083     TIP3     H1       HT       0.417000       1.00800           0   0.00000       0.00000    
     49165 TIP3     8083     TIP3     H2       HT       0.417000       1.00800           0   0.00000     -0.301140E-02
     49166 TIP3     8084     TIP3     OH2      OT      -0.834000       15.9994           0   0.00000       0.00000    
     49167 TIP3     8084     TIP3     H1       HT       0.417000       1.00800           0   0.00000       0.00000    
     49168 TIP3     8084     TIP3     H2       HT       0.417000       1.00800           0   0.00000     -0.301140E-02
     49169 TIP3     8085     TIP3     OH2      OT      -0.834000       15.9994           0   0.00000       0.00000    
     49170 TIP3     8085     TIP3     H1       HT       0.417000       1.00800           0   0.00000       0.00000    
     49171 TIP3     8085     TIP3     H2       HT       0.417000       1.00800           0   0.00000     -0.301140E-02
     49172 TIP3     8086     TIP3     OH2      OT      -0.834000       15.9994           0   0.00000       0.00000    
     49173 TIP3     8086     TIP3     H1       HT       0.417000       1.00800           0   0.00000       0.00000    
     49174 TIP3     8086     TIP3     H2       HT       0.417000       1.00800           0   0.00000     -0.301140E-02
     49175 TIP3     8087     TIP3     OH2      OT      -0.834000       15.9994           0   0.00000       0.00000    
     49176 TIP3     8087     TIP3     H1       HT       0.417000       1.00800           0   0.00000       0.00000    
     49177 TIP3     8087     TIP3     H2       HT       0.417000       1.00800           0   0.00000     -0.301140E-02
     49178 TIP3     8088     TIP3     OH2      OT      -0.834000       15.9994           0   0.00000       0.00000    
     49179 TIP3     8088     TIP3     H1       HT       0.417000       1.00800           0   0.00000       0.00000    
     49180 TIP3     8088     TIP3     H2       HT       0.417000       1.00800           0   0.00000     -0.301140E-02
     49181 TIP3     8089     TIP3     OH2      OT      -0.834000       15.9994           0   0.00000       0.00000    
     49182 TIP3     8089     TIP3     H1       HT       0.417000       1.00800           0   0.00000       0.00000    
     49183 TIP3     8089     TIP3     H2       HT       0.417000       1.00800           0   0.00000     -0.301140E-02
     49184 TIP3     8090     TIP3     OH2      OT      -0.834000       15.9994           0   0.00000       0.00000    
     49185 TIP3     8090     TIP3     H1       HT       0.417000       1.00800           0   0.00000       0.00000    
     49186 TIP3     8090     TIP3     H2       HT       0.417000       1.00800           0   0.00000     -0.301140E-02
     49187 TIP3     8091     TIP3     OH2      OT      -0.834000       15.9994           0   0.00000       0.00000    
     49188 TIP3     8091     TIP3     H1       HT       0.417000       1.00800           0   0.00000       0.00000    
     49189 TIP3     8091     TIP3     H2       HT       0.417000       1.00800           0   0.00000     -0.301140E-02
     49190 TIP3     8092     TIP3     OH2      OT      -0.834000       15.9994           0   0.00000       0.00000    
     49191 TIP3     8092     TIP3     H1       HT       0.417000       1.00800           0   0.00000       0.00000    
     49192 TIP3     8092     TIP3     H2       HT       0.417000       1.00800           0   0.00000     -0.301140E-02
     49193 TIP3     8093     TIP3     OH2      OT      -0.834000       15.9994           0   0.00000       0.00000    
     49194 TIP3     8093     TIP3     H1       HT       0.417000       1.00800           0   0.00000       0.00000    
     49195 TIP3     8093     TIP3     H2       HT       0.417000       1.00800           0   0.00000     -0.301140E-02
     49196 TIP3     8094     TIP3     OH2      OT      -0.834000       15.9994           0   0.00000       0.00000    
     49197 TIP3     8094     TIP3     H1       HT       0.417000       1.00800           0   0.00000       0.00000    
     49198 TIP3     8094     TIP3     H2       HT       0.417000       1.00800           0   0.00000     -0.301140E-02
     49199 TIP3     8095     TIP3     OH2      OT      -0.834000       15.9994           0   0.00000       0.00000    
     49200 TIP3     8095     TIP3     H1       HT       0.417000       1.00800           0   0.00000       0.00000    
     49201 TIP3     8095     TIP3     H2       HT       0.417000       1.00800           0   0.00000     -0.301140E-02
     49202 TIP3     8096     TIP3     OH2      OT      -0.834000       15.9994           0   0.00000       0.00000    
     49203 TIP3     8096     TIP3     H1       HT       0.417000       1.00800           0   0.00000       0.00000    
     49204 TIP3     8096     TIP3     H2       HT       0.417000       1.00800           0   0.00000     -0.301140E-02
     49205 TIP3     8097     TIP3     OH2      OT      -0.834000       15.9994           0   0.00000       0.00000    
     49206 TIP3     8097     TIP3     H1       HT       0.417000       1.00800           0   0.00000       0.00000    
     49207 TIP3     8097     TIP3     H2       HT       0.417000       1.00800           0   0.00000     -0.301140E-02
     49208 TIP3     8098     TIP3     OH2      OT      -0.834000       15.9994           0   0.00000       0.00000    
     49209 TIP3     8098     TIP3     H1       HT       0.417000       1.00800           0   0.00000       0.00000    
     49210 TIP3     8098     TIP3     H2       HT       0.417000       1.00800           0   0.00000     -0.301140E-02
     49211 TIP3     8099     TIP3     OH2      OT      -0.834000       15.9994           0   0.00000       0.00000    
     49212 TIP3     8099     TIP3     H1       HT       0.417000       1.00800           0   0.00000       0.00000    
     49213 TIP3     8099     TIP3     H2       HT       0.417000       1.00800           0   0.00000     -0.301140E-02
     49214 TIP3     8100     TIP3     OH2      OT      -0.834000       15.9994           0   0.00000       0.00000    
     49215 TIP3     8100     TIP3     H1       HT       0.417000       1.00800           0   0.00000       0.00000    
     49216 TIP3     8100     TIP3     H2       HT       0.417000       1.00800           0   0.00000     -0.301140E-02
     49217 TIP3     8101     TIP3     OH2      OT      -0.834000       15.9994           0   0.00000       0.00000    
     49218 TIP3     8101     TIP3     H1       HT       0.417000       1.00800           0   0.00000       0.00000    
     49219 TIP3     8101     TIP3     H2       HT       0.417000       1.00800           0   0.00000     -0.301140E-02
     49220 TIP3     8102     TIP3     OH2      OT      -0.834000       15.9994           0   0.00000       0.00000    
     49221 TIP3     8102     TIP3     H1       HT       0.417000       1.00800           0   0.00000       0.00000    
     49222 TIP3     8102     TIP3     H2       HT       0.417000       1.00800           0   0.00000     -0.301140E-02
     49223 TIP3     8103     TIP3     OH2      OT      -0.834000       15.9994           0   0.00000       0.00000    
     49224 TIP3     8103     TIP3     H1       HT       0.417000       1.00800           0   0.00000       0.00000    
     49225 TIP3     8103     TIP3     H2       HT       0.417000       1.00800           0   0.00000     -0.301140E-02
     49226 TIP3     8104     TIP3     OH2      OT      -0.834000       15.9994           0   0.00000       0.00000    
     49227 TIP3     8104     TIP3     H1       HT       0.417000       1.00800           0   0.00000       0.00000    
     49228 TIP3     8104     TIP3     H2       HT       0.417000       1.00800           0   0.00000     -0.301140E-02
     49229 TIP3     8105     TIP3     OH2      OT      -0.834000       15.9994           0   0.00000       0.00000    
     49230 TIP3     8105     TIP3     H1       HT       0.417000       1.00800           0   0.00000       0.00000    
     49231 TIP3     8105     TIP3     H2       HT       0.417000       1.00800           0   0.00000     -0.301140E-02
     49232 TIP3     8106     TIP3     OH2      OT      -0.834000       15.9994           0   0.00000       0.00000    
     49233 TIP3     8106     TIP3     H1       HT       0.417000       1.00800           0   0.00000       0.00000    
     49234 TIP3     8106     TIP3     H2       HT       0.417000       1.00800           0   0.00000     -0.301140E-02
     49235 TIP3     8107     TIP3     OH2      OT      -0.834000       15.9994           0   0.00000       0.00000    
     49236 TIP3     8107     TIP3     H1       HT       0.417000       1.00800           0   0.00000       0.00000    
     49237 TIP3     8107     TIP3     H2       HT       0.417000       1.00800           0   0.00000     -0.301140E-02
     49238 TIP3     8108     TIP3     OH2      OT      -0.834000       15.9994           0   0.00000       0.00000    
     49239 TIP3     8108     TIP3     H1       HT       0.417000       1.00800           0   0.00000       0.00000    
     49240 TIP3     8108     TIP3     H2       HT       0.417000       1.00800           0   0.00000     -0.301140E-02
     49241 TIP3     8109     TIP3     OH2      OT      -0.834000       15.9994           0   0.00000       0.00000    
     49242 TIP3     8109     TIP3     H1       HT       0.417000       1.00800           0   0.00000       0.00000    
     49243 TIP3     8109     TIP3     H2       HT       0.417000       1.00800           0   0.00000     -0.301140E-02
     49244 TIP3     8110     TIP3     OH2      OT      -0.834000       15.9994           0   0.00000       0.00000    
     49245 TIP3     8110     TIP3     H1       HT       0.417000       1.00800           0   0.00000       0.00000    
     49246 TIP3     8110     TIP3     H2       HT       0.417000       1.00800           0   0.00000     -0.301140E-02
     49247 TIP3     8111     TIP3     OH2      OT      -0.834000       15.9994           0   0.00000       0.00000    
     49248 TIP3     8111     TIP3     H1       HT       0.417000       1.00800           0   0.00000       0.00000    
     49249 TIP3     8111     TIP3     H2       HT       0.417000       1.00800           0   0.00000     -0.301140E-02
     49250 TIP3     8112     TIP3     OH2      OT      -0.834000       15.9994           0   0.00000       0.00000    
     49251 TIP3     8112     TIP3     H1       HT       0.417000       1.00800           0   0.00000       0.00000    
     49252 TIP3     8112     TIP3     H2       HT       0.417000       1.00800           0   0.00000     -0.301140E-02
     49253 TIP3     8113     TIP3     OH2      OT      -0.834000       15.9994           0   0.00000       0.00000    
     49254 TIP3     8113     TIP3     H1       HT       0.417000       1.00800           0   0.00000       0.00000    
     49255 TIP3     8113     TIP3     H2       HT       0.417000       1.00800           0   0.00000     -0.301140E-02
     49256 TIP3     8114     TIP3     OH2      OT      -0.834000       15.9994           0   0.00000       0.00000    
     49257 TIP3     8114     TIP3     H1       HT       0.417000       1.00800           0   0.00000       0.00000    
     49258 TIP3     8114     TIP3     H2       HT       0.417000       1.00800           0   0.00000     -0.301140E-02
     49259 TIP3     8115     TIP3     OH2      OT      -0.834000       15.9994           0   0.00000       0.00000    
     49260 TIP3     8115     TIP3     H1       HT       0.417000       1.00800           0   0.00000       0.00000    
     49261 TIP3     8115     TIP3     H2       HT       0.417000       1.00800           0   0.00000     -0.301140E-02
     49262 TIP3     8116     TIP3     OH2      OT      -0.834000       15.9994           0   0.00000       0.00000    
     49263 TIP3     8116     TIP3     H1       HT       0.417000       1.00800           0   0.00000       0.00000    
     49264 TIP3     8116     TIP3     H2       HT       0.417000       1.00800           0   0.00000     -0.301140E-02
     49265 TIP3     8117     TIP3     OH2      OT      -0.834000       15.9994           0   0.00000       0.00000    
     49266 TIP3     8117     TIP3     H1       HT       0.417000       1.00800           0   0.00000       0.00000    
     49267 TIP3     8117     TIP3     H2       HT       0.417000       1.00800           0   0.00000     -0.301140E-02
     49268 TIP3     8118     TIP3     OH2      OT      -0.834000       15.9994           0   0.00000       0.00000    
     49269 TIP3     8118     TIP3     H1       HT       0.417000       1.00800           0   0.00000       0.00000    
     49270 TIP3     8118     TIP3     H2       HT       0.417000       1.00800           0   0.00000     -0.301140E-02
     49271 TIP3     8119     TIP3     OH2      OT      -0.834000       15.9994           0   0.00000       0.00000    
     49272 TIP3     8119     TIP3     H1       HT       0.417000       1.00800           0   0.00000       0.00000    
     49273 TIP3     8119     TIP3     H2       HT       0.417000       1.00800           0   0.00000     -0.301140E-02
     49274 TIP3     8120     TIP3     OH2      OT      -0.834000       15.9994           0   0.00000       0.00000    
     49275 TIP3     8120     TIP3     H1       HT       0.417000       1.00800           0   0.00000       0.00000    
     49276 TIP3     8120     TIP3     H2       HT       0.417000       1.00800           0   0.00000     -0.301140E-02
     49277 TIP3     8121     TIP3     OH2      OT      -0.834000       15.9994           0   0.00000       0.00000    
     49278 TIP3     8121     TIP3     H1       HT       0.417000       1.00800           0   0.00000       0.00000    
     49279 TIP3     8121     TIP3     H2       HT       0.417000       1.00800           0   0.00000     -0.301140E-02
     49280 TIP3     8122     TIP3     OH2      OT      -0.834000       15.9994           0   0.00000       0.00000    
     49281 TIP3     8122     TIP3     H1       HT       0.417000       1.00800           0   0.00000       0.00000    
     49282 TIP3     8122     TIP3     H2       HT       0.417000       1.00800           0   0.00000     -0.301140E-02
     49283 TIP3     8123     TIP3     OH2      OT      -0.834000       15.9994           0   0.00000       0.00000    
     49284 TIP3     8123     TIP3     H1       HT       0.417000       1.00800           0   0.00000       0.00000    
     49285 TIP3     8123     TIP3     H2       HT       0.417000       1.00800           0   0.00000     -0.301140E-02
     49286 TIP3     8124     TIP3     OH2      OT      -0.834000       15.9994           0   0.00000       0.00000    
     49287 TIP3     8124     TIP3     H1       HT       0.417000       1.00800           0   0.00000       0.00000    
     49288 TIP3     8124     TIP3     H2       HT       0.417000       1.00800           0   0.00000     -0.301140E-02
     49289 TIP3     8125     TIP3     OH2      OT      -0.834000       15.9994           0   0.00000       0.00000    
     49290 TIP3     8125     TIP3     H1       HT       0.417000       1.00800           0   0.00000       0.00000    
     49291 TIP3     8125     TIP3     H2       HT       0.417000       1.00800           0   0.00000     -0.301140E-02
     49292 TIP3     8126     TIP3     OH2      OT      -0.834000       15.9994           0   0.00000       0.00000    
     49293 TIP3     8126     TIP3     H1       HT       0.417000       1.00800           0   0.00000       0.00000    
     49294 TIP3     8126     TIP3     H2       HT       0.417000       1.00800           0   0.00000     -0.301140E-02
     49295 TIP3     8127     TIP3     OH2      OT      -0.834000       15.9994           0   0.00000       0.00000    
     49296 TIP3     8127     TIP3     H1       HT       0.417000       1.00800           0   0.00000       0.00000    
     49297 TIP3     8127     TIP3     H2       HT       0.417000       1.00800           0   0.00000     -0.301140E-02
     49298 TIP3     8128     TIP3     OH2      OT      -0.834000       15.9994           0   0.00000       0.00000    
     49299 TIP3     8128     TIP3     H1       HT       0.417000       1.00800           0   0.00000       0.00000    
     49300 TIP3     8128     TIP3     H2       HT       0.417000       1.00800           0   0.00000     -0.301140E-02
     49301 TIP3     8129     TIP3     OH2      OT      -0.834000       15.9994           0   0.00000       0.00000    
     49302 TIP3     8129     TIP3     H1       HT       0.417000       1.00800           0   0.00000       0.00000    
     49303 TIP3     8129     TIP3     H2       HT       0.417000       1.00800           0   0.00000     -0.301140E-02
     49304 TIP3     8130     TIP3     OH2      OT      -0.834000       15.9994           0   0.00000       0.00000    
     49305 TIP3     8130     TIP3     H1       HT       0.417000       1.00800           0   0.00000       0.00000    
     49306 TIP3     8130     TIP3     H2       HT       0.417000       1.00800           0   0.00000     -0.301140E-02
     49307 TIP3     8131     TIP3     OH2      OT      -0.834000       15.9994           0   0.00000       0.00000    
     49308 TIP3     8131     TIP3     H1       HT       0.417000       1.00800           0   0.00000       0.00000    
     49309 TIP3     8131     TIP3     H2       HT       0.417000       1.00800           0   0.00000     -0.301140E-02
     49310 TIP3     8132     TIP3     OH2      OT      -0.834000       15.9994           0   0.00000       0.00000    
     49311 TIP3     8132     TIP3     H1       HT       0.417000       1.00800           0   0.00000       0.00000    
     49312 TIP3     8132     TIP3     H2       HT       0.417000       1.00800           0   0.00000     -0.301140E-02
     49313 TIP3     8133     TIP3     OH2      OT      -0.834000       15.9994           0   0.00000       0.00000    
     49314 TIP3     8133     TIP3     H1       HT       0.417000       1.00800           0   0.00000       0.00000    
     49315 TIP3     8133     TIP3     H2       HT       0.417000       1.00800           0   0.00000     -0.301140E-02
     49316 TIP3     8134     TIP3     OH2      OT      -0.834000       15.9994           0   0.00000       0.00000    
     49317 TIP3     8134     TIP3     H1       HT       0.417000       1.00800           0   0.00000       0.00000    
     49318 TIP3     8134     TIP3     H2       HT       0.417000       1.00800           0   0.00000     -0.301140E-02
     49319 TIP3     8135     TIP3     OH2      OT      -0.834000       15.9994           0   0.00000       0.00000    
     49320 TIP3     8135     TIP3     H1       HT       0.417000       1.00800           0   0.00000       0.00000    
     49321 TIP3     8135     TIP3     H2       HT       0.417000       1.00800           0   0.00000     -0.301140E-02
     49322 TIP3     8136     TIP3     OH2      OT      -0.834000       15.9994           0   0.00000       0.00000    
     49323 TIP3     8136     TIP3     H1       HT       0.417000       1.00800           0   0.00000       0.00000    
     49324 TIP3     8136     TIP3     H2       HT       0.417000       1.00800           0   0.00000     -0.301140E-02
     49325 TIP3     8137     TIP3     OH2      OT      -0.834000       15.9994           0   0.00000       0.00000    
     49326 TIP3     8137     TIP3     H1       HT       0.417000       1.00800           0   0.00000       0.00000    
     49327 TIP3     8137     TIP3     H2       HT       0.417000       1.00800           0   0.00000     -0.301140E-02
     49328 TIP3     8138     TIP3     OH2      OT      -0.834000       15.9994           0   0.00000       0.00000    
     49329 TIP3     8138     TIP3     H1       HT       0.417000       1.00800           0   0.00000       0.00000    
     49330 TIP3     8138     TIP3     H2       HT       0.417000       1.00800           0   0.00000     -0.301140E-02
     49331 TIP3     8139     TIP3     OH2      OT      -0.834000       15.9994           0   0.00000       0.00000    
     49332 TIP3     8139     TIP3     H1       HT       0.417000       1.00800           0   0.00000       0.00000    
     49333 TIP3     8139     TIP3     H2       HT       0.417000       1.00800           0   0.00000     -0.301140E-02
     49334 TIP3     8140     TIP3     OH2      OT      -0.834000       15.9994           0   0.00000       0.00000    
     49335 TIP3     8140     TIP3     H1       HT       0.417000       1.00800           0   0.00000       0.00000    
     49336 TIP3     8140     TIP3     H2       HT       0.417000       1.00800           0   0.00000     -0.301140E-02
     49337 TIP3     8141     TIP3     OH2      OT      -0.834000       15.9994           0   0.00000       0.00000    
     49338 TIP3     8141     TIP3     H1       HT       0.417000       1.00800           0   0.00000       0.00000    
     49339 TIP3     8141     TIP3     H2       HT       0.417000       1.00800           0   0.00000     -0.301140E-02
     49340 TIP3     8142     TIP3     OH2      OT      -0.834000       15.9994           0   0.00000       0.00000    
     49341 TIP3     8142     TIP3     H1       HT       0.417000       1.00800           0   0.00000       0.00000    
     49342 TIP3     8142     TIP3     H2       HT       0.417000       1.00800           0   0.00000     -0.301140E-02
     49343 TIP3     8143     TIP3     OH2      OT      -0.834000       15.9994           0   0.00000       0.00000    
     49344 TIP3     8143     TIP3     H1       HT       0.417000       1.00800           0   0.00000       0.00000    
     49345 TIP3     8143     TIP3     H2       HT       0.417000       1.00800           0   0.00000     -0.301140E-02
     49346 TIP3     8144     TIP3     OH2      OT      -0.834000       15.9994           0   0.00000       0.00000    
     49347 TIP3     8144     TIP3     H1       HT       0.417000       1.00800           0   0.00000       0.00000    
     49348 TIP3     8144     TIP3     H2       HT       0.417000       1.00800           0   0.00000     -0.301140E-02
     49349 TIP3     8145     TIP3     OH2      OT      -0.834000       15.9994           0   0.00000       0.00000    
     49350 TIP3     8145     TIP3     H1       HT       0.417000       1.00800           0   0.00000       0.00000    
     49351 TIP3     8145     TIP3     H2       HT       0.417000       1.00800           0   0.00000     -0.301140E-02
     49352 TIP3     8146     TIP3     OH2      OT      -0.834000       15.9994           0   0.00000       0.00000    
     49353 TIP3     8146     TIP3     H1       HT       0.417000       1.00800           0   0.00000       0.00000    
     49354 TIP3     8146     TIP3     H2       HT       0.417000       1.00800           0   0.00000     -0.301140E-02
     49355 TIP3     8147     TIP3     OH2      OT      -0.834000       15.9994           0   0.00000       0.00000    
     49356 TIP3     8147     TIP3     H1       HT       0.417000       1.00800           0   0.00000       0.00000    
     49357 TIP3     8147     TIP3     H2       HT       0.417000       1.00800           0   0.00000     -0.301140E-02
     49358 TIP3     8148     TIP3     OH2      OT      -0.834000       15.9994           0   0.00000       0.00000    
     49359 TIP3     8148     TIP3     H1       HT       0.417000       1.00800           0   0.00000       0.00000    
     49360 TIP3     8148     TIP3     H2       HT       0.417000       1.00800           0   0.00000     -0.301140E-02
     49361 TIP3     8149     TIP3     OH2      OT      -0.834000       15.9994           0   0.00000       0.00000    
     49362 TIP3     8149     TIP3     H1       HT       0.417000       1.00800           0   0.00000       0.00000    
     49363 TIP3     8149     TIP3     H2       HT       0.417000       1.00800           0   0.00000     -0.301140E-02
     49364 TIP3     8150     TIP3     OH2      OT      -0.834000       15.9994           0   0.00000       0.00000    
     49365 TIP3     8150     TIP3     H1       HT       0.417000       1.00800           0   0.00000       0.00000    
     49366 TIP3     8150     TIP3     H2       HT       0.417000       1.00800           0   0.00000     -0.301140E-02
     49367 TIP3     8151     TIP3     OH2      OT      -0.834000       15.9994           0   0.00000       0.00000    
     49368 TIP3     8151     TIP3     H1       HT       0.417000       1.00800           0   0.00000       0.00000    
     49369 TIP3     8151     TIP3     H2       HT       0.417000       1.00800           0   0.00000     -0.301140E-02
     49370 TIP3     8152     TIP3     OH2      OT      -0.834000       15.9994           0   0.00000       0.00000    
     49371 TIP3     8152     TIP3     H1       HT       0.417000       1.00800           0   0.00000       0.00000    
     49372 TIP3     8152     TIP3     H2       HT       0.417000       1.00800           0   0.00000     -0.301140E-02
     49373 TIP3     8153     TIP3     OH2      OT      -0.834000       15.9994           0   0.00000       0.00000    
     49374 TIP3     8153     TIP3     H1       HT       0.417000       1.00800           0   0.00000       0.00000    
     49375 TIP3     8153     TIP3     H2       HT       0.417000       1.00800           0   0.00000     -0.301140E-02
     49376 TIP3     8154     TIP3     OH2      OT      -0.834000       15.9994           0   0.00000       0.00000    
     49377 TIP3     8154     TIP3     H1       HT       0.417000       1.00800           0   0.00000       0.00000    
     49378 TIP3     8154     TIP3     H2       HT       0.417000       1.00800           0   0.00000     -0.301140E-02
     49379 TIP3     8155     TIP3     OH2      OT      -0.834000       15.9994           0   0.00000       0.00000    
     49380 TIP3     8155     TIP3     H1       HT       0.417000       1.00800           0   0.00000       0.00000    
     49381 TIP3     8155     TIP3     H2       HT       0.417000       1.00800           0   0.00000     -0.301140E-02
     49382 TIP3     8156     TIP3     OH2      OT      -0.834000       15.9994           0   0.00000       0.00000    
     49383 TIP3     8156     TIP3     H1       HT       0.417000       1.00800           0   0.00000       0.00000    
     49384 TIP3     8156     TIP3     H2       HT       0.417000       1.00800           0   0.00000     -0.301140E-02
     49385 TIP3     8157     TIP3     OH2      OT      -0.834000       15.9994           0   0.00000       0.00000    
     49386 TIP3     8157     TIP3     H1       HT       0.417000       1.00800           0   0.00000       0.00000    
     49387 TIP3     8157     TIP3     H2       HT       0.417000       1.00800           0   0.00000     -0.301140E-02
     49388 TIP3     8158     TIP3     OH2      OT      -0.834000       15.9994           0   0.00000       0.00000    
     49389 TIP3     8158     TIP3     H1       HT       0.417000       1.00800           0   0.00000       0.00000    
     49390 TIP3     8158     TIP3     H2       HT       0.417000       1.00800           0   0.00000     -0.301140E-02
     49391 TIP3     8159     TIP3     OH2      OT      -0.834000       15.9994           0   0.00000       0.00000    
     49392 TIP3     8159     TIP3     H1       HT       0.417000       1.00800           0   0.00000       0.00000    
     49393 TIP3     8159     TIP3     H2       HT       0.417000       1.00800           0   0.00000     -0.301140E-02
     49394 TIP3     8160     TIP3     OH2      OT      -0.834000       15.9994           0   0.00000       0.00000    
     49395 TIP3     8160     TIP3     H1       HT       0.417000       1.00800           0   0.00000       0.00000    
     49396 TIP3     8160     TIP3     H2       HT       0.417000       1.00800           0   0.00000     -0.301140E-02
     49397 TIP3     8161     TIP3     OH2      OT      -0.834000       15.9994           0   0.00000       0.00000    
     49398 TIP3     8161     TIP3     H1       HT       0.417000       1.00800           0   0.00000       0.00000    
     49399 TIP3     8161     TIP3     H2       HT       0.417000       1.00800           0   0.00000     -0.301140E-02
     49400 TIP3     8162     TIP3     OH2      OT      -0.834000       15.9994           0   0.00000       0.00000    
     49401 TIP3     8162     TIP3     H1       HT       0.417000       1.00800           0   0.00000       0.00000    
     49402 TIP3     8162     TIP3     H2       HT       0.417000       1.00800           0   0.00000     -0.301140E-02
     49403 TIP3     8163     TIP3     OH2      OT      -0.834000       15.9994           0   0.00000       0.00000    
     49404 TIP3     8163     TIP3     H1       HT       0.417000       1.00800           0   0.00000       0.00000    
     49405 TIP3     8163     TIP3     H2       HT       0.417000       1.00800           0   0.00000     -0.301140E-02
     49406 TIP3     8164     TIP3     OH2      OT      -0.834000       15.9994           0   0.00000       0.00000    
     49407 TIP3     8164     TIP3     H1       HT       0.417000       1.00800           0   0.00000       0.00000    
     49408 TIP3     8164     TIP3     H2       HT       0.417000       1.00800           0   0.00000     -0.301140E-02
     49409 TIP3     8165     TIP3     OH2      OT      -0.834000       15.9994           0   0.00000       0.00000    
     49410 TIP3     8165     TIP3     H1       HT       0.417000       1.00800           0   0.00000       0.00000    
     49411 TIP3     8165     TIP3     H2       HT       0.417000       1.00800           0   0.00000     -0.301140E-02
     49412 TIP3     8166     TIP3     OH2      OT      -0.834000       15.9994           0   0.00000       0.00000    
     49413 TIP3     8166     TIP3     H1       HT       0.417000       1.00800           0   0.00000       0.00000    
     49414 TIP3     8166     TIP3     H2       HT       0.417000       1.00800           0   0.00000     -0.301140E-02
     49415 TIP3     8167     TIP3     OH2      OT      -0.834000       15.9994           0   0.00000       0.00000    
     49416 TIP3     8167     TIP3     H1       HT       0.417000       1.00800           0   0.00000       0.00000    
     49417 TIP3     8167     TIP3     H2       HT       0.417000       1.00800           0   0.00000     -0.301140E-02
     49418 TIP3     8168     TIP3     OH2      OT      -0.834000       15.9994           0   0.00000       0.00000    
     49419 TIP3     8168     TIP3     H1       HT       0.417000       1.00800           0   0.00000       0.00000    
     49420 TIP3     8168     TIP3     H2       HT       0.417000       1.00800           0   0.00000     -0.301140E-02
     49421 TIP3     8169     TIP3     OH2      OT      -0.834000       15.9994           0   0.00000       0.00000    
     49422 TIP3     8169     TIP3     H1       HT       0.417000       1.00800           0   0.00000       0.00000    
     49423 TIP3     8169     TIP3     H2       HT       0.417000       1.00800           0   0.00000     -0.301140E-02
     49424 TIP3     8170     TIP3     OH2      OT      -0.834000       15.9994           0   0.00000       0.00000    
     49425 TIP3     8170     TIP3     H1       HT       0.417000       1.00800           0   0.00000       0.00000    
     49426 TIP3     8170     TIP3     H2       HT       0.417000       1.00800           0   0.00000     -0.301140E-02
     49427 TIP3     8171     TIP3     OH2      OT      -0.834000       15.9994           0   0.00000       0.00000    
     49428 TIP3     8171     TIP3     H1       HT       0.417000       1.00800           0   0.00000       0.00000    
     49429 TIP3     8171     TIP3     H2       HT       0.417000       1.00800           0   0.00000     -0.301140E-02
     49430 TIP3     8172     TIP3     OH2      OT      -0.834000       15.9994           0   0.00000       0.00000    
     49431 TIP3     8172     TIP3     H1       HT       0.417000       1.00800           0   0.00000       0.00000    
     49432 TIP3     8172     TIP3     H2       HT       0.417000       1.00800           0   0.00000     -0.301140E-02
     49433 TIP3     8173     TIP3     OH2      OT      -0.834000       15.9994           0   0.00000       0.00000    
     49434 TIP3     8173     TIP3     H1       HT       0.417000       1.00800           0   0.00000       0.00000    
     49435 TIP3     8173     TIP3     H2       HT       0.417000       1.00800           0   0.00000     -0.301140E-02
     49436 TIP3     8174     TIP3     OH2      OT      -0.834000       15.9994           0   0.00000       0.00000    
     49437 TIP3     8174     TIP3     H1       HT       0.417000       1.00800           0   0.00000       0.00000    
     49438 TIP3     8174     TIP3     H2       HT       0.417000       1.00800           0   0.00000     -0.301140E-02
     49439 TIP3     8175     TIP3     OH2      OT      -0.834000       15.9994           0   0.00000       0.00000    
     49440 TIP3     8175     TIP3     H1       HT       0.417000       1.00800           0   0.00000       0.00000    
     49441 TIP3     8175     TIP3     H2       HT       0.417000       1.00800           0   0.00000     -0.301140E-02
     49442 TIP3     8176     TIP3     OH2      OT      -0.834000       15.9994           0   0.00000       0.00000    
     49443 TIP3     8176     TIP3     H1       HT       0.417000       1.00800           0   0.00000       0.00000    
     49444 TIP3     8176     TIP3     H2       HT       0.417000       1.00800           0   0.00000     -0.301140E-02
     49445 TIP3     8177     TIP3     OH2      OT      -0.834000       15.9994           0   0.00000       0.00000    
     49446 TIP3     8177     TIP3     H1       HT       0.417000       1.00800           0   0.00000       0.00000    
     49447 TIP3     8177     TIP3     H2       HT       0.417000       1.00800           0   0.00000     -0.301140E-02
     49448 TIP3     8178     TIP3     OH2      OT      -0.834000       15.9994           0   0.00000       0.00000    
     49449 TIP3     8178     TIP3     H1       HT       0.417000       1.00800           0   0.00000       0.00000    
     49450 TIP3     8178     TIP3     H2       HT       0.417000       1.00800           0   0.00000     -0.301140E-02
     49451 TIP3     8179     TIP3     OH2      OT      -0.834000       15.9994           0   0.00000       0.00000    
     49452 TIP3     8179     TIP3     H1       HT       0.417000       1.00800           0   0.00000       0.00000    
     49453 TIP3     8179     TIP3     H2       HT       0.417000       1.00800           0   0.00000     -0.301140E-02
     49454 TIP3     8180     TIP3     OH2      OT      -0.834000       15.9994           0   0.00000       0.00000    
     49455 TIP3     8180     TIP3     H1       HT       0.417000       1.00800           0   0.00000       0.00000    
     49456 TIP3     8180     TIP3     H2       HT       0.417000       1.00800           0   0.00000     -0.301140E-02
     49457 TIP3     8181     TIP3     OH2      OT      -0.834000       15.9994           0   0.00000       0.00000    
     49458 TIP3     8181     TIP3     H1       HT       0.417000       1.00800           0   0.00000       0.00000    
     49459 TIP3     8181     TIP3     H2       HT       0.417000       1.00800           0   0.00000     -0.301140E-02
     49460 TIP3     8182     TIP3     OH2      OT      -0.834000       15.9994           0   0.00000       0.00000    
     49461 TIP3     8182     TIP3     H1       HT       0.417000       1.00800           0   0.00000       0.00000    
     49462 TIP3     8182     TIP3     H2       HT       0.417000       1.00800           0   0.00000     -0.301140E-02
     49463 TIP3     8183     TIP3     OH2      OT      -0.834000       15.9994           0   0.00000       0.00000    
     49464 TIP3     8183     TIP3     H1       HT       0.417000       1.00800           0   0.00000       0.00000    
     49465 TIP3     8183     TIP3     H2       HT       0.417000       1.00800           0   0.00000     -0.301140E-02
     49466 TIP3     8184     TIP3     OH2      OT      -0.834000       15.9994           0   0.00000       0.00000    
     49467 TIP3     8184     TIP3     H1       HT       0.417000       1.00800           0   0.00000       0.00000    
     49468 TIP3     8184     TIP3     H2       HT       0.417000       1.00800           0   0.00000     -0.301140E-02
     49469 TIP3     8185     TIP3     OH2      OT      -0.834000       15.9994           0   0.00000       0.00000    
     49470 TIP3     8185     TIP3     H1       HT       0.417000       1.00800           0   0.00000       0.00000    
     49471 TIP3     8185     TIP3     H2       HT       0.417000       1.00800           0   0.00000     -0.301140E-02
     49472 TIP3     8186     TIP3     OH2      OT      -0.834000       15.9994           0   0.00000       0.00000    
     49473 TIP3     8186     TIP3     H1       HT       0.417000       1.00800           0   0.00000       0.00000    
     49474 TIP3     8186     TIP3     H2       HT       0.417000       1.00800           0   0.00000     -0.301140E-02
     49475 TIP3     8187     TIP3     OH2      OT      -0.834000       15.9994           0   0.00000       0.00000    
     49476 TIP3     8187     TIP3     H1       HT       0.417000       1.00800           0   0.00000       0.00000    
     49477 TIP3     8187     TIP3     H2       HT       0.417000       1.00800           0   0.00000     -0.301140E-02
     49478 TIP3     8188     TIP3     OH2      OT      -0.834000       15.9994           0   0.00000       0.00000    
     49479 TIP3     8188     TIP3     H1       HT       0.417000       1.00800           0   0.00000       0.00000    
     49480 TIP3     8188     TIP3     H2       HT       0.417000       1.00800           0   0.00000     -0.301140E-02
     49481 TIP3     8189     TIP3     OH2      OT      -0.834000       15.9994           0   0.00000       0.00000    
     49482 TIP3     8189     TIP3     H1       HT       0.417000       1.00800           0   0.00000       0.00000    
     49483 TIP3     8189     TIP3     H2       HT       0.417000       1.00800           0   0.00000     -0.301140E-02
     49484 TIP3     8190     TIP3     OH2      OT      -0.834000       15.9994           0   0.00000       0.00000    
     49485 TIP3     8190     TIP3     H1       HT       0.417000       1.00800           0   0.00000       0.00000    
     49486 TIP3     8190     TIP3     H2       HT       0.417000       1.00800           0   0.00000     -0.301140E-02
     49487 TIP3     8191     TIP3     OH2      OT      -0.834000       15.9994           0   0.00000       0.00000    
     49488 TIP3     8191     TIP3     H1       HT       0.417000       1.00800           0   0.00000       0.00000    
     49489 TIP3     8191     TIP3     H2       HT       0.417000       1.00800           0   0.00000     -0.301140E-02
     49490 TIP3     8192     TIP3     OH2      OT      -0.834000       15.9994           0   0.00000       0.00000    
     49491 TIP3     8192     TIP3     H1       HT       0.417000       1.00800           0   0.00000       0.00000    
     49492 TIP3     8192     TIP3     H2       HT       0.417000       1.00800           0   0.00000     -0.301140E-02
     49493 TIP3     8193     TIP3     OH2      OT      -0.834000       15.9994           0   0.00000       0.00000    
     49494 TIP3     8193     TIP3     H1       HT       0.417000       1.00800           0   0.00000       0.00000    
     49495 TIP3     8193     TIP3     H2       HT       0.417000       1.00800           0   0.00000     -0.301140E-02
     49496 TIP3     8194     TIP3     OH2      OT      -0.834000       15.9994           0   0.00000       0.00000    
     49497 TIP3     8194     TIP3     H1       HT       0.417000       1.00800           0   0.00000       0.00000    
     49498 TIP3     8194     TIP3     H2       HT       0.417000       1.00800           0   0.00000     -0.301140E-02
     49499 TIP3     8195     TIP3     OH2      OT      -0.834000       15.9994           0   0.00000       0.00000    
     49500 TIP3     8195     TIP3     H1       HT       0.417000       1.00800           0   0.00000       0.00000    
     49501 TIP3     8195     TIP3     H2       HT       0.417000       1.00800           0   0.00000     -0.301140E-02
     49502 TIP3     8196     TIP3     OH2      OT      -0.834000       15.9994           0   0.00000       0.00000    
     49503 TIP3     8196     TIP3     H1       HT       0.417000       1.00800           0   0.00000       0.00000    
     49504 TIP3     8196     TIP3     H2       HT       0.417000       1.00800           0   0.00000     -0.301140E-02
     49505 TIP3     8197     TIP3     OH2      OT      -0.834000       15.9994           0   0.00000       0.00000    
     49506 TIP3     8197     TIP3     H1       HT       0.417000       1.00800           0   0.00000       0.00000    
     49507 TIP3     8197     TIP3     H2       HT       0.417000       1.00800           0   0.00000     -0.301140E-02
     49508 TIP3     8198     TIP3     OH2      OT      -0.834000       15.9994           0   0.00000       0.00000    
     49509 TIP3     8198     TIP3     H1       HT       0.417000       1.00800           0   0.00000       0.00000    
     49510 TIP3     8198     TIP3     H2       HT       0.417000       1.00800           0   0.00000     -0.301140E-02
     49511 TIP3     8199     TIP3     OH2      OT      -0.834000       15.9994           0   0.00000       0.00000    
     49512 TIP3     8199     TIP3     H1       HT       0.417000       1.00800           0   0.00000       0.00000    
     49513 TIP3     8199     TIP3     H2       HT       0.417000       1.00800           0   0.00000     -0.301140E-02
     49514 TIP3     8200     TIP3     OH2      OT      -0.834000       15.9994           0   0.00000       0.00000    
     49515 TIP3     8200     TIP3     H1       HT       0.417000       1.00800           0   0.00000       0.00000    
     49516 TIP3     8200     TIP3     H2       HT       0.417000       1.00800           0   0.00000     -0.301140E-02
     49517 TIP3     8201     TIP3     OH2      OT      -0.834000       15.9994           0   0.00000       0.00000    
     49518 TIP3     8201     TIP3     H1       HT       0.417000       1.00800           0   0.00000       0.00000    
     49519 TIP3     8201     TIP3     H2       HT       0.417000       1.00800           0   0.00000     -0.301140E-02
     49520 TIP3     8202     TIP3     OH2      OT      -0.834000       15.9994           0   0.00000       0.00000    
     49521 TIP3     8202     TIP3     H1       HT       0.417000       1.00800           0   0.00000       0.00000    
     49522 TIP3     8202     TIP3     H2       HT       0.417000       1.00800           0   0.00000     -0.301140E-02
     49523 TIP3     8203     TIP3     OH2      OT      -0.834000       15.9994           0   0.00000       0.00000    
     49524 TIP3     8203     TIP3     H1       HT       0.417000       1.00800           0   0.00000       0.00000    
     49525 TIP3     8203     TIP3     H2       HT       0.417000       1.00800           0   0.00000     -0.301140E-02
     49526 TIP3     8204     TIP3     OH2      OT      -0.834000       15.9994           0   0.00000       0.00000    
     49527 TIP3     8204     TIP3     H1       HT       0.417000       1.00800           0   0.00000       0.00000    
     49528 TIP3     8204     TIP3     H2       HT       0.417000       1.00800           0   0.00000     -0.301140E-02
     49529 TIP3     8205     TIP3     OH2      OT      -0.834000       15.9994           0   0.00000       0.00000    
     49530 TIP3     8205     TIP3     H1       HT       0.417000       1.00800           0   0.00000       0.00000    
     49531 TIP3     8205     TIP3     H2       HT       0.417000       1.00800           0   0.00000     -0.301140E-02
     49532 TIP3     8206     TIP3     OH2      OT      -0.834000       15.9994           0   0.00000       0.00000    
     49533 TIP3     8206     TIP3     H1       HT       0.417000       1.00800           0   0.00000       0.00000    
     49534 TIP3     8206     TIP3     H2       HT       0.417000       1.00800           0   0.00000     -0.301140E-02
     49535 TIP3     8207     TIP3     OH2      OT      -0.834000       15.9994           0   0.00000       0.00000    
     49536 TIP3     8207     TIP3     H1       HT       0.417000       1.00800           0   0.00000       0.00000    
     49537 TIP3     8207     TIP3     H2       HT       0.417000       1.00800           0   0.00000     -0.301140E-02
     49538 TIP3     8208     TIP3     OH2      OT      -0.834000       15.9994           0   0.00000       0.00000    
     49539 TIP3     8208     TIP3     H1       HT       0.417000       1.00800           0   0.00000       0.00000    
     49540 TIP3     8208     TIP3     H2       HT       0.417000       1.00800           0   0.00000     -0.301140E-02
     49541 TIP3     8209     TIP3     OH2      OT      -0.834000       15.9994           0   0.00000       0.00000    
     49542 TIP3     8209     TIP3     H1       HT       0.417000       1.00800           0   0.00000       0.00000    
     49543 TIP3     8209     TIP3     H2       HT       0.417000       1.00800           0   0.00000     -0.301140E-02
     49544 TIP3     8210     TIP3     OH2      OT      -0.834000       15.9994           0   0.00000       0.00000    
     49545 TIP3     8210     TIP3     H1       HT       0.417000       1.00800           0   0.00000       0.00000    
     49546 TIP3     8210     TIP3     H2       HT       0.417000       1.00800           0   0.00000     -0.301140E-02
     49547 TIP3     8211     TIP3     OH2      OT      -0.834000       15.9994           0   0.00000       0.00000    
     49548 TIP3     8211     TIP3     H1       HT       0.417000       1.00800           0   0.00000       0.00000    
     49549 TIP3     8211     TIP3     H2       HT       0.417000       1.00800           0   0.00000     -0.301140E-02
     49550 TIP3     8212     TIP3     OH2      OT      -0.834000       15.9994           0   0.00000       0.00000    
     49551 TIP3     8212     TIP3     H1       HT       0.417000       1.00800           0   0.00000       0.00000    
     49552 TIP3     8212     TIP3     H2       HT       0.417000       1.00800           0   0.00000     -0.301140E-02
     49553 TIP3     8213     TIP3     OH2      OT      -0.834000       15.9994           0   0.00000       0.00000    
     49554 TIP3     8213     TIP3     H1       HT       0.417000       1.00800           0   0.00000       0.00000    
     49555 TIP3     8213     TIP3     H2       HT       0.417000       1.00800           0   0.00000     -0.301140E-02
     49556 TIP3     8214     TIP3     OH2      OT      -0.834000       15.9994           0   0.00000       0.00000    
     49557 TIP3     8214     TIP3     H1       HT       0.417000       1.00800           0   0.00000       0.00000    
     49558 TIP3     8214     TIP3     H2       HT       0.417000       1.00800           0   0.00000     -0.301140E-02
     49559 TIP3     8215     TIP3     OH2      OT      -0.834000       15.9994           0   0.00000       0.00000    
     49560 TIP3     8215     TIP3     H1       HT       0.417000       1.00800           0   0.00000       0.00000    
     49561 TIP3     8215     TIP3     H2       HT       0.417000       1.00800           0   0.00000     -0.301140E-02
     49562 TIP3     8216     TIP3     OH2      OT      -0.834000       15.9994           0   0.00000       0.00000    
     49563 TIP3     8216     TIP3     H1       HT       0.417000       1.00800           0   0.00000       0.00000    
     49564 TIP3     8216     TIP3     H2       HT       0.417000       1.00800           0   0.00000     -0.301140E-02
     49565 TIP3     8217     TIP3     OH2      OT      -0.834000       15.9994           0   0.00000       0.00000    
     49566 TIP3     8217     TIP3     H1       HT       0.417000       1.00800           0   0.00000       0.00000    
     49567 TIP3     8217     TIP3     H2       HT       0.417000       1.00800           0   0.00000     -0.301140E-02
     49568 TIP3     8218     TIP3     OH2      OT      -0.834000       15.9994           0   0.00000       0.00000    
     49569 TIP3     8218     TIP3     H1       HT       0.417000       1.00800           0   0.00000       0.00000    
     49570 TIP3     8218     TIP3     H2       HT       0.417000       1.00800           0   0.00000     -0.301140E-02
     49571 TIP3     8219     TIP3     OH2      OT      -0.834000       15.9994           0   0.00000       0.00000    
     49572 TIP3     8219     TIP3     H1       HT       0.417000       1.00800           0   0.00000       0.00000    
     49573 TIP3     8219     TIP3     H2       HT       0.417000       1.00800           0   0.00000     -0.301140E-02
     49574 TIP3     8220     TIP3     OH2      OT      -0.834000       15.9994           0   0.00000       0.00000    
     49575 TIP3     8220     TIP3     H1       HT       0.417000       1.00800           0   0.00000       0.00000    
     49576 TIP3     8220     TIP3     H2       HT       0.417000       1.00800           0   0.00000     -0.301140E-02
     49577 TIP3     8221     TIP3     OH2      OT      -0.834000       15.9994           0   0.00000       0.00000    
     49578 TIP3     8221     TIP3     H1       HT       0.417000       1.00800           0   0.00000       0.00000    
     49579 TIP3     8221     TIP3     H2       HT       0.417000       1.00800           0   0.00000     -0.301140E-02
     49580 TIP3     8222     TIP3     OH2      OT      -0.834000       15.9994           0   0.00000       0.00000    
     49581 TIP3     8222     TIP3     H1       HT       0.417000       1.00800           0   0.00000       0.00000    
     49582 TIP3     8222     TIP3     H2       HT       0.417000       1.00800           0   0.00000     -0.301140E-02
     49583 TIP3     8223     TIP3     OH2      OT      -0.834000       15.9994           0   0.00000       0.00000    
     49584 TIP3     8223     TIP3     H1       HT       0.417000       1.00800           0   0.00000       0.00000    
     49585 TIP3     8223     TIP3     H2       HT       0.417000       1.00800           0   0.00000     -0.301140E-02
     49586 TIP3     8224     TIP3     OH2      OT      -0.834000       15.9994           0   0.00000       0.00000    
     49587 TIP3     8224     TIP3     H1       HT       0.417000       1.00800           0   0.00000       0.00000    
     49588 TIP3     8224     TIP3     H2       HT       0.417000       1.00800           0   0.00000     -0.301140E-02
     49589 TIP3     8225     TIP3     OH2      OT      -0.834000       15.9994           0   0.00000       0.00000    
     49590 TIP3     8225     TIP3     H1       HT       0.417000       1.00800           0   0.00000       0.00000    
     49591 TIP3     8225     TIP3     H2       HT       0.417000       1.00800           0   0.00000     -0.301140E-02
     49592 TIP3     8226     TIP3     OH2      OT      -0.834000       15.9994           0   0.00000       0.00000    
     49593 TIP3     8226     TIP3     H1       HT       0.417000       1.00800           0   0.00000       0.00000    
     49594 TIP3     8226     TIP3     H2       HT       0.417000       1.00800           0   0.00000     -0.301140E-02
     49595 TIP3     8227     TIP3     OH2      OT      -0.834000       15.9994           0   0.00000       0.00000    
     49596 TIP3     8227     TIP3     H1       HT       0.417000       1.00800           0   0.00000       0.00000    
     49597 TIP3     8227     TIP3     H2       HT       0.417000       1.00800           0   0.00000     -0.301140E-02
     49598 TIP3     8228     TIP3     OH2      OT      -0.834000       15.9994           0   0.00000       0.00000    
     49599 TIP3     8228     TIP3     H1       HT       0.417000       1.00800           0   0.00000       0.00000    
     49600 TIP3     8228     TIP3     H2       HT       0.417000       1.00800           0   0.00000     -0.301140E-02
     49601 TIP3     8229     TIP3     OH2      OT      -0.834000       15.9994           0   0.00000       0.00000    
     49602 TIP3     8229     TIP3     H1       HT       0.417000       1.00800           0   0.00000       0.00000    
     49603 TIP3     8229     TIP3     H2       HT       0.417000       1.00800           0   0.00000     -0.301140E-02
     49604 TIP3     8230     TIP3     OH2      OT      -0.834000       15.9994           0   0.00000       0.00000    
     49605 TIP3     8230     TIP3     H1       HT       0.417000       1.00800           0   0.00000       0.00000    
     49606 TIP3     8230     TIP3     H2       HT       0.417000       1.00800           0   0.00000     -0.301140E-02
     49607 TIP3     8231     TIP3     OH2      OT      -0.834000       15.9994           0   0.00000       0.00000    
     49608 TIP3     8231     TIP3     H1       HT       0.417000       1.00800           0   0.00000       0.00000    
     49609 TIP3     8231     TIP3     H2       HT       0.417000       1.00800           0   0.00000     -0.301140E-02
     49610 TIP3     8232     TIP3     OH2      OT      -0.834000       15.9994           0   0.00000       0.00000    
     49611 TIP3     8232     TIP3     H1       HT       0.417000       1.00800           0   0.00000       0.00000    
     49612 TIP3     8232     TIP3     H2       HT       0.417000       1.00800           0   0.00000     -0.301140E-02
     49613 TIP3     8233     TIP3     OH2      OT      -0.834000       15.9994           0   0.00000       0.00000    
     49614 TIP3     8233     TIP3     H1       HT       0.417000       1.00800           0   0.00000       0.00000    
     49615 TIP3     8233     TIP3     H2       HT       0.417000       1.00800           0   0.00000     -0.301140E-02
     49616 TIP3     8234     TIP3     OH2      OT      -0.834000       15.9994           0   0.00000       0.00000    
     49617 TIP3     8234     TIP3     H1       HT       0.417000       1.00800           0   0.00000       0.00000    
     49618 TIP3     8234     TIP3     H2       HT       0.417000       1.00800           0   0.00000     -0.301140E-02
     49619 TIP3     8235     TIP3     OH2      OT      -0.834000       15.9994           0   0.00000       0.00000    
     49620 TIP3     8235     TIP3     H1       HT       0.417000       1.00800           0   0.00000       0.00000    
     49621 TIP3     8235     TIP3     H2       HT       0.417000       1.00800           0   0.00000     -0.301140E-02
     49622 TIP3     8236     TIP3     OH2      OT      -0.834000       15.9994           0   0.00000       0.00000    
     49623 TIP3     8236     TIP3     H1       HT       0.417000       1.00800           0   0.00000       0.00000    
     49624 TIP3     8236     TIP3     H2       HT       0.417000       1.00800           0   0.00000     -0.301140E-02
     49625 TIP3     8237     TIP3     OH2      OT      -0.834000       15.9994           0   0.00000       0.00000    
     49626 TIP3     8237     TIP3     H1       HT       0.417000       1.00800           0   0.00000       0.00000    
     49627 TIP3     8237     TIP3     H2       HT       0.417000       1.00800           0   0.00000     -0.301140E-02
     49628 TIP3     8238     TIP3     OH2      OT      -0.834000       15.9994           0   0.00000       0.00000    
     49629 TIP3     8238     TIP3     H1       HT       0.417000       1.00800           0   0.00000       0.00000    
     49630 TIP3     8238     TIP3     H2       HT       0.417000       1.00800           0   0.00000     -0.301140E-02
     49631 TIP3     8239     TIP3     OH2      OT      -0.834000       15.9994           0   0.00000       0.00000    
     49632 TIP3     8239     TIP3     H1       HT       0.417000       1.00800           0   0.00000       0.00000    
     49633 TIP3     8239     TIP3     H2       HT       0.417000       1.00800           0   0.00000     -0.301140E-02
     49634 TIP3     8240     TIP3     OH2      OT      -0.834000       15.9994           0   0.00000       0.00000    
     49635 TIP3     8240     TIP3     H1       HT       0.417000       1.00800           0   0.00000       0.00000    
     49636 TIP3     8240     TIP3     H2       HT       0.417000       1.00800           0   0.00000     -0.301140E-02
     49637 TIP3     8241     TIP3     OH2      OT      -0.834000       15.9994           0   0.00000       0.00000    
     49638 TIP3     8241     TIP3     H1       HT       0.417000       1.00800           0   0.00000       0.00000    
     49639 TIP3     8241     TIP3     H2       HT       0.417000       1.00800           0   0.00000     -0.301140E-02
     49640 TIP3     8242     TIP3     OH2      OT      -0.834000       15.9994           0   0.00000       0.00000    
     49641 TIP3     8242     TIP3     H1       HT       0.417000       1.00800           0   0.00000       0.00000    
     49642 TIP3     8242     TIP3     H2       HT       0.417000       1.00800           0   0.00000     -0.301140E-02
     49643 TIP3     8243     TIP3     OH2      OT      -0.834000       15.9994           0   0.00000       0.00000    
     49644 TIP3     8243     TIP3     H1       HT       0.417000       1.00800           0   0.00000       0.00000    
     49645 TIP3     8243     TIP3     H2       HT       0.417000       1.00800           0   0.00000     -0.301140E-02
     49646 TIP3     8244     TIP3     OH2      OT      -0.834000       15.9994           0   0.00000       0.00000    
     49647 TIP3     8244     TIP3     H1       HT       0.417000       1.00800           0   0.00000       0.00000    
     49648 TIP3     8244     TIP3     H2       HT       0.417000       1.00800           0   0.00000     -0.301140E-02
     49649 TIP3     8245     TIP3     OH2      OT      -0.834000       15.9994           0   0.00000       0.00000    
     49650 TIP3     8245     TIP3     H1       HT       0.417000       1.00800           0   0.00000       0.00000    
     49651 TIP3     8245     TIP3     H2       HT       0.417000       1.00800           0   0.00000     -0.301140E-02
     49652 TIP3     8246     TIP3     OH2      OT      -0.834000       15.9994           0   0.00000       0.00000    
     49653 TIP3     8246     TIP3     H1       HT       0.417000       1.00800           0   0.00000       0.00000    
     49654 TIP3     8246     TIP3     H2       HT       0.417000       1.00800           0   0.00000     -0.301140E-02
     49655 TIP3     8247     TIP3     OH2      OT      -0.834000       15.9994           0   0.00000       0.00000    
     49656 TIP3     8247     TIP3     H1       HT       0.417000       1.00800           0   0.00000       0.00000    
     49657 TIP3     8247     TIP3     H2       HT       0.417000       1.00800           0   0.00000     -0.301140E-02
     49658 TIP3     8248     TIP3     OH2      OT      -0.834000       15.9994           0   0.00000       0.00000    
     49659 TIP3     8248     TIP3     H1       HT       0.417000       1.00800           0   0.00000       0.00000    
     49660 TIP3     8248     TIP3     H2       HT       0.417000       1.00800           0   0.00000     -0.301140E-02
     49661 TIP3     8249     TIP3     OH2      OT      -0.834000       15.9994           0   0.00000       0.00000    
     49662 TIP3     8249     TIP3     H1       HT       0.417000       1.00800           0   0.00000       0.00000    
     49663 TIP3     8249     TIP3     H2       HT       0.417000       1.00800           0   0.00000     -0.301140E-02
     49664 TIP3     8250     TIP3     OH2      OT      -0.834000       15.9994           0   0.00000       0.00000    
     49665 TIP3     8250     TIP3     H1       HT       0.417000       1.00800           0   0.00000       0.00000    
     49666 TIP3     8250     TIP3     H2       HT       0.417000       1.00800           0   0.00000     -0.301140E-02
     49667 TIP3     8251     TIP3     OH2      OT      -0.834000       15.9994           0   0.00000       0.00000    
     49668 TIP3     8251     TIP3     H1       HT       0.417000       1.00800           0   0.00000       0.00000    
     49669 TIP3     8251     TIP3     H2       HT       0.417000       1.00800           0   0.00000     -0.301140E-02
     49670 TIP3     8252     TIP3     OH2      OT      -0.834000       15.9994           0   0.00000       0.00000    
     49671 TIP3     8252     TIP3     H1       HT       0.417000       1.00800           0   0.00000       0.00000    
     49672 TIP3     8252     TIP3     H2       HT       0.417000       1.00800           0   0.00000     -0.301140E-02
     49673 TIP3     8253     TIP3     OH2      OT      -0.834000       15.9994           0   0.00000       0.00000    
     49674 TIP3     8253     TIP3     H1       HT       0.417000       1.00800           0   0.00000       0.00000    
     49675 TIP3     8253     TIP3     H2       HT       0.417000       1.00800           0   0.00000     -0.301140E-02
     49676 TIP3     8254     TIP3     OH2      OT      -0.834000       15.9994           0   0.00000       0.00000    
     49677 TIP3     8254     TIP3     H1       HT       0.417000       1.00800           0   0.00000       0.00000    
     49678 TIP3     8254     TIP3     H2       HT       0.417000       1.00800           0   0.00000     -0.301140E-02
     49679 TIP3     8255     TIP3     OH2      OT      -0.834000       15.9994           0   0.00000       0.00000    
     49680 TIP3     8255     TIP3     H1       HT       0.417000       1.00800           0   0.00000       0.00000    
     49681 TIP3     8255     TIP3     H2       HT       0.417000       1.00800           0   0.00000     -0.301140E-02
     49682 TIP3     8256     TIP3     OH2      OT      -0.834000       15.9994           0   0.00000       0.00000    
     49683 TIP3     8256     TIP3     H1       HT       0.417000       1.00800           0   0.00000       0.00000    
     49684 TIP3     8256     TIP3     H2       HT       0.417000       1.00800           0   0.00000     -0.301140E-02
     49685 TIP3     8257     TIP3     OH2      OT      -0.834000       15.9994           0   0.00000       0.00000    
     49686 TIP3     8257     TIP3     H1       HT       0.417000       1.00800           0   0.00000       0.00000    
     49687 TIP3     8257     TIP3     H2       HT       0.417000       1.00800           0   0.00000     -0.301140E-02
     49688 TIP3     8258     TIP3     OH2      OT      -0.834000       15.9994           0   0.00000       0.00000    
     49689 TIP3     8258     TIP3     H1       HT       0.417000       1.00800           0   0.00000       0.00000    
     49690 TIP3     8258     TIP3     H2       HT       0.417000       1.00800           0   0.00000     -0.301140E-02
     49691 TIP3     8259     TIP3     OH2      OT      -0.834000       15.9994           0   0.00000       0.00000    
     49692 TIP3     8259     TIP3     H1       HT       0.417000       1.00800           0   0.00000       0.00000    
     49693 TIP3     8259     TIP3     H2       HT       0.417000       1.00800           0   0.00000     -0.301140E-02
     49694 TIP3     8260     TIP3     OH2      OT      -0.834000       15.9994           0   0.00000       0.00000    
     49695 TIP3     8260     TIP3     H1       HT       0.417000       1.00800           0   0.00000       0.00000    
     49696 TIP3     8260     TIP3     H2       HT       0.417000       1.00800           0   0.00000     -0.301140E-02
     49697 TIP3     8261     TIP3     OH2      OT      -0.834000       15.9994           0   0.00000       0.00000    
     49698 TIP3     8261     TIP3     H1       HT       0.417000       1.00800           0   0.00000       0.00000    
     49699 TIP3     8261     TIP3     H2       HT       0.417000       1.00800           0   0.00000     -0.301140E-02
     49700 TIP3     8262     TIP3     OH2      OT      -0.834000       15.9994           0   0.00000       0.00000    
     49701 TIP3     8262     TIP3     H1       HT       0.417000       1.00800           0   0.00000       0.00000    
     49702 TIP3     8262     TIP3     H2       HT       0.417000       1.00800           0   0.00000     -0.301140E-02
     49703 TIP3     8263     TIP3     OH2      OT      -0.834000       15.9994           0   0.00000       0.00000    
     49704 TIP3     8263     TIP3     H1       HT       0.417000       1.00800           0   0.00000       0.00000    
     49705 TIP3     8263     TIP3     H2       HT       0.417000       1.00800           0   0.00000     -0.301140E-02
     49706 TIP3     8264     TIP3     OH2      OT      -0.834000       15.9994           0   0.00000       0.00000    
     49707 TIP3     8264     TIP3     H1       HT       0.417000       1.00800           0   0.00000       0.00000    
     49708 TIP3     8264     TIP3     H2       HT       0.417000       1.00800           0   0.00000     -0.301140E-02
     49709 TIP3     8265     TIP3     OH2      OT      -0.834000       15.9994           0   0.00000       0.00000    
     49710 TIP3     8265     TIP3     H1       HT       0.417000       1.00800           0   0.00000       0.00000    
     49711 TIP3     8265     TIP3     H2       HT       0.417000       1.00800           0   0.00000     -0.301140E-02
     49712 TIP3     8266     TIP3     OH2      OT      -0.834000       15.9994           0   0.00000       0.00000    
     49713 TIP3     8266     TIP3     H1       HT       0.417000       1.00800           0   0.00000       0.00000    
     49714 TIP3     8266     TIP3     H2       HT       0.417000       1.00800           0   0.00000     -0.301140E-02
     49715 TIP3     8267     TIP3     OH2      OT      -0.834000       15.9994           0   0.00000       0.00000    
     49716 TIP3     8267     TIP3     H1       HT       0.417000       1.00800           0   0.00000       0.00000    
     49717 TIP3     8267     TIP3     H2       HT       0.417000       1.00800           0   0.00000     -0.301140E-02
     49718 TIP3     8268     TIP3     OH2      OT      -0.834000       15.9994           0   0.00000       0.00000    
     49719 TIP3     8268     TIP3     H1       HT       0.417000       1.00800           0   0.00000       0.00000    
     49720 TIP3     8268     TIP3     H2       HT       0.417000       1.00800           0   0.00000     -0.301140E-02
     49721 TIP3     8269     TIP3     OH2      OT      -0.834000       15.9994           0   0.00000       0.00000    
     49722 TIP3     8269     TIP3     H1       HT       0.417000       1.00800           0   0.00000       0.00000    
     49723 TIP3     8269     TIP3     H2       HT       0.417000       1.00800           0   0.00000     -0.301140E-02
     49724 TIP3     8270     TIP3     OH2      OT      -0.834000       15.9994           0   0.00000       0.00000    
     49725 TIP3     8270     TIP3     H1       HT       0.417000       1.00800           0   0.00000       0.00000    
     49726 TIP3     8270     TIP3     H2       HT       0.417000       1.00800           0   0.00000     -0.301140E-02
     49727 TIP3     8271     TIP3     OH2      OT      -0.834000       15.9994           0   0.00000       0.00000    
     49728 TIP3     8271     TIP3     H1       HT       0.417000       1.00800           0   0.00000       0.00000    
     49729 TIP3     8271     TIP3     H2       HT       0.417000       1.00800           0   0.00000     -0.301140E-02
     49730 TIP3     8272     TIP3     OH2      OT      -0.834000       15.9994           0   0.00000       0.00000    
     49731 TIP3     8272     TIP3     H1       HT       0.417000       1.00800           0   0.00000       0.00000    
     49732 TIP3     8272     TIP3     H2       HT       0.417000       1.00800           0   0.00000     -0.301140E-02
     49733 TIP3     8273     TIP3     OH2      OT      -0.834000       15.9994           0   0.00000       0.00000    
     49734 TIP3     8273     TIP3     H1       HT       0.417000       1.00800           0   0.00000       0.00000    
     49735 TIP3     8273     TIP3     H2       HT       0.417000       1.00800           0   0.00000     -0.301140E-02
     49736 TIP3     8274     TIP3     OH2      OT      -0.834000       15.9994           0   0.00000       0.00000    
     49737 TIP3     8274     TIP3     H1       HT       0.417000       1.00800           0   0.00000       0.00000    
     49738 TIP3     8274     TIP3     H2       HT       0.417000       1.00800           0   0.00000     -0.301140E-02
     49739 TIP3     8275     TIP3     OH2      OT      -0.834000       15.9994           0   0.00000       0.00000    
     49740 TIP3     8275     TIP3     H1       HT       0.417000       1.00800           0   0.00000       0.00000    
     49741 TIP3     8275     TIP3     H2       HT       0.417000       1.00800           0   0.00000     -0.301140E-02
     49742 TIP3     8276     TIP3     OH2      OT      -0.834000       15.9994           0   0.00000       0.00000    
     49743 TIP3     8276     TIP3     H1       HT       0.417000       1.00800           0   0.00000       0.00000    
     49744 TIP3     8276     TIP3     H2       HT       0.417000       1.00800           0   0.00000     -0.301140E-02
     49745 TIP3     8277     TIP3     OH2      OT      -0.834000       15.9994           0   0.00000       0.00000    
     49746 TIP3     8277     TIP3     H1       HT       0.417000       1.00800           0   0.00000       0.00000    
     49747 TIP3     8277     TIP3     H2       HT       0.417000       1.00800           0   0.00000     -0.301140E-02
     49748 TIP3     8278     TIP3     OH2      OT      -0.834000       15.9994           0   0.00000       0.00000    
     49749 TIP3     8278     TIP3     H1       HT       0.417000       1.00800           0   0.00000       0.00000    
     49750 TIP3     8278     TIP3     H2       HT       0.417000       1.00800           0   0.00000     -0.301140E-02
     49751 TIP3     8279     TIP3     OH2      OT      -0.834000       15.9994           0   0.00000       0.00000    
     49752 TIP3     8279     TIP3     H1       HT       0.417000       1.00800           0   0.00000       0.00000    
     49753 TIP3     8279     TIP3     H2       HT       0.417000       1.00800           0   0.00000     -0.301140E-02
     49754 TIP3     8280     TIP3     OH2      OT      -0.834000       15.9994           0   0.00000       0.00000    
     49755 TIP3     8280     TIP3     H1       HT       0.417000       1.00800           0   0.00000       0.00000    
     49756 TIP3     8280     TIP3     H2       HT       0.417000       1.00800           0   0.00000     -0.301140E-02
     49757 TIP3     8281     TIP3     OH2      OT      -0.834000       15.9994           0   0.00000       0.00000    
     49758 TIP3     8281     TIP3     H1       HT       0.417000       1.00800           0   0.00000       0.00000    
     49759 TIP3     8281     TIP3     H2       HT       0.417000       1.00800           0   0.00000     -0.301140E-02
     49760 TIP3     8282     TIP3     OH2      OT      -0.834000       15.9994           0   0.00000       0.00000    
     49761 TIP3     8282     TIP3     H1       HT       0.417000       1.00800           0   0.00000       0.00000    
     49762 TIP3     8282     TIP3     H2       HT       0.417000       1.00800           0   0.00000     -0.301140E-02
     49763 TIP3     8283     TIP3     OH2      OT      -0.834000       15.9994           0   0.00000       0.00000    
     49764 TIP3     8283     TIP3     H1       HT       0.417000       1.00800           0   0.00000       0.00000    
     49765 TIP3     8283     TIP3     H2       HT       0.417000       1.00800           0   0.00000     -0.301140E-02
     49766 TIP3     8284     TIP3     OH2      OT      -0.834000       15.9994           0   0.00000       0.00000    
     49767 TIP3     8284     TIP3     H1       HT       0.417000       1.00800           0   0.00000       0.00000    
     49768 TIP3     8284     TIP3     H2       HT       0.417000       1.00800           0   0.00000     -0.301140E-02
     49769 TIP3     8285     TIP3     OH2      OT      -0.834000       15.9994           0   0.00000       0.00000    
     49770 TIP3     8285     TIP3     H1       HT       0.417000       1.00800           0   0.00000       0.00000    
     49771 TIP3     8285     TIP3     H2       HT       0.417000       1.00800           0   0.00000     -0.301140E-02
     49772 TIP3     8286     TIP3     OH2      OT      -0.834000       15.9994           0   0.00000       0.00000    
     49773 TIP3     8286     TIP3     H1       HT       0.417000       1.00800           0   0.00000       0.00000    
     49774 TIP3     8286     TIP3     H2       HT       0.417000       1.00800           0   0.00000     -0.301140E-02
     49775 TIP3     8287     TIP3     OH2      OT      -0.834000       15.9994           0   0.00000       0.00000    
     49776 TIP3     8287     TIP3     H1       HT       0.417000       1.00800           0   0.00000       0.00000    
     49777 TIP3     8287     TIP3     H2       HT       0.417000       1.00800           0   0.00000     -0.301140E-02
     49778 TIP3     8288     TIP3     OH2      OT      -0.834000       15.9994           0   0.00000       0.00000    
     49779 TIP3     8288     TIP3     H1       HT       0.417000       1.00800           0   0.00000       0.00000    
     49780 TIP3     8288     TIP3     H2       HT       0.417000       1.00800           0   0.00000     -0.301140E-02
     49781 TIP3     8289     TIP3     OH2      OT      -0.834000       15.9994           0   0.00000       0.00000    
     49782 TIP3     8289     TIP3     H1       HT       0.417000       1.00800           0   0.00000       0.00000    
     49783 TIP3     8289     TIP3     H2       HT       0.417000       1.00800           0   0.00000     -0.301140E-02
     49784 TIP3     8290     TIP3     OH2      OT      -0.834000       15.9994           0   0.00000       0.00000    
     49785 TIP3     8290     TIP3     H1       HT       0.417000       1.00800           0   0.00000       0.00000    
     49786 TIP3     8290     TIP3     H2       HT       0.417000       1.00800           0   0.00000     -0.301140E-02
     49787 TIP3     8291     TIP3     OH2      OT      -0.834000       15.9994           0   0.00000       0.00000    
     49788 TIP3     8291     TIP3     H1       HT       0.417000       1.00800           0   0.00000       0.00000    
     49789 TIP3     8291     TIP3     H2       HT       0.417000       1.00800           0   0.00000     -0.301140E-02
     49790 TIP3     8292     TIP3     OH2      OT      -0.834000       15.9994           0   0.00000       0.00000    
     49791 TIP3     8292     TIP3     H1       HT       0.417000       1.00800           0   0.00000       0.00000    
     49792 TIP3     8292     TIP3     H2       HT       0.417000       1.00800           0   0.00000     -0.301140E-02
     49793 TIP3     8293     TIP3     OH2      OT      -0.834000       15.9994           0   0.00000       0.00000    
     49794 TIP3     8293     TIP3     H1       HT       0.417000       1.00800           0   0.00000       0.00000    
     49795 TIP3     8293     TIP3     H2       HT       0.417000       1.00800           0   0.00000     -0.301140E-02
     49796 TIP3     8294     TIP3     OH2      OT      -0.834000       15.9994           0   0.00000       0.00000    
     49797 TIP3     8294     TIP3     H1       HT       0.417000       1.00800           0   0.00000       0.00000    
     49798 TIP3     8294     TIP3     H2       HT       0.417000       1.00800           0   0.00000     -0.301140E-02
     49799 TIP3     8295     TIP3     OH2      OT      -0.834000       15.9994           0   0.00000       0.00000    
     49800 TIP3     8295     TIP3     H1       HT       0.417000       1.00800           0   0.00000       0.00000    
     49801 TIP3     8295     TIP3     H2       HT       0.417000       1.00800           0   0.00000     -0.301140E-02
     49802 TIP3     8296     TIP3     OH2      OT      -0.834000       15.9994           0   0.00000       0.00000    
     49803 TIP3     8296     TIP3     H1       HT       0.417000       1.00800           0   0.00000       0.00000    
     49804 TIP3     8296     TIP3     H2       HT       0.417000       1.00800           0   0.00000     -0.301140E-02
     49805 TIP3     8297     TIP3     OH2      OT      -0.834000       15.9994           0   0.00000       0.00000    
     49806 TIP3     8297     TIP3     H1       HT       0.417000       1.00800           0   0.00000       0.00000    
     49807 TIP3     8297     TIP3     H2       HT       0.417000       1.00800           0   0.00000     -0.301140E-02
     49808 TIP3     8298     TIP3     OH2      OT      -0.834000       15.9994           0   0.00000       0.00000    
     49809 TIP3     8298     TIP3     H1       HT       0.417000       1.00800           0   0.00000       0.00000    
     49810 TIP3     8298     TIP3     H2       HT       0.417000       1.00800           0   0.00000     -0.301140E-02
     49811 TIP3     8299     TIP3     OH2      OT      -0.834000       15.9994           0   0.00000       0.00000    
     49812 TIP3     8299     TIP3     H1       HT       0.417000       1.00800           0   0.00000       0.00000    
     49813 TIP3     8299     TIP3     H2       HT       0.417000       1.00800           0   0.00000     -0.301140E-02
     49814 TIP3     8300     TIP3     OH2      OT      -0.834000       15.9994           0   0.00000       0.00000    
     49815 TIP3     8300     TIP3     H1       HT       0.417000       1.00800           0   0.00000       0.00000    
     49816 TIP3     8300     TIP3     H2       HT       0.417000       1.00800           0   0.00000     -0.301140E-02
     49817 TIP3     8301     TIP3     OH2      OT      -0.834000       15.9994           0   0.00000       0.00000    
     49818 TIP3     8301     TIP3     H1       HT       0.417000       1.00800           0   0.00000       0.00000    
     49819 TIP3     8301     TIP3     H2       HT       0.417000       1.00800           0   0.00000     -0.301140E-02
     49820 TIP3     8302     TIP3     OH2      OT      -0.834000       15.9994           0   0.00000       0.00000    
     49821 TIP3     8302     TIP3     H1       HT       0.417000       1.00800           0   0.00000       0.00000    
     49822 TIP3     8302     TIP3     H2       HT       0.417000       1.00800           0   0.00000     -0.301140E-02
     49823 TIP3     8303     TIP3     OH2      OT      -0.834000       15.9994           0   0.00000       0.00000    
     49824 TIP3     8303     TIP3     H1       HT       0.417000       1.00800           0   0.00000       0.00000    
     49825 TIP3     8303     TIP3     H2       HT       0.417000       1.00800           0   0.00000     -0.301140E-02
     49826 TIP3     8304     TIP3     OH2      OT      -0.834000       15.9994           0   0.00000       0.00000    
     49827 TIP3     8304     TIP3     H1       HT       0.417000       1.00800           0   0.00000       0.00000    
     49828 TIP3     8304     TIP3     H2       HT       0.417000       1.00800           0   0.00000     -0.301140E-02
     49829 TIP3     8305     TIP3     OH2      OT      -0.834000       15.9994           0   0.00000       0.00000    
     49830 TIP3     8305     TIP3     H1       HT       0.417000       1.00800           0   0.00000       0.00000    
     49831 TIP3     8305     TIP3     H2       HT       0.417000       1.00800           0   0.00000     -0.301140E-02
     49832 TIP3     8306     TIP3     OH2      OT      -0.834000       15.9994           0   0.00000       0.00000    
     49833 TIP3     8306     TIP3     H1       HT       0.417000       1.00800           0   0.00000       0.00000    
     49834 TIP3     8306     TIP3     H2       HT       0.417000       1.00800           0   0.00000     -0.301140E-02
     49835 TIP3     8307     TIP3     OH2      OT      -0.834000       15.9994           0   0.00000       0.00000    
     49836 TIP3     8307     TIP3     H1       HT       0.417000       1.00800           0   0.00000       0.00000    
     49837 TIP3     8307     TIP3     H2       HT       0.417000       1.00800           0   0.00000     -0.301140E-02
     49838 TIP3     8308     TIP3     OH2      OT      -0.834000       15.9994           0   0.00000       0.00000    
     49839 TIP3     8308     TIP3     H1       HT       0.417000       1.00800           0   0.00000       0.00000    
     49840 TIP3     8308     TIP3     H2       HT       0.417000       1.00800           0   0.00000     -0.301140E-02
     49841 TIP3     8309     TIP3     OH2      OT      -0.834000       15.9994           0   0.00000       0.00000    
     49842 TIP3     8309     TIP3     H1       HT       0.417000       1.00800           0   0.00000       0.00000    
     49843 TIP3     8309     TIP3     H2       HT       0.417000       1.00800           0   0.00000     -0.301140E-02
     49844 TIP3     8310     TIP3     OH2      OT      -0.834000       15.9994           0   0.00000       0.00000    
     49845 TIP3     8310     TIP3     H1       HT       0.417000       1.00800           0   0.00000       0.00000    
     49846 TIP3     8310     TIP3     H2       HT       0.417000       1.00800           0   0.00000     -0.301140E-02
     49847 TIP3     8311     TIP3     OH2      OT      -0.834000       15.9994           0   0.00000       0.00000    
     49848 TIP3     8311     TIP3     H1       HT       0.417000       1.00800           0   0.00000       0.00000    
     49849 TIP3     8311     TIP3     H2       HT       0.417000       1.00800           0   0.00000     -0.301140E-02
     49850 TIP3     8312     TIP3     OH2      OT      -0.834000       15.9994           0   0.00000       0.00000    
     49851 TIP3     8312     TIP3     H1       HT       0.417000       1.00800           0   0.00000       0.00000    
     49852 TIP3     8312     TIP3     H2       HT       0.417000       1.00800           0   0.00000     -0.301140E-02
     49853 TIP3     8313     TIP3     OH2      OT      -0.834000       15.9994           0   0.00000       0.00000    
     49854 TIP3     8313     TIP3     H1       HT       0.417000       1.00800           0   0.00000       0.00000    
     49855 TIP3     8313     TIP3     H2       HT       0.417000       1.00800           0   0.00000     -0.301140E-02
     49856 TIP3     8314     TIP3     OH2      OT      -0.834000       15.9994           0   0.00000       0.00000    
     49857 TIP3     8314     TIP3     H1       HT       0.417000       1.00800           0   0.00000       0.00000    
     49858 TIP3     8314     TIP3     H2       HT       0.417000       1.00800           0   0.00000     -0.301140E-02
     49859 TIP3     8315     TIP3     OH2      OT      -0.834000       15.9994           0   0.00000       0.00000    
     49860 TIP3     8315     TIP3     H1       HT       0.417000       1.00800           0   0.00000       0.00000    
     49861 TIP3     8315     TIP3     H2       HT       0.417000       1.00800           0   0.00000     -0.301140E-02
     49862 TIP3     8316     TIP3     OH2      OT      -0.834000       15.9994           0   0.00000       0.00000    
     49863 TIP3     8316     TIP3     H1       HT       0.417000       1.00800           0   0.00000       0.00000    
     49864 TIP3     8316     TIP3     H2       HT       0.417000       1.00800           0   0.00000     -0.301140E-02
     49865 TIP3     8317     TIP3     OH2      OT      -0.834000       15.9994           0   0.00000       0.00000    
     49866 TIP3     8317     TIP3     H1       HT       0.417000       1.00800           0   0.00000       0.00000    
     49867 TIP3     8317     TIP3     H2       HT       0.417000       1.00800           0   0.00000     -0.301140E-02
     49868 TIP3     8318     TIP3     OH2      OT      -0.834000       15.9994           0   0.00000       0.00000    
     49869 TIP3     8318     TIP3     H1       HT       0.417000       1.00800           0   0.00000       0.00000    
     49870 TIP3     8318     TIP3     H2       HT       0.417000       1.00800           0   0.00000     -0.301140E-02
     49871 TIP3     8319     TIP3     OH2      OT      -0.834000       15.9994           0   0.00000       0.00000    
     49872 TIP3     8319     TIP3     H1       HT       0.417000       1.00800           0   0.00000       0.00000    
     49873 TIP3     8319     TIP3     H2       HT       0.417000       1.00800           0   0.00000     -0.301140E-02
     49874 TIP3     8320     TIP3     OH2      OT      -0.834000       15.9994           0   0.00000       0.00000    
     49875 TIP3     8320     TIP3     H1       HT       0.417000       1.00800           0   0.00000       0.00000    
     49876 TIP3     8320     TIP3     H2       HT       0.417000       1.00800           0   0.00000     -0.301140E-02
     49877 TIP3     8321     TIP3     OH2      OT      -0.834000       15.9994           0   0.00000       0.00000    
     49878 TIP3     8321     TIP3     H1       HT       0.417000       1.00800           0   0.00000       0.00000    
     49879 TIP3     8321     TIP3     H2       HT       0.417000       1.00800           0   0.00000     -0.301140E-02
     49880 TIP3     8322     TIP3     OH2      OT      -0.834000       15.9994           0   0.00000       0.00000    
     49881 TIP3     8322     TIP3     H1       HT       0.417000       1.00800           0   0.00000       0.00000    
     49882 TIP3     8322     TIP3     H2       HT       0.417000       1.00800           0   0.00000     -0.301140E-02
     49883 TIP3     8323     TIP3     OH2      OT      -0.834000       15.9994           0   0.00000       0.00000    
     49884 TIP3     8323     TIP3     H1       HT       0.417000       1.00800           0   0.00000       0.00000    
     49885 TIP3     8323     TIP3     H2       HT       0.417000       1.00800           0   0.00000     -0.301140E-02
     49886 TIP3     8324     TIP3     OH2      OT      -0.834000       15.9994           0   0.00000       0.00000    
     49887 TIP3     8324     TIP3     H1       HT       0.417000       1.00800           0   0.00000       0.00000    
     49888 TIP3     8324     TIP3     H2       HT       0.417000       1.00800           0   0.00000     -0.301140E-02
     49889 TIP3     8325     TIP3     OH2      OT      -0.834000       15.9994           0   0.00000       0.00000    
     49890 TIP3     8325     TIP3     H1       HT       0.417000       1.00800           0   0.00000       0.00000    
     49891 TIP3     8325     TIP3     H2       HT       0.417000       1.00800           0   0.00000     -0.301140E-02
     49892 TIP3     8326     TIP3     OH2      OT      -0.834000       15.9994           0   0.00000       0.00000    
     49893 TIP3     8326     TIP3     H1       HT       0.417000       1.00800           0   0.00000       0.00000    
     49894 TIP3     8326     TIP3     H2       HT       0.417000       1.00800           0   0.00000     -0.301140E-02
     49895 TIP3     8327     TIP3     OH2      OT      -0.834000       15.9994           0   0.00000       0.00000    
     49896 TIP3     8327     TIP3     H1       HT       0.417000       1.00800           0   0.00000       0.00000    
     49897 TIP3     8327     TIP3     H2       HT       0.417000       1.00800           0   0.00000     -0.301140E-02
     49898 TIP3     8328     TIP3     OH2      OT      -0.834000       15.9994           0   0.00000       0.00000    
     49899 TIP3     8328     TIP3     H1       HT       0.417000       1.00800           0   0.00000       0.00000    
     49900 TIP3     8328     TIP3     H2       HT       0.417000       1.00800           0   0.00000     -0.301140E-02
     49901 TIP3     8329     TIP3     OH2      OT      -0.834000       15.9994           0   0.00000       0.00000    
     49902 TIP3     8329     TIP3     H1       HT       0.417000       1.00800           0   0.00000       0.00000    
     49903 TIP3     8329     TIP3     H2       HT       0.417000       1.00800           0   0.00000     -0.301140E-02
     49904 TIP3     8330     TIP3     OH2      OT      -0.834000       15.9994           0   0.00000       0.00000    
     49905 TIP3     8330     TIP3     H1       HT       0.417000       1.00800           0   0.00000       0.00000    
     49906 TIP3     8330     TIP3     H2       HT       0.417000       1.00800           0   0.00000     -0.301140E-02
     49907 TIP3     8331     TIP3     OH2      OT      -0.834000       15.9994           0   0.00000       0.00000    
     49908 TIP3     8331     TIP3     H1       HT       0.417000       1.00800           0   0.00000       0.00000    
     49909 TIP3     8331     TIP3     H2       HT       0.417000       1.00800           0   0.00000     -0.301140E-02
     49910 TIP3     8332     TIP3     OH2      OT      -0.834000       15.9994           0   0.00000       0.00000    
     49911 TIP3     8332     TIP3     H1       HT       0.417000       1.00800           0   0.00000       0.00000    
     49912 TIP3     8332     TIP3     H2       HT       0.417000       1.00800           0   0.00000     -0.301140E-02
     49913 TIP3     8333     TIP3     OH2      OT      -0.834000       15.9994           0   0.00000       0.00000    
     49914 TIP3     8333     TIP3     H1       HT       0.417000       1.00800           0   0.00000       0.00000    
     49915 TIP3     8333     TIP3     H2       HT       0.417000       1.00800           0   0.00000     -0.301140E-02
     49916 TIP3     8334     TIP3     OH2      OT      -0.834000       15.9994           0   0.00000       0.00000    
     49917 TIP3     8334     TIP3     H1       HT       0.417000       1.00800           0   0.00000       0.00000    
     49918 TIP3     8334     TIP3     H2       HT       0.417000       1.00800           0   0.00000     -0.301140E-02
     49919 TIP3     8335     TIP3     OH2      OT      -0.834000       15.9994           0   0.00000       0.00000    
     49920 TIP3     8335     TIP3     H1       HT       0.417000       1.00800           0   0.00000       0.00000    
     49921 TIP3     8335     TIP3     H2       HT       0.417000       1.00800           0   0.00000     -0.301140E-02
     49922 TIP3     8336     TIP3     OH2      OT      -0.834000       15.9994           0   0.00000       0.00000    
     49923 TIP3     8336     TIP3     H1       HT       0.417000       1.00800           0   0.00000       0.00000    
     49924 TIP3     8336     TIP3     H2       HT       0.417000       1.00800           0   0.00000     -0.301140E-02
     49925 TIP3     8337     TIP3     OH2      OT      -0.834000       15.9994           0   0.00000       0.00000    
     49926 TIP3     8337     TIP3     H1       HT       0.417000       1.00800           0   0.00000       0.00000    
     49927 TIP3     8337     TIP3     H2       HT       0.417000       1.00800           0   0.00000     -0.301140E-02
     49928 TIP3     8338     TIP3     OH2      OT      -0.834000       15.9994           0   0.00000       0.00000    
     49929 TIP3     8338     TIP3     H1       HT       0.417000       1.00800           0   0.00000       0.00000    
     49930 TIP3     8338     TIP3     H2       HT       0.417000       1.00800           0   0.00000     -0.301140E-02
     49931 TIP3     8339     TIP3     OH2      OT      -0.834000       15.9994           0   0.00000       0.00000    
     49932 TIP3     8339     TIP3     H1       HT       0.417000       1.00800           0   0.00000       0.00000    
     49933 TIP3     8339     TIP3     H2       HT       0.417000       1.00800           0   0.00000     -0.301140E-02
     49934 TIP3     8340     TIP3     OH2      OT      -0.834000       15.9994           0   0.00000       0.00000    
     49935 TIP3     8340     TIP3     H1       HT       0.417000       1.00800           0   0.00000       0.00000    
     49936 TIP3     8340     TIP3     H2       HT       0.417000       1.00800           0   0.00000     -0.301140E-02
     49937 TIP3     8341     TIP3     OH2      OT      -0.834000       15.9994           0   0.00000       0.00000    
     49938 TIP3     8341     TIP3     H1       HT       0.417000       1.00800           0   0.00000       0.00000    
     49939 TIP3     8341     TIP3     H2       HT       0.417000       1.00800           0   0.00000     -0.301140E-02
     49940 TIP3     8342     TIP3     OH2      OT      -0.834000       15.9994           0   0.00000       0.00000    
     49941 TIP3     8342     TIP3     H1       HT       0.417000       1.00800           0   0.00000       0.00000    
     49942 TIP3     8342     TIP3     H2       HT       0.417000       1.00800           0   0.00000     -0.301140E-02
     49943 TIP3     8343     TIP3     OH2      OT      -0.834000       15.9994           0   0.00000       0.00000    
     49944 TIP3     8343     TIP3     H1       HT       0.417000       1.00800           0   0.00000       0.00000    
     49945 TIP3     8343     TIP3     H2       HT       0.417000       1.00800           0   0.00000     -0.301140E-02
     49946 TIP3     8344     TIP3     OH2      OT      -0.834000       15.9994           0   0.00000       0.00000    
     49947 TIP3     8344     TIP3     H1       HT       0.417000       1.00800           0   0.00000       0.00000    
     49948 TIP3     8344     TIP3     H2       HT       0.417000       1.00800           0   0.00000     -0.301140E-02
     49949 TIP3     8345     TIP3     OH2      OT      -0.834000       15.9994           0   0.00000       0.00000    
     49950 TIP3     8345     TIP3     H1       HT       0.417000       1.00800           0   0.00000       0.00000    
     49951 TIP3     8345     TIP3     H2       HT       0.417000       1.00800           0   0.00000     -0.301140E-02
     49952 TIP3     8346     TIP3     OH2      OT      -0.834000       15.9994           0   0.00000       0.00000    
     49953 TIP3     8346     TIP3     H1       HT       0.417000       1.00800           0   0.00000       0.00000    
     49954 TIP3     8346     TIP3     H2       HT       0.417000       1.00800           0   0.00000     -0.301140E-02
     49955 TIP3     8347     TIP3     OH2      OT      -0.834000       15.9994           0   0.00000       0.00000    
     49956 TIP3     8347     TIP3     H1       HT       0.417000       1.00800           0   0.00000       0.00000    
     49957 TIP3     8347     TIP3     H2       HT       0.417000       1.00800           0   0.00000     -0.301140E-02
     49958 TIP3     8348     TIP3     OH2      OT      -0.834000       15.9994           0   0.00000       0.00000    
     49959 TIP3     8348     TIP3     H1       HT       0.417000       1.00800           0   0.00000       0.00000    
     49960 TIP3     8348     TIP3     H2       HT       0.417000       1.00800           0   0.00000     -0.301140E-02
     49961 TIP3     8349     TIP3     OH2      OT      -0.834000       15.9994           0   0.00000       0.00000    
     49962 TIP3     8349     TIP3     H1       HT       0.417000       1.00800           0   0.00000       0.00000    
     49963 TIP3     8349     TIP3     H2       HT       0.417000       1.00800           0   0.00000     -0.301140E-02
     49964 TIP3     8350     TIP3     OH2      OT      -0.834000       15.9994           0   0.00000       0.00000    
     49965 TIP3     8350     TIP3     H1       HT       0.417000       1.00800           0   0.00000       0.00000    
     49966 TIP3     8350     TIP3     H2       HT       0.417000       1.00800           0   0.00000     -0.301140E-02
     49967 TIP3     8351     TIP3     OH2      OT      -0.834000       15.9994           0   0.00000       0.00000    
     49968 TIP3     8351     TIP3     H1       HT       0.417000       1.00800           0   0.00000       0.00000    
     49969 TIP3     8351     TIP3     H2       HT       0.417000       1.00800           0   0.00000     -0.301140E-02
     49970 TIP3     8352     TIP3     OH2      OT      -0.834000       15.9994           0   0.00000       0.00000    
     49971 TIP3     8352     TIP3     H1       HT       0.417000       1.00800           0   0.00000       0.00000    
     49972 TIP3     8352     TIP3     H2       HT       0.417000       1.00800           0   0.00000     -0.301140E-02
     49973 TIP3     8353     TIP3     OH2      OT      -0.834000       15.9994           0   0.00000       0.00000    
     49974 TIP3     8353     TIP3     H1       HT       0.417000       1.00800           0   0.00000       0.00000    
     49975 TIP3     8353     TIP3     H2       HT       0.417000       1.00800           0   0.00000     -0.301140E-02
     49976 TIP3     8354     TIP3     OH2      OT      -0.834000       15.9994           0   0.00000       0.00000    
     49977 TIP3     8354     TIP3     H1       HT       0.417000       1.00800           0   0.00000       0.00000    
     49978 TIP3     8354     TIP3     H2       HT       0.417000       1.00800           0   0.00000     -0.301140E-02
     49979 TIP3     8355     TIP3     OH2      OT      -0.834000       15.9994           0   0.00000       0.00000    
     49980 TIP3     8355     TIP3     H1       HT       0.417000       1.00800           0   0.00000       0.00000    
     49981 TIP3     8355     TIP3     H2       HT       0.417000       1.00800           0   0.00000     -0.301140E-02
     49982 TIP3     8356     TIP3     OH2      OT      -0.834000       15.9994           0   0.00000       0.00000    
     49983 TIP3     8356     TIP3     H1       HT       0.417000       1.00800           0   0.00000       0.00000    
     49984 TIP3     8356     TIP3     H2       HT       0.417000       1.00800           0   0.00000     -0.301140E-02
     49985 TIP3     8357     TIP3     OH2      OT      -0.834000       15.9994           0   0.00000       0.00000    
     49986 TIP3     8357     TIP3     H1       HT       0.417000       1.00800           0   0.00000       0.00000    
     49987 TIP3     8357     TIP3     H2       HT       0.417000       1.00800           0   0.00000     -0.301140E-02
     49988 TIP3     8358     TIP3     OH2      OT      -0.834000       15.9994           0   0.00000       0.00000    
     49989 TIP3     8358     TIP3     H1       HT       0.417000       1.00800           0   0.00000       0.00000    
     49990 TIP3     8358     TIP3     H2       HT       0.417000       1.00800           0   0.00000     -0.301140E-02
     49991 TIP3     8359     TIP3     OH2      OT      -0.834000       15.9994           0   0.00000       0.00000    
     49992 TIP3     8359     TIP3     H1       HT       0.417000       1.00800           0   0.00000       0.00000    
     49993 TIP3     8359     TIP3     H2       HT       0.417000       1.00800           0   0.00000     -0.301140E-02
     49994 TIP3     8360     TIP3     OH2      OT      -0.834000       15.9994           0   0.00000       0.00000    
     49995 TIP3     8360     TIP3     H1       HT       0.417000       1.00800           0   0.00000       0.00000    
     49996 TIP3     8360     TIP3     H2       HT       0.417000       1.00800           0   0.00000     -0.301140E-02
     49997 TIP3     8361     TIP3     OH2      OT      -0.834000       15.9994           0   0.00000       0.00000    
     49998 TIP3     8361     TIP3     H1       HT       0.417000       1.00800           0   0.00000       0.00000    
     49999 TIP3     8361     TIP3     H2       HT       0.417000       1.00800           0   0.00000     -0.301140E-02
     50000 TIP3     8362     TIP3     OH2      OT      -0.834000       15.9994           0   0.00000       0.00000    
     50001 TIP3     8362     TIP3     H1       HT       0.417000       1.00800           0   0.00000       0.00000    
     50002 TIP3     8362     TIP3     H2       HT       0.417000       1.00800           0   0.00000     -0.301140E-02
     50003 TIP3     8363     TIP3     OH2      OT      -0.834000       15.9994           0   0.00000       0.00000    
     50004 TIP3     8363     TIP3     H1       HT       0.417000       1.00800           0   0.00000       0.00000    
     50005 TIP3     8363     TIP3     H2       HT       0.417000       1.00800           0   0.00000     -0.301140E-02
     50006 TIP3     8364     TIP3     OH2      OT      -0.834000       15.9994           0   0.00000       0.00000    
     50007 TIP3     8364     TIP3     H1       HT       0.417000       1.00800           0   0.00000       0.00000    
     50008 TIP3     8364     TIP3     H2       HT       0.417000       1.00800           0   0.00000     -0.301140E-02
     50009 TIP3     8365     TIP3     OH2      OT      -0.834000       15.9994           0   0.00000       0.00000    
     50010 TIP3     8365     TIP3     H1       HT       0.417000       1.00800           0   0.00000       0.00000    
     50011 TIP3     8365     TIP3     H2       HT       0.417000       1.00800           0   0.00000     -0.301140E-02
     50012 TIP3     8366     TIP3     OH2      OT      -0.834000       15.9994           0   0.00000       0.00000    
     50013 TIP3     8366     TIP3     H1       HT       0.417000       1.00800           0   0.00000       0.00000    
     50014 TIP3     8366     TIP3     H2       HT       0.417000       1.00800           0   0.00000     -0.301140E-02
     50015 TIP3     8367     TIP3     OH2      OT      -0.834000       15.9994           0   0.00000       0.00000    
     50016 TIP3     8367     TIP3     H1       HT       0.417000       1.00800           0   0.00000       0.00000    
     50017 TIP3     8367     TIP3     H2       HT       0.417000       1.00800           0   0.00000     -0.301140E-02
     50018 TIP3     8368     TIP3     OH2      OT      -0.834000       15.9994           0   0.00000       0.00000    
     50019 TIP3     8368     TIP3     H1       HT       0.417000       1.00800           0   0.00000       0.00000    
     50020 TIP3     8368     TIP3     H2       HT       0.417000       1.00800           0   0.00000     -0.301140E-02
     50021 TIP3     8369     TIP3     OH2      OT      -0.834000       15.9994           0   0.00000       0.00000    
     50022 TIP3     8369     TIP3     H1       HT       0.417000       1.00800           0   0.00000       0.00000    
     50023 TIP3     8369     TIP3     H2       HT       0.417000       1.00800           0   0.00000     -0.301140E-02
     50024 TIP3     8370     TIP3     OH2      OT      -0.834000       15.9994           0   0.00000       0.00000    
     50025 TIP3     8370     TIP3     H1       HT       0.417000       1.00800           0   0.00000       0.00000    
     50026 TIP3     8370     TIP3     H2       HT       0.417000       1.00800           0   0.00000     -0.301140E-02
     50027 TIP3     8371     TIP3     OH2      OT      -0.834000       15.9994           0   0.00000       0.00000    
     50028 TIP3     8371     TIP3     H1       HT       0.417000       1.00800           0   0.00000       0.00000    
     50029 TIP3     8371     TIP3     H2       HT       0.417000       1.00800           0   0.00000     -0.301140E-02
     50030 TIP3     8372     TIP3     OH2      OT      -0.834000       15.9994           0   0.00000       0.00000    
     50031 TIP3     8372     TIP3     H1       HT       0.417000       1.00800           0   0.00000       0.00000    
     50032 TIP3     8372     TIP3     H2       HT       0.417000       1.00800           0   0.00000     -0.301140E-02
     50033 TIP3     8373     TIP3     OH2      OT      -0.834000       15.9994           0   0.00000       0.00000    
     50034 TIP3     8373     TIP3     H1       HT       0.417000       1.00800           0   0.00000       0.00000    
     50035 TIP3     8373     TIP3     H2       HT       0.417000       1.00800           0   0.00000     -0.301140E-02
     50036 TIP3     8374     TIP3     OH2      OT      -0.834000       15.9994           0   0.00000       0.00000    
     50037 TIP3     8374     TIP3     H1       HT       0.417000       1.00800           0   0.00000       0.00000    
     50038 TIP3     8374     TIP3     H2       HT       0.417000       1.00800           0   0.00000     -0.301140E-02
     50039 TIP3     8375     TIP3     OH2      OT      -0.834000       15.9994           0   0.00000       0.00000    
     50040 TIP3     8375     TIP3     H1       HT       0.417000       1.00800           0   0.00000       0.00000    
     50041 TIP3     8375     TIP3     H2       HT       0.417000       1.00800           0   0.00000     -0.301140E-02
     50042 TIP3     8376     TIP3     OH2      OT      -0.834000       15.9994           0   0.00000       0.00000    
     50043 TIP3     8376     TIP3     H1       HT       0.417000       1.00800           0   0.00000       0.00000    
     50044 TIP3     8376     TIP3     H2       HT       0.417000       1.00800           0   0.00000     -0.301140E-02
     50045 TIP3     8377     TIP3     OH2      OT      -0.834000       15.9994           0   0.00000       0.00000    
     50046 TIP3     8377     TIP3     H1       HT       0.417000       1.00800           0   0.00000       0.00000    
     50047 TIP3     8377     TIP3     H2       HT       0.417000       1.00800           0   0.00000     -0.301140E-02
     50048 TIP3     8378     TIP3     OH2      OT      -0.834000       15.9994           0   0.00000       0.00000    
     50049 TIP3     8378     TIP3     H1       HT       0.417000       1.00800           0   0.00000       0.00000    
     50050 TIP3     8378     TIP3     H2       HT       0.417000       1.00800           0   0.00000     -0.301140E-02
     50051 TIP3     8379     TIP3     OH2      OT      -0.834000       15.9994           0   0.00000       0.00000    
     50052 TIP3     8379     TIP3     H1       HT       0.417000       1.00800           0   0.00000       0.00000    
     50053 TIP3     8379     TIP3     H2       HT       0.417000       1.00800           0   0.00000     -0.301140E-02
     50054 TIP3     8380     TIP3     OH2      OT      -0.834000       15.9994           0   0.00000       0.00000    
     50055 TIP3     8380     TIP3     H1       HT       0.417000       1.00800           0   0.00000       0.00000    
     50056 TIP3     8380     TIP3     H2       HT       0.417000       1.00800           0   0.00000     -0.301140E-02
     50057 TIP3     8381     TIP3     OH2      OT      -0.834000       15.9994           0   0.00000       0.00000    
     50058 TIP3     8381     TIP3     H1       HT       0.417000       1.00800           0   0.00000       0.00000    
     50059 TIP3     8381     TIP3     H2       HT       0.417000       1.00800           0   0.00000     -0.301140E-02
     50060 TIP3     8382     TIP3     OH2      OT      -0.834000       15.9994           0   0.00000       0.00000    
     50061 TIP3     8382     TIP3     H1       HT       0.417000       1.00800           0   0.00000       0.00000    
     50062 TIP3     8382     TIP3     H2       HT       0.417000       1.00800           0   0.00000     -0.301140E-02
     50063 TIP3     8383     TIP3     OH2      OT      -0.834000       15.9994           0   0.00000       0.00000    
     50064 TIP3     8383     TIP3     H1       HT       0.417000       1.00800           0   0.00000       0.00000    
     50065 TIP3     8383     TIP3     H2       HT       0.417000       1.00800           0   0.00000     -0.301140E-02
     50066 TIP3     8384     TIP3     OH2      OT      -0.834000       15.9994           0   0.00000       0.00000    
     50067 TIP3     8384     TIP3     H1       HT       0.417000       1.00800           0   0.00000       0.00000    
     50068 TIP3     8384     TIP3     H2       HT       0.417000       1.00800           0   0.00000     -0.301140E-02
     50069 TIP3     8385     TIP3     OH2      OT      -0.834000       15.9994           0   0.00000       0.00000    
     50070 TIP3     8385     TIP3     H1       HT       0.417000       1.00800           0   0.00000       0.00000    
     50071 TIP3     8385     TIP3     H2       HT       0.417000       1.00800           0   0.00000     -0.301140E-02
     50072 TIP3     8386     TIP3     OH2      OT      -0.834000       15.9994           0   0.00000       0.00000    
     50073 TIP3     8386     TIP3     H1       HT       0.417000       1.00800           0   0.00000       0.00000    
     50074 TIP3     8386     TIP3     H2       HT       0.417000       1.00800           0   0.00000     -0.301140E-02
     50075 TIP3     8387     TIP3     OH2      OT      -0.834000       15.9994           0   0.00000       0.00000    
     50076 TIP3     8387     TIP3     H1       HT       0.417000       1.00800           0   0.00000       0.00000    
     50077 TIP3     8387     TIP3     H2       HT       0.417000       1.00800           0   0.00000     -0.301140E-02
     50078 TIP3     8388     TIP3     OH2      OT      -0.834000       15.9994           0   0.00000       0.00000    
     50079 TIP3     8388     TIP3     H1       HT       0.417000       1.00800           0   0.00000       0.00000    
     50080 TIP3     8388     TIP3     H2       HT       0.417000       1.00800           0   0.00000     -0.301140E-02
     50081 TIP3     8389     TIP3     OH2      OT      -0.834000       15.9994           0   0.00000       0.00000    
     50082 TIP3     8389     TIP3     H1       HT       0.417000       1.00800           0   0.00000       0.00000    
     50083 TIP3     8389     TIP3     H2       HT       0.417000       1.00800           0   0.00000     -0.301140E-02
     50084 TIP3     8390     TIP3     OH2      OT      -0.834000       15.9994           0   0.00000       0.00000    
     50085 TIP3     8390     TIP3     H1       HT       0.417000       1.00800           0   0.00000       0.00000    
     50086 TIP3     8390     TIP3     H2       HT       0.417000       1.00800           0   0.00000     -0.301140E-02
     50087 TIP3     8391     TIP3     OH2      OT      -0.834000       15.9994           0   0.00000       0.00000    
     50088 TIP3     8391     TIP3     H1       HT       0.417000       1.00800           0   0.00000       0.00000    
     50089 TIP3     8391     TIP3     H2       HT       0.417000       1.00800           0   0.00000     -0.301140E-02
     50090 TIP3     8392     TIP3     OH2      OT      -0.834000       15.9994           0   0.00000       0.00000    
     50091 TIP3     8392     TIP3     H1       HT       0.417000       1.00800           0   0.00000       0.00000    
     50092 TIP3     8392     TIP3     H2       HT       0.417000       1.00800           0   0.00000     -0.301140E-02
     50093 TIP3     8393     TIP3     OH2      OT      -0.834000       15.9994           0   0.00000       0.00000    
     50094 TIP3     8393     TIP3     H1       HT       0.417000       1.00800           0   0.00000       0.00000    
     50095 TIP3     8393     TIP3     H2       HT       0.417000       1.00800           0   0.00000     -0.301140E-02
     50096 TIP3     8394     TIP3     OH2      OT      -0.834000       15.9994           0   0.00000       0.00000    
     50097 TIP3     8394     TIP3     H1       HT       0.417000       1.00800           0   0.00000       0.00000    
     50098 TIP3     8394     TIP3     H2       HT       0.417000       1.00800           0   0.00000     -0.301140E-02
     50099 TIP3     8395     TIP3     OH2      OT      -0.834000       15.9994           0   0.00000       0.00000    
     50100 TIP3     8395     TIP3     H1       HT       0.417000       1.00800           0   0.00000       0.00000    
     50101 TIP3     8395     TIP3     H2       HT       0.417000       1.00800           0   0.00000     -0.301140E-02
     50102 TIP3     8396     TIP3     OH2      OT      -0.834000       15.9994           0   0.00000       0.00000    
     50103 TIP3     8396     TIP3     H1       HT       0.417000       1.00800           0   0.00000       0.00000    
     50104 TIP3     8396     TIP3     H2       HT       0.417000       1.00800           0   0.00000     -0.301140E-02
     50105 TIP3     8397     TIP3     OH2      OT      -0.834000       15.9994           0   0.00000       0.00000    
     50106 TIP3     8397     TIP3     H1       HT       0.417000       1.00800           0   0.00000       0.00000    
     50107 TIP3     8397     TIP3     H2       HT       0.417000       1.00800           0   0.00000     -0.301140E-02
     50108 TIP3     8398     TIP3     OH2      OT      -0.834000       15.9994           0   0.00000       0.00000    
     50109 TIP3     8398     TIP3     H1       HT       0.417000       1.00800           0   0.00000       0.00000    
     50110 TIP3     8398     TIP3     H2       HT       0.417000       1.00800           0   0.00000     -0.301140E-02
     50111 TIP3     8399     TIP3     OH2      OT      -0.834000       15.9994           0   0.00000       0.00000    
     50112 TIP3     8399     TIP3     H1       HT       0.417000       1.00800           0   0.00000       0.00000    
     50113 TIP3     8399     TIP3     H2       HT       0.417000       1.00800           0   0.00000     -0.301140E-02
     50114 TIP3     8400     TIP3     OH2      OT      -0.834000       15.9994           0   0.00000       0.00000    
     50115 TIP3     8400     TIP3     H1       HT       0.417000       1.00800           0   0.00000       0.00000    
     50116 TIP3     8400     TIP3     H2       HT       0.417000       1.00800           0   0.00000     -0.301140E-02
     50117 TIP3     8401     TIP3     OH2      OT      -0.834000       15.9994           0   0.00000       0.00000    
     50118 TIP3     8401     TIP3     H1       HT       0.417000       1.00800           0   0.00000       0.00000    
     50119 TIP3     8401     TIP3     H2       HT       0.417000       1.00800           0   0.00000     -0.301140E-02
     50120 TIP3     8402     TIP3     OH2      OT      -0.834000       15.9994           0   0.00000       0.00000    
     50121 TIP3     8402     TIP3     H1       HT       0.417000       1.00800           0   0.00000       0.00000    
     50122 TIP3     8402     TIP3     H2       HT       0.417000       1.00800           0   0.00000     -0.301140E-02
     50123 TIP3     8403     TIP3     OH2      OT      -0.834000       15.9994           0   0.00000       0.00000    
     50124 TIP3     8403     TIP3     H1       HT       0.417000       1.00800           0   0.00000       0.00000    
     50125 TIP3     8403     TIP3     H2       HT       0.417000       1.00800           0   0.00000     -0.301140E-02
     50126 TIP3     8404     TIP3     OH2      OT      -0.834000       15.9994           0   0.00000       0.00000    
     50127 TIP3     8404     TIP3     H1       HT       0.417000       1.00800           0   0.00000       0.00000    
     50128 TIP3     8404     TIP3     H2       HT       0.417000       1.00800           0   0.00000     -0.301140E-02
     50129 TIP3     8405     TIP3     OH2      OT      -0.834000       15.9994           0   0.00000       0.00000    
     50130 TIP3     8405     TIP3     H1       HT       0.417000       1.00800           0   0.00000       0.00000    
     50131 TIP3     8405     TIP3     H2       HT       0.417000       1.00800           0   0.00000     -0.301140E-02
     50132 TIP3     8406     TIP3     OH2      OT      -0.834000       15.9994           0   0.00000       0.00000    
     50133 TIP3     8406     TIP3     H1       HT       0.417000       1.00800           0   0.00000       0.00000    
     50134 TIP3     8406     TIP3     H2       HT       0.417000       1.00800           0   0.00000     -0.301140E-02
     50135 TIP3     8407     TIP3     OH2      OT      -0.834000       15.9994           0   0.00000       0.00000    
     50136 TIP3     8407     TIP3     H1       HT       0.417000       1.00800           0   0.00000       0.00000    
     50137 TIP3     8407     TIP3     H2       HT       0.417000       1.00800           0   0.00000     -0.301140E-02
     50138 TIP3     8408     TIP3     OH2      OT      -0.834000       15.9994           0   0.00000       0.00000    
     50139 TIP3     8408     TIP3     H1       HT       0.417000       1.00800           0   0.00000       0.00000    
     50140 TIP3     8408     TIP3     H2       HT       0.417000       1.00800           0   0.00000     -0.301140E-02
     50141 TIP3     8409     TIP3     OH2      OT      -0.834000       15.9994           0   0.00000       0.00000    
     50142 TIP3     8409     TIP3     H1       HT       0.417000       1.00800           0   0.00000       0.00000    
     50143 TIP3     8409     TIP3     H2       HT       0.417000       1.00800           0   0.00000     -0.301140E-02
     50144 TIP3     8410     TIP3     OH2      OT      -0.834000       15.9994           0   0.00000       0.00000    
     50145 TIP3     8410     TIP3     H1       HT       0.417000       1.00800           0   0.00000       0.00000    
     50146 TIP3     8410     TIP3     H2       HT       0.417000       1.00800           0   0.00000     -0.301140E-02
     50147 TIP3     8411     TIP3     OH2      OT      -0.834000       15.9994           0   0.00000       0.00000    
     50148 TIP3     8411     TIP3     H1       HT       0.417000       1.00800           0   0.00000       0.00000    
     50149 TIP3     8411     TIP3     H2       HT       0.417000       1.00800           0   0.00000     -0.301140E-02
     50150 TIP3     8412     TIP3     OH2      OT      -0.834000       15.9994           0   0.00000       0.00000    
     50151 TIP3     8412     TIP3     H1       HT       0.417000       1.00800           0   0.00000       0.00000    
     50152 TIP3     8412     TIP3     H2       HT       0.417000       1.00800           0   0.00000     -0.301140E-02
     50153 TIP3     8413     TIP3     OH2      OT      -0.834000       15.9994           0   0.00000       0.00000    
     50154 TIP3     8413     TIP3     H1       HT       0.417000       1.00800           0   0.00000       0.00000    
     50155 TIP3     8413     TIP3     H2       HT       0.417000       1.00800           0   0.00000     -0.301140E-02
     50156 TIP3     8414     TIP3     OH2      OT      -0.834000       15.9994           0   0.00000       0.00000    
     50157 TIP3     8414     TIP3     H1       HT       0.417000       1.00800           0   0.00000       0.00000    
     50158 TIP3     8414     TIP3     H2       HT       0.417000       1.00800           0   0.00000     -0.301140E-02
     50159 TIP3     8415     TIP3     OH2      OT      -0.834000       15.9994           0   0.00000       0.00000    
     50160 TIP3     8415     TIP3     H1       HT       0.417000       1.00800           0   0.00000       0.00000    
     50161 TIP3     8415     TIP3     H2       HT       0.417000       1.00800           0   0.00000     -0.301140E-02
     50162 TIP3     8416     TIP3     OH2      OT      -0.834000       15.9994           0   0.00000       0.00000    
     50163 TIP3     8416     TIP3     H1       HT       0.417000       1.00800           0   0.00000       0.00000    
     50164 TIP3     8416     TIP3     H2       HT       0.417000       1.00800           0   0.00000     -0.301140E-02
     50165 TIP3     8417     TIP3     OH2      OT      -0.834000       15.9994           0   0.00000       0.00000    
     50166 TIP3     8417     TIP3     H1       HT       0.417000       1.00800           0   0.00000       0.00000    
     50167 TIP3     8417     TIP3     H2       HT       0.417000       1.00800           0   0.00000     -0.301140E-02
     50168 TIP3     8418     TIP3     OH2      OT      -0.834000       15.9994           0   0.00000       0.00000    
     50169 TIP3     8418     TIP3     H1       HT       0.417000       1.00800           0   0.00000       0.00000    
     50170 TIP3     8418     TIP3     H2       HT       0.417000       1.00800           0   0.00000     -0.301140E-02
     50171 TIP3     8419     TIP3     OH2      OT      -0.834000       15.9994           0   0.00000       0.00000    
     50172 TIP3     8419     TIP3     H1       HT       0.417000       1.00800           0   0.00000       0.00000    
     50173 TIP3     8419     TIP3     H2       HT       0.417000       1.00800           0   0.00000     -0.301140E-02
     50174 TIP3     8420     TIP3     OH2      OT      -0.834000       15.9994           0   0.00000       0.00000    
     50175 TIP3     8420     TIP3     H1       HT       0.417000       1.00800           0   0.00000       0.00000    
     50176 TIP3     8420     TIP3     H2       HT       0.417000       1.00800           0   0.00000     -0.301140E-02
     50177 TIP3     8421     TIP3     OH2      OT      -0.834000       15.9994           0   0.00000       0.00000    
     50178 TIP3     8421     TIP3     H1       HT       0.417000       1.00800           0   0.00000       0.00000    
     50179 TIP3     8421     TIP3     H2       HT       0.417000       1.00800           0   0.00000     -0.301140E-02
     50180 TIP3     8422     TIP3     OH2      OT      -0.834000       15.9994           0   0.00000       0.00000    
     50181 TIP3     8422     TIP3     H1       HT       0.417000       1.00800           0   0.00000       0.00000    
     50182 TIP3     8422     TIP3     H2       HT       0.417000       1.00800           0   0.00000     -0.301140E-02
     50183 TIP3     8423     TIP3     OH2      OT      -0.834000       15.9994           0   0.00000       0.00000    
     50184 TIP3     8423     TIP3     H1       HT       0.417000       1.00800           0   0.00000       0.00000    
     50185 TIP3     8423     TIP3     H2       HT       0.417000       1.00800           0   0.00000     -0.301140E-02
     50186 TIP3     8424     TIP3     OH2      OT      -0.834000       15.9994           0   0.00000       0.00000    
     50187 TIP3     8424     TIP3     H1       HT       0.417000       1.00800           0   0.00000       0.00000    
     50188 TIP3     8424     TIP3     H2       HT       0.417000       1.00800           0   0.00000     -0.301140E-02
     50189 TIP3     8425     TIP3     OH2      OT      -0.834000       15.9994           0   0.00000       0.00000    
     50190 TIP3     8425     TIP3     H1       HT       0.417000       1.00800           0   0.00000       0.00000    
     50191 TIP3     8425     TIP3     H2       HT       0.417000       1.00800           0   0.00000     -0.301140E-02
     50192 TIP3     8426     TIP3     OH2      OT      -0.834000       15.9994           0   0.00000       0.00000    
     50193 TIP3     8426     TIP3     H1       HT       0.417000       1.00800           0   0.00000       0.00000    
     50194 TIP3     8426     TIP3     H2       HT       0.417000       1.00800           0   0.00000     -0.301140E-02
     50195 TIP3     8427     TIP3     OH2      OT      -0.834000       15.9994           0   0.00000       0.00000    
     50196 TIP3     8427     TIP3     H1       HT       0.417000       1.00800           0   0.00000       0.00000    
     50197 TIP3     8427     TIP3     H2       HT       0.417000       1.00800           0   0.00000     -0.301140E-02
     50198 TIP3     8428     TIP3     OH2      OT      -0.834000       15.9994           0   0.00000       0.00000    
     50199 TIP3     8428     TIP3     H1       HT       0.417000       1.00800           0   0.00000       0.00000    
     50200 TIP3     8428     TIP3     H2       HT       0.417000       1.00800           0   0.00000     -0.301140E-02
     50201 TIP3     8429     TIP3     OH2      OT      -0.834000       15.9994           0   0.00000       0.00000    
     50202 TIP3     8429     TIP3     H1       HT       0.417000       1.00800           0   0.00000       0.00000    
     50203 TIP3     8429     TIP3     H2       HT       0.417000       1.00800           0   0.00000     -0.301140E-02
     50204 TIP3     8430     TIP3     OH2      OT      -0.834000       15.9994           0   0.00000       0.00000    
     50205 TIP3     8430     TIP3     H1       HT       0.417000       1.00800           0   0.00000       0.00000    
     50206 TIP3     8430     TIP3     H2       HT       0.417000       1.00800           0   0.00000     -0.301140E-02
     50207 TIP3     8431     TIP3     OH2      OT      -0.834000       15.9994           0   0.00000       0.00000    
     50208 TIP3     8431     TIP3     H1       HT       0.417000       1.00800           0   0.00000       0.00000    
     50209 TIP3     8431     TIP3     H2       HT       0.417000       1.00800           0   0.00000     -0.301140E-02
     50210 TIP3     8432     TIP3     OH2      OT      -0.834000       15.9994           0   0.00000       0.00000    
     50211 TIP3     8432     TIP3     H1       HT       0.417000       1.00800           0   0.00000       0.00000    
     50212 TIP3     8432     TIP3     H2       HT       0.417000       1.00800           0   0.00000     -0.301140E-02
     50213 TIP3     8433     TIP3     OH2      OT      -0.834000       15.9994           0   0.00000       0.00000    
     50214 TIP3     8433     TIP3     H1       HT       0.417000       1.00800           0   0.00000       0.00000    
     50215 TIP3     8433     TIP3     H2       HT       0.417000       1.00800           0   0.00000     -0.301140E-02
     50216 TIP3     8434     TIP3     OH2      OT      -0.834000       15.9994           0   0.00000       0.00000    
     50217 TIP3     8434     TIP3     H1       HT       0.417000       1.00800           0   0.00000       0.00000    
     50218 TIP3     8434     TIP3     H2       HT       0.417000       1.00800           0   0.00000     -0.301140E-02
     50219 TIP3     8435     TIP3     OH2      OT      -0.834000       15.9994           0   0.00000       0.00000    
     50220 TIP3     8435     TIP3     H1       HT       0.417000       1.00800           0   0.00000       0.00000    
     50221 TIP3     8435     TIP3     H2       HT       0.417000       1.00800           0   0.00000     -0.301140E-02
     50222 TIP3     8436     TIP3     OH2      OT      -0.834000       15.9994           0   0.00000       0.00000    
     50223 TIP3     8436     TIP3     H1       HT       0.417000       1.00800           0   0.00000       0.00000    
     50224 TIP3     8436     TIP3     H2       HT       0.417000       1.00800           0   0.00000     -0.301140E-02
     50225 TIP3     8437     TIP3     OH2      OT      -0.834000       15.9994           0   0.00000       0.00000    
     50226 TIP3     8437     TIP3     H1       HT       0.417000       1.00800           0   0.00000       0.00000    
     50227 TIP3     8437     TIP3     H2       HT       0.417000       1.00800           0   0.00000     -0.301140E-02
     50228 TIP3     8438     TIP3     OH2      OT      -0.834000       15.9994           0   0.00000       0.00000    
     50229 TIP3     8438     TIP3     H1       HT       0.417000       1.00800           0   0.00000       0.00000    
     50230 TIP3     8438     TIP3     H2       HT       0.417000       1.00800           0   0.00000     -0.301140E-02
     50231 TIP3     8439     TIP3     OH2      OT      -0.834000       15.9994           0   0.00000       0.00000    
     50232 TIP3     8439     TIP3     H1       HT       0.417000       1.00800           0   0.00000       0.00000    
     50233 TIP3     8439     TIP3     H2       HT       0.417000       1.00800           0   0.00000     -0.301140E-02
     50234 TIP3     8440     TIP3     OH2      OT      -0.834000       15.9994           0   0.00000       0.00000    
     50235 TIP3     8440     TIP3     H1       HT       0.417000       1.00800           0   0.00000       0.00000    
     50236 TIP3     8440     TIP3     H2       HT       0.417000       1.00800           0   0.00000     -0.301140E-02
     50237 TIP3     8441     TIP3     OH2      OT      -0.834000       15.9994           0   0.00000       0.00000    
     50238 TIP3     8441     TIP3     H1       HT       0.417000       1.00800           0   0.00000       0.00000    
     50239 TIP3     8441     TIP3     H2       HT       0.417000       1.00800           0   0.00000     -0.301140E-02
     50240 TIP3     8442     TIP3     OH2      OT      -0.834000       15.9994           0   0.00000       0.00000    
     50241 TIP3     8442     TIP3     H1       HT       0.417000       1.00800           0   0.00000       0.00000    
     50242 TIP3     8442     TIP3     H2       HT       0.417000       1.00800           0   0.00000     -0.301140E-02
     50243 TIP3     8443     TIP3     OH2      OT      -0.834000       15.9994           0   0.00000       0.00000    
     50244 TIP3     8443     TIP3     H1       HT       0.417000       1.00800           0   0.00000       0.00000    
     50245 TIP3     8443     TIP3     H2       HT       0.417000       1.00800           0   0.00000     -0.301140E-02
     50246 TIP3     8444     TIP3     OH2      OT      -0.834000       15.9994           0   0.00000       0.00000    
     50247 TIP3     8444     TIP3     H1       HT       0.417000       1.00800           0   0.00000       0.00000    
     50248 TIP3     8444     TIP3     H2       HT       0.417000       1.00800           0   0.00000     -0.301140E-02
     50249 TIP3     8445     TIP3     OH2      OT      -0.834000       15.9994           0   0.00000       0.00000    
     50250 TIP3     8445     TIP3     H1       HT       0.417000       1.00800           0   0.00000       0.00000    
     50251 TIP3     8445     TIP3     H2       HT       0.417000       1.00800           0   0.00000     -0.301140E-02
     50252 TIP3     8446     TIP3     OH2      OT      -0.834000       15.9994           0   0.00000       0.00000    
     50253 TIP3     8446     TIP3     H1       HT       0.417000       1.00800           0   0.00000       0.00000    
     50254 TIP3     8446     TIP3     H2       HT       0.417000       1.00800           0   0.00000     -0.301140E-02
     50255 TIP3     8447     TIP3     OH2      OT      -0.834000       15.9994           0   0.00000       0.00000    
     50256 TIP3     8447     TIP3     H1       HT       0.417000       1.00800           0   0.00000       0.00000    
     50257 TIP3     8447     TIP3     H2       HT       0.417000       1.00800           0   0.00000     -0.301140E-02
     50258 TIP3     8448     TIP3     OH2      OT      -0.834000       15.9994           0   0.00000       0.00000    
     50259 TIP3     8448     TIP3     H1       HT       0.417000       1.00800           0   0.00000       0.00000    
     50260 TIP3     8448     TIP3     H2       HT       0.417000       1.00800           0   0.00000     -0.301140E-02
     50261 TIP3     8449     TIP3     OH2      OT      -0.834000       15.9994           0   0.00000       0.00000    
     50262 TIP3     8449     TIP3     H1       HT       0.417000       1.00800           0   0.00000       0.00000    
     50263 TIP3     8449     TIP3     H2       HT       0.417000       1.00800           0   0.00000     -0.301140E-02
     50264 TIP3     8450     TIP3     OH2      OT      -0.834000       15.9994           0   0.00000       0.00000    
     50265 TIP3     8450     TIP3     H1       HT       0.417000       1.00800           0   0.00000       0.00000    
     50266 TIP3     8450     TIP3     H2       HT       0.417000       1.00800           0   0.00000     -0.301140E-02
     50267 TIP3     8451     TIP3     OH2      OT      -0.834000       15.9994           0   0.00000       0.00000    
     50268 TIP3     8451     TIP3     H1       HT       0.417000       1.00800           0   0.00000       0.00000    
     50269 TIP3     8451     TIP3     H2       HT       0.417000       1.00800           0   0.00000     -0.301140E-02
     50270 TIP3     8452     TIP3     OH2      OT      -0.834000       15.9994           0   0.00000       0.00000    
     50271 TIP3     8452     TIP3     H1       HT       0.417000       1.00800           0   0.00000       0.00000    
     50272 TIP3     8452     TIP3     H2       HT       0.417000       1.00800           0   0.00000     -0.301140E-02
     50273 TIP3     8453     TIP3     OH2      OT      -0.834000       15.9994           0   0.00000       0.00000    
     50274 TIP3     8453     TIP3     H1       HT       0.417000       1.00800           0   0.00000       0.00000    
     50275 TIP3     8453     TIP3     H2       HT       0.417000       1.00800           0   0.00000     -0.301140E-02
     50276 TIP3     8454     TIP3     OH2      OT      -0.834000       15.9994           0   0.00000       0.00000    
     50277 TIP3     8454     TIP3     H1       HT       0.417000       1.00800           0   0.00000       0.00000    
     50278 TIP3     8454     TIP3     H2       HT       0.417000       1.00800           0   0.00000     -0.301140E-02
     50279 TIP3     8455     TIP3     OH2      OT      -0.834000       15.9994           0   0.00000       0.00000    
     50280 TIP3     8455     TIP3     H1       HT       0.417000       1.00800           0   0.00000       0.00000    
     50281 TIP3     8455     TIP3     H2       HT       0.417000       1.00800           0   0.00000     -0.301140E-02
     50282 TIP3     8456     TIP3     OH2      OT      -0.834000       15.9994           0   0.00000       0.00000    
     50283 TIP3     8456     TIP3     H1       HT       0.417000       1.00800           0   0.00000       0.00000    
     50284 TIP3     8456     TIP3     H2       HT       0.417000       1.00800           0   0.00000     -0.301140E-02
     50285 TIP3     8457     TIP3     OH2      OT      -0.834000       15.9994           0   0.00000       0.00000    
     50286 TIP3     8457     TIP3     H1       HT       0.417000       1.00800           0   0.00000       0.00000    
     50287 TIP3     8457     TIP3     H2       HT       0.417000       1.00800           0   0.00000     -0.301140E-02
     50288 TIP3     8458     TIP3     OH2      OT      -0.834000       15.9994           0   0.00000       0.00000    
     50289 TIP3     8458     TIP3     H1       HT       0.417000       1.00800           0   0.00000       0.00000    
     50290 TIP3     8458     TIP3     H2       HT       0.417000       1.00800           0   0.00000     -0.301140E-02
     50291 TIP3     8459     TIP3     OH2      OT      -0.834000       15.9994           0   0.00000       0.00000    
     50292 TIP3     8459     TIP3     H1       HT       0.417000       1.00800           0   0.00000       0.00000    
     50293 TIP3     8459     TIP3     H2       HT       0.417000       1.00800           0   0.00000     -0.301140E-02
     50294 TIP3     8460     TIP3     OH2      OT      -0.834000       15.9994           0   0.00000       0.00000    
     50295 TIP3     8460     TIP3     H1       HT       0.417000       1.00800           0   0.00000       0.00000    
     50296 TIP3     8460     TIP3     H2       HT       0.417000       1.00800           0   0.00000     -0.301140E-02
     50297 TIP3     8461     TIP3     OH2      OT      -0.834000       15.9994           0   0.00000       0.00000    
     50298 TIP3     8461     TIP3     H1       HT       0.417000       1.00800           0   0.00000       0.00000    
     50299 TIP3     8461     TIP3     H2       HT       0.417000       1.00800           0   0.00000     -0.301140E-02
     50300 TIP3     8462     TIP3     OH2      OT      -0.834000       15.9994           0   0.00000       0.00000    
     50301 TIP3     8462     TIP3     H1       HT       0.417000       1.00800           0   0.00000       0.00000    
     50302 TIP3     8462     TIP3     H2       HT       0.417000       1.00800           0   0.00000     -0.301140E-02
     50303 TIP3     8463     TIP3     OH2      OT      -0.834000       15.9994           0   0.00000       0.00000    
     50304 TIP3     8463     TIP3     H1       HT       0.417000       1.00800           0   0.00000       0.00000    
     50305 TIP3     8463     TIP3     H2       HT       0.417000       1.00800           0   0.00000     -0.301140E-02
     50306 TIP3     8464     TIP3     OH2      OT      -0.834000       15.9994           0   0.00000       0.00000    
     50307 TIP3     8464     TIP3     H1       HT       0.417000       1.00800           0   0.00000       0.00000    
     50308 TIP3     8464     TIP3     H2       HT       0.417000       1.00800           0   0.00000     -0.301140E-02
     50309 TIP3     8465     TIP3     OH2      OT      -0.834000       15.9994           0   0.00000       0.00000    
     50310 TIP3     8465     TIP3     H1       HT       0.417000       1.00800           0   0.00000       0.00000    
     50311 TIP3     8465     TIP3     H2       HT       0.417000       1.00800           0   0.00000     -0.301140E-02
     50312 TIP3     8466     TIP3     OH2      OT      -0.834000       15.9994           0   0.00000       0.00000    
     50313 TIP3     8466     TIP3     H1       HT       0.417000       1.00800           0   0.00000       0.00000    
     50314 TIP3     8466     TIP3     H2       HT       0.417000       1.00800           0   0.00000     -0.301140E-02
     50315 TIP3     8467     TIP3     OH2      OT      -0.834000       15.9994           0   0.00000       0.00000    
     50316 TIP3     8467     TIP3     H1       HT       0.417000       1.00800           0   0.00000       0.00000    
     50317 TIP3     8467     TIP3     H2       HT       0.417000       1.00800           0   0.00000     -0.301140E-02
     50318 TIP3     8468     TIP3     OH2      OT      -0.834000       15.9994           0   0.00000       0.00000    
     50319 TIP3     8468     TIP3     H1       HT       0.417000       1.00800           0   0.00000       0.00000    
     50320 TIP3     8468     TIP3     H2       HT       0.417000       1.00800           0   0.00000     -0.301140E-02
     50321 TIP3     8469     TIP3     OH2      OT      -0.834000       15.9994           0   0.00000       0.00000    
     50322 TIP3     8469     TIP3     H1       HT       0.417000       1.00800           0   0.00000       0.00000    
     50323 TIP3     8469     TIP3     H2       HT       0.417000       1.00800           0   0.00000     -0.301140E-02
     50324 TIP3     8470     TIP3     OH2      OT      -0.834000       15.9994           0   0.00000       0.00000    
     50325 TIP3     8470     TIP3     H1       HT       0.417000       1.00800           0   0.00000       0.00000    
     50326 TIP3     8470     TIP3     H2       HT       0.417000       1.00800           0   0.00000     -0.301140E-02
     50327 TIP3     8471     TIP3     OH2      OT      -0.834000       15.9994           0   0.00000       0.00000    
     50328 TIP3     8471     TIP3     H1       HT       0.417000       1.00800           0   0.00000       0.00000    
     50329 TIP3     8471     TIP3     H2       HT       0.417000       1.00800           0   0.00000     -0.301140E-02
     50330 TIP3     8472     TIP3     OH2      OT      -0.834000       15.9994           0   0.00000       0.00000    
     50331 TIP3     8472     TIP3     H1       HT       0.417000       1.00800           0   0.00000       0.00000    
     50332 TIP3     8472     TIP3     H2       HT       0.417000       1.00800           0   0.00000     -0.301140E-02
     50333 TIP3     8473     TIP3     OH2      OT      -0.834000       15.9994           0   0.00000       0.00000    
     50334 TIP3     8473     TIP3     H1       HT       0.417000       1.00800           0   0.00000       0.00000    
     50335 TIP3     8473     TIP3     H2       HT       0.417000       1.00800           0   0.00000     -0.301140E-02
     50336 TIP3     8474     TIP3     OH2      OT      -0.834000       15.9994           0   0.00000       0.00000    
     50337 TIP3     8474     TIP3     H1       HT       0.417000       1.00800           0   0.00000       0.00000    
     50338 TIP3     8474     TIP3     H2       HT       0.417000       1.00800           0   0.00000     -0.301140E-02
     50339 TIP3     8475     TIP3     OH2      OT      -0.834000       15.9994           0   0.00000       0.00000    
     50340 TIP3     8475     TIP3     H1       HT       0.417000       1.00800           0   0.00000       0.00000    
     50341 TIP3     8475     TIP3     H2       HT       0.417000       1.00800           0   0.00000     -0.301140E-02
     50342 TIP3     8476     TIP3     OH2      OT      -0.834000       15.9994           0   0.00000       0.00000    
     50343 TIP3     8476     TIP3     H1       HT       0.417000       1.00800           0   0.00000       0.00000    
     50344 TIP3     8476     TIP3     H2       HT       0.417000       1.00800           0   0.00000     -0.301140E-02
     50345 TIP3     8477     TIP3     OH2      OT      -0.834000       15.9994           0   0.00000       0.00000    
     50346 TIP3     8477     TIP3     H1       HT       0.417000       1.00800           0   0.00000       0.00000    
     50347 TIP3     8477     TIP3     H2       HT       0.417000       1.00800           0   0.00000     -0.301140E-02
     50348 TIP3     8478     TIP3     OH2      OT      -0.834000       15.9994           0   0.00000       0.00000    
     50349 TIP3     8478     TIP3     H1       HT       0.417000       1.00800           0   0.00000       0.00000    
     50350 TIP3     8478     TIP3     H2       HT       0.417000       1.00800           0   0.00000     -0.301140E-02
     50351 TIP3     8479     TIP3     OH2      OT      -0.834000       15.9994           0   0.00000       0.00000    
     50352 TIP3     8479     TIP3     H1       HT       0.417000       1.00800           0   0.00000       0.00000    
     50353 TIP3     8479     TIP3     H2       HT       0.417000       1.00800           0   0.00000     -0.301140E-02
     50354 TIP3     8480     TIP3     OH2      OT      -0.834000       15.9994           0   0.00000       0.00000    
     50355 TIP3     8480     TIP3     H1       HT       0.417000       1.00800           0   0.00000       0.00000    
     50356 TIP3     8480     TIP3     H2       HT       0.417000       1.00800           0   0.00000     -0.301140E-02
     50357 TIP3     8481     TIP3     OH2      OT      -0.834000       15.9994           0   0.00000       0.00000    
     50358 TIP3     8481     TIP3     H1       HT       0.417000       1.00800           0   0.00000       0.00000    
     50359 TIP3     8481     TIP3     H2       HT       0.417000       1.00800           0   0.00000     -0.301140E-02
     50360 TIP3     8482     TIP3     OH2      OT      -0.834000       15.9994           0   0.00000       0.00000    
     50361 TIP3     8482     TIP3     H1       HT       0.417000       1.00800           0   0.00000       0.00000    
     50362 TIP3     8482     TIP3     H2       HT       0.417000       1.00800           0   0.00000     -0.301140E-02
     50363 TIP3     8483     TIP3     OH2      OT      -0.834000       15.9994           0   0.00000       0.00000    
     50364 TIP3     8483     TIP3     H1       HT       0.417000       1.00800           0   0.00000       0.00000    
     50365 TIP3     8483     TIP3     H2       HT       0.417000       1.00800           0   0.00000     -0.301140E-02
     50366 TIP3     8484     TIP3     OH2      OT      -0.834000       15.9994           0   0.00000       0.00000    
     50367 TIP3     8484     TIP3     H1       HT       0.417000       1.00800           0   0.00000       0.00000    
     50368 TIP3     8484     TIP3     H2       HT       0.417000       1.00800           0   0.00000     -0.301140E-02
     50369 TIP3     8485     TIP3     OH2      OT      -0.834000       15.9994           0   0.00000       0.00000    
     50370 TIP3     8485     TIP3     H1       HT       0.417000       1.00800           0   0.00000       0.00000    
     50371 TIP3     8485     TIP3     H2       HT       0.417000       1.00800           0   0.00000     -0.301140E-02
     50372 TIP3     8486     TIP3     OH2      OT      -0.834000       15.9994           0   0.00000       0.00000    
     50373 TIP3     8486     TIP3     H1       HT       0.417000       1.00800           0   0.00000       0.00000    
     50374 TIP3     8486     TIP3     H2       HT       0.417000       1.00800           0   0.00000     -0.301140E-02
     50375 TIP3     8487     TIP3     OH2      OT      -0.834000       15.9994           0   0.00000       0.00000    
     50376 TIP3     8487     TIP3     H1       HT       0.417000       1.00800           0   0.00000       0.00000    
     50377 TIP3     8487     TIP3     H2       HT       0.417000       1.00800           0   0.00000     -0.301140E-02
     50378 TIP3     8488     TIP3     OH2      OT      -0.834000       15.9994           0   0.00000       0.00000    
     50379 TIP3     8488     TIP3     H1       HT       0.417000       1.00800           0   0.00000       0.00000    
     50380 TIP3     8488     TIP3     H2       HT       0.417000       1.00800           0   0.00000     -0.301140E-02
     50381 TIP3     8489     TIP3     OH2      OT      -0.834000       15.9994           0   0.00000       0.00000    
     50382 TIP3     8489     TIP3     H1       HT       0.417000       1.00800           0   0.00000       0.00000    
     50383 TIP3     8489     TIP3     H2       HT       0.417000       1.00800           0   0.00000     -0.301140E-02
     50384 TIP3     8490     TIP3     OH2      OT      -0.834000       15.9994           0   0.00000       0.00000    
     50385 TIP3     8490     TIP3     H1       HT       0.417000       1.00800           0   0.00000       0.00000    
     50386 TIP3     8490     TIP3     H2       HT       0.417000       1.00800           0   0.00000     -0.301140E-02
     50387 TIP3     8491     TIP3     OH2      OT      -0.834000       15.9994           0   0.00000       0.00000    
     50388 TIP3     8491     TIP3     H1       HT       0.417000       1.00800           0   0.00000       0.00000    
     50389 TIP3     8491     TIP3     H2       HT       0.417000       1.00800           0   0.00000     -0.301140E-02
     50390 TIP3     8492     TIP3     OH2      OT      -0.834000       15.9994           0   0.00000       0.00000    
     50391 TIP3     8492     TIP3     H1       HT       0.417000       1.00800           0   0.00000       0.00000    
     50392 TIP3     8492     TIP3     H2       HT       0.417000       1.00800           0   0.00000     -0.301140E-02
     50393 TIP3     8493     TIP3     OH2      OT      -0.834000       15.9994           0   0.00000       0.00000    
     50394 TIP3     8493     TIP3     H1       HT       0.417000       1.00800           0   0.00000       0.00000    
     50395 TIP3     8493     TIP3     H2       HT       0.417000       1.00800           0   0.00000     -0.301140E-02
     50396 TIP3     8494     TIP3     OH2      OT      -0.834000       15.9994           0   0.00000       0.00000    
     50397 TIP3     8494     TIP3     H1       HT       0.417000       1.00800           0   0.00000       0.00000    
     50398 TIP3     8494     TIP3     H2       HT       0.417000       1.00800           0   0.00000     -0.301140E-02
     50399 TIP3     8495     TIP3     OH2      OT      -0.834000       15.9994           0   0.00000       0.00000    
     50400 TIP3     8495     TIP3     H1       HT       0.417000       1.00800           0   0.00000       0.00000    
     50401 TIP3     8495     TIP3     H2       HT       0.417000       1.00800           0   0.00000     -0.301140E-02
     50402 TIP3     8496     TIP3     OH2      OT      -0.834000       15.9994           0   0.00000       0.00000    
     50403 TIP3     8496     TIP3     H1       HT       0.417000       1.00800           0   0.00000       0.00000    
     50404 TIP3     8496     TIP3     H2       HT       0.417000       1.00800           0   0.00000     -0.301140E-02
     50405 TIP3     8497     TIP3     OH2      OT      -0.834000       15.9994           0   0.00000       0.00000    
     50406 TIP3     8497     TIP3     H1       HT       0.417000       1.00800           0   0.00000       0.00000    
     50407 TIP3     8497     TIP3     H2       HT       0.417000       1.00800           0   0.00000     -0.301140E-02
     50408 TIP3     8498     TIP3     OH2      OT      -0.834000       15.9994           0   0.00000       0.00000    
     50409 TIP3     8498     TIP3     H1       HT       0.417000       1.00800           0   0.00000       0.00000    
     50410 TIP3     8498     TIP3     H2       HT       0.417000       1.00800           0   0.00000     -0.301140E-02
     50411 TIP3     8499     TIP3     OH2      OT      -0.834000       15.9994           0   0.00000       0.00000    
     50412 TIP3     8499     TIP3     H1       HT       0.417000       1.00800           0   0.00000       0.00000    
     50413 TIP3     8499     TIP3     H2       HT       0.417000       1.00800           0   0.00000     -0.301140E-02
     50414 TIP3     8500     TIP3     OH2      OT      -0.834000       15.9994           0   0.00000       0.00000    
     50415 TIP3     8500     TIP3     H1       HT       0.417000       1.00800           0   0.00000       0.00000    
     50416 TIP3     8500     TIP3     H2       HT       0.417000       1.00800           0   0.00000     -0.301140E-02
     50417 TIP3     8501     TIP3     OH2      OT      -0.834000       15.9994           0   0.00000       0.00000    
     50418 TIP3     8501     TIP3     H1       HT       0.417000       1.00800           0   0.00000       0.00000    
     50419 TIP3     8501     TIP3     H2       HT       0.417000       1.00800           0   0.00000     -0.301140E-02
     50420 TIP3     8502     TIP3     OH2      OT      -0.834000       15.9994           0   0.00000       0.00000    
     50421 TIP3     8502     TIP3     H1       HT       0.417000       1.00800           0   0.00000       0.00000    
     50422 TIP3     8502     TIP3     H2       HT       0.417000       1.00800           0   0.00000     -0.301140E-02
     50423 TIP3     8503     TIP3     OH2      OT      -0.834000       15.9994           0   0.00000       0.00000    
     50424 TIP3     8503     TIP3     H1       HT       0.417000       1.00800           0   0.00000       0.00000    
     50425 TIP3     8503     TIP3     H2       HT       0.417000       1.00800           0   0.00000     -0.301140E-02
     50426 TIP3     8504     TIP3     OH2      OT      -0.834000       15.9994           0   0.00000       0.00000    
     50427 TIP3     8504     TIP3     H1       HT       0.417000       1.00800           0   0.00000       0.00000    
     50428 TIP3     8504     TIP3     H2       HT       0.417000       1.00800           0   0.00000     -0.301140E-02
     50429 TIP3     8505     TIP3     OH2      OT      -0.834000       15.9994           0   0.00000       0.00000    
     50430 TIP3     8505     TIP3     H1       HT       0.417000       1.00800           0   0.00000       0.00000    
     50431 TIP3     8505     TIP3     H2       HT       0.417000       1.00800           0   0.00000     -0.301140E-02
     50432 TIP3     8506     TIP3     OH2      OT      -0.834000       15.9994           0   0.00000       0.00000    
     50433 TIP3     8506     TIP3     H1       HT       0.417000       1.00800           0   0.00000       0.00000    
     50434 TIP3     8506     TIP3     H2       HT       0.417000       1.00800           0   0.00000     -0.301140E-02
     50435 TIP3     8507     TIP3     OH2      OT      -0.834000       15.9994           0   0.00000       0.00000    
     50436 TIP3     8507     TIP3     H1       HT       0.417000       1.00800           0   0.00000       0.00000    
     50437 TIP3     8507     TIP3     H2       HT       0.417000       1.00800           0   0.00000     -0.301140E-02
     50438 TIP3     8508     TIP3     OH2      OT      -0.834000       15.9994           0   0.00000       0.00000    
     50439 TIP3     8508     TIP3     H1       HT       0.417000       1.00800           0   0.00000       0.00000    
     50440 TIP3     8508     TIP3     H2       HT       0.417000       1.00800           0   0.00000     -0.301140E-02
     50441 TIP3     8509     TIP3     OH2      OT      -0.834000       15.9994           0   0.00000       0.00000    
     50442 TIP3     8509     TIP3     H1       HT       0.417000       1.00800           0   0.00000       0.00000    
     50443 TIP3     8509     TIP3     H2       HT       0.417000       1.00800           0   0.00000     -0.301140E-02
     50444 TIP3     8510     TIP3     OH2      OT      -0.834000       15.9994           0   0.00000       0.00000    
     50445 TIP3     8510     TIP3     H1       HT       0.417000       1.00800           0   0.00000       0.00000    
     50446 TIP3     8510     TIP3     H2       HT       0.417000       1.00800           0   0.00000     -0.301140E-02
     50447 TIP3     8511     TIP3     OH2      OT      -0.834000       15.9994           0   0.00000       0.00000    
     50448 TIP3     8511     TIP3     H1       HT       0.417000       1.00800           0   0.00000       0.00000    
     50449 TIP3     8511     TIP3     H2       HT       0.417000       1.00800           0   0.00000     -0.301140E-02
     50450 TIP3     8512     TIP3     OH2      OT      -0.834000       15.9994           0   0.00000       0.00000    
     50451 TIP3     8512     TIP3     H1       HT       0.417000       1.00800           0   0.00000       0.00000    
     50452 TIP3     8512     TIP3     H2       HT       0.417000       1.00800           0   0.00000     -0.301140E-02
     50453 TIP3     8513     TIP3     OH2      OT      -0.834000       15.9994           0   0.00000       0.00000    
     50454 TIP3     8513     TIP3     H1       HT       0.417000       1.00800           0   0.00000       0.00000    
     50455 TIP3     8513     TIP3     H2       HT       0.417000       1.00800           0   0.00000     -0.301140E-02
     50456 TIP3     8514     TIP3     OH2      OT      -0.834000       15.9994           0   0.00000       0.00000    
     50457 TIP3     8514     TIP3     H1       HT       0.417000       1.00800           0   0.00000       0.00000    
     50458 TIP3     8514     TIP3     H2       HT       0.417000       1.00800           0   0.00000     -0.301140E-02
     50459 TIP3     8515     TIP3     OH2      OT      -0.834000       15.9994           0   0.00000       0.00000    
     50460 TIP3     8515     TIP3     H1       HT       0.417000       1.00800           0   0.00000       0.00000    
     50461 TIP3     8515     TIP3     H2       HT       0.417000       1.00800           0   0.00000     -0.301140E-02
     50462 TIP3     8516     TIP3     OH2      OT      -0.834000       15.9994           0   0.00000       0.00000    
     50463 TIP3     8516     TIP3     H1       HT       0.417000       1.00800           0   0.00000       0.00000    
     50464 TIP3     8516     TIP3     H2       HT       0.417000       1.00800           0   0.00000     -0.301140E-02
     50465 TIP3     8517     TIP3     OH2      OT      -0.834000       15.9994           0   0.00000       0.00000    
     50466 TIP3     8517     TIP3     H1       HT       0.417000       1.00800           0   0.00000       0.00000    
     50467 TIP3     8517     TIP3     H2       HT       0.417000       1.00800           0   0.00000     -0.301140E-02
     50468 TIP3     8518     TIP3     OH2      OT      -0.834000       15.9994           0   0.00000       0.00000    
     50469 TIP3     8518     TIP3     H1       HT       0.417000       1.00800           0   0.00000       0.00000    
     50470 TIP3     8518     TIP3     H2       HT       0.417000       1.00800           0   0.00000     -0.301140E-02
     50471 TIP3     8519     TIP3     OH2      OT      -0.834000       15.9994           0   0.00000       0.00000    
     50472 TIP3     8519     TIP3     H1       HT       0.417000       1.00800           0   0.00000       0.00000    
     50473 TIP3     8519     TIP3     H2       HT       0.417000       1.00800           0   0.00000     -0.301140E-02
     50474 TIP3     8520     TIP3     OH2      OT      -0.834000       15.9994           0   0.00000       0.00000    
     50475 TIP3     8520     TIP3     H1       HT       0.417000       1.00800           0   0.00000       0.00000    
     50476 TIP3     8520     TIP3     H2       HT       0.417000       1.00800           0   0.00000     -0.301140E-02
     50477 TIP3     8521     TIP3     OH2      OT      -0.834000       15.9994           0   0.00000       0.00000    
     50478 TIP3     8521     TIP3     H1       HT       0.417000       1.00800           0   0.00000       0.00000    
     50479 TIP3     8521     TIP3     H2       HT       0.417000       1.00800           0   0.00000     -0.301140E-02
     50480 TIP3     8522     TIP3     OH2      OT      -0.834000       15.9994           0   0.00000       0.00000    
     50481 TIP3     8522     TIP3     H1       HT       0.417000       1.00800           0   0.00000       0.00000    
     50482 TIP3     8522     TIP3     H2       HT       0.417000       1.00800           0   0.00000     -0.301140E-02
     50483 TIP3     8523     TIP3     OH2      OT      -0.834000       15.9994           0   0.00000       0.00000    
     50484 TIP3     8523     TIP3     H1       HT       0.417000       1.00800           0   0.00000       0.00000    
     50485 TIP3     8523     TIP3     H2       HT       0.417000       1.00800           0   0.00000     -0.301140E-02
     50486 TIP3     8524     TIP3     OH2      OT      -0.834000       15.9994           0   0.00000       0.00000    
     50487 TIP3     8524     TIP3     H1       HT       0.417000       1.00800           0   0.00000       0.00000    
     50488 TIP3     8524     TIP3     H2       HT       0.417000       1.00800           0   0.00000     -0.301140E-02
     50489 TIP3     8525     TIP3     OH2      OT      -0.834000       15.9994           0   0.00000       0.00000    
     50490 TIP3     8525     TIP3     H1       HT       0.417000       1.00800           0   0.00000       0.00000    
     50491 TIP3     8525     TIP3     H2       HT       0.417000       1.00800           0   0.00000     -0.301140E-02
     50492 TIP3     8526     TIP3     OH2      OT      -0.834000       15.9994           0   0.00000       0.00000    
     50493 TIP3     8526     TIP3     H1       HT       0.417000       1.00800           0   0.00000       0.00000    
     50494 TIP3     8526     TIP3     H2       HT       0.417000       1.00800           0   0.00000     -0.301140E-02
     50495 TIP3     8527     TIP3     OH2      OT      -0.834000       15.9994           0   0.00000       0.00000    
     50496 TIP3     8527     TIP3     H1       HT       0.417000       1.00800           0   0.00000       0.00000    
     50497 TIP3     8527     TIP3     H2       HT       0.417000       1.00800           0   0.00000     -0.301140E-02
     50498 TIP3     8528     TIP3     OH2      OT      -0.834000       15.9994           0   0.00000       0.00000    
     50499 TIP3     8528     TIP3     H1       HT       0.417000       1.00800           0   0.00000       0.00000    
     50500 TIP3     8528     TIP3     H2       HT       0.417000       1.00800           0   0.00000     -0.301140E-02
     50501 TIP3     8529     TIP3     OH2      OT      -0.834000       15.9994           0   0.00000       0.00000    
     50502 TIP3     8529     TIP3     H1       HT       0.417000       1.00800           0   0.00000       0.00000    
     50503 TIP3     8529     TIP3     H2       HT       0.417000       1.00800           0   0.00000     -0.301140E-02
     50504 TIP3     8530     TIP3     OH2      OT      -0.834000       15.9994           0   0.00000       0.00000    
     50505 TIP3     8530     TIP3     H1       HT       0.417000       1.00800           0   0.00000       0.00000    
     50506 TIP3     8530     TIP3     H2       HT       0.417000       1.00800           0   0.00000     -0.301140E-02
     50507 TIP3     8531     TIP3     OH2      OT      -0.834000       15.9994           0   0.00000       0.00000    
     50508 TIP3     8531     TIP3     H1       HT       0.417000       1.00800           0   0.00000       0.00000    
     50509 TIP3     8531     TIP3     H2       HT       0.417000       1.00800           0   0.00000     -0.301140E-02
     50510 TIP3     8532     TIP3     OH2      OT      -0.834000       15.9994           0   0.00000       0.00000    
     50511 TIP3     8532     TIP3     H1       HT       0.417000       1.00800           0   0.00000       0.00000    
     50512 TIP3     8532     TIP3     H2       HT       0.417000       1.00800           0   0.00000     -0.301140E-02
     50513 TIP3     8533     TIP3     OH2      OT      -0.834000       15.9994           0   0.00000       0.00000    
     50514 TIP3     8533     TIP3     H1       HT       0.417000       1.00800           0   0.00000       0.00000    
     50515 TIP3     8533     TIP3     H2       HT       0.417000       1.00800           0   0.00000     -0.301140E-02
     50516 TIP3     8534     TIP3     OH2      OT      -0.834000       15.9994           0   0.00000       0.00000    
     50517 TIP3     8534     TIP3     H1       HT       0.417000       1.00800           0   0.00000       0.00000    
     50518 TIP3     8534     TIP3     H2       HT       0.417000       1.00800           0   0.00000     -0.301140E-02
     50519 TIP3     8535     TIP3     OH2      OT      -0.834000       15.9994           0   0.00000       0.00000    
     50520 TIP3     8535     TIP3     H1       HT       0.417000       1.00800           0   0.00000       0.00000    
     50521 TIP3     8535     TIP3     H2       HT       0.417000       1.00800           0   0.00000     -0.301140E-02
     50522 TIP3     8536     TIP3     OH2      OT      -0.834000       15.9994           0   0.00000       0.00000    
     50523 TIP3     8536     TIP3     H1       HT       0.417000       1.00800           0   0.00000       0.00000    
     50524 TIP3     8536     TIP3     H2       HT       0.417000       1.00800           0   0.00000     -0.301140E-02
     50525 TIP3     8537     TIP3     OH2      OT      -0.834000       15.9994           0   0.00000       0.00000    
     50526 TIP3     8537     TIP3     H1       HT       0.417000       1.00800           0   0.00000       0.00000    
     50527 TIP3     8537     TIP3     H2       HT       0.417000       1.00800           0   0.00000     -0.301140E-02
     50528 TIP3     8538     TIP3     OH2      OT      -0.834000       15.9994           0   0.00000       0.00000    
     50529 TIP3     8538     TIP3     H1       HT       0.417000       1.00800           0   0.00000       0.00000    
     50530 TIP3     8538     TIP3     H2       HT       0.417000       1.00800           0   0.00000     -0.301140E-02
     50531 TIP3     8539     TIP3     OH2      OT      -0.834000       15.9994           0   0.00000       0.00000    
     50532 TIP3     8539     TIP3     H1       HT       0.417000       1.00800           0   0.00000       0.00000    
     50533 TIP3     8539     TIP3     H2       HT       0.417000       1.00800           0   0.00000     -0.301140E-02
     50534 TIP3     8540     TIP3     OH2      OT      -0.834000       15.9994           0   0.00000       0.00000    
     50535 TIP3     8540     TIP3     H1       HT       0.417000       1.00800           0   0.00000       0.00000    
     50536 TIP3     8540     TIP3     H2       HT       0.417000       1.00800           0   0.00000     -0.301140E-02
     50537 TIP3     8541     TIP3     OH2      OT      -0.834000       15.9994           0   0.00000       0.00000    
     50538 TIP3     8541     TIP3     H1       HT       0.417000       1.00800           0   0.00000       0.00000    
     50539 TIP3     8541     TIP3     H2       HT       0.417000       1.00800           0   0.00000     -0.301140E-02
     50540 TIP3     8542     TIP3     OH2      OT      -0.834000       15.9994           0   0.00000       0.00000    
     50541 TIP3     8542     TIP3     H1       HT       0.417000       1.00800           0   0.00000       0.00000    
     50542 TIP3     8542     TIP3     H2       HT       0.417000       1.00800           0   0.00000     -0.301140E-02
     50543 TIP3     8543     TIP3     OH2      OT      -0.834000       15.9994           0   0.00000       0.00000    
     50544 TIP3     8543     TIP3     H1       HT       0.417000       1.00800           0   0.00000       0.00000    
     50545 TIP3     8543     TIP3     H2       HT       0.417000       1.00800           0   0.00000     -0.301140E-02
     50546 TIP3     8544     TIP3     OH2      OT      -0.834000       15.9994           0   0.00000       0.00000    
     50547 TIP3     8544     TIP3     H1       HT       0.417000       1.00800           0   0.00000       0.00000    
     50548 TIP3     8544     TIP3     H2       HT       0.417000       1.00800           0   0.00000     -0.301140E-02
     50549 TIP3     8545     TIP3     OH2      OT      -0.834000       15.9994           0   0.00000       0.00000    
     50550 TIP3     8545     TIP3     H1       HT       0.417000       1.00800           0   0.00000       0.00000    
     50551 TIP3     8545     TIP3     H2       HT       0.417000       1.00800           0   0.00000     -0.301140E-02
     50552 TIP3     8546     TIP3     OH2      OT      -0.834000       15.9994           0   0.00000       0.00000    
     50553 TIP3     8546     TIP3     H1       HT       0.417000       1.00800           0   0.00000       0.00000    
     50554 TIP3     8546     TIP3     H2       HT       0.417000       1.00800           0   0.00000     -0.301140E-02
     50555 TIP3     8547     TIP3     OH2      OT      -0.834000       15.9994           0   0.00000       0.00000    
     50556 TIP3     8547     TIP3     H1       HT       0.417000       1.00800           0   0.00000       0.00000    
     50557 TIP3     8547     TIP3     H2       HT       0.417000       1.00800           0   0.00000     -0.301140E-02
     50558 TIP3     8548     TIP3     OH2      OT      -0.834000       15.9994           0   0.00000       0.00000    
     50559 TIP3     8548     TIP3     H1       HT       0.417000       1.00800           0   0.00000       0.00000    
     50560 TIP3     8548     TIP3     H2       HT       0.417000       1.00800           0   0.00000     -0.301140E-02
     50561 TIP3     8549     TIP3     OH2      OT      -0.834000       15.9994           0   0.00000       0.00000    
     50562 TIP3     8549     TIP3     H1       HT       0.417000       1.00800           0   0.00000       0.00000    
     50563 TIP3     8549     TIP3     H2       HT       0.417000       1.00800           0   0.00000     -0.301140E-02
     50564 TIP3     8550     TIP3     OH2      OT      -0.834000       15.9994           0   0.00000       0.00000    
     50565 TIP3     8550     TIP3     H1       HT       0.417000       1.00800           0   0.00000       0.00000    
     50566 TIP3     8550     TIP3     H2       HT       0.417000       1.00800           0   0.00000     -0.301140E-02
     50567 TIP3     8551     TIP3     OH2      OT      -0.834000       15.9994           0   0.00000       0.00000    
     50568 TIP3     8551     TIP3     H1       HT       0.417000       1.00800           0   0.00000       0.00000    
     50569 TIP3     8551     TIP3     H2       HT       0.417000       1.00800           0   0.00000     -0.301140E-02
     50570 TIP3     8552     TIP3     OH2      OT      -0.834000       15.9994           0   0.00000       0.00000    
     50571 TIP3     8552     TIP3     H1       HT       0.417000       1.00800           0   0.00000       0.00000    
     50572 TIP3     8552     TIP3     H2       HT       0.417000       1.00800           0   0.00000     -0.301140E-02
     50573 TIP3     8553     TIP3     OH2      OT      -0.834000       15.9994           0   0.00000       0.00000    
     50574 TIP3     8553     TIP3     H1       HT       0.417000       1.00800           0   0.00000       0.00000    
     50575 TIP3     8553     TIP3     H2       HT       0.417000       1.00800           0   0.00000     -0.301140E-02
     50576 TIP3     8554     TIP3     OH2      OT      -0.834000       15.9994           0   0.00000       0.00000    
     50577 TIP3     8554     TIP3     H1       HT       0.417000       1.00800           0   0.00000       0.00000    
     50578 TIP3     8554     TIP3     H2       HT       0.417000       1.00800           0   0.00000     -0.301140E-02
     50579 TIP3     8555     TIP3     OH2      OT      -0.834000       15.9994           0   0.00000       0.00000    
     50580 TIP3     8555     TIP3     H1       HT       0.417000       1.00800           0   0.00000       0.00000    
     50581 TIP3     8555     TIP3     H2       HT       0.417000       1.00800           0   0.00000     -0.301140E-02
     50582 TIP3     8556     TIP3     OH2      OT      -0.834000       15.9994           0   0.00000       0.00000    
     50583 TIP3     8556     TIP3     H1       HT       0.417000       1.00800           0   0.00000       0.00000    
     50584 TIP3     8556     TIP3     H2       HT       0.417000       1.00800           0   0.00000     -0.301140E-02
     50585 TIP3     8557     TIP3     OH2      OT      -0.834000       15.9994           0   0.00000       0.00000    
     50586 TIP3     8557     TIP3     H1       HT       0.417000       1.00800           0   0.00000       0.00000    
     50587 TIP3     8557     TIP3     H2       HT       0.417000       1.00800           0   0.00000     -0.301140E-02
     50588 TIP3     8558     TIP3     OH2      OT      -0.834000       15.9994           0   0.00000       0.00000    
     50589 TIP3     8558     TIP3     H1       HT       0.417000       1.00800           0   0.00000       0.00000    
     50590 TIP3     8558     TIP3     H2       HT       0.417000       1.00800           0   0.00000     -0.301140E-02
     50591 TIP3     8559     TIP3     OH2      OT      -0.834000       15.9994           0   0.00000       0.00000    
     50592 TIP3     8559     TIP3     H1       HT       0.417000       1.00800           0   0.00000       0.00000    
     50593 TIP3     8559     TIP3     H2       HT       0.417000       1.00800           0   0.00000     -0.301140E-02
     50594 TIP3     8560     TIP3     OH2      OT      -0.834000       15.9994           0   0.00000       0.00000    
     50595 TIP3     8560     TIP3     H1       HT       0.417000       1.00800           0   0.00000       0.00000    
     50596 TIP3     8560     TIP3     H2       HT       0.417000       1.00800           0   0.00000     -0.301140E-02
     50597 TIP3     8561     TIP3     OH2      OT      -0.834000       15.9994           0   0.00000       0.00000    
     50598 TIP3     8561     TIP3     H1       HT       0.417000       1.00800           0   0.00000       0.00000    
     50599 TIP3     8561     TIP3     H2       HT       0.417000       1.00800           0   0.00000     -0.301140E-02
     50600 TIP3     8562     TIP3     OH2      OT      -0.834000       15.9994           0   0.00000       0.00000    
     50601 TIP3     8562     TIP3     H1       HT       0.417000       1.00800           0   0.00000       0.00000    
     50602 TIP3     8562     TIP3     H2       HT       0.417000       1.00800           0   0.00000     -0.301140E-02
     50603 TIP3     8563     TIP3     OH2      OT      -0.834000       15.9994           0   0.00000       0.00000    
     50604 TIP3     8563     TIP3     H1       HT       0.417000       1.00800           0   0.00000       0.00000    
     50605 TIP3     8563     TIP3     H2       HT       0.417000       1.00800           0   0.00000     -0.301140E-02
     50606 TIP3     8564     TIP3     OH2      OT      -0.834000       15.9994           0   0.00000       0.00000    
     50607 TIP3     8564     TIP3     H1       HT       0.417000       1.00800           0   0.00000       0.00000    
     50608 TIP3     8564     TIP3     H2       HT       0.417000       1.00800           0   0.00000     -0.301140E-02
     50609 TIP3     8565     TIP3     OH2      OT      -0.834000       15.9994           0   0.00000       0.00000    
     50610 TIP3     8565     TIP3     H1       HT       0.417000       1.00800           0   0.00000       0.00000    
     50611 TIP3     8565     TIP3     H2       HT       0.417000       1.00800           0   0.00000     -0.301140E-02
     50612 TIP3     8566     TIP3     OH2      OT      -0.834000       15.9994           0   0.00000       0.00000    
     50613 TIP3     8566     TIP3     H1       HT       0.417000       1.00800           0   0.00000       0.00000    
     50614 TIP3     8566     TIP3     H2       HT       0.417000       1.00800           0   0.00000     -0.301140E-02
     50615 TIP3     8567     TIP3     OH2      OT      -0.834000       15.9994           0   0.00000       0.00000    
     50616 TIP3     8567     TIP3     H1       HT       0.417000       1.00800           0   0.00000       0.00000    
     50617 TIP3     8567     TIP3     H2       HT       0.417000       1.00800           0   0.00000     -0.301140E-02
     50618 TIP3     8568     TIP3     OH2      OT      -0.834000       15.9994           0   0.00000       0.00000    
     50619 TIP3     8568     TIP3     H1       HT       0.417000       1.00800           0   0.00000       0.00000    
     50620 TIP3     8568     TIP3     H2       HT       0.417000       1.00800           0   0.00000     -0.301140E-02
     50621 TIP3     8569     TIP3     OH2      OT      -0.834000       15.9994           0   0.00000       0.00000    
     50622 TIP3     8569     TIP3     H1       HT       0.417000       1.00800           0   0.00000       0.00000    
     50623 TIP3     8569     TIP3     H2       HT       0.417000       1.00800           0   0.00000     -0.301140E-02
     50624 TIP3     8570     TIP3     OH2      OT      -0.834000       15.9994           0   0.00000       0.00000    
     50625 TIP3     8570     TIP3     H1       HT       0.417000       1.00800           0   0.00000       0.00000    
     50626 TIP3     8570     TIP3     H2       HT       0.417000       1.00800           0   0.00000     -0.301140E-02
     50627 TIP3     8571     TIP3     OH2      OT      -0.834000       15.9994           0   0.00000       0.00000    
     50628 TIP3     8571     TIP3     H1       HT       0.417000       1.00800           0   0.00000       0.00000    
     50629 TIP3     8571     TIP3     H2       HT       0.417000       1.00800           0   0.00000     -0.301140E-02
     50630 TIP3     8572     TIP3     OH2      OT      -0.834000       15.9994           0   0.00000       0.00000    
     50631 TIP3     8572     TIP3     H1       HT       0.417000       1.00800           0   0.00000       0.00000    
     50632 TIP3     8572     TIP3     H2       HT       0.417000       1.00800           0   0.00000     -0.301140E-02
     50633 TIP3     8573     TIP3     OH2      OT      -0.834000       15.9994           0   0.00000       0.00000    
     50634 TIP3     8573     TIP3     H1       HT       0.417000       1.00800           0   0.00000       0.00000    
     50635 TIP3     8573     TIP3     H2       HT       0.417000       1.00800           0   0.00000     -0.301140E-02
     50636 TIP3     8574     TIP3     OH2      OT      -0.834000       15.9994           0   0.00000       0.00000    
     50637 TIP3     8574     TIP3     H1       HT       0.417000       1.00800           0   0.00000       0.00000    
     50638 TIP3     8574     TIP3     H2       HT       0.417000       1.00800           0   0.00000     -0.301140E-02
     50639 TIP3     8575     TIP3     OH2      OT      -0.834000       15.9994           0   0.00000       0.00000    
     50640 TIP3     8575     TIP3     H1       HT       0.417000       1.00800           0   0.00000       0.00000    
     50641 TIP3     8575     TIP3     H2       HT       0.417000       1.00800           0   0.00000     -0.301140E-02
     50642 TIP3     8576     TIP3     OH2      OT      -0.834000       15.9994           0   0.00000       0.00000    
     50643 TIP3     8576     TIP3     H1       HT       0.417000       1.00800           0   0.00000       0.00000    
     50644 TIP3     8576     TIP3     H2       HT       0.417000       1.00800           0   0.00000     -0.301140E-02
     50645 TIP3     8577     TIP3     OH2      OT      -0.834000       15.9994           0   0.00000       0.00000    
     50646 TIP3     8577     TIP3     H1       HT       0.417000       1.00800           0   0.00000       0.00000    
     50647 TIP3     8577     TIP3     H2       HT       0.417000       1.00800           0   0.00000     -0.301140E-02
     50648 TIP3     8578     TIP3     OH2      OT      -0.834000       15.9994           0   0.00000       0.00000    
     50649 TIP3     8578     TIP3     H1       HT       0.417000       1.00800           0   0.00000       0.00000    
     50650 TIP3     8578     TIP3     H2       HT       0.417000       1.00800           0   0.00000     -0.301140E-02
     50651 TIP3     8579     TIP3     OH2      OT      -0.834000       15.9994           0   0.00000       0.00000    
     50652 TIP3     8579     TIP3     H1       HT       0.417000       1.00800           0   0.00000       0.00000    
     50653 TIP3     8579     TIP3     H2       HT       0.417000       1.00800           0   0.00000     -0.301140E-02
     50654 TIP3     8580     TIP3     OH2      OT      -0.834000       15.9994           0   0.00000       0.00000    
     50655 TIP3     8580     TIP3     H1       HT       0.417000       1.00800           0   0.00000       0.00000    
     50656 TIP3     8580     TIP3     H2       HT       0.417000       1.00800           0   0.00000     -0.301140E-02
     50657 TIP3     8581     TIP3     OH2      OT      -0.834000       15.9994           0   0.00000       0.00000    
     50658 TIP3     8581     TIP3     H1       HT       0.417000       1.00800           0   0.00000       0.00000    
     50659 TIP3     8581     TIP3     H2       HT       0.417000       1.00800           0   0.00000     -0.301140E-02
     50660 TIP3     8582     TIP3     OH2      OT      -0.834000       15.9994           0   0.00000       0.00000    
     50661 TIP3     8582     TIP3     H1       HT       0.417000       1.00800           0   0.00000       0.00000    
     50662 TIP3     8582     TIP3     H2       HT       0.417000       1.00800           0   0.00000     -0.301140E-02
     50663 TIP3     8583     TIP3     OH2      OT      -0.834000       15.9994           0   0.00000       0.00000    
     50664 TIP3     8583     TIP3     H1       HT       0.417000       1.00800           0   0.00000       0.00000    
     50665 TIP3     8583     TIP3     H2       HT       0.417000       1.00800           0   0.00000     -0.301140E-02
     50666 TIP3     8584     TIP3     OH2      OT      -0.834000       15.9994           0   0.00000       0.00000    
     50667 TIP3     8584     TIP3     H1       HT       0.417000       1.00800           0   0.00000       0.00000    
     50668 TIP3     8584     TIP3     H2       HT       0.417000       1.00800           0   0.00000     -0.301140E-02
     50669 TIP3     8585     TIP3     OH2      OT      -0.834000       15.9994           0   0.00000       0.00000    
     50670 TIP3     8585     TIP3     H1       HT       0.417000       1.00800           0   0.00000       0.00000    
     50671 TIP3     8585     TIP3     H2       HT       0.417000       1.00800           0   0.00000     -0.301140E-02
     50672 TIP3     8586     TIP3     OH2      OT      -0.834000       15.9994           0   0.00000       0.00000    
     50673 TIP3     8586     TIP3     H1       HT       0.417000       1.00800           0   0.00000       0.00000    
     50674 TIP3     8586     TIP3     H2       HT       0.417000       1.00800           0   0.00000     -0.301140E-02
     50675 TIP3     8587     TIP3     OH2      OT      -0.834000       15.9994           0   0.00000       0.00000    
     50676 TIP3     8587     TIP3     H1       HT       0.417000       1.00800           0   0.00000       0.00000    
     50677 TIP3     8587     TIP3     H2       HT       0.417000       1.00800           0   0.00000     -0.301140E-02
     50678 TIP3     8588     TIP3     OH2      OT      -0.834000       15.9994           0   0.00000       0.00000    
     50679 TIP3     8588     TIP3     H1       HT       0.417000       1.00800           0   0.00000       0.00000    
     50680 TIP3     8588     TIP3     H2       HT       0.417000       1.00800           0   0.00000     -0.301140E-02
     50681 TIP3     8589     TIP3     OH2      OT      -0.834000       15.9994           0   0.00000       0.00000    
     50682 TIP3     8589     TIP3     H1       HT       0.417000       1.00800           0   0.00000       0.00000    
     50683 TIP3     8589     TIP3     H2       HT       0.417000       1.00800           0   0.00000     -0.301140E-02
     50684 TIP3     8590     TIP3     OH2      OT      -0.834000       15.9994           0   0.00000       0.00000    
     50685 TIP3     8590     TIP3     H1       HT       0.417000       1.00800           0   0.00000       0.00000    
     50686 TIP3     8590     TIP3     H2       HT       0.417000       1.00800           0   0.00000     -0.301140E-02
     50687 TIP3     8591     TIP3     OH2      OT      -0.834000       15.9994           0   0.00000       0.00000    
     50688 TIP3     8591     TIP3     H1       HT       0.417000       1.00800           0   0.00000       0.00000    
     50689 TIP3     8591     TIP3     H2       HT       0.417000       1.00800           0   0.00000     -0.301140E-02
     50690 TIP3     8592     TIP3     OH2      OT      -0.834000       15.9994           0   0.00000       0.00000    
     50691 TIP3     8592     TIP3     H1       HT       0.417000       1.00800           0   0.00000       0.00000    
     50692 TIP3     8592     TIP3     H2       HT       0.417000       1.00800           0   0.00000     -0.301140E-02
     50693 TIP3     8593     TIP3     OH2      OT      -0.834000       15.9994           0   0.00000       0.00000    
     50694 TIP3     8593     TIP3     H1       HT       0.417000       1.00800           0   0.00000       0.00000    
     50695 TIP3     8593     TIP3     H2       HT       0.417000       1.00800           0   0.00000     -0.301140E-02
     50696 TIP3     8594     TIP3     OH2      OT      -0.834000       15.9994           0   0.00000       0.00000    
     50697 TIP3     8594     TIP3     H1       HT       0.417000       1.00800           0   0.00000       0.00000    
     50698 TIP3     8594     TIP3     H2       HT       0.417000       1.00800           0   0.00000     -0.301140E-02
     50699 TIP3     8595     TIP3     OH2      OT      -0.834000       15.9994           0   0.00000       0.00000    
     50700 TIP3     8595     TIP3     H1       HT       0.417000       1.00800           0   0.00000       0.00000    
     50701 TIP3     8595     TIP3     H2       HT       0.417000       1.00800           0   0.00000     -0.301140E-02
     50702 TIP3     8596     TIP3     OH2      OT      -0.834000       15.9994           0   0.00000       0.00000    
     50703 TIP3     8596     TIP3     H1       HT       0.417000       1.00800           0   0.00000       0.00000    
     50704 TIP3     8596     TIP3     H2       HT       0.417000       1.00800           0   0.00000     -0.301140E-02
     50705 TIP3     8597     TIP3     OH2      OT      -0.834000       15.9994           0   0.00000       0.00000    
     50706 TIP3     8597     TIP3     H1       HT       0.417000       1.00800           0   0.00000       0.00000    
     50707 TIP3     8597     TIP3     H2       HT       0.417000       1.00800           0   0.00000     -0.301140E-02
     50708 TIP3     8598     TIP3     OH2      OT      -0.834000       15.9994           0   0.00000       0.00000    
     50709 TIP3     8598     TIP3     H1       HT       0.417000       1.00800           0   0.00000       0.00000    
     50710 TIP3     8598     TIP3     H2       HT       0.417000       1.00800           0   0.00000     -0.301140E-02
     50711 TIP3     8599     TIP3     OH2      OT      -0.834000       15.9994           0   0.00000       0.00000    
     50712 TIP3     8599     TIP3     H1       HT       0.417000       1.00800           0   0.00000       0.00000    
     50713 TIP3     8599     TIP3     H2       HT       0.417000       1.00800           0   0.00000     -0.301140E-02
     50714 TIP3     8600     TIP3     OH2      OT      -0.834000       15.9994           0   0.00000       0.00000    
     50715 TIP3     8600     TIP3     H1       HT       0.417000       1.00800           0   0.00000       0.00000    
     50716 TIP3     8600     TIP3     H2       HT       0.417000       1.00800           0   0.00000     -0.301140E-02
     50717 TIP3     8601     TIP3     OH2      OT      -0.834000       15.9994           0   0.00000       0.00000    
     50718 TIP3     8601     TIP3     H1       HT       0.417000       1.00800           0   0.00000       0.00000    
     50719 TIP3     8601     TIP3     H2       HT       0.417000       1.00800           0   0.00000     -0.301140E-02
     50720 TIP3     8602     TIP3     OH2      OT      -0.834000       15.9994           0   0.00000       0.00000    
     50721 TIP3     8602     TIP3     H1       HT       0.417000       1.00800           0   0.00000       0.00000    
     50722 TIP3     8602     TIP3     H2       HT       0.417000       1.00800           0   0.00000     -0.301140E-02
     50723 TIP3     8603     TIP3     OH2      OT      -0.834000       15.9994           0   0.00000       0.00000    
     50724 TIP3     8603     TIP3     H1       HT       0.417000       1.00800           0   0.00000       0.00000    
     50725 TIP3     8603     TIP3     H2       HT       0.417000       1.00800           0   0.00000     -0.301140E-02
     50726 TIP3     8604     TIP3     OH2      OT      -0.834000       15.9994           0   0.00000       0.00000    
     50727 TIP3     8604     TIP3     H1       HT       0.417000       1.00800           0   0.00000       0.00000    
     50728 TIP3     8604     TIP3     H2       HT       0.417000       1.00800           0   0.00000     -0.301140E-02
     50729 TIP3     8605     TIP3     OH2      OT      -0.834000       15.9994           0   0.00000       0.00000    
     50730 TIP3     8605     TIP3     H1       HT       0.417000       1.00800           0   0.00000       0.00000    
     50731 TIP3     8605     TIP3     H2       HT       0.417000       1.00800           0   0.00000     -0.301140E-02
     50732 TIP3     8606     TIP3     OH2      OT      -0.834000       15.9994           0   0.00000       0.00000    
     50733 TIP3     8606     TIP3     H1       HT       0.417000       1.00800           0   0.00000       0.00000    
     50734 TIP3     8606     TIP3     H2       HT       0.417000       1.00800           0   0.00000     -0.301140E-02
     50735 TIP3     8607     TIP3     OH2      OT      -0.834000       15.9994           0   0.00000       0.00000    
     50736 TIP3     8607     TIP3     H1       HT       0.417000       1.00800           0   0.00000       0.00000    
     50737 TIP3     8607     TIP3     H2       HT       0.417000       1.00800           0   0.00000     -0.301140E-02
     50738 TIP3     8608     TIP3     OH2      OT      -0.834000       15.9994           0   0.00000       0.00000    
     50739 TIP3     8608     TIP3     H1       HT       0.417000       1.00800           0   0.00000       0.00000    
     50740 TIP3     8608     TIP3     H2       HT       0.417000       1.00800           0   0.00000     -0.301140E-02
     50741 TIP3     8609     TIP3     OH2      OT      -0.834000       15.9994           0   0.00000       0.00000    
     50742 TIP3     8609     TIP3     H1       HT       0.417000       1.00800           0   0.00000       0.00000    
     50743 TIP3     8609     TIP3     H2       HT       0.417000       1.00800           0   0.00000     -0.301140E-02
     50744 TIP3     8610     TIP3     OH2      OT      -0.834000       15.9994           0   0.00000       0.00000    
     50745 TIP3     8610     TIP3     H1       HT       0.417000       1.00800           0   0.00000       0.00000    
     50746 TIP3     8610     TIP3     H2       HT       0.417000       1.00800           0   0.00000     -0.301140E-02
     50747 TIP3     8611     TIP3     OH2      OT      -0.834000       15.9994           0   0.00000       0.00000    
     50748 TIP3     8611     TIP3     H1       HT       0.417000       1.00800           0   0.00000       0.00000    
     50749 TIP3     8611     TIP3     H2       HT       0.417000       1.00800           0   0.00000     -0.301140E-02
     50750 TIP3     8612     TIP3     OH2      OT      -0.834000       15.9994           0   0.00000       0.00000    
     50751 TIP3     8612     TIP3     H1       HT       0.417000       1.00800           0   0.00000       0.00000    
     50752 TIP3     8612     TIP3     H2       HT       0.417000       1.00800           0   0.00000     -0.301140E-02
     50753 TIP3     8613     TIP3     OH2      OT      -0.834000       15.9994           0   0.00000       0.00000    
     50754 TIP3     8613     TIP3     H1       HT       0.417000       1.00800           0   0.00000       0.00000    
     50755 TIP3     8613     TIP3     H2       HT       0.417000       1.00800           0   0.00000     -0.301140E-02
     50756 TIP3     8614     TIP3     OH2      OT      -0.834000       15.9994           0   0.00000       0.00000    
     50757 TIP3     8614     TIP3     H1       HT       0.417000       1.00800           0   0.00000       0.00000    
     50758 TIP3     8614     TIP3     H2       HT       0.417000       1.00800           0   0.00000     -0.301140E-02
     50759 TIP3     8615     TIP3     OH2      OT      -0.834000       15.9994           0   0.00000       0.00000    
     50760 TIP3     8615     TIP3     H1       HT       0.417000       1.00800           0   0.00000       0.00000    
     50761 TIP3     8615     TIP3     H2       HT       0.417000       1.00800           0   0.00000     -0.301140E-02
     50762 TIP3     8616     TIP3     OH2      OT      -0.834000       15.9994           0   0.00000       0.00000    
     50763 TIP3     8616     TIP3     H1       HT       0.417000       1.00800           0   0.00000       0.00000    
     50764 TIP3     8616     TIP3     H2       HT       0.417000       1.00800           0   0.00000     -0.301140E-02
     50765 TIP3     8617     TIP3     OH2      OT      -0.834000       15.9994           0   0.00000       0.00000    
     50766 TIP3     8617     TIP3     H1       HT       0.417000       1.00800           0   0.00000       0.00000    
     50767 TIP3     8617     TIP3     H2       HT       0.417000       1.00800           0   0.00000     -0.301140E-02
     50768 TIP3     8618     TIP3     OH2      OT      -0.834000       15.9994           0   0.00000       0.00000    
     50769 TIP3     8618     TIP3     H1       HT       0.417000       1.00800           0   0.00000       0.00000    
     50770 TIP3     8618     TIP3     H2       HT       0.417000       1.00800           0   0.00000     -0.301140E-02
     50771 TIP3     8619     TIP3     OH2      OT      -0.834000       15.9994           0   0.00000       0.00000    
     50772 TIP3     8619     TIP3     H1       HT       0.417000       1.00800           0   0.00000       0.00000    
     50773 TIP3     8619     TIP3     H2       HT       0.417000       1.00800           0   0.00000     -0.301140E-02
     50774 TIP3     8620     TIP3     OH2      OT      -0.834000       15.9994           0   0.00000       0.00000    
     50775 TIP3     8620     TIP3     H1       HT       0.417000       1.00800           0   0.00000       0.00000    
     50776 TIP3     8620     TIP3     H2       HT       0.417000       1.00800           0   0.00000     -0.301140E-02
     50777 TIP3     8621     TIP3     OH2      OT      -0.834000       15.9994           0   0.00000       0.00000    
     50778 TIP3     8621     TIP3     H1       HT       0.417000       1.00800           0   0.00000       0.00000    
     50779 TIP3     8621     TIP3     H2       HT       0.417000       1.00800           0   0.00000     -0.301140E-02
     50780 TIP3     8622     TIP3     OH2      OT      -0.834000       15.9994           0   0.00000       0.00000    
     50781 TIP3     8622     TIP3     H1       HT       0.417000       1.00800           0   0.00000       0.00000    
     50782 TIP3     8622     TIP3     H2       HT       0.417000       1.00800           0   0.00000     -0.301140E-02
     50783 TIP3     8623     TIP3     OH2      OT      -0.834000       15.9994           0   0.00000       0.00000    
     50784 TIP3     8623     TIP3     H1       HT       0.417000       1.00800           0   0.00000       0.00000    
     50785 TIP3     8623     TIP3     H2       HT       0.417000       1.00800           0   0.00000     -0.301140E-02
     50786 TIP3     8624     TIP3     OH2      OT      -0.834000       15.9994           0   0.00000       0.00000    
     50787 TIP3     8624     TIP3     H1       HT       0.417000       1.00800           0   0.00000       0.00000    
     50788 TIP3     8624     TIP3     H2       HT       0.417000       1.00800           0   0.00000     -0.301140E-02
     50789 TIP3     8625     TIP3     OH2      OT      -0.834000       15.9994           0   0.00000       0.00000    
     50790 TIP3     8625     TIP3     H1       HT       0.417000       1.00800           0   0.00000       0.00000    
     50791 TIP3     8625     TIP3     H2       HT       0.417000       1.00800           0   0.00000     -0.301140E-02
     50792 TIP3     8626     TIP3     OH2      OT      -0.834000       15.9994           0   0.00000       0.00000    
     50793 TIP3     8626     TIP3     H1       HT       0.417000       1.00800           0   0.00000       0.00000    
     50794 TIP3     8626     TIP3     H2       HT       0.417000       1.00800           0   0.00000     -0.301140E-02
     50795 TIP3     8627     TIP3     OH2      OT      -0.834000       15.9994           0   0.00000       0.00000    
     50796 TIP3     8627     TIP3     H1       HT       0.417000       1.00800           0   0.00000       0.00000    
     50797 TIP3     8627     TIP3     H2       HT       0.417000       1.00800           0   0.00000     -0.301140E-02
     50798 TIP3     8628     TIP3     OH2      OT      -0.834000       15.9994           0   0.00000       0.00000    
     50799 TIP3     8628     TIP3     H1       HT       0.417000       1.00800           0   0.00000       0.00000    
     50800 TIP3     8628     TIP3     H2       HT       0.417000       1.00800           0   0.00000     -0.301140E-02
     50801 TIP3     8629     TIP3     OH2      OT      -0.834000       15.9994           0   0.00000       0.00000    
     50802 TIP3     8629     TIP3     H1       HT       0.417000       1.00800           0   0.00000       0.00000    
     50803 TIP3     8629     TIP3     H2       HT       0.417000       1.00800           0   0.00000     -0.301140E-02
     50804 TIP3     8630     TIP3     OH2      OT      -0.834000       15.9994           0   0.00000       0.00000    
     50805 TIP3     8630     TIP3     H1       HT       0.417000       1.00800           0   0.00000       0.00000    
     50806 TIP3     8630     TIP3     H2       HT       0.417000       1.00800           0   0.00000     -0.301140E-02
     50807 TIP3     8631     TIP3     OH2      OT      -0.834000       15.9994           0   0.00000       0.00000    
     50808 TIP3     8631     TIP3     H1       HT       0.417000       1.00800           0   0.00000       0.00000    
     50809 TIP3     8631     TIP3     H2       HT       0.417000       1.00800           0   0.00000     -0.301140E-02
     50810 TIP3     8632     TIP3     OH2      OT      -0.834000       15.9994           0   0.00000       0.00000    
     50811 TIP3     8632     TIP3     H1       HT       0.417000       1.00800           0   0.00000       0.00000    
     50812 TIP3     8632     TIP3     H2       HT       0.417000       1.00800           0   0.00000     -0.301140E-02
     50813 TIP3     8633     TIP3     OH2      OT      -0.834000       15.9994           0   0.00000       0.00000    
     50814 TIP3     8633     TIP3     H1       HT       0.417000       1.00800           0   0.00000       0.00000    
     50815 TIP3     8633     TIP3     H2       HT       0.417000       1.00800           0   0.00000     -0.301140E-02
     50816 TIP3     8634     TIP3     OH2      OT      -0.834000       15.9994           0   0.00000       0.00000    
     50817 TIP3     8634     TIP3     H1       HT       0.417000       1.00800           0   0.00000       0.00000    
     50818 TIP3     8634     TIP3     H2       HT       0.417000       1.00800           0   0.00000     -0.301140E-02
     50819 TIP3     8635     TIP3     OH2      OT      -0.834000       15.9994           0   0.00000       0.00000    
     50820 TIP3     8635     TIP3     H1       HT       0.417000       1.00800           0   0.00000       0.00000    
     50821 TIP3     8635     TIP3     H2       HT       0.417000       1.00800           0   0.00000     -0.301140E-02
     50822 TIP3     8636     TIP3     OH2      OT      -0.834000       15.9994           0   0.00000       0.00000    
     50823 TIP3     8636     TIP3     H1       HT       0.417000       1.00800           0   0.00000       0.00000    
     50824 TIP3     8636     TIP3     H2       HT       0.417000       1.00800           0   0.00000     -0.301140E-02
     50825 TIP3     8637     TIP3     OH2      OT      -0.834000       15.9994           0   0.00000       0.00000    
     50826 TIP3     8637     TIP3     H1       HT       0.417000       1.00800           0   0.00000       0.00000    
     50827 TIP3     8637     TIP3     H2       HT       0.417000       1.00800           0   0.00000     -0.301140E-02
     50828 TIP3     8638     TIP3     OH2      OT      -0.834000       15.9994           0   0.00000       0.00000    
     50829 TIP3     8638     TIP3     H1       HT       0.417000       1.00800           0   0.00000       0.00000    
     50830 TIP3     8638     TIP3     H2       HT       0.417000       1.00800           0   0.00000     -0.301140E-02
     50831 TIP3     8639     TIP3     OH2      OT      -0.834000       15.9994           0   0.00000       0.00000    
     50832 TIP3     8639     TIP3     H1       HT       0.417000       1.00800           0   0.00000       0.00000    
     50833 TIP3     8639     TIP3     H2       HT       0.417000       1.00800           0   0.00000     -0.301140E-02
     50834 TIP3     8640     TIP3     OH2      OT      -0.834000       15.9994           0   0.00000       0.00000    
     50835 TIP3     8640     TIP3     H1       HT       0.417000       1.00800           0   0.00000       0.00000    
     50836 TIP3     8640     TIP3     H2       HT       0.417000       1.00800           0   0.00000     -0.301140E-02
     50837 TIP3     8641     TIP3     OH2      OT      -0.834000       15.9994           0   0.00000       0.00000    
     50838 TIP3     8641     TIP3     H1       HT       0.417000       1.00800           0   0.00000       0.00000    
     50839 TIP3     8641     TIP3     H2       HT       0.417000       1.00800           0   0.00000     -0.301140E-02
     50840 TIP3     8642     TIP3     OH2      OT      -0.834000       15.9994           0   0.00000       0.00000    
     50841 TIP3     8642     TIP3     H1       HT       0.417000       1.00800           0   0.00000       0.00000    
     50842 TIP3     8642     TIP3     H2       HT       0.417000       1.00800           0   0.00000     -0.301140E-02
     50843 TIP3     8643     TIP3     OH2      OT      -0.834000       15.9994           0   0.00000       0.00000    
     50844 TIP3     8643     TIP3     H1       HT       0.417000       1.00800           0   0.00000       0.00000    
     50845 TIP3     8643     TIP3     H2       HT       0.417000       1.00800           0   0.00000     -0.301140E-02
     50846 TIP3     8644     TIP3     OH2      OT      -0.834000       15.9994           0   0.00000       0.00000    
     50847 TIP3     8644     TIP3     H1       HT       0.417000       1.00800           0   0.00000       0.00000    
     50848 TIP3     8644     TIP3     H2       HT       0.417000       1.00800           0   0.00000     -0.301140E-02
     50849 TIP3     8645     TIP3     OH2      OT      -0.834000       15.9994           0   0.00000       0.00000    
     50850 TIP3     8645     TIP3     H1       HT       0.417000       1.00800           0   0.00000       0.00000    
     50851 TIP3     8645     TIP3     H2       HT       0.417000       1.00800           0   0.00000     -0.301140E-02
     50852 TIP3     8646     TIP3     OH2      OT      -0.834000       15.9994           0   0.00000       0.00000    
     50853 TIP3     8646     TIP3     H1       HT       0.417000       1.00800           0   0.00000       0.00000    
     50854 TIP3     8646     TIP3     H2       HT       0.417000       1.00800           0   0.00000     -0.301140E-02
     50855 TIP3     8647     TIP3     OH2      OT      -0.834000       15.9994           0   0.00000       0.00000    
     50856 TIP3     8647     TIP3     H1       HT       0.417000       1.00800           0   0.00000       0.00000    
     50857 TIP3     8647     TIP3     H2       HT       0.417000       1.00800           0   0.00000     -0.301140E-02
     50858 TIP3     8648     TIP3     OH2      OT      -0.834000       15.9994           0   0.00000       0.00000    
     50859 TIP3     8648     TIP3     H1       HT       0.417000       1.00800           0   0.00000       0.00000    
     50860 TIP3     8648     TIP3     H2       HT       0.417000       1.00800           0   0.00000     -0.301140E-02
     50861 TIP3     8649     TIP3     OH2      OT      -0.834000       15.9994           0   0.00000       0.00000    
     50862 TIP3     8649     TIP3     H1       HT       0.417000       1.00800           0   0.00000       0.00000    
     50863 TIP3     8649     TIP3     H2       HT       0.417000       1.00800           0   0.00000     -0.301140E-02
     50864 TIP3     8650     TIP3     OH2      OT      -0.834000       15.9994           0   0.00000       0.00000    
     50865 TIP3     8650     TIP3     H1       HT       0.417000       1.00800           0   0.00000       0.00000    
     50866 TIP3     8650     TIP3     H2       HT       0.417000       1.00800           0   0.00000     -0.301140E-02
     50867 TIP3     8651     TIP3     OH2      OT      -0.834000       15.9994           0   0.00000       0.00000    
     50868 TIP3     8651     TIP3     H1       HT       0.417000       1.00800           0   0.00000       0.00000    
     50869 TIP3     8651     TIP3     H2       HT       0.417000       1.00800           0   0.00000     -0.301140E-02
     50870 TIP3     8652     TIP3     OH2      OT      -0.834000       15.9994           0   0.00000       0.00000    
     50871 TIP3     8652     TIP3     H1       HT       0.417000       1.00800           0   0.00000       0.00000    
     50872 TIP3     8652     TIP3     H2       HT       0.417000       1.00800           0   0.00000     -0.301140E-02
     50873 TIP3     8653     TIP3     OH2      OT      -0.834000       15.9994           0   0.00000       0.00000    
     50874 TIP3     8653     TIP3     H1       HT       0.417000       1.00800           0   0.00000       0.00000    
     50875 TIP3     8653     TIP3     H2       HT       0.417000       1.00800           0   0.00000     -0.301140E-02
     50876 TIP3     8654     TIP3     OH2      OT      -0.834000       15.9994           0   0.00000       0.00000    
     50877 TIP3     8654     TIP3     H1       HT       0.417000       1.00800           0   0.00000       0.00000    
     50878 TIP3     8654     TIP3     H2       HT       0.417000       1.00800           0   0.00000     -0.301140E-02
     50879 TIP3     8655     TIP3     OH2      OT      -0.834000       15.9994           0   0.00000       0.00000    
     50880 TIP3     8655     TIP3     H1       HT       0.417000       1.00800           0   0.00000       0.00000    
     50881 TIP3     8655     TIP3     H2       HT       0.417000       1.00800           0   0.00000     -0.301140E-02
     50882 TIP3     8656     TIP3     OH2      OT      -0.834000       15.9994           0   0.00000       0.00000    
     50883 TIP3     8656     TIP3     H1       HT       0.417000       1.00800           0   0.00000       0.00000    
     50884 TIP3     8656     TIP3     H2       HT       0.417000       1.00800           0   0.00000     -0.301140E-02
     50885 TIP3     8657     TIP3     OH2      OT      -0.834000       15.9994           0   0.00000       0.00000    
     50886 TIP3     8657     TIP3     H1       HT       0.417000       1.00800           0   0.00000       0.00000    
     50887 TIP3     8657     TIP3     H2       HT       0.417000       1.00800           0   0.00000     -0.301140E-02
     50888 TIP3     8658     TIP3     OH2      OT      -0.834000       15.9994           0   0.00000       0.00000    
     50889 TIP3     8658     TIP3     H1       HT       0.417000       1.00800           0   0.00000       0.00000    
     50890 TIP3     8658     TIP3     H2       HT       0.417000       1.00800           0   0.00000     -0.301140E-02
     50891 TIP3     8659     TIP3     OH2      OT      -0.834000       15.9994           0   0.00000       0.00000    
     50892 TIP3     8659     TIP3     H1       HT       0.417000       1.00800           0   0.00000       0.00000    
     50893 TIP3     8659     TIP3     H2       HT       0.417000       1.00800           0   0.00000     -0.301140E-02
     50894 TIP3     8660     TIP3     OH2      OT      -0.834000       15.9994           0   0.00000       0.00000    
     50895 TIP3     8660     TIP3     H1       HT       0.417000       1.00800           0   0.00000       0.00000    
     50896 TIP3     8660     TIP3     H2       HT       0.417000       1.00800           0   0.00000     -0.301140E-02
     50897 TIP3     8661     TIP3     OH2      OT      -0.834000       15.9994           0   0.00000       0.00000    
     50898 TIP3     8661     TIP3     H1       HT       0.417000       1.00800           0   0.00000       0.00000    
     50899 TIP3     8661     TIP3     H2       HT       0.417000       1.00800           0   0.00000     -0.301140E-02
     50900 TIP3     8662     TIP3     OH2      OT      -0.834000       15.9994           0   0.00000       0.00000    
     50901 TIP3     8662     TIP3     H1       HT       0.417000       1.00800           0   0.00000       0.00000    
     50902 TIP3     8662     TIP3     H2       HT       0.417000       1.00800           0   0.00000     -0.301140E-02
     50903 TIP3     8663     TIP3     OH2      OT      -0.834000       15.9994           0   0.00000       0.00000    
     50904 TIP3     8663     TIP3     H1       HT       0.417000       1.00800           0   0.00000       0.00000    
     50905 TIP3     8663     TIP3     H2       HT       0.417000       1.00800           0   0.00000     -0.301140E-02
     50906 TIP3     8664     TIP3     OH2      OT      -0.834000       15.9994           0   0.00000       0.00000    
     50907 TIP3     8664     TIP3     H1       HT       0.417000       1.00800           0   0.00000       0.00000    
     50908 TIP3     8664     TIP3     H2       HT       0.417000       1.00800           0   0.00000     -0.301140E-02
     50909 TIP3     8665     TIP3     OH2      OT      -0.834000       15.9994           0   0.00000       0.00000    
     50910 TIP3     8665     TIP3     H1       HT       0.417000       1.00800           0   0.00000       0.00000    
     50911 TIP3     8665     TIP3     H2       HT       0.417000       1.00800           0   0.00000     -0.301140E-02
     50912 TIP3     8666     TIP3     OH2      OT      -0.834000       15.9994           0   0.00000       0.00000    
     50913 TIP3     8666     TIP3     H1       HT       0.417000       1.00800           0   0.00000       0.00000    
     50914 TIP3     8666     TIP3     H2       HT       0.417000       1.00800           0   0.00000     -0.301140E-02
     50915 TIP3     8667     TIP3     OH2      OT      -0.834000       15.9994           0   0.00000       0.00000    
     50916 TIP3     8667     TIP3     H1       HT       0.417000       1.00800           0   0.00000       0.00000    
     50917 TIP3     8667     TIP3     H2       HT       0.417000       1.00800           0   0.00000     -0.301140E-02
     50918 TIP3     8668     TIP3     OH2      OT      -0.834000       15.9994           0   0.00000       0.00000    
     50919 TIP3     8668     TIP3     H1       HT       0.417000       1.00800           0   0.00000       0.00000    
     50920 TIP3     8668     TIP3     H2       HT       0.417000       1.00800           0   0.00000     -0.301140E-02
     50921 TIP3     8669     TIP3     OH2      OT      -0.834000       15.9994           0   0.00000       0.00000    
     50922 TIP3     8669     TIP3     H1       HT       0.417000       1.00800           0   0.00000       0.00000    
     50923 TIP3     8669     TIP3     H2       HT       0.417000       1.00800           0   0.00000     -0.301140E-02
     50924 TIP3     8670     TIP3     OH2      OT      -0.834000       15.9994           0   0.00000       0.00000    
     50925 TIP3     8670     TIP3     H1       HT       0.417000       1.00800           0   0.00000       0.00000    
     50926 TIP3     8670     TIP3     H2       HT       0.417000       1.00800           0   0.00000     -0.301140E-02
     50927 TIP3     8671     TIP3     OH2      OT      -0.834000       15.9994           0   0.00000       0.00000    
     50928 TIP3     8671     TIP3     H1       HT       0.417000       1.00800           0   0.00000       0.00000    
     50929 TIP3     8671     TIP3     H2       HT       0.417000       1.00800           0   0.00000     -0.301140E-02
     50930 TIP3     8672     TIP3     OH2      OT      -0.834000       15.9994           0   0.00000       0.00000    
     50931 TIP3     8672     TIP3     H1       HT       0.417000       1.00800           0   0.00000       0.00000    
     50932 TIP3     8672     TIP3     H2       HT       0.417000       1.00800           0   0.00000     -0.301140E-02
     50933 TIP3     8673     TIP3     OH2      OT      -0.834000       15.9994           0   0.00000       0.00000    
     50934 TIP3     8673     TIP3     H1       HT       0.417000       1.00800           0   0.00000       0.00000    
     50935 TIP3     8673     TIP3     H2       HT       0.417000       1.00800           0   0.00000     -0.301140E-02
     50936 TIP3     8674     TIP3     OH2      OT      -0.834000       15.9994           0   0.00000       0.00000    
     50937 TIP3     8674     TIP3     H1       HT       0.417000       1.00800           0   0.00000       0.00000    
     50938 TIP3     8674     TIP3     H2       HT       0.417000       1.00800           0   0.00000     -0.301140E-02
     50939 TIP3     8675     TIP3     OH2      OT      -0.834000       15.9994           0   0.00000       0.00000    
     50940 TIP3     8675     TIP3     H1       HT       0.417000       1.00800           0   0.00000       0.00000    
     50941 TIP3     8675     TIP3     H2       HT       0.417000       1.00800           0   0.00000     -0.301140E-02
     50942 TIP3     8676     TIP3     OH2      OT      -0.834000       15.9994           0   0.00000       0.00000    
     50943 TIP3     8676     TIP3     H1       HT       0.417000       1.00800           0   0.00000       0.00000    
     50944 TIP3     8676     TIP3     H2       HT       0.417000       1.00800           0   0.00000     -0.301140E-02
     50945 TIP3     8677     TIP3     OH2      OT      -0.834000       15.9994           0   0.00000       0.00000    
     50946 TIP3     8677     TIP3     H1       HT       0.417000       1.00800           0   0.00000       0.00000    
     50947 TIP3     8677     TIP3     H2       HT       0.417000       1.00800           0   0.00000     -0.301140E-02
     50948 TIP3     8678     TIP3     OH2      OT      -0.834000       15.9994           0   0.00000       0.00000    
     50949 TIP3     8678     TIP3     H1       HT       0.417000       1.00800           0   0.00000       0.00000    
     50950 TIP3     8678     TIP3     H2       HT       0.417000       1.00800           0   0.00000     -0.301140E-02
     50951 TIP3     8679     TIP3     OH2      OT      -0.834000       15.9994           0   0.00000       0.00000    
     50952 TIP3     8679     TIP3     H1       HT       0.417000       1.00800           0   0.00000       0.00000    
     50953 TIP3     8679     TIP3     H2       HT       0.417000       1.00800           0   0.00000     -0.301140E-02
     50954 TIP3     8680     TIP3     OH2      OT      -0.834000       15.9994           0   0.00000       0.00000    
     50955 TIP3     8680     TIP3     H1       HT       0.417000       1.00800           0   0.00000       0.00000    
     50956 TIP3     8680     TIP3     H2       HT       0.417000       1.00800           0   0.00000     -0.301140E-02
     50957 TIP3     8681     TIP3     OH2      OT      -0.834000       15.9994           0   0.00000       0.00000    
     50958 TIP3     8681     TIP3     H1       HT       0.417000       1.00800           0   0.00000       0.00000    
     50959 TIP3     8681     TIP3     H2       HT       0.417000       1.00800           0   0.00000     -0.301140E-02
     50960 TIP3     8682     TIP3     OH2      OT      -0.834000       15.9994           0   0.00000       0.00000    
     50961 TIP3     8682     TIP3     H1       HT       0.417000       1.00800           0   0.00000       0.00000    
     50962 TIP3     8682     TIP3     H2       HT       0.417000       1.00800           0   0.00000     -0.301140E-02
     50963 TIP3     8683     TIP3     OH2      OT      -0.834000       15.9994           0   0.00000       0.00000    
     50964 TIP3     8683     TIP3     H1       HT       0.417000       1.00800           0   0.00000       0.00000    
     50965 TIP3     8683     TIP3     H2       HT       0.417000       1.00800           0   0.00000     -0.301140E-02
     50966 TIP3     8684     TIP3     OH2      OT      -0.834000       15.9994           0   0.00000       0.00000    
     50967 TIP3     8684     TIP3     H1       HT       0.417000       1.00800           0   0.00000       0.00000    
     50968 TIP3     8684     TIP3     H2       HT       0.417000       1.00800           0   0.00000     -0.301140E-02
     50969 TIP3     8685     TIP3     OH2      OT      -0.834000       15.9994           0   0.00000       0.00000    
     50970 TIP3     8685     TIP3     H1       HT       0.417000       1.00800           0   0.00000       0.00000    
     50971 TIP3     8685     TIP3     H2       HT       0.417000       1.00800           0   0.00000     -0.301140E-02
     50972 TIP3     8686     TIP3     OH2      OT      -0.834000       15.9994           0   0.00000       0.00000    
     50973 TIP3     8686     TIP3     H1       HT       0.417000       1.00800           0   0.00000       0.00000    
     50974 TIP3     8686     TIP3     H2       HT       0.417000       1.00800           0   0.00000     -0.301140E-02
     50975 TIP3     8687     TIP3     OH2      OT      -0.834000       15.9994           0   0.00000       0.00000    
     50976 TIP3     8687     TIP3     H1       HT       0.417000       1.00800           0   0.00000       0.00000    
     50977 TIP3     8687     TIP3     H2       HT       0.417000       1.00800           0   0.00000     -0.301140E-02
     50978 TIP3     8688     TIP3     OH2      OT      -0.834000       15.9994           0   0.00000       0.00000    
     50979 TIP3     8688     TIP3     H1       HT       0.417000       1.00800           0   0.00000       0.00000    
     50980 TIP3     8688     TIP3     H2       HT       0.417000       1.00800           0   0.00000     -0.301140E-02
     50981 TIP3     8689     TIP3     OH2      OT      -0.834000       15.9994           0   0.00000       0.00000    
     50982 TIP3     8689     TIP3     H1       HT       0.417000       1.00800           0   0.00000       0.00000    
     50983 TIP3     8689     TIP3     H2       HT       0.417000       1.00800           0   0.00000     -0.301140E-02
     50984 TIP3     8690     TIP3     OH2      OT      -0.834000       15.9994           0   0.00000       0.00000    
     50985 TIP3     8690     TIP3     H1       HT       0.417000       1.00800           0   0.00000       0.00000    
     50986 TIP3     8690     TIP3     H2       HT       0.417000       1.00800           0   0.00000     -0.301140E-02
     50987 TIP3     8691     TIP3     OH2      OT      -0.834000       15.9994           0   0.00000       0.00000    
     50988 TIP3     8691     TIP3     H1       HT       0.417000       1.00800           0   0.00000       0.00000    
     50989 TIP3     8691     TIP3     H2       HT       0.417000       1.00800           0   0.00000     -0.301140E-02
     50990 TIP3     8692     TIP3     OH2      OT      -0.834000       15.9994           0   0.00000       0.00000    
     50991 TIP3     8692     TIP3     H1       HT       0.417000       1.00800           0   0.00000       0.00000    
     50992 TIP3     8692     TIP3     H2       HT       0.417000       1.00800           0   0.00000     -0.301140E-02
     50993 TIP3     8693     TIP3     OH2      OT      -0.834000       15.9994           0   0.00000       0.00000    
     50994 TIP3     8693     TIP3     H1       HT       0.417000       1.00800           0   0.00000       0.00000    
     50995 TIP3     8693     TIP3     H2       HT       0.417000       1.00800           0   0.00000     -0.301140E-02
     50996 TIP3     8694     TIP3     OH2      OT      -0.834000       15.9994           0   0.00000       0.00000    
     50997 TIP3     8694     TIP3     H1       HT       0.417000       1.00800           0   0.00000       0.00000    
     50998 TIP3     8694     TIP3     H2       HT       0.417000       1.00800           0   0.00000     -0.301140E-02
     50999 TIP3     8695     TIP3     OH2      OT      -0.834000       15.9994           0   0.00000       0.00000    
     51000 TIP3     8695     TIP3     H1       HT       0.417000       1.00800           0   0.00000       0.00000    
     51001 TIP3     8695     TIP3     H2       HT       0.417000       1.00800           0   0.00000     -0.301140E-02
     51002 TIP3     8696     TIP3     OH2      OT      -0.834000       15.9994           0   0.00000       0.00000    
     51003 TIP3     8696     TIP3     H1       HT       0.417000       1.00800           0   0.00000       0.00000    
     51004 TIP3     8696     TIP3     H2       HT       0.417000       1.00800           0   0.00000     -0.301140E-02
     51005 TIP3     8697     TIP3     OH2      OT      -0.834000       15.9994           0   0.00000       0.00000    
     51006 TIP3     8697     TIP3     H1       HT       0.417000       1.00800           0   0.00000       0.00000    
     51007 TIP3     8697     TIP3     H2       HT       0.417000       1.00800           0   0.00000     -0.301140E-02
     51008 TIP3     8698     TIP3     OH2      OT      -0.834000       15.9994           0   0.00000       0.00000    
     51009 TIP3     8698     TIP3     H1       HT       0.417000       1.00800           0   0.00000       0.00000    
     51010 TIP3     8698     TIP3     H2       HT       0.417000       1.00800           0   0.00000     -0.301140E-02
     51011 TIP3     8699     TIP3     OH2      OT      -0.834000       15.9994           0   0.00000       0.00000    
     51012 TIP3     8699     TIP3     H1       HT       0.417000       1.00800           0   0.00000       0.00000    
     51013 TIP3     8699     TIP3     H2       HT       0.417000       1.00800           0   0.00000     -0.301140E-02
     51014 TIP3     8700     TIP3     OH2      OT      -0.834000       15.9994           0   0.00000       0.00000    
     51015 TIP3     8700     TIP3     H1       HT       0.417000       1.00800           0   0.00000       0.00000    
     51016 TIP3     8700     TIP3     H2       HT       0.417000       1.00800           0   0.00000     -0.301140E-02
     51017 TIP3     8701     TIP3     OH2      OT      -0.834000       15.9994           0   0.00000       0.00000    
     51018 TIP3     8701     TIP3     H1       HT       0.417000       1.00800           0   0.00000       0.00000    
     51019 TIP3     8701     TIP3     H2       HT       0.417000       1.00800           0   0.00000     -0.301140E-02
     51020 TIP3     8702     TIP3     OH2      OT      -0.834000       15.9994           0   0.00000       0.00000    
     51021 TIP3     8702     TIP3     H1       HT       0.417000       1.00800           0   0.00000       0.00000    
     51022 TIP3     8702     TIP3     H2       HT       0.417000       1.00800           0   0.00000     -0.301140E-02
     51023 TIP3     8703     TIP3     OH2      OT      -0.834000       15.9994           0   0.00000       0.00000    
     51024 TIP3     8703     TIP3     H1       HT       0.417000       1.00800           0   0.00000       0.00000    
     51025 TIP3     8703     TIP3     H2       HT       0.417000       1.00800           0   0.00000     -0.301140E-02
     51026 TIP3     8704     TIP3     OH2      OT      -0.834000       15.9994           0   0.00000       0.00000    
     51027 TIP3     8704     TIP3     H1       HT       0.417000       1.00800           0   0.00000       0.00000    
     51028 TIP3     8704     TIP3     H2       HT       0.417000       1.00800           0   0.00000     -0.301140E-02
     51029 TIP3     8705     TIP3     OH2      OT      -0.834000       15.9994           0   0.00000       0.00000    
     51030 TIP3     8705     TIP3     H1       HT       0.417000       1.00800           0   0.00000       0.00000    
     51031 TIP3     8705     TIP3     H2       HT       0.417000       1.00800           0   0.00000     -0.301140E-02
     51032 TIP3     8706     TIP3     OH2      OT      -0.834000       15.9994           0   0.00000       0.00000    
     51033 TIP3     8706     TIP3     H1       HT       0.417000       1.00800           0   0.00000       0.00000    
     51034 TIP3     8706     TIP3     H2       HT       0.417000       1.00800           0   0.00000     -0.301140E-02
     51035 TIP3     8707     TIP3     OH2      OT      -0.834000       15.9994           0   0.00000       0.00000    
     51036 TIP3     8707     TIP3     H1       HT       0.417000       1.00800           0   0.00000       0.00000    
     51037 TIP3     8707     TIP3     H2       HT       0.417000       1.00800           0   0.00000     -0.301140E-02
     51038 TIP3     8708     TIP3     OH2      OT      -0.834000       15.9994           0   0.00000       0.00000    
     51039 TIP3     8708     TIP3     H1       HT       0.417000       1.00800           0   0.00000       0.00000    
     51040 TIP3     8708     TIP3     H2       HT       0.417000       1.00800           0   0.00000     -0.301140E-02
     51041 TIP3     8709     TIP3     OH2      OT      -0.834000       15.9994           0   0.00000       0.00000    
     51042 TIP3     8709     TIP3     H1       HT       0.417000       1.00800           0   0.00000       0.00000    
     51043 TIP3     8709     TIP3     H2       HT       0.417000       1.00800           0   0.00000     -0.301140E-02
     51044 TIP3     8710     TIP3     OH2      OT      -0.834000       15.9994           0   0.00000       0.00000    
     51045 TIP3     8710     TIP3     H1       HT       0.417000       1.00800           0   0.00000       0.00000    
     51046 TIP3     8710     TIP3     H2       HT       0.417000       1.00800           0   0.00000     -0.301140E-02
     51047 TIP3     8711     TIP3     OH2      OT      -0.834000       15.9994           0   0.00000       0.00000    
     51048 TIP3     8711     TIP3     H1       HT       0.417000       1.00800           0   0.00000       0.00000    
     51049 TIP3     8711     TIP3     H2       HT       0.417000       1.00800           0   0.00000     -0.301140E-02
     51050 TIP3     8712     TIP3     OH2      OT      -0.834000       15.9994           0   0.00000       0.00000    
     51051 TIP3     8712     TIP3     H1       HT       0.417000       1.00800           0   0.00000       0.00000    
     51052 TIP3     8712     TIP3     H2       HT       0.417000       1.00800           0   0.00000     -0.301140E-02
     51053 TIP3     8713     TIP3     OH2      OT      -0.834000       15.9994           0   0.00000       0.00000    
     51054 TIP3     8713     TIP3     H1       HT       0.417000       1.00800           0   0.00000       0.00000    
     51055 TIP3     8713     TIP3     H2       HT       0.417000       1.00800           0   0.00000     -0.301140E-02
     51056 TIP3     8714     TIP3     OH2      OT      -0.834000       15.9994           0   0.00000       0.00000    
     51057 TIP3     8714     TIP3     H1       HT       0.417000       1.00800           0   0.00000       0.00000    
     51058 TIP3     8714     TIP3     H2       HT       0.417000       1.00800           0   0.00000     -0.301140E-02
     51059 TIP3     8715     TIP3     OH2      OT      -0.834000       15.9994           0   0.00000       0.00000    
     51060 TIP3     8715     TIP3     H1       HT       0.417000       1.00800           0   0.00000       0.00000    
     51061 TIP3     8715     TIP3     H2       HT       0.417000       1.00800           0   0.00000     -0.301140E-02
     51062 TIP3     8716     TIP3     OH2      OT      -0.834000       15.9994           0   0.00000       0.00000    
     51063 TIP3     8716     TIP3     H1       HT       0.417000       1.00800           0   0.00000       0.00000    
     51064 TIP3     8716     TIP3     H2       HT       0.417000       1.00800           0   0.00000     -0.301140E-02
     51065 TIP3     8717     TIP3     OH2      OT      -0.834000       15.9994           0   0.00000       0.00000    
     51066 TIP3     8717     TIP3     H1       HT       0.417000       1.00800           0   0.00000       0.00000    
     51067 TIP3     8717     TIP3     H2       HT       0.417000       1.00800           0   0.00000     -0.301140E-02
     51068 TIP3     8718     TIP3     OH2      OT      -0.834000       15.9994           0   0.00000       0.00000    
     51069 TIP3     8718     TIP3     H1       HT       0.417000       1.00800           0   0.00000       0.00000    
     51070 TIP3     8718     TIP3     H2       HT       0.417000       1.00800           0   0.00000     -0.301140E-02
     51071 TIP3     8719     TIP3     OH2      OT      -0.834000       15.9994           0   0.00000       0.00000    
     51072 TIP3     8719     TIP3     H1       HT       0.417000       1.00800           0   0.00000       0.00000    
     51073 TIP3     8719     TIP3     H2       HT       0.417000       1.00800           0   0.00000     -0.301140E-02
     51074 TIP3     8720     TIP3     OH2      OT      -0.834000       15.9994           0   0.00000       0.00000    
     51075 TIP3     8720     TIP3     H1       HT       0.417000       1.00800           0   0.00000       0.00000    
     51076 TIP3     8720     TIP3     H2       HT       0.417000       1.00800           0   0.00000     -0.301140E-02
     51077 TIP3     8721     TIP3     OH2      OT      -0.834000       15.9994           0   0.00000       0.00000    
     51078 TIP3     8721     TIP3     H1       HT       0.417000       1.00800           0   0.00000       0.00000    
     51079 TIP3     8721     TIP3     H2       HT       0.417000       1.00800           0   0.00000     -0.301140E-02
     51080 TIP3     8722     TIP3     OH2      OT      -0.834000       15.9994           0   0.00000       0.00000    
     51081 TIP3     8722     TIP3     H1       HT       0.417000       1.00800           0   0.00000       0.00000    
     51082 TIP3     8722     TIP3     H2       HT       0.417000       1.00800           0   0.00000     -0.301140E-02
     51083 TIP3     8723     TIP3     OH2      OT      -0.834000       15.9994           0   0.00000       0.00000    
     51084 TIP3     8723     TIP3     H1       HT       0.417000       1.00800           0   0.00000       0.00000    
     51085 TIP3     8723     TIP3     H2       HT       0.417000       1.00800           0   0.00000     -0.301140E-02
     51086 TIP3     8724     TIP3     OH2      OT      -0.834000       15.9994           0   0.00000       0.00000    
     51087 TIP3     8724     TIP3     H1       HT       0.417000       1.00800           0   0.00000       0.00000    
     51088 TIP3     8724     TIP3     H2       HT       0.417000       1.00800           0   0.00000     -0.301140E-02
     51089 TIP3     8725     TIP3     OH2      OT      -0.834000       15.9994           0   0.00000       0.00000    
     51090 TIP3     8725     TIP3     H1       HT       0.417000       1.00800           0   0.00000       0.00000    
     51091 TIP3     8725     TIP3     H2       HT       0.417000       1.00800           0   0.00000     -0.301140E-02
     51092 TIP3     8726     TIP3     OH2      OT      -0.834000       15.9994           0   0.00000       0.00000    
     51093 TIP3     8726     TIP3     H1       HT       0.417000       1.00800           0   0.00000       0.00000    
     51094 TIP3     8726     TIP3     H2       HT       0.417000       1.00800           0   0.00000     -0.301140E-02
     51095 TIP3     8727     TIP3     OH2      OT      -0.834000       15.9994           0   0.00000       0.00000    
     51096 TIP3     8727     TIP3     H1       HT       0.417000       1.00800           0   0.00000       0.00000    
     51097 TIP3     8727     TIP3     H2       HT       0.417000       1.00800           0   0.00000     -0.301140E-02
     51098 TIP3     8728     TIP3     OH2      OT      -0.834000       15.9994           0   0.00000       0.00000    
     51099 TIP3     8728     TIP3     H1       HT       0.417000       1.00800           0   0.00000       0.00000    
     51100 TIP3     8728     TIP3     H2       HT       0.417000       1.00800           0   0.00000     -0.301140E-02
     51101 TIP3     8729     TIP3     OH2      OT      -0.834000       15.9994           0   0.00000       0.00000    
     51102 TIP3     8729     TIP3     H1       HT       0.417000       1.00800           0   0.00000       0.00000    
     51103 TIP3     8729     TIP3     H2       HT       0.417000       1.00800           0   0.00000     -0.301140E-02
     51104 TIP3     8730     TIP3     OH2      OT      -0.834000       15.9994           0   0.00000       0.00000    
     51105 TIP3     8730     TIP3     H1       HT       0.417000       1.00800           0   0.00000       0.00000    
     51106 TIP3     8730     TIP3     H2       HT       0.417000       1.00800           0   0.00000     -0.301140E-02
     51107 TIP3     8731     TIP3     OH2      OT      -0.834000       15.9994           0   0.00000       0.00000    
     51108 TIP3     8731     TIP3     H1       HT       0.417000       1.00800           0   0.00000       0.00000    
     51109 TIP3     8731     TIP3     H2       HT       0.417000       1.00800           0   0.00000     -0.301140E-02
     51110 TIP3     8732     TIP3     OH2      OT      -0.834000       15.9994           0   0.00000       0.00000    
     51111 TIP3     8732     TIP3     H1       HT       0.417000       1.00800           0   0.00000       0.00000    
     51112 TIP3     8732     TIP3     H2       HT       0.417000       1.00800           0   0.00000     -0.301140E-02
     51113 TIP3     8733     TIP3     OH2      OT      -0.834000       15.9994           0   0.00000       0.00000    
     51114 TIP3     8733     TIP3     H1       HT       0.417000       1.00800           0   0.00000       0.00000    
     51115 TIP3     8733     TIP3     H2       HT       0.417000       1.00800           0   0.00000     -0.301140E-02
     51116 TIP3     8734     TIP3     OH2      OT      -0.834000       15.9994           0   0.00000       0.00000    
     51117 TIP3     8734     TIP3     H1       HT       0.417000       1.00800           0   0.00000       0.00000    
     51118 TIP3     8734     TIP3     H2       HT       0.417000       1.00800           0   0.00000     -0.301140E-02
     51119 TIP3     8735     TIP3     OH2      OT      -0.834000       15.9994           0   0.00000       0.00000    
     51120 TIP3     8735     TIP3     H1       HT       0.417000       1.00800           0   0.00000       0.00000    
     51121 TIP3     8735     TIP3     H2       HT       0.417000       1.00800           0   0.00000     -0.301140E-02
     51122 TIP3     8736     TIP3     OH2      OT      -0.834000       15.9994           0   0.00000       0.00000    
     51123 TIP3     8736     TIP3     H1       HT       0.417000       1.00800           0   0.00000       0.00000    
     51124 TIP3     8736     TIP3     H2       HT       0.417000       1.00800           0   0.00000     -0.301140E-02
     51125 TIP3     8737     TIP3     OH2      OT      -0.834000       15.9994           0   0.00000       0.00000    
     51126 TIP3     8737     TIP3     H1       HT       0.417000       1.00800           0   0.00000       0.00000    
     51127 TIP3     8737     TIP3     H2       HT       0.417000       1.00800           0   0.00000     -0.301140E-02
     51128 TIP3     8738     TIP3     OH2      OT      -0.834000       15.9994           0   0.00000       0.00000    
     51129 TIP3     8738     TIP3     H1       HT       0.417000       1.00800           0   0.00000       0.00000    
     51130 TIP3     8738     TIP3     H2       HT       0.417000       1.00800           0   0.00000     -0.301140E-02
     51131 TIP3     8739     TIP3     OH2      OT      -0.834000       15.9994           0   0.00000       0.00000    
     51132 TIP3     8739     TIP3     H1       HT       0.417000       1.00800           0   0.00000       0.00000    
     51133 TIP3     8739     TIP3     H2       HT       0.417000       1.00800           0   0.00000     -0.301140E-02
     51134 TIP3     8740     TIP3     OH2      OT      -0.834000       15.9994           0   0.00000       0.00000    
     51135 TIP3     8740     TIP3     H1       HT       0.417000       1.00800           0   0.00000       0.00000    
     51136 TIP3     8740     TIP3     H2       HT       0.417000       1.00800           0   0.00000     -0.301140E-02
     51137 TIP3     8741     TIP3     OH2      OT      -0.834000       15.9994           0   0.00000       0.00000    
     51138 TIP3     8741     TIP3     H1       HT       0.417000       1.00800           0   0.00000       0.00000    
     51139 TIP3     8741     TIP3     H2       HT       0.417000       1.00800           0   0.00000     -0.301140E-02
     51140 TIP3     8742     TIP3     OH2      OT      -0.834000       15.9994           0   0.00000       0.00000    
     51141 TIP3     8742     TIP3     H1       HT       0.417000       1.00800           0   0.00000       0.00000    
     51142 TIP3     8742     TIP3     H2       HT       0.417000       1.00800           0   0.00000     -0.301140E-02
     51143 TIP3     8743     TIP3     OH2      OT      -0.834000       15.9994           0   0.00000       0.00000    
     51144 TIP3     8743     TIP3     H1       HT       0.417000       1.00800           0   0.00000       0.00000    
     51145 TIP3     8743     TIP3     H2       HT       0.417000       1.00800           0   0.00000     -0.301140E-02
     51146 TIP3     8744     TIP3     OH2      OT      -0.834000       15.9994           0   0.00000       0.00000    
     51147 TIP3     8744     TIP3     H1       HT       0.417000       1.00800           0   0.00000       0.00000    
     51148 TIP3     8744     TIP3     H2       HT       0.417000       1.00800           0   0.00000     -0.301140E-02
     51149 TIP3     8745     TIP3     OH2      OT      -0.834000       15.9994           0   0.00000       0.00000    
     51150 TIP3     8745     TIP3     H1       HT       0.417000       1.00800           0   0.00000       0.00000    
     51151 TIP3     8745     TIP3     H2       HT       0.417000       1.00800           0   0.00000     -0.301140E-02
     51152 TIP3     8746     TIP3     OH2      OT      -0.834000       15.9994           0   0.00000       0.00000    
     51153 TIP3     8746     TIP3     H1       HT       0.417000       1.00800           0   0.00000       0.00000    
     51154 TIP3     8746     TIP3     H2       HT       0.417000       1.00800           0   0.00000     -0.301140E-02
     51155 TIP3     8747     TIP3     OH2      OT      -0.834000       15.9994           0   0.00000       0.00000    
     51156 TIP3     8747     TIP3     H1       HT       0.417000       1.00800           0   0.00000       0.00000    
     51157 TIP3     8747     TIP3     H2       HT       0.417000       1.00800           0   0.00000     -0.301140E-02
     51158 TIP3     8748     TIP3     OH2      OT      -0.834000       15.9994           0   0.00000       0.00000    
     51159 TIP3     8748     TIP3     H1       HT       0.417000       1.00800           0   0.00000       0.00000    
     51160 TIP3     8748     TIP3     H2       HT       0.417000       1.00800           0   0.00000     -0.301140E-02
     51161 TIP3     8749     TIP3     OH2      OT      -0.834000       15.9994           0   0.00000       0.00000    
     51162 TIP3     8749     TIP3     H1       HT       0.417000       1.00800           0   0.00000       0.00000    
     51163 TIP3     8749     TIP3     H2       HT       0.417000       1.00800           0   0.00000     -0.301140E-02
     51164 TIP3     8750     TIP3     OH2      OT      -0.834000       15.9994           0   0.00000       0.00000    
     51165 TIP3     8750     TIP3     H1       HT       0.417000       1.00800           0   0.00000       0.00000    
     51166 TIP3     8750     TIP3     H2       HT       0.417000       1.00800           0   0.00000     -0.301140E-02
     51167 TIP3     8751     TIP3     OH2      OT      -0.834000       15.9994           0   0.00000       0.00000    
     51168 TIP3     8751     TIP3     H1       HT       0.417000       1.00800           0   0.00000       0.00000    
     51169 TIP3     8751     TIP3     H2       HT       0.417000       1.00800           0   0.00000     -0.301140E-02
     51170 TIP3     8752     TIP3     OH2      OT      -0.834000       15.9994           0   0.00000       0.00000    
     51171 TIP3     8752     TIP3     H1       HT       0.417000       1.00800           0   0.00000       0.00000    
     51172 TIP3     8752     TIP3     H2       HT       0.417000       1.00800           0   0.00000     -0.301140E-02
     51173 TIP3     8753     TIP3     OH2      OT      -0.834000       15.9994           0   0.00000       0.00000    
     51174 TIP3     8753     TIP3     H1       HT       0.417000       1.00800           0   0.00000       0.00000    
     51175 TIP3     8753     TIP3     H2       HT       0.417000       1.00800           0   0.00000     -0.301140E-02
     51176 TIP3     8754     TIP3     OH2      OT      -0.834000       15.9994           0   0.00000       0.00000    
     51177 TIP3     8754     TIP3     H1       HT       0.417000       1.00800           0   0.00000       0.00000    
     51178 TIP3     8754     TIP3     H2       HT       0.417000       1.00800           0   0.00000     -0.301140E-02
     51179 TIP3     8755     TIP3     OH2      OT      -0.834000       15.9994           0   0.00000       0.00000    
     51180 TIP3     8755     TIP3     H1       HT       0.417000       1.00800           0   0.00000       0.00000    
     51181 TIP3     8755     TIP3     H2       HT       0.417000       1.00800           0   0.00000     -0.301140E-02
     51182 TIP3     8756     TIP3     OH2      OT      -0.834000       15.9994           0   0.00000       0.00000    
     51183 TIP3     8756     TIP3     H1       HT       0.417000       1.00800           0   0.00000       0.00000    
     51184 TIP3     8756     TIP3     H2       HT       0.417000       1.00800           0   0.00000     -0.301140E-02
     51185 TIP3     8757     TIP3     OH2      OT      -0.834000       15.9994           0   0.00000       0.00000    
     51186 TIP3     8757     TIP3     H1       HT       0.417000       1.00800           0   0.00000       0.00000    
     51187 TIP3     8757     TIP3     H2       HT       0.417000       1.00800           0   0.00000     -0.301140E-02
     51188 TIP3     8758     TIP3     OH2      OT      -0.834000       15.9994           0   0.00000       0.00000    
     51189 TIP3     8758     TIP3     H1       HT       0.417000       1.00800           0   0.00000       0.00000    
     51190 TIP3     8758     TIP3     H2       HT       0.417000       1.00800           0   0.00000     -0.301140E-02
     51191 TIP3     8759     TIP3     OH2      OT      -0.834000       15.9994           0   0.00000       0.00000    
     51192 TIP3     8759     TIP3     H1       HT       0.417000       1.00800           0   0.00000       0.00000    
     51193 TIP3     8759     TIP3     H2       HT       0.417000       1.00800           0   0.00000     -0.301140E-02
     51194 TIP3     8760     TIP3     OH2      OT      -0.834000       15.9994           0   0.00000       0.00000    
     51195 TIP3     8760     TIP3     H1       HT       0.417000       1.00800           0   0.00000       0.00000    
     51196 TIP3     8760     TIP3     H2       HT       0.417000       1.00800           0   0.00000     -0.301140E-02
     51197 TIP3     8761     TIP3     OH2      OT      -0.834000       15.9994           0   0.00000       0.00000    
     51198 TIP3     8761     TIP3     H1       HT       0.417000       1.00800           0   0.00000       0.00000    
     51199 TIP3     8761     TIP3     H2       HT       0.417000       1.00800           0   0.00000     -0.301140E-02
     51200 TIP3     8762     TIP3     OH2      OT      -0.834000       15.9994           0   0.00000       0.00000    
     51201 TIP3     8762     TIP3     H1       HT       0.417000       1.00800           0   0.00000       0.00000    
     51202 TIP3     8762     TIP3     H2       HT       0.417000       1.00800           0   0.00000     -0.301140E-02
     51203 TIP3     8763     TIP3     OH2      OT      -0.834000       15.9994           0   0.00000       0.00000    
     51204 TIP3     8763     TIP3     H1       HT       0.417000       1.00800           0   0.00000       0.00000    
     51205 TIP3     8763     TIP3     H2       HT       0.417000       1.00800           0   0.00000     -0.301140E-02
     51206 TIP3     8764     TIP3     OH2      OT      -0.834000       15.9994           0   0.00000       0.00000    
     51207 TIP3     8764     TIP3     H1       HT       0.417000       1.00800           0   0.00000       0.00000    
     51208 TIP3     8764     TIP3     H2       HT       0.417000       1.00800           0   0.00000     -0.301140E-02
     51209 TIP3     8765     TIP3     OH2      OT      -0.834000       15.9994           0   0.00000       0.00000    
     51210 TIP3     8765     TIP3     H1       HT       0.417000       1.00800           0   0.00000       0.00000    
     51211 TIP3     8765     TIP3     H2       HT       0.417000       1.00800           0   0.00000     -0.301140E-02
     51212 TIP3     8766     TIP3     OH2      OT      -0.834000       15.9994           0   0.00000       0.00000    
     51213 TIP3     8766     TIP3     H1       HT       0.417000       1.00800           0   0.00000       0.00000    
     51214 TIP3     8766     TIP3     H2       HT       0.417000       1.00800           0   0.00000     -0.301140E-02
     51215 TIP3     8767     TIP3     OH2      OT      -0.834000       15.9994           0   0.00000       0.00000    
     51216 TIP3     8767     TIP3     H1       HT       0.417000       1.00800           0   0.00000       0.00000    
     51217 TIP3     8767     TIP3     H2       HT       0.417000       1.00800           0   0.00000     -0.301140E-02
     51218 TIP3     8768     TIP3     OH2      OT      -0.834000       15.9994           0   0.00000       0.00000    
     51219 TIP3     8768     TIP3     H1       HT       0.417000       1.00800           0   0.00000       0.00000    
     51220 TIP3     8768     TIP3     H2       HT       0.417000       1.00800           0   0.00000     -0.301140E-02
     51221 TIP3     8769     TIP3     OH2      OT      -0.834000       15.9994           0   0.00000       0.00000    
     51222 TIP3     8769     TIP3     H1       HT       0.417000       1.00800           0   0.00000       0.00000    
     51223 TIP3     8769     TIP3     H2       HT       0.417000       1.00800           0   0.00000     -0.301140E-02
     51224 TIP3     8770     TIP3     OH2      OT      -0.834000       15.9994           0   0.00000       0.00000    
     51225 TIP3     8770     TIP3     H1       HT       0.417000       1.00800           0   0.00000       0.00000    
     51226 TIP3     8770     TIP3     H2       HT       0.417000       1.00800           0   0.00000     -0.301140E-02
     51227 TIP3     8771     TIP3     OH2      OT      -0.834000       15.9994           0   0.00000       0.00000    
     51228 TIP3     8771     TIP3     H1       HT       0.417000       1.00800           0   0.00000       0.00000    
     51229 TIP3     8771     TIP3     H2       HT       0.417000       1.00800           0   0.00000     -0.301140E-02
     51230 TIP3     8772     TIP3     OH2      OT      -0.834000       15.9994           0   0.00000       0.00000    
     51231 TIP3     8772     TIP3     H1       HT       0.417000       1.00800           0   0.00000       0.00000    
     51232 TIP3     8772     TIP3     H2       HT       0.417000       1.00800           0   0.00000     -0.301140E-02
     51233 TIP3     8773     TIP3     OH2      OT      -0.834000       15.9994           0   0.00000       0.00000    
     51234 TIP3     8773     TIP3     H1       HT       0.417000       1.00800           0   0.00000       0.00000    
     51235 TIP3     8773     TIP3     H2       HT       0.417000       1.00800           0   0.00000     -0.301140E-02
     51236 TIP3     8774     TIP3     OH2      OT      -0.834000       15.9994           0   0.00000       0.00000    
     51237 TIP3     8774     TIP3     H1       HT       0.417000       1.00800           0   0.00000       0.00000    
     51238 TIP3     8774     TIP3     H2       HT       0.417000       1.00800           0   0.00000     -0.301140E-02
     51239 TIP3     8775     TIP3     OH2      OT      -0.834000       15.9994           0   0.00000       0.00000    
     51240 TIP3     8775     TIP3     H1       HT       0.417000       1.00800           0   0.00000       0.00000    
     51241 TIP3     8775     TIP3     H2       HT       0.417000       1.00800           0   0.00000     -0.301140E-02
     51242 TIP3     8776     TIP3     OH2      OT      -0.834000       15.9994           0   0.00000       0.00000    
     51243 TIP3     8776     TIP3     H1       HT       0.417000       1.00800           0   0.00000       0.00000    
     51244 TIP3     8776     TIP3     H2       HT       0.417000       1.00800           0   0.00000     -0.301140E-02
     51245 TIP3     8777     TIP3     OH2      OT      -0.834000       15.9994           0   0.00000       0.00000    
     51246 TIP3     8777     TIP3     H1       HT       0.417000       1.00800           0   0.00000       0.00000    
     51247 TIP3     8777     TIP3     H2       HT       0.417000       1.00800           0   0.00000     -0.301140E-02
     51248 TIP3     8778     TIP3     OH2      OT      -0.834000       15.9994           0   0.00000       0.00000    
     51249 TIP3     8778     TIP3     H1       HT       0.417000       1.00800           0   0.00000       0.00000    
     51250 TIP3     8778     TIP3     H2       HT       0.417000       1.00800           0   0.00000     -0.301140E-02
     51251 TIP3     8779     TIP3     OH2      OT      -0.834000       15.9994           0   0.00000       0.00000    
     51252 TIP3     8779     TIP3     H1       HT       0.417000       1.00800           0   0.00000       0.00000    
     51253 TIP3     8779     TIP3     H2       HT       0.417000       1.00800           0   0.00000     -0.301140E-02
     51254 TIP3     8780     TIP3     OH2      OT      -0.834000       15.9994           0   0.00000       0.00000    
     51255 TIP3     8780     TIP3     H1       HT       0.417000       1.00800           0   0.00000       0.00000    
     51256 TIP3     8780     TIP3     H2       HT       0.417000       1.00800           0   0.00000     -0.301140E-02
     51257 TIP3     8781     TIP3     OH2      OT      -0.834000       15.9994           0   0.00000       0.00000    
     51258 TIP3     8781     TIP3     H1       HT       0.417000       1.00800           0   0.00000       0.00000    
     51259 TIP3     8781     TIP3     H2       HT       0.417000       1.00800           0   0.00000     -0.301140E-02
     51260 TIP3     8782     TIP3     OH2      OT      -0.834000       15.9994           0   0.00000       0.00000    
     51261 TIP3     8782     TIP3     H1       HT       0.417000       1.00800           0   0.00000       0.00000    
     51262 TIP3     8782     TIP3     H2       HT       0.417000       1.00800           0   0.00000     -0.301140E-02
     51263 TIP3     8783     TIP3     OH2      OT      -0.834000       15.9994           0   0.00000       0.00000    
     51264 TIP3     8783     TIP3     H1       HT       0.417000       1.00800           0   0.00000       0.00000    
     51265 TIP3     8783     TIP3     H2       HT       0.417000       1.00800           0   0.00000     -0.301140E-02
     51266 TIP3     8784     TIP3     OH2      OT      -0.834000       15.9994           0   0.00000       0.00000    
     51267 TIP3     8784     TIP3     H1       HT       0.417000       1.00800           0   0.00000       0.00000    
     51268 TIP3     8784     TIP3     H2       HT       0.417000       1.00800           0   0.00000     -0.301140E-02
     51269 TIP3     8785     TIP3     OH2      OT      -0.834000       15.9994           0   0.00000       0.00000    
     51270 TIP3     8785     TIP3     H1       HT       0.417000       1.00800           0   0.00000       0.00000    
     51271 TIP3     8785     TIP3     H2       HT       0.417000       1.00800           0   0.00000     -0.301140E-02
     51272 TIP3     8786     TIP3     OH2      OT      -0.834000       15.9994           0   0.00000       0.00000    
     51273 TIP3     8786     TIP3     H1       HT       0.417000       1.00800           0   0.00000       0.00000    
     51274 TIP3     8786     TIP3     H2       HT       0.417000       1.00800           0   0.00000     -0.301140E-02
     51275 TIP3     8787     TIP3     OH2      OT      -0.834000       15.9994           0   0.00000       0.00000    
     51276 TIP3     8787     TIP3     H1       HT       0.417000       1.00800           0   0.00000       0.00000    
     51277 TIP3     8787     TIP3     H2       HT       0.417000       1.00800           0   0.00000     -0.301140E-02
     51278 TIP3     8788     TIP3     OH2      OT      -0.834000       15.9994           0   0.00000       0.00000    
     51279 TIP3     8788     TIP3     H1       HT       0.417000       1.00800           0   0.00000       0.00000    
     51280 TIP3     8788     TIP3     H2       HT       0.417000       1.00800           0   0.00000     -0.301140E-02
     51281 TIP3     8789     TIP3     OH2      OT      -0.834000       15.9994           0   0.00000       0.00000    
     51282 TIP3     8789     TIP3     H1       HT       0.417000       1.00800           0   0.00000       0.00000    
     51283 TIP3     8789     TIP3     H2       HT       0.417000       1.00800           0   0.00000     -0.301140E-02
     51284 TIP3     8790     TIP3     OH2      OT      -0.834000       15.9994           0   0.00000       0.00000    
     51285 TIP3     8790     TIP3     H1       HT       0.417000       1.00800           0   0.00000       0.00000    
     51286 TIP3     8790     TIP3     H2       HT       0.417000       1.00800           0   0.00000     -0.301140E-02
     51287 TIP3     8791     TIP3     OH2      OT      -0.834000       15.9994           0   0.00000       0.00000    
     51288 TIP3     8791     TIP3     H1       HT       0.417000       1.00800           0   0.00000       0.00000    
     51289 TIP3     8791     TIP3     H2       HT       0.417000       1.00800           0   0.00000     -0.301140E-02
     51290 TIP3     8792     TIP3     OH2      OT      -0.834000       15.9994           0   0.00000       0.00000    
     51291 TIP3     8792     TIP3     H1       HT       0.417000       1.00800           0   0.00000       0.00000    
     51292 TIP3     8792     TIP3     H2       HT       0.417000       1.00800           0   0.00000     -0.301140E-02
     51293 TIP3     8793     TIP3     OH2      OT      -0.834000       15.9994           0   0.00000       0.00000    
     51294 TIP3     8793     TIP3     H1       HT       0.417000       1.00800           0   0.00000       0.00000    
     51295 TIP3     8793     TIP3     H2       HT       0.417000       1.00800           0   0.00000     -0.301140E-02
     51296 TIP3     8794     TIP3     OH2      OT      -0.834000       15.9994           0   0.00000       0.00000    
     51297 TIP3     8794     TIP3     H1       HT       0.417000       1.00800           0   0.00000       0.00000    
     51298 TIP3     8794     TIP3     H2       HT       0.417000       1.00800           0   0.00000     -0.301140E-02
     51299 TIP3     8795     TIP3     OH2      OT      -0.834000       15.9994           0   0.00000       0.00000    
     51300 TIP3     8795     TIP3     H1       HT       0.417000       1.00800           0   0.00000       0.00000    
     51301 TIP3     8795     TIP3     H2       HT       0.417000       1.00800           0   0.00000     -0.301140E-02
     51302 TIP3     8796     TIP3     OH2      OT      -0.834000       15.9994           0   0.00000       0.00000    
     51303 TIP3     8796     TIP3     H1       HT       0.417000       1.00800           0   0.00000       0.00000    
     51304 TIP3     8796     TIP3     H2       HT       0.417000       1.00800           0   0.00000     -0.301140E-02
     51305 TIP3     8797     TIP3     OH2      OT      -0.834000       15.9994           0   0.00000       0.00000    
     51306 TIP3     8797     TIP3     H1       HT       0.417000       1.00800           0   0.00000       0.00000    
     51307 TIP3     8797     TIP3     H2       HT       0.417000       1.00800           0   0.00000     -0.301140E-02
     51308 TIP3     8798     TIP3     OH2      OT      -0.834000       15.9994           0   0.00000       0.00000    
     51309 TIP3     8798     TIP3     H1       HT       0.417000       1.00800           0   0.00000       0.00000    
     51310 TIP3     8798     TIP3     H2       HT       0.417000       1.00800           0   0.00000     -0.301140E-02
     51311 TIP3     8799     TIP3     OH2      OT      -0.834000       15.9994           0   0.00000       0.00000    
     51312 TIP3     8799     TIP3     H1       HT       0.417000       1.00800           0   0.00000       0.00000    
     51313 TIP3     8799     TIP3     H2       HT       0.417000       1.00800           0   0.00000     -0.301140E-02
     51314 TIP3     8800     TIP3     OH2      OT      -0.834000       15.9994           0   0.00000       0.00000    
     51315 TIP3     8800     TIP3     H1       HT       0.417000       1.00800           0   0.00000       0.00000    
     51316 TIP3     8800     TIP3     H2       HT       0.417000       1.00800           0   0.00000     -0.301140E-02
     51317 TIP3     8801     TIP3     OH2      OT      -0.834000       15.9994           0   0.00000       0.00000    
     51318 TIP3     8801     TIP3     H1       HT       0.417000       1.00800           0   0.00000       0.00000    
     51319 TIP3     8801     TIP3     H2       HT       0.417000       1.00800           0   0.00000     -0.301140E-02
     51320 TIP3     8802     TIP3     OH2      OT      -0.834000       15.9994           0   0.00000       0.00000    
     51321 TIP3     8802     TIP3     H1       HT       0.417000       1.00800           0   0.00000       0.00000    
     51322 TIP3     8802     TIP3     H2       HT       0.417000       1.00800           0   0.00000     -0.301140E-02
     51323 TIP3     8803     TIP3     OH2      OT      -0.834000       15.9994           0   0.00000       0.00000    
     51324 TIP3     8803     TIP3     H1       HT       0.417000       1.00800           0   0.00000       0.00000    
     51325 TIP3     8803     TIP3     H2       HT       0.417000       1.00800           0   0.00000     -0.301140E-02
     51326 TIP3     8804     TIP3     OH2      OT      -0.834000       15.9994           0   0.00000       0.00000    
     51327 TIP3     8804     TIP3     H1       HT       0.417000       1.00800           0   0.00000       0.00000    
     51328 TIP3     8804     TIP3     H2       HT       0.417000       1.00800           0   0.00000     -0.301140E-02
     51329 TIP3     8805     TIP3     OH2      OT      -0.834000       15.9994           0   0.00000       0.00000    
     51330 TIP3     8805     TIP3     H1       HT       0.417000       1.00800           0   0.00000       0.00000    
     51331 TIP3     8805     TIP3     H2       HT       0.417000       1.00800           0   0.00000     -0.301140E-02
     51332 TIP3     8806     TIP3     OH2      OT      -0.834000       15.9994           0   0.00000       0.00000    
     51333 TIP3     8806     TIP3     H1       HT       0.417000       1.00800           0   0.00000       0.00000    
     51334 TIP3     8806     TIP3     H2       HT       0.417000       1.00800           0   0.00000     -0.301140E-02
     51335 TIP3     8807     TIP3     OH2      OT      -0.834000       15.9994           0   0.00000       0.00000    
     51336 TIP3     8807     TIP3     H1       HT       0.417000       1.00800           0   0.00000       0.00000    
     51337 TIP3     8807     TIP3     H2       HT       0.417000       1.00800           0   0.00000     -0.301140E-02
     51338 TIP3     8808     TIP3     OH2      OT      -0.834000       15.9994           0   0.00000       0.00000    
     51339 TIP3     8808     TIP3     H1       HT       0.417000       1.00800           0   0.00000       0.00000    
     51340 TIP3     8808     TIP3     H2       HT       0.417000       1.00800           0   0.00000     -0.301140E-02
     51341 TIP3     8809     TIP3     OH2      OT      -0.834000       15.9994           0   0.00000       0.00000    
     51342 TIP3     8809     TIP3     H1       HT       0.417000       1.00800           0   0.00000       0.00000    
     51343 TIP3     8809     TIP3     H2       HT       0.417000       1.00800           0   0.00000     -0.301140E-02
     51344 TIP3     8810     TIP3     OH2      OT      -0.834000       15.9994           0   0.00000       0.00000    
     51345 TIP3     8810     TIP3     H1       HT       0.417000       1.00800           0   0.00000       0.00000    
     51346 TIP3     8810     TIP3     H2       HT       0.417000       1.00800           0   0.00000     -0.301140E-02
     51347 TIP3     8811     TIP3     OH2      OT      -0.834000       15.9994           0   0.00000       0.00000    
     51348 TIP3     8811     TIP3     H1       HT       0.417000       1.00800           0   0.00000       0.00000    
     51349 TIP3     8811     TIP3     H2       HT       0.417000       1.00800           0   0.00000     -0.301140E-02
     51350 TIP3     8812     TIP3     OH2      OT      -0.834000       15.9994           0   0.00000       0.00000    
     51351 TIP3     8812     TIP3     H1       HT       0.417000       1.00800           0   0.00000       0.00000    
     51352 TIP3     8812     TIP3     H2       HT       0.417000       1.00800           0   0.00000     -0.301140E-02
     51353 TIP3     8813     TIP3     OH2      OT      -0.834000       15.9994           0   0.00000       0.00000    
     51354 TIP3     8813     TIP3     H1       HT       0.417000       1.00800           0   0.00000       0.00000    
     51355 TIP3     8813     TIP3     H2       HT       0.417000       1.00800           0   0.00000     -0.301140E-02
     51356 TIP3     8814     TIP3     OH2      OT      -0.834000       15.9994           0   0.00000       0.00000    
     51357 TIP3     8814     TIP3     H1       HT       0.417000       1.00800           0   0.00000       0.00000    
     51358 TIP3     8814     TIP3     H2       HT       0.417000       1.00800           0   0.00000     -0.301140E-02
     51359 TIP3     8815     TIP3     OH2      OT      -0.834000       15.9994           0   0.00000       0.00000    
     51360 TIP3     8815     TIP3     H1       HT       0.417000       1.00800           0   0.00000       0.00000    
     51361 TIP3     8815     TIP3     H2       HT       0.417000       1.00800           0   0.00000     -0.301140E-02
     51362 TIP3     8816     TIP3     OH2      OT      -0.834000       15.9994           0   0.00000       0.00000    
     51363 TIP3     8816     TIP3     H1       HT       0.417000       1.00800           0   0.00000       0.00000    
     51364 TIP3     8816     TIP3     H2       HT       0.417000       1.00800           0   0.00000     -0.301140E-02
     51365 TIP3     8817     TIP3     OH2      OT      -0.834000       15.9994           0   0.00000       0.00000    
     51366 TIP3     8817     TIP3     H1       HT       0.417000       1.00800           0   0.00000       0.00000    
     51367 TIP3     8817     TIP3     H2       HT       0.417000       1.00800           0   0.00000     -0.301140E-02
     51368 TIP3     8818     TIP3     OH2      OT      -0.834000       15.9994           0   0.00000       0.00000    
     51369 TIP3     8818     TIP3     H1       HT       0.417000       1.00800           0   0.00000       0.00000    
     51370 TIP3     8818     TIP3     H2       HT       0.417000       1.00800           0   0.00000     -0.301140E-02
     51371 TIP3     8819     TIP3     OH2      OT      -0.834000       15.9994           0   0.00000       0.00000    
     51372 TIP3     8819     TIP3     H1       HT       0.417000       1.00800           0   0.00000       0.00000    
     51373 TIP3     8819     TIP3     H2       HT       0.417000       1.00800           0   0.00000     -0.301140E-02
     51374 TIP3     8820     TIP3     OH2      OT      -0.834000       15.9994           0   0.00000       0.00000    
     51375 TIP3     8820     TIP3     H1       HT       0.417000       1.00800           0   0.00000       0.00000    
     51376 TIP3     8820     TIP3     H2       HT       0.417000       1.00800           0   0.00000     -0.301140E-02
     51377 TIP3     8821     TIP3     OH2      OT      -0.834000       15.9994           0   0.00000       0.00000    
     51378 TIP3     8821     TIP3     H1       HT       0.417000       1.00800           0   0.00000       0.00000    
     51379 TIP3     8821     TIP3     H2       HT       0.417000       1.00800           0   0.00000     -0.301140E-02
     51380 TIP3     8822     TIP3     OH2      OT      -0.834000       15.9994           0   0.00000       0.00000    
     51381 TIP3     8822     TIP3     H1       HT       0.417000       1.00800           0   0.00000       0.00000    
     51382 TIP3     8822     TIP3     H2       HT       0.417000       1.00800           0   0.00000     -0.301140E-02
     51383 TIP3     8823     TIP3     OH2      OT      -0.834000       15.9994           0   0.00000       0.00000    
     51384 TIP3     8823     TIP3     H1       HT       0.417000       1.00800           0   0.00000       0.00000    
     51385 TIP3     8823     TIP3     H2       HT       0.417000       1.00800           0   0.00000     -0.301140E-02
     51386 TIP3     8824     TIP3     OH2      OT      -0.834000       15.9994           0   0.00000       0.00000    
     51387 TIP3     8824     TIP3     H1       HT       0.417000       1.00800           0   0.00000       0.00000    
     51388 TIP3     8824     TIP3     H2       HT       0.417000       1.00800           0   0.00000     -0.301140E-02
     51389 TIP3     8825     TIP3     OH2      OT      -0.834000       15.9994           0   0.00000       0.00000    
     51390 TIP3     8825     TIP3     H1       HT       0.417000       1.00800           0   0.00000       0.00000    
     51391 TIP3     8825     TIP3     H2       HT       0.417000       1.00800           0   0.00000     -0.301140E-02
     51392 TIP3     8826     TIP3     OH2      OT      -0.834000       15.9994           0   0.00000       0.00000    
     51393 TIP3     8826     TIP3     H1       HT       0.417000       1.00800           0   0.00000       0.00000    
     51394 TIP3     8826     TIP3     H2       HT       0.417000       1.00800           0   0.00000     -0.301140E-02
     51395 TIP3     8827     TIP3     OH2      OT      -0.834000       15.9994           0   0.00000       0.00000    
     51396 TIP3     8827     TIP3     H1       HT       0.417000       1.00800           0   0.00000       0.00000    
     51397 TIP3     8827     TIP3     H2       HT       0.417000       1.00800           0   0.00000     -0.301140E-02
     51398 TIP3     8828     TIP3     OH2      OT      -0.834000       15.9994           0   0.00000       0.00000    
     51399 TIP3     8828     TIP3     H1       HT       0.417000       1.00800           0   0.00000       0.00000    
     51400 TIP3     8828     TIP3     H2       HT       0.417000       1.00800           0   0.00000     -0.301140E-02
     51401 TIP3     8829     TIP3     OH2      OT      -0.834000       15.9994           0   0.00000       0.00000    
     51402 TIP3     8829     TIP3     H1       HT       0.417000       1.00800           0   0.00000       0.00000    
     51403 TIP3     8829     TIP3     H2       HT       0.417000       1.00800           0   0.00000     -0.301140E-02
     51404 TIP3     8830     TIP3     OH2      OT      -0.834000       15.9994           0   0.00000       0.00000    
     51405 TIP3     8830     TIP3     H1       HT       0.417000       1.00800           0   0.00000       0.00000    
     51406 TIP3     8830     TIP3     H2       HT       0.417000       1.00800           0   0.00000     -0.301140E-02
     51407 TIP3     8831     TIP3     OH2      OT      -0.834000       15.9994           0   0.00000       0.00000    
     51408 TIP3     8831     TIP3     H1       HT       0.417000       1.00800           0   0.00000       0.00000    
     51409 TIP3     8831     TIP3     H2       HT       0.417000       1.00800           0   0.00000     -0.301140E-02
     51410 TIP3     8832     TIP3     OH2      OT      -0.834000       15.9994           0   0.00000       0.00000    
     51411 TIP3     8832     TIP3     H1       HT       0.417000       1.00800           0   0.00000       0.00000    
     51412 TIP3     8832     TIP3     H2       HT       0.417000       1.00800           0   0.00000     -0.301140E-02
     51413 TIP3     8833     TIP3     OH2      OT      -0.834000       15.9994           0   0.00000       0.00000    
     51414 TIP3     8833     TIP3     H1       HT       0.417000       1.00800           0   0.00000       0.00000    
     51415 TIP3     8833     TIP3     H2       HT       0.417000       1.00800           0   0.00000     -0.301140E-02
     51416 TIP3     8834     TIP3     OH2      OT      -0.834000       15.9994           0   0.00000       0.00000    
     51417 TIP3     8834     TIP3     H1       HT       0.417000       1.00800           0   0.00000       0.00000    
     51418 TIP3     8834     TIP3     H2       HT       0.417000       1.00800           0   0.00000     -0.301140E-02
     51419 TIP3     8835     TIP3     OH2      OT      -0.834000       15.9994           0   0.00000       0.00000    
     51420 TIP3     8835     TIP3     H1       HT       0.417000       1.00800           0   0.00000       0.00000    
     51421 TIP3     8835     TIP3     H2       HT       0.417000       1.00800           0   0.00000     -0.301140E-02
     51422 TIP3     8836     TIP3     OH2      OT      -0.834000       15.9994           0   0.00000       0.00000    
     51423 TIP3     8836     TIP3     H1       HT       0.417000       1.00800           0   0.00000       0.00000    
     51424 TIP3     8836     TIP3     H2       HT       0.417000       1.00800           0   0.00000     -0.301140E-02
     51425 TIP3     8837     TIP3     OH2      OT      -0.834000       15.9994           0   0.00000       0.00000    
     51426 TIP3     8837     TIP3     H1       HT       0.417000       1.00800           0   0.00000       0.00000    
     51427 TIP3     8837     TIP3     H2       HT       0.417000       1.00800           0   0.00000     -0.301140E-02
     51428 TIP3     8838     TIP3     OH2      OT      -0.834000       15.9994           0   0.00000       0.00000    
     51429 TIP3     8838     TIP3     H1       HT       0.417000       1.00800           0   0.00000       0.00000    
     51430 TIP3     8838     TIP3     H2       HT       0.417000       1.00800           0   0.00000     -0.301140E-02
     51431 TIP3     8839     TIP3     OH2      OT      -0.834000       15.9994           0   0.00000       0.00000    
     51432 TIP3     8839     TIP3     H1       HT       0.417000       1.00800           0   0.00000       0.00000    
     51433 TIP3     8839     TIP3     H2       HT       0.417000       1.00800           0   0.00000     -0.301140E-02
     51434 TIP3     8840     TIP3     OH2      OT      -0.834000       15.9994           0   0.00000       0.00000    
     51435 TIP3     8840     TIP3     H1       HT       0.417000       1.00800           0   0.00000       0.00000    
     51436 TIP3     8840     TIP3     H2       HT       0.417000       1.00800           0   0.00000     -0.301140E-02
     51437 TIP3     8841     TIP3     OH2      OT      -0.834000       15.9994           0   0.00000       0.00000    
     51438 TIP3     8841     TIP3     H1       HT       0.417000       1.00800           0   0.00000       0.00000    
     51439 TIP3     8841     TIP3     H2       HT       0.417000       1.00800           0   0.00000     -0.301140E-02
     51440 TIP3     8842     TIP3     OH2      OT      -0.834000       15.9994           0   0.00000       0.00000    
     51441 TIP3     8842     TIP3     H1       HT       0.417000       1.00800           0   0.00000       0.00000    
     51442 TIP3     8842     TIP3     H2       HT       0.417000       1.00800           0   0.00000     -0.301140E-02
     51443 TIP3     8843     TIP3     OH2      OT      -0.834000       15.9994           0   0.00000       0.00000    
     51444 TIP3     8843     TIP3     H1       HT       0.417000       1.00800           0   0.00000       0.00000    
     51445 TIP3     8843     TIP3     H2       HT       0.417000       1.00800           0   0.00000     -0.301140E-02
     51446 TIP3     8844     TIP3     OH2      OT      -0.834000       15.9994           0   0.00000       0.00000    
     51447 TIP3     8844     TIP3     H1       HT       0.417000       1.00800           0   0.00000       0.00000    
     51448 TIP3     8844     TIP3     H2       HT       0.417000       1.00800           0   0.00000     -0.301140E-02
     51449 TIP3     8845     TIP3     OH2      OT      -0.834000       15.9994           0   0.00000       0.00000    
     51450 TIP3     8845     TIP3     H1       HT       0.417000       1.00800           0   0.00000       0.00000    
     51451 TIP3     8845     TIP3     H2       HT       0.417000       1.00800           0   0.00000     -0.301140E-02
     51452 TIP3     8846     TIP3     OH2      OT      -0.834000       15.9994           0   0.00000       0.00000    
     51453 TIP3     8846     TIP3     H1       HT       0.417000       1.00800           0   0.00000       0.00000    
     51454 TIP3     8846     TIP3     H2       HT       0.417000       1.00800           0   0.00000     -0.301140E-02
     51455 TIP3     8847     TIP3     OH2      OT      -0.834000       15.9994           0   0.00000       0.00000    
     51456 TIP3     8847     TIP3     H1       HT       0.417000       1.00800           0   0.00000       0.00000    
     51457 TIP3     8847     TIP3     H2       HT       0.417000       1.00800           0   0.00000     -0.301140E-02
     51458 TIP3     8848     TIP3     OH2      OT      -0.834000       15.9994           0   0.00000       0.00000    
     51459 TIP3     8848     TIP3     H1       HT       0.417000       1.00800           0   0.00000       0.00000    
     51460 TIP3     8848     TIP3     H2       HT       0.417000       1.00800           0   0.00000     -0.301140E-02
     51461 TIP3     8849     TIP3     OH2      OT      -0.834000       15.9994           0   0.00000       0.00000    
     51462 TIP3     8849     TIP3     H1       HT       0.417000       1.00800           0   0.00000       0.00000    
     51463 TIP3     8849     TIP3     H2       HT       0.417000       1.00800           0   0.00000     -0.301140E-02
     51464 TIP3     8850     TIP3     OH2      OT      -0.834000       15.9994           0   0.00000       0.00000    
     51465 TIP3     8850     TIP3     H1       HT       0.417000       1.00800           0   0.00000       0.00000    
     51466 TIP3     8850     TIP3     H2       HT       0.417000       1.00800           0   0.00000     -0.301140E-02
     51467 TIP3     8851     TIP3     OH2      OT      -0.834000       15.9994           0   0.00000       0.00000    
     51468 TIP3     8851     TIP3     H1       HT       0.417000       1.00800           0   0.00000       0.00000    
     51469 TIP3     8851     TIP3     H2       HT       0.417000       1.00800           0   0.00000     -0.301140E-02
     51470 TIP3     8852     TIP3     OH2      OT      -0.834000       15.9994           0   0.00000       0.00000    
     51471 TIP3     8852     TIP3     H1       HT       0.417000       1.00800           0   0.00000       0.00000    
     51472 TIP3     8852     TIP3     H2       HT       0.417000       1.00800           0   0.00000     -0.301140E-02
     51473 TIP3     8853     TIP3     OH2      OT      -0.834000       15.9994           0   0.00000       0.00000    
     51474 TIP3     8853     TIP3     H1       HT       0.417000       1.00800           0   0.00000       0.00000    
     51475 TIP3     8853     TIP3     H2       HT       0.417000       1.00800           0   0.00000     -0.301140E-02
     51476 TIP3     8854     TIP3     OH2      OT      -0.834000       15.9994           0   0.00000       0.00000    
     51477 TIP3     8854     TIP3     H1       HT       0.417000       1.00800           0   0.00000       0.00000    
     51478 TIP3     8854     TIP3     H2       HT       0.417000       1.00800           0   0.00000     -0.301140E-02
     51479 TIP3     8855     TIP3     OH2      OT      -0.834000       15.9994           0   0.00000       0.00000    
     51480 TIP3     8855     TIP3     H1       HT       0.417000       1.00800           0   0.00000       0.00000    
     51481 TIP3     8855     TIP3     H2       HT       0.417000       1.00800           0   0.00000     -0.301140E-02
     51482 TIP3     8856     TIP3     OH2      OT      -0.834000       15.9994           0   0.00000       0.00000    
     51483 TIP3     8856     TIP3     H1       HT       0.417000       1.00800           0   0.00000       0.00000    
     51484 TIP3     8856     TIP3     H2       HT       0.417000       1.00800           0   0.00000     -0.301140E-02
     51485 TIP3     8857     TIP3     OH2      OT      -0.834000       15.9994           0   0.00000       0.00000    
     51486 TIP3     8857     TIP3     H1       HT       0.417000       1.00800           0   0.00000       0.00000    
     51487 TIP3     8857     TIP3     H2       HT       0.417000       1.00800           0   0.00000     -0.301140E-02
     51488 TIP3     8858     TIP3     OH2      OT      -0.834000       15.9994           0   0.00000       0.00000    
     51489 TIP3     8858     TIP3     H1       HT       0.417000       1.00800           0   0.00000       0.00000    
     51490 TIP3     8858     TIP3     H2       HT       0.417000       1.00800           0   0.00000     -0.301140E-02
     51491 TIP3     8859     TIP3     OH2      OT      -0.834000       15.9994           0   0.00000       0.00000    
     51492 TIP3     8859     TIP3     H1       HT       0.417000       1.00800           0   0.00000       0.00000    
     51493 TIP3     8859     TIP3     H2       HT       0.417000       1.00800           0   0.00000     -0.301140E-02
     51494 TIP3     8860     TIP3     OH2      OT      -0.834000       15.9994           0   0.00000       0.00000    
     51495 TIP3     8860     TIP3     H1       HT       0.417000       1.00800           0   0.00000       0.00000    
     51496 TIP3     8860     TIP3     H2       HT       0.417000       1.00800           0   0.00000     -0.301140E-02
     51497 TIP3     8861     TIP3     OH2      OT      -0.834000       15.9994           0   0.00000       0.00000    
     51498 TIP3     8861     TIP3     H1       HT       0.417000       1.00800           0   0.00000       0.00000    
     51499 TIP3     8861     TIP3     H2       HT       0.417000       1.00800           0   0.00000     -0.301140E-02
     51500 TIP3     8862     TIP3     OH2      OT      -0.834000       15.9994           0   0.00000       0.00000    
     51501 TIP3     8862     TIP3     H1       HT       0.417000       1.00800           0   0.00000       0.00000    
     51502 TIP3     8862     TIP3     H2       HT       0.417000       1.00800           0   0.00000     -0.301140E-02
     51503 TIP3     8863     TIP3     OH2      OT      -0.834000       15.9994           0   0.00000       0.00000    
     51504 TIP3     8863     TIP3     H1       HT       0.417000       1.00800           0   0.00000       0.00000    
     51505 TIP3     8863     TIP3     H2       HT       0.417000       1.00800           0   0.00000     -0.301140E-02
     51506 TIP3     8864     TIP3     OH2      OT      -0.834000       15.9994           0   0.00000       0.00000    
     51507 TIP3     8864     TIP3     H1       HT       0.417000       1.00800           0   0.00000       0.00000    
     51508 TIP3     8864     TIP3     H2       HT       0.417000       1.00800           0   0.00000     -0.301140E-02
     51509 TIP3     8865     TIP3     OH2      OT      -0.834000       15.9994           0   0.00000       0.00000    
     51510 TIP3     8865     TIP3     H1       HT       0.417000       1.00800           0   0.00000       0.00000    
     51511 TIP3     8865     TIP3     H2       HT       0.417000       1.00800           0   0.00000     -0.301140E-02
     51512 TIP3     8866     TIP3     OH2      OT      -0.834000       15.9994           0   0.00000       0.00000    
     51513 TIP3     8866     TIP3     H1       HT       0.417000       1.00800           0   0.00000       0.00000    
     51514 TIP3     8866     TIP3     H2       HT       0.417000       1.00800           0   0.00000     -0.301140E-02
     51515 TIP3     8867     TIP3     OH2      OT      -0.834000       15.9994           0   0.00000       0.00000    
     51516 TIP3     8867     TIP3     H1       HT       0.417000       1.00800           0   0.00000       0.00000    
     51517 TIP3     8867     TIP3     H2       HT       0.417000       1.00800           0   0.00000     -0.301140E-02
     51518 TIP3     8868     TIP3     OH2      OT      -0.834000       15.9994           0   0.00000       0.00000    
     51519 TIP3     8868     TIP3     H1       HT       0.417000       1.00800           0   0.00000       0.00000    
     51520 TIP3     8868     TIP3     H2       HT       0.417000       1.00800           0   0.00000     -0.301140E-02
     51521 TIP3     8869     TIP3     OH2      OT      -0.834000       15.9994           0   0.00000       0.00000    
     51522 TIP3     8869     TIP3     H1       HT       0.417000       1.00800           0   0.00000       0.00000    
     51523 TIP3     8869     TIP3     H2       HT       0.417000       1.00800           0   0.00000     -0.301140E-02
     51524 TIP3     8870     TIP3     OH2      OT      -0.834000       15.9994           0   0.00000       0.00000    
     51525 TIP3     8870     TIP3     H1       HT       0.417000       1.00800           0   0.00000       0.00000    
     51526 TIP3     8870     TIP3     H2       HT       0.417000       1.00800           0   0.00000     -0.301140E-02
     51527 TIP3     8871     TIP3     OH2      OT      -0.834000       15.9994           0   0.00000       0.00000    
     51528 TIP3     8871     TIP3     H1       HT       0.417000       1.00800           0   0.00000       0.00000    
     51529 TIP3     8871     TIP3     H2       HT       0.417000       1.00800           0   0.00000     -0.301140E-02
     51530 TIP3     8872     TIP3     OH2      OT      -0.834000       15.9994           0   0.00000       0.00000    
     51531 TIP3     8872     TIP3     H1       HT       0.417000       1.00800           0   0.00000       0.00000    
     51532 TIP3     8872     TIP3     H2       HT       0.417000       1.00800           0   0.00000     -0.301140E-02
     51533 TIP3     8873     TIP3     OH2      OT      -0.834000       15.9994           0   0.00000       0.00000    
     51534 TIP3     8873     TIP3     H1       HT       0.417000       1.00800           0   0.00000       0.00000    
     51535 TIP3     8873     TIP3     H2       HT       0.417000       1.00800           0   0.00000     -0.301140E-02
     51536 TIP3     8874     TIP3     OH2      OT      -0.834000       15.9994           0   0.00000       0.00000    
     51537 TIP3     8874     TIP3     H1       HT       0.417000       1.00800           0   0.00000       0.00000    
     51538 TIP3     8874     TIP3     H2       HT       0.417000       1.00800           0   0.00000     -0.301140E-02
     51539 TIP3     8875     TIP3     OH2      OT      -0.834000       15.9994           0   0.00000       0.00000    
     51540 TIP3     8875     TIP3     H1       HT       0.417000       1.00800           0   0.00000       0.00000    
     51541 TIP3     8875     TIP3     H2       HT       0.417000       1.00800           0   0.00000     -0.301140E-02
     51542 TIP3     8876     TIP3     OH2      OT      -0.834000       15.9994           0   0.00000       0.00000    
     51543 TIP3     8876     TIP3     H1       HT       0.417000       1.00800           0   0.00000       0.00000    
     51544 TIP3     8876     TIP3     H2       HT       0.417000       1.00800           0   0.00000     -0.301140E-02
     51545 TIP3     8877     TIP3     OH2      OT      -0.834000       15.9994           0   0.00000       0.00000    
     51546 TIP3     8877     TIP3     H1       HT       0.417000       1.00800           0   0.00000       0.00000    
     51547 TIP3     8877     TIP3     H2       HT       0.417000       1.00800           0   0.00000     -0.301140E-02
     51548 TIP3     8878     TIP3     OH2      OT      -0.834000       15.9994           0   0.00000       0.00000    
     51549 TIP3     8878     TIP3     H1       HT       0.417000       1.00800           0   0.00000       0.00000    
     51550 TIP3     8878     TIP3     H2       HT       0.417000       1.00800           0   0.00000     -0.301140E-02
     51551 TIP3     8879     TIP3     OH2      OT      -0.834000       15.9994           0   0.00000       0.00000    
     51552 TIP3     8879     TIP3     H1       HT       0.417000       1.00800           0   0.00000       0.00000    
     51553 TIP3     8879     TIP3     H2       HT       0.417000       1.00800           0   0.00000     -0.301140E-02
     51554 TIP3     8880     TIP3     OH2      OT      -0.834000       15.9994           0   0.00000       0.00000    
     51555 TIP3     8880     TIP3     H1       HT       0.417000       1.00800           0   0.00000       0.00000    
     51556 TIP3     8880     TIP3     H2       HT       0.417000       1.00800           0   0.00000     -0.301140E-02
     51557 TIP3     8881     TIP3     OH2      OT      -0.834000       15.9994           0   0.00000       0.00000    
     51558 TIP3     8881     TIP3     H1       HT       0.417000       1.00800           0   0.00000       0.00000    
     51559 TIP3     8881     TIP3     H2       HT       0.417000       1.00800           0   0.00000     -0.301140E-02
     51560 TIP3     8882     TIP3     OH2      OT      -0.834000       15.9994           0   0.00000       0.00000    
     51561 TIP3     8882     TIP3     H1       HT       0.417000       1.00800           0   0.00000       0.00000    
     51562 TIP3     8882     TIP3     H2       HT       0.417000       1.00800           0   0.00000     -0.301140E-02
     51563 TIP3     8883     TIP3     OH2      OT      -0.834000       15.9994           0   0.00000       0.00000    
     51564 TIP3     8883     TIP3     H1       HT       0.417000       1.00800           0   0.00000       0.00000    
     51565 TIP3     8883     TIP3     H2       HT       0.417000       1.00800           0   0.00000     -0.301140E-02
     51566 TIP3     8884     TIP3     OH2      OT      -0.834000       15.9994           0   0.00000       0.00000    
     51567 TIP3     8884     TIP3     H1       HT       0.417000       1.00800           0   0.00000       0.00000    
     51568 TIP3     8884     TIP3     H2       HT       0.417000       1.00800           0   0.00000     -0.301140E-02
     51569 TIP3     8885     TIP3     OH2      OT      -0.834000       15.9994           0   0.00000       0.00000    
     51570 TIP3     8885     TIP3     H1       HT       0.417000       1.00800           0   0.00000       0.00000    
     51571 TIP3     8885     TIP3     H2       HT       0.417000       1.00800           0   0.00000     -0.301140E-02
     51572 TIP3     8886     TIP3     OH2      OT      -0.834000       15.9994           0   0.00000       0.00000    
     51573 TIP3     8886     TIP3     H1       HT       0.417000       1.00800           0   0.00000       0.00000    
     51574 TIP3     8886     TIP3     H2       HT       0.417000       1.00800           0   0.00000     -0.301140E-02
     51575 TIP3     8887     TIP3     OH2      OT      -0.834000       15.9994           0   0.00000       0.00000    
     51576 TIP3     8887     TIP3     H1       HT       0.417000       1.00800           0   0.00000       0.00000    
     51577 TIP3     8887     TIP3     H2       HT       0.417000       1.00800           0   0.00000     -0.301140E-02
     51578 TIP3     8888     TIP3     OH2      OT      -0.834000       15.9994           0   0.00000       0.00000    
     51579 TIP3     8888     TIP3     H1       HT       0.417000       1.00800           0   0.00000       0.00000    
     51580 TIP3     8888     TIP3     H2       HT       0.417000       1.00800           0   0.00000     -0.301140E-02
     51581 TIP3     8889     TIP3     OH2      OT      -0.834000       15.9994           0   0.00000       0.00000    
     51582 TIP3     8889     TIP3     H1       HT       0.417000       1.00800           0   0.00000       0.00000    
     51583 TIP3     8889     TIP3     H2       HT       0.417000       1.00800           0   0.00000     -0.301140E-02
     51584 TIP3     8890     TIP3     OH2      OT      -0.834000       15.9994           0   0.00000       0.00000    
     51585 TIP3     8890     TIP3     H1       HT       0.417000       1.00800           0   0.00000       0.00000    
     51586 TIP3     8890     TIP3     H2       HT       0.417000       1.00800           0   0.00000     -0.301140E-02
     51587 TIP3     8891     TIP3     OH2      OT      -0.834000       15.9994           0   0.00000       0.00000    
     51588 TIP3     8891     TIP3     H1       HT       0.417000       1.00800           0   0.00000       0.00000    
     51589 TIP3     8891     TIP3     H2       HT       0.417000       1.00800           0   0.00000     -0.301140E-02
     51590 TIP3     8892     TIP3     OH2      OT      -0.834000       15.9994           0   0.00000       0.00000    
     51591 TIP3     8892     TIP3     H1       HT       0.417000       1.00800           0   0.00000       0.00000    
     51592 TIP3     8892     TIP3     H2       HT       0.417000       1.00800           0   0.00000     -0.301140E-02
     51593 TIP3     8893     TIP3     OH2      OT      -0.834000       15.9994           0   0.00000       0.00000    
     51594 TIP3     8893     TIP3     H1       HT       0.417000       1.00800           0   0.00000       0.00000    
     51595 TIP3     8893     TIP3     H2       HT       0.417000       1.00800           0   0.00000     -0.301140E-02
     51596 TIP3     8894     TIP3     OH2      OT      -0.834000       15.9994           0   0.00000       0.00000    
     51597 TIP3     8894     TIP3     H1       HT       0.417000       1.00800           0   0.00000       0.00000    
     51598 TIP3     8894     TIP3     H2       HT       0.417000       1.00800           0   0.00000     -0.301140E-02
     51599 TIP3     8895     TIP3     OH2      OT      -0.834000       15.9994           0   0.00000       0.00000    
     51600 TIP3     8895     TIP3     H1       HT       0.417000       1.00800           0   0.00000       0.00000    
     51601 TIP3     8895     TIP3     H2       HT       0.417000       1.00800           0   0.00000     -0.301140E-02
     51602 TIP3     8896     TIP3     OH2      OT      -0.834000       15.9994           0   0.00000       0.00000    
     51603 TIP3     8896     TIP3     H1       HT       0.417000       1.00800           0   0.00000       0.00000    
     51604 TIP3     8896     TIP3     H2       HT       0.417000       1.00800           0   0.00000     -0.301140E-02
     51605 TIP3     8897     TIP3     OH2      OT      -0.834000       15.9994           0   0.00000       0.00000    
     51606 TIP3     8897     TIP3     H1       HT       0.417000       1.00800           0   0.00000       0.00000    
     51607 TIP3     8897     TIP3     H2       HT       0.417000       1.00800           0   0.00000     -0.301140E-02
     51608 TIP3     8898     TIP3     OH2      OT      -0.834000       15.9994           0   0.00000       0.00000    
     51609 TIP3     8898     TIP3     H1       HT       0.417000       1.00800           0   0.00000       0.00000    
     51610 TIP3     8898     TIP3     H2       HT       0.417000       1.00800           0   0.00000     -0.301140E-02
     51611 TIP3     8899     TIP3     OH2      OT      -0.834000       15.9994           0   0.00000       0.00000    
     51612 TIP3     8899     TIP3     H1       HT       0.417000       1.00800           0   0.00000       0.00000    
     51613 TIP3     8899     TIP3     H2       HT       0.417000       1.00800           0   0.00000     -0.301140E-02
     51614 TIP3     8900     TIP3     OH2      OT      -0.834000       15.9994           0   0.00000       0.00000    
     51615 TIP3     8900     TIP3     H1       HT       0.417000       1.00800           0   0.00000       0.00000    
     51616 TIP3     8900     TIP3     H2       HT       0.417000       1.00800           0   0.00000     -0.301140E-02
     51617 TIP3     8901     TIP3     OH2      OT      -0.834000       15.9994           0   0.00000       0.00000    
     51618 TIP3     8901     TIP3     H1       HT       0.417000       1.00800           0   0.00000       0.00000    
     51619 TIP3     8901     TIP3     H2       HT       0.417000       1.00800           0   0.00000     -0.301140E-02
     51620 TIP3     8902     TIP3     OH2      OT      -0.834000       15.9994           0   0.00000       0.00000    
     51621 TIP3     8902     TIP3     H1       HT       0.417000       1.00800           0   0.00000       0.00000    
     51622 TIP3     8902     TIP3     H2       HT       0.417000       1.00800           0   0.00000     -0.301140E-02
     51623 TIP3     8903     TIP3     OH2      OT      -0.834000       15.9994           0   0.00000       0.00000    
     51624 TIP3     8903     TIP3     H1       HT       0.417000       1.00800           0   0.00000       0.00000    
     51625 TIP3     8903     TIP3     H2       HT       0.417000       1.00800           0   0.00000     -0.301140E-02
     51626 TIP3     8904     TIP3     OH2      OT      -0.834000       15.9994           0   0.00000       0.00000    
     51627 TIP3     8904     TIP3     H1       HT       0.417000       1.00800           0   0.00000       0.00000    
     51628 TIP3     8904     TIP3     H2       HT       0.417000       1.00800           0   0.00000     -0.301140E-02
     51629 TIP3     8905     TIP3     OH2      OT      -0.834000       15.9994           0   0.00000       0.00000    
     51630 TIP3     8905     TIP3     H1       HT       0.417000       1.00800           0   0.00000       0.00000    
     51631 TIP3     8905     TIP3     H2       HT       0.417000       1.00800           0   0.00000     -0.301140E-02
     51632 TIP3     8906     TIP3     OH2      OT      -0.834000       15.9994           0   0.00000       0.00000    
     51633 TIP3     8906     TIP3     H1       HT       0.417000       1.00800           0   0.00000       0.00000    
     51634 TIP3     8906     TIP3     H2       HT       0.417000       1.00800           0   0.00000     -0.301140E-02
     51635 TIP3     8907     TIP3     OH2      OT      -0.834000       15.9994           0   0.00000       0.00000    
     51636 TIP3     8907     TIP3     H1       HT       0.417000       1.00800           0   0.00000       0.00000    
     51637 TIP3     8907     TIP3     H2       HT       0.417000       1.00800           0   0.00000     -0.301140E-02
     51638 TIP3     8908     TIP3     OH2      OT      -0.834000       15.9994           0   0.00000       0.00000    
     51639 TIP3     8908     TIP3     H1       HT       0.417000       1.00800           0   0.00000       0.00000    
     51640 TIP3     8908     TIP3     H2       HT       0.417000       1.00800           0   0.00000     -0.301140E-02
     51641 TIP3     8909     TIP3     OH2      OT      -0.834000       15.9994           0   0.00000       0.00000    
     51642 TIP3     8909     TIP3     H1       HT       0.417000       1.00800           0   0.00000       0.00000    
     51643 TIP3     8909     TIP3     H2       HT       0.417000       1.00800           0   0.00000     -0.301140E-02
     51644 TIP3     8910     TIP3     OH2      OT      -0.834000       15.9994           0   0.00000       0.00000    
     51645 TIP3     8910     TIP3     H1       HT       0.417000       1.00800           0   0.00000       0.00000    
     51646 TIP3     8910     TIP3     H2       HT       0.417000       1.00800           0   0.00000     -0.301140E-02
     51647 TIP3     8911     TIP3     OH2      OT      -0.834000       15.9994           0   0.00000       0.00000    
     51648 TIP3     8911     TIP3     H1       HT       0.417000       1.00800           0   0.00000       0.00000    
     51649 TIP3     8911     TIP3     H2       HT       0.417000       1.00800           0   0.00000     -0.301140E-02
     51650 TIP3     8912     TIP3     OH2      OT      -0.834000       15.9994           0   0.00000       0.00000    
     51651 TIP3     8912     TIP3     H1       HT       0.417000       1.00800           0   0.00000       0.00000    
     51652 TIP3     8912     TIP3     H2       HT       0.417000       1.00800           0   0.00000     -0.301140E-02
     51653 TIP3     8913     TIP3     OH2      OT      -0.834000       15.9994           0   0.00000       0.00000    
     51654 TIP3     8913     TIP3     H1       HT       0.417000       1.00800           0   0.00000       0.00000    
     51655 TIP3     8913     TIP3     H2       HT       0.417000       1.00800           0   0.00000     -0.301140E-02
     51656 TIP3     8914     TIP3     OH2      OT      -0.834000       15.9994           0   0.00000       0.00000    
     51657 TIP3     8914     TIP3     H1       HT       0.417000       1.00800           0   0.00000       0.00000    
     51658 TIP3     8914     TIP3     H2       HT       0.417000       1.00800           0   0.00000     -0.301140E-02
     51659 TIP3     8915     TIP3     OH2      OT      -0.834000       15.9994           0   0.00000       0.00000    
     51660 TIP3     8915     TIP3     H1       HT       0.417000       1.00800           0   0.00000       0.00000    
     51661 TIP3     8915     TIP3     H2       HT       0.417000       1.00800           0   0.00000     -0.301140E-02
     51662 TIP3     8916     TIP3     OH2      OT      -0.834000       15.9994           0   0.00000       0.00000    
     51663 TIP3     8916     TIP3     H1       HT       0.417000       1.00800           0   0.00000       0.00000    
     51664 TIP3     8916     TIP3     H2       HT       0.417000       1.00800           0   0.00000     -0.301140E-02
     51665 TIP3     8917     TIP3     OH2      OT      -0.834000       15.9994           0   0.00000       0.00000    
     51666 TIP3     8917     TIP3     H1       HT       0.417000       1.00800           0   0.00000       0.00000    
     51667 TIP3     8917     TIP3     H2       HT       0.417000       1.00800           0   0.00000     -0.301140E-02
     51668 TIP3     8918     TIP3     OH2      OT      -0.834000       15.9994           0   0.00000       0.00000    
     51669 TIP3     8918     TIP3     H1       HT       0.417000       1.00800           0   0.00000       0.00000    
     51670 TIP3     8918     TIP3     H2       HT       0.417000       1.00800           0   0.00000     -0.301140E-02
     51671 TIP3     8919     TIP3     OH2      OT      -0.834000       15.9994           0   0.00000       0.00000    
     51672 TIP3     8919     TIP3     H1       HT       0.417000       1.00800           0   0.00000       0.00000    
     51673 TIP3     8919     TIP3     H2       HT       0.417000       1.00800           0   0.00000     -0.301140E-02
     51674 TIP3     8920     TIP3     OH2      OT      -0.834000       15.9994           0   0.00000       0.00000    
     51675 TIP3     8920     TIP3     H1       HT       0.417000       1.00800           0   0.00000       0.00000    
     51676 TIP3     8920     TIP3     H2       HT       0.417000       1.00800           0   0.00000     -0.301140E-02
     51677 TIP3     8921     TIP3     OH2      OT      -0.834000       15.9994           0   0.00000       0.00000    
     51678 TIP3     8921     TIP3     H1       HT       0.417000       1.00800           0   0.00000       0.00000    
     51679 TIP3     8921     TIP3     H2       HT       0.417000       1.00800           0   0.00000     -0.301140E-02
     51680 TIP3     8922     TIP3     OH2      OT      -0.834000       15.9994           0   0.00000       0.00000    
     51681 TIP3     8922     TIP3     H1       HT       0.417000       1.00800           0   0.00000       0.00000    
     51682 TIP3     8922     TIP3     H2       HT       0.417000       1.00800           0   0.00000     -0.301140E-02
     51683 TIP3     8923     TIP3     OH2      OT      -0.834000       15.9994           0   0.00000       0.00000    
     51684 TIP3     8923     TIP3     H1       HT       0.417000       1.00800           0   0.00000       0.00000    
     51685 TIP3     8923     TIP3     H2       HT       0.417000       1.00800           0   0.00000     -0.301140E-02
     51686 TIP3     8924     TIP3     OH2      OT      -0.834000       15.9994           0   0.00000       0.00000    
     51687 TIP3     8924     TIP3     H1       HT       0.417000       1.00800           0   0.00000       0.00000    
     51688 TIP3     8924     TIP3     H2       HT       0.417000       1.00800           0   0.00000     -0.301140E-02
     51689 TIP3     8925     TIP3     OH2      OT      -0.834000       15.9994           0   0.00000       0.00000    
     51690 TIP3     8925     TIP3     H1       HT       0.417000       1.00800           0   0.00000       0.00000    
     51691 TIP3     8925     TIP3     H2       HT       0.417000       1.00800           0   0.00000     -0.301140E-02
     51692 TIP3     8926     TIP3     OH2      OT      -0.834000       15.9994           0   0.00000       0.00000    
     51693 TIP3     8926     TIP3     H1       HT       0.417000       1.00800           0   0.00000       0.00000    
     51694 TIP3     8926     TIP3     H2       HT       0.417000       1.00800           0   0.00000     -0.301140E-02
     51695 TIP3     8927     TIP3     OH2      OT      -0.834000       15.9994           0   0.00000       0.00000    
     51696 TIP3     8927     TIP3     H1       HT       0.417000       1.00800           0   0.00000       0.00000    
     51697 TIP3     8927     TIP3     H2       HT       0.417000       1.00800           0   0.00000     -0.301140E-02
     51698 TIP3     8928     TIP3     OH2      OT      -0.834000       15.9994           0   0.00000       0.00000    
     51699 TIP3     8928     TIP3     H1       HT       0.417000       1.00800           0   0.00000       0.00000    
     51700 TIP3     8928     TIP3     H2       HT       0.417000       1.00800           0   0.00000     -0.301140E-02
     51701 TIP3     8929     TIP3     OH2      OT      -0.834000       15.9994           0   0.00000       0.00000    
     51702 TIP3     8929     TIP3     H1       HT       0.417000       1.00800           0   0.00000       0.00000    
     51703 TIP3     8929     TIP3     H2       HT       0.417000       1.00800           0   0.00000     -0.301140E-02
     51704 TIP3     8930     TIP3     OH2      OT      -0.834000       15.9994           0   0.00000       0.00000    
     51705 TIP3     8930     TIP3     H1       HT       0.417000       1.00800           0   0.00000       0.00000    
     51706 TIP3     8930     TIP3     H2       HT       0.417000       1.00800           0   0.00000     -0.301140E-02
     51707 TIP3     8931     TIP3     OH2      OT      -0.834000       15.9994           0   0.00000       0.00000    
     51708 TIP3     8931     TIP3     H1       HT       0.417000       1.00800           0   0.00000       0.00000    
     51709 TIP3     8931     TIP3     H2       HT       0.417000       1.00800           0   0.00000     -0.301140E-02
     51710 TIP3     8932     TIP3     OH2      OT      -0.834000       15.9994           0   0.00000       0.00000    
     51711 TIP3     8932     TIP3     H1       HT       0.417000       1.00800           0   0.00000       0.00000    
     51712 TIP3     8932     TIP3     H2       HT       0.417000       1.00800           0   0.00000     -0.301140E-02
     51713 TIP3     8933     TIP3     OH2      OT      -0.834000       15.9994           0   0.00000       0.00000    
     51714 TIP3     8933     TIP3     H1       HT       0.417000       1.00800           0   0.00000       0.00000    
     51715 TIP3     8933     TIP3     H2       HT       0.417000       1.00800           0   0.00000     -0.301140E-02
     51716 TIP3     8934     TIP3     OH2      OT      -0.834000       15.9994           0   0.00000       0.00000    
     51717 TIP3     8934     TIP3     H1       HT       0.417000       1.00800           0   0.00000       0.00000    
     51718 TIP3     8934     TIP3     H2       HT       0.417000       1.00800           0   0.00000     -0.301140E-02
     51719 TIP3     8935     TIP3     OH2      OT      -0.834000       15.9994           0   0.00000       0.00000    
     51720 TIP3     8935     TIP3     H1       HT       0.417000       1.00800           0   0.00000       0.00000    
     51721 TIP3     8935     TIP3     H2       HT       0.417000       1.00800           0   0.00000     -0.301140E-02
     51722 TIP3     8936     TIP3     OH2      OT      -0.834000       15.9994           0   0.00000       0.00000    
     51723 TIP3     8936     TIP3     H1       HT       0.417000       1.00800           0   0.00000       0.00000    
     51724 TIP3     8936     TIP3     H2       HT       0.417000       1.00800           0   0.00000     -0.301140E-02
     51725 TIP3     8937     TIP3     OH2      OT      -0.834000       15.9994           0   0.00000       0.00000    
     51726 TIP3     8937     TIP3     H1       HT       0.417000       1.00800           0   0.00000       0.00000    
     51727 TIP3     8937     TIP3     H2       HT       0.417000       1.00800           0   0.00000     -0.301140E-02
     51728 TIP3     8938     TIP3     OH2      OT      -0.834000       15.9994           0   0.00000       0.00000    
     51729 TIP3     8938     TIP3     H1       HT       0.417000       1.00800           0   0.00000       0.00000    
     51730 TIP3     8938     TIP3     H2       HT       0.417000       1.00800           0   0.00000     -0.301140E-02
     51731 TIP3     8939     TIP3     OH2      OT      -0.834000       15.9994           0   0.00000       0.00000    
     51732 TIP3     8939     TIP3     H1       HT       0.417000       1.00800           0   0.00000       0.00000    
     51733 TIP3     8939     TIP3     H2       HT       0.417000       1.00800           0   0.00000     -0.301140E-02
     51734 TIP3     8940     TIP3     OH2      OT      -0.834000       15.9994           0   0.00000       0.00000    
     51735 TIP3     8940     TIP3     H1       HT       0.417000       1.00800           0   0.00000       0.00000    
     51736 TIP3     8940     TIP3     H2       HT       0.417000       1.00800           0   0.00000     -0.301140E-02
     51737 TIP3     8941     TIP3     OH2      OT      -0.834000       15.9994           0   0.00000       0.00000    
     51738 TIP3     8941     TIP3     H1       HT       0.417000       1.00800           0   0.00000       0.00000    
     51739 TIP3     8941     TIP3     H2       HT       0.417000       1.00800           0   0.00000     -0.301140E-02
     51740 TIP3     8942     TIP3     OH2      OT      -0.834000       15.9994           0   0.00000       0.00000    
     51741 TIP3     8942     TIP3     H1       HT       0.417000       1.00800           0   0.00000       0.00000    
     51742 TIP3     8942     TIP3     H2       HT       0.417000       1.00800           0   0.00000     -0.301140E-02
     51743 TIP3     8943     TIP3     OH2      OT      -0.834000       15.9994           0   0.00000       0.00000    
     51744 TIP3     8943     TIP3     H1       HT       0.417000       1.00800           0   0.00000       0.00000    
     51745 TIP3     8943     TIP3     H2       HT       0.417000       1.00800           0   0.00000     -0.301140E-02
     51746 TIP3     8944     TIP3     OH2      OT      -0.834000       15.9994           0   0.00000       0.00000    
     51747 TIP3     8944     TIP3     H1       HT       0.417000       1.00800           0   0.00000       0.00000    
     51748 TIP3     8944     TIP3     H2       HT       0.417000       1.00800           0   0.00000     -0.301140E-02
     51749 TIP3     8945     TIP3     OH2      OT      -0.834000       15.9994           0   0.00000       0.00000    
     51750 TIP3     8945     TIP3     H1       HT       0.417000       1.00800           0   0.00000       0.00000    
     51751 TIP3     8945     TIP3     H2       HT       0.417000       1.00800           0   0.00000     -0.301140E-02
     51752 TIP3     8946     TIP3     OH2      OT      -0.834000       15.9994           0   0.00000       0.00000    
     51753 TIP3     8946     TIP3     H1       HT       0.417000       1.00800           0   0.00000       0.00000    
     51754 TIP3     8946     TIP3     H2       HT       0.417000       1.00800           0   0.00000     -0.301140E-02
     51755 TIP3     8947     TIP3     OH2      OT      -0.834000       15.9994           0   0.00000       0.00000    
     51756 TIP3     8947     TIP3     H1       HT       0.417000       1.00800           0   0.00000       0.00000    
     51757 TIP3     8947     TIP3     H2       HT       0.417000       1.00800           0   0.00000     -0.301140E-02
     51758 TIP3     8948     TIP3     OH2      OT      -0.834000       15.9994           0   0.00000       0.00000    
     51759 TIP3     8948     TIP3     H1       HT       0.417000       1.00800           0   0.00000       0.00000    
     51760 TIP3     8948     TIP3     H2       HT       0.417000       1.00800           0   0.00000     -0.301140E-02
     51761 TIP3     8949     TIP3     OH2      OT      -0.834000       15.9994           0   0.00000       0.00000    
     51762 TIP3     8949     TIP3     H1       HT       0.417000       1.00800           0   0.00000       0.00000    
     51763 TIP3     8949     TIP3     H2       HT       0.417000       1.00800           0   0.00000     -0.301140E-02
     51764 TIP3     8950     TIP3     OH2      OT      -0.834000       15.9994           0   0.00000       0.00000    
     51765 TIP3     8950     TIP3     H1       HT       0.417000       1.00800           0   0.00000       0.00000    
     51766 TIP3     8950     TIP3     H2       HT       0.417000       1.00800           0   0.00000     -0.301140E-02
     51767 TIP3     8951     TIP3     OH2      OT      -0.834000       15.9994           0   0.00000       0.00000    
     51768 TIP3     8951     TIP3     H1       HT       0.417000       1.00800           0   0.00000       0.00000    
     51769 TIP3     8951     TIP3     H2       HT       0.417000       1.00800           0   0.00000     -0.301140E-02
     51770 TIP3     8952     TIP3     OH2      OT      -0.834000       15.9994           0   0.00000       0.00000    
     51771 TIP3     8952     TIP3     H1       HT       0.417000       1.00800           0   0.00000       0.00000    
     51772 TIP3     8952     TIP3     H2       HT       0.417000       1.00800           0   0.00000     -0.301140E-02
     51773 TIP3     8953     TIP3     OH2      OT      -0.834000       15.9994           0   0.00000       0.00000    
     51774 TIP3     8953     TIP3     H1       HT       0.417000       1.00800           0   0.00000       0.00000    
     51775 TIP3     8953     TIP3     H2       HT       0.417000       1.00800           0   0.00000     -0.301140E-02
     51776 TIP3     8954     TIP3     OH2      OT      -0.834000       15.9994           0   0.00000       0.00000    
     51777 TIP3     8954     TIP3     H1       HT       0.417000       1.00800           0   0.00000       0.00000    
     51778 TIP3     8954     TIP3     H2       HT       0.417000       1.00800           0   0.00000     -0.301140E-02
     51779 TIP3     8955     TIP3     OH2      OT      -0.834000       15.9994           0   0.00000       0.00000    
     51780 TIP3     8955     TIP3     H1       HT       0.417000       1.00800           0   0.00000       0.00000    
     51781 TIP3     8955     TIP3     H2       HT       0.417000       1.00800           0   0.00000     -0.301140E-02
     51782 TIP3     8956     TIP3     OH2      OT      -0.834000       15.9994           0   0.00000       0.00000    
     51783 TIP3     8956     TIP3     H1       HT       0.417000       1.00800           0   0.00000       0.00000    
     51784 TIP3     8956     TIP3     H2       HT       0.417000       1.00800           0   0.00000     -0.301140E-02
     51785 TIP3     8957     TIP3     OH2      OT      -0.834000       15.9994           0   0.00000       0.00000    
     51786 TIP3     8957     TIP3     H1       HT       0.417000       1.00800           0   0.00000       0.00000    
     51787 TIP3     8957     TIP3     H2       HT       0.417000       1.00800           0   0.00000     -0.301140E-02
     51788 TIP3     8958     TIP3     OH2      OT      -0.834000       15.9994           0   0.00000       0.00000    
     51789 TIP3     8958     TIP3     H1       HT       0.417000       1.00800           0   0.00000       0.00000    
     51790 TIP3     8958     TIP3     H2       HT       0.417000       1.00800           0   0.00000     -0.301140E-02
     51791 TIP3     8959     TIP3     OH2      OT      -0.834000       15.9994           0   0.00000       0.00000    
     51792 TIP3     8959     TIP3     H1       HT       0.417000       1.00800           0   0.00000       0.00000    
     51793 TIP3     8959     TIP3     H2       HT       0.417000       1.00800           0   0.00000     -0.301140E-02
     51794 TIP3     8960     TIP3     OH2      OT      -0.834000       15.9994           0   0.00000       0.00000    
     51795 TIP3     8960     TIP3     H1       HT       0.417000       1.00800           0   0.00000       0.00000    
     51796 TIP3     8960     TIP3     H2       HT       0.417000       1.00800           0   0.00000     -0.301140E-02
     51797 TIP3     8961     TIP3     OH2      OT      -0.834000       15.9994           0   0.00000       0.00000    
     51798 TIP3     8961     TIP3     H1       HT       0.417000       1.00800           0   0.00000       0.00000    
     51799 TIP3     8961     TIP3     H2       HT       0.417000       1.00800           0   0.00000     -0.301140E-02
     51800 TIP3     8962     TIP3     OH2      OT      -0.834000       15.9994           0   0.00000       0.00000    
     51801 TIP3     8962     TIP3     H1       HT       0.417000       1.00800           0   0.00000       0.00000    
     51802 TIP3     8962     TIP3     H2       HT       0.417000       1.00800           0   0.00000     -0.301140E-02
     51803 TIP3     8963     TIP3     OH2      OT      -0.834000       15.9994           0   0.00000       0.00000    
     51804 TIP3     8963     TIP3     H1       HT       0.417000       1.00800           0   0.00000       0.00000    
     51805 TIP3     8963     TIP3     H2       HT       0.417000       1.00800           0   0.00000     -0.301140E-02
     51806 TIP3     8964     TIP3     OH2      OT      -0.834000       15.9994           0   0.00000       0.00000    
     51807 TIP3     8964     TIP3     H1       HT       0.417000       1.00800           0   0.00000       0.00000    
     51808 TIP3     8964     TIP3     H2       HT       0.417000       1.00800           0   0.00000     -0.301140E-02
     51809 TIP3     8965     TIP3     OH2      OT      -0.834000       15.9994           0   0.00000       0.00000    
     51810 TIP3     8965     TIP3     H1       HT       0.417000       1.00800           0   0.00000       0.00000    
     51811 TIP3     8965     TIP3     H2       HT       0.417000       1.00800           0   0.00000     -0.301140E-02
     51812 TIP3     8966     TIP3     OH2      OT      -0.834000       15.9994           0   0.00000       0.00000    
     51813 TIP3     8966     TIP3     H1       HT       0.417000       1.00800           0   0.00000       0.00000    
     51814 TIP3     8966     TIP3     H2       HT       0.417000       1.00800           0   0.00000     -0.301140E-02
     51815 TIP3     8967     TIP3     OH2      OT      -0.834000       15.9994           0   0.00000       0.00000    
     51816 TIP3     8967     TIP3     H1       HT       0.417000       1.00800           0   0.00000       0.00000    
     51817 TIP3     8967     TIP3     H2       HT       0.417000       1.00800           0   0.00000     -0.301140E-02
     51818 TIP3     8968     TIP3     OH2      OT      -0.834000       15.9994           0   0.00000       0.00000    
     51819 TIP3     8968     TIP3     H1       HT       0.417000       1.00800           0   0.00000       0.00000    
     51820 TIP3     8968     TIP3     H2       HT       0.417000       1.00800           0   0.00000     -0.301140E-02
     51821 TIP3     8969     TIP3     OH2      OT      -0.834000       15.9994           0   0.00000       0.00000    
     51822 TIP3     8969     TIP3     H1       HT       0.417000       1.00800           0   0.00000       0.00000    
     51823 TIP3     8969     TIP3     H2       HT       0.417000       1.00800           0   0.00000     -0.301140E-02
     51824 TIP3     8970     TIP3     OH2      OT      -0.834000       15.9994           0   0.00000       0.00000    
     51825 TIP3     8970     TIP3     H1       HT       0.417000       1.00800           0   0.00000       0.00000    
     51826 TIP3     8970     TIP3     H2       HT       0.417000       1.00800           0   0.00000     -0.301140E-02
     51827 TIP3     8971     TIP3     OH2      OT      -0.834000       15.9994           0   0.00000       0.00000    
     51828 TIP3     8971     TIP3     H1       HT       0.417000       1.00800           0   0.00000       0.00000    
     51829 TIP3     8971     TIP3     H2       HT       0.417000       1.00800           0   0.00000     -0.301140E-02
     51830 TIP3     8972     TIP3     OH2      OT      -0.834000       15.9994           0   0.00000       0.00000    
     51831 TIP3     8972     TIP3     H1       HT       0.417000       1.00800           0   0.00000       0.00000    
     51832 TIP3     8972     TIP3     H2       HT       0.417000       1.00800           0   0.00000     -0.301140E-02
     51833 TIP3     8973     TIP3     OH2      OT      -0.834000       15.9994           0   0.00000       0.00000    
     51834 TIP3     8973     TIP3     H1       HT       0.417000       1.00800           0   0.00000       0.00000    
     51835 TIP3     8973     TIP3     H2       HT       0.417000       1.00800           0   0.00000     -0.301140E-02
     51836 TIP3     8974     TIP3     OH2      OT      -0.834000       15.9994           0   0.00000       0.00000    
     51837 TIP3     8974     TIP3     H1       HT       0.417000       1.00800           0   0.00000       0.00000    
     51838 TIP3     8974     TIP3     H2       HT       0.417000       1.00800           0   0.00000     -0.301140E-02
     51839 TIP3     8975     TIP3     OH2      OT      -0.834000       15.9994           0   0.00000       0.00000    
     51840 TIP3     8975     TIP3     H1       HT       0.417000       1.00800           0   0.00000       0.00000    
     51841 TIP3     8975     TIP3     H2       HT       0.417000       1.00800           0   0.00000     -0.301140E-02
     51842 TIP3     8976     TIP3     OH2      OT      -0.834000       15.9994           0   0.00000       0.00000    
     51843 TIP3     8976     TIP3     H1       HT       0.417000       1.00800           0   0.00000       0.00000    
     51844 TIP3     8976     TIP3     H2       HT       0.417000       1.00800           0   0.00000     -0.301140E-02
     51845 TIP3     8977     TIP3     OH2      OT      -0.834000       15.9994           0   0.00000       0.00000    
     51846 TIP3     8977     TIP3     H1       HT       0.417000       1.00800           0   0.00000       0.00000    
     51847 TIP3     8977     TIP3     H2       HT       0.417000       1.00800           0   0.00000     -0.301140E-02
     51848 TIP3     8978     TIP3     OH2      OT      -0.834000       15.9994           0   0.00000       0.00000    
     51849 TIP3     8978     TIP3     H1       HT       0.417000       1.00800           0   0.00000       0.00000    
     51850 TIP3     8978     TIP3     H2       HT       0.417000       1.00800           0   0.00000     -0.301140E-02
     51851 TIP3     8979     TIP3     OH2      OT      -0.834000       15.9994           0   0.00000       0.00000    
     51852 TIP3     8979     TIP3     H1       HT       0.417000       1.00800           0   0.00000       0.00000    
     51853 TIP3     8979     TIP3     H2       HT       0.417000       1.00800           0   0.00000     -0.301140E-02
     51854 TIP3     8980     TIP3     OH2      OT      -0.834000       15.9994           0   0.00000       0.00000    
     51855 TIP3     8980     TIP3     H1       HT       0.417000       1.00800           0   0.00000       0.00000    
     51856 TIP3     8980     TIP3     H2       HT       0.417000       1.00800           0   0.00000     -0.301140E-02
     51857 TIP3     8981     TIP3     OH2      OT      -0.834000       15.9994           0   0.00000       0.00000    
     51858 TIP3     8981     TIP3     H1       HT       0.417000       1.00800           0   0.00000       0.00000    
     51859 TIP3     8981     TIP3     H2       HT       0.417000       1.00800           0   0.00000     -0.301140E-02
     51860 TIP3     8982     TIP3     OH2      OT      -0.834000       15.9994           0   0.00000       0.00000    
     51861 TIP3     8982     TIP3     H1       HT       0.417000       1.00800           0   0.00000       0.00000    
     51862 TIP3     8982     TIP3     H2       HT       0.417000       1.00800           0   0.00000     -0.301140E-02
     51863 TIP3     8983     TIP3     OH2      OT      -0.834000       15.9994           0   0.00000       0.00000    
     51864 TIP3     8983     TIP3     H1       HT       0.417000       1.00800           0   0.00000       0.00000    
     51865 TIP3     8983     TIP3     H2       HT       0.417000       1.00800           0   0.00000     -0.301140E-02
     51866 TIP3     8984     TIP3     OH2      OT      -0.834000       15.9994           0   0.00000       0.00000    
     51867 TIP3     8984     TIP3     H1       HT       0.417000       1.00800           0   0.00000       0.00000    
     51868 TIP3     8984     TIP3     H2       HT       0.417000       1.00800           0   0.00000     -0.301140E-02
     51869 TIP3     8985     TIP3     OH2      OT      -0.834000       15.9994           0   0.00000       0.00000    
     51870 TIP3     8985     TIP3     H1       HT       0.417000       1.00800           0   0.00000       0.00000    
     51871 TIP3     8985     TIP3     H2       HT       0.417000       1.00800           0   0.00000     -0.301140E-02
     51872 TIP3     8986     TIP3     OH2      OT      -0.834000       15.9994           0   0.00000       0.00000    
     51873 TIP3     8986     TIP3     H1       HT       0.417000       1.00800           0   0.00000       0.00000    
     51874 TIP3     8986     TIP3     H2       HT       0.417000       1.00800           0   0.00000     -0.301140E-02
     51875 TIP3     8987     TIP3     OH2      OT      -0.834000       15.9994           0   0.00000       0.00000    
     51876 TIP3     8987     TIP3     H1       HT       0.417000       1.00800           0   0.00000       0.00000    
     51877 TIP3     8987     TIP3     H2       HT       0.417000       1.00800           0   0.00000     -0.301140E-02
     51878 TIP3     8988     TIP3     OH2      OT      -0.834000       15.9994           0   0.00000       0.00000    
     51879 TIP3     8988     TIP3     H1       HT       0.417000       1.00800           0   0.00000       0.00000    
     51880 TIP3     8988     TIP3     H2       HT       0.417000       1.00800           0   0.00000     -0.301140E-02
     51881 TIP3     8989     TIP3     OH2      OT      -0.834000       15.9994           0   0.00000       0.00000    
     51882 TIP3     8989     TIP3     H1       HT       0.417000       1.00800           0   0.00000       0.00000    
     51883 TIP3     8989     TIP3     H2       HT       0.417000       1.00800           0   0.00000     -0.301140E-02
     51884 TIP3     8990     TIP3     OH2      OT      -0.834000       15.9994           0   0.00000       0.00000    
     51885 TIP3     8990     TIP3     H1       HT       0.417000       1.00800           0   0.00000       0.00000    
     51886 TIP3     8990     TIP3     H2       HT       0.417000       1.00800           0   0.00000     -0.301140E-02
     51887 TIP3     8991     TIP3     OH2      OT      -0.834000       15.9994           0   0.00000       0.00000    
     51888 TIP3     8991     TIP3     H1       HT       0.417000       1.00800           0   0.00000       0.00000    
     51889 TIP3     8991     TIP3     H2       HT       0.417000       1.00800           0   0.00000     -0.301140E-02
     51890 TIP3     8992     TIP3     OH2      OT      -0.834000       15.9994           0   0.00000       0.00000    
     51891 TIP3     8992     TIP3     H1       HT       0.417000       1.00800           0   0.00000       0.00000    
     51892 TIP3     8992     TIP3     H2       HT       0.417000       1.00800           0   0.00000     -0.301140E-02
     51893 TIP3     8993     TIP3     OH2      OT      -0.834000       15.9994           0   0.00000       0.00000    
     51894 TIP3     8993     TIP3     H1       HT       0.417000       1.00800           0   0.00000       0.00000    
     51895 TIP3     8993     TIP3     H2       HT       0.417000       1.00800           0   0.00000     -0.301140E-02
     51896 TIP3     8994     TIP3     OH2      OT      -0.834000       15.9994           0   0.00000       0.00000    
     51897 TIP3     8994     TIP3     H1       HT       0.417000       1.00800           0   0.00000       0.00000    
     51898 TIP3     8994     TIP3     H2       HT       0.417000       1.00800           0   0.00000     -0.301140E-02
     51899 TIP3     8995     TIP3     OH2      OT      -0.834000       15.9994           0   0.00000       0.00000    
     51900 TIP3     8995     TIP3     H1       HT       0.417000       1.00800           0   0.00000       0.00000    
     51901 TIP3     8995     TIP3     H2       HT       0.417000       1.00800           0   0.00000     -0.301140E-02
     51902 TIP3     8996     TIP3     OH2      OT      -0.834000       15.9994           0   0.00000       0.00000    
     51903 TIP3     8996     TIP3     H1       HT       0.417000       1.00800           0   0.00000       0.00000    
     51904 TIP3     8996     TIP3     H2       HT       0.417000       1.00800           0   0.00000     -0.301140E-02
     51905 TIP3     8997     TIP3     OH2      OT      -0.834000       15.9994           0   0.00000       0.00000    
     51906 TIP3     8997     TIP3     H1       HT       0.417000       1.00800           0   0.00000       0.00000    
     51907 TIP3     8997     TIP3     H2       HT       0.417000       1.00800           0   0.00000     -0.301140E-02
     51908 TIP3     8998     TIP3     OH2      OT      -0.834000       15.9994           0   0.00000       0.00000    
     51909 TIP3     8998     TIP3     H1       HT       0.417000       1.00800           0   0.00000       0.00000    
     51910 TIP3     8998     TIP3     H2       HT       0.417000       1.00800           0   0.00000     -0.301140E-02
     51911 TIP3     8999     TIP3     OH2      OT      -0.834000       15.9994           0   0.00000       0.00000    
     51912 TIP3     8999     TIP3     H1       HT       0.417000       1.00800           0   0.00000       0.00000    
     51913 TIP3     8999     TIP3     H2       HT       0.417000       1.00800           0   0.00000     -0.301140E-02
     51914 TIP3     9000     TIP3     OH2      OT      -0.834000       15.9994           0   0.00000       0.00000    
     51915 TIP3     9000     TIP3     H1       HT       0.417000       1.00800           0   0.00000       0.00000    
     51916 TIP3     9000     TIP3     H2       HT       0.417000       1.00800           0   0.00000     -0.301140E-02
     51917 TIP3     9001     TIP3     OH2      OT      -0.834000       15.9994           0   0.00000       0.00000    
     51918 TIP3     9001     TIP3     H1       HT       0.417000       1.00800           0   0.00000       0.00000    
     51919 TIP3     9001     TIP3     H2       HT       0.417000       1.00800           0   0.00000     -0.301140E-02
     51920 TIP3     9002     TIP3     OH2      OT      -0.834000       15.9994           0   0.00000       0.00000    
     51921 TIP3     9002     TIP3     H1       HT       0.417000       1.00800           0   0.00000       0.00000    
     51922 TIP3     9002     TIP3     H2       HT       0.417000       1.00800           0   0.00000     -0.301140E-02
     51923 TIP3     9003     TIP3     OH2      OT      -0.834000       15.9994           0   0.00000       0.00000    
     51924 TIP3     9003     TIP3     H1       HT       0.417000       1.00800           0   0.00000       0.00000    
     51925 TIP3     9003     TIP3     H2       HT       0.417000       1.00800           0   0.00000     -0.301140E-02
     51926 TIP3     9004     TIP3     OH2      OT      -0.834000       15.9994           0   0.00000       0.00000    
     51927 TIP3     9004     TIP3     H1       HT       0.417000       1.00800           0   0.00000       0.00000    
     51928 TIP3     9004     TIP3     H2       HT       0.417000       1.00800           0   0.00000     -0.301140E-02
     51929 TIP3     9005     TIP3     OH2      OT      -0.834000       15.9994           0   0.00000       0.00000    
     51930 TIP3     9005     TIP3     H1       HT       0.417000       1.00800           0   0.00000       0.00000    
     51931 TIP3     9005     TIP3     H2       HT       0.417000       1.00800           0   0.00000     -0.301140E-02
     51932 TIP3     9006     TIP3     OH2      OT      -0.834000       15.9994           0   0.00000       0.00000    
     51933 TIP3     9006     TIP3     H1       HT       0.417000       1.00800           0   0.00000       0.00000    
     51934 TIP3     9006     TIP3     H2       HT       0.417000       1.00800           0   0.00000     -0.301140E-02
     51935 TIP3     9007     TIP3     OH2      OT      -0.834000       15.9994           0   0.00000       0.00000    
     51936 TIP3     9007     TIP3     H1       HT       0.417000       1.00800           0   0.00000       0.00000    
     51937 TIP3     9007     TIP3     H2       HT       0.417000       1.00800           0   0.00000     -0.301140E-02
     51938 TIP3     9008     TIP3     OH2      OT      -0.834000       15.9994           0   0.00000       0.00000    
     51939 TIP3     9008     TIP3     H1       HT       0.417000       1.00800           0   0.00000       0.00000    
     51940 TIP3     9008     TIP3     H2       HT       0.417000       1.00800           0   0.00000     -0.301140E-02
     51941 TIP3     9009     TIP3     OH2      OT      -0.834000       15.9994           0   0.00000       0.00000    
     51942 TIP3     9009     TIP3     H1       HT       0.417000       1.00800           0   0.00000       0.00000    
     51943 TIP3     9009     TIP3     H2       HT       0.417000       1.00800           0   0.00000     -0.301140E-02
     51944 TIP3     9010     TIP3     OH2      OT      -0.834000       15.9994           0   0.00000       0.00000    
     51945 TIP3     9010     TIP3     H1       HT       0.417000       1.00800           0   0.00000       0.00000    
     51946 TIP3     9010     TIP3     H2       HT       0.417000       1.00800           0   0.00000     -0.301140E-02
     51947 TIP3     9011     TIP3     OH2      OT      -0.834000       15.9994           0   0.00000       0.00000    
     51948 TIP3     9011     TIP3     H1       HT       0.417000       1.00800           0   0.00000       0.00000    
     51949 TIP3     9011     TIP3     H2       HT       0.417000       1.00800           0   0.00000     -0.301140E-02
     51950 TIP3     9012     TIP3     OH2      OT      -0.834000       15.9994           0   0.00000       0.00000    
     51951 TIP3     9012     TIP3     H1       HT       0.417000       1.00800           0   0.00000       0.00000    
     51952 TIP3     9012     TIP3     H2       HT       0.417000       1.00800           0   0.00000     -0.301140E-02
     51953 TIP3     9013     TIP3     OH2      OT      -0.834000       15.9994           0   0.00000       0.00000    
     51954 TIP3     9013     TIP3     H1       HT       0.417000       1.00800           0   0.00000       0.00000    
     51955 TIP3     9013     TIP3     H2       HT       0.417000       1.00800           0   0.00000     -0.301140E-02
     51956 TIP3     9014     TIP3     OH2      OT      -0.834000       15.9994           0   0.00000       0.00000    
     51957 TIP3     9014     TIP3     H1       HT       0.417000       1.00800           0   0.00000       0.00000    
     51958 TIP3     9014     TIP3     H2       HT       0.417000       1.00800           0   0.00000     -0.301140E-02
     51959 TIP3     9015     TIP3     OH2      OT      -0.834000       15.9994           0   0.00000       0.00000    
     51960 TIP3     9015     TIP3     H1       HT       0.417000       1.00800           0   0.00000       0.00000    
     51961 TIP3     9015     TIP3     H2       HT       0.417000       1.00800           0   0.00000     -0.301140E-02
     51962 TIP3     9016     TIP3     OH2      OT      -0.834000       15.9994           0   0.00000       0.00000    
     51963 TIP3     9016     TIP3     H1       HT       0.417000       1.00800           0   0.00000       0.00000    
     51964 TIP3     9016     TIP3     H2       HT       0.417000       1.00800           0   0.00000     -0.301140E-02
     51965 TIP3     9017     TIP3     OH2      OT      -0.834000       15.9994           0   0.00000       0.00000    
     51966 TIP3     9017     TIP3     H1       HT       0.417000       1.00800           0   0.00000       0.00000    
     51967 TIP3     9017     TIP3     H2       HT       0.417000       1.00800           0   0.00000     -0.301140E-02
     51968 TIP3     9018     TIP3     OH2      OT      -0.834000       15.9994           0   0.00000       0.00000    
     51969 TIP3     9018     TIP3     H1       HT       0.417000       1.00800           0   0.00000       0.00000    
     51970 TIP3     9018     TIP3     H2       HT       0.417000       1.00800           0   0.00000     -0.301140E-02
     51971 TIP3     9019     TIP3     OH2      OT      -0.834000       15.9994           0   0.00000       0.00000    
     51972 TIP3     9019     TIP3     H1       HT       0.417000       1.00800           0   0.00000       0.00000    
     51973 TIP3     9019     TIP3     H2       HT       0.417000       1.00800           0   0.00000     -0.301140E-02
     51974 TIP3     9020     TIP3     OH2      OT      -0.834000       15.9994           0   0.00000       0.00000    
     51975 TIP3     9020     TIP3     H1       HT       0.417000       1.00800           0   0.00000       0.00000    
     51976 TIP3     9020     TIP3     H2       HT       0.417000       1.00800           0   0.00000     -0.301140E-02
     51977 TIP3     9021     TIP3     OH2      OT      -0.834000       15.9994           0   0.00000       0.00000    
     51978 TIP3     9021     TIP3     H1       HT       0.417000       1.00800           0   0.00000       0.00000    
     51979 TIP3     9021     TIP3     H2       HT       0.417000       1.00800           0   0.00000     -0.301140E-02
     51980 TIP3     9022     TIP3     OH2      OT      -0.834000       15.9994           0   0.00000       0.00000    
     51981 TIP3     9022     TIP3     H1       HT       0.417000       1.00800           0   0.00000       0.00000    
     51982 TIP3     9022     TIP3     H2       HT       0.417000       1.00800           0   0.00000     -0.301140E-02
     51983 TIP3     9023     TIP3     OH2      OT      -0.834000       15.9994           0   0.00000       0.00000    
     51984 TIP3     9023     TIP3     H1       HT       0.417000       1.00800           0   0.00000       0.00000    
     51985 TIP3     9023     TIP3     H2       HT       0.417000       1.00800           0   0.00000     -0.301140E-02
     51986 TIP3     9024     TIP3     OH2      OT      -0.834000       15.9994           0   0.00000       0.00000    
     51987 TIP3     9024     TIP3     H1       HT       0.417000       1.00800           0   0.00000       0.00000    
     51988 TIP3     9024     TIP3     H2       HT       0.417000       1.00800           0   0.00000     -0.301140E-02
     51989 TIP3     9025     TIP3     OH2      OT      -0.834000       15.9994           0   0.00000       0.00000    
     51990 TIP3     9025     TIP3     H1       HT       0.417000       1.00800           0   0.00000       0.00000    
     51991 TIP3     9025     TIP3     H2       HT       0.417000       1.00800           0   0.00000     -0.301140E-02
     51992 TIP3     9026     TIP3     OH2      OT      -0.834000       15.9994           0   0.00000       0.00000    
     51993 TIP3     9026     TIP3     H1       HT       0.417000       1.00800           0   0.00000       0.00000    
     51994 TIP3     9026     TIP3     H2       HT       0.417000       1.00800           0   0.00000     -0.301140E-02
     51995 TIP3     9027     TIP3     OH2      OT      -0.834000       15.9994           0   0.00000       0.00000    
     51996 TIP3     9027     TIP3     H1       HT       0.417000       1.00800           0   0.00000       0.00000    
     51997 TIP3     9027     TIP3     H2       HT       0.417000       1.00800           0   0.00000     -0.301140E-02
     51998 TIP3     9028     TIP3     OH2      OT      -0.834000       15.9994           0   0.00000       0.00000    
     51999 TIP3     9028     TIP3     H1       HT       0.417000       1.00800           0   0.00000       0.00000    
     52000 TIP3     9028     TIP3     H2       HT       0.417000       1.00800           0   0.00000     -0.301140E-02
     52001 TIP3     9029     TIP3     OH2      OT      -0.834000       15.9994           0   0.00000       0.00000    
     52002 TIP3     9029     TIP3     H1       HT       0.417000       1.00800           0   0.00000       0.00000    
     52003 TIP3     9029     TIP3     H2       HT       0.417000       1.00800           0   0.00000     -0.301140E-02
     52004 TIP3     9030     TIP3     OH2      OT      -0.834000       15.9994           0   0.00000       0.00000    
     52005 TIP3     9030     TIP3     H1       HT       0.417000       1.00800           0   0.00000       0.00000    
     52006 TIP3     9030     TIP3     H2       HT       0.417000       1.00800           0   0.00000     -0.301140E-02
     52007 TIP3     9031     TIP3     OH2      OT      -0.834000       15.9994           0   0.00000       0.00000    
     52008 TIP3     9031     TIP3     H1       HT       0.417000       1.00800           0   0.00000       0.00000    
     52009 TIP3     9031     TIP3     H2       HT       0.417000       1.00800           0   0.00000     -0.301140E-02
     52010 TIP3     9032     TIP3     OH2      OT      -0.834000       15.9994           0   0.00000       0.00000    
     52011 TIP3     9032     TIP3     H1       HT       0.417000       1.00800           0   0.00000       0.00000    
     52012 TIP3     9032     TIP3     H2       HT       0.417000       1.00800           0   0.00000     -0.301140E-02
     52013 TIP3     9033     TIP3     OH2      OT      -0.834000       15.9994           0   0.00000       0.00000    
     52014 TIP3     9033     TIP3     H1       HT       0.417000       1.00800           0   0.00000       0.00000    
     52015 TIP3     9033     TIP3     H2       HT       0.417000       1.00800           0   0.00000     -0.301140E-02
     52016 TIP3     9034     TIP3     OH2      OT      -0.834000       15.9994           0   0.00000       0.00000    
     52017 TIP3     9034     TIP3     H1       HT       0.417000       1.00800           0   0.00000       0.00000    
     52018 TIP3     9034     TIP3     H2       HT       0.417000       1.00800           0   0.00000     -0.301140E-02
     52019 TIP3     9035     TIP3     OH2      OT      -0.834000       15.9994           0   0.00000       0.00000    
     52020 TIP3     9035     TIP3     H1       HT       0.417000       1.00800           0   0.00000       0.00000    
     52021 TIP3     9035     TIP3     H2       HT       0.417000       1.00800           0   0.00000     -0.301140E-02
     52022 TIP3     9036     TIP3     OH2      OT      -0.834000       15.9994           0   0.00000       0.00000    
     52023 TIP3     9036     TIP3     H1       HT       0.417000       1.00800           0   0.00000       0.00000    
     52024 TIP3     9036     TIP3     H2       HT       0.417000       1.00800           0   0.00000     -0.301140E-02
     52025 TIP3     9037     TIP3     OH2      OT      -0.834000       15.9994           0   0.00000       0.00000    
     52026 TIP3     9037     TIP3     H1       HT       0.417000       1.00800           0   0.00000       0.00000    
     52027 TIP3     9037     TIP3     H2       HT       0.417000       1.00800           0   0.00000     -0.301140E-02
     52028 TIP3     9038     TIP3     OH2      OT      -0.834000       15.9994           0   0.00000       0.00000    
     52029 TIP3     9038     TIP3     H1       HT       0.417000       1.00800           0   0.00000       0.00000    
     52030 TIP3     9038     TIP3     H2       HT       0.417000       1.00800           0   0.00000     -0.301140E-02
     52031 TIP3     9039     TIP3     OH2      OT      -0.834000       15.9994           0   0.00000       0.00000    
     52032 TIP3     9039     TIP3     H1       HT       0.417000       1.00800           0   0.00000       0.00000    
     52033 TIP3     9039     TIP3     H2       HT       0.417000       1.00800           0   0.00000     -0.301140E-02
     52034 TIP3     9040     TIP3     OH2      OT      -0.834000       15.9994           0   0.00000       0.00000    
     52035 TIP3     9040     TIP3     H1       HT       0.417000       1.00800           0   0.00000       0.00000    
     52036 TIP3     9040     TIP3     H2       HT       0.417000       1.00800           0   0.00000     -0.301140E-02
     52037 TIP3     9041     TIP3     OH2      OT      -0.834000       15.9994           0   0.00000       0.00000    
     52038 TIP3     9041     TIP3     H1       HT       0.417000       1.00800           0   0.00000       0.00000    
     52039 TIP3     9041     TIP3     H2       HT       0.417000       1.00800           0   0.00000     -0.301140E-02
     52040 TIP3     9042     TIP3     OH2      OT      -0.834000       15.9994           0   0.00000       0.00000    
     52041 TIP3     9042     TIP3     H1       HT       0.417000       1.00800           0   0.00000       0.00000    
     52042 TIP3     9042     TIP3     H2       HT       0.417000       1.00800           0   0.00000     -0.301140E-02
     52043 TIP3     9043     TIP3     OH2      OT      -0.834000       15.9994           0   0.00000       0.00000    
     52044 TIP3     9043     TIP3     H1       HT       0.417000       1.00800           0   0.00000       0.00000    
     52045 TIP3     9043     TIP3     H2       HT       0.417000       1.00800           0   0.00000     -0.301140E-02
     52046 TIP3     9044     TIP3     OH2      OT      -0.834000       15.9994           0   0.00000       0.00000    
     52047 TIP3     9044     TIP3     H1       HT       0.417000       1.00800           0   0.00000       0.00000    
     52048 TIP3     9044     TIP3     H2       HT       0.417000       1.00800           0   0.00000     -0.301140E-02
     52049 TIP3     9045     TIP3     OH2      OT      -0.834000       15.9994           0   0.00000       0.00000    
     52050 TIP3     9045     TIP3     H1       HT       0.417000       1.00800           0   0.00000       0.00000    
     52051 TIP3     9045     TIP3     H2       HT       0.417000       1.00800           0   0.00000     -0.301140E-02
     52052 TIP3     9046     TIP3     OH2      OT      -0.834000       15.9994           0   0.00000       0.00000    
     52053 TIP3     9046     TIP3     H1       HT       0.417000       1.00800           0   0.00000       0.00000    
     52054 TIP3     9046     TIP3     H2       HT       0.417000       1.00800           0   0.00000     -0.301140E-02
     52055 TIP3     9047     TIP3     OH2      OT      -0.834000       15.9994           0   0.00000       0.00000    
     52056 TIP3     9047     TIP3     H1       HT       0.417000       1.00800           0   0.00000       0.00000    
     52057 TIP3     9047     TIP3     H2       HT       0.417000       1.00800           0   0.00000     -0.301140E-02
     52058 TIP3     9048     TIP3     OH2      OT      -0.834000       15.9994           0   0.00000       0.00000    
     52059 TIP3     9048     TIP3     H1       HT       0.417000       1.00800           0   0.00000       0.00000    
     52060 TIP3     9048     TIP3     H2       HT       0.417000       1.00800           0   0.00000     -0.301140E-02
     52061 TIP3     9049     TIP3     OH2      OT      -0.834000       15.9994           0   0.00000       0.00000    
     52062 TIP3     9049     TIP3     H1       HT       0.417000       1.00800           0   0.00000       0.00000    
     52063 TIP3     9049     TIP3     H2       HT       0.417000       1.00800           0   0.00000     -0.301140E-02
     52064 TIP3     9050     TIP3     OH2      OT      -0.834000       15.9994           0   0.00000       0.00000    
     52065 TIP3     9050     TIP3     H1       HT       0.417000       1.00800           0   0.00000       0.00000    
     52066 TIP3     9050     TIP3     H2       HT       0.417000       1.00800           0   0.00000     -0.301140E-02
     52067 TIP3     9051     TIP3     OH2      OT      -0.834000       15.9994           0   0.00000       0.00000    
     52068 TIP3     9051     TIP3     H1       HT       0.417000       1.00800           0   0.00000       0.00000    
     52069 TIP3     9051     TIP3     H2       HT       0.417000       1.00800           0   0.00000     -0.301140E-02
     52070 TIP3     9052     TIP3     OH2      OT      -0.834000       15.9994           0   0.00000       0.00000    
     52071 TIP3     9052     TIP3     H1       HT       0.417000       1.00800           0   0.00000       0.00000    
     52072 TIP3     9052     TIP3     H2       HT       0.417000       1.00800           0   0.00000     -0.301140E-02
     52073 TIP3     9053     TIP3     OH2      OT      -0.834000       15.9994           0   0.00000       0.00000    
     52074 TIP3     9053     TIP3     H1       HT       0.417000       1.00800           0   0.00000       0.00000    
     52075 TIP3     9053     TIP3     H2       HT       0.417000       1.00800           0   0.00000     -0.301140E-02
     52076 TIP3     9054     TIP3     OH2      OT      -0.834000       15.9994           0   0.00000       0.00000    
     52077 TIP3     9054     TIP3     H1       HT       0.417000       1.00800           0   0.00000       0.00000    
     52078 TIP3     9054     TIP3     H2       HT       0.417000       1.00800           0   0.00000     -0.301140E-02
     52079 TIP3     9055     TIP3     OH2      OT      -0.834000       15.9994           0   0.00000       0.00000    
     52080 TIP3     9055     TIP3     H1       HT       0.417000       1.00800           0   0.00000       0.00000    
     52081 TIP3     9055     TIP3     H2       HT       0.417000       1.00800           0   0.00000     -0.301140E-02
     52082 TIP3     9056     TIP3     OH2      OT      -0.834000       15.9994           0   0.00000       0.00000    
     52083 TIP3     9056     TIP3     H1       HT       0.417000       1.00800           0   0.00000       0.00000    
     52084 TIP3     9056     TIP3     H2       HT       0.417000       1.00800           0   0.00000     -0.301140E-02
     52085 TIP3     9057     TIP3     OH2      OT      -0.834000       15.9994           0   0.00000       0.00000    
     52086 TIP3     9057     TIP3     H1       HT       0.417000       1.00800           0   0.00000       0.00000    
     52087 TIP3     9057     TIP3     H2       HT       0.417000       1.00800           0   0.00000     -0.301140E-02
     52088 TIP3     9058     TIP3     OH2      OT      -0.834000       15.9994           0   0.00000       0.00000    
     52089 TIP3     9058     TIP3     H1       HT       0.417000       1.00800           0   0.00000       0.00000    
     52090 TIP3     9058     TIP3     H2       HT       0.417000       1.00800           0   0.00000     -0.301140E-02
     52091 TIP3     9059     TIP3     OH2      OT      -0.834000       15.9994           0   0.00000       0.00000    
     52092 TIP3     9059     TIP3     H1       HT       0.417000       1.00800           0   0.00000       0.00000    
     52093 TIP3     9059     TIP3     H2       HT       0.417000       1.00800           0   0.00000     -0.301140E-02
     52094 TIP3     9060     TIP3     OH2      OT      -0.834000       15.9994           0   0.00000       0.00000    
     52095 TIP3     9060     TIP3     H1       HT       0.417000       1.00800           0   0.00000       0.00000    
     52096 TIP3     9060     TIP3     H2       HT       0.417000       1.00800           0   0.00000     -0.301140E-02
     52097 TIP3     9061     TIP3     OH2      OT      -0.834000       15.9994           0   0.00000       0.00000    
     52098 TIP3     9061     TIP3     H1       HT       0.417000       1.00800           0   0.00000       0.00000    
     52099 TIP3     9061     TIP3     H2       HT       0.417000       1.00800           0   0.00000     -0.301140E-02
     52100 TIP3     9062     TIP3     OH2      OT      -0.834000       15.9994           0   0.00000       0.00000    
     52101 TIP3     9062     TIP3     H1       HT       0.417000       1.00800           0   0.00000       0.00000    
     52102 TIP3     9062     TIP3     H2       HT       0.417000       1.00800           0   0.00000     -0.301140E-02
     52103 TIP3     9063     TIP3     OH2      OT      -0.834000       15.9994           0   0.00000       0.00000    
     52104 TIP3     9063     TIP3     H1       HT       0.417000       1.00800           0   0.00000       0.00000    
     52105 TIP3     9063     TIP3     H2       HT       0.417000       1.00800           0   0.00000     -0.301140E-02
     52106 TIP3     9064     TIP3     OH2      OT      -0.834000       15.9994           0   0.00000       0.00000    
     52107 TIP3     9064     TIP3     H1       HT       0.417000       1.00800           0   0.00000       0.00000    
     52108 TIP3     9064     TIP3     H2       HT       0.417000       1.00800           0   0.00000     -0.301140E-02
     52109 TIP3     9065     TIP3     OH2      OT      -0.834000       15.9994           0   0.00000       0.00000    
     52110 TIP3     9065     TIP3     H1       HT       0.417000       1.00800           0   0.00000       0.00000    
     52111 TIP3     9065     TIP3     H2       HT       0.417000       1.00800           0   0.00000     -0.301140E-02
     52112 TIP3     9066     TIP3     OH2      OT      -0.834000       15.9994           0   0.00000       0.00000    
     52113 TIP3     9066     TIP3     H1       HT       0.417000       1.00800           0   0.00000       0.00000    
     52114 TIP3     9066     TIP3     H2       HT       0.417000       1.00800           0   0.00000     -0.301140E-02
     52115 TIP3     9067     TIP3     OH2      OT      -0.834000       15.9994           0   0.00000       0.00000    
     52116 TIP3     9067     TIP3     H1       HT       0.417000       1.00800           0   0.00000       0.00000    
     52117 TIP3     9067     TIP3     H2       HT       0.417000       1.00800           0   0.00000     -0.301140E-02
     52118 TIP3     9068     TIP3     OH2      OT      -0.834000       15.9994           0   0.00000       0.00000    
     52119 TIP3     9068     TIP3     H1       HT       0.417000       1.00800           0   0.00000       0.00000    
     52120 TIP3     9068     TIP3     H2       HT       0.417000       1.00800           0   0.00000     -0.301140E-02
     52121 TIP3     9069     TIP3     OH2      OT      -0.834000       15.9994           0   0.00000       0.00000    
     52122 TIP3     9069     TIP3     H1       HT       0.417000       1.00800           0   0.00000       0.00000    
     52123 TIP3     9069     TIP3     H2       HT       0.417000       1.00800           0   0.00000     -0.301140E-02
     52124 TIP3     9070     TIP3     OH2      OT      -0.834000       15.9994           0   0.00000       0.00000    
     52125 TIP3     9070     TIP3     H1       HT       0.417000       1.00800           0   0.00000       0.00000    
     52126 TIP3     9070     TIP3     H2       HT       0.417000       1.00800           0   0.00000     -0.301140E-02
     52127 TIP3     9071     TIP3     OH2      OT      -0.834000       15.9994           0   0.00000       0.00000    
     52128 TIP3     9071     TIP3     H1       HT       0.417000       1.00800           0   0.00000       0.00000    
     52129 TIP3     9071     TIP3     H2       HT       0.417000       1.00800           0   0.00000     -0.301140E-02
     52130 TIP3     9072     TIP3     OH2      OT      -0.834000       15.9994           0   0.00000       0.00000    
     52131 TIP3     9072     TIP3     H1       HT       0.417000       1.00800           0   0.00000       0.00000    
     52132 TIP3     9072     TIP3     H2       HT       0.417000       1.00800           0   0.00000     -0.301140E-02
     52133 TIP3     9073     TIP3     OH2      OT      -0.834000       15.9994           0   0.00000       0.00000    
     52134 TIP3     9073     TIP3     H1       HT       0.417000       1.00800           0   0.00000       0.00000    
     52135 TIP3     9073     TIP3     H2       HT       0.417000       1.00800           0   0.00000     -0.301140E-02
     52136 TIP3     9074     TIP3     OH2      OT      -0.834000       15.9994           0   0.00000       0.00000    
     52137 TIP3     9074     TIP3     H1       HT       0.417000       1.00800           0   0.00000       0.00000    
     52138 TIP3     9074     TIP3     H2       HT       0.417000       1.00800           0   0.00000     -0.301140E-02
     52139 TIP3     9075     TIP3     OH2      OT      -0.834000       15.9994           0   0.00000       0.00000    
     52140 TIP3     9075     TIP3     H1       HT       0.417000       1.00800           0   0.00000       0.00000    
     52141 TIP3     9075     TIP3     H2       HT       0.417000       1.00800           0   0.00000     -0.301140E-02
     52142 TIP3     9076     TIP3     OH2      OT      -0.834000       15.9994           0   0.00000       0.00000    
     52143 TIP3     9076     TIP3     H1       HT       0.417000       1.00800           0   0.00000       0.00000    
     52144 TIP3     9076     TIP3     H2       HT       0.417000       1.00800           0   0.00000     -0.301140E-02
     52145 TIP3     9077     TIP3     OH2      OT      -0.834000       15.9994           0   0.00000       0.00000    
     52146 TIP3     9077     TIP3     H1       HT       0.417000       1.00800           0   0.00000       0.00000    
     52147 TIP3     9077     TIP3     H2       HT       0.417000       1.00800           0   0.00000     -0.301140E-02
     52148 TIP3     9078     TIP3     OH2      OT      -0.834000       15.9994           0   0.00000       0.00000    
     52149 TIP3     9078     TIP3     H1       HT       0.417000       1.00800           0   0.00000       0.00000    
     52150 TIP3     9078     TIP3     H2       HT       0.417000       1.00800           0   0.00000     -0.301140E-02
     52151 TIP3     9079     TIP3     OH2      OT      -0.834000       15.9994           0   0.00000       0.00000    
     52152 TIP3     9079     TIP3     H1       HT       0.417000       1.00800           0   0.00000       0.00000    
     52153 TIP3     9079     TIP3     H2       HT       0.417000       1.00800           0   0.00000     -0.301140E-02
     52154 TIP3     9080     TIP3     OH2      OT      -0.834000       15.9994           0   0.00000       0.00000    
     52155 TIP3     9080     TIP3     H1       HT       0.417000       1.00800           0   0.00000       0.00000    
     52156 TIP3     9080     TIP3     H2       HT       0.417000       1.00800           0   0.00000     -0.301140E-02
     52157 TIP3     9081     TIP3     OH2      OT      -0.834000       15.9994           0   0.00000       0.00000    
     52158 TIP3     9081     TIP3     H1       HT       0.417000       1.00800           0   0.00000       0.00000    
     52159 TIP3     9081     TIP3     H2       HT       0.417000       1.00800           0   0.00000     -0.301140E-02
     52160 TIP3     9082     TIP3     OH2      OT      -0.834000       15.9994           0   0.00000       0.00000    
     52161 TIP3     9082     TIP3     H1       HT       0.417000       1.00800           0   0.00000       0.00000    
     52162 TIP3     9082     TIP3     H2       HT       0.417000       1.00800           0   0.00000     -0.301140E-02
     52163 TIP3     9083     TIP3     OH2      OT      -0.834000       15.9994           0   0.00000       0.00000    
     52164 TIP3     9083     TIP3     H1       HT       0.417000       1.00800           0   0.00000       0.00000    
     52165 TIP3     9083     TIP3     H2       HT       0.417000       1.00800           0   0.00000     -0.301140E-02
     52166 TIP3     9084     TIP3     OH2      OT      -0.834000       15.9994           0   0.00000       0.00000    
     52167 TIP3     9084     TIP3     H1       HT       0.417000       1.00800           0   0.00000       0.00000    
     52168 TIP3     9084     TIP3     H2       HT       0.417000       1.00800           0   0.00000     -0.301140E-02
     52169 TIP3     9085     TIP3     OH2      OT      -0.834000       15.9994           0   0.00000       0.00000    
     52170 TIP3     9085     TIP3     H1       HT       0.417000       1.00800           0   0.00000       0.00000    
     52171 TIP3     9085     TIP3     H2       HT       0.417000       1.00800           0   0.00000     -0.301140E-02
     52172 TIP3     9086     TIP3     OH2      OT      -0.834000       15.9994           0   0.00000       0.00000    
     52173 TIP3     9086     TIP3     H1       HT       0.417000       1.00800           0   0.00000       0.00000    
     52174 TIP3     9086     TIP3     H2       HT       0.417000       1.00800           0   0.00000     -0.301140E-02
     52175 TIP3     9087     TIP3     OH2      OT      -0.834000       15.9994           0   0.00000       0.00000    
     52176 TIP3     9087     TIP3     H1       HT       0.417000       1.00800           0   0.00000       0.00000    
     52177 TIP3     9087     TIP3     H2       HT       0.417000       1.00800           0   0.00000     -0.301140E-02
     52178 TIP3     9088     TIP3     OH2      OT      -0.834000       15.9994           0   0.00000       0.00000    
     52179 TIP3     9088     TIP3     H1       HT       0.417000       1.00800           0   0.00000       0.00000    
     52180 TIP3     9088     TIP3     H2       HT       0.417000       1.00800           0   0.00000     -0.301140E-02
     52181 TIP3     9089     TIP3     OH2      OT      -0.834000       15.9994           0   0.00000       0.00000    
     52182 TIP3     9089     TIP3     H1       HT       0.417000       1.00800           0   0.00000       0.00000    
     52183 TIP3     9089     TIP3     H2       HT       0.417000       1.00800           0   0.00000     -0.301140E-02
     52184 TIP3     9090     TIP3     OH2      OT      -0.834000       15.9994           0   0.00000       0.00000    
     52185 TIP3     9090     TIP3     H1       HT       0.417000       1.00800           0   0.00000       0.00000    
     52186 TIP3     9090     TIP3     H2       HT       0.417000       1.00800           0   0.00000     -0.301140E-02
     52187 TIP3     9091     TIP3     OH2      OT      -0.834000       15.9994           0   0.00000       0.00000    
     52188 TIP3     9091     TIP3     H1       HT       0.417000       1.00800           0   0.00000       0.00000    
     52189 TIP3     9091     TIP3     H2       HT       0.417000       1.00800           0   0.00000     -0.301140E-02
     52190 TIP3     9092     TIP3     OH2      OT      -0.834000       15.9994           0   0.00000       0.00000    
     52191 TIP3     9092     TIP3     H1       HT       0.417000       1.00800           0   0.00000       0.00000    
     52192 TIP3     9092     TIP3     H2       HT       0.417000       1.00800           0   0.00000     -0.301140E-02
     52193 TIP3     9093     TIP3     OH2      OT      -0.834000       15.9994           0   0.00000       0.00000    
     52194 TIP3     9093     TIP3     H1       HT       0.417000       1.00800           0   0.00000       0.00000    
     52195 TIP3     9093     TIP3     H2       HT       0.417000       1.00800           0   0.00000     -0.301140E-02
     52196 TIP3     9094     TIP3     OH2      OT      -0.834000       15.9994           0   0.00000       0.00000    
     52197 TIP3     9094     TIP3     H1       HT       0.417000       1.00800           0   0.00000       0.00000    
     52198 TIP3     9094     TIP3     H2       HT       0.417000       1.00800           0   0.00000     -0.301140E-02
     52199 TIP3     9095     TIP3     OH2      OT      -0.834000       15.9994           0   0.00000       0.00000    
     52200 TIP3     9095     TIP3     H1       HT       0.417000       1.00800           0   0.00000       0.00000    
     52201 TIP3     9095     TIP3     H2       HT       0.417000       1.00800           0   0.00000     -0.301140E-02
     52202 TIP3     9096     TIP3     OH2      OT      -0.834000       15.9994           0   0.00000       0.00000    
     52203 TIP3     9096     TIP3     H1       HT       0.417000       1.00800           0   0.00000       0.00000    
     52204 TIP3     9096     TIP3     H2       HT       0.417000       1.00800           0   0.00000     -0.301140E-02
     52205 TIP3     9097     TIP3     OH2      OT      -0.834000       15.9994           0   0.00000       0.00000    
     52206 TIP3     9097     TIP3     H1       HT       0.417000       1.00800           0   0.00000       0.00000    
     52207 TIP3     9097     TIP3     H2       HT       0.417000       1.00800           0   0.00000     -0.301140E-02
     52208 TIP3     9098     TIP3     OH2      OT      -0.834000       15.9994           0   0.00000       0.00000    
     52209 TIP3     9098     TIP3     H1       HT       0.417000       1.00800           0   0.00000       0.00000    
     52210 TIP3     9098     TIP3     H2       HT       0.417000       1.00800           0   0.00000     -0.301140E-02
     52211 TIP3     9099     TIP3     OH2      OT      -0.834000       15.9994           0   0.00000       0.00000    
     52212 TIP3     9099     TIP3     H1       HT       0.417000       1.00800           0   0.00000       0.00000    
     52213 TIP3     9099     TIP3     H2       HT       0.417000       1.00800           0   0.00000     -0.301140E-02
     52214 TIP3     9100     TIP3     OH2      OT      -0.834000       15.9994           0   0.00000       0.00000    
     52215 TIP3     9100     TIP3     H1       HT       0.417000       1.00800           0   0.00000       0.00000    
     52216 TIP3     9100     TIP3     H2       HT       0.417000       1.00800           0   0.00000     -0.301140E-02
     52217 TIP3     9101     TIP3     OH2      OT      -0.834000       15.9994           0   0.00000       0.00000    
     52218 TIP3     9101     TIP3     H1       HT       0.417000       1.00800           0   0.00000       0.00000    
     52219 TIP3     9101     TIP3     H2       HT       0.417000       1.00800           0   0.00000     -0.301140E-02
     52220 TIP3     9102     TIP3     OH2      OT      -0.834000       15.9994           0   0.00000       0.00000    
     52221 TIP3     9102     TIP3     H1       HT       0.417000       1.00800           0   0.00000       0.00000    
     52222 TIP3     9102     TIP3     H2       HT       0.417000       1.00800           0   0.00000     -0.301140E-02
     52223 TIP3     9103     TIP3     OH2      OT      -0.834000       15.9994           0   0.00000       0.00000    
     52224 TIP3     9103     TIP3     H1       HT       0.417000       1.00800           0   0.00000       0.00000    
     52225 TIP3     9103     TIP3     H2       HT       0.417000       1.00800           0   0.00000     -0.301140E-02
     52226 TIP3     9104     TIP3     OH2      OT      -0.834000       15.9994           0   0.00000       0.00000    
     52227 TIP3     9104     TIP3     H1       HT       0.417000       1.00800           0   0.00000       0.00000    
     52228 TIP3     9104     TIP3     H2       HT       0.417000       1.00800           0   0.00000     -0.301140E-02
     52229 TIP3     9105     TIP3     OH2      OT      -0.834000       15.9994           0   0.00000       0.00000    
     52230 TIP3     9105     TIP3     H1       HT       0.417000       1.00800           0   0.00000       0.00000    
     52231 TIP3     9105     TIP3     H2       HT       0.417000       1.00800           0   0.00000     -0.301140E-02
     52232 TIP3     9106     TIP3     OH2      OT      -0.834000       15.9994           0   0.00000       0.00000    
     52233 TIP3     9106     TIP3     H1       HT       0.417000       1.00800           0   0.00000       0.00000    
     52234 TIP3     9106     TIP3     H2       HT       0.417000       1.00800           0   0.00000     -0.301140E-02
     52235 TIP3     9107     TIP3     OH2      OT      -0.834000       15.9994           0   0.00000       0.00000    
     52236 TIP3     9107     TIP3     H1       HT       0.417000       1.00800           0   0.00000       0.00000    
     52237 TIP3     9107     TIP3     H2       HT       0.417000       1.00800           0   0.00000     -0.301140E-02
     52238 TIP3     9108     TIP3     OH2      OT      -0.834000       15.9994           0   0.00000       0.00000    
     52239 TIP3     9108     TIP3     H1       HT       0.417000       1.00800           0   0.00000       0.00000    
     52240 TIP3     9108     TIP3     H2       HT       0.417000       1.00800           0   0.00000     -0.301140E-02
     52241 TIP3     9109     TIP3     OH2      OT      -0.834000       15.9994           0   0.00000       0.00000    
     52242 TIP3     9109     TIP3     H1       HT       0.417000       1.00800           0   0.00000       0.00000    
     52243 TIP3     9109     TIP3     H2       HT       0.417000       1.00800           0   0.00000     -0.301140E-02
     52244 TIP3     9110     TIP3     OH2      OT      -0.834000       15.9994           0   0.00000       0.00000    
     52245 TIP3     9110     TIP3     H1       HT       0.417000       1.00800           0   0.00000       0.00000    
     52246 TIP3     9110     TIP3     H2       HT       0.417000       1.00800           0   0.00000     -0.301140E-02
     52247 TIP3     9111     TIP3     OH2      OT      -0.834000       15.9994           0   0.00000       0.00000    
     52248 TIP3     9111     TIP3     H1       HT       0.417000       1.00800           0   0.00000       0.00000    
     52249 TIP3     9111     TIP3     H2       HT       0.417000       1.00800           0   0.00000     -0.301140E-02
     52250 TIP3     9112     TIP3     OH2      OT      -0.834000       15.9994           0   0.00000       0.00000    
     52251 TIP3     9112     TIP3     H1       HT       0.417000       1.00800           0   0.00000       0.00000    
     52252 TIP3     9112     TIP3     H2       HT       0.417000       1.00800           0   0.00000     -0.301140E-02
     52253 TIP3     9113     TIP3     OH2      OT      -0.834000       15.9994           0   0.00000       0.00000    
     52254 TIP3     9113     TIP3     H1       HT       0.417000       1.00800           0   0.00000       0.00000    
     52255 TIP3     9113     TIP3     H2       HT       0.417000       1.00800           0   0.00000     -0.301140E-02
     52256 TIP3     9114     TIP3     OH2      OT      -0.834000       15.9994           0   0.00000       0.00000    
     52257 TIP3     9114     TIP3     H1       HT       0.417000       1.00800           0   0.00000       0.00000    
     52258 TIP3     9114     TIP3     H2       HT       0.417000       1.00800           0   0.00000     -0.301140E-02
     52259 TIP3     9115     TIP3     OH2      OT      -0.834000       15.9994           0   0.00000       0.00000    
     52260 TIP3     9115     TIP3     H1       HT       0.417000       1.00800           0   0.00000       0.00000    
     52261 TIP3     9115     TIP3     H2       HT       0.417000       1.00800           0   0.00000     -0.301140E-02
     52262 TIP3     9116     TIP3     OH2      OT      -0.834000       15.9994           0   0.00000       0.00000    
     52263 TIP3     9116     TIP3     H1       HT       0.417000       1.00800           0   0.00000       0.00000    
     52264 TIP3     9116     TIP3     H2       HT       0.417000       1.00800           0   0.00000     -0.301140E-02
     52265 TIP3     9117     TIP3     OH2      OT      -0.834000       15.9994           0   0.00000       0.00000    
     52266 TIP3     9117     TIP3     H1       HT       0.417000       1.00800           0   0.00000       0.00000    
     52267 TIP3     9117     TIP3     H2       HT       0.417000       1.00800           0   0.00000     -0.301140E-02
     52268 TIP3     9118     TIP3     OH2      OT      -0.834000       15.9994           0   0.00000       0.00000    
     52269 TIP3     9118     TIP3     H1       HT       0.417000       1.00800           0   0.00000       0.00000    
     52270 TIP3     9118     TIP3     H2       HT       0.417000       1.00800           0   0.00000     -0.301140E-02
     52271 TIP3     9119     TIP3     OH2      OT      -0.834000       15.9994           0   0.00000       0.00000    
     52272 TIP3     9119     TIP3     H1       HT       0.417000       1.00800           0   0.00000       0.00000    
     52273 TIP3     9119     TIP3     H2       HT       0.417000       1.00800           0   0.00000     -0.301140E-02
     52274 TIP3     9120     TIP3     OH2      OT      -0.834000       15.9994           0   0.00000       0.00000    
     52275 TIP3     9120     TIP3     H1       HT       0.417000       1.00800           0   0.00000       0.00000    
     52276 TIP3     9120     TIP3     H2       HT       0.417000       1.00800           0   0.00000     -0.301140E-02
     52277 TIP3     9121     TIP3     OH2      OT      -0.834000       15.9994           0   0.00000       0.00000    
     52278 TIP3     9121     TIP3     H1       HT       0.417000       1.00800           0   0.00000       0.00000    
     52279 TIP3     9121     TIP3     H2       HT       0.417000       1.00800           0   0.00000     -0.301140E-02
     52280 TIP3     9122     TIP3     OH2      OT      -0.834000       15.9994           0   0.00000       0.00000    
     52281 TIP3     9122     TIP3     H1       HT       0.417000       1.00800           0   0.00000       0.00000    
     52282 TIP3     9122     TIP3     H2       HT       0.417000       1.00800           0   0.00000     -0.301140E-02
     52283 TIP3     9123     TIP3     OH2      OT      -0.834000       15.9994           0   0.00000       0.00000    
     52284 TIP3     9123     TIP3     H1       HT       0.417000       1.00800           0   0.00000       0.00000    
     52285 TIP3     9123     TIP3     H2       HT       0.417000       1.00800           0   0.00000     -0.301140E-02
     52286 TIP3     9124     TIP3     OH2      OT      -0.834000       15.9994           0   0.00000       0.00000    
     52287 TIP3     9124     TIP3     H1       HT       0.417000       1.00800           0   0.00000       0.00000    
     52288 TIP3     9124     TIP3     H2       HT       0.417000       1.00800           0   0.00000     -0.301140E-02
     52289 TIP3     9125     TIP3     OH2      OT      -0.834000       15.9994           0   0.00000       0.00000    
     52290 TIP3     9125     TIP3     H1       HT       0.417000       1.00800           0   0.00000       0.00000    
     52291 TIP3     9125     TIP3     H2       HT       0.417000       1.00800           0   0.00000     -0.301140E-02
     52292 TIP3     9126     TIP3     OH2      OT      -0.834000       15.9994           0   0.00000       0.00000    
     52293 TIP3     9126     TIP3     H1       HT       0.417000       1.00800           0   0.00000       0.00000    
     52294 TIP3     9126     TIP3     H2       HT       0.417000       1.00800           0   0.00000     -0.301140E-02
     52295 TIP3     9127     TIP3     OH2      OT      -0.834000       15.9994           0   0.00000       0.00000    
     52296 TIP3     9127     TIP3     H1       HT       0.417000       1.00800           0   0.00000       0.00000    
     52297 TIP3     9127     TIP3     H2       HT       0.417000       1.00800           0   0.00000     -0.301140E-02
     52298 TIP3     9128     TIP3     OH2      OT      -0.834000       15.9994           0   0.00000       0.00000    
     52299 TIP3     9128     TIP3     H1       HT       0.417000       1.00800           0   0.00000       0.00000    
     52300 TIP3     9128     TIP3     H2       HT       0.417000       1.00800           0   0.00000     -0.301140E-02
     52301 TIP3     9129     TIP3     OH2      OT      -0.834000       15.9994           0   0.00000       0.00000    
     52302 TIP3     9129     TIP3     H1       HT       0.417000       1.00800           0   0.00000       0.00000    
     52303 TIP3     9129     TIP3     H2       HT       0.417000       1.00800           0   0.00000     -0.301140E-02
     52304 TIP3     9130     TIP3     OH2      OT      -0.834000       15.9994           0   0.00000       0.00000    
     52305 TIP3     9130     TIP3     H1       HT       0.417000       1.00800           0   0.00000       0.00000    
     52306 TIP3     9130     TIP3     H2       HT       0.417000       1.00800           0   0.00000     -0.301140E-02
     52307 TIP3     9131     TIP3     OH2      OT      -0.834000       15.9994           0   0.00000       0.00000    
     52308 TIP3     9131     TIP3     H1       HT       0.417000       1.00800           0   0.00000       0.00000    
     52309 TIP3     9131     TIP3     H2       HT       0.417000       1.00800           0   0.00000     -0.301140E-02
     52310 TIP3     9132     TIP3     OH2      OT      -0.834000       15.9994           0   0.00000       0.00000    
     52311 TIP3     9132     TIP3     H1       HT       0.417000       1.00800           0   0.00000       0.00000    
     52312 TIP3     9132     TIP3     H2       HT       0.417000       1.00800           0   0.00000     -0.301140E-02
     52313 TIP3     9133     TIP3     OH2      OT      -0.834000       15.9994           0   0.00000       0.00000    
     52314 TIP3     9133     TIP3     H1       HT       0.417000       1.00800           0   0.00000       0.00000    
     52315 TIP3     9133     TIP3     H2       HT       0.417000       1.00800           0   0.00000     -0.301140E-02
     52316 TIP3     9134     TIP3     OH2      OT      -0.834000       15.9994           0   0.00000       0.00000    
     52317 TIP3     9134     TIP3     H1       HT       0.417000       1.00800           0   0.00000       0.00000    
     52318 TIP3     9134     TIP3     H2       HT       0.417000       1.00800           0   0.00000     -0.301140E-02
     52319 TIP3     9135     TIP3     OH2      OT      -0.834000       15.9994           0   0.00000       0.00000    
     52320 TIP3     9135     TIP3     H1       HT       0.417000       1.00800           0   0.00000       0.00000    
     52321 TIP3     9135     TIP3     H2       HT       0.417000       1.00800           0   0.00000     -0.301140E-02
     52322 TIP3     9136     TIP3     OH2      OT      -0.834000       15.9994           0   0.00000       0.00000    
     52323 TIP3     9136     TIP3     H1       HT       0.417000       1.00800           0   0.00000       0.00000    
     52324 TIP3     9136     TIP3     H2       HT       0.417000       1.00800           0   0.00000     -0.301140E-02
     52325 TIP3     9137     TIP3     OH2      OT      -0.834000       15.9994           0   0.00000       0.00000    
     52326 TIP3     9137     TIP3     H1       HT       0.417000       1.00800           0   0.00000       0.00000    
     52327 TIP3     9137     TIP3     H2       HT       0.417000       1.00800           0   0.00000     -0.301140E-02
     52328 TIP3     9138     TIP3     OH2      OT      -0.834000       15.9994           0   0.00000       0.00000    
     52329 TIP3     9138     TIP3     H1       HT       0.417000       1.00800           0   0.00000       0.00000    
     52330 TIP3     9138     TIP3     H2       HT       0.417000       1.00800           0   0.00000     -0.301140E-02
     52331 TIP3     9139     TIP3     OH2      OT      -0.834000       15.9994           0   0.00000       0.00000    
     52332 TIP3     9139     TIP3     H1       HT       0.417000       1.00800           0   0.00000       0.00000    
     52333 TIP3     9139     TIP3     H2       HT       0.417000       1.00800           0   0.00000     -0.301140E-02
     52334 TIP3     9140     TIP3     OH2      OT      -0.834000       15.9994           0   0.00000       0.00000    
     52335 TIP3     9140     TIP3     H1       HT       0.417000       1.00800           0   0.00000       0.00000    
     52336 TIP3     9140     TIP3     H2       HT       0.417000       1.00800           0   0.00000     -0.301140E-02
     52337 TIP3     9141     TIP3     OH2      OT      -0.834000       15.9994           0   0.00000       0.00000    
     52338 TIP3     9141     TIP3     H1       HT       0.417000       1.00800           0   0.00000       0.00000    
     52339 TIP3     9141     TIP3     H2       HT       0.417000       1.00800           0   0.00000     -0.301140E-02
     52340 TIP3     9142     TIP3     OH2      OT      -0.834000       15.9994           0   0.00000       0.00000    
     52341 TIP3     9142     TIP3     H1       HT       0.417000       1.00800           0   0.00000       0.00000    
     52342 TIP3     9142     TIP3     H2       HT       0.417000       1.00800           0   0.00000     -0.301140E-02
     52343 TIP3     9143     TIP3     OH2      OT      -0.834000       15.9994           0   0.00000       0.00000    
     52344 TIP3     9143     TIP3     H1       HT       0.417000       1.00800           0   0.00000       0.00000    
     52345 TIP3     9143     TIP3     H2       HT       0.417000       1.00800           0   0.00000     -0.301140E-02
     52346 TIP3     9144     TIP3     OH2      OT      -0.834000       15.9994           0   0.00000       0.00000    
     52347 TIP3     9144     TIP3     H1       HT       0.417000       1.00800           0   0.00000       0.00000    
     52348 TIP3     9144     TIP3     H2       HT       0.417000       1.00800           0   0.00000     -0.301140E-02
     52349 TIP3     9145     TIP3     OH2      OT      -0.834000       15.9994           0   0.00000       0.00000    
     52350 TIP3     9145     TIP3     H1       HT       0.417000       1.00800           0   0.00000       0.00000    
     52351 TIP3     9145     TIP3     H2       HT       0.417000       1.00800           0   0.00000     -0.301140E-02
     52352 TIP3     9146     TIP3     OH2      OT      -0.834000       15.9994           0   0.00000       0.00000    
     52353 TIP3     9146     TIP3     H1       HT       0.417000       1.00800           0   0.00000       0.00000    
     52354 TIP3     9146     TIP3     H2       HT       0.417000       1.00800           0   0.00000     -0.301140E-02
     52355 TIP3     9147     TIP3     OH2      OT      -0.834000       15.9994           0   0.00000       0.00000    
     52356 TIP3     9147     TIP3     H1       HT       0.417000       1.00800           0   0.00000       0.00000    
     52357 TIP3     9147     TIP3     H2       HT       0.417000       1.00800           0   0.00000     -0.301140E-02
     52358 TIP3     9148     TIP3     OH2      OT      -0.834000       15.9994           0   0.00000       0.00000    
     52359 TIP3     9148     TIP3     H1       HT       0.417000       1.00800           0   0.00000       0.00000    
     52360 TIP3     9148     TIP3     H2       HT       0.417000       1.00800           0   0.00000     -0.301140E-02
     52361 TIP3     9149     TIP3     OH2      OT      -0.834000       15.9994           0   0.00000       0.00000    
     52362 TIP3     9149     TIP3     H1       HT       0.417000       1.00800           0   0.00000       0.00000    
     52363 TIP3     9149     TIP3     H2       HT       0.417000       1.00800           0   0.00000     -0.301140E-02
     52364 TIP3     9150     TIP3     OH2      OT      -0.834000       15.9994           0   0.00000       0.00000    
     52365 TIP3     9150     TIP3     H1       HT       0.417000       1.00800           0   0.00000       0.00000    
     52366 TIP3     9150     TIP3     H2       HT       0.417000       1.00800           0   0.00000     -0.301140E-02
     52367 TIP3     9151     TIP3     OH2      OT      -0.834000       15.9994           0   0.00000       0.00000    
     52368 TIP3     9151     TIP3     H1       HT       0.417000       1.00800           0   0.00000       0.00000    
     52369 TIP3     9151     TIP3     H2       HT       0.417000       1.00800           0   0.00000     -0.301140E-02
     52370 TIP3     9152     TIP3     OH2      OT      -0.834000       15.9994           0   0.00000       0.00000    
     52371 TIP3     9152     TIP3     H1       HT       0.417000       1.00800           0   0.00000       0.00000    
     52372 TIP3     9152     TIP3     H2       HT       0.417000       1.00800           0   0.00000     -0.301140E-02
     52373 TIP3     9153     TIP3     OH2      OT      -0.834000       15.9994           0   0.00000       0.00000    
     52374 TIP3     9153     TIP3     H1       HT       0.417000       1.00800           0   0.00000       0.00000    
     52375 TIP3     9153     TIP3     H2       HT       0.417000       1.00800           0   0.00000     -0.301140E-02
     52376 TIP3     9154     TIP3     OH2      OT      -0.834000       15.9994           0   0.00000       0.00000    
     52377 TIP3     9154     TIP3     H1       HT       0.417000       1.00800           0   0.00000       0.00000    
     52378 TIP3     9154     TIP3     H2       HT       0.417000       1.00800           0   0.00000     -0.301140E-02
     52379 TIP3     9155     TIP3     OH2      OT      -0.834000       15.9994           0   0.00000       0.00000    
     52380 TIP3     9155     TIP3     H1       HT       0.417000       1.00800           0   0.00000       0.00000    
     52381 TIP3     9155     TIP3     H2       HT       0.417000       1.00800           0   0.00000     -0.301140E-02
     52382 TIP3     9156     TIP3     OH2      OT      -0.834000       15.9994           0   0.00000       0.00000    
     52383 TIP3     9156     TIP3     H1       HT       0.417000       1.00800           0   0.00000       0.00000    
     52384 TIP3     9156     TIP3     H2       HT       0.417000       1.00800           0   0.00000     -0.301140E-02
     52385 TIP3     9157     TIP3     OH2      OT      -0.834000       15.9994           0   0.00000       0.00000    
     52386 TIP3     9157     TIP3     H1       HT       0.417000       1.00800           0   0.00000       0.00000    
     52387 TIP3     9157     TIP3     H2       HT       0.417000       1.00800           0   0.00000     -0.301140E-02
     52388 TIP3     9158     TIP3     OH2      OT      -0.834000       15.9994           0   0.00000       0.00000    
     52389 TIP3     9158     TIP3     H1       HT       0.417000       1.00800           0   0.00000       0.00000    
     52390 TIP3     9158     TIP3     H2       HT       0.417000       1.00800           0   0.00000     -0.301140E-02
     52391 TIP3     9159     TIP3     OH2      OT      -0.834000       15.9994           0   0.00000       0.00000    
     52392 TIP3     9159     TIP3     H1       HT       0.417000       1.00800           0   0.00000       0.00000    
     52393 TIP3     9159     TIP3     H2       HT       0.417000       1.00800           0   0.00000     -0.301140E-02
     52394 TIP3     9160     TIP3     OH2      OT      -0.834000       15.9994           0   0.00000       0.00000    
     52395 TIP3     9160     TIP3     H1       HT       0.417000       1.00800           0   0.00000       0.00000    
     52396 TIP3     9160     TIP3     H2       HT       0.417000       1.00800           0   0.00000     -0.301140E-02
     52397 TIP3     9161     TIP3     OH2      OT      -0.834000       15.9994           0   0.00000       0.00000    
     52398 TIP3     9161     TIP3     H1       HT       0.417000       1.00800           0   0.00000       0.00000    
     52399 TIP3     9161     TIP3     H2       HT       0.417000       1.00800           0   0.00000     -0.301140E-02
     52400 TIP3     9162     TIP3     OH2      OT      -0.834000       15.9994           0   0.00000       0.00000    
     52401 TIP3     9162     TIP3     H1       HT       0.417000       1.00800           0   0.00000       0.00000    
     52402 TIP3     9162     TIP3     H2       HT       0.417000       1.00800           0   0.00000     -0.301140E-02
     52403 TIP3     9163     TIP3     OH2      OT      -0.834000       15.9994           0   0.00000       0.00000    
     52404 TIP3     9163     TIP3     H1       HT       0.417000       1.00800           0   0.00000       0.00000    
     52405 TIP3     9163     TIP3     H2       HT       0.417000       1.00800           0   0.00000     -0.301140E-02
     52406 TIP3     9164     TIP3     OH2      OT      -0.834000       15.9994           0   0.00000       0.00000    
     52407 TIP3     9164     TIP3     H1       HT       0.417000       1.00800           0   0.00000       0.00000    
     52408 TIP3     9164     TIP3     H2       HT       0.417000       1.00800           0   0.00000     -0.301140E-02
     52409 TIP3     9165     TIP3     OH2      OT      -0.834000       15.9994           0   0.00000       0.00000    
     52410 TIP3     9165     TIP3     H1       HT       0.417000       1.00800           0   0.00000       0.00000    
     52411 TIP3     9165     TIP3     H2       HT       0.417000       1.00800           0   0.00000     -0.301140E-02
     52412 TIP3     9166     TIP3     OH2      OT      -0.834000       15.9994           0   0.00000       0.00000    
     52413 TIP3     9166     TIP3     H1       HT       0.417000       1.00800           0   0.00000       0.00000    
     52414 TIP3     9166     TIP3     H2       HT       0.417000       1.00800           0   0.00000     -0.301140E-02
     52415 TIP3     9167     TIP3     OH2      OT      -0.834000       15.9994           0   0.00000       0.00000    
     52416 TIP3     9167     TIP3     H1       HT       0.417000       1.00800           0   0.00000       0.00000    
     52417 TIP3     9167     TIP3     H2       HT       0.417000       1.00800           0   0.00000     -0.301140E-02
     52418 TIP3     9168     TIP3     OH2      OT      -0.834000       15.9994           0   0.00000       0.00000    
     52419 TIP3     9168     TIP3     H1       HT       0.417000       1.00800           0   0.00000       0.00000    
     52420 TIP3     9168     TIP3     H2       HT       0.417000       1.00800           0   0.00000     -0.301140E-02
     52421 TIP3     9169     TIP3     OH2      OT      -0.834000       15.9994           0   0.00000       0.00000    
     52422 TIP3     9169     TIP3     H1       HT       0.417000       1.00800           0   0.00000       0.00000    
     52423 TIP3     9169     TIP3     H2       HT       0.417000       1.00800           0   0.00000     -0.301140E-02
     52424 TIP3     9170     TIP3     OH2      OT      -0.834000       15.9994           0   0.00000       0.00000    
     52425 TIP3     9170     TIP3     H1       HT       0.417000       1.00800           0   0.00000       0.00000    
     52426 TIP3     9170     TIP3     H2       HT       0.417000       1.00800           0   0.00000     -0.301140E-02
     52427 TIP3     9171     TIP3     OH2      OT      -0.834000       15.9994           0   0.00000       0.00000    
     52428 TIP3     9171     TIP3     H1       HT       0.417000       1.00800           0   0.00000       0.00000    
     52429 TIP3     9171     TIP3     H2       HT       0.417000       1.00800           0   0.00000     -0.301140E-02
     52430 TIP3     9172     TIP3     OH2      OT      -0.834000       15.9994           0   0.00000       0.00000    
     52431 TIP3     9172     TIP3     H1       HT       0.417000       1.00800           0   0.00000       0.00000    
     52432 TIP3     9172     TIP3     H2       HT       0.417000       1.00800           0   0.00000     -0.301140E-02
     52433 TIP3     9173     TIP3     OH2      OT      -0.834000       15.9994           0   0.00000       0.00000    
     52434 TIP3     9173     TIP3     H1       HT       0.417000       1.00800           0   0.00000       0.00000    
     52435 TIP3     9173     TIP3     H2       HT       0.417000       1.00800           0   0.00000     -0.301140E-02
     52436 TIP3     9174     TIP3     OH2      OT      -0.834000       15.9994           0   0.00000       0.00000    
     52437 TIP3     9174     TIP3     H1       HT       0.417000       1.00800           0   0.00000       0.00000    
     52438 TIP3     9174     TIP3     H2       HT       0.417000       1.00800           0   0.00000     -0.301140E-02
     52439 TIP3     9175     TIP3     OH2      OT      -0.834000       15.9994           0   0.00000       0.00000    
     52440 TIP3     9175     TIP3     H1       HT       0.417000       1.00800           0   0.00000       0.00000    
     52441 TIP3     9175     TIP3     H2       HT       0.417000       1.00800           0   0.00000     -0.301140E-02
     52442 TIP3     9176     TIP3     OH2      OT      -0.834000       15.9994           0   0.00000       0.00000    
     52443 TIP3     9176     TIP3     H1       HT       0.417000       1.00800           0   0.00000       0.00000    
     52444 TIP3     9176     TIP3     H2       HT       0.417000       1.00800           0   0.00000     -0.301140E-02
     52445 TIP3     9177     TIP3     OH2      OT      -0.834000       15.9994           0   0.00000       0.00000    
     52446 TIP3     9177     TIP3     H1       HT       0.417000       1.00800           0   0.00000       0.00000    
     52447 TIP3     9177     TIP3     H2       HT       0.417000       1.00800           0   0.00000     -0.301140E-02
     52448 TIP3     9178     TIP3     OH2      OT      -0.834000       15.9994           0   0.00000       0.00000    
     52449 TIP3     9178     TIP3     H1       HT       0.417000       1.00800           0   0.00000       0.00000    
     52450 TIP3     9178     TIP3     H2       HT       0.417000       1.00800           0   0.00000     -0.301140E-02
     52451 TIP3     9179     TIP3     OH2      OT      -0.834000       15.9994           0   0.00000       0.00000    
     52452 TIP3     9179     TIP3     H1       HT       0.417000       1.00800           0   0.00000       0.00000    
     52453 TIP3     9179     TIP3     H2       HT       0.417000       1.00800           0   0.00000     -0.301140E-02
     52454 TIP3     9180     TIP3     OH2      OT      -0.834000       15.9994           0   0.00000       0.00000    
     52455 TIP3     9180     TIP3     H1       HT       0.417000       1.00800           0   0.00000       0.00000    
     52456 TIP3     9180     TIP3     H2       HT       0.417000       1.00800           0   0.00000     -0.301140E-02
     52457 TIP3     9181     TIP3     OH2      OT      -0.834000       15.9994           0   0.00000       0.00000    
     52458 TIP3     9181     TIP3     H1       HT       0.417000       1.00800           0   0.00000       0.00000    
     52459 TIP3     9181     TIP3     H2       HT       0.417000       1.00800           0   0.00000     -0.301140E-02
     52460 TIP3     9182     TIP3     OH2      OT      -0.834000       15.9994           0   0.00000       0.00000    
     52461 TIP3     9182     TIP3     H1       HT       0.417000       1.00800           0   0.00000       0.00000    
     52462 TIP3     9182     TIP3     H2       HT       0.417000       1.00800           0   0.00000     -0.301140E-02
     52463 TIP3     9183     TIP3     OH2      OT      -0.834000       15.9994           0   0.00000       0.00000    
     52464 TIP3     9183     TIP3     H1       HT       0.417000       1.00800           0   0.00000       0.00000    
     52465 TIP3     9183     TIP3     H2       HT       0.417000       1.00800           0   0.00000     -0.301140E-02
     52466 TIP3     9184     TIP3     OH2      OT      -0.834000       15.9994           0   0.00000       0.00000    
     52467 TIP3     9184     TIP3     H1       HT       0.417000       1.00800           0   0.00000       0.00000    
     52468 TIP3     9184     TIP3     H2       HT       0.417000       1.00800           0   0.00000     -0.301140E-02
     52469 TIP3     9185     TIP3     OH2      OT      -0.834000       15.9994           0   0.00000       0.00000    
     52470 TIP3     9185     TIP3     H1       HT       0.417000       1.00800           0   0.00000       0.00000    
     52471 TIP3     9185     TIP3     H2       HT       0.417000       1.00800           0   0.00000     -0.301140E-02
     52472 TIP3     9186     TIP3     OH2      OT      -0.834000       15.9994           0   0.00000       0.00000    
     52473 TIP3     9186     TIP3     H1       HT       0.417000       1.00800           0   0.00000       0.00000    
     52474 TIP3     9186     TIP3     H2       HT       0.417000       1.00800           0   0.00000     -0.301140E-02
     52475 TIP3     9187     TIP3     OH2      OT      -0.834000       15.9994           0   0.00000       0.00000    
     52476 TIP3     9187     TIP3     H1       HT       0.417000       1.00800           0   0.00000       0.00000    
     52477 TIP3     9187     TIP3     H2       HT       0.417000       1.00800           0   0.00000     -0.301140E-02
     52478 TIP3     9188     TIP3     OH2      OT      -0.834000       15.9994           0   0.00000       0.00000    
     52479 TIP3     9188     TIP3     H1       HT       0.417000       1.00800           0   0.00000       0.00000    
     52480 TIP3     9188     TIP3     H2       HT       0.417000       1.00800           0   0.00000     -0.301140E-02
     52481 TIP3     9189     TIP3     OH2      OT      -0.834000       15.9994           0   0.00000       0.00000    
     52482 TIP3     9189     TIP3     H1       HT       0.417000       1.00800           0   0.00000       0.00000    
     52483 TIP3     9189     TIP3     H2       HT       0.417000       1.00800           0   0.00000     -0.301140E-02
     52484 TIP3     9190     TIP3     OH2      OT      -0.834000       15.9994           0   0.00000       0.00000    
     52485 TIP3     9190     TIP3     H1       HT       0.417000       1.00800           0   0.00000       0.00000    
     52486 TIP3     9190     TIP3     H2       HT       0.417000       1.00800           0   0.00000     -0.301140E-02
     52487 TIP3     9191     TIP3     OH2      OT      -0.834000       15.9994           0   0.00000       0.00000    
     52488 TIP3     9191     TIP3     H1       HT       0.417000       1.00800           0   0.00000       0.00000    
     52489 TIP3     9191     TIP3     H2       HT       0.417000       1.00800           0   0.00000     -0.301140E-02
     52490 TIP3     9192     TIP3     OH2      OT      -0.834000       15.9994           0   0.00000       0.00000    
     52491 TIP3     9192     TIP3     H1       HT       0.417000       1.00800           0   0.00000       0.00000    
     52492 TIP3     9192     TIP3     H2       HT       0.417000       1.00800           0   0.00000     -0.301140E-02
     52493 TIP3     9193     TIP3     OH2      OT      -0.834000       15.9994           0   0.00000       0.00000    
     52494 TIP3     9193     TIP3     H1       HT       0.417000       1.00800           0   0.00000       0.00000    
     52495 TIP3     9193     TIP3     H2       HT       0.417000       1.00800           0   0.00000     -0.301140E-02
     52496 TIP3     9194     TIP3     OH2      OT      -0.834000       15.9994           0   0.00000       0.00000    
     52497 TIP3     9194     TIP3     H1       HT       0.417000       1.00800           0   0.00000       0.00000    
     52498 TIP3     9194     TIP3     H2       HT       0.417000       1.00800           0   0.00000     -0.301140E-02
     52499 TIP3     9195     TIP3     OH2      OT      -0.834000       15.9994           0   0.00000       0.00000    
     52500 TIP3     9195     TIP3     H1       HT       0.417000       1.00800           0   0.00000       0.00000    
     52501 TIP3     9195     TIP3     H2       HT       0.417000       1.00800           0   0.00000     -0.301140E-02
     52502 TIP3     9196     TIP3     OH2      OT      -0.834000       15.9994           0   0.00000       0.00000    
     52503 TIP3     9196     TIP3     H1       HT       0.417000       1.00800           0   0.00000       0.00000    
     52504 TIP3     9196     TIP3     H2       HT       0.417000       1.00800           0   0.00000     -0.301140E-02
     52505 TIP3     9197     TIP3     OH2      OT      -0.834000       15.9994           0   0.00000       0.00000    
     52506 TIP3     9197     TIP3     H1       HT       0.417000       1.00800           0   0.00000       0.00000    
     52507 TIP3     9197     TIP3     H2       HT       0.417000       1.00800           0   0.00000     -0.301140E-02
     52508 TIP3     9198     TIP3     OH2      OT      -0.834000       15.9994           0   0.00000       0.00000    
     52509 TIP3     9198     TIP3     H1       HT       0.417000       1.00800           0   0.00000       0.00000    
     52510 TIP3     9198     TIP3     H2       HT       0.417000       1.00800           0   0.00000     -0.301140E-02
     52511 TIP3     9199     TIP3     OH2      OT      -0.834000       15.9994           0   0.00000       0.00000    
     52512 TIP3     9199     TIP3     H1       HT       0.417000       1.00800           0   0.00000       0.00000    
     52513 TIP3     9199     TIP3     H2       HT       0.417000       1.00800           0   0.00000     -0.301140E-02
     52514 TIP3     9200     TIP3     OH2      OT      -0.834000       15.9994           0   0.00000       0.00000    
     52515 TIP3     9200     TIP3     H1       HT       0.417000       1.00800           0   0.00000       0.00000    
     52516 TIP3     9200     TIP3     H2       HT       0.417000       1.00800           0   0.00000     -0.301140E-02
     52517 TIP3     9201     TIP3     OH2      OT      -0.834000       15.9994           0   0.00000       0.00000    
     52518 TIP3     9201     TIP3     H1       HT       0.417000       1.00800           0   0.00000       0.00000    
     52519 TIP3     9201     TIP3     H2       HT       0.417000       1.00800           0   0.00000     -0.301140E-02
     52520 TIP3     9202     TIP3     OH2      OT      -0.834000       15.9994           0   0.00000       0.00000    
     52521 TIP3     9202     TIP3     H1       HT       0.417000       1.00800           0   0.00000       0.00000    
     52522 TIP3     9202     TIP3     H2       HT       0.417000       1.00800           0   0.00000     -0.301140E-02
     52523 TIP3     9203     TIP3     OH2      OT      -0.834000       15.9994           0   0.00000       0.00000    
     52524 TIP3     9203     TIP3     H1       HT       0.417000       1.00800           0   0.00000       0.00000    
     52525 TIP3     9203     TIP3     H2       HT       0.417000       1.00800           0   0.00000     -0.301140E-02
     52526 TIP3     9204     TIP3     OH2      OT      -0.834000       15.9994           0   0.00000       0.00000    
     52527 TIP3     9204     TIP3     H1       HT       0.417000       1.00800           0   0.00000       0.00000    
     52528 TIP3     9204     TIP3     H2       HT       0.417000       1.00800           0   0.00000     -0.301140E-02
     52529 TIP3     9205     TIP3     OH2      OT      -0.834000       15.9994           0   0.00000       0.00000    
     52530 TIP3     9205     TIP3     H1       HT       0.417000       1.00800           0   0.00000       0.00000    
     52531 TIP3     9205     TIP3     H2       HT       0.417000       1.00800           0   0.00000     -0.301140E-02
     52532 TIP3     9206     TIP3     OH2      OT      -0.834000       15.9994           0   0.00000       0.00000    
     52533 TIP3     9206     TIP3     H1       HT       0.417000       1.00800           0   0.00000       0.00000    
     52534 TIP3     9206     TIP3     H2       HT       0.417000       1.00800           0   0.00000     -0.301140E-02
     52535 TIP3     9207     TIP3     OH2      OT      -0.834000       15.9994           0   0.00000       0.00000    
     52536 TIP3     9207     TIP3     H1       HT       0.417000       1.00800           0   0.00000       0.00000    
     52537 TIP3     9207     TIP3     H2       HT       0.417000       1.00800           0   0.00000     -0.301140E-02
     52538 TIP3     9208     TIP3     OH2      OT      -0.834000       15.9994           0   0.00000       0.00000    
     52539 TIP3     9208     TIP3     H1       HT       0.417000       1.00800           0   0.00000       0.00000    
     52540 TIP3     9208     TIP3     H2       HT       0.417000       1.00800           0   0.00000     -0.301140E-02
     52541 TIP3     9209     TIP3     OH2      OT      -0.834000       15.9994           0   0.00000       0.00000    
     52542 TIP3     9209     TIP3     H1       HT       0.417000       1.00800           0   0.00000       0.00000    
     52543 TIP3     9209     TIP3     H2       HT       0.417000       1.00800           0   0.00000     -0.301140E-02
     52544 TIP3     9210     TIP3     OH2      OT      -0.834000       15.9994           0   0.00000       0.00000    
     52545 TIP3     9210     TIP3     H1       HT       0.417000       1.00800           0   0.00000       0.00000    
     52546 TIP3     9210     TIP3     H2       HT       0.417000       1.00800           0   0.00000     -0.301140E-02
     52547 TIP3     9211     TIP3     OH2      OT      -0.834000       15.9994           0   0.00000       0.00000    
     52548 TIP3     9211     TIP3     H1       HT       0.417000       1.00800           0   0.00000       0.00000    
     52549 TIP3     9211     TIP3     H2       HT       0.417000       1.00800           0   0.00000     -0.301140E-02
     52550 TIP3     9212     TIP3     OH2      OT      -0.834000       15.9994           0   0.00000       0.00000    
     52551 TIP3     9212     TIP3     H1       HT       0.417000       1.00800           0   0.00000       0.00000    
     52552 TIP3     9212     TIP3     H2       HT       0.417000       1.00800           0   0.00000     -0.301140E-02
     52553 TIP3     9213     TIP3     OH2      OT      -0.834000       15.9994           0   0.00000       0.00000    
     52554 TIP3     9213     TIP3     H1       HT       0.417000       1.00800           0   0.00000       0.00000    
     52555 TIP3     9213     TIP3     H2       HT       0.417000       1.00800           0   0.00000     -0.301140E-02
     52556 TIP3     9214     TIP3     OH2      OT      -0.834000       15.9994           0   0.00000       0.00000    
     52557 TIP3     9214     TIP3     H1       HT       0.417000       1.00800           0   0.00000       0.00000    
     52558 TIP3     9214     TIP3     H2       HT       0.417000       1.00800           0   0.00000     -0.301140E-02
     52559 TIP3     9215     TIP3     OH2      OT      -0.834000       15.9994           0   0.00000       0.00000    
     52560 TIP3     9215     TIP3     H1       HT       0.417000       1.00800           0   0.00000       0.00000    
     52561 TIP3     9215     TIP3     H2       HT       0.417000       1.00800           0   0.00000     -0.301140E-02
     52562 TIP3     9216     TIP3     OH2      OT      -0.834000       15.9994           0   0.00000       0.00000    
     52563 TIP3     9216     TIP3     H1       HT       0.417000       1.00800           0   0.00000       0.00000    
     52564 TIP3     9216     TIP3     H2       HT       0.417000       1.00800           0   0.00000     -0.301140E-02
     52565 TIP3     9217     TIP3     OH2      OT      -0.834000       15.9994           0   0.00000       0.00000    
     52566 TIP3     9217     TIP3     H1       HT       0.417000       1.00800           0   0.00000       0.00000    
     52567 TIP3     9217     TIP3     H2       HT       0.417000       1.00800           0   0.00000     -0.301140E-02
     52568 TIP3     9218     TIP3     OH2      OT      -0.834000       15.9994           0   0.00000       0.00000    
     52569 TIP3     9218     TIP3     H1       HT       0.417000       1.00800           0   0.00000       0.00000    
     52570 TIP3     9218     TIP3     H2       HT       0.417000       1.00800           0   0.00000     -0.301140E-02
     52571 TIP3     9219     TIP3     OH2      OT      -0.834000       15.9994           0   0.00000       0.00000    
     52572 TIP3     9219     TIP3     H1       HT       0.417000       1.00800           0   0.00000       0.00000    
     52573 TIP3     9219     TIP3     H2       HT       0.417000       1.00800           0   0.00000     -0.301140E-02
     52574 TIP3     9220     TIP3     OH2      OT      -0.834000       15.9994           0   0.00000       0.00000    
     52575 TIP3     9220     TIP3     H1       HT       0.417000       1.00800           0   0.00000       0.00000    
     52576 TIP3     9220     TIP3     H2       HT       0.417000       1.00800           0   0.00000     -0.301140E-02
     52577 TIP3     9221     TIP3     OH2      OT      -0.834000       15.9994           0   0.00000       0.00000    
     52578 TIP3     9221     TIP3     H1       HT       0.417000       1.00800           0   0.00000       0.00000    
     52579 TIP3     9221     TIP3     H2       HT       0.417000       1.00800           0   0.00000     -0.301140E-02
     52580 TIP3     9222     TIP3     OH2      OT      -0.834000       15.9994           0   0.00000       0.00000    
     52581 TIP3     9222     TIP3     H1       HT       0.417000       1.00800           0   0.00000       0.00000    
     52582 TIP3     9222     TIP3     H2       HT       0.417000       1.00800           0   0.00000     -0.301140E-02
     52583 TIP3     9223     TIP3     OH2      OT      -0.834000       15.9994           0   0.00000       0.00000    
     52584 TIP3     9223     TIP3     H1       HT       0.417000       1.00800           0   0.00000       0.00000    
     52585 TIP3     9223     TIP3     H2       HT       0.417000       1.00800           0   0.00000     -0.301140E-02
     52586 TIP3     9224     TIP3     OH2      OT      -0.834000       15.9994           0   0.00000       0.00000    
     52587 TIP3     9224     TIP3     H1       HT       0.417000       1.00800           0   0.00000       0.00000    
     52588 TIP3     9224     TIP3     H2       HT       0.417000       1.00800           0   0.00000     -0.301140E-02
     52589 TIP3     9225     TIP3     OH2      OT      -0.834000       15.9994           0   0.00000       0.00000    
     52590 TIP3     9225     TIP3     H1       HT       0.417000       1.00800           0   0.00000       0.00000    
     52591 TIP3     9225     TIP3     H2       HT       0.417000       1.00800           0   0.00000     -0.301140E-02
     52592 TIP3     9226     TIP3     OH2      OT      -0.834000       15.9994           0   0.00000       0.00000    
     52593 TIP3     9226     TIP3     H1       HT       0.417000       1.00800           0   0.00000       0.00000    
     52594 TIP3     9226     TIP3     H2       HT       0.417000       1.00800           0   0.00000     -0.301140E-02
     52595 TIP3     9227     TIP3     OH2      OT      -0.834000       15.9994           0   0.00000       0.00000    
     52596 TIP3     9227     TIP3     H1       HT       0.417000       1.00800           0   0.00000       0.00000    
     52597 TIP3     9227     TIP3     H2       HT       0.417000       1.00800           0   0.00000     -0.301140E-02
     52598 TIP3     9228     TIP3     OH2      OT      -0.834000       15.9994           0   0.00000       0.00000    
     52599 TIP3     9228     TIP3     H1       HT       0.417000       1.00800           0   0.00000       0.00000    
     52600 TIP3     9228     TIP3     H2       HT       0.417000       1.00800           0   0.00000     -0.301140E-02
     52601 TIP3     9229     TIP3     OH2      OT      -0.834000       15.9994           0   0.00000       0.00000    
     52602 TIP3     9229     TIP3     H1       HT       0.417000       1.00800           0   0.00000       0.00000    
     52603 TIP3     9229     TIP3     H2       HT       0.417000       1.00800           0   0.00000     -0.301140E-02
     52604 TIP3     9230     TIP3     OH2      OT      -0.834000       15.9994           0   0.00000       0.00000    
     52605 TIP3     9230     TIP3     H1       HT       0.417000       1.00800           0   0.00000       0.00000    
     52606 TIP3     9230     TIP3     H2       HT       0.417000       1.00800           0   0.00000     -0.301140E-02
     52607 TIP3     9231     TIP3     OH2      OT      -0.834000       15.9994           0   0.00000       0.00000    
     52608 TIP3     9231     TIP3     H1       HT       0.417000       1.00800           0   0.00000       0.00000    
     52609 TIP3     9231     TIP3     H2       HT       0.417000       1.00800           0   0.00000     -0.301140E-02
     52610 TIP3     9232     TIP3     OH2      OT      -0.834000       15.9994           0   0.00000       0.00000    
     52611 TIP3     9232     TIP3     H1       HT       0.417000       1.00800           0   0.00000       0.00000    
     52612 TIP3     9232     TIP3     H2       HT       0.417000       1.00800           0   0.00000     -0.301140E-02
     52613 TIP3     9233     TIP3     OH2      OT      -0.834000       15.9994           0   0.00000       0.00000    
     52614 TIP3     9233     TIP3     H1       HT       0.417000       1.00800           0   0.00000       0.00000    
     52615 TIP3     9233     TIP3     H2       HT       0.417000       1.00800           0   0.00000     -0.301140E-02
     52616 TIP3     9234     TIP3     OH2      OT      -0.834000       15.9994           0   0.00000       0.00000    
     52617 TIP3     9234     TIP3     H1       HT       0.417000       1.00800           0   0.00000       0.00000    
     52618 TIP3     9234     TIP3     H2       HT       0.417000       1.00800           0   0.00000     -0.301140E-02
     52619 TIP3     9235     TIP3     OH2      OT      -0.834000       15.9994           0   0.00000       0.00000    
     52620 TIP3     9235     TIP3     H1       HT       0.417000       1.00800           0   0.00000       0.00000    
     52621 TIP3     9235     TIP3     H2       HT       0.417000       1.00800           0   0.00000     -0.301140E-02
     52622 TIP3     9236     TIP3     OH2      OT      -0.834000       15.9994           0   0.00000       0.00000    
     52623 TIP3     9236     TIP3     H1       HT       0.417000       1.00800           0   0.00000       0.00000    
     52624 TIP3     9236     TIP3     H2       HT       0.417000       1.00800           0   0.00000     -0.301140E-02
     52625 TIP3     9237     TIP3     OH2      OT      -0.834000       15.9994           0   0.00000       0.00000    
     52626 TIP3     9237     TIP3     H1       HT       0.417000       1.00800           0   0.00000       0.00000    
     52627 TIP3     9237     TIP3     H2       HT       0.417000       1.00800           0   0.00000     -0.301140E-02
     52628 TIP3     9238     TIP3     OH2      OT      -0.834000       15.9994           0   0.00000       0.00000    
     52629 TIP3     9238     TIP3     H1       HT       0.417000       1.00800           0   0.00000       0.00000    
     52630 TIP3     9238     TIP3     H2       HT       0.417000       1.00800           0   0.00000     -0.301140E-02
     52631 TIP3     9239     TIP3     OH2      OT      -0.834000       15.9994           0   0.00000       0.00000    
     52632 TIP3     9239     TIP3     H1       HT       0.417000       1.00800           0   0.00000       0.00000    
     52633 TIP3     9239     TIP3     H2       HT       0.417000       1.00800           0   0.00000     -0.301140E-02
     52634 TIP3     9240     TIP3     OH2      OT      -0.834000       15.9994           0   0.00000       0.00000    
     52635 TIP3     9240     TIP3     H1       HT       0.417000       1.00800           0   0.00000       0.00000    
     52636 TIP3     9240     TIP3     H2       HT       0.417000       1.00800           0   0.00000     -0.301140E-02
     52637 TIP3     9241     TIP3     OH2      OT      -0.834000       15.9994           0   0.00000       0.00000    
     52638 TIP3     9241     TIP3     H1       HT       0.417000       1.00800           0   0.00000       0.00000    
     52639 TIP3     9241     TIP3     H2       HT       0.417000       1.00800           0   0.00000     -0.301140E-02
     52640 TIP3     9242     TIP3     OH2      OT      -0.834000       15.9994           0   0.00000       0.00000    
     52641 TIP3     9242     TIP3     H1       HT       0.417000       1.00800           0   0.00000       0.00000    
     52642 TIP3     9242     TIP3     H2       HT       0.417000       1.00800           0   0.00000     -0.301140E-02
     52643 TIP3     9243     TIP3     OH2      OT      -0.834000       15.9994           0   0.00000       0.00000    
     52644 TIP3     9243     TIP3     H1       HT       0.417000       1.00800           0   0.00000       0.00000    
     52645 TIP3     9243     TIP3     H2       HT       0.417000       1.00800           0   0.00000     -0.301140E-02
     52646 TIP3     9244     TIP3     OH2      OT      -0.834000       15.9994           0   0.00000       0.00000    
     52647 TIP3     9244     TIP3     H1       HT       0.417000       1.00800           0   0.00000       0.00000    
     52648 TIP3     9244     TIP3     H2       HT       0.417000       1.00800           0   0.00000     -0.301140E-02
     52649 TIP3     9245     TIP3     OH2      OT      -0.834000       15.9994           0   0.00000       0.00000    
     52650 TIP3     9245     TIP3     H1       HT       0.417000       1.00800           0   0.00000       0.00000    
     52651 TIP3     9245     TIP3     H2       HT       0.417000       1.00800           0   0.00000     -0.301140E-02
     52652 TIP3     9246     TIP3     OH2      OT      -0.834000       15.9994           0   0.00000       0.00000    
     52653 TIP3     9246     TIP3     H1       HT       0.417000       1.00800           0   0.00000       0.00000    
     52654 TIP3     9246     TIP3     H2       HT       0.417000       1.00800           0   0.00000     -0.301140E-02
     52655 TIP3     9247     TIP3     OH2      OT      -0.834000       15.9994           0   0.00000       0.00000    
     52656 TIP3     9247     TIP3     H1       HT       0.417000       1.00800           0   0.00000       0.00000    
     52657 TIP3     9247     TIP3     H2       HT       0.417000       1.00800           0   0.00000     -0.301140E-02
     52658 TIP3     9248     TIP3     OH2      OT      -0.834000       15.9994           0   0.00000       0.00000    
     52659 TIP3     9248     TIP3     H1       HT       0.417000       1.00800           0   0.00000       0.00000    
     52660 TIP3     9248     TIP3     H2       HT       0.417000       1.00800           0   0.00000     -0.301140E-02
     52661 TIP3     9249     TIP3     OH2      OT      -0.834000       15.9994           0   0.00000       0.00000    
     52662 TIP3     9249     TIP3     H1       HT       0.417000       1.00800           0   0.00000       0.00000    
     52663 TIP3     9249     TIP3     H2       HT       0.417000       1.00800           0   0.00000     -0.301140E-02
     52664 TIP3     9250     TIP3     OH2      OT      -0.834000       15.9994           0   0.00000       0.00000    
     52665 TIP3     9250     TIP3     H1       HT       0.417000       1.00800           0   0.00000       0.00000    
     52666 TIP3     9250     TIP3     H2       HT       0.417000       1.00800           0   0.00000     -0.301140E-02
     52667 TIP3     9251     TIP3     OH2      OT      -0.834000       15.9994           0   0.00000       0.00000    
     52668 TIP3     9251     TIP3     H1       HT       0.417000       1.00800           0   0.00000       0.00000    
     52669 TIP3     9251     TIP3     H2       HT       0.417000       1.00800           0   0.00000     -0.301140E-02
     52670 TIP3     9252     TIP3     OH2      OT      -0.834000       15.9994           0   0.00000       0.00000    
     52671 TIP3     9252     TIP3     H1       HT       0.417000       1.00800           0   0.00000       0.00000    
     52672 TIP3     9252     TIP3     H2       HT       0.417000       1.00800           0   0.00000     -0.301140E-02
     52673 TIP3     9253     TIP3     OH2      OT      -0.834000       15.9994           0   0.00000       0.00000    
     52674 TIP3     9253     TIP3     H1       HT       0.417000       1.00800           0   0.00000       0.00000    
     52675 TIP3     9253     TIP3     H2       HT       0.417000       1.00800           0   0.00000     -0.301140E-02
     52676 TIP3     9254     TIP3     OH2      OT      -0.834000       15.9994           0   0.00000       0.00000    
     52677 TIP3     9254     TIP3     H1       HT       0.417000       1.00800           0   0.00000       0.00000    
     52678 TIP3     9254     TIP3     H2       HT       0.417000       1.00800           0   0.00000     -0.301140E-02
     52679 TIP3     9255     TIP3     OH2      OT      -0.834000       15.9994           0   0.00000       0.00000    
     52680 TIP3     9255     TIP3     H1       HT       0.417000       1.00800           0   0.00000       0.00000    
     52681 TIP3     9255     TIP3     H2       HT       0.417000       1.00800           0   0.00000     -0.301140E-02
     52682 TIP3     9256     TIP3     OH2      OT      -0.834000       15.9994           0   0.00000       0.00000    
     52683 TIP3     9256     TIP3     H1       HT       0.417000       1.00800           0   0.00000       0.00000    
     52684 TIP3     9256     TIP3     H2       HT       0.417000       1.00800           0   0.00000     -0.301140E-02
     52685 TIP3     9257     TIP3     OH2      OT      -0.834000       15.9994           0   0.00000       0.00000    
     52686 TIP3     9257     TIP3     H1       HT       0.417000       1.00800           0   0.00000       0.00000    
     52687 TIP3     9257     TIP3     H2       HT       0.417000       1.00800           0   0.00000     -0.301140E-02
     52688 TIP3     9258     TIP3     OH2      OT      -0.834000       15.9994           0   0.00000       0.00000    
     52689 TIP3     9258     TIP3     H1       HT       0.417000       1.00800           0   0.00000       0.00000    
     52690 TIP3     9258     TIP3     H2       HT       0.417000       1.00800           0   0.00000     -0.301140E-02
     52691 TIP3     9259     TIP3     OH2      OT      -0.834000       15.9994           0   0.00000       0.00000    
     52692 TIP3     9259     TIP3     H1       HT       0.417000       1.00800           0   0.00000       0.00000    
     52693 TIP3     9259     TIP3     H2       HT       0.417000       1.00800           0   0.00000     -0.301140E-02
     52694 TIP3     9260     TIP3     OH2      OT      -0.834000       15.9994           0   0.00000       0.00000    
     52695 TIP3     9260     TIP3     H1       HT       0.417000       1.00800           0   0.00000       0.00000    
     52696 TIP3     9260     TIP3     H2       HT       0.417000       1.00800           0   0.00000     -0.301140E-02
     52697 TIP3     9261     TIP3     OH2      OT      -0.834000       15.9994           0   0.00000       0.00000    
     52698 TIP3     9261     TIP3     H1       HT       0.417000       1.00800           0   0.00000       0.00000    
     52699 TIP3     9261     TIP3     H2       HT       0.417000       1.00800           0   0.00000     -0.301140E-02
     52700 TIP3     9262     TIP3     OH2      OT      -0.834000       15.9994           0   0.00000       0.00000    
     52701 TIP3     9262     TIP3     H1       HT       0.417000       1.00800           0   0.00000       0.00000    
     52702 TIP3     9262     TIP3     H2       HT       0.417000       1.00800           0   0.00000     -0.301140E-02
     52703 TIP3     9263     TIP3     OH2      OT      -0.834000       15.9994           0   0.00000       0.00000    
     52704 TIP3     9263     TIP3     H1       HT       0.417000       1.00800           0   0.00000       0.00000    
     52705 TIP3     9263     TIP3     H2       HT       0.417000       1.00800           0   0.00000     -0.301140E-02
     52706 TIP3     9264     TIP3     OH2      OT      -0.834000       15.9994           0   0.00000       0.00000    
     52707 TIP3     9264     TIP3     H1       HT       0.417000       1.00800           0   0.00000       0.00000    
     52708 TIP3     9264     TIP3     H2       HT       0.417000       1.00800           0   0.00000     -0.301140E-02
     52709 TIP3     9265     TIP3     OH2      OT      -0.834000       15.9994           0   0.00000       0.00000    
     52710 TIP3     9265     TIP3     H1       HT       0.417000       1.00800           0   0.00000       0.00000    
     52711 TIP3     9265     TIP3     H2       HT       0.417000       1.00800           0   0.00000     -0.301140E-02
     52712 TIP3     9266     TIP3     OH2      OT      -0.834000       15.9994           0   0.00000       0.00000    
     52713 TIP3     9266     TIP3     H1       HT       0.417000       1.00800           0   0.00000       0.00000    
     52714 TIP3     9266     TIP3     H2       HT       0.417000       1.00800           0   0.00000     -0.301140E-02
     52715 TIP3     9267     TIP3     OH2      OT      -0.834000       15.9994           0   0.00000       0.00000    
     52716 TIP3     9267     TIP3     H1       HT       0.417000       1.00800           0   0.00000       0.00000    
     52717 TIP3     9267     TIP3     H2       HT       0.417000       1.00800           0   0.00000     -0.301140E-02
     52718 TIP3     9268     TIP3     OH2      OT      -0.834000       15.9994           0   0.00000       0.00000    
     52719 TIP3     9268     TIP3     H1       HT       0.417000       1.00800           0   0.00000       0.00000    
     52720 TIP3     9268     TIP3     H2       HT       0.417000       1.00800           0   0.00000     -0.301140E-02
     52721 TIP3     9269     TIP3     OH2      OT      -0.834000       15.9994           0   0.00000       0.00000    
     52722 TIP3     9269     TIP3     H1       HT       0.417000       1.00800           0   0.00000       0.00000    
     52723 TIP3     9269     TIP3     H2       HT       0.417000       1.00800           0   0.00000     -0.301140E-02
     52724 TIP3     9270     TIP3     OH2      OT      -0.834000       15.9994           0   0.00000       0.00000    
     52725 TIP3     9270     TIP3     H1       HT       0.417000       1.00800           0   0.00000       0.00000    
     52726 TIP3     9270     TIP3     H2       HT       0.417000       1.00800           0   0.00000     -0.301140E-02
     52727 TIP3     9271     TIP3     OH2      OT      -0.834000       15.9994           0   0.00000       0.00000    
     52728 TIP3     9271     TIP3     H1       HT       0.417000       1.00800           0   0.00000       0.00000    
     52729 TIP3     9271     TIP3     H2       HT       0.417000       1.00800           0   0.00000     -0.301140E-02
     52730 TIP3     9272     TIP3     OH2      OT      -0.834000       15.9994           0   0.00000       0.00000    
     52731 TIP3     9272     TIP3     H1       HT       0.417000       1.00800           0   0.00000       0.00000    
     52732 TIP3     9272     TIP3     H2       HT       0.417000       1.00800           0   0.00000     -0.301140E-02
     52733 TIP3     9273     TIP3     OH2      OT      -0.834000       15.9994           0   0.00000       0.00000    
     52734 TIP3     9273     TIP3     H1       HT       0.417000       1.00800           0   0.00000       0.00000    
     52735 TIP3     9273     TIP3     H2       HT       0.417000       1.00800           0   0.00000     -0.301140E-02
     52736 TIP3     9274     TIP3     OH2      OT      -0.834000       15.9994           0   0.00000       0.00000    
     52737 TIP3     9274     TIP3     H1       HT       0.417000       1.00800           0   0.00000       0.00000    
     52738 TIP3     9274     TIP3     H2       HT       0.417000       1.00800           0   0.00000     -0.301140E-02
     52739 TIP3     9275     TIP3     OH2      OT      -0.834000       15.9994           0   0.00000       0.00000    
     52740 TIP3     9275     TIP3     H1       HT       0.417000       1.00800           0   0.00000       0.00000    
     52741 TIP3     9275     TIP3     H2       HT       0.417000       1.00800           0   0.00000     -0.301140E-02
     52742 TIP3     9276     TIP3     OH2      OT      -0.834000       15.9994           0   0.00000       0.00000    
     52743 TIP3     9276     TIP3     H1       HT       0.417000       1.00800           0   0.00000       0.00000    
     52744 TIP3     9276     TIP3     H2       HT       0.417000       1.00800           0   0.00000     -0.301140E-02
     52745 TIP3     9277     TIP3     OH2      OT      -0.834000       15.9994           0   0.00000       0.00000    
     52746 TIP3     9277     TIP3     H1       HT       0.417000       1.00800           0   0.00000       0.00000    
     52747 TIP3     9277     TIP3     H2       HT       0.417000       1.00800           0   0.00000     -0.301140E-02
     52748 TIP3     9278     TIP3     OH2      OT      -0.834000       15.9994           0   0.00000       0.00000    
     52749 TIP3     9278     TIP3     H1       HT       0.417000       1.00800           0   0.00000       0.00000    
     52750 TIP3     9278     TIP3     H2       HT       0.417000       1.00800           0   0.00000     -0.301140E-02
     52751 TIP3     9279     TIP3     OH2      OT      -0.834000       15.9994           0   0.00000       0.00000    
     52752 TIP3     9279     TIP3     H1       HT       0.417000       1.00800           0   0.00000       0.00000    
     52753 TIP3     9279     TIP3     H2       HT       0.417000       1.00800           0   0.00000     -0.301140E-02
     52754 TIP3     9280     TIP3     OH2      OT      -0.834000       15.9994           0   0.00000       0.00000    
     52755 TIP3     9280     TIP3     H1       HT       0.417000       1.00800           0   0.00000       0.00000    
     52756 TIP3     9280     TIP3     H2       HT       0.417000       1.00800           0   0.00000     -0.301140E-02
     52757 TIP3     9281     TIP3     OH2      OT      -0.834000       15.9994           0   0.00000       0.00000    
     52758 TIP3     9281     TIP3     H1       HT       0.417000       1.00800           0   0.00000       0.00000    
     52759 TIP3     9281     TIP3     H2       HT       0.417000       1.00800           0   0.00000     -0.301140E-02
     52760 TIP3     9282     TIP3     OH2      OT      -0.834000       15.9994           0   0.00000       0.00000    
     52761 TIP3     9282     TIP3     H1       HT       0.417000       1.00800           0   0.00000       0.00000    
     52762 TIP3     9282     TIP3     H2       HT       0.417000       1.00800           0   0.00000     -0.301140E-02
     52763 TIP3     9283     TIP3     OH2      OT      -0.834000       15.9994           0   0.00000       0.00000    
     52764 TIP3     9283     TIP3     H1       HT       0.417000       1.00800           0   0.00000       0.00000    
     52765 TIP3     9283     TIP3     H2       HT       0.417000       1.00800           0   0.00000     -0.301140E-02
     52766 TIP3     9284     TIP3     OH2      OT      -0.834000       15.9994           0   0.00000       0.00000    
     52767 TIP3     9284     TIP3     H1       HT       0.417000       1.00800           0   0.00000       0.00000    
     52768 TIP3     9284     TIP3     H2       HT       0.417000       1.00800           0   0.00000     -0.301140E-02
     52769 TIP3     9285     TIP3     OH2      OT      -0.834000       15.9994           0   0.00000       0.00000    
     52770 TIP3     9285     TIP3     H1       HT       0.417000       1.00800           0   0.00000       0.00000    
     52771 TIP3     9285     TIP3     H2       HT       0.417000       1.00800           0   0.00000     -0.301140E-02
     52772 TIP3     9286     TIP3     OH2      OT      -0.834000       15.9994           0   0.00000       0.00000    
     52773 TIP3     9286     TIP3     H1       HT       0.417000       1.00800           0   0.00000       0.00000    
     52774 TIP3     9286     TIP3     H2       HT       0.417000       1.00800           0   0.00000     -0.301140E-02
     52775 TIP3     9287     TIP3     OH2      OT      -0.834000       15.9994           0   0.00000       0.00000    
     52776 TIP3     9287     TIP3     H1       HT       0.417000       1.00800           0   0.00000       0.00000    
     52777 TIP3     9287     TIP3     H2       HT       0.417000       1.00800           0   0.00000     -0.301140E-02
     52778 TIP3     9288     TIP3     OH2      OT      -0.834000       15.9994           0   0.00000       0.00000    
     52779 TIP3     9288     TIP3     H1       HT       0.417000       1.00800           0   0.00000       0.00000    
     52780 TIP3     9288     TIP3     H2       HT       0.417000       1.00800           0   0.00000     -0.301140E-02
     52781 TIP3     9289     TIP3     OH2      OT      -0.834000       15.9994           0   0.00000       0.00000    
     52782 TIP3     9289     TIP3     H1       HT       0.417000       1.00800           0   0.00000       0.00000    
     52783 TIP3     9289     TIP3     H2       HT       0.417000       1.00800           0   0.00000     -0.301140E-02
     52784 TIP3     9290     TIP3     OH2      OT      -0.834000       15.9994           0   0.00000       0.00000    
     52785 TIP3     9290     TIP3     H1       HT       0.417000       1.00800           0   0.00000       0.00000    
     52786 TIP3     9290     TIP3     H2       HT       0.417000       1.00800           0   0.00000     -0.301140E-02
     52787 TIP3     9291     TIP3     OH2      OT      -0.834000       15.9994           0   0.00000       0.00000    
     52788 TIP3     9291     TIP3     H1       HT       0.417000       1.00800           0   0.00000       0.00000    
     52789 TIP3     9291     TIP3     H2       HT       0.417000       1.00800           0   0.00000     -0.301140E-02
     52790 TIP3     9292     TIP3     OH2      OT      -0.834000       15.9994           0   0.00000       0.00000    
     52791 TIP3     9292     TIP3     H1       HT       0.417000       1.00800           0   0.00000       0.00000    
     52792 TIP3     9292     TIP3     H2       HT       0.417000       1.00800           0   0.00000     -0.301140E-02
     52793 TIP3     9293     TIP3     OH2      OT      -0.834000       15.9994           0   0.00000       0.00000    
     52794 TIP3     9293     TIP3     H1       HT       0.417000       1.00800           0   0.00000       0.00000    
     52795 TIP3     9293     TIP3     H2       HT       0.417000       1.00800           0   0.00000     -0.301140E-02
     52796 TIP3     9294     TIP3     OH2      OT      -0.834000       15.9994           0   0.00000       0.00000    
     52797 TIP3     9294     TIP3     H1       HT       0.417000       1.00800           0   0.00000       0.00000    
     52798 TIP3     9294     TIP3     H2       HT       0.417000       1.00800           0   0.00000     -0.301140E-02
     52799 TIP3     9295     TIP3     OH2      OT      -0.834000       15.9994           0   0.00000       0.00000    
     52800 TIP3     9295     TIP3     H1       HT       0.417000       1.00800           0   0.00000       0.00000    
     52801 TIP3     9295     TIP3     H2       HT       0.417000       1.00800           0   0.00000     -0.301140E-02
     52802 TIP3     9296     TIP3     OH2      OT      -0.834000       15.9994           0   0.00000       0.00000    
     52803 TIP3     9296     TIP3     H1       HT       0.417000       1.00800           0   0.00000       0.00000    
     52804 TIP3     9296     TIP3     H2       HT       0.417000       1.00800           0   0.00000     -0.301140E-02
     52805 TIP3     9297     TIP3     OH2      OT      -0.834000       15.9994           0   0.00000       0.00000    
     52806 TIP3     9297     TIP3     H1       HT       0.417000       1.00800           0   0.00000       0.00000    
     52807 TIP3     9297     TIP3     H2       HT       0.417000       1.00800           0   0.00000     -0.301140E-02
     52808 TIP3     9298     TIP3     OH2      OT      -0.834000       15.9994           0   0.00000       0.00000    
     52809 TIP3     9298     TIP3     H1       HT       0.417000       1.00800           0   0.00000       0.00000    
     52810 TIP3     9298     TIP3     H2       HT       0.417000       1.00800           0   0.00000     -0.301140E-02
     52811 TIP3     9299     TIP3     OH2      OT      -0.834000       15.9994           0   0.00000       0.00000    
     52812 TIP3     9299     TIP3     H1       HT       0.417000       1.00800           0   0.00000       0.00000    
     52813 TIP3     9299     TIP3     H2       HT       0.417000       1.00800           0   0.00000     -0.301140E-02
     52814 TIP3     9300     TIP3     OH2      OT      -0.834000       15.9994           0   0.00000       0.00000    
     52815 TIP3     9300     TIP3     H1       HT       0.417000       1.00800           0   0.00000       0.00000    
     52816 TIP3     9300     TIP3     H2       HT       0.417000       1.00800           0   0.00000     -0.301140E-02
     52817 TIP3     9301     TIP3     OH2      OT      -0.834000       15.9994           0   0.00000       0.00000    
     52818 TIP3     9301     TIP3     H1       HT       0.417000       1.00800           0   0.00000       0.00000    
     52819 TIP3     9301     TIP3     H2       HT       0.417000       1.00800           0   0.00000     -0.301140E-02
     52820 TIP3     9302     TIP3     OH2      OT      -0.834000       15.9994           0   0.00000       0.00000    
     52821 TIP3     9302     TIP3     H1       HT       0.417000       1.00800           0   0.00000       0.00000    
     52822 TIP3     9302     TIP3     H2       HT       0.417000       1.00800           0   0.00000     -0.301140E-02
     52823 TIP3     9303     TIP3     OH2      OT      -0.834000       15.9994           0   0.00000       0.00000    
     52824 TIP3     9303     TIP3     H1       HT       0.417000       1.00800           0   0.00000       0.00000    
     52825 TIP3     9303     TIP3     H2       HT       0.417000       1.00800           0   0.00000     -0.301140E-02
     52826 TIP3     9304     TIP3     OH2      OT      -0.834000       15.9994           0   0.00000       0.00000    
     52827 TIP3     9304     TIP3     H1       HT       0.417000       1.00800           0   0.00000       0.00000    
     52828 TIP3     9304     TIP3     H2       HT       0.417000       1.00800           0   0.00000     -0.301140E-02
     52829 TIP3     9305     TIP3     OH2      OT      -0.834000       15.9994           0   0.00000       0.00000    
     52830 TIP3     9305     TIP3     H1       HT       0.417000       1.00800           0   0.00000       0.00000    
     52831 TIP3     9305     TIP3     H2       HT       0.417000       1.00800           0   0.00000     -0.301140E-02
     52832 TIP3     9306     TIP3     OH2      OT      -0.834000       15.9994           0   0.00000       0.00000    
     52833 TIP3     9306     TIP3     H1       HT       0.417000       1.00800           0   0.00000       0.00000    
     52834 TIP3     9306     TIP3     H2       HT       0.417000       1.00800           0   0.00000     -0.301140E-02
     52835 TIP3     9307     TIP3     OH2      OT      -0.834000       15.9994           0   0.00000       0.00000    
     52836 TIP3     9307     TIP3     H1       HT       0.417000       1.00800           0   0.00000       0.00000    
     52837 TIP3     9307     TIP3     H2       HT       0.417000       1.00800           0   0.00000     -0.301140E-02
     52838 TIP3     9308     TIP3     OH2      OT      -0.834000       15.9994           0   0.00000       0.00000    
     52839 TIP3     9308     TIP3     H1       HT       0.417000       1.00800           0   0.00000       0.00000    
     52840 TIP3     9308     TIP3     H2       HT       0.417000       1.00800           0   0.00000     -0.301140E-02
     52841 TIP3     9309     TIP3     OH2      OT      -0.834000       15.9994           0   0.00000       0.00000    
     52842 TIP3     9309     TIP3     H1       HT       0.417000       1.00800           0   0.00000       0.00000    
     52843 TIP3     9309     TIP3     H2       HT       0.417000       1.00800           0   0.00000     -0.301140E-02
     52844 TIP3     9310     TIP3     OH2      OT      -0.834000       15.9994           0   0.00000       0.00000    
     52845 TIP3     9310     TIP3     H1       HT       0.417000       1.00800           0   0.00000       0.00000    
     52846 TIP3     9310     TIP3     H2       HT       0.417000       1.00800           0   0.00000     -0.301140E-02
     52847 TIP3     9311     TIP3     OH2      OT      -0.834000       15.9994           0   0.00000       0.00000    
     52848 TIP3     9311     TIP3     H1       HT       0.417000       1.00800           0   0.00000       0.00000    
     52849 TIP3     9311     TIP3     H2       HT       0.417000       1.00800           0   0.00000     -0.301140E-02
     52850 TIP3     9312     TIP3     OH2      OT      -0.834000       15.9994           0   0.00000       0.00000    
     52851 TIP3     9312     TIP3     H1       HT       0.417000       1.00800           0   0.00000       0.00000    
     52852 TIP3     9312     TIP3     H2       HT       0.417000       1.00800           0   0.00000     -0.301140E-02
     52853 TIP3     9313     TIP3     OH2      OT      -0.834000       15.9994           0   0.00000       0.00000    
     52854 TIP3     9313     TIP3     H1       HT       0.417000       1.00800           0   0.00000       0.00000    
     52855 TIP3     9313     TIP3     H2       HT       0.417000       1.00800           0   0.00000     -0.301140E-02
     52856 TIP3     9314     TIP3     OH2      OT      -0.834000       15.9994           0   0.00000       0.00000    
     52857 TIP3     9314     TIP3     H1       HT       0.417000       1.00800           0   0.00000       0.00000    
     52858 TIP3     9314     TIP3     H2       HT       0.417000       1.00800           0   0.00000     -0.301140E-02
     52859 TIP3     9315     TIP3     OH2      OT      -0.834000       15.9994           0   0.00000       0.00000    
     52860 TIP3     9315     TIP3     H1       HT       0.417000       1.00800           0   0.00000       0.00000    
     52861 TIP3     9315     TIP3     H2       HT       0.417000       1.00800           0   0.00000     -0.301140E-02
     52862 TIP3     9316     TIP3     OH2      OT      -0.834000       15.9994           0   0.00000       0.00000    
     52863 TIP3     9316     TIP3     H1       HT       0.417000       1.00800           0   0.00000       0.00000    
     52864 TIP3     9316     TIP3     H2       HT       0.417000       1.00800           0   0.00000     -0.301140E-02
     52865 TIP3     9317     TIP3     OH2      OT      -0.834000       15.9994           0   0.00000       0.00000    
     52866 TIP3     9317     TIP3     H1       HT       0.417000       1.00800           0   0.00000       0.00000    
     52867 TIP3     9317     TIP3     H2       HT       0.417000       1.00800           0   0.00000     -0.301140E-02
     52868 TIP3     9318     TIP3     OH2      OT      -0.834000       15.9994           0   0.00000       0.00000    
     52869 TIP3     9318     TIP3     H1       HT       0.417000       1.00800           0   0.00000       0.00000    
     52870 TIP3     9318     TIP3     H2       HT       0.417000       1.00800           0   0.00000     -0.301140E-02
     52871 TIP3     9319     TIP3     OH2      OT      -0.834000       15.9994           0   0.00000       0.00000    
     52872 TIP3     9319     TIP3     H1       HT       0.417000       1.00800           0   0.00000       0.00000    
     52873 TIP3     9319     TIP3     H2       HT       0.417000       1.00800           0   0.00000     -0.301140E-02
     52874 TIP3     9320     TIP3     OH2      OT      -0.834000       15.9994           0   0.00000       0.00000    
     52875 TIP3     9320     TIP3     H1       HT       0.417000       1.00800           0   0.00000       0.00000    
     52876 TIP3     9320     TIP3     H2       HT       0.417000       1.00800           0   0.00000     -0.301140E-02
     52877 TIP3     9321     TIP3     OH2      OT      -0.834000       15.9994           0   0.00000       0.00000    
     52878 TIP3     9321     TIP3     H1       HT       0.417000       1.00800           0   0.00000       0.00000    
     52879 TIP3     9321     TIP3     H2       HT       0.417000       1.00800           0   0.00000     -0.301140E-02
     52880 TIP3     9322     TIP3     OH2      OT      -0.834000       15.9994           0   0.00000       0.00000    
     52881 TIP3     9322     TIP3     H1       HT       0.417000       1.00800           0   0.00000       0.00000    
     52882 TIP3     9322     TIP3     H2       HT       0.417000       1.00800           0   0.00000     -0.301140E-02
     52883 TIP3     9323     TIP3     OH2      OT      -0.834000       15.9994           0   0.00000       0.00000    
     52884 TIP3     9323     TIP3     H1       HT       0.417000       1.00800           0   0.00000       0.00000    
     52885 TIP3     9323     TIP3     H2       HT       0.417000       1.00800           0   0.00000     -0.301140E-02
     52886 TIP3     9324     TIP3     OH2      OT      -0.834000       15.9994           0   0.00000       0.00000    
     52887 TIP3     9324     TIP3     H1       HT       0.417000       1.00800           0   0.00000       0.00000    
     52888 TIP3     9324     TIP3     H2       HT       0.417000       1.00800           0   0.00000     -0.301140E-02
     52889 TIP3     9325     TIP3     OH2      OT      -0.834000       15.9994           0   0.00000       0.00000    
     52890 TIP3     9325     TIP3     H1       HT       0.417000       1.00800           0   0.00000       0.00000    
     52891 TIP3     9325     TIP3     H2       HT       0.417000       1.00800           0   0.00000     -0.301140E-02
     52892 TIP3     9326     TIP3     OH2      OT      -0.834000       15.9994           0   0.00000       0.00000    
     52893 TIP3     9326     TIP3     H1       HT       0.417000       1.00800           0   0.00000       0.00000    
     52894 TIP3     9326     TIP3     H2       HT       0.417000       1.00800           0   0.00000     -0.301140E-02
     52895 TIP3     9327     TIP3     OH2      OT      -0.834000       15.9994           0   0.00000       0.00000    
     52896 TIP3     9327     TIP3     H1       HT       0.417000       1.00800           0   0.00000       0.00000    
     52897 TIP3     9327     TIP3     H2       HT       0.417000       1.00800           0   0.00000     -0.301140E-02
     52898 TIP3     9328     TIP3     OH2      OT      -0.834000       15.9994           0   0.00000       0.00000    
     52899 TIP3     9328     TIP3     H1       HT       0.417000       1.00800           0   0.00000       0.00000    
     52900 TIP3     9328     TIP3     H2       HT       0.417000       1.00800           0   0.00000     -0.301140E-02
     52901 TIP3     9329     TIP3     OH2      OT      -0.834000       15.9994           0   0.00000       0.00000    
     52902 TIP3     9329     TIP3     H1       HT       0.417000       1.00800           0   0.00000       0.00000    
     52903 TIP3     9329     TIP3     H2       HT       0.417000       1.00800           0   0.00000     -0.301140E-02
     52904 TIP3     9330     TIP3     OH2      OT      -0.834000       15.9994           0   0.00000       0.00000    
     52905 TIP3     9330     TIP3     H1       HT       0.417000       1.00800           0   0.00000       0.00000    
     52906 TIP3     9330     TIP3     H2       HT       0.417000       1.00800           0   0.00000     -0.301140E-02
     52907 TIP3     9331     TIP3     OH2      OT      -0.834000       15.9994           0   0.00000       0.00000    
     52908 TIP3     9331     TIP3     H1       HT       0.417000       1.00800           0   0.00000       0.00000    
     52909 TIP3     9331     TIP3     H2       HT       0.417000       1.00800           0   0.00000     -0.301140E-02
     52910 TIP3     9332     TIP3     OH2      OT      -0.834000       15.9994           0   0.00000       0.00000    
     52911 TIP3     9332     TIP3     H1       HT       0.417000       1.00800           0   0.00000       0.00000    
     52912 TIP3     9332     TIP3     H2       HT       0.417000       1.00800           0   0.00000     -0.301140E-02
     52913 TIP3     9333     TIP3     OH2      OT      -0.834000       15.9994           0   0.00000       0.00000    
     52914 TIP3     9333     TIP3     H1       HT       0.417000       1.00800           0   0.00000       0.00000    
     52915 TIP3     9333     TIP3     H2       HT       0.417000       1.00800           0   0.00000     -0.301140E-02
     52916 TIP3     9334     TIP3     OH2      OT      -0.834000       15.9994           0   0.00000       0.00000    
     52917 TIP3     9334     TIP3     H1       HT       0.417000       1.00800           0   0.00000       0.00000    
     52918 TIP3     9334     TIP3     H2       HT       0.417000       1.00800           0   0.00000     -0.301140E-02
     52919 TIP3     9335     TIP3     OH2      OT      -0.834000       15.9994           0   0.00000       0.00000    
     52920 TIP3     9335     TIP3     H1       HT       0.417000       1.00800           0   0.00000       0.00000    
     52921 TIP3     9335     TIP3     H2       HT       0.417000       1.00800           0   0.00000     -0.301140E-02
     52922 TIP3     9336     TIP3     OH2      OT      -0.834000       15.9994           0   0.00000       0.00000    
     52923 TIP3     9336     TIP3     H1       HT       0.417000       1.00800           0   0.00000       0.00000    
     52924 TIP3     9336     TIP3     H2       HT       0.417000       1.00800           0   0.00000     -0.301140E-02
     52925 TIP3     9337     TIP3     OH2      OT      -0.834000       15.9994           0   0.00000       0.00000    
     52926 TIP3     9337     TIP3     H1       HT       0.417000       1.00800           0   0.00000       0.00000    
     52927 TIP3     9337     TIP3     H2       HT       0.417000       1.00800           0   0.00000     -0.301140E-02
     52928 TIP3     9338     TIP3     OH2      OT      -0.834000       15.9994           0   0.00000       0.00000    
     52929 TIP3     9338     TIP3     H1       HT       0.417000       1.00800           0   0.00000       0.00000    
     52930 TIP3     9338     TIP3     H2       HT       0.417000       1.00800           0   0.00000     -0.301140E-02
     52931 TIP3     9339     TIP3     OH2      OT      -0.834000       15.9994           0   0.00000       0.00000    
     52932 TIP3     9339     TIP3     H1       HT       0.417000       1.00800           0   0.00000       0.00000    
     52933 TIP3     9339     TIP3     H2       HT       0.417000       1.00800           0   0.00000     -0.301140E-02
     52934 TIP3     9340     TIP3     OH2      OT      -0.834000       15.9994           0   0.00000       0.00000    
     52935 TIP3     9340     TIP3     H1       HT       0.417000       1.00800           0   0.00000       0.00000    
     52936 TIP3     9340     TIP3     H2       HT       0.417000       1.00800           0   0.00000     -0.301140E-02
     52937 TIP3     9341     TIP3     OH2      OT      -0.834000       15.9994           0   0.00000       0.00000    
     52938 TIP3     9341     TIP3     H1       HT       0.417000       1.00800           0   0.00000       0.00000    
     52939 TIP3     9341     TIP3     H2       HT       0.417000       1.00800           0   0.00000     -0.301140E-02
     52940 TIP3     9342     TIP3     OH2      OT      -0.834000       15.9994           0   0.00000       0.00000    
     52941 TIP3     9342     TIP3     H1       HT       0.417000       1.00800           0   0.00000       0.00000    
     52942 TIP3     9342     TIP3     H2       HT       0.417000       1.00800           0   0.00000     -0.301140E-02
     52943 TIP3     9343     TIP3     OH2      OT      -0.834000       15.9994           0   0.00000       0.00000    
     52944 TIP3     9343     TIP3     H1       HT       0.417000       1.00800           0   0.00000       0.00000    
     52945 TIP3     9343     TIP3     H2       HT       0.417000       1.00800           0   0.00000     -0.301140E-02
     52946 TIP3     9344     TIP3     OH2      OT      -0.834000       15.9994           0   0.00000       0.00000    
     52947 TIP3     9344     TIP3     H1       HT       0.417000       1.00800           0   0.00000       0.00000    
     52948 TIP3     9344     TIP3     H2       HT       0.417000       1.00800           0   0.00000     -0.301140E-02
     52949 TIP3     9345     TIP3     OH2      OT      -0.834000       15.9994           0   0.00000       0.00000    
     52950 TIP3     9345     TIP3     H1       HT       0.417000       1.00800           0   0.00000       0.00000    
     52951 TIP3     9345     TIP3     H2       HT       0.417000       1.00800           0   0.00000     -0.301140E-02
     52952 TIP3     9346     TIP3     OH2      OT      -0.834000       15.9994           0   0.00000       0.00000    
     52953 TIP3     9346     TIP3     H1       HT       0.417000       1.00800           0   0.00000       0.00000    
     52954 TIP3     9346     TIP3     H2       HT       0.417000       1.00800           0   0.00000     -0.301140E-02
     52955 TIP3     9347     TIP3     OH2      OT      -0.834000       15.9994           0   0.00000       0.00000    
     52956 TIP3     9347     TIP3     H1       HT       0.417000       1.00800           0   0.00000       0.00000    
     52957 TIP3     9347     TIP3     H2       HT       0.417000       1.00800           0   0.00000     -0.301140E-02
     52958 TIP3     9348     TIP3     OH2      OT      -0.834000       15.9994           0   0.00000       0.00000    
     52959 TIP3     9348     TIP3     H1       HT       0.417000       1.00800           0   0.00000       0.00000    
     52960 TIP3     9348     TIP3     H2       HT       0.417000       1.00800           0   0.00000     -0.301140E-02
     52961 TIP3     9349     TIP3     OH2      OT      -0.834000       15.9994           0   0.00000       0.00000    
     52962 TIP3     9349     TIP3     H1       HT       0.417000       1.00800           0   0.00000       0.00000    
     52963 TIP3     9349     TIP3     H2       HT       0.417000       1.00800           0   0.00000     -0.301140E-02
     52964 TIP3     9350     TIP3     OH2      OT      -0.834000       15.9994           0   0.00000       0.00000    
     52965 TIP3     9350     TIP3     H1       HT       0.417000       1.00800           0   0.00000       0.00000    
     52966 TIP3     9350     TIP3     H2       HT       0.417000       1.00800           0   0.00000     -0.301140E-02
     52967 TIP3     9351     TIP3     OH2      OT      -0.834000       15.9994           0   0.00000       0.00000    
     52968 TIP3     9351     TIP3     H1       HT       0.417000       1.00800           0   0.00000       0.00000    
     52969 TIP3     9351     TIP3     H2       HT       0.417000       1.00800           0   0.00000     -0.301140E-02
     52970 TIP3     9352     TIP3     OH2      OT      -0.834000       15.9994           0   0.00000       0.00000    
     52971 TIP3     9352     TIP3     H1       HT       0.417000       1.00800           0   0.00000       0.00000    
     52972 TIP3     9352     TIP3     H2       HT       0.417000       1.00800           0   0.00000     -0.301140E-02
     52973 TIP3     9353     TIP3     OH2      OT      -0.834000       15.9994           0   0.00000       0.00000    
     52974 TIP3     9353     TIP3     H1       HT       0.417000       1.00800           0   0.00000       0.00000    
     52975 TIP3     9353     TIP3     H2       HT       0.417000       1.00800           0   0.00000     -0.301140E-02
     52976 TIP3     9354     TIP3     OH2      OT      -0.834000       15.9994           0   0.00000       0.00000    
     52977 TIP3     9354     TIP3     H1       HT       0.417000       1.00800           0   0.00000       0.00000    
     52978 TIP3     9354     TIP3     H2       HT       0.417000       1.00800           0   0.00000     -0.301140E-02
     52979 TIP3     9355     TIP3     OH2      OT      -0.834000       15.9994           0   0.00000       0.00000    
     52980 TIP3     9355     TIP3     H1       HT       0.417000       1.00800           0   0.00000       0.00000    
     52981 TIP3     9355     TIP3     H2       HT       0.417000       1.00800           0   0.00000     -0.301140E-02
     52982 TIP3     9356     TIP3     OH2      OT      -0.834000       15.9994           0   0.00000       0.00000    
     52983 TIP3     9356     TIP3     H1       HT       0.417000       1.00800           0   0.00000       0.00000    
     52984 TIP3     9356     TIP3     H2       HT       0.417000       1.00800           0   0.00000     -0.301140E-02
     52985 TIP3     9357     TIP3     OH2      OT      -0.834000       15.9994           0   0.00000       0.00000    
     52986 TIP3     9357     TIP3     H1       HT       0.417000       1.00800           0   0.00000       0.00000    
     52987 TIP3     9357     TIP3     H2       HT       0.417000       1.00800           0   0.00000     -0.301140E-02
     52988 TIP3     9358     TIP3     OH2      OT      -0.834000       15.9994           0   0.00000       0.00000    
     52989 TIP3     9358     TIP3     H1       HT       0.417000       1.00800           0   0.00000       0.00000    
     52990 TIP3     9358     TIP3     H2       HT       0.417000       1.00800           0   0.00000     -0.301140E-02
     52991 TIP3     9359     TIP3     OH2      OT      -0.834000       15.9994           0   0.00000       0.00000    
     52992 TIP3     9359     TIP3     H1       HT       0.417000       1.00800           0   0.00000       0.00000    
     52993 TIP3     9359     TIP3     H2       HT       0.417000       1.00800           0   0.00000     -0.301140E-02
     52994 TIP3     9360     TIP3     OH2      OT      -0.834000       15.9994           0   0.00000       0.00000    
     52995 TIP3     9360     TIP3     H1       HT       0.417000       1.00800           0   0.00000       0.00000    
     52996 TIP3     9360     TIP3     H2       HT       0.417000       1.00800           0   0.00000     -0.301140E-02
     52997 TIP3     9361     TIP3     OH2      OT      -0.834000       15.9994           0   0.00000       0.00000    
     52998 TIP3     9361     TIP3     H1       HT       0.417000       1.00800           0   0.00000       0.00000    
     52999 TIP3     9361     TIP3     H2       HT       0.417000       1.00800           0   0.00000     -0.301140E-02
     53000 TIP3     9362     TIP3     OH2      OT      -0.834000       15.9994           0   0.00000       0.00000    
     53001 TIP3     9362     TIP3     H1       HT       0.417000       1.00800           0   0.00000       0.00000    
     53002 TIP3     9362     TIP3     H2       HT       0.417000       1.00800           0   0.00000     -0.301140E-02
     53003 TIP3     9363     TIP3     OH2      OT      -0.834000       15.9994           0   0.00000       0.00000    
     53004 TIP3     9363     TIP3     H1       HT       0.417000       1.00800           0   0.00000       0.00000    
     53005 TIP3     9363     TIP3     H2       HT       0.417000       1.00800           0   0.00000     -0.301140E-02
     53006 TIP3     9364     TIP3     OH2      OT      -0.834000       15.9994           0   0.00000       0.00000    
     53007 TIP3     9364     TIP3     H1       HT       0.417000       1.00800           0   0.00000       0.00000    
     53008 TIP3     9364     TIP3     H2       HT       0.417000       1.00800           0   0.00000     -0.301140E-02
     53009 TIP3     9365     TIP3     OH2      OT      -0.834000       15.9994           0   0.00000       0.00000    
     53010 TIP3     9365     TIP3     H1       HT       0.417000       1.00800           0   0.00000       0.00000    
     53011 TIP3     9365     TIP3     H2       HT       0.417000       1.00800           0   0.00000     -0.301140E-02
     53012 TIP3     9366     TIP3     OH2      OT      -0.834000       15.9994           0   0.00000       0.00000    
     53013 TIP3     9366     TIP3     H1       HT       0.417000       1.00800           0   0.00000       0.00000    
     53014 TIP3     9366     TIP3     H2       HT       0.417000       1.00800           0   0.00000     -0.301140E-02
     53015 TIP3     9367     TIP3     OH2      OT      -0.834000       15.9994           0   0.00000       0.00000    
     53016 TIP3     9367     TIP3     H1       HT       0.417000       1.00800           0   0.00000       0.00000    
     53017 TIP3     9367     TIP3     H2       HT       0.417000       1.00800           0   0.00000     -0.301140E-02
     53018 TIP3     9368     TIP3     OH2      OT      -0.834000       15.9994           0   0.00000       0.00000    
     53019 TIP3     9368     TIP3     H1       HT       0.417000       1.00800           0   0.00000       0.00000    
     53020 TIP3     9368     TIP3     H2       HT       0.417000       1.00800           0   0.00000     -0.301140E-02
     53021 TIP3     9369     TIP3     OH2      OT      -0.834000       15.9994           0   0.00000       0.00000    
     53022 TIP3     9369     TIP3     H1       HT       0.417000       1.00800           0   0.00000       0.00000    
     53023 TIP3     9369     TIP3     H2       HT       0.417000       1.00800           0   0.00000     -0.301140E-02
     53024 TIP3     9370     TIP3     OH2      OT      -0.834000       15.9994           0   0.00000       0.00000    
     53025 TIP3     9370     TIP3     H1       HT       0.417000       1.00800           0   0.00000       0.00000    
     53026 TIP3     9370     TIP3     H2       HT       0.417000       1.00800           0   0.00000     -0.301140E-02
     53027 TIP3     9371     TIP3     OH2      OT      -0.834000       15.9994           0   0.00000       0.00000    
     53028 TIP3     9371     TIP3     H1       HT       0.417000       1.00800           0   0.00000       0.00000    
     53029 TIP3     9371     TIP3     H2       HT       0.417000       1.00800           0   0.00000     -0.301140E-02
     53030 TIP3     9372     TIP3     OH2      OT      -0.834000       15.9994           0   0.00000       0.00000    
     53031 TIP3     9372     TIP3     H1       HT       0.417000       1.00800           0   0.00000       0.00000    
     53032 TIP3     9372     TIP3     H2       HT       0.417000       1.00800           0   0.00000     -0.301140E-02
     53033 TIP3     9373     TIP3     OH2      OT      -0.834000       15.9994           0   0.00000       0.00000    
     53034 TIP3     9373     TIP3     H1       HT       0.417000       1.00800           0   0.00000       0.00000    
     53035 TIP3     9373     TIP3     H2       HT       0.417000       1.00800           0   0.00000     -0.301140E-02
     53036 TIP3     9374     TIP3     OH2      OT      -0.834000       15.9994           0   0.00000       0.00000    
     53037 TIP3     9374     TIP3     H1       HT       0.417000       1.00800           0   0.00000       0.00000    
     53038 TIP3     9374     TIP3     H2       HT       0.417000       1.00800           0   0.00000     -0.301140E-02
     53039 TIP3     9375     TIP3     OH2      OT      -0.834000       15.9994           0   0.00000       0.00000    
     53040 TIP3     9375     TIP3     H1       HT       0.417000       1.00800           0   0.00000       0.00000    
     53041 TIP3     9375     TIP3     H2       HT       0.417000       1.00800           0   0.00000     -0.301140E-02
     53042 TIP3     9376     TIP3     OH2      OT      -0.834000       15.9994           0   0.00000       0.00000    
     53043 TIP3     9376     TIP3     H1       HT       0.417000       1.00800           0   0.00000       0.00000    
     53044 TIP3     9376     TIP3     H2       HT       0.417000       1.00800           0   0.00000     -0.301140E-02
     53045 TIP3     9377     TIP3     OH2      OT      -0.834000       15.9994           0   0.00000       0.00000    
     53046 TIP3     9377     TIP3     H1       HT       0.417000       1.00800           0   0.00000       0.00000    
     53047 TIP3     9377     TIP3     H2       HT       0.417000       1.00800           0   0.00000     -0.301140E-02
     53048 TIP3     9378     TIP3     OH2      OT      -0.834000       15.9994           0   0.00000       0.00000    
     53049 TIP3     9378     TIP3     H1       HT       0.417000       1.00800           0   0.00000       0.00000    
     53050 TIP3     9378     TIP3     H2       HT       0.417000       1.00800           0   0.00000     -0.301140E-02
     53051 TIP3     9379     TIP3     OH2      OT      -0.834000       15.9994           0   0.00000       0.00000    
     53052 TIP3     9379     TIP3     H1       HT       0.417000       1.00800           0   0.00000       0.00000    
     53053 TIP3     9379     TIP3     H2       HT       0.417000       1.00800           0   0.00000     -0.301140E-02
     53054 TIP3     9380     TIP3     OH2      OT      -0.834000       15.9994           0   0.00000       0.00000    
     53055 TIP3     9380     TIP3     H1       HT       0.417000       1.00800           0   0.00000       0.00000    
     53056 TIP3     9380     TIP3     H2       HT       0.417000       1.00800           0   0.00000     -0.301140E-02
     53057 TIP3     9381     TIP3     OH2      OT      -0.834000       15.9994           0   0.00000       0.00000    
     53058 TIP3     9381     TIP3     H1       HT       0.417000       1.00800           0   0.00000       0.00000    
     53059 TIP3     9381     TIP3     H2       HT       0.417000       1.00800           0   0.00000     -0.301140E-02
     53060 TIP3     9382     TIP3     OH2      OT      -0.834000       15.9994           0   0.00000       0.00000    
     53061 TIP3     9382     TIP3     H1       HT       0.417000       1.00800           0   0.00000       0.00000    
     53062 TIP3     9382     TIP3     H2       HT       0.417000       1.00800           0   0.00000     -0.301140E-02
     53063 TIP3     9383     TIP3     OH2      OT      -0.834000       15.9994           0   0.00000       0.00000    
     53064 TIP3     9383     TIP3     H1       HT       0.417000       1.00800           0   0.00000       0.00000    
     53065 TIP3     9383     TIP3     H2       HT       0.417000       1.00800           0   0.00000     -0.301140E-02
     53066 TIP3     9384     TIP3     OH2      OT      -0.834000       15.9994           0   0.00000       0.00000    
     53067 TIP3     9384     TIP3     H1       HT       0.417000       1.00800           0   0.00000       0.00000    
     53068 TIP3     9384     TIP3     H2       HT       0.417000       1.00800           0   0.00000     -0.301140E-02
     53069 TIP3     9385     TIP3     OH2      OT      -0.834000       15.9994           0   0.00000       0.00000    
     53070 TIP3     9385     TIP3     H1       HT       0.417000       1.00800           0   0.00000       0.00000    
     53071 TIP3     9385     TIP3     H2       HT       0.417000       1.00800           0   0.00000     -0.301140E-02
     53072 TIP3     9386     TIP3     OH2      OT      -0.834000       15.9994           0   0.00000       0.00000    
     53073 TIP3     9386     TIP3     H1       HT       0.417000       1.00800           0   0.00000       0.00000    
     53074 TIP3     9386     TIP3     H2       HT       0.417000       1.00800           0   0.00000     -0.301140E-02
     53075 TIP3     9387     TIP3     OH2      OT      -0.834000       15.9994           0   0.00000       0.00000    
     53076 TIP3     9387     TIP3     H1       HT       0.417000       1.00800           0   0.00000       0.00000    
     53077 TIP3     9387     TIP3     H2       HT       0.417000       1.00800           0   0.00000     -0.301140E-02
     53078 TIP3     9388     TIP3     OH2      OT      -0.834000       15.9994           0   0.00000       0.00000    
     53079 TIP3     9388     TIP3     H1       HT       0.417000       1.00800           0   0.00000       0.00000    
     53080 TIP3     9388     TIP3     H2       HT       0.417000       1.00800           0   0.00000     -0.301140E-02
     53081 TIP3     9389     TIP3     OH2      OT      -0.834000       15.9994           0   0.00000       0.00000    
     53082 TIP3     9389     TIP3     H1       HT       0.417000       1.00800           0   0.00000       0.00000    
     53083 TIP3     9389     TIP3     H2       HT       0.417000       1.00800           0   0.00000     -0.301140E-02
     53084 TIP3     9390     TIP3     OH2      OT      -0.834000       15.9994           0   0.00000       0.00000    
     53085 TIP3     9390     TIP3     H1       HT       0.417000       1.00800           0   0.00000       0.00000    
     53086 TIP3     9390     TIP3     H2       HT       0.417000       1.00800           0   0.00000     -0.301140E-02
     53087 TIP3     9391     TIP3     OH2      OT      -0.834000       15.9994           0   0.00000       0.00000    
     53088 TIP3     9391     TIP3     H1       HT       0.417000       1.00800           0   0.00000       0.00000    
     53089 TIP3     9391     TIP3     H2       HT       0.417000       1.00800           0   0.00000     -0.301140E-02
     53090 TIP3     9392     TIP3     OH2      OT      -0.834000       15.9994           0   0.00000       0.00000    
     53091 TIP3     9392     TIP3     H1       HT       0.417000       1.00800           0   0.00000       0.00000    
     53092 TIP3     9392     TIP3     H2       HT       0.417000       1.00800           0   0.00000     -0.301140E-02
     53093 TIP3     9393     TIP3     OH2      OT      -0.834000       15.9994           0   0.00000       0.00000    
     53094 TIP3     9393     TIP3     H1       HT       0.417000       1.00800           0   0.00000       0.00000    
     53095 TIP3     9393     TIP3     H2       HT       0.417000       1.00800           0   0.00000     -0.301140E-02
     53096 TIP3     9394     TIP3     OH2      OT      -0.834000       15.9994           0   0.00000       0.00000    
     53097 TIP3     9394     TIP3     H1       HT       0.417000       1.00800           0   0.00000       0.00000    
     53098 TIP3     9394     TIP3     H2       HT       0.417000       1.00800           0   0.00000     -0.301140E-02
     53099 TIP3     9395     TIP3     OH2      OT      -0.834000       15.9994           0   0.00000       0.00000    
     53100 TIP3     9395     TIP3     H1       HT       0.417000       1.00800           0   0.00000       0.00000    
     53101 TIP3     9395     TIP3     H2       HT       0.417000       1.00800           0   0.00000     -0.301140E-02
     53102 TIP3     9396     TIP3     OH2      OT      -0.834000       15.9994           0   0.00000       0.00000    
     53103 TIP3     9396     TIP3     H1       HT       0.417000       1.00800           0   0.00000       0.00000    
     53104 TIP3     9396     TIP3     H2       HT       0.417000       1.00800           0   0.00000     -0.301140E-02
     53105 TIP3     9397     TIP3     OH2      OT      -0.834000       15.9994           0   0.00000       0.00000    
     53106 TIP3     9397     TIP3     H1       HT       0.417000       1.00800           0   0.00000       0.00000    
     53107 TIP3     9397     TIP3     H2       HT       0.417000       1.00800           0   0.00000     -0.301140E-02
     53108 TIP3     9398     TIP3     OH2      OT      -0.834000       15.9994           0   0.00000       0.00000    
     53109 TIP3     9398     TIP3     H1       HT       0.417000       1.00800           0   0.00000       0.00000    
     53110 TIP3     9398     TIP3     H2       HT       0.417000       1.00800           0   0.00000     -0.301140E-02
     53111 TIP3     9399     TIP3     OH2      OT      -0.834000       15.9994           0   0.00000       0.00000    
     53112 TIP3     9399     TIP3     H1       HT       0.417000       1.00800           0   0.00000       0.00000    
     53113 TIP3     9399     TIP3     H2       HT       0.417000       1.00800           0   0.00000     -0.301140E-02
     53114 TIP3     9400     TIP3     OH2      OT      -0.834000       15.9994           0   0.00000       0.00000    
     53115 TIP3     9400     TIP3     H1       HT       0.417000       1.00800           0   0.00000       0.00000    
     53116 TIP3     9400     TIP3     H2       HT       0.417000       1.00800           0   0.00000     -0.301140E-02
     53117 TIP3     9401     TIP3     OH2      OT      -0.834000       15.9994           0   0.00000       0.00000    
     53118 TIP3     9401     TIP3     H1       HT       0.417000       1.00800           0   0.00000       0.00000    
     53119 TIP3     9401     TIP3     H2       HT       0.417000       1.00800           0   0.00000     -0.301140E-02
     53120 TIP3     9402     TIP3     OH2      OT      -0.834000       15.9994           0   0.00000       0.00000    
     53121 TIP3     9402     TIP3     H1       HT       0.417000       1.00800           0   0.00000       0.00000    
     53122 TIP3     9402     TIP3     H2       HT       0.417000       1.00800           0   0.00000     -0.301140E-02
     53123 TIP3     9403     TIP3     OH2      OT      -0.834000       15.9994           0   0.00000       0.00000    
     53124 TIP3     9403     TIP3     H1       HT       0.417000       1.00800           0   0.00000       0.00000    
     53125 TIP3     9403     TIP3     H2       HT       0.417000       1.00800           0   0.00000     -0.301140E-02
     53126 TIP3     9404     TIP3     OH2      OT      -0.834000       15.9994           0   0.00000       0.00000    
     53127 TIP3     9404     TIP3     H1       HT       0.417000       1.00800           0   0.00000       0.00000    
     53128 TIP3     9404     TIP3     H2       HT       0.417000       1.00800           0   0.00000     -0.301140E-02
     53129 TIP3     9405     TIP3     OH2      OT      -0.834000       15.9994           0   0.00000       0.00000    
     53130 TIP3     9405     TIP3     H1       HT       0.417000       1.00800           0   0.00000       0.00000    
     53131 TIP3     9405     TIP3     H2       HT       0.417000       1.00800           0   0.00000     -0.301140E-02
     53132 TIP3     9406     TIP3     OH2      OT      -0.834000       15.9994           0   0.00000       0.00000    
     53133 TIP3     9406     TIP3     H1       HT       0.417000       1.00800           0   0.00000       0.00000    
     53134 TIP3     9406     TIP3     H2       HT       0.417000       1.00800           0   0.00000     -0.301140E-02
     53135 TIP3     9407     TIP3     OH2      OT      -0.834000       15.9994           0   0.00000       0.00000    
     53136 TIP3     9407     TIP3     H1       HT       0.417000       1.00800           0   0.00000       0.00000    
     53137 TIP3     9407     TIP3     H2       HT       0.417000       1.00800           0   0.00000     -0.301140E-02
     53138 TIP3     9408     TIP3     OH2      OT      -0.834000       15.9994           0   0.00000       0.00000    
     53139 TIP3     9408     TIP3     H1       HT       0.417000       1.00800           0   0.00000       0.00000    
     53140 TIP3     9408     TIP3     H2       HT       0.417000       1.00800           0   0.00000     -0.301140E-02
     53141 TIP3     9409     TIP3     OH2      OT      -0.834000       15.9994           0   0.00000       0.00000    
     53142 TIP3     9409     TIP3     H1       HT       0.417000       1.00800           0   0.00000       0.00000    
     53143 TIP3     9409     TIP3     H2       HT       0.417000       1.00800           0   0.00000     -0.301140E-02
     53144 TIP3     9410     TIP3     OH2      OT      -0.834000       15.9994           0   0.00000       0.00000    
     53145 TIP3     9410     TIP3     H1       HT       0.417000       1.00800           0   0.00000       0.00000    
     53146 TIP3     9410     TIP3     H2       HT       0.417000       1.00800           0   0.00000     -0.301140E-02
     53147 TIP3     9411     TIP3     OH2      OT      -0.834000       15.9994           0   0.00000       0.00000    
     53148 TIP3     9411     TIP3     H1       HT       0.417000       1.00800           0   0.00000       0.00000    
     53149 TIP3     9411     TIP3     H2       HT       0.417000       1.00800           0   0.00000     -0.301140E-02
     53150 TIP3     9412     TIP3     OH2      OT      -0.834000       15.9994           0   0.00000       0.00000    
     53151 TIP3     9412     TIP3     H1       HT       0.417000       1.00800           0   0.00000       0.00000    
     53152 TIP3     9412     TIP3     H2       HT       0.417000       1.00800           0   0.00000     -0.301140E-02
     53153 TIP3     9413     TIP3     OH2      OT      -0.834000       15.9994           0   0.00000       0.00000    
     53154 TIP3     9413     TIP3     H1       HT       0.417000       1.00800           0   0.00000       0.00000    
     53155 TIP3     9413     TIP3     H2       HT       0.417000       1.00800           0   0.00000     -0.301140E-02
     53156 TIP3     9414     TIP3     OH2      OT      -0.834000       15.9994           0   0.00000       0.00000    
     53157 TIP3     9414     TIP3     H1       HT       0.417000       1.00800           0   0.00000       0.00000    
     53158 TIP3     9414     TIP3     H2       HT       0.417000       1.00800           0   0.00000     -0.301140E-02
     53159 TIP3     9415     TIP3     OH2      OT      -0.834000       15.9994           0   0.00000       0.00000    
     53160 TIP3     9415     TIP3     H1       HT       0.417000       1.00800           0   0.00000       0.00000    
     53161 TIP3     9415     TIP3     H2       HT       0.417000       1.00800           0   0.00000     -0.301140E-02
     53162 TIP3     9416     TIP3     OH2      OT      -0.834000       15.9994           0   0.00000       0.00000    
     53163 TIP3     9416     TIP3     H1       HT       0.417000       1.00800           0   0.00000       0.00000    
     53164 TIP3     9416     TIP3     H2       HT       0.417000       1.00800           0   0.00000     -0.301140E-02
     53165 TIP3     9417     TIP3     OH2      OT      -0.834000       15.9994           0   0.00000       0.00000    
     53166 TIP3     9417     TIP3     H1       HT       0.417000       1.00800           0   0.00000       0.00000    
     53167 TIP3     9417     TIP3     H2       HT       0.417000       1.00800           0   0.00000     -0.301140E-02
     53168 TIP3     9418     TIP3     OH2      OT      -0.834000       15.9994           0   0.00000       0.00000    
     53169 TIP3     9418     TIP3     H1       HT       0.417000       1.00800           0   0.00000       0.00000    
     53170 TIP3     9418     TIP3     H2       HT       0.417000       1.00800           0   0.00000     -0.301140E-02
     53171 TIP3     9419     TIP3     OH2      OT      -0.834000       15.9994           0   0.00000       0.00000    
     53172 TIP3     9419     TIP3     H1       HT       0.417000       1.00800           0   0.00000       0.00000    
     53173 TIP3     9419     TIP3     H2       HT       0.417000       1.00800           0   0.00000     -0.301140E-02
     53174 TIP3     9420     TIP3     OH2      OT      -0.834000       15.9994           0   0.00000       0.00000    
     53175 TIP3     9420     TIP3     H1       HT       0.417000       1.00800           0   0.00000       0.00000    
     53176 TIP3     9420     TIP3     H2       HT       0.417000       1.00800           0   0.00000     -0.301140E-02
     53177 TIP3     9421     TIP3     OH2      OT      -0.834000       15.9994           0   0.00000       0.00000    
     53178 TIP3     9421     TIP3     H1       HT       0.417000       1.00800           0   0.00000       0.00000    
     53179 TIP3     9421     TIP3     H2       HT       0.417000       1.00800           0   0.00000     -0.301140E-02
     53180 TIP3     9422     TIP3     OH2      OT      -0.834000       15.9994           0   0.00000       0.00000    
     53181 TIP3     9422     TIP3     H1       HT       0.417000       1.00800           0   0.00000       0.00000    
     53182 TIP3     9422     TIP3     H2       HT       0.417000       1.00800           0   0.00000     -0.301140E-02
     53183 TIP3     9423     TIP3     OH2      OT      -0.834000       15.9994           0   0.00000       0.00000    
     53184 TIP3     9423     TIP3     H1       HT       0.417000       1.00800           0   0.00000       0.00000    
     53185 TIP3     9423     TIP3     H2       HT       0.417000       1.00800           0   0.00000     -0.301140E-02
     53186 TIP3     9424     TIP3     OH2      OT      -0.834000       15.9994           0   0.00000       0.00000    
     53187 TIP3     9424     TIP3     H1       HT       0.417000       1.00800           0   0.00000       0.00000    
     53188 TIP3     9424     TIP3     H2       HT       0.417000       1.00800           0   0.00000     -0.301140E-02
     53189 TIP3     9425     TIP3     OH2      OT      -0.834000       15.9994           0   0.00000       0.00000    
     53190 TIP3     9425     TIP3     H1       HT       0.417000       1.00800           0   0.00000       0.00000    
     53191 TIP3     9425     TIP3     H2       HT       0.417000       1.00800           0   0.00000     -0.301140E-02
     53192 TIP3     9426     TIP3     OH2      OT      -0.834000       15.9994           0   0.00000       0.00000    
     53193 TIP3     9426     TIP3     H1       HT       0.417000       1.00800           0   0.00000       0.00000    
     53194 TIP3     9426     TIP3     H2       HT       0.417000       1.00800           0   0.00000     -0.301140E-02
     53195 TIP3     9427     TIP3     OH2      OT      -0.834000       15.9994           0   0.00000       0.00000    
     53196 TIP3     9427     TIP3     H1       HT       0.417000       1.00800           0   0.00000       0.00000    
     53197 TIP3     9427     TIP3     H2       HT       0.417000       1.00800           0   0.00000     -0.301140E-02
     53198 TIP3     9428     TIP3     OH2      OT      -0.834000       15.9994           0   0.00000       0.00000    
     53199 TIP3     9428     TIP3     H1       HT       0.417000       1.00800           0   0.00000       0.00000    
     53200 TIP3     9428     TIP3     H2       HT       0.417000       1.00800           0   0.00000     -0.301140E-02
     53201 TIP3     9429     TIP3     OH2      OT      -0.834000       15.9994           0   0.00000       0.00000    
     53202 TIP3     9429     TIP3     H1       HT       0.417000       1.00800           0   0.00000       0.00000    
     53203 TIP3     9429     TIP3     H2       HT       0.417000       1.00800           0   0.00000     -0.301140E-02
     53204 TIP3     9430     TIP3     OH2      OT      -0.834000       15.9994           0   0.00000       0.00000    
     53205 TIP3     9430     TIP3     H1       HT       0.417000       1.00800           0   0.00000       0.00000    
     53206 TIP3     9430     TIP3     H2       HT       0.417000       1.00800           0   0.00000     -0.301140E-02
     53207 TIP3     9431     TIP3     OH2      OT      -0.834000       15.9994           0   0.00000       0.00000    
     53208 TIP3     9431     TIP3     H1       HT       0.417000       1.00800           0   0.00000       0.00000    
     53209 TIP3     9431     TIP3     H2       HT       0.417000       1.00800           0   0.00000     -0.301140E-02
     53210 TIP3     9432     TIP3     OH2      OT      -0.834000       15.9994           0   0.00000       0.00000    
     53211 TIP3     9432     TIP3     H1       HT       0.417000       1.00800           0   0.00000       0.00000    
     53212 TIP3     9432     TIP3     H2       HT       0.417000       1.00800           0   0.00000     -0.301140E-02
     53213 TIP3     9433     TIP3     OH2      OT      -0.834000       15.9994           0   0.00000       0.00000    
     53214 TIP3     9433     TIP3     H1       HT       0.417000       1.00800           0   0.00000       0.00000    
     53215 TIP3     9433     TIP3     H2       HT       0.417000       1.00800           0   0.00000     -0.301140E-02
     53216 TIP3     9434     TIP3     OH2      OT      -0.834000       15.9994           0   0.00000       0.00000    
     53217 TIP3     9434     TIP3     H1       HT       0.417000       1.00800           0   0.00000       0.00000    
     53218 TIP3     9434     TIP3     H2       HT       0.417000       1.00800           0   0.00000     -0.301140E-02
     53219 TIP3     9435     TIP3     OH2      OT      -0.834000       15.9994           0   0.00000       0.00000    
     53220 TIP3     9435     TIP3     H1       HT       0.417000       1.00800           0   0.00000       0.00000    
     53221 TIP3     9435     TIP3     H2       HT       0.417000       1.00800           0   0.00000     -0.301140E-02
     53222 TIP3     9436     TIP3     OH2      OT      -0.834000       15.9994           0   0.00000       0.00000    
     53223 TIP3     9436     TIP3     H1       HT       0.417000       1.00800           0   0.00000       0.00000    
     53224 TIP3     9436     TIP3     H2       HT       0.417000       1.00800           0   0.00000     -0.301140E-02
     53225 TIP3     9437     TIP3     OH2      OT      -0.834000       15.9994           0   0.00000       0.00000    
     53226 TIP3     9437     TIP3     H1       HT       0.417000       1.00800           0   0.00000       0.00000    
     53227 TIP3     9437     TIP3     H2       HT       0.417000       1.00800           0   0.00000     -0.301140E-02
     53228 TIP3     9438     TIP3     OH2      OT      -0.834000       15.9994           0   0.00000       0.00000    
     53229 TIP3     9438     TIP3     H1       HT       0.417000       1.00800           0   0.00000       0.00000    
     53230 TIP3     9438     TIP3     H2       HT       0.417000       1.00800           0   0.00000     -0.301140E-02
     53231 TIP3     9439     TIP3     OH2      OT      -0.834000       15.9994           0   0.00000       0.00000    
     53232 TIP3     9439     TIP3     H1       HT       0.417000       1.00800           0   0.00000       0.00000    
     53233 TIP3     9439     TIP3     H2       HT       0.417000       1.00800           0   0.00000     -0.301140E-02
     53234 TIP3     9440     TIP3     OH2      OT      -0.834000       15.9994           0   0.00000       0.00000    
     53235 TIP3     9440     TIP3     H1       HT       0.417000       1.00800           0   0.00000       0.00000    
     53236 TIP3     9440     TIP3     H2       HT       0.417000       1.00800           0   0.00000     -0.301140E-02
     53237 TIP3     9441     TIP3     OH2      OT      -0.834000       15.9994           0   0.00000       0.00000    
     53238 TIP3     9441     TIP3     H1       HT       0.417000       1.00800           0   0.00000       0.00000    
     53239 TIP3     9441     TIP3     H2       HT       0.417000       1.00800           0   0.00000     -0.301140E-02
     53240 TIP3     9442     TIP3     OH2      OT      -0.834000       15.9994           0   0.00000       0.00000    
     53241 TIP3     9442     TIP3     H1       HT       0.417000       1.00800           0   0.00000       0.00000    
     53242 TIP3     9442     TIP3     H2       HT       0.417000       1.00800           0   0.00000     -0.301140E-02
     53243 TIP3     9443     TIP3     OH2      OT      -0.834000       15.9994           0   0.00000       0.00000    
     53244 TIP3     9443     TIP3     H1       HT       0.417000       1.00800           0   0.00000       0.00000    
     53245 TIP3     9443     TIP3     H2       HT       0.417000       1.00800           0   0.00000     -0.301140E-02
     53246 TIP3     9444     TIP3     OH2      OT      -0.834000       15.9994           0   0.00000       0.00000    
     53247 TIP3     9444     TIP3     H1       HT       0.417000       1.00800           0   0.00000       0.00000    
     53248 TIP3     9444     TIP3     H2       HT       0.417000       1.00800           0   0.00000     -0.301140E-02
     53249 TIP3     9445     TIP3     OH2      OT      -0.834000       15.9994           0   0.00000       0.00000    
     53250 TIP3     9445     TIP3     H1       HT       0.417000       1.00800           0   0.00000       0.00000    
     53251 TIP3     9445     TIP3     H2       HT       0.417000       1.00800           0   0.00000     -0.301140E-02
     53252 TIP3     9446     TIP3     OH2      OT      -0.834000       15.9994           0   0.00000       0.00000    
     53253 TIP3     9446     TIP3     H1       HT       0.417000       1.00800           0   0.00000       0.00000    
     53254 TIP3     9446     TIP3     H2       HT       0.417000       1.00800           0   0.00000     -0.301140E-02
     53255 TIP3     9447     TIP3     OH2      OT      -0.834000       15.9994           0   0.00000       0.00000    
     53256 TIP3     9447     TIP3     H1       HT       0.417000       1.00800           0   0.00000       0.00000    
     53257 TIP3     9447     TIP3     H2       HT       0.417000       1.00800           0   0.00000     -0.301140E-02
     53258 TIP3     9448     TIP3     OH2      OT      -0.834000       15.9994           0   0.00000       0.00000    
     53259 TIP3     9448     TIP3     H1       HT       0.417000       1.00800           0   0.00000       0.00000    
     53260 TIP3     9448     TIP3     H2       HT       0.417000       1.00800           0   0.00000     -0.301140E-02
     53261 TIP3     9449     TIP3     OH2      OT      -0.834000       15.9994           0   0.00000       0.00000    
     53262 TIP3     9449     TIP3     H1       HT       0.417000       1.00800           0   0.00000       0.00000    
     53263 TIP3     9449     TIP3     H2       HT       0.417000       1.00800           0   0.00000     -0.301140E-02
     53264 TIP3     9450     TIP3     OH2      OT      -0.834000       15.9994           0   0.00000       0.00000    
     53265 TIP3     9450     TIP3     H1       HT       0.417000       1.00800           0   0.00000       0.00000    
     53266 TIP3     9450     TIP3     H2       HT       0.417000       1.00800           0   0.00000     -0.301140E-02
     53267 TIP3     9451     TIP3     OH2      OT      -0.834000       15.9994           0   0.00000       0.00000    
     53268 TIP3     9451     TIP3     H1       HT       0.417000       1.00800           0   0.00000       0.00000    
     53269 TIP3     9451     TIP3     H2       HT       0.417000       1.00800           0   0.00000     -0.301140E-02
     53270 TIP3     9452     TIP3     OH2      OT      -0.834000       15.9994           0   0.00000       0.00000    
     53271 TIP3     9452     TIP3     H1       HT       0.417000       1.00800           0   0.00000       0.00000    
     53272 TIP3     9452     TIP3     H2       HT       0.417000       1.00800           0   0.00000     -0.301140E-02
     53273 TIP3     9453     TIP3     OH2      OT      -0.834000       15.9994           0   0.00000       0.00000    
     53274 TIP3     9453     TIP3     H1       HT       0.417000       1.00800           0   0.00000       0.00000    
     53275 TIP3     9453     TIP3     H2       HT       0.417000       1.00800           0   0.00000     -0.301140E-02
     53276 TIP3     9454     TIP3     OH2      OT      -0.834000       15.9994           0   0.00000       0.00000    
     53277 TIP3     9454     TIP3     H1       HT       0.417000       1.00800           0   0.00000       0.00000    
     53278 TIP3     9454     TIP3     H2       HT       0.417000       1.00800           0   0.00000     -0.301140E-02
     53279 TIP3     9455     TIP3     OH2      OT      -0.834000       15.9994           0   0.00000       0.00000    
     53280 TIP3     9455     TIP3     H1       HT       0.417000       1.00800           0   0.00000       0.00000    
     53281 TIP3     9455     TIP3     H2       HT       0.417000       1.00800           0   0.00000     -0.301140E-02
     53282 TIP3     9456     TIP3     OH2      OT      -0.834000       15.9994           0   0.00000       0.00000    
     53283 TIP3     9456     TIP3     H1       HT       0.417000       1.00800           0   0.00000       0.00000    
     53284 TIP3     9456     TIP3     H2       HT       0.417000       1.00800           0   0.00000     -0.301140E-02
     53285 TIP3     9457     TIP3     OH2      OT      -0.834000       15.9994           0   0.00000       0.00000    
     53286 TIP3     9457     TIP3     H1       HT       0.417000       1.00800           0   0.00000       0.00000    
     53287 TIP3     9457     TIP3     H2       HT       0.417000       1.00800           0   0.00000     -0.301140E-02
     53288 TIP3     9458     TIP3     OH2      OT      -0.834000       15.9994           0   0.00000       0.00000    
     53289 TIP3     9458     TIP3     H1       HT       0.417000       1.00800           0   0.00000       0.00000    
     53290 TIP3     9458     TIP3     H2       HT       0.417000       1.00800           0   0.00000     -0.301140E-02
     53291 TIP3     9459     TIP3     OH2      OT      -0.834000       15.9994           0   0.00000       0.00000    
     53292 TIP3     9459     TIP3     H1       HT       0.417000       1.00800           0   0.00000       0.00000    
     53293 TIP3     9459     TIP3     H2       HT       0.417000       1.00800           0   0.00000     -0.301140E-02
     53294 TIP3     9460     TIP3     OH2      OT      -0.834000       15.9994           0   0.00000       0.00000    
     53295 TIP3     9460     TIP3     H1       HT       0.417000       1.00800           0   0.00000       0.00000    
     53296 TIP3     9460     TIP3     H2       HT       0.417000       1.00800           0   0.00000     -0.301140E-02
     53297 TIP3     9461     TIP3     OH2      OT      -0.834000       15.9994           0   0.00000       0.00000    
     53298 TIP3     9461     TIP3     H1       HT       0.417000       1.00800           0   0.00000       0.00000    
     53299 TIP3     9461     TIP3     H2       HT       0.417000       1.00800           0   0.00000     -0.301140E-02
     53300 TIP3     9462     TIP3     OH2      OT      -0.834000       15.9994           0   0.00000       0.00000    
     53301 TIP3     9462     TIP3     H1       HT       0.417000       1.00800           0   0.00000       0.00000    
     53302 TIP3     9462     TIP3     H2       HT       0.417000       1.00800           0   0.00000     -0.301140E-02
     53303 TIP3     9463     TIP3     OH2      OT      -0.834000       15.9994           0   0.00000       0.00000    
     53304 TIP3     9463     TIP3     H1       HT       0.417000       1.00800           0   0.00000       0.00000    
     53305 TIP3     9463     TIP3     H2       HT       0.417000       1.00800           0   0.00000     -0.301140E-02
     53306 TIP3     9464     TIP3     OH2      OT      -0.834000       15.9994           0   0.00000       0.00000    
     53307 TIP3     9464     TIP3     H1       HT       0.417000       1.00800           0   0.00000       0.00000    
     53308 TIP3     9464     TIP3     H2       HT       0.417000       1.00800           0   0.00000     -0.301140E-02
     53309 TIP3     9465     TIP3     OH2      OT      -0.834000       15.9994           0   0.00000       0.00000    
     53310 TIP3     9465     TIP3     H1       HT       0.417000       1.00800           0   0.00000       0.00000    
     53311 TIP3     9465     TIP3     H2       HT       0.417000       1.00800           0   0.00000     -0.301140E-02
     53312 TIP3     9466     TIP3     OH2      OT      -0.834000       15.9994           0   0.00000       0.00000    
     53313 TIP3     9466     TIP3     H1       HT       0.417000       1.00800           0   0.00000       0.00000    
     53314 TIP3     9466     TIP3     H2       HT       0.417000       1.00800           0   0.00000     -0.301140E-02
     53315 TIP3     9467     TIP3     OH2      OT      -0.834000       15.9994           0   0.00000       0.00000    
     53316 TIP3     9467     TIP3     H1       HT       0.417000       1.00800           0   0.00000       0.00000    
     53317 TIP3     9467     TIP3     H2       HT       0.417000       1.00800           0   0.00000     -0.301140E-02
     53318 TIP3     9468     TIP3     OH2      OT      -0.834000       15.9994           0   0.00000       0.00000    
     53319 TIP3     9468     TIP3     H1       HT       0.417000       1.00800           0   0.00000       0.00000    
     53320 TIP3     9468     TIP3     H2       HT       0.417000       1.00800           0   0.00000     -0.301140E-02
     53321 TIP3     9469     TIP3     OH2      OT      -0.834000       15.9994           0   0.00000       0.00000    
     53322 TIP3     9469     TIP3     H1       HT       0.417000       1.00800           0   0.00000       0.00000    
     53323 TIP3     9469     TIP3     H2       HT       0.417000       1.00800           0   0.00000     -0.301140E-02
     53324 TIP3     9470     TIP3     OH2      OT      -0.834000       15.9994           0   0.00000       0.00000    
     53325 TIP3     9470     TIP3     H1       HT       0.417000       1.00800           0   0.00000       0.00000    
     53326 TIP3     9470     TIP3     H2       HT       0.417000       1.00800           0   0.00000     -0.301140E-02
     53327 TIP3     9471     TIP3     OH2      OT      -0.834000       15.9994           0   0.00000       0.00000    
     53328 TIP3     9471     TIP3     H1       HT       0.417000       1.00800           0   0.00000       0.00000    
     53329 TIP3     9471     TIP3     H2       HT       0.417000       1.00800           0   0.00000     -0.301140E-02
     53330 TIP3     9472     TIP3     OH2      OT      -0.834000       15.9994           0   0.00000       0.00000    
     53331 TIP3     9472     TIP3     H1       HT       0.417000       1.00800           0   0.00000       0.00000    
     53332 TIP3     9472     TIP3     H2       HT       0.417000       1.00800           0   0.00000     -0.301140E-02
     53333 TIP3     9473     TIP3     OH2      OT      -0.834000       15.9994           0   0.00000       0.00000    
     53334 TIP3     9473     TIP3     H1       HT       0.417000       1.00800           0   0.00000       0.00000    
     53335 TIP3     9473     TIP3     H2       HT       0.417000       1.00800           0   0.00000     -0.301140E-02
     53336 TIP3     9474     TIP3     OH2      OT      -0.834000       15.9994           0   0.00000       0.00000    
     53337 TIP3     9474     TIP3     H1       HT       0.417000       1.00800           0   0.00000       0.00000    
     53338 TIP3     9474     TIP3     H2       HT       0.417000       1.00800           0   0.00000     -0.301140E-02
     53339 TIP3     9475     TIP3     OH2      OT      -0.834000       15.9994           0   0.00000       0.00000    
     53340 TIP3     9475     TIP3     H1       HT       0.417000       1.00800           0   0.00000       0.00000    
     53341 TIP3     9475     TIP3     H2       HT       0.417000       1.00800           0   0.00000     -0.301140E-02
     53342 TIP3     9476     TIP3     OH2      OT      -0.834000       15.9994           0   0.00000       0.00000    
     53343 TIP3     9476     TIP3     H1       HT       0.417000       1.00800           0   0.00000       0.00000    
     53344 TIP3     9476     TIP3     H2       HT       0.417000       1.00800           0   0.00000     -0.301140E-02
     53345 TIP3     9477     TIP3     OH2      OT      -0.834000       15.9994           0   0.00000       0.00000    
     53346 TIP3     9477     TIP3     H1       HT       0.417000       1.00800           0   0.00000       0.00000    
     53347 TIP3     9477     TIP3     H2       HT       0.417000       1.00800           0   0.00000     -0.301140E-02
     53348 TIP3     9478     TIP3     OH2      OT      -0.834000       15.9994           0   0.00000       0.00000    
     53349 TIP3     9478     TIP3     H1       HT       0.417000       1.00800           0   0.00000       0.00000    
     53350 TIP3     9478     TIP3     H2       HT       0.417000       1.00800           0   0.00000     -0.301140E-02
     53351 TIP3     9479     TIP3     OH2      OT      -0.834000       15.9994           0   0.00000       0.00000    
     53352 TIP3     9479     TIP3     H1       HT       0.417000       1.00800           0   0.00000       0.00000    
     53353 TIP3     9479     TIP3     H2       HT       0.417000       1.00800           0   0.00000     -0.301140E-02
     53354 TIP3     9480     TIP3     OH2      OT      -0.834000       15.9994           0   0.00000       0.00000    
     53355 TIP3     9480     TIP3     H1       HT       0.417000       1.00800           0   0.00000       0.00000    
     53356 TIP3     9480     TIP3     H2       HT       0.417000       1.00800           0   0.00000     -0.301140E-02
     53357 TIP3     9481     TIP3     OH2      OT      -0.834000       15.9994           0   0.00000       0.00000    
     53358 TIP3     9481     TIP3     H1       HT       0.417000       1.00800           0   0.00000       0.00000    
     53359 TIP3     9481     TIP3     H2       HT       0.417000       1.00800           0   0.00000     -0.301140E-02
     53360 TIP3     9482     TIP3     OH2      OT      -0.834000       15.9994           0   0.00000       0.00000    
     53361 TIP3     9482     TIP3     H1       HT       0.417000       1.00800           0   0.00000       0.00000    
     53362 TIP3     9482     TIP3     H2       HT       0.417000       1.00800           0   0.00000     -0.301140E-02
     53363 TIP3     9483     TIP3     OH2      OT      -0.834000       15.9994           0   0.00000       0.00000    
     53364 TIP3     9483     TIP3     H1       HT       0.417000       1.00800           0   0.00000       0.00000    
     53365 TIP3     9483     TIP3     H2       HT       0.417000       1.00800           0   0.00000     -0.301140E-02
     53366 TIP3     9484     TIP3     OH2      OT      -0.834000       15.9994           0   0.00000       0.00000    
     53367 TIP3     9484     TIP3     H1       HT       0.417000       1.00800           0   0.00000       0.00000    
     53368 TIP3     9484     TIP3     H2       HT       0.417000       1.00800           0   0.00000     -0.301140E-02
     53369 TIP3     9485     TIP3     OH2      OT      -0.834000       15.9994           0   0.00000       0.00000    
     53370 TIP3     9485     TIP3     H1       HT       0.417000       1.00800           0   0.00000       0.00000    
     53371 TIP3     9485     TIP3     H2       HT       0.417000       1.00800           0   0.00000     -0.301140E-02
     53372 TIP3     9486     TIP3     OH2      OT      -0.834000       15.9994           0   0.00000       0.00000    
     53373 TIP3     9486     TIP3     H1       HT       0.417000       1.00800           0   0.00000       0.00000    
     53374 TIP3     9486     TIP3     H2       HT       0.417000       1.00800           0   0.00000     -0.301140E-02
     53375 TIP3     9487     TIP3     OH2      OT      -0.834000       15.9994           0   0.00000       0.00000    
     53376 TIP3     9487     TIP3     H1       HT       0.417000       1.00800           0   0.00000       0.00000    
     53377 TIP3     9487     TIP3     H2       HT       0.417000       1.00800           0   0.00000     -0.301140E-02
     53378 TIP3     9488     TIP3     OH2      OT      -0.834000       15.9994           0   0.00000       0.00000    
     53379 TIP3     9488     TIP3     H1       HT       0.417000       1.00800           0   0.00000       0.00000    
     53380 TIP3     9488     TIP3     H2       HT       0.417000       1.00800           0   0.00000     -0.301140E-02
     53381 TIP3     9489     TIP3     OH2      OT      -0.834000       15.9994           0   0.00000       0.00000    
     53382 TIP3     9489     TIP3     H1       HT       0.417000       1.00800           0   0.00000       0.00000    
     53383 TIP3     9489     TIP3     H2       HT       0.417000       1.00800           0   0.00000     -0.301140E-02
     53384 TIP3     9490     TIP3     OH2      OT      -0.834000       15.9994           0   0.00000       0.00000    
     53385 TIP3     9490     TIP3     H1       HT       0.417000       1.00800           0   0.00000       0.00000    
     53386 TIP3     9490     TIP3     H2       HT       0.417000       1.00800           0   0.00000     -0.301140E-02
     53387 TIP3     9491     TIP3     OH2      OT      -0.834000       15.9994           0   0.00000       0.00000    
     53388 TIP3     9491     TIP3     H1       HT       0.417000       1.00800           0   0.00000       0.00000    
     53389 TIP3     9491     TIP3     H2       HT       0.417000       1.00800           0   0.00000     -0.301140E-02
     53390 TIP3     9492     TIP3     OH2      OT      -0.834000       15.9994           0   0.00000       0.00000    
     53391 TIP3     9492     TIP3     H1       HT       0.417000       1.00800           0   0.00000       0.00000    
     53392 TIP3     9492     TIP3     H2       HT       0.417000       1.00800           0   0.00000     -0.301140E-02
     53393 TIP3     9493     TIP3     OH2      OT      -0.834000       15.9994           0   0.00000       0.00000    
     53394 TIP3     9493     TIP3     H1       HT       0.417000       1.00800           0   0.00000       0.00000    
     53395 TIP3     9493     TIP3     H2       HT       0.417000       1.00800           0   0.00000     -0.301140E-02
     53396 TIP3     9494     TIP3     OH2      OT      -0.834000       15.9994           0   0.00000       0.00000    
     53397 TIP3     9494     TIP3     H1       HT       0.417000       1.00800           0   0.00000       0.00000    
     53398 TIP3     9494     TIP3     H2       HT       0.417000       1.00800           0   0.00000     -0.301140E-02
     53399 TIP3     9495     TIP3     OH2      OT      -0.834000       15.9994           0   0.00000       0.00000    
     53400 TIP3     9495     TIP3     H1       HT       0.417000       1.00800           0   0.00000       0.00000    
     53401 TIP3     9495     TIP3     H2       HT       0.417000       1.00800           0   0.00000     -0.301140E-02
     53402 TIP3     9496     TIP3     OH2      OT      -0.834000       15.9994           0   0.00000       0.00000    
     53403 TIP3     9496     TIP3     H1       HT       0.417000       1.00800           0   0.00000       0.00000    
     53404 TIP3     9496     TIP3     H2       HT       0.417000       1.00800           0   0.00000     -0.301140E-02
     53405 TIP3     9497     TIP3     OH2      OT      -0.834000       15.9994           0   0.00000       0.00000    
     53406 TIP3     9497     TIP3     H1       HT       0.417000       1.00800           0   0.00000       0.00000    
     53407 TIP3     9497     TIP3     H2       HT       0.417000       1.00800           0   0.00000     -0.301140E-02
     53408 TIP3     9498     TIP3     OH2      OT      -0.834000       15.9994           0   0.00000       0.00000    
     53409 TIP3     9498     TIP3     H1       HT       0.417000       1.00800           0   0.00000       0.00000    
     53410 TIP3     9498     TIP3     H2       HT       0.417000       1.00800           0   0.00000     -0.301140E-02
     53411 TIP3     9499     TIP3     OH2      OT      -0.834000       15.9994           0   0.00000       0.00000    
     53412 TIP3     9499     TIP3     H1       HT       0.417000       1.00800           0   0.00000       0.00000    
     53413 TIP3     9499     TIP3     H2       HT       0.417000       1.00800           0   0.00000     -0.301140E-02
     53414 TIP3     9500     TIP3     OH2      OT      -0.834000       15.9994           0   0.00000       0.00000    
     53415 TIP3     9500     TIP3     H1       HT       0.417000       1.00800           0   0.00000       0.00000    
     53416 TIP3     9500     TIP3     H2       HT       0.417000       1.00800           0   0.00000     -0.301140E-02
     53417 TIP3     9501     TIP3     OH2      OT      -0.834000       15.9994           0   0.00000       0.00000    
     53418 TIP3     9501     TIP3     H1       HT       0.417000       1.00800           0   0.00000       0.00000    
     53419 TIP3     9501     TIP3     H2       HT       0.417000       1.00800           0   0.00000     -0.301140E-02
     53420 TIP3     9502     TIP3     OH2      OT      -0.834000       15.9994           0   0.00000       0.00000    
     53421 TIP3     9502     TIP3     H1       HT       0.417000       1.00800           0   0.00000       0.00000    
     53422 TIP3     9502     TIP3     H2       HT       0.417000       1.00800           0   0.00000     -0.301140E-02
     53423 TIP3     9503     TIP3     OH2      OT      -0.834000       15.9994           0   0.00000       0.00000    
     53424 TIP3     9503     TIP3     H1       HT       0.417000       1.00800           0   0.00000       0.00000    
     53425 TIP3     9503     TIP3     H2       HT       0.417000       1.00800           0   0.00000     -0.301140E-02
     53426 TIP3     9504     TIP3     OH2      OT      -0.834000       15.9994           0   0.00000       0.00000    
     53427 TIP3     9504     TIP3     H1       HT       0.417000       1.00800           0   0.00000       0.00000    
     53428 TIP3     9504     TIP3     H2       HT       0.417000       1.00800           0   0.00000     -0.301140E-02
     53429 TIP3     9505     TIP3     OH2      OT      -0.834000       15.9994           0   0.00000       0.00000    
     53430 TIP3     9505     TIP3     H1       HT       0.417000       1.00800           0   0.00000       0.00000    
     53431 TIP3     9505     TIP3     H2       HT       0.417000       1.00800           0   0.00000     -0.301140E-02
     53432 TIP3     9506     TIP3     OH2      OT      -0.834000       15.9994           0   0.00000       0.00000    
     53433 TIP3     9506     TIP3     H1       HT       0.417000       1.00800           0   0.00000       0.00000    
     53434 TIP3     9506     TIP3     H2       HT       0.417000       1.00800           0   0.00000     -0.301140E-02
     53435 TIP3     9507     TIP3     OH2      OT      -0.834000       15.9994           0   0.00000       0.00000    
     53436 TIP3     9507     TIP3     H1       HT       0.417000       1.00800           0   0.00000       0.00000    
     53437 TIP3     9507     TIP3     H2       HT       0.417000       1.00800           0   0.00000     -0.301140E-02
     53438 TIP3     9508     TIP3     OH2      OT      -0.834000       15.9994           0   0.00000       0.00000    
     53439 TIP3     9508     TIP3     H1       HT       0.417000       1.00800           0   0.00000       0.00000    
     53440 TIP3     9508     TIP3     H2       HT       0.417000       1.00800           0   0.00000     -0.301140E-02
     53441 TIP3     9509     TIP3     OH2      OT      -0.834000       15.9994           0   0.00000       0.00000    
     53442 TIP3     9509     TIP3     H1       HT       0.417000       1.00800           0   0.00000       0.00000    
     53443 TIP3     9509     TIP3     H2       HT       0.417000       1.00800           0   0.00000     -0.301140E-02
     53444 TIP3     9510     TIP3     OH2      OT      -0.834000       15.9994           0   0.00000       0.00000    
     53445 TIP3     9510     TIP3     H1       HT       0.417000       1.00800           0   0.00000       0.00000    
     53446 TIP3     9510     TIP3     H2       HT       0.417000       1.00800           0   0.00000     -0.301140E-02
     53447 TIP3     9511     TIP3     OH2      OT      -0.834000       15.9994           0   0.00000       0.00000    
     53448 TIP3     9511     TIP3     H1       HT       0.417000       1.00800           0   0.00000       0.00000    
     53449 TIP3     9511     TIP3     H2       HT       0.417000       1.00800           0   0.00000     -0.301140E-02
     53450 TIP3     9512     TIP3     OH2      OT      -0.834000       15.9994           0   0.00000       0.00000    
     53451 TIP3     9512     TIP3     H1       HT       0.417000       1.00800           0   0.00000       0.00000    
     53452 TIP3     9512     TIP3     H2       HT       0.417000       1.00800           0   0.00000     -0.301140E-02
     53453 TIP3     9513     TIP3     OH2      OT      -0.834000       15.9994           0   0.00000       0.00000    
     53454 TIP3     9513     TIP3     H1       HT       0.417000       1.00800           0   0.00000       0.00000    
     53455 TIP3     9513     TIP3     H2       HT       0.417000       1.00800           0   0.00000     -0.301140E-02
     53456 TIP3     9514     TIP3     OH2      OT      -0.834000       15.9994           0   0.00000       0.00000    
     53457 TIP3     9514     TIP3     H1       HT       0.417000       1.00800           0   0.00000       0.00000    
     53458 TIP3     9514     TIP3     H2       HT       0.417000       1.00800           0   0.00000     -0.301140E-02
     53459 TIP3     9515     TIP3     OH2      OT      -0.834000       15.9994           0   0.00000       0.00000    
     53460 TIP3     9515     TIP3     H1       HT       0.417000       1.00800           0   0.00000       0.00000    
     53461 TIP3     9515     TIP3     H2       HT       0.417000       1.00800           0   0.00000     -0.301140E-02
     53462 TIP3     9516     TIP3     OH2      OT      -0.834000       15.9994           0   0.00000       0.00000    
     53463 TIP3     9516     TIP3     H1       HT       0.417000       1.00800           0   0.00000       0.00000    
     53464 TIP3     9516     TIP3     H2       HT       0.417000       1.00800           0   0.00000     -0.301140E-02
     53465 TIP3     9517     TIP3     OH2      OT      -0.834000       15.9994           0   0.00000       0.00000    
     53466 TIP3     9517     TIP3     H1       HT       0.417000       1.00800           0   0.00000       0.00000    
     53467 TIP3     9517     TIP3     H2       HT       0.417000       1.00800           0   0.00000     -0.301140E-02
     53468 TIP3     9518     TIP3     OH2      OT      -0.834000       15.9994           0   0.00000       0.00000    
     53469 TIP3     9518     TIP3     H1       HT       0.417000       1.00800           0   0.00000       0.00000    
     53470 TIP3     9518     TIP3     H2       HT       0.417000       1.00800           0   0.00000     -0.301140E-02
     53471 TIP3     9519     TIP3     OH2      OT      -0.834000       15.9994           0   0.00000       0.00000    
     53472 TIP3     9519     TIP3     H1       HT       0.417000       1.00800           0   0.00000       0.00000    
     53473 TIP3     9519     TIP3     H2       HT       0.417000       1.00800           0   0.00000     -0.301140E-02
     53474 TIP3     9520     TIP3     OH2      OT      -0.834000       15.9994           0   0.00000       0.00000    
     53475 TIP3     9520     TIP3     H1       HT       0.417000       1.00800           0   0.00000       0.00000    
     53476 TIP3     9520     TIP3     H2       HT       0.417000       1.00800           0   0.00000     -0.301140E-02
     53477 TIP3     9521     TIP3     OH2      OT      -0.834000       15.9994           0   0.00000       0.00000    
     53478 TIP3     9521     TIP3     H1       HT       0.417000       1.00800           0   0.00000       0.00000    
     53479 TIP3     9521     TIP3     H2       HT       0.417000       1.00800           0   0.00000     -0.301140E-02
     53480 TIP3     9522     TIP3     OH2      OT      -0.834000       15.9994           0   0.00000       0.00000    
     53481 TIP3     9522     TIP3     H1       HT       0.417000       1.00800           0   0.00000       0.00000    
     53482 TIP3     9522     TIP3     H2       HT       0.417000       1.00800           0   0.00000     -0.301140E-02
     53483 TIP3     9523     TIP3     OH2      OT      -0.834000       15.9994           0   0.00000       0.00000    
     53484 TIP3     9523     TIP3     H1       HT       0.417000       1.00800           0   0.00000       0.00000    
     53485 TIP3     9523     TIP3     H2       HT       0.417000       1.00800           0   0.00000     -0.301140E-02
     53486 TIP3     9524     TIP3     OH2      OT      -0.834000       15.9994           0   0.00000       0.00000    
     53487 TIP3     9524     TIP3     H1       HT       0.417000       1.00800           0   0.00000       0.00000    
     53488 TIP3     9524     TIP3     H2       HT       0.417000       1.00800           0   0.00000     -0.301140E-02
     53489 TIP3     9525     TIP3     OH2      OT      -0.834000       15.9994           0   0.00000       0.00000    
     53490 TIP3     9525     TIP3     H1       HT       0.417000       1.00800           0   0.00000       0.00000    
     53491 TIP3     9525     TIP3     H2       HT       0.417000       1.00800           0   0.00000     -0.301140E-02
     53492 TIP3     9526     TIP3     OH2      OT      -0.834000       15.9994           0   0.00000       0.00000    
     53493 TIP3     9526     TIP3     H1       HT       0.417000       1.00800           0   0.00000       0.00000    
     53494 TIP3     9526     TIP3     H2       HT       0.417000       1.00800           0   0.00000     -0.301140E-02
     53495 TIP3     9527     TIP3     OH2      OT      -0.834000       15.9994           0   0.00000       0.00000    
     53496 TIP3     9527     TIP3     H1       HT       0.417000       1.00800           0   0.00000       0.00000    
     53497 TIP3     9527     TIP3     H2       HT       0.417000       1.00800           0   0.00000     -0.301140E-02
     53498 TIP3     9528     TIP3     OH2      OT      -0.834000       15.9994           0   0.00000       0.00000    
     53499 TIP3     9528     TIP3     H1       HT       0.417000       1.00800           0   0.00000       0.00000    
     53500 TIP3     9528     TIP3     H2       HT       0.417000       1.00800           0   0.00000     -0.301140E-02
     53501 TIP3     9529     TIP3     OH2      OT      -0.834000       15.9994           0   0.00000       0.00000    
     53502 TIP3     9529     TIP3     H1       HT       0.417000       1.00800           0   0.00000       0.00000    
     53503 TIP3     9529     TIP3     H2       HT       0.417000       1.00800           0   0.00000     -0.301140E-02
     53504 TIP3     9530     TIP3     OH2      OT      -0.834000       15.9994           0   0.00000       0.00000    
     53505 TIP3     9530     TIP3     H1       HT       0.417000       1.00800           0   0.00000       0.00000    
     53506 TIP3     9530     TIP3     H2       HT       0.417000       1.00800           0   0.00000     -0.301140E-02
     53507 TIP3     9531     TIP3     OH2      OT      -0.834000       15.9994           0   0.00000       0.00000    
     53508 TIP3     9531     TIP3     H1       HT       0.417000       1.00800           0   0.00000       0.00000    
     53509 TIP3     9531     TIP3     H2       HT       0.417000       1.00800           0   0.00000     -0.301140E-02
     53510 TIP3     9532     TIP3     OH2      OT      -0.834000       15.9994           0   0.00000       0.00000    
     53511 TIP3     9532     TIP3     H1       HT       0.417000       1.00800           0   0.00000       0.00000    
     53512 TIP3     9532     TIP3     H2       HT       0.417000       1.00800           0   0.00000     -0.301140E-02
     53513 TIP3     9533     TIP3     OH2      OT      -0.834000       15.9994           0   0.00000       0.00000    
     53514 TIP3     9533     TIP3     H1       HT       0.417000       1.00800           0   0.00000       0.00000    
     53515 TIP3     9533     TIP3     H2       HT       0.417000       1.00800           0   0.00000     -0.301140E-02
     53516 TIP3     9534     TIP3     OH2      OT      -0.834000       15.9994           0   0.00000       0.00000    
     53517 TIP3     9534     TIP3     H1       HT       0.417000       1.00800           0   0.00000       0.00000    
     53518 TIP3     9534     TIP3     H2       HT       0.417000       1.00800           0   0.00000     -0.301140E-02
     53519 TIP3     9535     TIP3     OH2      OT      -0.834000       15.9994           0   0.00000       0.00000    
     53520 TIP3     9535     TIP3     H1       HT       0.417000       1.00800           0   0.00000       0.00000    
     53521 TIP3     9535     TIP3     H2       HT       0.417000       1.00800           0   0.00000     -0.301140E-02
     53522 TIP3     9536     TIP3     OH2      OT      -0.834000       15.9994           0   0.00000       0.00000    
     53523 TIP3     9536     TIP3     H1       HT       0.417000       1.00800           0   0.00000       0.00000    
     53524 TIP3     9536     TIP3     H2       HT       0.417000       1.00800           0   0.00000     -0.301140E-02
     53525 TIP3     9537     TIP3     OH2      OT      -0.834000       15.9994           0   0.00000       0.00000    
     53526 TIP3     9537     TIP3     H1       HT       0.417000       1.00800           0   0.00000       0.00000    
     53527 TIP3     9537     TIP3     H2       HT       0.417000       1.00800           0   0.00000     -0.301140E-02
     53528 TIP3     9538     TIP3     OH2      OT      -0.834000       15.9994           0   0.00000       0.00000    
     53529 TIP3     9538     TIP3     H1       HT       0.417000       1.00800           0   0.00000       0.00000    
     53530 TIP3     9538     TIP3     H2       HT       0.417000       1.00800           0   0.00000     -0.301140E-02
     53531 TIP3     9539     TIP3     OH2      OT      -0.834000       15.9994           0   0.00000       0.00000    
     53532 TIP3     9539     TIP3     H1       HT       0.417000       1.00800           0   0.00000       0.00000    
     53533 TIP3     9539     TIP3     H2       HT       0.417000       1.00800           0   0.00000     -0.301140E-02
     53534 TIP3     9540     TIP3     OH2      OT      -0.834000       15.9994           0   0.00000       0.00000    
     53535 TIP3     9540     TIP3     H1       HT       0.417000       1.00800           0   0.00000       0.00000    
     53536 TIP3     9540     TIP3     H2       HT       0.417000       1.00800           0   0.00000     -0.301140E-02
     53537 TIP3     9541     TIP3     OH2      OT      -0.834000       15.9994           0   0.00000       0.00000    
     53538 TIP3     9541     TIP3     H1       HT       0.417000       1.00800           0   0.00000       0.00000    
     53539 TIP3     9541     TIP3     H2       HT       0.417000       1.00800           0   0.00000     -0.301140E-02
     53540 TIP3     9542     TIP3     OH2      OT      -0.834000       15.9994           0   0.00000       0.00000    
     53541 TIP3     9542     TIP3     H1       HT       0.417000       1.00800           0   0.00000       0.00000    
     53542 TIP3     9542     TIP3     H2       HT       0.417000       1.00800           0   0.00000     -0.301140E-02
     53543 TIP3     9543     TIP3     OH2      OT      -0.834000       15.9994           0   0.00000       0.00000    
     53544 TIP3     9543     TIP3     H1       HT       0.417000       1.00800           0   0.00000       0.00000    
     53545 TIP3     9543     TIP3     H2       HT       0.417000       1.00800           0   0.00000     -0.301140E-02
     53546 TIP3     9544     TIP3     OH2      OT      -0.834000       15.9994           0   0.00000       0.00000    
     53547 TIP3     9544     TIP3     H1       HT       0.417000       1.00800           0   0.00000       0.00000    
     53548 TIP3     9544     TIP3     H2       HT       0.417000       1.00800           0   0.00000     -0.301140E-02
     53549 TIP3     9545     TIP3     OH2      OT      -0.834000       15.9994           0   0.00000       0.00000    
     53550 TIP3     9545     TIP3     H1       HT       0.417000       1.00800           0   0.00000       0.00000    
     53551 TIP3     9545     TIP3     H2       HT       0.417000       1.00800           0   0.00000     -0.301140E-02
     53552 TIP3     9546     TIP3     OH2      OT      -0.834000       15.9994           0   0.00000       0.00000    
     53553 TIP3     9546     TIP3     H1       HT       0.417000       1.00800           0   0.00000       0.00000    
     53554 TIP3     9546     TIP3     H2       HT       0.417000       1.00800           0   0.00000     -0.301140E-02
     53555 TIP3     9547     TIP3     OH2      OT      -0.834000       15.9994           0   0.00000       0.00000    
     53556 TIP3     9547     TIP3     H1       HT       0.417000       1.00800           0   0.00000       0.00000    
     53557 TIP3     9547     TIP3     H2       HT       0.417000       1.00800           0   0.00000     -0.301140E-02
     53558 TIP3     9548     TIP3     OH2      OT      -0.834000       15.9994           0   0.00000       0.00000    
     53559 TIP3     9548     TIP3     H1       HT       0.417000       1.00800           0   0.00000       0.00000    
     53560 TIP3     9548     TIP3     H2       HT       0.417000       1.00800           0   0.00000     -0.301140E-02
     53561 TIP3     9549     TIP3     OH2      OT      -0.834000       15.9994           0   0.00000       0.00000    
     53562 TIP3     9549     TIP3     H1       HT       0.417000       1.00800           0   0.00000       0.00000    
     53563 TIP3     9549     TIP3     H2       HT       0.417000       1.00800           0   0.00000     -0.301140E-02
     53564 TIP3     9550     TIP3     OH2      OT      -0.834000       15.9994           0   0.00000       0.00000    
     53565 TIP3     9550     TIP3     H1       HT       0.417000       1.00800           0   0.00000       0.00000    
     53566 TIP3     9550     TIP3     H2       HT       0.417000       1.00800           0   0.00000     -0.301140E-02
     53567 TIP3     9551     TIP3     OH2      OT      -0.834000       15.9994           0   0.00000       0.00000    
     53568 TIP3     9551     TIP3     H1       HT       0.417000       1.00800           0   0.00000       0.00000    
     53569 TIP3     9551     TIP3     H2       HT       0.417000       1.00800           0   0.00000     -0.301140E-02
     53570 TIP3     9552     TIP3     OH2      OT      -0.834000       15.9994           0   0.00000       0.00000    
     53571 TIP3     9552     TIP3     H1       HT       0.417000       1.00800           0   0.00000       0.00000    
     53572 TIP3     9552     TIP3     H2       HT       0.417000       1.00800           0   0.00000     -0.301140E-02
     53573 TIP3     9553     TIP3     OH2      OT      -0.834000       15.9994           0   0.00000       0.00000    
     53574 TIP3     9553     TIP3     H1       HT       0.417000       1.00800           0   0.00000       0.00000    
     53575 TIP3     9553     TIP3     H2       HT       0.417000       1.00800           0   0.00000     -0.301140E-02
     53576 TIP3     9554     TIP3     OH2      OT      -0.834000       15.9994           0   0.00000       0.00000    
     53577 TIP3     9554     TIP3     H1       HT       0.417000       1.00800           0   0.00000       0.00000    
     53578 TIP3     9554     TIP3     H2       HT       0.417000       1.00800           0   0.00000     -0.301140E-02
     53579 TIP3     9555     TIP3     OH2      OT      -0.834000       15.9994           0   0.00000       0.00000    
     53580 TIP3     9555     TIP3     H1       HT       0.417000       1.00800           0   0.00000       0.00000    
     53581 TIP3     9555     TIP3     H2       HT       0.417000       1.00800           0   0.00000     -0.301140E-02
     53582 TIP3     9556     TIP3     OH2      OT      -0.834000       15.9994           0   0.00000       0.00000    
     53583 TIP3     9556     TIP3     H1       HT       0.417000       1.00800           0   0.00000       0.00000    
     53584 TIP3     9556     TIP3     H2       HT       0.417000       1.00800           0   0.00000     -0.301140E-02
     53585 TIP3     9557     TIP3     OH2      OT      -0.834000       15.9994           0   0.00000       0.00000    
     53586 TIP3     9557     TIP3     H1       HT       0.417000       1.00800           0   0.00000       0.00000    
     53587 TIP3     9557     TIP3     H2       HT       0.417000       1.00800           0   0.00000     -0.301140E-02
     53588 TIP3     9558     TIP3     OH2      OT      -0.834000       15.9994           0   0.00000       0.00000    
     53589 TIP3     9558     TIP3     H1       HT       0.417000       1.00800           0   0.00000       0.00000    
     53590 TIP3     9558     TIP3     H2       HT       0.417000       1.00800           0   0.00000     -0.301140E-02
     53591 TIP3     9559     TIP3     OH2      OT      -0.834000       15.9994           0   0.00000       0.00000    
     53592 TIP3     9559     TIP3     H1       HT       0.417000       1.00800           0   0.00000       0.00000    
     53593 TIP3     9559     TIP3     H2       HT       0.417000       1.00800           0   0.00000     -0.301140E-02
     53594 TIP3     9560     TIP3     OH2      OT      -0.834000       15.9994           0   0.00000       0.00000    
     53595 TIP3     9560     TIP3     H1       HT       0.417000       1.00800           0   0.00000       0.00000    
     53596 TIP3     9560     TIP3     H2       HT       0.417000       1.00800           0   0.00000     -0.301140E-02
     53597 TIP3     9561     TIP3     OH2      OT      -0.834000       15.9994           0   0.00000       0.00000    
     53598 TIP3     9561     TIP3     H1       HT       0.417000       1.00800           0   0.00000       0.00000    
     53599 TIP3     9561     TIP3     H2       HT       0.417000       1.00800           0   0.00000     -0.301140E-02
     53600 TIP3     9562     TIP3     OH2      OT      -0.834000       15.9994           0   0.00000       0.00000    
     53601 TIP3     9562     TIP3     H1       HT       0.417000       1.00800           0   0.00000       0.00000    
     53602 TIP3     9562     TIP3     H2       HT       0.417000       1.00800           0   0.00000     -0.301140E-02
     53603 TIP3     9563     TIP3     OH2      OT      -0.834000       15.9994           0   0.00000       0.00000    
     53604 TIP3     9563     TIP3     H1       HT       0.417000       1.00800           0   0.00000       0.00000    
     53605 TIP3     9563     TIP3     H2       HT       0.417000       1.00800           0   0.00000     -0.301140E-02
     53606 TIP3     9564     TIP3     OH2      OT      -0.834000       15.9994           0   0.00000       0.00000    
     53607 TIP3     9564     TIP3     H1       HT       0.417000       1.00800           0   0.00000       0.00000    
     53608 TIP3     9564     TIP3     H2       HT       0.417000       1.00800           0   0.00000     -0.301140E-02
     53609 TIP3     9565     TIP3     OH2      OT      -0.834000       15.9994           0   0.00000       0.00000    
     53610 TIP3     9565     TIP3     H1       HT       0.417000       1.00800           0   0.00000       0.00000    
     53611 TIP3     9565     TIP3     H2       HT       0.417000       1.00800           0   0.00000     -0.301140E-02
     53612 TIP3     9566     TIP3     OH2      OT      -0.834000       15.9994           0   0.00000       0.00000    
     53613 TIP3     9566     TIP3     H1       HT       0.417000       1.00800           0   0.00000       0.00000    
     53614 TIP3     9566     TIP3     H2       HT       0.417000       1.00800           0   0.00000     -0.301140E-02
     53615 TIP3     9567     TIP3     OH2      OT      -0.834000       15.9994           0   0.00000       0.00000    
     53616 TIP3     9567     TIP3     H1       HT       0.417000       1.00800           0   0.00000       0.00000    
     53617 TIP3     9567     TIP3     H2       HT       0.417000       1.00800           0   0.00000     -0.301140E-02
     53618 TIP3     9568     TIP3     OH2      OT      -0.834000       15.9994           0   0.00000       0.00000    
     53619 TIP3     9568     TIP3     H1       HT       0.417000       1.00800           0   0.00000       0.00000    
     53620 TIP3     9568     TIP3     H2       HT       0.417000       1.00800           0   0.00000     -0.301140E-02
     53621 TIP3     9569     TIP3     OH2      OT      -0.834000       15.9994           0   0.00000       0.00000    
     53622 TIP3     9569     TIP3     H1       HT       0.417000       1.00800           0   0.00000       0.00000    
     53623 TIP3     9569     TIP3     H2       HT       0.417000       1.00800           0   0.00000     -0.301140E-02
     53624 TIP3     9570     TIP3     OH2      OT      -0.834000       15.9994           0   0.00000       0.00000    
     53625 TIP3     9570     TIP3     H1       HT       0.417000       1.00800           0   0.00000       0.00000    
     53626 TIP3     9570     TIP3     H2       HT       0.417000       1.00800           0   0.00000     -0.301140E-02
     53627 TIP3     9571     TIP3     OH2      OT      -0.834000       15.9994           0   0.00000       0.00000    
     53628 TIP3     9571     TIP3     H1       HT       0.417000       1.00800           0   0.00000       0.00000    
     53629 TIP3     9571     TIP3     H2       HT       0.417000       1.00800           0   0.00000     -0.301140E-02
     53630 TIP3     9572     TIP3     OH2      OT      -0.834000       15.9994           0   0.00000       0.00000    
     53631 TIP3     9572     TIP3     H1       HT       0.417000       1.00800           0   0.00000       0.00000    
     53632 TIP3     9572     TIP3     H2       HT       0.417000       1.00800           0   0.00000     -0.301140E-02
     53633 TIP3     9573     TIP3     OH2      OT      -0.834000       15.9994           0   0.00000       0.00000    
     53634 TIP3     9573     TIP3     H1       HT       0.417000       1.00800           0   0.00000       0.00000    
     53635 TIP3     9573     TIP3     H2       HT       0.417000       1.00800           0   0.00000     -0.301140E-02
     53636 TIP3     9574     TIP3     OH2      OT      -0.834000       15.9994           0   0.00000       0.00000    
     53637 TIP3     9574     TIP3     H1       HT       0.417000       1.00800           0   0.00000       0.00000    
     53638 TIP3     9574     TIP3     H2       HT       0.417000       1.00800           0   0.00000     -0.301140E-02
     53639 TIP3     9575     TIP3     OH2      OT      -0.834000       15.9994           0   0.00000       0.00000    
     53640 TIP3     9575     TIP3     H1       HT       0.417000       1.00800           0   0.00000       0.00000    
     53641 TIP3     9575     TIP3     H2       HT       0.417000       1.00800           0   0.00000     -0.301140E-02
     53642 TIP3     9576     TIP3     OH2      OT      -0.834000       15.9994           0   0.00000       0.00000    
     53643 TIP3     9576     TIP3     H1       HT       0.417000       1.00800           0   0.00000       0.00000    
     53644 TIP3     9576     TIP3     H2       HT       0.417000       1.00800           0   0.00000     -0.301140E-02
     53645 TIP3     9577     TIP3     OH2      OT      -0.834000       15.9994           0   0.00000       0.00000    
     53646 TIP3     9577     TIP3     H1       HT       0.417000       1.00800           0   0.00000       0.00000    
     53647 TIP3     9577     TIP3     H2       HT       0.417000       1.00800           0   0.00000     -0.301140E-02
     53648 TIP3     9578     TIP3     OH2      OT      -0.834000       15.9994           0   0.00000       0.00000    
     53649 TIP3     9578     TIP3     H1       HT       0.417000       1.00800           0   0.00000       0.00000    
     53650 TIP3     9578     TIP3     H2       HT       0.417000       1.00800           0   0.00000     -0.301140E-02
     53651 TIP3     9579     TIP3     OH2      OT      -0.834000       15.9994           0   0.00000       0.00000    
     53652 TIP3     9579     TIP3     H1       HT       0.417000       1.00800           0   0.00000       0.00000    
     53653 TIP3     9579     TIP3     H2       HT       0.417000       1.00800           0   0.00000     -0.301140E-02
     53654 TIP3     9580     TIP3     OH2      OT      -0.834000       15.9994           0   0.00000       0.00000    
     53655 TIP3     9580     TIP3     H1       HT       0.417000       1.00800           0   0.00000       0.00000    
     53656 TIP3     9580     TIP3     H2       HT       0.417000       1.00800           0   0.00000     -0.301140E-02
     53657 TIP3     9581     TIP3     OH2      OT      -0.834000       15.9994           0   0.00000       0.00000    
     53658 TIP3     9581     TIP3     H1       HT       0.417000       1.00800           0   0.00000       0.00000    
     53659 TIP3     9581     TIP3     H2       HT       0.417000       1.00800           0   0.00000     -0.301140E-02
     53660 TIP3     9582     TIP3     OH2      OT      -0.834000       15.9994           0   0.00000       0.00000    
     53661 TIP3     9582     TIP3     H1       HT       0.417000       1.00800           0   0.00000       0.00000    
     53662 TIP3     9582     TIP3     H2       HT       0.417000       1.00800           0   0.00000     -0.301140E-02
     53663 TIP3     9583     TIP3     OH2      OT      -0.834000       15.9994           0   0.00000       0.00000    
     53664 TIP3     9583     TIP3     H1       HT       0.417000       1.00800           0   0.00000       0.00000    
     53665 TIP3     9583     TIP3     H2       HT       0.417000       1.00800           0   0.00000     -0.301140E-02
     53666 TIP3     9584     TIP3     OH2      OT      -0.834000       15.9994           0   0.00000       0.00000    
     53667 TIP3     9584     TIP3     H1       HT       0.417000       1.00800           0   0.00000       0.00000    
     53668 TIP3     9584     TIP3     H2       HT       0.417000       1.00800           0   0.00000     -0.301140E-02
     53669 TIP3     9585     TIP3     OH2      OT      -0.834000       15.9994           0   0.00000       0.00000    
     53670 TIP3     9585     TIP3     H1       HT       0.417000       1.00800           0   0.00000       0.00000    
     53671 TIP3     9585     TIP3     H2       HT       0.417000       1.00800           0   0.00000     -0.301140E-02
     53672 TIP3     9586     TIP3     OH2      OT      -0.834000       15.9994           0   0.00000       0.00000    
     53673 TIP3     9586     TIP3     H1       HT       0.417000       1.00800           0   0.00000       0.00000    
     53674 TIP3     9586     TIP3     H2       HT       0.417000       1.00800           0   0.00000     -0.301140E-02
     53675 TIP3     9587     TIP3     OH2      OT      -0.834000       15.9994           0   0.00000       0.00000    
     53676 TIP3     9587     TIP3     H1       HT       0.417000       1.00800           0   0.00000       0.00000    
     53677 TIP3     9587     TIP3     H2       HT       0.417000       1.00800           0   0.00000     -0.301140E-02
     53678 TIP3     9588     TIP3     OH2      OT      -0.834000       15.9994           0   0.00000       0.00000    
     53679 TIP3     9588     TIP3     H1       HT       0.417000       1.00800           0   0.00000       0.00000    
     53680 TIP3     9588     TIP3     H2       HT       0.417000       1.00800           0   0.00000     -0.301140E-02
     53681 TIP3     9589     TIP3     OH2      OT      -0.834000       15.9994           0   0.00000       0.00000    
     53682 TIP3     9589     TIP3     H1       HT       0.417000       1.00800           0   0.00000       0.00000    
     53683 TIP3     9589     TIP3     H2       HT       0.417000       1.00800           0   0.00000     -0.301140E-02
     53684 TIP3     9590     TIP3     OH2      OT      -0.834000       15.9994           0   0.00000       0.00000    
     53685 TIP3     9590     TIP3     H1       HT       0.417000       1.00800           0   0.00000       0.00000    
     53686 TIP3     9590     TIP3     H2       HT       0.417000       1.00800           0   0.00000     -0.301140E-02
     53687 TIP3     9591     TIP3     OH2      OT      -0.834000       15.9994           0   0.00000       0.00000    
     53688 TIP3     9591     TIP3     H1       HT       0.417000       1.00800           0   0.00000       0.00000    
     53689 TIP3     9591     TIP3     H2       HT       0.417000       1.00800           0   0.00000     -0.301140E-02
     53690 TIP3     9592     TIP3     OH2      OT      -0.834000       15.9994           0   0.00000       0.00000    
     53691 TIP3     9592     TIP3     H1       HT       0.417000       1.00800           0   0.00000       0.00000    
     53692 TIP3     9592     TIP3     H2       HT       0.417000       1.00800           0   0.00000     -0.301140E-02
     53693 TIP3     9593     TIP3     OH2      OT      -0.834000       15.9994           0   0.00000       0.00000    
     53694 TIP3     9593     TIP3     H1       HT       0.417000       1.00800           0   0.00000       0.00000    
     53695 TIP3     9593     TIP3     H2       HT       0.417000       1.00800           0   0.00000     -0.301140E-02
     53696 TIP3     9594     TIP3     OH2      OT      -0.834000       15.9994           0   0.00000       0.00000    
     53697 TIP3     9594     TIP3     H1       HT       0.417000       1.00800           0   0.00000       0.00000    
     53698 TIP3     9594     TIP3     H2       HT       0.417000       1.00800           0   0.00000     -0.301140E-02
     53699 TIP3     9595     TIP3     OH2      OT      -0.834000       15.9994           0   0.00000       0.00000    
     53700 TIP3     9595     TIP3     H1       HT       0.417000       1.00800           0   0.00000       0.00000    
     53701 TIP3     9595     TIP3     H2       HT       0.417000       1.00800           0   0.00000     -0.301140E-02
     53702 TIP3     9596     TIP3     OH2      OT      -0.834000       15.9994           0   0.00000       0.00000    
     53703 TIP3     9596     TIP3     H1       HT       0.417000       1.00800           0   0.00000       0.00000    
     53704 TIP3     9596     TIP3     H2       HT       0.417000       1.00800           0   0.00000     -0.301140E-02
     53705 TIP3     9597     TIP3     OH2      OT      -0.834000       15.9994           0   0.00000       0.00000    
     53706 TIP3     9597     TIP3     H1       HT       0.417000       1.00800           0   0.00000       0.00000    
     53707 TIP3     9597     TIP3     H2       HT       0.417000       1.00800           0   0.00000     -0.301140E-02
     53708 TIP3     9598     TIP3     OH2      OT      -0.834000       15.9994           0   0.00000       0.00000    
     53709 TIP3     9598     TIP3     H1       HT       0.417000       1.00800           0   0.00000       0.00000    
     53710 TIP3     9598     TIP3     H2       HT       0.417000       1.00800           0   0.00000     -0.301140E-02
     53711 TIP3     9599     TIP3     OH2      OT      -0.834000       15.9994           0   0.00000       0.00000    
     53712 TIP3     9599     TIP3     H1       HT       0.417000       1.00800           0   0.00000       0.00000    
     53713 TIP3     9599     TIP3     H2       HT       0.417000       1.00800           0   0.00000     -0.301140E-02
     53714 TIP3     9600     TIP3     OH2      OT      -0.834000       15.9994           0   0.00000       0.00000    
     53715 TIP3     9600     TIP3     H1       HT       0.417000       1.00800           0   0.00000       0.00000    
     53716 TIP3     9600     TIP3     H2       HT       0.417000       1.00800           0   0.00000     -0.301140E-02
     53717 TIP3     9601     TIP3     OH2      OT      -0.834000       15.9994           0   0.00000       0.00000    
     53718 TIP3     9601     TIP3     H1       HT       0.417000       1.00800           0   0.00000       0.00000    
     53719 TIP3     9601     TIP3     H2       HT       0.417000       1.00800           0   0.00000     -0.301140E-02
     53720 TIP3     9602     TIP3     OH2      OT      -0.834000       15.9994           0   0.00000       0.00000    
     53721 TIP3     9602     TIP3     H1       HT       0.417000       1.00800           0   0.00000       0.00000    
     53722 TIP3     9602     TIP3     H2       HT       0.417000       1.00800           0   0.00000     -0.301140E-02
     53723 TIP3     9603     TIP3     OH2      OT      -0.834000       15.9994           0   0.00000       0.00000    
     53724 TIP3     9603     TIP3     H1       HT       0.417000       1.00800           0   0.00000       0.00000    
     53725 TIP3     9603     TIP3     H2       HT       0.417000       1.00800           0   0.00000     -0.301140E-02
     53726 TIP3     9604     TIP3     OH2      OT      -0.834000       15.9994           0   0.00000       0.00000    
     53727 TIP3     9604     TIP3     H1       HT       0.417000       1.00800           0   0.00000       0.00000    
     53728 TIP3     9604     TIP3     H2       HT       0.417000       1.00800           0   0.00000     -0.301140E-02
     53729 TIP3     9605     TIP3     OH2      OT      -0.834000       15.9994           0   0.00000       0.00000    
     53730 TIP3     9605     TIP3     H1       HT       0.417000       1.00800           0   0.00000       0.00000    
     53731 TIP3     9605     TIP3     H2       HT       0.417000       1.00800           0   0.00000     -0.301140E-02
     53732 TIP3     9606     TIP3     OH2      OT      -0.834000       15.9994           0   0.00000       0.00000    
     53733 TIP3     9606     TIP3     H1       HT       0.417000       1.00800           0   0.00000       0.00000    
     53734 TIP3     9606     TIP3     H2       HT       0.417000       1.00800           0   0.00000     -0.301140E-02
     53735 TIP3     9607     TIP3     OH2      OT      -0.834000       15.9994           0   0.00000       0.00000    
     53736 TIP3     9607     TIP3     H1       HT       0.417000       1.00800           0   0.00000       0.00000    
     53737 TIP3     9607     TIP3     H2       HT       0.417000       1.00800           0   0.00000     -0.301140E-02
     53738 TIP3     9608     TIP3     OH2      OT      -0.834000       15.9994           0   0.00000       0.00000    
     53739 TIP3     9608     TIP3     H1       HT       0.417000       1.00800           0   0.00000       0.00000    
     53740 TIP3     9608     TIP3     H2       HT       0.417000       1.00800           0   0.00000     -0.301140E-02
     53741 TIP3     9609     TIP3     OH2      OT      -0.834000       15.9994           0   0.00000       0.00000    
     53742 TIP3     9609     TIP3     H1       HT       0.417000       1.00800           0   0.00000       0.00000    
     53743 TIP3     9609     TIP3     H2       HT       0.417000       1.00800           0   0.00000     -0.301140E-02
     53744 TIP3     9610     TIP3     OH2      OT      -0.834000       15.9994           0   0.00000       0.00000    
     53745 TIP3     9610     TIP3     H1       HT       0.417000       1.00800           0   0.00000       0.00000    
     53746 TIP3     9610     TIP3     H2       HT       0.417000       1.00800           0   0.00000     -0.301140E-02
     53747 TIP3     9611     TIP3     OH2      OT      -0.834000       15.9994           0   0.00000       0.00000    
     53748 TIP3     9611     TIP3     H1       HT       0.417000       1.00800           0   0.00000       0.00000    
     53749 TIP3     9611     TIP3     H2       HT       0.417000       1.00800           0   0.00000     -0.301140E-02
     53750 TIP3     9612     TIP3     OH2      OT      -0.834000       15.9994           0   0.00000       0.00000    
     53751 TIP3     9612     TIP3     H1       HT       0.417000       1.00800           0   0.00000       0.00000    
     53752 TIP3     9612     TIP3     H2       HT       0.417000       1.00800           0   0.00000     -0.301140E-02
     53753 TIP3     9613     TIP3     OH2      OT      -0.834000       15.9994           0   0.00000       0.00000    
     53754 TIP3     9613     TIP3     H1       HT       0.417000       1.00800           0   0.00000       0.00000    
     53755 TIP3     9613     TIP3     H2       HT       0.417000       1.00800           0   0.00000     -0.301140E-02
     53756 TIP3     9614     TIP3     OH2      OT      -0.834000       15.9994           0   0.00000       0.00000    
     53757 TIP3     9614     TIP3     H1       HT       0.417000       1.00800           0   0.00000       0.00000    
     53758 TIP3     9614     TIP3     H2       HT       0.417000       1.00800           0   0.00000     -0.301140E-02
     53759 TIP3     9615     TIP3     OH2      OT      -0.834000       15.9994           0   0.00000       0.00000    
     53760 TIP3     9615     TIP3     H1       HT       0.417000       1.00800           0   0.00000       0.00000    
     53761 TIP3     9615     TIP3     H2       HT       0.417000       1.00800           0   0.00000     -0.301140E-02
     53762 TIP3     9616     TIP3     OH2      OT      -0.834000       15.9994           0   0.00000       0.00000    
     53763 TIP3     9616     TIP3     H1       HT       0.417000       1.00800           0   0.00000       0.00000    
     53764 TIP3     9616     TIP3     H2       HT       0.417000       1.00800           0   0.00000     -0.301140E-02
     53765 TIP3     9617     TIP3     OH2      OT      -0.834000       15.9994           0   0.00000       0.00000    
     53766 TIP3     9617     TIP3     H1       HT       0.417000       1.00800           0   0.00000       0.00000    
     53767 TIP3     9617     TIP3     H2       HT       0.417000       1.00800           0   0.00000     -0.301140E-02
     53768 TIP3     9618     TIP3     OH2      OT      -0.834000       15.9994           0   0.00000       0.00000    
     53769 TIP3     9618     TIP3     H1       HT       0.417000       1.00800           0   0.00000       0.00000    
     53770 TIP3     9618     TIP3     H2       HT       0.417000       1.00800           0   0.00000     -0.301140E-02
     53771 TIP3     9619     TIP3     OH2      OT      -0.834000       15.9994           0   0.00000       0.00000    
     53772 TIP3     9619     TIP3     H1       HT       0.417000       1.00800           0   0.00000       0.00000    
     53773 TIP3     9619     TIP3     H2       HT       0.417000       1.00800           0   0.00000     -0.301140E-02
     53774 TIP3     9620     TIP3     OH2      OT      -0.834000       15.9994           0   0.00000       0.00000    
     53775 TIP3     9620     TIP3     H1       HT       0.417000       1.00800           0   0.00000       0.00000    
     53776 TIP3     9620     TIP3     H2       HT       0.417000       1.00800           0   0.00000     -0.301140E-02
     53777 TIP3     9621     TIP3     OH2      OT      -0.834000       15.9994           0   0.00000       0.00000    
     53778 TIP3     9621     TIP3     H1       HT       0.417000       1.00800           0   0.00000       0.00000    
     53779 TIP3     9621     TIP3     H2       HT       0.417000       1.00800           0   0.00000     -0.301140E-02
     53780 TIP3     9622     TIP3     OH2      OT      -0.834000       15.9994           0   0.00000       0.00000    
     53781 TIP3     9622     TIP3     H1       HT       0.417000       1.00800           0   0.00000       0.00000    
     53782 TIP3     9622     TIP3     H2       HT       0.417000       1.00800           0   0.00000     -0.301140E-02
     53783 TIP3     9623     TIP3     OH2      OT      -0.834000       15.9994           0   0.00000       0.00000    
     53784 TIP3     9623     TIP3     H1       HT       0.417000       1.00800           0   0.00000       0.00000    
     53785 TIP3     9623     TIP3     H2       HT       0.417000       1.00800           0   0.00000     -0.301140E-02
     53786 TIP3     9624     TIP3     OH2      OT      -0.834000       15.9994           0   0.00000       0.00000    
     53787 TIP3     9624     TIP3     H1       HT       0.417000       1.00800           0   0.00000       0.00000    
     53788 TIP3     9624     TIP3     H2       HT       0.417000       1.00800           0   0.00000     -0.301140E-02
     53789 TIP3     9625     TIP3     OH2      OT      -0.834000       15.9994           0   0.00000       0.00000    
     53790 TIP3     9625     TIP3     H1       HT       0.417000       1.00800           0   0.00000       0.00000    
     53791 TIP3     9625     TIP3     H2       HT       0.417000       1.00800           0   0.00000     -0.301140E-02
     53792 TIP3     9626     TIP3     OH2      OT      -0.834000       15.9994           0   0.00000       0.00000    
     53793 TIP3     9626     TIP3     H1       HT       0.417000       1.00800           0   0.00000       0.00000    
     53794 TIP3     9626     TIP3     H2       HT       0.417000       1.00800           0   0.00000     -0.301140E-02
     53795 TIP3     9627     TIP3     OH2      OT      -0.834000       15.9994           0   0.00000       0.00000    
     53796 TIP3     9627     TIP3     H1       HT       0.417000       1.00800           0   0.00000       0.00000    
     53797 TIP3     9627     TIP3     H2       HT       0.417000       1.00800           0   0.00000     -0.301140E-02
     53798 TIP3     9628     TIP3     OH2      OT      -0.834000       15.9994           0   0.00000       0.00000    
     53799 TIP3     9628     TIP3     H1       HT       0.417000       1.00800           0   0.00000       0.00000    
     53800 TIP3     9628     TIP3     H2       HT       0.417000       1.00800           0   0.00000     -0.301140E-02
     53801 TIP3     9629     TIP3     OH2      OT      -0.834000       15.9994           0   0.00000       0.00000    
     53802 TIP3     9629     TIP3     H1       HT       0.417000       1.00800           0   0.00000       0.00000    
     53803 TIP3     9629     TIP3     H2       HT       0.417000       1.00800           0   0.00000     -0.301140E-02
     53804 TIP3     9630     TIP3     OH2      OT      -0.834000       15.9994           0   0.00000       0.00000    
     53805 TIP3     9630     TIP3     H1       HT       0.417000       1.00800           0   0.00000       0.00000    
     53806 TIP3     9630     TIP3     H2       HT       0.417000       1.00800           0   0.00000     -0.301140E-02
     53807 TIP3     9631     TIP3     OH2      OT      -0.834000       15.9994           0   0.00000       0.00000    
     53808 TIP3     9631     TIP3     H1       HT       0.417000       1.00800           0   0.00000       0.00000    
     53809 TIP3     9631     TIP3     H2       HT       0.417000       1.00800           0   0.00000     -0.301140E-02
     53810 TIP3     9632     TIP3     OH2      OT      -0.834000       15.9994           0   0.00000       0.00000    
     53811 TIP3     9632     TIP3     H1       HT       0.417000       1.00800           0   0.00000       0.00000    
     53812 TIP3     9632     TIP3     H2       HT       0.417000       1.00800           0   0.00000     -0.301140E-02
     53813 TIP3     9633     TIP3     OH2      OT      -0.834000       15.9994           0   0.00000       0.00000    
     53814 TIP3     9633     TIP3     H1       HT       0.417000       1.00800           0   0.00000       0.00000    
     53815 TIP3     9633     TIP3     H2       HT       0.417000       1.00800           0   0.00000     -0.301140E-02
     53816 TIP3     9634     TIP3     OH2      OT      -0.834000       15.9994           0   0.00000       0.00000    
     53817 TIP3     9634     TIP3     H1       HT       0.417000       1.00800           0   0.00000       0.00000    
     53818 TIP3     9634     TIP3     H2       HT       0.417000       1.00800           0   0.00000     -0.301140E-02
     53819 TIP3     9635     TIP3     OH2      OT      -0.834000       15.9994           0   0.00000       0.00000    
     53820 TIP3     9635     TIP3     H1       HT       0.417000       1.00800           0   0.00000       0.00000    
     53821 TIP3     9635     TIP3     H2       HT       0.417000       1.00800           0   0.00000     -0.301140E-02
     53822 TIP3     9636     TIP3     OH2      OT      -0.834000       15.9994           0   0.00000       0.00000    
     53823 TIP3     9636     TIP3     H1       HT       0.417000       1.00800           0   0.00000       0.00000    
     53824 TIP3     9636     TIP3     H2       HT       0.417000       1.00800           0   0.00000     -0.301140E-02
     53825 TIP3     9637     TIP3     OH2      OT      -0.834000       15.9994           0   0.00000       0.00000    
     53826 TIP3     9637     TIP3     H1       HT       0.417000       1.00800           0   0.00000       0.00000    
     53827 TIP3     9637     TIP3     H2       HT       0.417000       1.00800           0   0.00000     -0.301140E-02
     53828 TIP3     9638     TIP3     OH2      OT      -0.834000       15.9994           0   0.00000       0.00000    
     53829 TIP3     9638     TIP3     H1       HT       0.417000       1.00800           0   0.00000       0.00000    
     53830 TIP3     9638     TIP3     H2       HT       0.417000       1.00800           0   0.00000     -0.301140E-02
     53831 TIP3     9639     TIP3     OH2      OT      -0.834000       15.9994           0   0.00000       0.00000    
     53832 TIP3     9639     TIP3     H1       HT       0.417000       1.00800           0   0.00000       0.00000    
     53833 TIP3     9639     TIP3     H2       HT       0.417000       1.00800           0   0.00000     -0.301140E-02
     53834 TIP3     9640     TIP3     OH2      OT      -0.834000       15.9994           0   0.00000       0.00000    
     53835 TIP3     9640     TIP3     H1       HT       0.417000       1.00800           0   0.00000       0.00000    
     53836 TIP3     9640     TIP3     H2       HT       0.417000       1.00800           0   0.00000     -0.301140E-02
     53837 TIP3     9641     TIP3     OH2      OT      -0.834000       15.9994           0   0.00000       0.00000    
     53838 TIP3     9641     TIP3     H1       HT       0.417000       1.00800           0   0.00000       0.00000    
     53839 TIP3     9641     TIP3     H2       HT       0.417000       1.00800           0   0.00000     -0.301140E-02
     53840 TIP3     9642     TIP3     OH2      OT      -0.834000       15.9994           0   0.00000       0.00000    
     53841 TIP3     9642     TIP3     H1       HT       0.417000       1.00800           0   0.00000       0.00000    
     53842 TIP3     9642     TIP3     H2       HT       0.417000       1.00800           0   0.00000     -0.301140E-02
     53843 TIP3     9643     TIP3     OH2      OT      -0.834000       15.9994           0   0.00000       0.00000    
     53844 TIP3     9643     TIP3     H1       HT       0.417000       1.00800           0   0.00000       0.00000    
     53845 TIP3     9643     TIP3     H2       HT       0.417000       1.00800           0   0.00000     -0.301140E-02
     53846 TIP3     9644     TIP3     OH2      OT      -0.834000       15.9994           0   0.00000       0.00000    
     53847 TIP3     9644     TIP3     H1       HT       0.417000       1.00800           0   0.00000       0.00000    
     53848 TIP3     9644     TIP3     H2       HT       0.417000       1.00800           0   0.00000     -0.301140E-02
     53849 TIP3     9645     TIP3     OH2      OT      -0.834000       15.9994           0   0.00000       0.00000    
     53850 TIP3     9645     TIP3     H1       HT       0.417000       1.00800           0   0.00000       0.00000    
     53851 TIP3     9645     TIP3     H2       HT       0.417000       1.00800           0   0.00000     -0.301140E-02
     53852 TIP3     9646     TIP3     OH2      OT      -0.834000       15.9994           0   0.00000       0.00000    
     53853 TIP3     9646     TIP3     H1       HT       0.417000       1.00800           0   0.00000       0.00000    
     53854 TIP3     9646     TIP3     H2       HT       0.417000       1.00800           0   0.00000     -0.301140E-02
     53855 TIP3     9647     TIP3     OH2      OT      -0.834000       15.9994           0   0.00000       0.00000    
     53856 TIP3     9647     TIP3     H1       HT       0.417000       1.00800           0   0.00000       0.00000    
     53857 TIP3     9647     TIP3     H2       HT       0.417000       1.00800           0   0.00000     -0.301140E-02
     53858 TIP3     9648     TIP3     OH2      OT      -0.834000       15.9994           0   0.00000       0.00000    
     53859 TIP3     9648     TIP3     H1       HT       0.417000       1.00800           0   0.00000       0.00000    
     53860 TIP3     9648     TIP3     H2       HT       0.417000       1.00800           0   0.00000     -0.301140E-02
     53861 TIP3     9649     TIP3     OH2      OT      -0.834000       15.9994           0   0.00000       0.00000    
     53862 TIP3     9649     TIP3     H1       HT       0.417000       1.00800           0   0.00000       0.00000    
     53863 TIP3     9649     TIP3     H2       HT       0.417000       1.00800           0   0.00000     -0.301140E-02
     53864 TIP3     9650     TIP3     OH2      OT      -0.834000       15.9994           0   0.00000       0.00000    
     53865 TIP3     9650     TIP3     H1       HT       0.417000       1.00800           0   0.00000       0.00000    
     53866 TIP3     9650     TIP3     H2       HT       0.417000       1.00800           0   0.00000     -0.301140E-02
     53867 TIP3     9651     TIP3     OH2      OT      -0.834000       15.9994           0   0.00000       0.00000    
     53868 TIP3     9651     TIP3     H1       HT       0.417000       1.00800           0   0.00000       0.00000    
     53869 TIP3     9651     TIP3     H2       HT       0.417000       1.00800           0   0.00000     -0.301140E-02
     53870 TIP3     9652     TIP3     OH2      OT      -0.834000       15.9994           0   0.00000       0.00000    
     53871 TIP3     9652     TIP3     H1       HT       0.417000       1.00800           0   0.00000       0.00000    
     53872 TIP3     9652     TIP3     H2       HT       0.417000       1.00800           0   0.00000     -0.301140E-02
     53873 TIP3     9653     TIP3     OH2      OT      -0.834000       15.9994           0   0.00000       0.00000    
     53874 TIP3     9653     TIP3     H1       HT       0.417000       1.00800           0   0.00000       0.00000    
     53875 TIP3     9653     TIP3     H2       HT       0.417000       1.00800           0   0.00000     -0.301140E-02
     53876 TIP3     9654     TIP3     OH2      OT      -0.834000       15.9994           0   0.00000       0.00000    
     53877 TIP3     9654     TIP3     H1       HT       0.417000       1.00800           0   0.00000       0.00000    
     53878 TIP3     9654     TIP3     H2       HT       0.417000       1.00800           0   0.00000     -0.301140E-02
     53879 TIP3     9655     TIP3     OH2      OT      -0.834000       15.9994           0   0.00000       0.00000    
     53880 TIP3     9655     TIP3     H1       HT       0.417000       1.00800           0   0.00000       0.00000    
     53881 TIP3     9655     TIP3     H2       HT       0.417000       1.00800           0   0.00000     -0.301140E-02
     53882 TIP3     9656     TIP3     OH2      OT      -0.834000       15.9994           0   0.00000       0.00000    
     53883 TIP3     9656     TIP3     H1       HT       0.417000       1.00800           0   0.00000       0.00000    
     53884 TIP3     9656     TIP3     H2       HT       0.417000       1.00800           0   0.00000     -0.301140E-02
     53885 TIP3     9657     TIP3     OH2      OT      -0.834000       15.9994           0   0.00000       0.00000    
     53886 TIP3     9657     TIP3     H1       HT       0.417000       1.00800           0   0.00000       0.00000    
     53887 TIP3     9657     TIP3     H2       HT       0.417000       1.00800           0   0.00000     -0.301140E-02
     53888 TIP3     9658     TIP3     OH2      OT      -0.834000       15.9994           0   0.00000       0.00000    
     53889 TIP3     9658     TIP3     H1       HT       0.417000       1.00800           0   0.00000       0.00000    
     53890 TIP3     9658     TIP3     H2       HT       0.417000       1.00800           0   0.00000     -0.301140E-02
     53891 TIP3     9659     TIP3     OH2      OT      -0.834000       15.9994           0   0.00000       0.00000    
     53892 TIP3     9659     TIP3     H1       HT       0.417000       1.00800           0   0.00000       0.00000    
     53893 TIP3     9659     TIP3     H2       HT       0.417000       1.00800           0   0.00000     -0.301140E-02
     53894 TIP3     9660     TIP3     OH2      OT      -0.834000       15.9994           0   0.00000       0.00000    
     53895 TIP3     9660     TIP3     H1       HT       0.417000       1.00800           0   0.00000       0.00000    
     53896 TIP3     9660     TIP3     H2       HT       0.417000       1.00800           0   0.00000     -0.301140E-02
     53897 TIP3     9661     TIP3     OH2      OT      -0.834000       15.9994           0   0.00000       0.00000    
     53898 TIP3     9661     TIP3     H1       HT       0.417000       1.00800           0   0.00000       0.00000    
     53899 TIP3     9661     TIP3     H2       HT       0.417000       1.00800           0   0.00000     -0.301140E-02
     53900 TIP3     9662     TIP3     OH2      OT      -0.834000       15.9994           0   0.00000       0.00000    
     53901 TIP3     9662     TIP3     H1       HT       0.417000       1.00800           0   0.00000       0.00000    
     53902 TIP3     9662     TIP3     H2       HT       0.417000       1.00800           0   0.00000     -0.301140E-02
     53903 TIP3     9663     TIP3     OH2      OT      -0.834000       15.9994           0   0.00000       0.00000    
     53904 TIP3     9663     TIP3     H1       HT       0.417000       1.00800           0   0.00000       0.00000    
     53905 TIP3     9663     TIP3     H2       HT       0.417000       1.00800           0   0.00000     -0.301140E-02
     53906 TIP3     9664     TIP3     OH2      OT      -0.834000       15.9994           0   0.00000       0.00000    
     53907 TIP3     9664     TIP3     H1       HT       0.417000       1.00800           0   0.00000       0.00000    
     53908 TIP3     9664     TIP3     H2       HT       0.417000       1.00800           0   0.00000     -0.301140E-02
     53909 TIP3     9665     TIP3     OH2      OT      -0.834000       15.9994           0   0.00000       0.00000    
     53910 TIP3     9665     TIP3     H1       HT       0.417000       1.00800           0   0.00000       0.00000    
     53911 TIP3     9665     TIP3     H2       HT       0.417000       1.00800           0   0.00000     -0.301140E-02
     53912 TIP3     9666     TIP3     OH2      OT      -0.834000       15.9994           0   0.00000       0.00000    
     53913 TIP3     9666     TIP3     H1       HT       0.417000       1.00800           0   0.00000       0.00000    
     53914 TIP3     9666     TIP3     H2       HT       0.417000       1.00800           0   0.00000     -0.301140E-02
     53915 TIP3     9667     TIP3     OH2      OT      -0.834000       15.9994           0   0.00000       0.00000    
     53916 TIP3     9667     TIP3     H1       HT       0.417000       1.00800           0   0.00000       0.00000    
     53917 TIP3     9667     TIP3     H2       HT       0.417000       1.00800           0   0.00000     -0.301140E-02
     53918 TIP3     9668     TIP3     OH2      OT      -0.834000       15.9994           0   0.00000       0.00000    
     53919 TIP3     9668     TIP3     H1       HT       0.417000       1.00800           0   0.00000       0.00000    
     53920 TIP3     9668     TIP3     H2       HT       0.417000       1.00800           0   0.00000     -0.301140E-02
     53921 TIP3     9669     TIP3     OH2      OT      -0.834000       15.9994           0   0.00000       0.00000    
     53922 TIP3     9669     TIP3     H1       HT       0.417000       1.00800           0   0.00000       0.00000    
     53923 TIP3     9669     TIP3     H2       HT       0.417000       1.00800           0   0.00000     -0.301140E-02
     53924 TIP3     9670     TIP3     OH2      OT      -0.834000       15.9994           0   0.00000       0.00000    
     53925 TIP3     9670     TIP3     H1       HT       0.417000       1.00800           0   0.00000       0.00000    
     53926 TIP3     9670     TIP3     H2       HT       0.417000       1.00800           0   0.00000     -0.301140E-02
     53927 TIP3     9671     TIP3     OH2      OT      -0.834000       15.9994           0   0.00000       0.00000    
     53928 TIP3     9671     TIP3     H1       HT       0.417000       1.00800           0   0.00000       0.00000    
     53929 TIP3     9671     TIP3     H2       HT       0.417000       1.00800           0   0.00000     -0.301140E-02
     53930 TIP3     9672     TIP3     OH2      OT      -0.834000       15.9994           0   0.00000       0.00000    
     53931 TIP3     9672     TIP3     H1       HT       0.417000       1.00800           0   0.00000       0.00000    
     53932 TIP3     9672     TIP3     H2       HT       0.417000       1.00800           0   0.00000     -0.301140E-02
     53933 TIP3     9673     TIP3     OH2      OT      -0.834000       15.9994           0   0.00000       0.00000    
     53934 TIP3     9673     TIP3     H1       HT       0.417000       1.00800           0   0.00000       0.00000    
     53935 TIP3     9673     TIP3     H2       HT       0.417000       1.00800           0   0.00000     -0.301140E-02
     53936 TIP3     9674     TIP3     OH2      OT      -0.834000       15.9994           0   0.00000       0.00000    
     53937 TIP3     9674     TIP3     H1       HT       0.417000       1.00800           0   0.00000       0.00000    
     53938 TIP3     9674     TIP3     H2       HT       0.417000       1.00800           0   0.00000     -0.301140E-02
     53939 TIP3     9675     TIP3     OH2      OT      -0.834000       15.9994           0   0.00000       0.00000    
     53940 TIP3     9675     TIP3     H1       HT       0.417000       1.00800           0   0.00000       0.00000    
     53941 TIP3     9675     TIP3     H2       HT       0.417000       1.00800           0   0.00000     -0.301140E-02
     53942 TIP3     9676     TIP3     OH2      OT      -0.834000       15.9994           0   0.00000       0.00000    
     53943 TIP3     9676     TIP3     H1       HT       0.417000       1.00800           0   0.00000       0.00000    
     53944 TIP3     9676     TIP3     H2       HT       0.417000       1.00800           0   0.00000     -0.301140E-02
     53945 TIP3     9677     TIP3     OH2      OT      -0.834000       15.9994           0   0.00000       0.00000    
     53946 TIP3     9677     TIP3     H1       HT       0.417000       1.00800           0   0.00000       0.00000    
     53947 TIP3     9677     TIP3     H2       HT       0.417000       1.00800           0   0.00000     -0.301140E-02
     53948 TIP3     9678     TIP3     OH2      OT      -0.834000       15.9994           0   0.00000       0.00000    
     53949 TIP3     9678     TIP3     H1       HT       0.417000       1.00800           0   0.00000       0.00000    
     53950 TIP3     9678     TIP3     H2       HT       0.417000       1.00800           0   0.00000     -0.301140E-02
     53951 TIP3     9679     TIP3     OH2      OT      -0.834000       15.9994           0   0.00000       0.00000    
     53952 TIP3     9679     TIP3     H1       HT       0.417000       1.00800           0   0.00000       0.00000    
     53953 TIP3     9679     TIP3     H2       HT       0.417000       1.00800           0   0.00000     -0.301140E-02
     53954 TIP3     9680     TIP3     OH2      OT      -0.834000       15.9994           0   0.00000       0.00000    
     53955 TIP3     9680     TIP3     H1       HT       0.417000       1.00800           0   0.00000       0.00000    
     53956 TIP3     9680     TIP3     H2       HT       0.417000       1.00800           0   0.00000     -0.301140E-02
     53957 TIP3     9681     TIP3     OH2      OT      -0.834000       15.9994           0   0.00000       0.00000    
     53958 TIP3     9681     TIP3     H1       HT       0.417000       1.00800           0   0.00000       0.00000    
     53959 TIP3     9681     TIP3     H2       HT       0.417000       1.00800           0   0.00000     -0.301140E-02
     53960 TIP3     9682     TIP3     OH2      OT      -0.834000       15.9994           0   0.00000       0.00000    
     53961 TIP3     9682     TIP3     H1       HT       0.417000       1.00800           0   0.00000       0.00000    
     53962 TIP3     9682     TIP3     H2       HT       0.417000       1.00800           0   0.00000     -0.301140E-02
     53963 TIP3     9683     TIP3     OH2      OT      -0.834000       15.9994           0   0.00000       0.00000    
     53964 TIP3     9683     TIP3     H1       HT       0.417000       1.00800           0   0.00000       0.00000    
     53965 TIP3     9683     TIP3     H2       HT       0.417000       1.00800           0   0.00000     -0.301140E-02
     53966 TIP3     9684     TIP3     OH2      OT      -0.834000       15.9994           0   0.00000       0.00000    
     53967 TIP3     9684     TIP3     H1       HT       0.417000       1.00800           0   0.00000       0.00000    
     53968 TIP3     9684     TIP3     H2       HT       0.417000       1.00800           0   0.00000     -0.301140E-02
     53969 TIP3     9685     TIP3     OH2      OT      -0.834000       15.9994           0   0.00000       0.00000    
     53970 TIP3     9685     TIP3     H1       HT       0.417000       1.00800           0   0.00000       0.00000    
     53971 TIP3     9685     TIP3     H2       HT       0.417000       1.00800           0   0.00000     -0.301140E-02
     53972 TIP3     9686     TIP3     OH2      OT      -0.834000       15.9994           0   0.00000       0.00000    
     53973 TIP3     9686     TIP3     H1       HT       0.417000       1.00800           0   0.00000       0.00000    
     53974 TIP3     9686     TIP3     H2       HT       0.417000       1.00800           0   0.00000     -0.301140E-02
     53975 TIP3     9687     TIP3     OH2      OT      -0.834000       15.9994           0   0.00000       0.00000    
     53976 TIP3     9687     TIP3     H1       HT       0.417000       1.00800           0   0.00000       0.00000    
     53977 TIP3     9687     TIP3     H2       HT       0.417000       1.00800           0   0.00000     -0.301140E-02
     53978 TIP3     9688     TIP3     OH2      OT      -0.834000       15.9994           0   0.00000       0.00000    
     53979 TIP3     9688     TIP3     H1       HT       0.417000       1.00800           0   0.00000       0.00000    
     53980 TIP3     9688     TIP3     H2       HT       0.417000       1.00800           0   0.00000     -0.301140E-02
     53981 TIP3     9689     TIP3     OH2      OT      -0.834000       15.9994           0   0.00000       0.00000    
     53982 TIP3     9689     TIP3     H1       HT       0.417000       1.00800           0   0.00000       0.00000    
     53983 TIP3     9689     TIP3     H2       HT       0.417000       1.00800           0   0.00000     -0.301140E-02
     53984 TIP3     9690     TIP3     OH2      OT      -0.834000       15.9994           0   0.00000       0.00000    
     53985 TIP3     9690     TIP3     H1       HT       0.417000       1.00800           0   0.00000       0.00000    
     53986 TIP3     9690     TIP3     H2       HT       0.417000       1.00800           0   0.00000     -0.301140E-02
     53987 TIP3     9691     TIP3     OH2      OT      -0.834000       15.9994           0   0.00000       0.00000    
     53988 TIP3     9691     TIP3     H1       HT       0.417000       1.00800           0   0.00000       0.00000    
     53989 TIP3     9691     TIP3     H2       HT       0.417000       1.00800           0   0.00000     -0.301140E-02
     53990 TIP3     9692     TIP3     OH2      OT      -0.834000       15.9994           0   0.00000       0.00000    
     53991 TIP3     9692     TIP3     H1       HT       0.417000       1.00800           0   0.00000       0.00000    
     53992 TIP3     9692     TIP3     H2       HT       0.417000       1.00800           0   0.00000     -0.301140E-02
     53993 TIP3     9693     TIP3     OH2      OT      -0.834000       15.9994           0   0.00000       0.00000    
     53994 TIP3     9693     TIP3     H1       HT       0.417000       1.00800           0   0.00000       0.00000    
     53995 TIP3     9693     TIP3     H2       HT       0.417000       1.00800           0   0.00000     -0.301140E-02
     53996 TIP3     9694     TIP3     OH2      OT      -0.834000       15.9994           0   0.00000       0.00000    
     53997 TIP3     9694     TIP3     H1       HT       0.417000       1.00800           0   0.00000       0.00000    
     53998 TIP3     9694     TIP3     H2       HT       0.417000       1.00800           0   0.00000     -0.301140E-02
     53999 TIP3     9695     TIP3     OH2      OT      -0.834000       15.9994           0   0.00000       0.00000    
     54000 TIP3     9695     TIP3     H1       HT       0.417000       1.00800           0   0.00000       0.00000    
     54001 TIP3     9695     TIP3     H2       HT       0.417000       1.00800           0   0.00000     -0.301140E-02
     54002 TIP3     9696     TIP3     OH2      OT      -0.834000       15.9994           0   0.00000       0.00000    
     54003 TIP3     9696     TIP3     H1       HT       0.417000       1.00800           0   0.00000       0.00000    
     54004 TIP3     9696     TIP3     H2       HT       0.417000       1.00800           0   0.00000     -0.301140E-02
     54005 TIP3     9697     TIP3     OH2      OT      -0.834000       15.9994           0   0.00000       0.00000    
     54006 TIP3     9697     TIP3     H1       HT       0.417000       1.00800           0   0.00000       0.00000    
     54007 TIP3     9697     TIP3     H2       HT       0.417000       1.00800           0   0.00000     -0.301140E-02
     54008 TIP3     9698     TIP3     OH2      OT      -0.834000       15.9994           0   0.00000       0.00000    
     54009 TIP3     9698     TIP3     H1       HT       0.417000       1.00800           0   0.00000       0.00000    
     54010 TIP3     9698     TIP3     H2       HT       0.417000       1.00800           0   0.00000     -0.301140E-02
     54011 TIP3     9699     TIP3     OH2      OT      -0.834000       15.9994           0   0.00000       0.00000    
     54012 TIP3     9699     TIP3     H1       HT       0.417000       1.00800           0   0.00000       0.00000    
     54013 TIP3     9699     TIP3     H2       HT       0.417000       1.00800           0   0.00000     -0.301140E-02
     54014 TIP3     9700     TIP3     OH2      OT      -0.834000       15.9994           0   0.00000       0.00000    
     54015 TIP3     9700     TIP3     H1       HT       0.417000       1.00800           0   0.00000       0.00000    
     54016 TIP3     9700     TIP3     H2       HT       0.417000       1.00800           0   0.00000     -0.301140E-02
     54017 TIP3     9701     TIP3     OH2      OT      -0.834000       15.9994           0   0.00000       0.00000    
     54018 TIP3     9701     TIP3     H1       HT       0.417000       1.00800           0   0.00000       0.00000    
     54019 TIP3     9701     TIP3     H2       HT       0.417000       1.00800           0   0.00000     -0.301140E-02
     54020 TIP3     9702     TIP3     OH2      OT      -0.834000       15.9994           0   0.00000       0.00000    
     54021 TIP3     9702     TIP3     H1       HT       0.417000       1.00800           0   0.00000       0.00000    
     54022 TIP3     9702     TIP3     H2       HT       0.417000       1.00800           0   0.00000     -0.301140E-02
     54023 TIP3     9703     TIP3     OH2      OT      -0.834000       15.9994           0   0.00000       0.00000    
     54024 TIP3     9703     TIP3     H1       HT       0.417000       1.00800           0   0.00000       0.00000    
     54025 TIP3     9703     TIP3     H2       HT       0.417000       1.00800           0   0.00000     -0.301140E-02
     54026 TIP3     9704     TIP3     OH2      OT      -0.834000       15.9994           0   0.00000       0.00000    
     54027 TIP3     9704     TIP3     H1       HT       0.417000       1.00800           0   0.00000       0.00000    
     54028 TIP3     9704     TIP3     H2       HT       0.417000       1.00800           0   0.00000     -0.301140E-02
     54029 TIP3     9705     TIP3     OH2      OT      -0.834000       15.9994           0   0.00000       0.00000    
     54030 TIP3     9705     TIP3     H1       HT       0.417000       1.00800           0   0.00000       0.00000    
     54031 TIP3     9705     TIP3     H2       HT       0.417000       1.00800           0   0.00000     -0.301140E-02
     54032 TIP3     9706     TIP3     OH2      OT      -0.834000       15.9994           0   0.00000       0.00000    
     54033 TIP3     9706     TIP3     H1       HT       0.417000       1.00800           0   0.00000       0.00000    
     54034 TIP3     9706     TIP3     H2       HT       0.417000       1.00800           0   0.00000     -0.301140E-02
     54035 TIP3     9707     TIP3     OH2      OT      -0.834000       15.9994           0   0.00000       0.00000    
     54036 TIP3     9707     TIP3     H1       HT       0.417000       1.00800           0   0.00000       0.00000    
     54037 TIP3     9707     TIP3     H2       HT       0.417000       1.00800           0   0.00000     -0.301140E-02
     54038 TIP3     9708     TIP3     OH2      OT      -0.834000       15.9994           0   0.00000       0.00000    
     54039 TIP3     9708     TIP3     H1       HT       0.417000       1.00800           0   0.00000       0.00000    
     54040 TIP3     9708     TIP3     H2       HT       0.417000       1.00800           0   0.00000     -0.301140E-02
     54041 TIP3     9709     TIP3     OH2      OT      -0.834000       15.9994           0   0.00000       0.00000    
     54042 TIP3     9709     TIP3     H1       HT       0.417000       1.00800           0   0.00000       0.00000    
     54043 TIP3     9709     TIP3     H2       HT       0.417000       1.00800           0   0.00000     -0.301140E-02
     54044 TIP3     9710     TIP3     OH2      OT      -0.834000       15.9994           0   0.00000       0.00000    
     54045 TIP3     9710     TIP3     H1       HT       0.417000       1.00800           0   0.00000       0.00000    
     54046 TIP3     9710     TIP3     H2       HT       0.417000       1.00800           0   0.00000     -0.301140E-02
     54047 TIP3     9711     TIP3     OH2      OT      -0.834000       15.9994           0   0.00000       0.00000    
     54048 TIP3     9711     TIP3     H1       HT       0.417000       1.00800           0   0.00000       0.00000    
     54049 TIP3     9711     TIP3     H2       HT       0.417000       1.00800           0   0.00000     -0.301140E-02
     54050 TIP3     9712     TIP3     OH2      OT      -0.834000       15.9994           0   0.00000       0.00000    
     54051 TIP3     9712     TIP3     H1       HT       0.417000       1.00800           0   0.00000       0.00000    
     54052 TIP3     9712     TIP3     H2       HT       0.417000       1.00800           0   0.00000     -0.301140E-02
     54053 TIP3     9713     TIP3     OH2      OT      -0.834000       15.9994           0   0.00000       0.00000    
     54054 TIP3     9713     TIP3     H1       HT       0.417000       1.00800           0   0.00000       0.00000    
     54055 TIP3     9713     TIP3     H2       HT       0.417000       1.00800           0   0.00000     -0.301140E-02
     54056 TIP3     9714     TIP3     OH2      OT      -0.834000       15.9994           0   0.00000       0.00000    
     54057 TIP3     9714     TIP3     H1       HT       0.417000       1.00800           0   0.00000       0.00000    
     54058 TIP3     9714     TIP3     H2       HT       0.417000       1.00800           0   0.00000     -0.301140E-02
     54059 TIP3     9715     TIP3     OH2      OT      -0.834000       15.9994           0   0.00000       0.00000    
     54060 TIP3     9715     TIP3     H1       HT       0.417000       1.00800           0   0.00000       0.00000    
     54061 TIP3     9715     TIP3     H2       HT       0.417000       1.00800           0   0.00000     -0.301140E-02
     54062 TIP3     9716     TIP3     OH2      OT      -0.834000       15.9994           0   0.00000       0.00000    
     54063 TIP3     9716     TIP3     H1       HT       0.417000       1.00800           0   0.00000       0.00000    
     54064 TIP3     9716     TIP3     H2       HT       0.417000       1.00800           0   0.00000     -0.301140E-02
     54065 TIP3     9717     TIP3     OH2      OT      -0.834000       15.9994           0   0.00000       0.00000    
     54066 TIP3     9717     TIP3     H1       HT       0.417000       1.00800           0   0.00000       0.00000    
     54067 TIP3     9717     TIP3     H2       HT       0.417000       1.00800           0   0.00000     -0.301140E-02
     54068 TIP3     9718     TIP3     OH2      OT      -0.834000       15.9994           0   0.00000       0.00000    
     54069 TIP3     9718     TIP3     H1       HT       0.417000       1.00800           0   0.00000       0.00000    
     54070 TIP3     9718     TIP3     H2       HT       0.417000       1.00800           0   0.00000     -0.301140E-02
     54071 TIP3     9719     TIP3     OH2      OT      -0.834000       15.9994           0   0.00000       0.00000    
     54072 TIP3     9719     TIP3     H1       HT       0.417000       1.00800           0   0.00000       0.00000    
     54073 TIP3     9719     TIP3     H2       HT       0.417000       1.00800           0   0.00000     -0.301140E-02
     54074 TIP3     9720     TIP3     OH2      OT      -0.834000       15.9994           0   0.00000       0.00000    
     54075 TIP3     9720     TIP3     H1       HT       0.417000       1.00800           0   0.00000       0.00000    
     54076 TIP3     9720     TIP3     H2       HT       0.417000       1.00800           0   0.00000     -0.301140E-02
     54077 TIP3     9721     TIP3     OH2      OT      -0.834000       15.9994           0   0.00000       0.00000    
     54078 TIP3     9721     TIP3     H1       HT       0.417000       1.00800           0   0.00000       0.00000    
     54079 TIP3     9721     TIP3     H2       HT       0.417000       1.00800           0   0.00000     -0.301140E-02
     54080 TIP3     9722     TIP3     OH2      OT      -0.834000       15.9994           0   0.00000       0.00000    
     54081 TIP3     9722     TIP3     H1       HT       0.417000       1.00800           0   0.00000       0.00000    
     54082 TIP3     9722     TIP3     H2       HT       0.417000       1.00800           0   0.00000     -0.301140E-02
     54083 TIP3     9723     TIP3     OH2      OT      -0.834000       15.9994           0   0.00000       0.00000    
     54084 TIP3     9723     TIP3     H1       HT       0.417000       1.00800           0   0.00000       0.00000    
     54085 TIP3     9723     TIP3     H2       HT       0.417000       1.00800           0   0.00000     -0.301140E-02
     54086 TIP3     9724     TIP3     OH2      OT      -0.834000       15.9994           0   0.00000       0.00000    
     54087 TIP3     9724     TIP3     H1       HT       0.417000       1.00800           0   0.00000       0.00000    
     54088 TIP3     9724     TIP3     H2       HT       0.417000       1.00800           0   0.00000     -0.301140E-02
     54089 TIP3     9725     TIP3     OH2      OT      -0.834000       15.9994           0   0.00000       0.00000    
     54090 TIP3     9725     TIP3     H1       HT       0.417000       1.00800           0   0.00000       0.00000    
     54091 TIP3     9725     TIP3     H2       HT       0.417000       1.00800           0   0.00000     -0.301140E-02
     54092 TIP3     9726     TIP3     OH2      OT      -0.834000       15.9994           0   0.00000       0.00000    
     54093 TIP3     9726     TIP3     H1       HT       0.417000       1.00800           0   0.00000       0.00000    
     54094 TIP3     9726     TIP3     H2       HT       0.417000       1.00800           0   0.00000     -0.301140E-02
     54095 TIP3     9727     TIP3     OH2      OT      -0.834000       15.9994           0   0.00000       0.00000    
     54096 TIP3     9727     TIP3     H1       HT       0.417000       1.00800           0   0.00000       0.00000    
     54097 TIP3     9727     TIP3     H2       HT       0.417000       1.00800           0   0.00000     -0.301140E-02
     54098 TIP3     9728     TIP3     OH2      OT      -0.834000       15.9994           0   0.00000       0.00000    
     54099 TIP3     9728     TIP3     H1       HT       0.417000       1.00800           0   0.00000       0.00000    
     54100 TIP3     9728     TIP3     H2       HT       0.417000       1.00800           0   0.00000     -0.301140E-02
     54101 TIP3     9729     TIP3     OH2      OT      -0.834000       15.9994           0   0.00000       0.00000    
     54102 TIP3     9729     TIP3     H1       HT       0.417000       1.00800           0   0.00000       0.00000    
     54103 TIP3     9729     TIP3     H2       HT       0.417000       1.00800           0   0.00000     -0.301140E-02
     54104 TIP3     9730     TIP3     OH2      OT      -0.834000       15.9994           0   0.00000       0.00000    
     54105 TIP3     9730     TIP3     H1       HT       0.417000       1.00800           0   0.00000       0.00000    
     54106 TIP3     9730     TIP3     H2       HT       0.417000       1.00800           0   0.00000     -0.301140E-02
     54107 TIP3     9731     TIP3     OH2      OT      -0.834000       15.9994           0   0.00000       0.00000    
     54108 TIP3     9731     TIP3     H1       HT       0.417000       1.00800           0   0.00000       0.00000    
     54109 TIP3     9731     TIP3     H2       HT       0.417000       1.00800           0   0.00000     -0.301140E-02
     54110 TIP3     9732     TIP3     OH2      OT      -0.834000       15.9994           0   0.00000       0.00000    
     54111 TIP3     9732     TIP3     H1       HT       0.417000       1.00800           0   0.00000       0.00000    
     54112 TIP3     9732     TIP3     H2       HT       0.417000       1.00800           0   0.00000     -0.301140E-02
     54113 TIP3     9733     TIP3     OH2      OT      -0.834000       15.9994           0   0.00000       0.00000    
     54114 TIP3     9733     TIP3     H1       HT       0.417000       1.00800           0   0.00000       0.00000    
     54115 TIP3     9733     TIP3     H2       HT       0.417000       1.00800           0   0.00000     -0.301140E-02
     54116 TIP3     9734     TIP3     OH2      OT      -0.834000       15.9994           0   0.00000       0.00000    
     54117 TIP3     9734     TIP3     H1       HT       0.417000       1.00800           0   0.00000       0.00000    
     54118 TIP3     9734     TIP3     H2       HT       0.417000       1.00800           0   0.00000     -0.301140E-02
     54119 TIP3     9735     TIP3     OH2      OT      -0.834000       15.9994           0   0.00000       0.00000    
     54120 TIP3     9735     TIP3     H1       HT       0.417000       1.00800           0   0.00000       0.00000    
     54121 TIP3     9735     TIP3     H2       HT       0.417000       1.00800           0   0.00000     -0.301140E-02
     54122 TIP3     9736     TIP3     OH2      OT      -0.834000       15.9994           0   0.00000       0.00000    
     54123 TIP3     9736     TIP3     H1       HT       0.417000       1.00800           0   0.00000       0.00000    
     54124 TIP3     9736     TIP3     H2       HT       0.417000       1.00800           0   0.00000     -0.301140E-02
     54125 TIP3     9737     TIP3     OH2      OT      -0.834000       15.9994           0   0.00000       0.00000    
     54126 TIP3     9737     TIP3     H1       HT       0.417000       1.00800           0   0.00000       0.00000    
     54127 TIP3     9737     TIP3     H2       HT       0.417000       1.00800           0   0.00000     -0.301140E-02
     54128 TIP3     9738     TIP3     OH2      OT      -0.834000       15.9994           0   0.00000       0.00000    
     54129 TIP3     9738     TIP3     H1       HT       0.417000       1.00800           0   0.00000       0.00000    
     54130 TIP3     9738     TIP3     H2       HT       0.417000       1.00800           0   0.00000     -0.301140E-02
     54131 TIP3     9739     TIP3     OH2      OT      -0.834000       15.9994           0   0.00000       0.00000    
     54132 TIP3     9739     TIP3     H1       HT       0.417000       1.00800           0   0.00000       0.00000    
     54133 TIP3     9739     TIP3     H2       HT       0.417000       1.00800           0   0.00000     -0.301140E-02
     54134 TIP3     9740     TIP3     OH2      OT      -0.834000       15.9994           0   0.00000       0.00000    
     54135 TIP3     9740     TIP3     H1       HT       0.417000       1.00800           0   0.00000       0.00000    
     54136 TIP3     9740     TIP3     H2       HT       0.417000       1.00800           0   0.00000     -0.301140E-02
     54137 TIP3     9741     TIP3     OH2      OT      -0.834000       15.9994           0   0.00000       0.00000    
     54138 TIP3     9741     TIP3     H1       HT       0.417000       1.00800           0   0.00000       0.00000    
     54139 TIP3     9741     TIP3     H2       HT       0.417000       1.00800           0   0.00000     -0.301140E-02
     54140 TIP3     9742     TIP3     OH2      OT      -0.834000       15.9994           0   0.00000       0.00000    
     54141 TIP3     9742     TIP3     H1       HT       0.417000       1.00800           0   0.00000       0.00000    
     54142 TIP3     9742     TIP3     H2       HT       0.417000       1.00800           0   0.00000     -0.301140E-02
     54143 TIP3     9743     TIP3     OH2      OT      -0.834000       15.9994           0   0.00000       0.00000    
     54144 TIP3     9743     TIP3     H1       HT       0.417000       1.00800           0   0.00000       0.00000    
     54145 TIP3     9743     TIP3     H2       HT       0.417000       1.00800           0   0.00000     -0.301140E-02
     54146 TIP3     9744     TIP3     OH2      OT      -0.834000       15.9994           0   0.00000       0.00000    
     54147 TIP3     9744     TIP3     H1       HT       0.417000       1.00800           0   0.00000       0.00000    
     54148 TIP3     9744     TIP3     H2       HT       0.417000       1.00800           0   0.00000     -0.301140E-02
     54149 TIP3     9745     TIP3     OH2      OT      -0.834000       15.9994           0   0.00000       0.00000    
     54150 TIP3     9745     TIP3     H1       HT       0.417000       1.00800           0   0.00000       0.00000    
     54151 TIP3     9745     TIP3     H2       HT       0.417000       1.00800           0   0.00000     -0.301140E-02
     54152 TIP3     9746     TIP3     OH2      OT      -0.834000       15.9994           0   0.00000       0.00000    
     54153 TIP3     9746     TIP3     H1       HT       0.417000       1.00800           0   0.00000       0.00000    
     54154 TIP3     9746     TIP3     H2       HT       0.417000       1.00800           0   0.00000     -0.301140E-02
     54155 TIP3     9747     TIP3     OH2      OT      -0.834000       15.9994           0   0.00000       0.00000    
     54156 TIP3     9747     TIP3     H1       HT       0.417000       1.00800           0   0.00000       0.00000    
     54157 TIP3     9747     TIP3     H2       HT       0.417000       1.00800           0   0.00000     -0.301140E-02
     54158 TIP3     9748     TIP3     OH2      OT      -0.834000       15.9994           0   0.00000       0.00000    
     54159 TIP3     9748     TIP3     H1       HT       0.417000       1.00800           0   0.00000       0.00000    
     54160 TIP3     9748     TIP3     H2       HT       0.417000       1.00800           0   0.00000     -0.301140E-02
     54161 TIP3     9749     TIP3     OH2      OT      -0.834000       15.9994           0   0.00000       0.00000    
     54162 TIP3     9749     TIP3     H1       HT       0.417000       1.00800           0   0.00000       0.00000    
     54163 TIP3     9749     TIP3     H2       HT       0.417000       1.00800           0   0.00000     -0.301140E-02
     54164 TIP3     9750     TIP3     OH2      OT      -0.834000       15.9994           0   0.00000       0.00000    
     54165 TIP3     9750     TIP3     H1       HT       0.417000       1.00800           0   0.00000       0.00000    
     54166 TIP3     9750     TIP3     H2       HT       0.417000       1.00800           0   0.00000     -0.301140E-02
     54167 TIP3     9751     TIP3     OH2      OT      -0.834000       15.9994           0   0.00000       0.00000    
     54168 TIP3     9751     TIP3     H1       HT       0.417000       1.00800           0   0.00000       0.00000    
     54169 TIP3     9751     TIP3     H2       HT       0.417000       1.00800           0   0.00000     -0.301140E-02
     54170 TIP3     9752     TIP3     OH2      OT      -0.834000       15.9994           0   0.00000       0.00000    
     54171 TIP3     9752     TIP3     H1       HT       0.417000       1.00800           0   0.00000       0.00000    
     54172 TIP3     9752     TIP3     H2       HT       0.417000       1.00800           0   0.00000     -0.301140E-02
     54173 TIP3     9753     TIP3     OH2      OT      -0.834000       15.9994           0   0.00000       0.00000    
     54174 TIP3     9753     TIP3     H1       HT       0.417000       1.00800           0   0.00000       0.00000    
     54175 TIP3     9753     TIP3     H2       HT       0.417000       1.00800           0   0.00000     -0.301140E-02
     54176 TIP3     9754     TIP3     OH2      OT      -0.834000       15.9994           0   0.00000       0.00000    
     54177 TIP3     9754     TIP3     H1       HT       0.417000       1.00800           0   0.00000       0.00000    
     54178 TIP3     9754     TIP3     H2       HT       0.417000       1.00800           0   0.00000     -0.301140E-02
     54179 TIP3     9755     TIP3     OH2      OT      -0.834000       15.9994           0   0.00000       0.00000    
     54180 TIP3     9755     TIP3     H1       HT       0.417000       1.00800           0   0.00000       0.00000    
     54181 TIP3     9755     TIP3     H2       HT       0.417000       1.00800           0   0.00000     -0.301140E-02
     54182 TIP3     9756     TIP3     OH2      OT      -0.834000       15.9994           0   0.00000       0.00000    
     54183 TIP3     9756     TIP3     H1       HT       0.417000       1.00800           0   0.00000       0.00000    
     54184 TIP3     9756     TIP3     H2       HT       0.417000       1.00800           0   0.00000     -0.301140E-02
     54185 TIP3     9757     TIP3     OH2      OT      -0.834000       15.9994           0   0.00000       0.00000    
     54186 TIP3     9757     TIP3     H1       HT       0.417000       1.00800           0   0.00000       0.00000    
     54187 TIP3     9757     TIP3     H2       HT       0.417000       1.00800           0   0.00000     -0.301140E-02
     54188 TIP3     9758     TIP3     OH2      OT      -0.834000       15.9994           0   0.00000       0.00000    
     54189 TIP3     9758     TIP3     H1       HT       0.417000       1.00800           0   0.00000       0.00000    
     54190 TIP3     9758     TIP3     H2       HT       0.417000       1.00800           0   0.00000     -0.301140E-02
     54191 TIP3     9759     TIP3     OH2      OT      -0.834000       15.9994           0   0.00000       0.00000    
     54192 TIP3     9759     TIP3     H1       HT       0.417000       1.00800           0   0.00000       0.00000    
     54193 TIP3     9759     TIP3     H2       HT       0.417000       1.00800           0   0.00000     -0.301140E-02
     54194 TIP3     9760     TIP3     OH2      OT      -0.834000       15.9994           0   0.00000       0.00000    
     54195 TIP3     9760     TIP3     H1       HT       0.417000       1.00800           0   0.00000       0.00000    
     54196 TIP3     9760     TIP3     H2       HT       0.417000       1.00800           0   0.00000     -0.301140E-02
     54197 TIP3     9761     TIP3     OH2      OT      -0.834000       15.9994           0   0.00000       0.00000    
     54198 TIP3     9761     TIP3     H1       HT       0.417000       1.00800           0   0.00000       0.00000    
     54199 TIP3     9761     TIP3     H2       HT       0.417000       1.00800           0   0.00000     -0.301140E-02
     54200 TIP3     9762     TIP3     OH2      OT      -0.834000       15.9994           0   0.00000       0.00000    
     54201 TIP3     9762     TIP3     H1       HT       0.417000       1.00800           0   0.00000       0.00000    
     54202 TIP3     9762     TIP3     H2       HT       0.417000       1.00800           0   0.00000     -0.301140E-02
     54203 TIP3     9763     TIP3     OH2      OT      -0.834000       15.9994           0   0.00000       0.00000    
     54204 TIP3     9763     TIP3     H1       HT       0.417000       1.00800           0   0.00000       0.00000    
     54205 TIP3     9763     TIP3     H2       HT       0.417000       1.00800           0   0.00000     -0.301140E-02
     54206 TIP3     9764     TIP3     OH2      OT      -0.834000       15.9994           0   0.00000       0.00000    
     54207 TIP3     9764     TIP3     H1       HT       0.417000       1.00800           0   0.00000       0.00000    
     54208 TIP3     9764     TIP3     H2       HT       0.417000       1.00800           0   0.00000     -0.301140E-02
     54209 TIP3     9765     TIP3     OH2      OT      -0.834000       15.9994           0   0.00000       0.00000    
     54210 TIP3     9765     TIP3     H1       HT       0.417000       1.00800           0   0.00000       0.00000    
     54211 TIP3     9765     TIP3     H2       HT       0.417000       1.00800           0   0.00000     -0.301140E-02
     54212 TIP3     9766     TIP3     OH2      OT      -0.834000       15.9994           0   0.00000       0.00000    
     54213 TIP3     9766     TIP3     H1       HT       0.417000       1.00800           0   0.00000       0.00000    
     54214 TIP3     9766     TIP3     H2       HT       0.417000       1.00800           0   0.00000     -0.301140E-02
     54215 TIP3     9767     TIP3     OH2      OT      -0.834000       15.9994           0   0.00000       0.00000    
     54216 TIP3     9767     TIP3     H1       HT       0.417000       1.00800           0   0.00000       0.00000    
     54217 TIP3     9767     TIP3     H2       HT       0.417000       1.00800           0   0.00000     -0.301140E-02
     54218 TIP3     9768     TIP3     OH2      OT      -0.834000       15.9994           0   0.00000       0.00000    
     54219 TIP3     9768     TIP3     H1       HT       0.417000       1.00800           0   0.00000       0.00000    
     54220 TIP3     9768     TIP3     H2       HT       0.417000       1.00800           0   0.00000     -0.301140E-02
     54221 TIP3     9769     TIP3     OH2      OT      -0.834000       15.9994           0   0.00000       0.00000    
     54222 TIP3     9769     TIP3     H1       HT       0.417000       1.00800           0   0.00000       0.00000    
     54223 TIP3     9769     TIP3     H2       HT       0.417000       1.00800           0   0.00000     -0.301140E-02
     54224 TIP3     9770     TIP3     OH2      OT      -0.834000       15.9994           0   0.00000       0.00000    
     54225 TIP3     9770     TIP3     H1       HT       0.417000       1.00800           0   0.00000       0.00000    
     54226 TIP3     9770     TIP3     H2       HT       0.417000       1.00800           0   0.00000     -0.301140E-02
     54227 TIP3     9771     TIP3     OH2      OT      -0.834000       15.9994           0   0.00000       0.00000    
     54228 TIP3     9771     TIP3     H1       HT       0.417000       1.00800           0   0.00000       0.00000    
     54229 TIP3     9771     TIP3     H2       HT       0.417000       1.00800           0   0.00000     -0.301140E-02
     54230 TIP3     9772     TIP3     OH2      OT      -0.834000       15.9994           0   0.00000       0.00000    
     54231 TIP3     9772     TIP3     H1       HT       0.417000       1.00800           0   0.00000       0.00000    
     54232 TIP3     9772     TIP3     H2       HT       0.417000       1.00800           0   0.00000     -0.301140E-02
     54233 TIP3     9773     TIP3     OH2      OT      -0.834000       15.9994           0   0.00000       0.00000    
     54234 TIP3     9773     TIP3     H1       HT       0.417000       1.00800           0   0.00000       0.00000    
     54235 TIP3     9773     TIP3     H2       HT       0.417000       1.00800           0   0.00000     -0.301140E-02
     54236 TIP3     9774     TIP3     OH2      OT      -0.834000       15.9994           0   0.00000       0.00000    
     54237 TIP3     9774     TIP3     H1       HT       0.417000       1.00800           0   0.00000       0.00000    
     54238 TIP3     9774     TIP3     H2       HT       0.417000       1.00800           0   0.00000     -0.301140E-02
     54239 TIP3     9775     TIP3     OH2      OT      -0.834000       15.9994           0   0.00000       0.00000    
     54240 TIP3     9775     TIP3     H1       HT       0.417000       1.00800           0   0.00000       0.00000    
     54241 TIP3     9775     TIP3     H2       HT       0.417000       1.00800           0   0.00000     -0.301140E-02
     54242 TIP3     9776     TIP3     OH2      OT      -0.834000       15.9994           0   0.00000       0.00000    
     54243 TIP3     9776     TIP3     H1       HT       0.417000       1.00800           0   0.00000       0.00000    
     54244 TIP3     9776     TIP3     H2       HT       0.417000       1.00800           0   0.00000     -0.301140E-02
     54245 TIP3     9777     TIP3     OH2      OT      -0.834000       15.9994           0   0.00000       0.00000    
     54246 TIP3     9777     TIP3     H1       HT       0.417000       1.00800           0   0.00000       0.00000    
     54247 TIP3     9777     TIP3     H2       HT       0.417000       1.00800           0   0.00000     -0.301140E-02
     54248 TIP3     9778     TIP3     OH2      OT      -0.834000       15.9994           0   0.00000       0.00000    
     54249 TIP3     9778     TIP3     H1       HT       0.417000       1.00800           0   0.00000       0.00000    
     54250 TIP3     9778     TIP3     H2       HT       0.417000       1.00800           0   0.00000     -0.301140E-02
     54251 TIP3     9779     TIP3     OH2      OT      -0.834000       15.9994           0   0.00000       0.00000    
     54252 TIP3     9779     TIP3     H1       HT       0.417000       1.00800           0   0.00000       0.00000    
     54253 TIP3     9779     TIP3     H2       HT       0.417000       1.00800           0   0.00000     -0.301140E-02
     54254 TIP3     9780     TIP3     OH2      OT      -0.834000       15.9994           0   0.00000       0.00000    
     54255 TIP3     9780     TIP3     H1       HT       0.417000       1.00800           0   0.00000       0.00000    
     54256 TIP3     9780     TIP3     H2       HT       0.417000       1.00800           0   0.00000     -0.301140E-02
     54257 TIP3     9781     TIP3     OH2      OT      -0.834000       15.9994           0   0.00000       0.00000    
     54258 TIP3     9781     TIP3     H1       HT       0.417000       1.00800           0   0.00000       0.00000    
     54259 TIP3     9781     TIP3     H2       HT       0.417000       1.00800           0   0.00000     -0.301140E-02
     54260 TIP3     9782     TIP3     OH2      OT      -0.834000       15.9994           0   0.00000       0.00000    
     54261 TIP3     9782     TIP3     H1       HT       0.417000       1.00800           0   0.00000       0.00000    
     54262 TIP3     9782     TIP3     H2       HT       0.417000       1.00800           0   0.00000     -0.301140E-02
     54263 TIP3     9783     TIP3     OH2      OT      -0.834000       15.9994           0   0.00000       0.00000    
     54264 TIP3     9783     TIP3     H1       HT       0.417000       1.00800           0   0.00000       0.00000    
     54265 TIP3     9783     TIP3     H2       HT       0.417000       1.00800           0   0.00000     -0.301140E-02
     54266 TIP3     9784     TIP3     OH2      OT      -0.834000       15.9994           0   0.00000       0.00000    
     54267 TIP3     9784     TIP3     H1       HT       0.417000       1.00800           0   0.00000       0.00000    
     54268 TIP3     9784     TIP3     H2       HT       0.417000       1.00800           0   0.00000     -0.301140E-02
     54269 TIP3     9785     TIP3     OH2      OT      -0.834000       15.9994           0   0.00000       0.00000    
     54270 TIP3     9785     TIP3     H1       HT       0.417000       1.00800           0   0.00000       0.00000    
     54271 TIP3     9785     TIP3     H2       HT       0.417000       1.00800           0   0.00000     -0.301140E-02
     54272 TIP3     9786     TIP3     OH2      OT      -0.834000       15.9994           0   0.00000       0.00000    
     54273 TIP3     9786     TIP3     H1       HT       0.417000       1.00800           0   0.00000       0.00000    
     54274 TIP3     9786     TIP3     H2       HT       0.417000       1.00800           0   0.00000     -0.301140E-02
     54275 TIP3     9787     TIP3     OH2      OT      -0.834000       15.9994           0   0.00000       0.00000    
     54276 TIP3     9787     TIP3     H1       HT       0.417000       1.00800           0   0.00000       0.00000    
     54277 TIP3     9787     TIP3     H2       HT       0.417000       1.00800           0   0.00000     -0.301140E-02
     54278 TIP3     9788     TIP3     OH2      OT      -0.834000       15.9994           0   0.00000       0.00000    
     54279 TIP3     9788     TIP3     H1       HT       0.417000       1.00800           0   0.00000       0.00000    
     54280 TIP3     9788     TIP3     H2       HT       0.417000       1.00800           0   0.00000     -0.301140E-02
     54281 TIP3     9789     TIP3     OH2      OT      -0.834000       15.9994           0   0.00000       0.00000    
     54282 TIP3     9789     TIP3     H1       HT       0.417000       1.00800           0   0.00000       0.00000    
     54283 TIP3     9789     TIP3     H2       HT       0.417000       1.00800           0   0.00000     -0.301140E-02
     54284 TIP3     9790     TIP3     OH2      OT      -0.834000       15.9994           0   0.00000       0.00000    
     54285 TIP3     9790     TIP3     H1       HT       0.417000       1.00800           0   0.00000       0.00000    
     54286 TIP3     9790     TIP3     H2       HT       0.417000       1.00800           0   0.00000     -0.301140E-02
     54287 TIP3     9791     TIP3     OH2      OT      -0.834000       15.9994           0   0.00000       0.00000    
     54288 TIP3     9791     TIP3     H1       HT       0.417000       1.00800           0   0.00000       0.00000    
     54289 TIP3     9791     TIP3     H2       HT       0.417000       1.00800           0   0.00000     -0.301140E-02
     54290 TIP3     9792     TIP3     OH2      OT      -0.834000       15.9994           0   0.00000       0.00000    
     54291 TIP3     9792     TIP3     H1       HT       0.417000       1.00800           0   0.00000       0.00000    
     54292 TIP3     9792     TIP3     H2       HT       0.417000       1.00800           0   0.00000     -0.301140E-02
     54293 TIP3     9793     TIP3     OH2      OT      -0.834000       15.9994           0   0.00000       0.00000    
     54294 TIP3     9793     TIP3     H1       HT       0.417000       1.00800           0   0.00000       0.00000    
     54295 TIP3     9793     TIP3     H2       HT       0.417000       1.00800           0   0.00000     -0.301140E-02
     54296 TIP3     9794     TIP3     OH2      OT      -0.834000       15.9994           0   0.00000       0.00000    
     54297 TIP3     9794     TIP3     H1       HT       0.417000       1.00800           0   0.00000       0.00000    
     54298 TIP3     9794     TIP3     H2       HT       0.417000       1.00800           0   0.00000     -0.301140E-02
     54299 TIP3     9795     TIP3     OH2      OT      -0.834000       15.9994           0   0.00000       0.00000    
     54300 TIP3     9795     TIP3     H1       HT       0.417000       1.00800           0   0.00000       0.00000    
     54301 TIP3     9795     TIP3     H2       HT       0.417000       1.00800           0   0.00000     -0.301140E-02
     54302 TIP3     9796     TIP3     OH2      OT      -0.834000       15.9994           0   0.00000       0.00000    
     54303 TIP3     9796     TIP3     H1       HT       0.417000       1.00800           0   0.00000       0.00000    
     54304 TIP3     9796     TIP3     H2       HT       0.417000       1.00800           0   0.00000     -0.301140E-02
     54305 TIP3     9797     TIP3     OH2      OT      -0.834000       15.9994           0   0.00000       0.00000    
     54306 TIP3     9797     TIP3     H1       HT       0.417000       1.00800           0   0.00000       0.00000    
     54307 TIP3     9797     TIP3     H2       HT       0.417000       1.00800           0   0.00000     -0.301140E-02
     54308 TIP3     9798     TIP3     OH2      OT      -0.834000       15.9994           0   0.00000       0.00000    
     54309 TIP3     9798     TIP3     H1       HT       0.417000       1.00800           0   0.00000       0.00000    
     54310 TIP3     9798     TIP3     H2       HT       0.417000       1.00800           0   0.00000     -0.301140E-02
     54311 TIP3     9799     TIP3     OH2      OT      -0.834000       15.9994           0   0.00000       0.00000    
     54312 TIP3     9799     TIP3     H1       HT       0.417000       1.00800           0   0.00000       0.00000    
     54313 TIP3     9799     TIP3     H2       HT       0.417000       1.00800           0   0.00000     -0.301140E-02
     54314 TIP3     9800     TIP3     OH2      OT      -0.834000       15.9994           0   0.00000       0.00000    
     54315 TIP3     9800     TIP3     H1       HT       0.417000       1.00800           0   0.00000       0.00000    
     54316 TIP3     9800     TIP3     H2       HT       0.417000       1.00800           0   0.00000     -0.301140E-02
     54317 TIP3     9801     TIP3     OH2      OT      -0.834000       15.9994           0   0.00000       0.00000    
     54318 TIP3     9801     TIP3     H1       HT       0.417000       1.00800           0   0.00000       0.00000    
     54319 TIP3     9801     TIP3     H2       HT       0.417000       1.00800           0   0.00000     -0.301140E-02
     54320 TIP3     9802     TIP3     OH2      OT      -0.834000       15.9994           0   0.00000       0.00000    
     54321 TIP3     9802     TIP3     H1       HT       0.417000       1.00800           0   0.00000       0.00000    
     54322 TIP3     9802     TIP3     H2       HT       0.417000       1.00800           0   0.00000     -0.301140E-02
     54323 TIP3     9803     TIP3     OH2      OT      -0.834000       15.9994           0   0.00000       0.00000    
     54324 TIP3     9803     TIP3     H1       HT       0.417000       1.00800           0   0.00000       0.00000    
     54325 TIP3     9803     TIP3     H2       HT       0.417000       1.00800           0   0.00000     -0.301140E-02
     54326 TIP3     9804     TIP3     OH2      OT      -0.834000       15.9994           0   0.00000       0.00000    
     54327 TIP3     9804     TIP3     H1       HT       0.417000       1.00800           0   0.00000       0.00000    
     54328 TIP3     9804     TIP3     H2       HT       0.417000       1.00800           0   0.00000     -0.301140E-02
     54329 TIP3     9805     TIP3     OH2      OT      -0.834000       15.9994           0   0.00000       0.00000    
     54330 TIP3     9805     TIP3     H1       HT       0.417000       1.00800           0   0.00000       0.00000    
     54331 TIP3     9805     TIP3     H2       HT       0.417000       1.00800           0   0.00000     -0.301140E-02
     54332 TIP3     9806     TIP3     OH2      OT      -0.834000       15.9994           0   0.00000       0.00000    
     54333 TIP3     9806     TIP3     H1       HT       0.417000       1.00800           0   0.00000       0.00000    
     54334 TIP3     9806     TIP3     H2       HT       0.417000       1.00800           0   0.00000     -0.301140E-02
     54335 TIP3     9807     TIP3     OH2      OT      -0.834000       15.9994           0   0.00000       0.00000    
     54336 TIP3     9807     TIP3     H1       HT       0.417000       1.00800           0   0.00000       0.00000    
     54337 TIP3     9807     TIP3     H2       HT       0.417000       1.00800           0   0.00000     -0.301140E-02
     54338 TIP3     9808     TIP3     OH2      OT      -0.834000       15.9994           0   0.00000       0.00000    
     54339 TIP3     9808     TIP3     H1       HT       0.417000       1.00800           0   0.00000       0.00000    
     54340 TIP3     9808     TIP3     H2       HT       0.417000       1.00800           0   0.00000     -0.301140E-02
     54341 TIP3     9809     TIP3     OH2      OT      -0.834000       15.9994           0   0.00000       0.00000    
     54342 TIP3     9809     TIP3     H1       HT       0.417000       1.00800           0   0.00000       0.00000    
     54343 TIP3     9809     TIP3     H2       HT       0.417000       1.00800           0   0.00000     -0.301140E-02
     54344 TIP3     9810     TIP3     OH2      OT      -0.834000       15.9994           0   0.00000       0.00000    
     54345 TIP3     9810     TIP3     H1       HT       0.417000       1.00800           0   0.00000       0.00000    
     54346 TIP3     9810     TIP3     H2       HT       0.417000       1.00800           0   0.00000     -0.301140E-02
     54347 TIP3     9811     TIP3     OH2      OT      -0.834000       15.9994           0   0.00000       0.00000    
     54348 TIP3     9811     TIP3     H1       HT       0.417000       1.00800           0   0.00000       0.00000    
     54349 TIP3     9811     TIP3     H2       HT       0.417000       1.00800           0   0.00000     -0.301140E-02
     54350 TIP3     9812     TIP3     OH2      OT      -0.834000       15.9994           0   0.00000       0.00000    
     54351 TIP3     9812     TIP3     H1       HT       0.417000       1.00800           0   0.00000       0.00000    
     54352 TIP3     9812     TIP3     H2       HT       0.417000       1.00800           0   0.00000     -0.301140E-02
     54353 TIP3     9813     TIP3     OH2      OT      -0.834000       15.9994           0   0.00000       0.00000    
     54354 TIP3     9813     TIP3     H1       HT       0.417000       1.00800           0   0.00000       0.00000    
     54355 TIP3     9813     TIP3     H2       HT       0.417000       1.00800           0   0.00000     -0.301140E-02
     54356 TIP3     9814     TIP3     OH2      OT      -0.834000       15.9994           0   0.00000       0.00000    
     54357 TIP3     9814     TIP3     H1       HT       0.417000       1.00800           0   0.00000       0.00000    
     54358 TIP3     9814     TIP3     H2       HT       0.417000       1.00800           0   0.00000     -0.301140E-02
     54359 TIP3     9815     TIP3     OH2      OT      -0.834000       15.9994           0   0.00000       0.00000    
     54360 TIP3     9815     TIP3     H1       HT       0.417000       1.00800           0   0.00000       0.00000    
     54361 TIP3     9815     TIP3     H2       HT       0.417000       1.00800           0   0.00000     -0.301140E-02
     54362 TIP3     9816     TIP3     OH2      OT      -0.834000       15.9994           0   0.00000       0.00000    
     54363 TIP3     9816     TIP3     H1       HT       0.417000       1.00800           0   0.00000       0.00000    
     54364 TIP3     9816     TIP3     H2       HT       0.417000       1.00800           0   0.00000     -0.301140E-02
     54365 TIP3     9817     TIP3     OH2      OT      -0.834000       15.9994           0   0.00000       0.00000    
     54366 TIP3     9817     TIP3     H1       HT       0.417000       1.00800           0   0.00000       0.00000    
     54367 TIP3     9817     TIP3     H2       HT       0.417000       1.00800           0   0.00000     -0.301140E-02
     54368 TIP3     9818     TIP3     OH2      OT      -0.834000       15.9994           0   0.00000       0.00000    
     54369 TIP3     9818     TIP3     H1       HT       0.417000       1.00800           0   0.00000       0.00000    
     54370 TIP3     9818     TIP3     H2       HT       0.417000       1.00800           0   0.00000     -0.301140E-02
     54371 TIP3     9819     TIP3     OH2      OT      -0.834000       15.9994           0   0.00000       0.00000    
     54372 TIP3     9819     TIP3     H1       HT       0.417000       1.00800           0   0.00000       0.00000    
     54373 TIP3     9819     TIP3     H2       HT       0.417000       1.00800           0   0.00000     -0.301140E-02
     54374 TIP3     9820     TIP3     OH2      OT      -0.834000       15.9994           0   0.00000       0.00000    
     54375 TIP3     9820     TIP3     H1       HT       0.417000       1.00800           0   0.00000       0.00000    
     54376 TIP3     9820     TIP3     H2       HT       0.417000       1.00800           0   0.00000     -0.301140E-02
     54377 TIP3     9821     TIP3     OH2      OT      -0.834000       15.9994           0   0.00000       0.00000    
     54378 TIP3     9821     TIP3     H1       HT       0.417000       1.00800           0   0.00000       0.00000    
     54379 TIP3     9821     TIP3     H2       HT       0.417000       1.00800           0   0.00000     -0.301140E-02
     54380 TIP3     9822     TIP3     OH2      OT      -0.834000       15.9994           0   0.00000       0.00000    
     54381 TIP3     9822     TIP3     H1       HT       0.417000       1.00800           0   0.00000       0.00000    
     54382 TIP3     9822     TIP3     H2       HT       0.417000       1.00800           0   0.00000     -0.301140E-02
     54383 TIP3     9823     TIP3     OH2      OT      -0.834000       15.9994           0   0.00000       0.00000    
     54384 TIP3     9823     TIP3     H1       HT       0.417000       1.00800           0   0.00000       0.00000    
     54385 TIP3     9823     TIP3     H2       HT       0.417000       1.00800           0   0.00000     -0.301140E-02
     54386 TIP3     9824     TIP3     OH2      OT      -0.834000       15.9994           0   0.00000       0.00000    
     54387 TIP3     9824     TIP3     H1       HT       0.417000       1.00800           0   0.00000       0.00000    
     54388 TIP3     9824     TIP3     H2       HT       0.417000       1.00800           0   0.00000     -0.301140E-02
     54389 TIP3     9825     TIP3     OH2      OT      -0.834000       15.9994           0   0.00000       0.00000    
     54390 TIP3     9825     TIP3     H1       HT       0.417000       1.00800           0   0.00000       0.00000    
     54391 TIP3     9825     TIP3     H2       HT       0.417000       1.00800           0   0.00000     -0.301140E-02
     54392 TIP3     9826     TIP3     OH2      OT      -0.834000       15.9994           0   0.00000       0.00000    
     54393 TIP3     9826     TIP3     H1       HT       0.417000       1.00800           0   0.00000       0.00000    
     54394 TIP3     9826     TIP3     H2       HT       0.417000       1.00800           0   0.00000     -0.301140E-02
     54395 TIP3     9827     TIP3     OH2      OT      -0.834000       15.9994           0   0.00000       0.00000    
     54396 TIP3     9827     TIP3     H1       HT       0.417000       1.00800           0   0.00000       0.00000    
     54397 TIP3     9827     TIP3     H2       HT       0.417000       1.00800           0   0.00000     -0.301140E-02
     54398 TIP3     9828     TIP3     OH2      OT      -0.834000       15.9994           0   0.00000       0.00000    
     54399 TIP3     9828     TIP3     H1       HT       0.417000       1.00800           0   0.00000       0.00000    
     54400 TIP3     9828     TIP3     H2       HT       0.417000       1.00800           0   0.00000     -0.301140E-02
     54401 TIP3     9829     TIP3     OH2      OT      -0.834000       15.9994           0   0.00000       0.00000    
     54402 TIP3     9829     TIP3     H1       HT       0.417000       1.00800           0   0.00000       0.00000    
     54403 TIP3     9829     TIP3     H2       HT       0.417000       1.00800           0   0.00000     -0.301140E-02
     54404 TIP3     9830     TIP3     OH2      OT      -0.834000       15.9994           0   0.00000       0.00000    
     54405 TIP3     9830     TIP3     H1       HT       0.417000       1.00800           0   0.00000       0.00000    
     54406 TIP3     9830     TIP3     H2       HT       0.417000       1.00800           0   0.00000     -0.301140E-02
     54407 TIP3     9831     TIP3     OH2      OT      -0.834000       15.9994           0   0.00000       0.00000    
     54408 TIP3     9831     TIP3     H1       HT       0.417000       1.00800           0   0.00000       0.00000    
     54409 TIP3     9831     TIP3     H2       HT       0.417000       1.00800           0   0.00000     -0.301140E-02
     54410 TIP3     9832     TIP3     OH2      OT      -0.834000       15.9994           0   0.00000       0.00000    
     54411 TIP3     9832     TIP3     H1       HT       0.417000       1.00800           0   0.00000       0.00000    
     54412 TIP3     9832     TIP3     H2       HT       0.417000       1.00800           0   0.00000     -0.301140E-02
     54413 TIP3     9833     TIP3     OH2      OT      -0.834000       15.9994           0   0.00000       0.00000    
     54414 TIP3     9833     TIP3     H1       HT       0.417000       1.00800           0   0.00000       0.00000    
     54415 TIP3     9833     TIP3     H2       HT       0.417000       1.00800           0   0.00000     -0.301140E-02
     54416 TIP3     9834     TIP3     OH2      OT      -0.834000       15.9994           0   0.00000       0.00000    
     54417 TIP3     9834     TIP3     H1       HT       0.417000       1.00800           0   0.00000       0.00000    
     54418 TIP3     9834     TIP3     H2       HT       0.417000       1.00800           0   0.00000     -0.301140E-02
     54419 TIP3     9835     TIP3     OH2      OT      -0.834000       15.9994           0   0.00000       0.00000    
     54420 TIP3     9835     TIP3     H1       HT       0.417000       1.00800           0   0.00000       0.00000    
     54421 TIP3     9835     TIP3     H2       HT       0.417000       1.00800           0   0.00000     -0.301140E-02
     54422 TIP3     9836     TIP3     OH2      OT      -0.834000       15.9994           0   0.00000       0.00000    
     54423 TIP3     9836     TIP3     H1       HT       0.417000       1.00800           0   0.00000       0.00000    
     54424 TIP3     9836     TIP3     H2       HT       0.417000       1.00800           0   0.00000     -0.301140E-02
     54425 TIP3     9837     TIP3     OH2      OT      -0.834000       15.9994           0   0.00000       0.00000    
     54426 TIP3     9837     TIP3     H1       HT       0.417000       1.00800           0   0.00000       0.00000    
     54427 TIP3     9837     TIP3     H2       HT       0.417000       1.00800           0   0.00000     -0.301140E-02
     54428 TIP3     9838     TIP3     OH2      OT      -0.834000       15.9994           0   0.00000       0.00000    
     54429 TIP3     9838     TIP3     H1       HT       0.417000       1.00800           0   0.00000       0.00000    
     54430 TIP3     9838     TIP3     H2       HT       0.417000       1.00800           0   0.00000     -0.301140E-02
     54431 TIP3     9839     TIP3     OH2      OT      -0.834000       15.9994           0   0.00000       0.00000    
     54432 TIP3     9839     TIP3     H1       HT       0.417000       1.00800           0   0.00000       0.00000    
     54433 TIP3     9839     TIP3     H2       HT       0.417000       1.00800           0   0.00000     -0.301140E-02
     54434 TIP3     9840     TIP3     OH2      OT      -0.834000       15.9994           0   0.00000       0.00000    
     54435 TIP3     9840     TIP3     H1       HT       0.417000       1.00800           0   0.00000       0.00000    
     54436 TIP3     9840     TIP3     H2       HT       0.417000       1.00800           0   0.00000     -0.301140E-02
     54437 TIP3     9841     TIP3     OH2      OT      -0.834000       15.9994           0   0.00000       0.00000    
     54438 TIP3     9841     TIP3     H1       HT       0.417000       1.00800           0   0.00000       0.00000    
     54439 TIP3     9841     TIP3     H2       HT       0.417000       1.00800           0   0.00000     -0.301140E-02
     54440 TIP3     9842     TIP3     OH2      OT      -0.834000       15.9994           0   0.00000       0.00000    
     54441 TIP3     9842     TIP3     H1       HT       0.417000       1.00800           0   0.00000       0.00000    
     54442 TIP3     9842     TIP3     H2       HT       0.417000       1.00800           0   0.00000     -0.301140E-02
     54443 TIP3     9843     TIP3     OH2      OT      -0.834000       15.9994           0   0.00000       0.00000    
     54444 TIP3     9843     TIP3     H1       HT       0.417000       1.00800           0   0.00000       0.00000    
     54445 TIP3     9843     TIP3     H2       HT       0.417000       1.00800           0   0.00000     -0.301140E-02
     54446 TIP3     9844     TIP3     OH2      OT      -0.834000       15.9994           0   0.00000       0.00000    
     54447 TIP3     9844     TIP3     H1       HT       0.417000       1.00800           0   0.00000       0.00000    
     54448 TIP3     9844     TIP3     H2       HT       0.417000       1.00800           0   0.00000     -0.301140E-02
     54449 TIP3     9845     TIP3     OH2      OT      -0.834000       15.9994           0   0.00000       0.00000    
     54450 TIP3     9845     TIP3     H1       HT       0.417000       1.00800           0   0.00000       0.00000    
     54451 TIP3     9845     TIP3     H2       HT       0.417000       1.00800           0   0.00000     -0.301140E-02
     54452 TIP3     9846     TIP3     OH2      OT      -0.834000       15.9994           0   0.00000       0.00000    
     54453 TIP3     9846     TIP3     H1       HT       0.417000       1.00800           0   0.00000       0.00000    
     54454 TIP3     9846     TIP3     H2       HT       0.417000       1.00800           0   0.00000     -0.301140E-02
     54455 TIP3     9847     TIP3     OH2      OT      -0.834000       15.9994           0   0.00000       0.00000    
     54456 TIP3     9847     TIP3     H1       HT       0.417000       1.00800           0   0.00000       0.00000    
     54457 TIP3     9847     TIP3     H2       HT       0.417000       1.00800           0   0.00000     -0.301140E-02
     54458 TIP3     9848     TIP3     OH2      OT      -0.834000       15.9994           0   0.00000       0.00000    
     54459 TIP3     9848     TIP3     H1       HT       0.417000       1.00800           0   0.00000       0.00000    
     54460 TIP3     9848     TIP3     H2       HT       0.417000       1.00800           0   0.00000     -0.301140E-02
     54461 TIP3     9849     TIP3     OH2      OT      -0.834000       15.9994           0   0.00000       0.00000    
     54462 TIP3     9849     TIP3     H1       HT       0.417000       1.00800           0   0.00000       0.00000    
     54463 TIP3     9849     TIP3     H2       HT       0.417000       1.00800           0   0.00000     -0.301140E-02
     54464 TIP3     9850     TIP3     OH2      OT      -0.834000       15.9994           0   0.00000       0.00000    
     54465 TIP3     9850     TIP3     H1       HT       0.417000       1.00800           0   0.00000       0.00000    
     54466 TIP3     9850     TIP3     H2       HT       0.417000       1.00800           0   0.00000     -0.301140E-02
     54467 TIP3     9851     TIP3     OH2      OT      -0.834000       15.9994           0   0.00000       0.00000    
     54468 TIP3     9851     TIP3     H1       HT       0.417000       1.00800           0   0.00000       0.00000    
     54469 TIP3     9851     TIP3     H2       HT       0.417000       1.00800           0   0.00000     -0.301140E-02
     54470 TIP3     9852     TIP3     OH2      OT      -0.834000       15.9994           0   0.00000       0.00000    
     54471 TIP3     9852     TIP3     H1       HT       0.417000       1.00800           0   0.00000       0.00000    
     54472 TIP3     9852     TIP3     H2       HT       0.417000       1.00800           0   0.00000     -0.301140E-02
     54473 TIP3     9853     TIP3     OH2      OT      -0.834000       15.9994           0   0.00000       0.00000    
     54474 TIP3     9853     TIP3     H1       HT       0.417000       1.00800           0   0.00000       0.00000    
     54475 TIP3     9853     TIP3     H2       HT       0.417000       1.00800           0   0.00000     -0.301140E-02
     54476 TIP3     9854     TIP3     OH2      OT      -0.834000       15.9994           0   0.00000       0.00000    
     54477 TIP3     9854     TIP3     H1       HT       0.417000       1.00800           0   0.00000       0.00000    
     54478 TIP3     9854     TIP3     H2       HT       0.417000       1.00800           0   0.00000     -0.301140E-02
     54479 TIP3     9855     TIP3     OH2      OT      -0.834000       15.9994           0   0.00000       0.00000    
     54480 TIP3     9855     TIP3     H1       HT       0.417000       1.00800           0   0.00000       0.00000    
     54481 TIP3     9855     TIP3     H2       HT       0.417000       1.00800           0   0.00000     -0.301140E-02
     54482 TIP3     9856     TIP3     OH2      OT      -0.834000       15.9994           0   0.00000       0.00000    
     54483 TIP3     9856     TIP3     H1       HT       0.417000       1.00800           0   0.00000       0.00000    
     54484 TIP3     9856     TIP3     H2       HT       0.417000       1.00800           0   0.00000     -0.301140E-02
     54485 TIP3     9857     TIP3     OH2      OT      -0.834000       15.9994           0   0.00000       0.00000    
     54486 TIP3     9857     TIP3     H1       HT       0.417000       1.00800           0   0.00000       0.00000    
     54487 TIP3     9857     TIP3     H2       HT       0.417000       1.00800           0   0.00000     -0.301140E-02
     54488 TIP3     9858     TIP3     OH2      OT      -0.834000       15.9994           0   0.00000       0.00000    
     54489 TIP3     9858     TIP3     H1       HT       0.417000       1.00800           0   0.00000       0.00000    
     54490 TIP3     9858     TIP3     H2       HT       0.417000       1.00800           0   0.00000     -0.301140E-02
     54491 TIP3     9859     TIP3     OH2      OT      -0.834000       15.9994           0   0.00000       0.00000    
     54492 TIP3     9859     TIP3     H1       HT       0.417000       1.00800           0   0.00000       0.00000    
     54493 TIP3     9859     TIP3     H2       HT       0.417000       1.00800           0   0.00000     -0.301140E-02
     54494 TIP3     9860     TIP3     OH2      OT      -0.834000       15.9994           0   0.00000       0.00000    
     54495 TIP3     9860     TIP3     H1       HT       0.417000       1.00800           0   0.00000       0.00000    
     54496 TIP3     9860     TIP3     H2       HT       0.417000       1.00800           0   0.00000     -0.301140E-02
     54497 TIP3     9861     TIP3     OH2      OT      -0.834000       15.9994           0   0.00000       0.00000    
     54498 TIP3     9861     TIP3     H1       HT       0.417000       1.00800           0   0.00000       0.00000    
     54499 TIP3     9861     TIP3     H2       HT       0.417000       1.00800           0   0.00000     -0.301140E-02
     54500 TIP3     9862     TIP3     OH2      OT      -0.834000       15.9994           0   0.00000       0.00000    
     54501 TIP3     9862     TIP3     H1       HT       0.417000       1.00800           0   0.00000       0.00000    
     54502 TIP3     9862     TIP3     H2       HT       0.417000       1.00800           0   0.00000     -0.301140E-02
     54503 TIP3     9863     TIP3     OH2      OT      -0.834000       15.9994           0   0.00000       0.00000    
     54504 TIP3     9863     TIP3     H1       HT       0.417000       1.00800           0   0.00000       0.00000    
     54505 TIP3     9863     TIP3     H2       HT       0.417000       1.00800           0   0.00000     -0.301140E-02
     54506 TIP3     9864     TIP3     OH2      OT      -0.834000       15.9994           0   0.00000       0.00000    
     54507 TIP3     9864     TIP3     H1       HT       0.417000       1.00800           0   0.00000       0.00000    
     54508 TIP3     9864     TIP3     H2       HT       0.417000       1.00800           0   0.00000     -0.301140E-02
     54509 TIP3     9865     TIP3     OH2      OT      -0.834000       15.9994           0   0.00000       0.00000    
     54510 TIP3     9865     TIP3     H1       HT       0.417000       1.00800           0   0.00000       0.00000    
     54511 TIP3     9865     TIP3     H2       HT       0.417000       1.00800           0   0.00000     -0.301140E-02
     54512 TIP3     9866     TIP3     OH2      OT      -0.834000       15.9994           0   0.00000       0.00000    
     54513 TIP3     9866     TIP3     H1       HT       0.417000       1.00800           0   0.00000       0.00000    
     54514 TIP3     9866     TIP3     H2       HT       0.417000       1.00800           0   0.00000     -0.301140E-02
     54515 TIP3     9867     TIP3     OH2      OT      -0.834000       15.9994           0   0.00000       0.00000    
     54516 TIP3     9867     TIP3     H1       HT       0.417000       1.00800           0   0.00000       0.00000    
     54517 TIP3     9867     TIP3     H2       HT       0.417000       1.00800           0   0.00000     -0.301140E-02
     54518 TIP3     9868     TIP3     OH2      OT      -0.834000       15.9994           0   0.00000       0.00000    
     54519 TIP3     9868     TIP3     H1       HT       0.417000       1.00800           0   0.00000       0.00000    
     54520 TIP3     9868     TIP3     H2       HT       0.417000       1.00800           0   0.00000     -0.301140E-02
     54521 TIP3     9869     TIP3     OH2      OT      -0.834000       15.9994           0   0.00000       0.00000    
     54522 TIP3     9869     TIP3     H1       HT       0.417000       1.00800           0   0.00000       0.00000    
     54523 TIP3     9869     TIP3     H2       HT       0.417000       1.00800           0   0.00000     -0.301140E-02
     54524 TIP3     9870     TIP3     OH2      OT      -0.834000       15.9994           0   0.00000       0.00000    
     54525 TIP3     9870     TIP3     H1       HT       0.417000       1.00800           0   0.00000       0.00000    
     54526 TIP3     9870     TIP3     H2       HT       0.417000       1.00800           0   0.00000     -0.301140E-02
     54527 TIP3     9871     TIP3     OH2      OT      -0.834000       15.9994           0   0.00000       0.00000    
     54528 TIP3     9871     TIP3     H1       HT       0.417000       1.00800           0   0.00000       0.00000    
     54529 TIP3     9871     TIP3     H2       HT       0.417000       1.00800           0   0.00000     -0.301140E-02
     54530 TIP3     9872     TIP3     OH2      OT      -0.834000       15.9994           0   0.00000       0.00000    
     54531 TIP3     9872     TIP3     H1       HT       0.417000       1.00800           0   0.00000       0.00000    
     54532 TIP3     9872     TIP3     H2       HT       0.417000       1.00800           0   0.00000     -0.301140E-02
     54533 TIP3     9873     TIP3     OH2      OT      -0.834000       15.9994           0   0.00000       0.00000    
     54534 TIP3     9873     TIP3     H1       HT       0.417000       1.00800           0   0.00000       0.00000    
     54535 TIP3     9873     TIP3     H2       HT       0.417000       1.00800           0   0.00000     -0.301140E-02
     54536 TIP3     9874     TIP3     OH2      OT      -0.834000       15.9994           0   0.00000       0.00000    
     54537 TIP3     9874     TIP3     H1       HT       0.417000       1.00800           0   0.00000       0.00000    
     54538 TIP3     9874     TIP3     H2       HT       0.417000       1.00800           0   0.00000     -0.301140E-02
     54539 TIP3     9875     TIP3     OH2      OT      -0.834000       15.9994           0   0.00000       0.00000    
     54540 TIP3     9875     TIP3     H1       HT       0.417000       1.00800           0   0.00000       0.00000    
     54541 TIP3     9875     TIP3     H2       HT       0.417000       1.00800           0   0.00000     -0.301140E-02
     54542 TIP3     9876     TIP3     OH2      OT      -0.834000       15.9994           0   0.00000       0.00000    
     54543 TIP3     9876     TIP3     H1       HT       0.417000       1.00800           0   0.00000       0.00000    
     54544 TIP3     9876     TIP3     H2       HT       0.417000       1.00800           0   0.00000     -0.301140E-02
     54545 TIP3     9877     TIP3     OH2      OT      -0.834000       15.9994           0   0.00000       0.00000    
     54546 TIP3     9877     TIP3     H1       HT       0.417000       1.00800           0   0.00000       0.00000    
     54547 TIP3     9877     TIP3     H2       HT       0.417000       1.00800           0   0.00000     -0.301140E-02
     54548 TIP3     9878     TIP3     OH2      OT      -0.834000       15.9994           0   0.00000       0.00000    
     54549 TIP3     9878     TIP3     H1       HT       0.417000       1.00800           0   0.00000       0.00000    
     54550 TIP3     9878     TIP3     H2       HT       0.417000       1.00800           0   0.00000     -0.301140E-02
     54551 TIP3     9879     TIP3     OH2      OT      -0.834000       15.9994           0   0.00000       0.00000    
     54552 TIP3     9879     TIP3     H1       HT       0.417000       1.00800           0   0.00000       0.00000    
     54553 TIP3     9879     TIP3     H2       HT       0.417000       1.00800           0   0.00000     -0.301140E-02
     54554 TIP3     9880     TIP3     OH2      OT      -0.834000       15.9994           0   0.00000       0.00000    
     54555 TIP3     9880     TIP3     H1       HT       0.417000       1.00800           0   0.00000       0.00000    
     54556 TIP3     9880     TIP3     H2       HT       0.417000       1.00800           0   0.00000     -0.301140E-02
     54557 TIP3     9881     TIP3     OH2      OT      -0.834000       15.9994           0   0.00000       0.00000    
     54558 TIP3     9881     TIP3     H1       HT       0.417000       1.00800           0   0.00000       0.00000    
     54559 TIP3     9881     TIP3     H2       HT       0.417000       1.00800           0   0.00000     -0.301140E-02
     54560 TIP3     9882     TIP3     OH2      OT      -0.834000       15.9994           0   0.00000       0.00000    
     54561 TIP3     9882     TIP3     H1       HT       0.417000       1.00800           0   0.00000       0.00000    
     54562 TIP3     9882     TIP3     H2       HT       0.417000       1.00800           0   0.00000     -0.301140E-02
     54563 TIP3     9883     TIP3     OH2      OT      -0.834000       15.9994           0   0.00000       0.00000    
     54564 TIP3     9883     TIP3     H1       HT       0.417000       1.00800           0   0.00000       0.00000    
     54565 TIP3     9883     TIP3     H2       HT       0.417000       1.00800           0   0.00000     -0.301140E-02
     54566 TIP3     9884     TIP3     OH2      OT      -0.834000       15.9994           0   0.00000       0.00000    
     54567 TIP3     9884     TIP3     H1       HT       0.417000       1.00800           0   0.00000       0.00000    
     54568 TIP3     9884     TIP3     H2       HT       0.417000       1.00800           0   0.00000     -0.301140E-02
     54569 TIP3     9885     TIP3     OH2      OT      -0.834000       15.9994           0   0.00000       0.00000    
     54570 TIP3     9885     TIP3     H1       HT       0.417000       1.00800           0   0.00000       0.00000    
     54571 TIP3     9885     TIP3     H2       HT       0.417000       1.00800           0   0.00000     -0.301140E-02
     54572 TIP3     9886     TIP3     OH2      OT      -0.834000       15.9994           0   0.00000       0.00000    
     54573 TIP3     9886     TIP3     H1       HT       0.417000       1.00800           0   0.00000       0.00000    
     54574 TIP3     9886     TIP3     H2       HT       0.417000       1.00800           0   0.00000     -0.301140E-02
     54575 TIP3     9887     TIP3     OH2      OT      -0.834000       15.9994           0   0.00000       0.00000    
     54576 TIP3     9887     TIP3     H1       HT       0.417000       1.00800           0   0.00000       0.00000    
     54577 TIP3     9887     TIP3     H2       HT       0.417000       1.00800           0   0.00000     -0.301140E-02
     54578 TIP3     9888     TIP3     OH2      OT      -0.834000       15.9994           0   0.00000       0.00000    
     54579 TIP3     9888     TIP3     H1       HT       0.417000       1.00800           0   0.00000       0.00000    
     54580 TIP3     9888     TIP3     H2       HT       0.417000       1.00800           0   0.00000     -0.301140E-02
     54581 TIP3     9889     TIP3     OH2      OT      -0.834000       15.9994           0   0.00000       0.00000    
     54582 TIP3     9889     TIP3     H1       HT       0.417000       1.00800           0   0.00000       0.00000    
     54583 TIP3     9889     TIP3     H2       HT       0.417000       1.00800           0   0.00000     -0.301140E-02
     54584 TIP3     9890     TIP3     OH2      OT      -0.834000       15.9994           0   0.00000       0.00000    
     54585 TIP3     9890     TIP3     H1       HT       0.417000       1.00800           0   0.00000       0.00000    
     54586 TIP3     9890     TIP3     H2       HT       0.417000       1.00800           0   0.00000     -0.301140E-02
     54587 TIP3     9891     TIP3     OH2      OT      -0.834000       15.9994           0   0.00000       0.00000    
     54588 TIP3     9891     TIP3     H1       HT       0.417000       1.00800           0   0.00000       0.00000    
     54589 TIP3     9891     TIP3     H2       HT       0.417000       1.00800           0   0.00000     -0.301140E-02
     54590 TIP3     9892     TIP3     OH2      OT      -0.834000       15.9994           0   0.00000       0.00000    
     54591 TIP3     9892     TIP3     H1       HT       0.417000       1.00800           0   0.00000       0.00000    
     54592 TIP3     9892     TIP3     H2       HT       0.417000       1.00800           0   0.00000     -0.301140E-02
     54593 TIP3     9893     TIP3     OH2      OT      -0.834000       15.9994           0   0.00000       0.00000    
     54594 TIP3     9893     TIP3     H1       HT       0.417000       1.00800           0   0.00000       0.00000    
     54595 TIP3     9893     TIP3     H2       HT       0.417000       1.00800           0   0.00000     -0.301140E-02
     54596 TIP3     9894     TIP3     OH2      OT      -0.834000       15.9994           0   0.00000       0.00000    
     54597 TIP3     9894     TIP3     H1       HT       0.417000       1.00800           0   0.00000       0.00000    
     54598 TIP3     9894     TIP3     H2       HT       0.417000       1.00800           0   0.00000     -0.301140E-02
     54599 TIP3     9895     TIP3     OH2      OT      -0.834000       15.9994           0   0.00000       0.00000    
     54600 TIP3     9895     TIP3     H1       HT       0.417000       1.00800           0   0.00000       0.00000    
     54601 TIP3     9895     TIP3     H2       HT       0.417000       1.00800           0   0.00000     -0.301140E-02
     54602 TIP3     9896     TIP3     OH2      OT      -0.834000       15.9994           0   0.00000       0.00000    
     54603 TIP3     9896     TIP3     H1       HT       0.417000       1.00800           0   0.00000       0.00000    
     54604 TIP3     9896     TIP3     H2       HT       0.417000       1.00800           0   0.00000     -0.301140E-02
     54605 TIP3     9897     TIP3     OH2      OT      -0.834000       15.9994           0   0.00000       0.00000    
     54606 TIP3     9897     TIP3     H1       HT       0.417000       1.00800           0   0.00000       0.00000    
     54607 TIP3     9897     TIP3     H2       HT       0.417000       1.00800           0   0.00000     -0.301140E-02
     54608 TIP3     9898     TIP3     OH2      OT      -0.834000       15.9994           0   0.00000       0.00000    
     54609 TIP3     9898     TIP3     H1       HT       0.417000       1.00800           0   0.00000       0.00000    
     54610 TIP3     9898     TIP3     H2       HT       0.417000       1.00800           0   0.00000     -0.301140E-02
     54611 TIP3     9899     TIP3     OH2      OT      -0.834000       15.9994           0   0.00000       0.00000    
     54612 TIP3     9899     TIP3     H1       HT       0.417000       1.00800           0   0.00000       0.00000    
     54613 TIP3     9899     TIP3     H2       HT       0.417000       1.00800           0   0.00000     -0.301140E-02
     54614 TIP3     9900     TIP3     OH2      OT      -0.834000       15.9994           0   0.00000       0.00000    
     54615 TIP3     9900     TIP3     H1       HT       0.417000       1.00800           0   0.00000       0.00000    
     54616 TIP3     9900     TIP3     H2       HT       0.417000       1.00800           0   0.00000     -0.301140E-02
     54617 TIP3     9901     TIP3     OH2      OT      -0.834000       15.9994           0   0.00000       0.00000    
     54618 TIP3     9901     TIP3     H1       HT       0.417000       1.00800           0   0.00000       0.00000    
     54619 TIP3     9901     TIP3     H2       HT       0.417000       1.00800           0   0.00000     -0.301140E-02
     54620 TIP3     9902     TIP3     OH2      OT      -0.834000       15.9994           0   0.00000       0.00000    
     54621 TIP3     9902     TIP3     H1       HT       0.417000       1.00800           0   0.00000       0.00000    
     54622 TIP3     9902     TIP3     H2       HT       0.417000       1.00800           0   0.00000     -0.301140E-02
     54623 TIP3     9903     TIP3     OH2      OT      -0.834000       15.9994           0   0.00000       0.00000    
     54624 TIP3     9903     TIP3     H1       HT       0.417000       1.00800           0   0.00000       0.00000    
     54625 TIP3     9903     TIP3     H2       HT       0.417000       1.00800           0   0.00000     -0.301140E-02
     54626 TIP3     9904     TIP3     OH2      OT      -0.834000       15.9994           0   0.00000       0.00000    
     54627 TIP3     9904     TIP3     H1       HT       0.417000       1.00800           0   0.00000       0.00000    
     54628 TIP3     9904     TIP3     H2       HT       0.417000       1.00800           0   0.00000     -0.301140E-02
     54629 TIP3     9905     TIP3     OH2      OT      -0.834000       15.9994           0   0.00000       0.00000    
     54630 TIP3     9905     TIP3     H1       HT       0.417000       1.00800           0   0.00000       0.00000    
     54631 TIP3     9905     TIP3     H2       HT       0.417000       1.00800           0   0.00000     -0.301140E-02
     54632 TIP3     9906     TIP3     OH2      OT      -0.834000       15.9994           0   0.00000       0.00000    
     54633 TIP3     9906     TIP3     H1       HT       0.417000       1.00800           0   0.00000       0.00000    
     54634 TIP3     9906     TIP3     H2       HT       0.417000       1.00800           0   0.00000     -0.301140E-02
     54635 TIP3     9907     TIP3     OH2      OT      -0.834000       15.9994           0   0.00000       0.00000    
     54636 TIP3     9907     TIP3     H1       HT       0.417000       1.00800           0   0.00000       0.00000    
     54637 TIP3     9907     TIP3     H2       HT       0.417000       1.00800           0   0.00000     -0.301140E-02
     54638 TIP3     9908     TIP3     OH2      OT      -0.834000       15.9994           0   0.00000       0.00000    
     54639 TIP3     9908     TIP3     H1       HT       0.417000       1.00800           0   0.00000       0.00000    
     54640 TIP3     9908     TIP3     H2       HT       0.417000       1.00800           0   0.00000     -0.301140E-02
     54641 TIP3     9909     TIP3     OH2      OT      -0.834000       15.9994           0   0.00000       0.00000    
     54642 TIP3     9909     TIP3     H1       HT       0.417000       1.00800           0   0.00000       0.00000    
     54643 TIP3     9909     TIP3     H2       HT       0.417000       1.00800           0   0.00000     -0.301140E-02
     54644 TIP3     9910     TIP3     OH2      OT      -0.834000       15.9994           0   0.00000       0.00000    
     54645 TIP3     9910     TIP3     H1       HT       0.417000       1.00800           0   0.00000       0.00000    
     54646 TIP3     9910     TIP3     H2       HT       0.417000       1.00800           0   0.00000     -0.301140E-02
     54647 TIP3     9911     TIP3     OH2      OT      -0.834000       15.9994           0   0.00000       0.00000    
     54648 TIP3     9911     TIP3     H1       HT       0.417000       1.00800           0   0.00000       0.00000    
     54649 TIP3     9911     TIP3     H2       HT       0.417000       1.00800           0   0.00000     -0.301140E-02
     54650 TIP3     9912     TIP3     OH2      OT      -0.834000       15.9994           0   0.00000       0.00000    
     54651 TIP3     9912     TIP3     H1       HT       0.417000       1.00800           0   0.00000       0.00000    
     54652 TIP3     9912     TIP3     H2       HT       0.417000       1.00800           0   0.00000     -0.301140E-02
     54653 TIP3     9913     TIP3     OH2      OT      -0.834000       15.9994           0   0.00000       0.00000    
     54654 TIP3     9913     TIP3     H1       HT       0.417000       1.00800           0   0.00000       0.00000    
     54655 TIP3     9913     TIP3     H2       HT       0.417000       1.00800           0   0.00000     -0.301140E-02
     54656 TIP3     9914     TIP3     OH2      OT      -0.834000       15.9994           0   0.00000       0.00000    
     54657 TIP3     9914     TIP3     H1       HT       0.417000       1.00800           0   0.00000       0.00000    
     54658 TIP3     9914     TIP3     H2       HT       0.417000       1.00800           0   0.00000     -0.301140E-02
     54659 TIP3     9915     TIP3     OH2      OT      -0.834000       15.9994           0   0.00000       0.00000    
     54660 TIP3     9915     TIP3     H1       HT       0.417000       1.00800           0   0.00000       0.00000    
     54661 TIP3     9915     TIP3     H2       HT       0.417000       1.00800           0   0.00000     -0.301140E-02
     54662 TIP3     9916     TIP3     OH2      OT      -0.834000       15.9994           0   0.00000       0.00000    
     54663 TIP3     9916     TIP3     H1       HT       0.417000       1.00800           0   0.00000       0.00000    
     54664 TIP3     9916     TIP3     H2       HT       0.417000       1.00800           0   0.00000     -0.301140E-02
     54665 TIP3     9917     TIP3     OH2      OT      -0.834000       15.9994           0   0.00000       0.00000    
     54666 TIP3     9917     TIP3     H1       HT       0.417000       1.00800           0   0.00000       0.00000    
     54667 TIP3     9917     TIP3     H2       HT       0.417000       1.00800           0   0.00000     -0.301140E-02
     54668 TIP3     9918     TIP3     OH2      OT      -0.834000       15.9994           0   0.00000       0.00000    
     54669 TIP3     9918     TIP3     H1       HT       0.417000       1.00800           0   0.00000       0.00000    
     54670 TIP3     9918     TIP3     H2       HT       0.417000       1.00800           0   0.00000     -0.301140E-02
     54671 TIP3     9919     TIP3     OH2      OT      -0.834000       15.9994           0   0.00000       0.00000    
     54672 TIP3     9919     TIP3     H1       HT       0.417000       1.00800           0   0.00000       0.00000    
     54673 TIP3     9919     TIP3     H2       HT       0.417000       1.00800           0   0.00000     -0.301140E-02
     54674 TIP3     9920     TIP3     OH2      OT      -0.834000       15.9994           0   0.00000       0.00000    
     54675 TIP3     9920     TIP3     H1       HT       0.417000       1.00800           0   0.00000       0.00000    
     54676 TIP3     9920     TIP3     H2       HT       0.417000       1.00800           0   0.00000     -0.301140E-02
     54677 TIP3     9921     TIP3     OH2      OT      -0.834000       15.9994           0   0.00000       0.00000    
     54678 TIP3     9921     TIP3     H1       HT       0.417000       1.00800           0   0.00000       0.00000    
     54679 TIP3     9921     TIP3     H2       HT       0.417000       1.00800           0   0.00000     -0.301140E-02
     54680 TIP3     9922     TIP3     OH2      OT      -0.834000       15.9994           0   0.00000       0.00000    
     54681 TIP3     9922     TIP3     H1       HT       0.417000       1.00800           0   0.00000       0.00000    
     54682 TIP3     9922     TIP3     H2       HT       0.417000       1.00800           0   0.00000     -0.301140E-02
     54683 TIP3     9923     TIP3     OH2      OT      -0.834000       15.9994           0   0.00000       0.00000    
     54684 TIP3     9923     TIP3     H1       HT       0.417000       1.00800           0   0.00000       0.00000    
     54685 TIP3     9923     TIP3     H2       HT       0.417000       1.00800           0   0.00000     -0.301140E-02
     54686 TIP3     9924     TIP3     OH2      OT      -0.834000       15.9994           0   0.00000       0.00000    
     54687 TIP3     9924     TIP3     H1       HT       0.417000       1.00800           0   0.00000       0.00000    
     54688 TIP3     9924     TIP3     H2       HT       0.417000       1.00800           0   0.00000     -0.301140E-02
     54689 TIP3     9925     TIP3     OH2      OT      -0.834000       15.9994           0   0.00000       0.00000    
     54690 TIP3     9925     TIP3     H1       HT       0.417000       1.00800           0   0.00000       0.00000    
     54691 TIP3     9925     TIP3     H2       HT       0.417000       1.00800           0   0.00000     -0.301140E-02
     54692 TIP3     9926     TIP3     OH2      OT      -0.834000       15.9994           0   0.00000       0.00000    
     54693 TIP3     9926     TIP3     H1       HT       0.417000       1.00800           0   0.00000       0.00000    
     54694 TIP3     9926     TIP3     H2       HT       0.417000       1.00800           0   0.00000     -0.301140E-02
     54695 TIP3     9927     TIP3     OH2      OT      -0.834000       15.9994           0   0.00000       0.00000    
     54696 TIP3     9927     TIP3     H1       HT       0.417000       1.00800           0   0.00000       0.00000    
     54697 TIP3     9927     TIP3     H2       HT       0.417000       1.00800           0   0.00000     -0.301140E-02
     54698 TIP3     9928     TIP3     OH2      OT      -0.834000       15.9994           0   0.00000       0.00000    
     54699 TIP3     9928     TIP3     H1       HT       0.417000       1.00800           0   0.00000       0.00000    
     54700 TIP3     9928     TIP3     H2       HT       0.417000       1.00800           0   0.00000     -0.301140E-02
     54701 TIP3     9929     TIP3     OH2      OT      -0.834000       15.9994           0   0.00000       0.00000    
     54702 TIP3     9929     TIP3     H1       HT       0.417000       1.00800           0   0.00000       0.00000    
     54703 TIP3     9929     TIP3     H2       HT       0.417000       1.00800           0   0.00000     -0.301140E-02
     54704 TIP3     9930     TIP3     OH2      OT      -0.834000       15.9994           0   0.00000       0.00000    
     54705 TIP3     9930     TIP3     H1       HT       0.417000       1.00800           0   0.00000       0.00000    
     54706 TIP3     9930     TIP3     H2       HT       0.417000       1.00800           0   0.00000     -0.301140E-02
     54707 TIP3     9931     TIP3     OH2      OT      -0.834000       15.9994           0   0.00000       0.00000    
     54708 TIP3     9931     TIP3     H1       HT       0.417000       1.00800           0   0.00000       0.00000    
     54709 TIP3     9931     TIP3     H2       HT       0.417000       1.00800           0   0.00000     -0.301140E-02
     54710 TIP3     9932     TIP3     OH2      OT      -0.834000       15.9994           0   0.00000       0.00000    
     54711 TIP3     9932     TIP3     H1       HT       0.417000       1.00800           0   0.00000       0.00000    
     54712 TIP3     9932     TIP3     H2       HT       0.417000       1.00800           0   0.00000     -0.301140E-02
     54713 TIP3     9933     TIP3     OH2      OT      -0.834000       15.9994           0   0.00000       0.00000    
     54714 TIP3     9933     TIP3     H1       HT       0.417000       1.00800           0   0.00000       0.00000    
     54715 TIP3     9933     TIP3     H2       HT       0.417000       1.00800           0   0.00000     -0.301140E-02
     54716 TIP3     9934     TIP3     OH2      OT      -0.834000       15.9994           0   0.00000       0.00000    
     54717 TIP3     9934     TIP3     H1       HT       0.417000       1.00800           0   0.00000       0.00000    
     54718 TIP3     9934     TIP3     H2       HT       0.417000       1.00800           0   0.00000     -0.301140E-02
     54719 TIP3     9935     TIP3     OH2      OT      -0.834000       15.9994           0   0.00000       0.00000    
     54720 TIP3     9935     TIP3     H1       HT       0.417000       1.00800           0   0.00000       0.00000    
     54721 TIP3     9935     TIP3     H2       HT       0.417000       1.00800           0   0.00000     -0.301140E-02
     54722 TIP3     9936     TIP3     OH2      OT      -0.834000       15.9994           0   0.00000       0.00000    
     54723 TIP3     9936     TIP3     H1       HT       0.417000       1.00800           0   0.00000       0.00000    
     54724 TIP3     9936     TIP3     H2       HT       0.417000       1.00800           0   0.00000     -0.301140E-02
     54725 TIP3     9937     TIP3     OH2      OT      -0.834000       15.9994           0   0.00000       0.00000    
     54726 TIP3     9937     TIP3     H1       HT       0.417000       1.00800           0   0.00000       0.00000    
     54727 TIP3     9937     TIP3     H2       HT       0.417000       1.00800           0   0.00000     -0.301140E-02
     54728 TIP3     9938     TIP3     OH2      OT      -0.834000       15.9994           0   0.00000       0.00000    
     54729 TIP3     9938     TIP3     H1       HT       0.417000       1.00800           0   0.00000       0.00000    
     54730 TIP3     9938     TIP3     H2       HT       0.417000       1.00800           0   0.00000     -0.301140E-02
     54731 TIP3     9939     TIP3     OH2      OT      -0.834000       15.9994           0   0.00000       0.00000    
     54732 TIP3     9939     TIP3     H1       HT       0.417000       1.00800           0   0.00000       0.00000    
     54733 TIP3     9939     TIP3     H2       HT       0.417000       1.00800           0   0.00000     -0.301140E-02
     54734 TIP3     9940     TIP3     OH2      OT      -0.834000       15.9994           0   0.00000       0.00000    
     54735 TIP3     9940     TIP3     H1       HT       0.417000       1.00800           0   0.00000       0.00000    
     54736 TIP3     9940     TIP3     H2       HT       0.417000       1.00800           0   0.00000     -0.301140E-02
     54737 TIP3     9941     TIP3     OH2      OT      -0.834000       15.9994           0   0.00000       0.00000    
     54738 TIP3     9941     TIP3     H1       HT       0.417000       1.00800           0   0.00000       0.00000    
     54739 TIP3     9941     TIP3     H2       HT       0.417000       1.00800           0   0.00000     -0.301140E-02
     54740 TIP3     9942     TIP3     OH2      OT      -0.834000       15.9994           0   0.00000       0.00000    
     54741 TIP3     9942     TIP3     H1       HT       0.417000       1.00800           0   0.00000       0.00000    
     54742 TIP3     9942     TIP3     H2       HT       0.417000       1.00800           0   0.00000     -0.301140E-02
     54743 TIP3     9943     TIP3     OH2      OT      -0.834000       15.9994           0   0.00000       0.00000    
     54744 TIP3     9943     TIP3     H1       HT       0.417000       1.00800           0   0.00000       0.00000    
     54745 TIP3     9943     TIP3     H2       HT       0.417000       1.00800           0   0.00000     -0.301140E-02
     54746 TIP3     9944     TIP3     OH2      OT      -0.834000       15.9994           0   0.00000       0.00000    
     54747 TIP3     9944     TIP3     H1       HT       0.417000       1.00800           0   0.00000       0.00000    
     54748 TIP3     9944     TIP3     H2       HT       0.417000       1.00800           0   0.00000     -0.301140E-02
     54749 TIP3     9945     TIP3     OH2      OT      -0.834000       15.9994           0   0.00000       0.00000    
     54750 TIP3     9945     TIP3     H1       HT       0.417000       1.00800           0   0.00000       0.00000    
     54751 TIP3     9945     TIP3     H2       HT       0.417000       1.00800           0   0.00000     -0.301140E-02
     54752 TIP3     9946     TIP3     OH2      OT      -0.834000       15.9994           0   0.00000       0.00000    
     54753 TIP3     9946     TIP3     H1       HT       0.417000       1.00800           0   0.00000       0.00000    
     54754 TIP3     9946     TIP3     H2       HT       0.417000       1.00800           0   0.00000     -0.301140E-02
     54755 TIP3     9947     TIP3     OH2      OT      -0.834000       15.9994           0   0.00000       0.00000    
     54756 TIP3     9947     TIP3     H1       HT       0.417000       1.00800           0   0.00000       0.00000    
     54757 TIP3     9947     TIP3     H2       HT       0.417000       1.00800           0   0.00000     -0.301140E-02
     54758 TIP3     9948     TIP3     OH2      OT      -0.834000       15.9994           0   0.00000       0.00000    
     54759 TIP3     9948     TIP3     H1       HT       0.417000       1.00800           0   0.00000       0.00000    
     54760 TIP3     9948     TIP3     H2       HT       0.417000       1.00800           0   0.00000     -0.301140E-02
     54761 TIP3     9949     TIP3     OH2      OT      -0.834000       15.9994           0   0.00000       0.00000    
     54762 TIP3     9949     TIP3     H1       HT       0.417000       1.00800           0   0.00000       0.00000    
     54763 TIP3     9949     TIP3     H2       HT       0.417000       1.00800           0   0.00000     -0.301140E-02
     54764 TIP3     9950     TIP3     OH2      OT      -0.834000       15.9994           0   0.00000       0.00000    
     54765 TIP3     9950     TIP3     H1       HT       0.417000       1.00800           0   0.00000       0.00000    
     54766 TIP3     9950     TIP3     H2       HT       0.417000       1.00800           0   0.00000     -0.301140E-02
     54767 TIP3     9951     TIP3     OH2      OT      -0.834000       15.9994           0   0.00000       0.00000    
     54768 TIP3     9951     TIP3     H1       HT       0.417000       1.00800           0   0.00000       0.00000    
     54769 TIP3     9951     TIP3     H2       HT       0.417000       1.00800           0   0.00000     -0.301140E-02
     54770 TIP3     9952     TIP3     OH2      OT      -0.834000       15.9994           0   0.00000       0.00000    
     54771 TIP3     9952     TIP3     H1       HT       0.417000       1.00800           0   0.00000       0.00000    
     54772 TIP3     9952     TIP3     H2       HT       0.417000       1.00800           0   0.00000     -0.301140E-02
     54773 TIP3     9953     TIP3     OH2      OT      -0.834000       15.9994           0   0.00000       0.00000    
     54774 TIP3     9953     TIP3     H1       HT       0.417000       1.00800           0   0.00000       0.00000    
     54775 TIP3     9953     TIP3     H2       HT       0.417000       1.00800           0   0.00000     -0.301140E-02
     54776 TIP3     9954     TIP3     OH2      OT      -0.834000       15.9994           0   0.00000       0.00000    
     54777 TIP3     9954     TIP3     H1       HT       0.417000       1.00800           0   0.00000       0.00000    
     54778 TIP3     9954     TIP3     H2       HT       0.417000       1.00800           0   0.00000     -0.301140E-02
     54779 TIP3     9955     TIP3     OH2      OT      -0.834000       15.9994           0   0.00000       0.00000    
     54780 TIP3     9955     TIP3     H1       HT       0.417000       1.00800           0   0.00000       0.00000    
     54781 TIP3     9955     TIP3     H2       HT       0.417000       1.00800           0   0.00000     -0.301140E-02
     54782 TIP3     9956     TIP3     OH2      OT      -0.834000       15.9994           0   0.00000       0.00000    
     54783 TIP3     9956     TIP3     H1       HT       0.417000       1.00800           0   0.00000       0.00000    
     54784 TIP3     9956     TIP3     H2       HT       0.417000       1.00800           0   0.00000     -0.301140E-02
     54785 TIP3     9957     TIP3     OH2      OT      -0.834000       15.9994           0   0.00000       0.00000    
     54786 TIP3     9957     TIP3     H1       HT       0.417000       1.00800           0   0.00000       0.00000    
     54787 TIP3     9957     TIP3     H2       HT       0.417000       1.00800           0   0.00000     -0.301140E-02
     54788 TIP3     9958     TIP3     OH2      OT      -0.834000       15.9994           0   0.00000       0.00000    
     54789 TIP3     9958     TIP3     H1       HT       0.417000       1.00800           0   0.00000       0.00000    
     54790 TIP3     9958     TIP3     H2       HT       0.417000       1.00800           0   0.00000     -0.301140E-02
     54791 TIP3     9959     TIP3     OH2      OT      -0.834000       15.9994           0   0.00000       0.00000    
     54792 TIP3     9959     TIP3     H1       HT       0.417000       1.00800           0   0.00000       0.00000    
     54793 TIP3     9959     TIP3     H2       HT       0.417000       1.00800           0   0.00000     -0.301140E-02
     54794 TIP3     9960     TIP3     OH2      OT      -0.834000       15.9994           0   0.00000       0.00000    
     54795 TIP3     9960     TIP3     H1       HT       0.417000       1.00800           0   0.00000       0.00000    
     54796 TIP3     9960     TIP3     H2       HT       0.417000       1.00800           0   0.00000     -0.301140E-02
     54797 TIP3     9961     TIP3     OH2      OT      -0.834000       15.9994           0   0.00000       0.00000    
     54798 TIP3     9961     TIP3     H1       HT       0.417000       1.00800           0   0.00000       0.00000    
     54799 TIP3     9961     TIP3     H2       HT       0.417000       1.00800           0   0.00000     -0.301140E-02
     54800 TIP3     9962     TIP3     OH2      OT      -0.834000       15.9994           0   0.00000       0.00000    
     54801 TIP3     9962     TIP3     H1       HT       0.417000       1.00800           0   0.00000       0.00000    
     54802 TIP3     9962     TIP3     H2       HT       0.417000       1.00800           0   0.00000     -0.301140E-02
     54803 TIP3     9963     TIP3     OH2      OT      -0.834000       15.9994           0   0.00000       0.00000    
     54804 TIP3     9963     TIP3     H1       HT       0.417000       1.00800           0   0.00000       0.00000    
     54805 TIP3     9963     TIP3     H2       HT       0.417000       1.00800           0   0.00000     -0.301140E-02
     54806 TIP3     9964     TIP3     OH2      OT      -0.834000       15.9994           0   0.00000       0.00000    
     54807 TIP3     9964     TIP3     H1       HT       0.417000       1.00800           0   0.00000       0.00000    
     54808 TIP3     9964     TIP3     H2       HT       0.417000       1.00800           0   0.00000     -0.301140E-02
     54809 TIP3     9965     TIP3     OH2      OT      -0.834000       15.9994           0   0.00000       0.00000    
     54810 TIP3     9965     TIP3     H1       HT       0.417000       1.00800           0   0.00000       0.00000    
     54811 TIP3     9965     TIP3     H2       HT       0.417000       1.00800           0   0.00000     -0.301140E-02
     54812 TIP3     9966     TIP3     OH2      OT      -0.834000       15.9994           0   0.00000       0.00000    
     54813 TIP3     9966     TIP3     H1       HT       0.417000       1.00800           0   0.00000       0.00000    
     54814 TIP3     9966     TIP3     H2       HT       0.417000       1.00800           0   0.00000     -0.301140E-02
     54815 TIP3     9967     TIP3     OH2      OT      -0.834000       15.9994           0   0.00000       0.00000    
     54816 TIP3     9967     TIP3     H1       HT       0.417000       1.00800           0   0.00000       0.00000    
     54817 TIP3     9967     TIP3     H2       HT       0.417000       1.00800           0   0.00000     -0.301140E-02
     54818 TIP3     9968     TIP3     OH2      OT      -0.834000       15.9994           0   0.00000       0.00000    
     54819 TIP3     9968     TIP3     H1       HT       0.417000       1.00800           0   0.00000       0.00000    
     54820 TIP3     9968     TIP3     H2       HT       0.417000       1.00800           0   0.00000     -0.301140E-02
     54821 TIP3     9969     TIP3     OH2      OT      -0.834000       15.9994           0   0.00000       0.00000    
     54822 TIP3     9969     TIP3     H1       HT       0.417000       1.00800           0   0.00000       0.00000    
     54823 TIP3     9969     TIP3     H2       HT       0.417000       1.00800           0   0.00000     -0.301140E-02
     54824 TIP3     9970     TIP3     OH2      OT      -0.834000       15.9994           0   0.00000       0.00000    
     54825 TIP3     9970     TIP3     H1       HT       0.417000       1.00800           0   0.00000       0.00000    
     54826 TIP3     9970     TIP3     H2       HT       0.417000       1.00800           0   0.00000     -0.301140E-02
     54827 TIP3     9971     TIP3     OH2      OT      -0.834000       15.9994           0   0.00000       0.00000    
     54828 TIP3     9971     TIP3     H1       HT       0.417000       1.00800           0   0.00000       0.00000    
     54829 TIP3     9971     TIP3     H2       HT       0.417000       1.00800           0   0.00000     -0.301140E-02
     54830 TIP3     9972     TIP3     OH2      OT      -0.834000       15.9994           0   0.00000       0.00000    
     54831 TIP3     9972     TIP3     H1       HT       0.417000       1.00800           0   0.00000       0.00000    
     54832 TIP3     9972     TIP3     H2       HT       0.417000       1.00800           0   0.00000     -0.301140E-02
     54833 TIP3     9973     TIP3     OH2      OT      -0.834000       15.9994           0   0.00000       0.00000    
     54834 TIP3     9973     TIP3     H1       HT       0.417000       1.00800           0   0.00000       0.00000    
     54835 TIP3     9973     TIP3     H2       HT       0.417000       1.00800           0   0.00000     -0.301140E-02
     54836 TIP3     9974     TIP3     OH2      OT      -0.834000       15.9994           0   0.00000       0.00000    
     54837 TIP3     9974     TIP3     H1       HT       0.417000       1.00800           0   0.00000       0.00000    
     54838 TIP3     9974     TIP3     H2       HT       0.417000       1.00800           0   0.00000     -0.301140E-02
     54839 TIP3     9975     TIP3     OH2      OT      -0.834000       15.9994           0   0.00000       0.00000    
     54840 TIP3     9975     TIP3     H1       HT       0.417000       1.00800           0   0.00000       0.00000    
     54841 TIP3     9975     TIP3     H2       HT       0.417000       1.00800           0   0.00000     -0.301140E-02
     54842 TIP3     9976     TIP3     OH2      OT      -0.834000       15.9994           0   0.00000       0.00000    
     54843 TIP3     9976     TIP3     H1       HT       0.417000       1.00800           0   0.00000       0.00000    
     54844 TIP3     9976     TIP3     H2       HT       0.417000       1.00800           0   0.00000     -0.301140E-02
     54845 TIP3     9977     TIP3     OH2      OT      -0.834000       15.9994           0   0.00000       0.00000    
     54846 TIP3     9977     TIP3     H1       HT       0.417000       1.00800           0   0.00000       0.00000    
     54847 TIP3     9977     TIP3     H2       HT       0.417000       1.00800           0   0.00000     -0.301140E-02
     54848 TIP3     9978     TIP3     OH2      OT      -0.834000       15.9994           0   0.00000       0.00000    
     54849 TIP3     9978     TIP3     H1       HT       0.417000       1.00800           0   0.00000       0.00000    
     54850 TIP3     9978     TIP3     H2       HT       0.417000       1.00800           0   0.00000     -0.301140E-02
     54851 TIP3     9979     TIP3     OH2      OT      -0.834000       15.9994           0   0.00000       0.00000    
     54852 TIP3     9979     TIP3     H1       HT       0.417000       1.00800           0   0.00000       0.00000    
     54853 TIP3     9979     TIP3     H2       HT       0.417000       1.00800           0   0.00000     -0.301140E-02
     54854 TIP3     9980     TIP3     OH2      OT      -0.834000       15.9994           0   0.00000       0.00000    
     54855 TIP3     9980     TIP3     H1       HT       0.417000       1.00800           0   0.00000       0.00000    
     54856 TIP3     9980     TIP3     H2       HT       0.417000       1.00800           0   0.00000     -0.301140E-02
     54857 TIP3     9981     TIP3     OH2      OT      -0.834000       15.9994           0   0.00000       0.00000    
     54858 TIP3     9981     TIP3     H1       HT       0.417000       1.00800           0   0.00000       0.00000    
     54859 TIP3     9981     TIP3     H2       HT       0.417000       1.00800           0   0.00000     -0.301140E-02
     54860 TIP3     9982     TIP3     OH2      OT      -0.834000       15.9994           0   0.00000       0.00000    
     54861 TIP3     9982     TIP3     H1       HT       0.417000       1.00800           0   0.00000       0.00000    
     54862 TIP3     9982     TIP3     H2       HT       0.417000       1.00800           0   0.00000     -0.301140E-02
     54863 TIP3     9983     TIP3     OH2      OT      -0.834000       15.9994           0   0.00000       0.00000    
     54864 TIP3     9983     TIP3     H1       HT       0.417000       1.00800           0   0.00000       0.00000    
     54865 TIP3     9983     TIP3     H2       HT       0.417000       1.00800           0   0.00000     -0.301140E-02
     54866 TIP3     9984     TIP3     OH2      OT      -0.834000       15.9994           0   0.00000       0.00000    
     54867 TIP3     9984     TIP3     H1       HT       0.417000       1.00800           0   0.00000       0.00000    
     54868 TIP3     9984     TIP3     H2       HT       0.417000       1.00800           0   0.00000     -0.301140E-02
     54869 TIP3     9985     TIP3     OH2      OT      -0.834000       15.9994           0   0.00000       0.00000    
     54870 TIP3     9985     TIP3     H1       HT       0.417000       1.00800           0   0.00000       0.00000    
     54871 TIP3     9985     TIP3     H2       HT       0.417000       1.00800           0   0.00000     -0.301140E-02
     54872 TIP3     9986     TIP3     OH2      OT      -0.834000       15.9994           0   0.00000       0.00000    
     54873 TIP3     9986     TIP3     H1       HT       0.417000       1.00800           0   0.00000       0.00000    
     54874 TIP3     9986     TIP3     H2       HT       0.417000       1.00800           0   0.00000     -0.301140E-02
     54875 TIP3     9987     TIP3     OH2      OT      -0.834000       15.9994           0   0.00000       0.00000    
     54876 TIP3     9987     TIP3     H1       HT       0.417000       1.00800           0   0.00000       0.00000    
     54877 TIP3     9987     TIP3     H2       HT       0.417000       1.00800           0   0.00000     -0.301140E-02
     54878 TIP3     9988     TIP3     OH2      OT      -0.834000       15.9994           0   0.00000       0.00000    
     54879 TIP3     9988     TIP3     H1       HT       0.417000       1.00800           0   0.00000       0.00000    
     54880 TIP3     9988     TIP3     H2       HT       0.417000       1.00800           0   0.00000     -0.301140E-02
     54881 TIP3     9989     TIP3     OH2      OT      -0.834000       15.9994           0   0.00000       0.00000    
     54882 TIP3     9989     TIP3     H1       HT       0.417000       1.00800           0   0.00000       0.00000    
     54883 TIP3     9989     TIP3     H2       HT       0.417000       1.00800           0   0.00000     -0.301140E-02
     54884 TIP3     9990     TIP3     OH2      OT      -0.834000       15.9994           0   0.00000       0.00000    
     54885 TIP3     9990     TIP3     H1       HT       0.417000       1.00800           0   0.00000       0.00000    
     54886 TIP3     9990     TIP3     H2       HT       0.417000       1.00800           0   0.00000     -0.301140E-02
     54887 TIP3     9991     TIP3     OH2      OT      -0.834000       15.9994           0   0.00000       0.00000    
     54888 TIP3     9991     TIP3     H1       HT       0.417000       1.00800           0   0.00000       0.00000    
     54889 TIP3     9991     TIP3     H2       HT       0.417000       1.00800           0   0.00000     -0.301140E-02
     54890 TIP3     9992     TIP3     OH2      OT      -0.834000       15.9994           0   0.00000       0.00000    
     54891 TIP3     9992     TIP3     H1       HT       0.417000       1.00800           0   0.00000       0.00000    
     54892 TIP3     9992     TIP3     H2       HT       0.417000       1.00800           0   0.00000     -0.301140E-02
     54893 TIP3     9993     TIP3     OH2      OT      -0.834000       15.9994           0   0.00000       0.00000    
     54894 TIP3     9993     TIP3     H1       HT       0.417000       1.00800           0   0.00000       0.00000    
     54895 TIP3     9993     TIP3     H2       HT       0.417000       1.00800           0   0.00000     -0.301140E-02
     54896 TIP3     9994     TIP3     OH2      OT      -0.834000       15.9994           0   0.00000       0.00000    
     54897 TIP3     9994     TIP3     H1       HT       0.417000       1.00800           0   0.00000       0.00000    
     54898 TIP3     9994     TIP3     H2       HT       0.417000       1.00800           0   0.00000     -0.301140E-02
     54899 TIP3     9995     TIP3     OH2      OT      -0.834000       15.9994           0   0.00000       0.00000    
     54900 TIP3     9995     TIP3     H1       HT       0.417000       1.00800           0   0.00000       0.00000    
     54901 TIP3     9995     TIP3     H2       HT       0.417000       1.00800           0   0.00000     -0.301140E-02
     54902 TIP3     9996     TIP3     OH2      OT      -0.834000       15.9994           0   0.00000       0.00000    
     54903 TIP3     9996     TIP3     H1       HT       0.417000       1.00800           0   0.00000       0.00000    
     54904 TIP3     9996     TIP3     H2       HT       0.417000       1.00800           0   0.00000     -0.301140E-02
     54905 TIP3     9997     TIP3     OH2      OT      -0.834000       15.9994           0   0.00000       0.00000    
     54906 TIP3     9997     TIP3     H1       HT       0.417000       1.00800           0   0.00000       0.00000    
     54907 TIP3     9997     TIP3     H2       HT       0.417000       1.00800           0   0.00000     -0.301140E-02
     54908 TIP3     9998     TIP3     OH2      OT      -0.834000       15.9994           0   0.00000       0.00000    
     54909 TIP3     9998     TIP3     H1       HT       0.417000       1.00800           0   0.00000       0.00000    
     54910 TIP3     9998     TIP3     H2       HT       0.417000       1.00800           0   0.00000     -0.301140E-02
     54911 TIP3     9999     TIP3     OH2      OT      -0.834000       15.9994           0   0.00000       0.00000    
     54912 TIP3     9999     TIP3     H1       HT       0.417000       1.00800           0   0.00000       0.00000    
     54913 TIP3     9999     TIP3     H2       HT       0.417000       1.00800           0   0.00000     -0.301140E-02
     54914 TIP3     10000    TIP3     OH2      OT      -0.834000       15.9994           0   0.00000       0.00000    
     54915 TIP3     10000    TIP3     H1       HT       0.417000       1.00800           0   0.00000       0.00000    
     54916 TIP3     10000    TIP3     H2       HT       0.417000       1.00800           0   0.00000     -0.301140E-02
     54917 TIP3     10001    TIP3     OH2      OT      -0.834000       15.9994           0   0.00000       0.00000    
     54918 TIP3     10001    TIP3     H1       HT       0.417000       1.00800           0   0.00000       0.00000    
     54919 TIP3     10001    TIP3     H2       HT       0.417000       1.00800           0   0.00000     -0.301140E-02
     54920 TIP3     10002    TIP3     OH2      OT      -0.834000       15.9994           0   0.00000       0.00000    
     54921 TIP3     10002    TIP3     H1       HT       0.417000       1.00800           0   0.00000       0.00000    
     54922 TIP3     10002    TIP3     H2       HT       0.417000       1.00800           0   0.00000     -0.301140E-02
     54923 TIP3     10003    TIP3     OH2      OT      -0.834000       15.9994           0   0.00000       0.00000    
     54924 TIP3     10003    TIP3     H1       HT       0.417000       1.00800           0   0.00000       0.00000    
     54925 TIP3     10003    TIP3     H2       HT       0.417000       1.00800           0   0.00000     -0.301140E-02
     54926 TIP3     10004    TIP3     OH2      OT      -0.834000       15.9994           0   0.00000       0.00000    
     54927 TIP3     10004    TIP3     H1       HT       0.417000       1.00800           0   0.00000       0.00000    
     54928 TIP3     10004    TIP3     H2       HT       0.417000       1.00800           0   0.00000     -0.301140E-02
     54929 TIP3     10005    TIP3     OH2      OT      -0.834000       15.9994           0   0.00000       0.00000    
     54930 TIP3     10005    TIP3     H1       HT       0.417000       1.00800           0   0.00000       0.00000    
     54931 TIP3     10005    TIP3     H2       HT       0.417000       1.00800           0   0.00000     -0.301140E-02
     54932 TIP3     10006    TIP3     OH2      OT      -0.834000       15.9994           0   0.00000       0.00000    
     54933 TIP3     10006    TIP3     H1       HT       0.417000       1.00800           0   0.00000       0.00000    
     54934 TIP3     10006    TIP3     H2       HT       0.417000       1.00800           0   0.00000     -0.301140E-02
     54935 TIP3     10007    TIP3     OH2      OT      -0.834000       15.9994           0   0.00000       0.00000    
     54936 TIP3     10007    TIP3     H1       HT       0.417000       1.00800           0   0.00000       0.00000    
     54937 TIP3     10007    TIP3     H2       HT       0.417000       1.00800           0   0.00000     -0.301140E-02
     54938 TIP3     10008    TIP3     OH2      OT      -0.834000       15.9994           0   0.00000       0.00000    
     54939 TIP3     10008    TIP3     H1       HT       0.417000       1.00800           0   0.00000       0.00000    
     54940 TIP3     10008    TIP3     H2       HT       0.417000       1.00800           0   0.00000     -0.301140E-02
     54941 TIP3     10009    TIP3     OH2      OT      -0.834000       15.9994           0   0.00000       0.00000    
     54942 TIP3     10009    TIP3     H1       HT       0.417000       1.00800           0   0.00000       0.00000    
     54943 TIP3     10009    TIP3     H2       HT       0.417000       1.00800           0   0.00000     -0.301140E-02
     54944 TIP3     10010    TIP3     OH2      OT      -0.834000       15.9994           0   0.00000       0.00000    
     54945 TIP3     10010    TIP3     H1       HT       0.417000       1.00800           0   0.00000       0.00000    
     54946 TIP3     10010    TIP3     H2       HT       0.417000       1.00800           0   0.00000     -0.301140E-02
     54947 TIP3     10011    TIP3     OH2      OT      -0.834000       15.9994           0   0.00000       0.00000    
     54948 TIP3     10011    TIP3     H1       HT       0.417000       1.00800           0   0.00000       0.00000    
     54949 TIP3     10011    TIP3     H2       HT       0.417000       1.00800           0   0.00000     -0.301140E-02
     54950 TIP3     10012    TIP3     OH2      OT      -0.834000       15.9994           0   0.00000       0.00000    
     54951 TIP3     10012    TIP3     H1       HT       0.417000       1.00800           0   0.00000       0.00000    
     54952 TIP3     10012    TIP3     H2       HT       0.417000       1.00800           0   0.00000     -0.301140E-02
     54953 TIP3     10013    TIP3     OH2      OT      -0.834000       15.9994           0   0.00000       0.00000    
     54954 TIP3     10013    TIP3     H1       HT       0.417000       1.00800           0   0.00000       0.00000    
     54955 TIP3     10013    TIP3     H2       HT       0.417000       1.00800           0   0.00000     -0.301140E-02
     54956 TIP3     10014    TIP3     OH2      OT      -0.834000       15.9994           0   0.00000       0.00000    
     54957 TIP3     10014    TIP3     H1       HT       0.417000       1.00800           0   0.00000       0.00000    
     54958 TIP3     10014    TIP3     H2       HT       0.417000       1.00800           0   0.00000     -0.301140E-02
     54959 TIP3     10015    TIP3     OH2      OT      -0.834000       15.9994           0   0.00000       0.00000    
     54960 TIP3     10015    TIP3     H1       HT       0.417000       1.00800           0   0.00000       0.00000    
     54961 TIP3     10015    TIP3     H2       HT       0.417000       1.00800           0   0.00000     -0.301140E-02
     54962 TIP3     10016    TIP3     OH2      OT      -0.834000       15.9994           0   0.00000       0.00000    
     54963 TIP3     10016    TIP3     H1       HT       0.417000       1.00800           0   0.00000       0.00000    
     54964 TIP3     10016    TIP3     H2       HT       0.417000       1.00800           0   0.00000     -0.301140E-02
     54965 TIP3     10017    TIP3     OH2      OT      -0.834000       15.9994           0   0.00000       0.00000    
     54966 TIP3     10017    TIP3     H1       HT       0.417000       1.00800           0   0.00000       0.00000    
     54967 TIP3     10017    TIP3     H2       HT       0.417000       1.00800           0   0.00000     -0.301140E-02
     54968 TIP3     10018    TIP3     OH2      OT      -0.834000       15.9994           0   0.00000       0.00000    
     54969 TIP3     10018    TIP3     H1       HT       0.417000       1.00800           0   0.00000       0.00000    
     54970 TIP3     10018    TIP3     H2       HT       0.417000       1.00800           0   0.00000     -0.301140E-02
     54971 TIP3     10019    TIP3     OH2      OT      -0.834000       15.9994           0   0.00000       0.00000    
     54972 TIP3     10019    TIP3     H1       HT       0.417000       1.00800           0   0.00000       0.00000    
     54973 TIP3     10019    TIP3     H2       HT       0.417000       1.00800           0   0.00000     -0.301140E-02
     54974 TIP3     10020    TIP3     OH2      OT      -0.834000       15.9994           0   0.00000       0.00000    
     54975 TIP3     10020    TIP3     H1       HT       0.417000       1.00800           0   0.00000       0.00000    
     54976 TIP3     10020    TIP3     H2       HT       0.417000       1.00800           0   0.00000     -0.301140E-02
     54977 TIP3     10021    TIP3     OH2      OT      -0.834000       15.9994           0   0.00000       0.00000    
     54978 TIP3     10021    TIP3     H1       HT       0.417000       1.00800           0   0.00000       0.00000    
     54979 TIP3     10021    TIP3     H2       HT       0.417000       1.00800           0   0.00000     -0.301140E-02
     54980 TIP3     10022    TIP3     OH2      OT      -0.834000       15.9994           0   0.00000       0.00000    
     54981 TIP3     10022    TIP3     H1       HT       0.417000       1.00800           0   0.00000       0.00000    
     54982 TIP3     10022    TIP3     H2       HT       0.417000       1.00800           0   0.00000     -0.301140E-02
     54983 TIP3     10023    TIP3     OH2      OT      -0.834000       15.9994           0   0.00000       0.00000    
     54984 TIP3     10023    TIP3     H1       HT       0.417000       1.00800           0   0.00000       0.00000    
     54985 TIP3     10023    TIP3     H2       HT       0.417000       1.00800           0   0.00000     -0.301140E-02
     54986 TIP3     10024    TIP3     OH2      OT      -0.834000       15.9994           0   0.00000       0.00000    
     54987 TIP3     10024    TIP3     H1       HT       0.417000       1.00800           0   0.00000       0.00000    
     54988 TIP3     10024    TIP3     H2       HT       0.417000       1.00800           0   0.00000     -0.301140E-02
     54989 TIP3     10025    TIP3     OH2      OT      -0.834000       15.9994           0   0.00000       0.00000    
     54990 TIP3     10025    TIP3     H1       HT       0.417000       1.00800           0   0.00000       0.00000    
     54991 TIP3     10025    TIP3     H2       HT       0.417000       1.00800           0   0.00000     -0.301140E-02
     54992 TIP3     10026    TIP3     OH2      OT      -0.834000       15.9994           0   0.00000       0.00000    
     54993 TIP3     10026    TIP3     H1       HT       0.417000       1.00800           0   0.00000       0.00000    
     54994 TIP3     10026    TIP3     H2       HT       0.417000       1.00800           0   0.00000     -0.301140E-02
     54995 TIP3     10027    TIP3     OH2      OT      -0.834000       15.9994           0   0.00000       0.00000    
     54996 TIP3     10027    TIP3     H1       HT       0.417000       1.00800           0   0.00000       0.00000    
     54997 TIP3     10027    TIP3     H2       HT       0.417000       1.00800           0   0.00000     -0.301140E-02
     54998 TIP3     10028    TIP3     OH2      OT      -0.834000       15.9994           0   0.00000       0.00000    
     54999 TIP3     10028    TIP3     H1       HT       0.417000       1.00800           0   0.00000       0.00000    
     55000 TIP3     10028    TIP3     H2       HT       0.417000       1.00800           0   0.00000     -0.301140E-02
     55001 TIP3     10029    TIP3     OH2      OT      -0.834000       15.9994           0   0.00000       0.00000    
     55002 TIP3     10029    TIP3     H1       HT       0.417000       1.00800           0   0.00000       0.00000    
     55003 TIP3     10029    TIP3     H2       HT       0.417000       1.00800           0   0.00000     -0.301140E-02
     55004 TIP3     10030    TIP3     OH2      OT      -0.834000       15.9994           0   0.00000       0.00000    
     55005 TIP3     10030    TIP3     H1       HT       0.417000       1.00800           0   0.00000       0.00000    
     55006 TIP3     10030    TIP3     H2       HT       0.417000       1.00800           0   0.00000     -0.301140E-02
     55007 TIP3     10031    TIP3     OH2      OT      -0.834000       15.9994           0   0.00000       0.00000    
     55008 TIP3     10031    TIP3     H1       HT       0.417000       1.00800           0   0.00000       0.00000    
     55009 TIP3     10031    TIP3     H2       HT       0.417000       1.00800           0   0.00000     -0.301140E-02
     55010 TIP3     10032    TIP3     OH2      OT      -0.834000       15.9994           0   0.00000       0.00000    
     55011 TIP3     10032    TIP3     H1       HT       0.417000       1.00800           0   0.00000       0.00000    
     55012 TIP3     10032    TIP3     H2       HT       0.417000       1.00800           0   0.00000     -0.301140E-02
     55013 TIP3     10033    TIP3     OH2      OT      -0.834000       15.9994           0   0.00000       0.00000    
     55014 TIP3     10033    TIP3     H1       HT       0.417000       1.00800           0   0.00000       0.00000    
     55015 TIP3     10033    TIP3     H2       HT       0.417000       1.00800           0   0.00000     -0.301140E-02
     55016 TIP3     10034    TIP3     OH2      OT      -0.834000       15.9994           0   0.00000       0.00000    
     55017 TIP3     10034    TIP3     H1       HT       0.417000       1.00800           0   0.00000       0.00000    
     55018 TIP3     10034    TIP3     H2       HT       0.417000       1.00800           0   0.00000     -0.301140E-02
     55019 TIP3     10035    TIP3     OH2      OT      -0.834000       15.9994           0   0.00000       0.00000    
     55020 TIP3     10035    TIP3     H1       HT       0.417000       1.00800           0   0.00000       0.00000    
     55021 TIP3     10035    TIP3     H2       HT       0.417000       1.00800           0   0.00000     -0.301140E-02
     55022 TIP3     10036    TIP3     OH2      OT      -0.834000       15.9994           0   0.00000       0.00000    
     55023 TIP3     10036    TIP3     H1       HT       0.417000       1.00800           0   0.00000       0.00000    
     55024 TIP3     10036    TIP3     H2       HT       0.417000       1.00800           0   0.00000     -0.301140E-02
     55025 TIP3     10037    TIP3     OH2      OT      -0.834000       15.9994           0   0.00000       0.00000    
     55026 TIP3     10037    TIP3     H1       HT       0.417000       1.00800           0   0.00000       0.00000    
     55027 TIP3     10037    TIP3     H2       HT       0.417000       1.00800           0   0.00000     -0.301140E-02
     55028 TIP3     10038    TIP3     OH2      OT      -0.834000       15.9994           0   0.00000       0.00000    
     55029 TIP3     10038    TIP3     H1       HT       0.417000       1.00800           0   0.00000       0.00000    
     55030 TIP3     10038    TIP3     H2       HT       0.417000       1.00800           0   0.00000     -0.301140E-02
     55031 TIP3     10039    TIP3     OH2      OT      -0.834000       15.9994           0   0.00000       0.00000    
     55032 TIP3     10039    TIP3     H1       HT       0.417000       1.00800           0   0.00000       0.00000    
     55033 TIP3     10039    TIP3     H2       HT       0.417000       1.00800           0   0.00000     -0.301140E-02
     55034 TIP3     10040    TIP3     OH2      OT      -0.834000       15.9994           0   0.00000       0.00000    
     55035 TIP3     10040    TIP3     H1       HT       0.417000       1.00800           0   0.00000       0.00000    
     55036 TIP3     10040    TIP3     H2       HT       0.417000       1.00800           0   0.00000     -0.301140E-02
     55037 TIP3     10041    TIP3     OH2      OT      -0.834000       15.9994           0   0.00000       0.00000    
     55038 TIP3     10041    TIP3     H1       HT       0.417000       1.00800           0   0.00000       0.00000    
     55039 TIP3     10041    TIP3     H2       HT       0.417000       1.00800           0   0.00000     -0.301140E-02
     55040 TIP3     10042    TIP3     OH2      OT      -0.834000       15.9994           0   0.00000       0.00000    
     55041 TIP3     10042    TIP3     H1       HT       0.417000       1.00800           0   0.00000       0.00000    
     55042 TIP3     10042    TIP3     H2       HT       0.417000       1.00800           0   0.00000     -0.301140E-02
     55043 TIP3     10043    TIP3     OH2      OT      -0.834000       15.9994           0   0.00000       0.00000    
     55044 TIP3     10043    TIP3     H1       HT       0.417000       1.00800           0   0.00000       0.00000    
     55045 TIP3     10043    TIP3     H2       HT       0.417000       1.00800           0   0.00000     -0.301140E-02
     55046 TIP3     10044    TIP3     OH2      OT      -0.834000       15.9994           0   0.00000       0.00000    
     55047 TIP3     10044    TIP3     H1       HT       0.417000       1.00800           0   0.00000       0.00000    
     55048 TIP3     10044    TIP3     H2       HT       0.417000       1.00800           0   0.00000     -0.301140E-02
     55049 TIP3     10045    TIP3     OH2      OT      -0.834000       15.9994           0   0.00000       0.00000    
     55050 TIP3     10045    TIP3     H1       HT       0.417000       1.00800           0   0.00000       0.00000    
     55051 TIP3     10045    TIP3     H2       HT       0.417000       1.00800           0   0.00000     -0.301140E-02
     55052 TIP3     10046    TIP3     OH2      OT      -0.834000       15.9994           0   0.00000       0.00000    
     55053 TIP3     10046    TIP3     H1       HT       0.417000       1.00800           0   0.00000       0.00000    
     55054 TIP3     10046    TIP3     H2       HT       0.417000       1.00800           0   0.00000     -0.301140E-02
     55055 TIP3     10047    TIP3     OH2      OT      -0.834000       15.9994           0   0.00000       0.00000    
     55056 TIP3     10047    TIP3     H1       HT       0.417000       1.00800           0   0.00000       0.00000    
     55057 TIP3     10047    TIP3     H2       HT       0.417000       1.00800           0   0.00000     -0.301140E-02
     55058 TIP3     10048    TIP3     OH2      OT      -0.834000       15.9994           0   0.00000       0.00000    
     55059 TIP3     10048    TIP3     H1       HT       0.417000       1.00800           0   0.00000       0.00000    
     55060 TIP3     10048    TIP3     H2       HT       0.417000       1.00800           0   0.00000     -0.301140E-02
     55061 TIP3     10049    TIP3     OH2      OT      -0.834000       15.9994           0   0.00000       0.00000    
     55062 TIP3     10049    TIP3     H1       HT       0.417000       1.00800           0   0.00000       0.00000    
     55063 TIP3     10049    TIP3     H2       HT       0.417000       1.00800           0   0.00000     -0.301140E-02
     55064 TIP3     10050    TIP3     OH2      OT      -0.834000       15.9994           0   0.00000       0.00000    
     55065 TIP3     10050    TIP3     H1       HT       0.417000       1.00800           0   0.00000       0.00000    
     55066 TIP3     10050    TIP3     H2       HT       0.417000       1.00800           0   0.00000     -0.301140E-02
     55067 TIP3     10051    TIP3     OH2      OT      -0.834000       15.9994           0   0.00000       0.00000    
     55068 TIP3     10051    TIP3     H1       HT       0.417000       1.00800           0   0.00000       0.00000    
     55069 TIP3     10051    TIP3     H2       HT       0.417000       1.00800           0   0.00000     -0.301140E-02
     55070 TIP3     10052    TIP3     OH2      OT      -0.834000       15.9994           0   0.00000       0.00000    
     55071 TIP3     10052    TIP3     H1       HT       0.417000       1.00800           0   0.00000       0.00000    
     55072 TIP3     10052    TIP3     H2       HT       0.417000       1.00800           0   0.00000     -0.301140E-02
     55073 TIP3     10053    TIP3     OH2      OT      -0.834000       15.9994           0   0.00000       0.00000    
     55074 TIP3     10053    TIP3     H1       HT       0.417000       1.00800           0   0.00000       0.00000    
     55075 TIP3     10053    TIP3     H2       HT       0.417000       1.00800           0   0.00000     -0.301140E-02
     55076 TIP3     10054    TIP3     OH2      OT      -0.834000       15.9994           0   0.00000       0.00000    
     55077 TIP3     10054    TIP3     H1       HT       0.417000       1.00800           0   0.00000       0.00000    
     55078 TIP3     10054    TIP3     H2       HT       0.417000       1.00800           0   0.00000     -0.301140E-02
     55079 TIP3     10055    TIP3     OH2      OT      -0.834000       15.9994           0   0.00000       0.00000    
     55080 TIP3     10055    TIP3     H1       HT       0.417000       1.00800           0   0.00000       0.00000    
     55081 TIP3     10055    TIP3     H2       HT       0.417000       1.00800           0   0.00000     -0.301140E-02
     55082 TIP3     10056    TIP3     OH2      OT      -0.834000       15.9994           0   0.00000       0.00000    
     55083 TIP3     10056    TIP3     H1       HT       0.417000       1.00800           0   0.00000       0.00000    
     55084 TIP3     10056    TIP3     H2       HT       0.417000       1.00800           0   0.00000     -0.301140E-02
     55085 TIP3     10057    TIP3     OH2      OT      -0.834000       15.9994           0   0.00000       0.00000    
     55086 TIP3     10057    TIP3     H1       HT       0.417000       1.00800           0   0.00000       0.00000    
     55087 TIP3     10057    TIP3     H2       HT       0.417000       1.00800           0   0.00000     -0.301140E-02
     55088 TIP3     10058    TIP3     OH2      OT      -0.834000       15.9994           0   0.00000       0.00000    
     55089 TIP3     10058    TIP3     H1       HT       0.417000       1.00800           0   0.00000       0.00000    
     55090 TIP3     10058    TIP3     H2       HT       0.417000       1.00800           0   0.00000     -0.301140E-02
     55091 TIP3     10059    TIP3     OH2      OT      -0.834000       15.9994           0   0.00000       0.00000    
     55092 TIP3     10059    TIP3     H1       HT       0.417000       1.00800           0   0.00000       0.00000    
     55093 TIP3     10059    TIP3     H2       HT       0.417000       1.00800           0   0.00000     -0.301140E-02
     55094 TIP3     10060    TIP3     OH2      OT      -0.834000       15.9994           0   0.00000       0.00000    
     55095 TIP3     10060    TIP3     H1       HT       0.417000       1.00800           0   0.00000       0.00000    
     55096 TIP3     10060    TIP3     H2       HT       0.417000       1.00800           0   0.00000     -0.301140E-02
     55097 TIP3     10061    TIP3     OH2      OT      -0.834000       15.9994           0   0.00000       0.00000    
     55098 TIP3     10061    TIP3     H1       HT       0.417000       1.00800           0   0.00000       0.00000    
     55099 TIP3     10061    TIP3     H2       HT       0.417000       1.00800           0   0.00000     -0.301140E-02
     55100 TIP3     10062    TIP3     OH2      OT      -0.834000       15.9994           0   0.00000       0.00000    
     55101 TIP3     10062    TIP3     H1       HT       0.417000       1.00800           0   0.00000       0.00000    
     55102 TIP3     10062    TIP3     H2       HT       0.417000       1.00800           0   0.00000     -0.301140E-02
     55103 TIP3     10063    TIP3     OH2      OT      -0.834000       15.9994           0   0.00000       0.00000    
     55104 TIP3     10063    TIP3     H1       HT       0.417000       1.00800           0   0.00000       0.00000    
     55105 TIP3     10063    TIP3     H2       HT       0.417000       1.00800           0   0.00000     -0.301140E-02
     55106 TIP3     10064    TIP3     OH2      OT      -0.834000       15.9994           0   0.00000       0.00000    
     55107 TIP3     10064    TIP3     H1       HT       0.417000       1.00800           0   0.00000       0.00000    
     55108 TIP3     10064    TIP3     H2       HT       0.417000       1.00800           0   0.00000     -0.301140E-02
     55109 TIP3     10065    TIP3     OH2      OT      -0.834000       15.9994           0   0.00000       0.00000    
     55110 TIP3     10065    TIP3     H1       HT       0.417000       1.00800           0   0.00000       0.00000    
     55111 TIP3     10065    TIP3     H2       HT       0.417000       1.00800           0   0.00000     -0.301140E-02
     55112 TIP3     10066    TIP3     OH2      OT      -0.834000       15.9994           0   0.00000       0.00000    
     55113 TIP3     10066    TIP3     H1       HT       0.417000       1.00800           0   0.00000       0.00000    
     55114 TIP3     10066    TIP3     H2       HT       0.417000       1.00800           0   0.00000     -0.301140E-02
     55115 TIP3     10067    TIP3     OH2      OT      -0.834000       15.9994           0   0.00000       0.00000    
     55116 TIP3     10067    TIP3     H1       HT       0.417000       1.00800           0   0.00000       0.00000    
     55117 TIP3     10067    TIP3     H2       HT       0.417000       1.00800           0   0.00000     -0.301140E-02
     55118 TIP3     10068    TIP3     OH2      OT      -0.834000       15.9994           0   0.00000       0.00000    
     55119 TIP3     10068    TIP3     H1       HT       0.417000       1.00800           0   0.00000       0.00000    
     55120 TIP3     10068    TIP3     H2       HT       0.417000       1.00800           0   0.00000     -0.301140E-02
     55121 TIP3     10069    TIP3     OH2      OT      -0.834000       15.9994           0   0.00000       0.00000    
     55122 TIP3     10069    TIP3     H1       HT       0.417000       1.00800           0   0.00000       0.00000    
     55123 TIP3     10069    TIP3     H2       HT       0.417000       1.00800           0   0.00000     -0.301140E-02
     55124 TIP3     10070    TIP3     OH2      OT      -0.834000       15.9994           0   0.00000       0.00000    
     55125 TIP3     10070    TIP3     H1       HT       0.417000       1.00800           0   0.00000       0.00000    
     55126 TIP3     10070    TIP3     H2       HT       0.417000       1.00800           0   0.00000     -0.301140E-02
     55127 TIP3     10071    TIP3     OH2      OT      -0.834000       15.9994           0   0.00000       0.00000    
     55128 TIP3     10071    TIP3     H1       HT       0.417000       1.00800           0   0.00000       0.00000    
     55129 TIP3     10071    TIP3     H2       HT       0.417000       1.00800           0   0.00000     -0.301140E-02
     55130 TIP3     10072    TIP3     OH2      OT      -0.834000       15.9994           0   0.00000       0.00000    
     55131 TIP3     10072    TIP3     H1       HT       0.417000       1.00800           0   0.00000       0.00000    
     55132 TIP3     10072    TIP3     H2       HT       0.417000       1.00800           0   0.00000     -0.301140E-02
     55133 TIP3     10073    TIP3     OH2      OT      -0.834000       15.9994           0   0.00000       0.00000    
     55134 TIP3     10073    TIP3     H1       HT       0.417000       1.00800           0   0.00000       0.00000    
     55135 TIP3     10073    TIP3     H2       HT       0.417000       1.00800           0   0.00000     -0.301140E-02
     55136 TIP3     10074    TIP3     OH2      OT      -0.834000       15.9994           0   0.00000       0.00000    
     55137 TIP3     10074    TIP3     H1       HT       0.417000       1.00800           0   0.00000       0.00000    
     55138 TIP3     10074    TIP3     H2       HT       0.417000       1.00800           0   0.00000     -0.301140E-02
     55139 TIP3     10075    TIP3     OH2      OT      -0.834000       15.9994           0   0.00000       0.00000    
     55140 TIP3     10075    TIP3     H1       HT       0.417000       1.00800           0   0.00000       0.00000    
     55141 TIP3     10075    TIP3     H2       HT       0.417000       1.00800           0   0.00000     -0.301140E-02
     55142 TIP3     10076    TIP3     OH2      OT      -0.834000       15.9994           0   0.00000       0.00000    
     55143 TIP3     10076    TIP3     H1       HT       0.417000       1.00800           0   0.00000       0.00000    
     55144 TIP3     10076    TIP3     H2       HT       0.417000       1.00800           0   0.00000     -0.301140E-02
     55145 TIP3     10077    TIP3     OH2      OT      -0.834000       15.9994           0   0.00000       0.00000    
     55146 TIP3     10077    TIP3     H1       HT       0.417000       1.00800           0   0.00000       0.00000    
     55147 TIP3     10077    TIP3     H2       HT       0.417000       1.00800           0   0.00000     -0.301140E-02
     55148 TIP3     10078    TIP3     OH2      OT      -0.834000       15.9994           0   0.00000       0.00000    
     55149 TIP3     10078    TIP3     H1       HT       0.417000       1.00800           0   0.00000       0.00000    
     55150 TIP3     10078    TIP3     H2       HT       0.417000       1.00800           0   0.00000     -0.301140E-02
     55151 TIP3     10079    TIP3     OH2      OT      -0.834000       15.9994           0   0.00000       0.00000    
     55152 TIP3     10079    TIP3     H1       HT       0.417000       1.00800           0   0.00000       0.00000    
     55153 TIP3     10079    TIP3     H2       HT       0.417000       1.00800           0   0.00000     -0.301140E-02
     55154 TIP3     10080    TIP3     OH2      OT      -0.834000       15.9994           0   0.00000       0.00000    
     55155 TIP3     10080    TIP3     H1       HT       0.417000       1.00800           0   0.00000       0.00000    
     55156 TIP3     10080    TIP3     H2       HT       0.417000       1.00800           0   0.00000     -0.301140E-02
     55157 TIP3     10081    TIP3     OH2      OT      -0.834000       15.9994           0   0.00000       0.00000    
     55158 TIP3     10081    TIP3     H1       HT       0.417000       1.00800           0   0.00000       0.00000    
     55159 TIP3     10081    TIP3     H2       HT       0.417000       1.00800           0   0.00000     -0.301140E-02
     55160 TIP3     10082    TIP3     OH2      OT      -0.834000       15.9994           0   0.00000       0.00000    
     55161 TIP3     10082    TIP3     H1       HT       0.417000       1.00800           0   0.00000       0.00000    
     55162 TIP3     10082    TIP3     H2       HT       0.417000       1.00800           0   0.00000     -0.301140E-02
     55163 TIP3     10083    TIP3     OH2      OT      -0.834000       15.9994           0   0.00000       0.00000    
     55164 TIP3     10083    TIP3     H1       HT       0.417000       1.00800           0   0.00000       0.00000    
     55165 TIP3     10083    TIP3     H2       HT       0.417000       1.00800           0   0.00000     -0.301140E-02
     55166 TIP3     10084    TIP3     OH2      OT      -0.834000       15.9994           0   0.00000       0.00000    
     55167 TIP3     10084    TIP3     H1       HT       0.417000       1.00800           0   0.00000       0.00000    
     55168 TIP3     10084    TIP3     H2       HT       0.417000       1.00800           0   0.00000     -0.301140E-02
     55169 TIP3     10085    TIP3     OH2      OT      -0.834000       15.9994           0   0.00000       0.00000    
     55170 TIP3     10085    TIP3     H1       HT       0.417000       1.00800           0   0.00000       0.00000    
     55171 TIP3     10085    TIP3     H2       HT       0.417000       1.00800           0   0.00000     -0.301140E-02
     55172 TIP3     10086    TIP3     OH2      OT      -0.834000       15.9994           0   0.00000       0.00000    
     55173 TIP3     10086    TIP3     H1       HT       0.417000       1.00800           0   0.00000       0.00000    
     55174 TIP3     10086    TIP3     H2       HT       0.417000       1.00800           0   0.00000     -0.301140E-02
     55175 TIP3     10087    TIP3     OH2      OT      -0.834000       15.9994           0   0.00000       0.00000    
     55176 TIP3     10087    TIP3     H1       HT       0.417000       1.00800           0   0.00000       0.00000    
     55177 TIP3     10087    TIP3     H2       HT       0.417000       1.00800           0   0.00000     -0.301140E-02
     55178 TIP3     10088    TIP3     OH2      OT      -0.834000       15.9994           0   0.00000       0.00000    
     55179 TIP3     10088    TIP3     H1       HT       0.417000       1.00800           0   0.00000       0.00000    
     55180 TIP3     10088    TIP3     H2       HT       0.417000       1.00800           0   0.00000     -0.301140E-02
     55181 TIP3     10089    TIP3     OH2      OT      -0.834000       15.9994           0   0.00000       0.00000    
     55182 TIP3     10089    TIP3     H1       HT       0.417000       1.00800           0   0.00000       0.00000    
     55183 TIP3     10089    TIP3     H2       HT       0.417000       1.00800           0   0.00000     -0.301140E-02
     55184 TIP3     10090    TIP3     OH2      OT      -0.834000       15.9994           0   0.00000       0.00000    
     55185 TIP3     10090    TIP3     H1       HT       0.417000       1.00800           0   0.00000       0.00000    
     55186 TIP3     10090    TIP3     H2       HT       0.417000       1.00800           0   0.00000     -0.301140E-02
     55187 TIP3     10091    TIP3     OH2      OT      -0.834000       15.9994           0   0.00000       0.00000    
     55188 TIP3     10091    TIP3     H1       HT       0.417000       1.00800           0   0.00000       0.00000    
     55189 TIP3     10091    TIP3     H2       HT       0.417000       1.00800           0   0.00000     -0.301140E-02
     55190 TIP3     10092    TIP3     OH2      OT      -0.834000       15.9994           0   0.00000       0.00000    
     55191 TIP3     10092    TIP3     H1       HT       0.417000       1.00800           0   0.00000       0.00000    
     55192 TIP3     10092    TIP3     H2       HT       0.417000       1.00800           0   0.00000     -0.301140E-02
     55193 TIP3     10093    TIP3     OH2      OT      -0.834000       15.9994           0   0.00000       0.00000    
     55194 TIP3     10093    TIP3     H1       HT       0.417000       1.00800           0   0.00000       0.00000    
     55195 TIP3     10093    TIP3     H2       HT       0.417000       1.00800           0   0.00000     -0.301140E-02
     55196 TIP3     10094    TIP3     OH2      OT      -0.834000       15.9994           0   0.00000       0.00000    
     55197 TIP3     10094    TIP3     H1       HT       0.417000       1.00800           0   0.00000       0.00000    
     55198 TIP3     10094    TIP3     H2       HT       0.417000       1.00800           0   0.00000     -0.301140E-02
     55199 TIP3     10095    TIP3     OH2      OT      -0.834000       15.9994           0   0.00000       0.00000    
     55200 TIP3     10095    TIP3     H1       HT       0.417000       1.00800           0   0.00000       0.00000    
     55201 TIP3     10095    TIP3     H2       HT       0.417000       1.00800           0   0.00000     -0.301140E-02
     55202 TIP3     10096    TIP3     OH2      OT      -0.834000       15.9994           0   0.00000       0.00000    
     55203 TIP3     10096    TIP3     H1       HT       0.417000       1.00800           0   0.00000       0.00000    
     55204 TIP3     10096    TIP3     H2       HT       0.417000       1.00800           0   0.00000     -0.301140E-02
     55205 TIP3     10097    TIP3     OH2      OT      -0.834000       15.9994           0   0.00000       0.00000    
     55206 TIP3     10097    TIP3     H1       HT       0.417000       1.00800           0   0.00000       0.00000    
     55207 TIP3     10097    TIP3     H2       HT       0.417000       1.00800           0   0.00000     -0.301140E-02
     55208 TIP3     10098    TIP3     OH2      OT      -0.834000       15.9994           0   0.00000       0.00000    
     55209 TIP3     10098    TIP3     H1       HT       0.417000       1.00800           0   0.00000       0.00000    
     55210 TIP3     10098    TIP3     H2       HT       0.417000       1.00800           0   0.00000     -0.301140E-02
     55211 TIP3     10099    TIP3     OH2      OT      -0.834000       15.9994           0   0.00000       0.00000    
     55212 TIP3     10099    TIP3     H1       HT       0.417000       1.00800           0   0.00000       0.00000    
     55213 TIP3     10099    TIP3     H2       HT       0.417000       1.00800           0   0.00000     -0.301140E-02
     55214 TIP3     10100    TIP3     OH2      OT      -0.834000       15.9994           0   0.00000       0.00000    
     55215 TIP3     10100    TIP3     H1       HT       0.417000       1.00800           0   0.00000       0.00000    
     55216 TIP3     10100    TIP3     H2       HT       0.417000       1.00800           0   0.00000     -0.301140E-02
     55217 TIP3     10101    TIP3     OH2      OT      -0.834000       15.9994           0   0.00000       0.00000    
     55218 TIP3     10101    TIP3     H1       HT       0.417000       1.00800           0   0.00000       0.00000    
     55219 TIP3     10101    TIP3     H2       HT       0.417000       1.00800           0   0.00000     -0.301140E-02
     55220 TIP3     10102    TIP3     OH2      OT      -0.834000       15.9994           0   0.00000       0.00000    
     55221 TIP3     10102    TIP3     H1       HT       0.417000       1.00800           0   0.00000       0.00000    
     55222 TIP3     10102    TIP3     H2       HT       0.417000       1.00800           0   0.00000     -0.301140E-02
     55223 TIP3     10103    TIP3     OH2      OT      -0.834000       15.9994           0   0.00000       0.00000    
     55224 TIP3     10103    TIP3     H1       HT       0.417000       1.00800           0   0.00000       0.00000    
     55225 TIP3     10103    TIP3     H2       HT       0.417000       1.00800           0   0.00000     -0.301140E-02
     55226 TIP3     10104    TIP3     OH2      OT      -0.834000       15.9994           0   0.00000       0.00000    
     55227 TIP3     10104    TIP3     H1       HT       0.417000       1.00800           0   0.00000       0.00000    
     55228 TIP3     10104    TIP3     H2       HT       0.417000       1.00800           0   0.00000     -0.301140E-02
     55229 TIP3     10105    TIP3     OH2      OT      -0.834000       15.9994           0   0.00000       0.00000    
     55230 TIP3     10105    TIP3     H1       HT       0.417000       1.00800           0   0.00000       0.00000    
     55231 TIP3     10105    TIP3     H2       HT       0.417000       1.00800           0   0.00000     -0.301140E-02
     55232 TIP3     10106    TIP3     OH2      OT      -0.834000       15.9994           0   0.00000       0.00000    
     55233 TIP3     10106    TIP3     H1       HT       0.417000       1.00800           0   0.00000       0.00000    
     55234 TIP3     10106    TIP3     H2       HT       0.417000       1.00800           0   0.00000     -0.301140E-02
     55235 TIP3     10107    TIP3     OH2      OT      -0.834000       15.9994           0   0.00000       0.00000    
     55236 TIP3     10107    TIP3     H1       HT       0.417000       1.00800           0   0.00000       0.00000    
     55237 TIP3     10107    TIP3     H2       HT       0.417000       1.00800           0   0.00000     -0.301140E-02
     55238 TIP3     10108    TIP3     OH2      OT      -0.834000       15.9994           0   0.00000       0.00000    
     55239 TIP3     10108    TIP3     H1       HT       0.417000       1.00800           0   0.00000       0.00000    
     55240 TIP3     10108    TIP3     H2       HT       0.417000       1.00800           0   0.00000     -0.301140E-02
     55241 TIP3     10109    TIP3     OH2      OT      -0.834000       15.9994           0   0.00000       0.00000    
     55242 TIP3     10109    TIP3     H1       HT       0.417000       1.00800           0   0.00000       0.00000    
     55243 TIP3     10109    TIP3     H2       HT       0.417000       1.00800           0   0.00000     -0.301140E-02
     55244 TIP3     10110    TIP3     OH2      OT      -0.834000       15.9994           0   0.00000       0.00000    
     55245 TIP3     10110    TIP3     H1       HT       0.417000       1.00800           0   0.00000       0.00000    
     55246 TIP3     10110    TIP3     H2       HT       0.417000       1.00800           0   0.00000     -0.301140E-02
     55247 TIP3     10111    TIP3     OH2      OT      -0.834000       15.9994           0   0.00000       0.00000    
     55248 TIP3     10111    TIP3     H1       HT       0.417000       1.00800           0   0.00000       0.00000    
     55249 TIP3     10111    TIP3     H2       HT       0.417000       1.00800           0   0.00000     -0.301140E-02
     55250 TIP3     10112    TIP3     OH2      OT      -0.834000       15.9994           0   0.00000       0.00000    
     55251 TIP3     10112    TIP3     H1       HT       0.417000       1.00800           0   0.00000       0.00000    
     55252 TIP3     10112    TIP3     H2       HT       0.417000       1.00800           0   0.00000     -0.301140E-02
     55253 TIP3     10113    TIP3     OH2      OT      -0.834000       15.9994           0   0.00000       0.00000    
     55254 TIP3     10113    TIP3     H1       HT       0.417000       1.00800           0   0.00000       0.00000    
     55255 TIP3     10113    TIP3     H2       HT       0.417000       1.00800           0   0.00000     -0.301140E-02
     55256 TIP3     10114    TIP3     OH2      OT      -0.834000       15.9994           0   0.00000       0.00000    
     55257 TIP3     10114    TIP3     H1       HT       0.417000       1.00800           0   0.00000       0.00000    
     55258 TIP3     10114    TIP3     H2       HT       0.417000       1.00800           0   0.00000     -0.301140E-02
     55259 TIP3     10115    TIP3     OH2      OT      -0.834000       15.9994           0   0.00000       0.00000    
     55260 TIP3     10115    TIP3     H1       HT       0.417000       1.00800           0   0.00000       0.00000    
     55261 TIP3     10115    TIP3     H2       HT       0.417000       1.00800           0   0.00000     -0.301140E-02
     55262 TIP3     10116    TIP3     OH2      OT      -0.834000       15.9994           0   0.00000       0.00000    
     55263 TIP3     10116    TIP3     H1       HT       0.417000       1.00800           0   0.00000       0.00000    
     55264 TIP3     10116    TIP3     H2       HT       0.417000       1.00800           0   0.00000     -0.301140E-02
     55265 TIP3     10117    TIP3     OH2      OT      -0.834000       15.9994           0   0.00000       0.00000    
     55266 TIP3     10117    TIP3     H1       HT       0.417000       1.00800           0   0.00000       0.00000    
     55267 TIP3     10117    TIP3     H2       HT       0.417000       1.00800           0   0.00000     -0.301140E-02
     55268 TIP3     10118    TIP3     OH2      OT      -0.834000       15.9994           0   0.00000       0.00000    
     55269 TIP3     10118    TIP3     H1       HT       0.417000       1.00800           0   0.00000       0.00000    
     55270 TIP3     10118    TIP3     H2       HT       0.417000       1.00800           0   0.00000     -0.301140E-02
     55271 TIP3     10119    TIP3     OH2      OT      -0.834000       15.9994           0   0.00000       0.00000    
     55272 TIP3     10119    TIP3     H1       HT       0.417000       1.00800           0   0.00000       0.00000    
     55273 TIP3     10119    TIP3     H2       HT       0.417000       1.00800           0   0.00000     -0.301140E-02
     55274 TIP3     10120    TIP3     OH2      OT      -0.834000       15.9994           0   0.00000       0.00000    
     55275 TIP3     10120    TIP3     H1       HT       0.417000       1.00800           0   0.00000       0.00000    
     55276 TIP3     10120    TIP3     H2       HT       0.417000       1.00800           0   0.00000     -0.301140E-02
     55277 TIP3     10121    TIP3     OH2      OT      -0.834000       15.9994           0   0.00000       0.00000    
     55278 TIP3     10121    TIP3     H1       HT       0.417000       1.00800           0   0.00000       0.00000    
     55279 TIP3     10121    TIP3     H2       HT       0.417000       1.00800           0   0.00000     -0.301140E-02
     55280 TIP3     10122    TIP3     OH2      OT      -0.834000       15.9994           0   0.00000       0.00000    
     55281 TIP3     10122    TIP3     H1       HT       0.417000       1.00800           0   0.00000       0.00000    
     55282 TIP3     10122    TIP3     H2       HT       0.417000       1.00800           0   0.00000     -0.301140E-02
     55283 TIP3     10123    TIP3     OH2      OT      -0.834000       15.9994           0   0.00000       0.00000    
     55284 TIP3     10123    TIP3     H1       HT       0.417000       1.00800           0   0.00000       0.00000    
     55285 TIP3     10123    TIP3     H2       HT       0.417000       1.00800           0   0.00000     -0.301140E-02
     55286 TIP3     10124    TIP3     OH2      OT      -0.834000       15.9994           0   0.00000       0.00000    
     55287 TIP3     10124    TIP3     H1       HT       0.417000       1.00800           0   0.00000       0.00000    
     55288 TIP3     10124    TIP3     H2       HT       0.417000       1.00800           0   0.00000     -0.301140E-02
     55289 TIP3     10125    TIP3     OH2      OT      -0.834000       15.9994           0   0.00000       0.00000    
     55290 TIP3     10125    TIP3     H1       HT       0.417000       1.00800           0   0.00000       0.00000    
     55291 TIP3     10125    TIP3     H2       HT       0.417000       1.00800           0   0.00000     -0.301140E-02
     55292 TIP3     10126    TIP3     OH2      OT      -0.834000       15.9994           0   0.00000       0.00000    
     55293 TIP3     10126    TIP3     H1       HT       0.417000       1.00800           0   0.00000       0.00000    
     55294 TIP3     10126    TIP3     H2       HT       0.417000       1.00800           0   0.00000     -0.301140E-02
     55295 TIP3     10127    TIP3     OH2      OT      -0.834000       15.9994           0   0.00000       0.00000    
     55296 TIP3     10127    TIP3     H1       HT       0.417000       1.00800           0   0.00000       0.00000    
     55297 TIP3     10127    TIP3     H2       HT       0.417000       1.00800           0   0.00000     -0.301140E-02
     55298 TIP3     10128    TIP3     OH2      OT      -0.834000       15.9994           0   0.00000       0.00000    
     55299 TIP3     10128    TIP3     H1       HT       0.417000       1.00800           0   0.00000       0.00000    
     55300 TIP3     10128    TIP3     H2       HT       0.417000       1.00800           0   0.00000     -0.301140E-02
     55301 TIP3     10129    TIP3     OH2      OT      -0.834000       15.9994           0   0.00000       0.00000    
     55302 TIP3     10129    TIP3     H1       HT       0.417000       1.00800           0   0.00000       0.00000    
     55303 TIP3     10129    TIP3     H2       HT       0.417000       1.00800           0   0.00000     -0.301140E-02
     55304 TIP3     10130    TIP3     OH2      OT      -0.834000       15.9994           0   0.00000       0.00000    
     55305 TIP3     10130    TIP3     H1       HT       0.417000       1.00800           0   0.00000       0.00000    
     55306 TIP3     10130    TIP3     H2       HT       0.417000       1.00800           0   0.00000     -0.301140E-02
     55307 TIP3     10131    TIP3     OH2      OT      -0.834000       15.9994           0   0.00000       0.00000    
     55308 TIP3     10131    TIP3     H1       HT       0.417000       1.00800           0   0.00000       0.00000    
     55309 TIP3     10131    TIP3     H2       HT       0.417000       1.00800           0   0.00000     -0.301140E-02
     55310 TIP3     10132    TIP3     OH2      OT      -0.834000       15.9994           0   0.00000       0.00000    
     55311 TIP3     10132    TIP3     H1       HT       0.417000       1.00800           0   0.00000       0.00000    
     55312 TIP3     10132    TIP3     H2       HT       0.417000       1.00800           0   0.00000     -0.301140E-02
     55313 TIP3     10133    TIP3     OH2      OT      -0.834000       15.9994           0   0.00000       0.00000    
     55314 TIP3     10133    TIP3     H1       HT       0.417000       1.00800           0   0.00000       0.00000    
     55315 TIP3     10133    TIP3     H2       HT       0.417000       1.00800           0   0.00000     -0.301140E-02
     55316 TIP3     10134    TIP3     OH2      OT      -0.834000       15.9994           0   0.00000       0.00000    
     55317 TIP3     10134    TIP3     H1       HT       0.417000       1.00800           0   0.00000       0.00000    
     55318 TIP3     10134    TIP3     H2       HT       0.417000       1.00800           0   0.00000     -0.301140E-02
     55319 TIP3     10135    TIP3     OH2      OT      -0.834000       15.9994           0   0.00000       0.00000    
     55320 TIP3     10135    TIP3     H1       HT       0.417000       1.00800           0   0.00000       0.00000    
     55321 TIP3     10135    TIP3     H2       HT       0.417000       1.00800           0   0.00000     -0.301140E-02
     55322 TIP3     10136    TIP3     OH2      OT      -0.834000       15.9994           0   0.00000       0.00000    
     55323 TIP3     10136    TIP3     H1       HT       0.417000       1.00800           0   0.00000       0.00000    
     55324 TIP3     10136    TIP3     H2       HT       0.417000       1.00800           0   0.00000     -0.301140E-02
     55325 TIP3     10137    TIP3     OH2      OT      -0.834000       15.9994           0   0.00000       0.00000    
     55326 TIP3     10137    TIP3     H1       HT       0.417000       1.00800           0   0.00000       0.00000    
     55327 TIP3     10137    TIP3     H2       HT       0.417000       1.00800           0   0.00000     -0.301140E-02
     55328 TIP3     10138    TIP3     OH2      OT      -0.834000       15.9994           0   0.00000       0.00000    
     55329 TIP3     10138    TIP3     H1       HT       0.417000       1.00800           0   0.00000       0.00000    
     55330 TIP3     10138    TIP3     H2       HT       0.417000       1.00800           0   0.00000     -0.301140E-02
     55331 TIP3     10139    TIP3     OH2      OT      -0.834000       15.9994           0   0.00000       0.00000    
     55332 TIP3     10139    TIP3     H1       HT       0.417000       1.00800           0   0.00000       0.00000    
     55333 TIP3     10139    TIP3     H2       HT       0.417000       1.00800           0   0.00000     -0.301140E-02
     55334 TIP3     10140    TIP3     OH2      OT      -0.834000       15.9994           0   0.00000       0.00000    
     55335 TIP3     10140    TIP3     H1       HT       0.417000       1.00800           0   0.00000       0.00000    
     55336 TIP3     10140    TIP3     H2       HT       0.417000       1.00800           0   0.00000     -0.301140E-02
     55337 TIP3     10141    TIP3     OH2      OT      -0.834000       15.9994           0   0.00000       0.00000    
     55338 TIP3     10141    TIP3     H1       HT       0.417000       1.00800           0   0.00000       0.00000    
     55339 TIP3     10141    TIP3     H2       HT       0.417000       1.00800           0   0.00000     -0.301140E-02
     55340 TIP3     10142    TIP3     OH2      OT      -0.834000       15.9994           0   0.00000       0.00000    
     55341 TIP3     10142    TIP3     H1       HT       0.417000       1.00800           0   0.00000       0.00000    
     55342 TIP3     10142    TIP3     H2       HT       0.417000       1.00800           0   0.00000     -0.301140E-02
     55343 TIP3     10143    TIP3     OH2      OT      -0.834000       15.9994           0   0.00000       0.00000    
     55344 TIP3     10143    TIP3     H1       HT       0.417000       1.00800           0   0.00000       0.00000    
     55345 TIP3     10143    TIP3     H2       HT       0.417000       1.00800           0   0.00000     -0.301140E-02
     55346 TIP3     10144    TIP3     OH2      OT      -0.834000       15.9994           0   0.00000       0.00000    
     55347 TIP3     10144    TIP3     H1       HT       0.417000       1.00800           0   0.00000       0.00000    
     55348 TIP3     10144    TIP3     H2       HT       0.417000       1.00800           0   0.00000     -0.301140E-02
     55349 TIP3     10145    TIP3     OH2      OT      -0.834000       15.9994           0   0.00000       0.00000    
     55350 TIP3     10145    TIP3     H1       HT       0.417000       1.00800           0   0.00000       0.00000    
     55351 TIP3     10145    TIP3     H2       HT       0.417000       1.00800           0   0.00000     -0.301140E-02
     55352 TIP3     10146    TIP3     OH2      OT      -0.834000       15.9994           0   0.00000       0.00000    
     55353 TIP3     10146    TIP3     H1       HT       0.417000       1.00800           0   0.00000       0.00000    
     55354 TIP3     10146    TIP3     H2       HT       0.417000       1.00800           0   0.00000     -0.301140E-02
     55355 TIP3     10147    TIP3     OH2      OT      -0.834000       15.9994           0   0.00000       0.00000    
     55356 TIP3     10147    TIP3     H1       HT       0.417000       1.00800           0   0.00000       0.00000    
     55357 TIP3     10147    TIP3     H2       HT       0.417000       1.00800           0   0.00000     -0.301140E-02
     55358 TIP3     10148    TIP3     OH2      OT      -0.834000       15.9994           0   0.00000       0.00000    
     55359 TIP3     10148    TIP3     H1       HT       0.417000       1.00800           0   0.00000       0.00000    
     55360 TIP3     10148    TIP3     H2       HT       0.417000       1.00800           0   0.00000     -0.301140E-02
     55361 TIP3     10149    TIP3     OH2      OT      -0.834000       15.9994           0   0.00000       0.00000    
     55362 TIP3     10149    TIP3     H1       HT       0.417000       1.00800           0   0.00000       0.00000    
     55363 TIP3     10149    TIP3     H2       HT       0.417000       1.00800           0   0.00000     -0.301140E-02
     55364 TIP3     10150    TIP3     OH2      OT      -0.834000       15.9994           0   0.00000       0.00000    
     55365 TIP3     10150    TIP3     H1       HT       0.417000       1.00800           0   0.00000       0.00000    
     55366 TIP3     10150    TIP3     H2       HT       0.417000       1.00800           0   0.00000     -0.301140E-02
     55367 TIP3     10151    TIP3     OH2      OT      -0.834000       15.9994           0   0.00000       0.00000    
     55368 TIP3     10151    TIP3     H1       HT       0.417000       1.00800           0   0.00000       0.00000    
     55369 TIP3     10151    TIP3     H2       HT       0.417000       1.00800           0   0.00000     -0.301140E-02
     55370 TIP3     10152    TIP3     OH2      OT      -0.834000       15.9994           0   0.00000       0.00000    
     55371 TIP3     10152    TIP3     H1       HT       0.417000       1.00800           0   0.00000       0.00000    
     55372 TIP3     10152    TIP3     H2       HT       0.417000       1.00800           0   0.00000     -0.301140E-02
     55373 TIP3     10153    TIP3     OH2      OT      -0.834000       15.9994           0   0.00000       0.00000    
     55374 TIP3     10153    TIP3     H1       HT       0.417000       1.00800           0   0.00000       0.00000    
     55375 TIP3     10153    TIP3     H2       HT       0.417000       1.00800           0   0.00000     -0.301140E-02
     55376 TIP3     10154    TIP3     OH2      OT      -0.834000       15.9994           0   0.00000       0.00000    
     55377 TIP3     10154    TIP3     H1       HT       0.417000       1.00800           0   0.00000       0.00000    
     55378 TIP3     10154    TIP3     H2       HT       0.417000       1.00800           0   0.00000     -0.301140E-02
     55379 TIP3     10155    TIP3     OH2      OT      -0.834000       15.9994           0   0.00000       0.00000    
     55380 TIP3     10155    TIP3     H1       HT       0.417000       1.00800           0   0.00000       0.00000    
     55381 TIP3     10155    TIP3     H2       HT       0.417000       1.00800           0   0.00000     -0.301140E-02
     55382 TIP3     10156    TIP3     OH2      OT      -0.834000       15.9994           0   0.00000       0.00000    
     55383 TIP3     10156    TIP3     H1       HT       0.417000       1.00800           0   0.00000       0.00000    
     55384 TIP3     10156    TIP3     H2       HT       0.417000       1.00800           0   0.00000     -0.301140E-02
     55385 TIP3     10157    TIP3     OH2      OT      -0.834000       15.9994           0   0.00000       0.00000    
     55386 TIP3     10157    TIP3     H1       HT       0.417000       1.00800           0   0.00000       0.00000    
     55387 TIP3     10157    TIP3     H2       HT       0.417000       1.00800           0   0.00000     -0.301140E-02
     55388 TIP3     10158    TIP3     OH2      OT      -0.834000       15.9994           0   0.00000       0.00000    
     55389 TIP3     10158    TIP3     H1       HT       0.417000       1.00800           0   0.00000       0.00000    
     55390 TIP3     10158    TIP3     H2       HT       0.417000       1.00800           0   0.00000     -0.301140E-02
     55391 TIP3     10159    TIP3     OH2      OT      -0.834000       15.9994           0   0.00000       0.00000    
     55392 TIP3     10159    TIP3     H1       HT       0.417000       1.00800           0   0.00000       0.00000    
     55393 TIP3     10159    TIP3     H2       HT       0.417000       1.00800           0   0.00000     -0.301140E-02
     55394 TIP3     10160    TIP3     OH2      OT      -0.834000       15.9994           0   0.00000       0.00000    
     55395 TIP3     10160    TIP3     H1       HT       0.417000       1.00800           0   0.00000       0.00000    
     55396 TIP3     10160    TIP3     H2       HT       0.417000       1.00800           0   0.00000     -0.301140E-02
     55397 TIP3     10161    TIP3     OH2      OT      -0.834000       15.9994           0   0.00000       0.00000    
     55398 TIP3     10161    TIP3     H1       HT       0.417000       1.00800           0   0.00000       0.00000    
     55399 TIP3     10161    TIP3     H2       HT       0.417000       1.00800           0   0.00000     -0.301140E-02
     55400 TIP3     10162    TIP3     OH2      OT      -0.834000       15.9994           0   0.00000       0.00000    
     55401 TIP3     10162    TIP3     H1       HT       0.417000       1.00800           0   0.00000       0.00000    
     55402 TIP3     10162    TIP3     H2       HT       0.417000       1.00800           0   0.00000     -0.301140E-02
     55403 TIP3     10163    TIP3     OH2      OT      -0.834000       15.9994           0   0.00000       0.00000    
     55404 TIP3     10163    TIP3     H1       HT       0.417000       1.00800           0   0.00000       0.00000    
     55405 TIP3     10163    TIP3     H2       HT       0.417000       1.00800           0   0.00000     -0.301140E-02
     55406 TIP3     10164    TIP3     OH2      OT      -0.834000       15.9994           0   0.00000       0.00000    
     55407 TIP3     10164    TIP3     H1       HT       0.417000       1.00800           0   0.00000       0.00000    
     55408 TIP3     10164    TIP3     H2       HT       0.417000       1.00800           0   0.00000     -0.301140E-02
     55409 TIP3     10165    TIP3     OH2      OT      -0.834000       15.9994           0   0.00000       0.00000    
     55410 TIP3     10165    TIP3     H1       HT       0.417000       1.00800           0   0.00000       0.00000    
     55411 TIP3     10165    TIP3     H2       HT       0.417000       1.00800           0   0.00000     -0.301140E-02
     55412 TIP3     10166    TIP3     OH2      OT      -0.834000       15.9994           0   0.00000       0.00000    
     55413 TIP3     10166    TIP3     H1       HT       0.417000       1.00800           0   0.00000       0.00000    
     55414 TIP3     10166    TIP3     H2       HT       0.417000       1.00800           0   0.00000     -0.301140E-02
     55415 TIP3     10167    TIP3     OH2      OT      -0.834000       15.9994           0   0.00000       0.00000    
     55416 TIP3     10167    TIP3     H1       HT       0.417000       1.00800           0   0.00000       0.00000    
     55417 TIP3     10167    TIP3     H2       HT       0.417000       1.00800           0   0.00000     -0.301140E-02
     55418 TIP3     10168    TIP3     OH2      OT      -0.834000       15.9994           0   0.00000       0.00000    
     55419 TIP3     10168    TIP3     H1       HT       0.417000       1.00800           0   0.00000       0.00000    
     55420 TIP3     10168    TIP3     H2       HT       0.417000       1.00800           0   0.00000     -0.301140E-02
     55421 TIP3     10169    TIP3     OH2      OT      -0.834000       15.9994           0   0.00000       0.00000    
     55422 TIP3     10169    TIP3     H1       HT       0.417000       1.00800           0   0.00000       0.00000    
     55423 TIP3     10169    TIP3     H2       HT       0.417000       1.00800           0   0.00000     -0.301140E-02
     55424 TIP3     10170    TIP3     OH2      OT      -0.834000       15.9994           0   0.00000       0.00000    
     55425 TIP3     10170    TIP3     H1       HT       0.417000       1.00800           0   0.00000       0.00000    
     55426 TIP3     10170    TIP3     H2       HT       0.417000       1.00800           0   0.00000     -0.301140E-02
     55427 TIP3     10171    TIP3     OH2      OT      -0.834000       15.9994           0   0.00000       0.00000    
     55428 TIP3     10171    TIP3     H1       HT       0.417000       1.00800           0   0.00000       0.00000    
     55429 TIP3     10171    TIP3     H2       HT       0.417000       1.00800           0   0.00000     -0.301140E-02
     55430 TIP3     10172    TIP3     OH2      OT      -0.834000       15.9994           0   0.00000       0.00000    
     55431 TIP3     10172    TIP3     H1       HT       0.417000       1.00800           0   0.00000       0.00000    
     55432 TIP3     10172    TIP3     H2       HT       0.417000       1.00800           0   0.00000     -0.301140E-02
     55433 TIP3     10173    TIP3     OH2      OT      -0.834000       15.9994           0   0.00000       0.00000    
     55434 TIP3     10173    TIP3     H1       HT       0.417000       1.00800           0   0.00000       0.00000    
     55435 TIP3     10173    TIP3     H2       HT       0.417000       1.00800           0   0.00000     -0.301140E-02
     55436 TIP3     10174    TIP3     OH2      OT      -0.834000       15.9994           0   0.00000       0.00000    
     55437 TIP3     10174    TIP3     H1       HT       0.417000       1.00800           0   0.00000       0.00000    
     55438 TIP3     10174    TIP3     H2       HT       0.417000       1.00800           0   0.00000     -0.301140E-02
     55439 TIP3     10175    TIP3     OH2      OT      -0.834000       15.9994           0   0.00000       0.00000    
     55440 TIP3     10175    TIP3     H1       HT       0.417000       1.00800           0   0.00000       0.00000    
     55441 TIP3     10175    TIP3     H2       HT       0.417000       1.00800           0   0.00000     -0.301140E-02
     55442 TIP3     10176    TIP3     OH2      OT      -0.834000       15.9994           0   0.00000       0.00000    
     55443 TIP3     10176    TIP3     H1       HT       0.417000       1.00800           0   0.00000       0.00000    
     55444 TIP3     10176    TIP3     H2       HT       0.417000       1.00800           0   0.00000     -0.301140E-02
     55445 TIP3     10177    TIP3     OH2      OT      -0.834000       15.9994           0   0.00000       0.00000    
     55446 TIP3     10177    TIP3     H1       HT       0.417000       1.00800           0   0.00000       0.00000    
     55447 TIP3     10177    TIP3     H2       HT       0.417000       1.00800           0   0.00000     -0.301140E-02
     55448 TIP3     10178    TIP3     OH2      OT      -0.834000       15.9994           0   0.00000       0.00000    
     55449 TIP3     10178    TIP3     H1       HT       0.417000       1.00800           0   0.00000       0.00000    
     55450 TIP3     10178    TIP3     H2       HT       0.417000       1.00800           0   0.00000     -0.301140E-02
     55451 TIP3     10179    TIP3     OH2      OT      -0.834000       15.9994           0   0.00000       0.00000    
     55452 TIP3     10179    TIP3     H1       HT       0.417000       1.00800           0   0.00000       0.00000    
     55453 TIP3     10179    TIP3     H2       HT       0.417000       1.00800           0   0.00000     -0.301140E-02
     55454 TIP3     10180    TIP3     OH2      OT      -0.834000       15.9994           0   0.00000       0.00000    
     55455 TIP3     10180    TIP3     H1       HT       0.417000       1.00800           0   0.00000       0.00000    
     55456 TIP3     10180    TIP3     H2       HT       0.417000       1.00800           0   0.00000     -0.301140E-02
     55457 TIP3     10181    TIP3     OH2      OT      -0.834000       15.9994           0   0.00000       0.00000    
     55458 TIP3     10181    TIP3     H1       HT       0.417000       1.00800           0   0.00000       0.00000    
     55459 TIP3     10181    TIP3     H2       HT       0.417000       1.00800           0   0.00000     -0.301140E-02
     55460 TIP3     10182    TIP3     OH2      OT      -0.834000       15.9994           0   0.00000       0.00000    
     55461 TIP3     10182    TIP3     H1       HT       0.417000       1.00800           0   0.00000       0.00000    
     55462 TIP3     10182    TIP3     H2       HT       0.417000       1.00800           0   0.00000     -0.301140E-02
     55463 TIP3     10183    TIP3     OH2      OT      -0.834000       15.9994           0   0.00000       0.00000    
     55464 TIP3     10183    TIP3     H1       HT       0.417000       1.00800           0   0.00000       0.00000    
     55465 TIP3     10183    TIP3     H2       HT       0.417000       1.00800           0   0.00000     -0.301140E-02
     55466 TIP3     10184    TIP3     OH2      OT      -0.834000       15.9994           0   0.00000       0.00000    
     55467 TIP3     10184    TIP3     H1       HT       0.417000       1.00800           0   0.00000       0.00000    
     55468 TIP3     10184    TIP3     H2       HT       0.417000       1.00800           0   0.00000     -0.301140E-02
     55469 TIP3     10185    TIP3     OH2      OT      -0.834000       15.9994           0   0.00000       0.00000    
     55470 TIP3     10185    TIP3     H1       HT       0.417000       1.00800           0   0.00000       0.00000    
     55471 TIP3     10185    TIP3     H2       HT       0.417000       1.00800           0   0.00000     -0.301140E-02
     55472 TIP3     10186    TIP3     OH2      OT      -0.834000       15.9994           0   0.00000       0.00000    
     55473 TIP3     10186    TIP3     H1       HT       0.417000       1.00800           0   0.00000       0.00000    
     55474 TIP3     10186    TIP3     H2       HT       0.417000       1.00800           0   0.00000     -0.301140E-02
     55475 TIP3     10187    TIP3     OH2      OT      -0.834000       15.9994           0   0.00000       0.00000    
     55476 TIP3     10187    TIP3     H1       HT       0.417000       1.00800           0   0.00000       0.00000    
     55477 TIP3     10187    TIP3     H2       HT       0.417000       1.00800           0   0.00000     -0.301140E-02
     55478 TIP3     10188    TIP3     OH2      OT      -0.834000       15.9994           0   0.00000       0.00000    
     55479 TIP3     10188    TIP3     H1       HT       0.417000       1.00800           0   0.00000       0.00000    
     55480 TIP3     10188    TIP3     H2       HT       0.417000       1.00800           0   0.00000     -0.301140E-02
     55481 TIP3     10189    TIP3     OH2      OT      -0.834000       15.9994           0   0.00000       0.00000    
     55482 TIP3     10189    TIP3     H1       HT       0.417000       1.00800           0   0.00000       0.00000    
     55483 TIP3     10189    TIP3     H2       HT       0.417000       1.00800           0   0.00000     -0.301140E-02
     55484 TIP3     10190    TIP3     OH2      OT      -0.834000       15.9994           0   0.00000       0.00000    
     55485 TIP3     10190    TIP3     H1       HT       0.417000       1.00800           0   0.00000       0.00000    
     55486 TIP3     10190    TIP3     H2       HT       0.417000       1.00800           0   0.00000     -0.301140E-02
     55487 TIP3     10191    TIP3     OH2      OT      -0.834000       15.9994           0   0.00000       0.00000    
     55488 TIP3     10191    TIP3     H1       HT       0.417000       1.00800           0   0.00000       0.00000    
     55489 TIP3     10191    TIP3     H2       HT       0.417000       1.00800           0   0.00000     -0.301140E-02
     55490 TIP3     10192    TIP3     OH2      OT      -0.834000       15.9994           0   0.00000       0.00000    
     55491 TIP3     10192    TIP3     H1       HT       0.417000       1.00800           0   0.00000       0.00000    
     55492 TIP3     10192    TIP3     H2       HT       0.417000       1.00800           0   0.00000     -0.301140E-02
     55493 TIP3     10193    TIP3     OH2      OT      -0.834000       15.9994           0   0.00000       0.00000    
     55494 TIP3     10193    TIP3     H1       HT       0.417000       1.00800           0   0.00000       0.00000    
     55495 TIP3     10193    TIP3     H2       HT       0.417000       1.00800           0   0.00000     -0.301140E-02
     55496 TIP3     10194    TIP3     OH2      OT      -0.834000       15.9994           0   0.00000       0.00000    
     55497 TIP3     10194    TIP3     H1       HT       0.417000       1.00800           0   0.00000       0.00000    
     55498 TIP3     10194    TIP3     H2       HT       0.417000       1.00800           0   0.00000     -0.301140E-02
     55499 TIP3     10195    TIP3     OH2      OT      -0.834000       15.9994           0   0.00000       0.00000    
     55500 TIP3     10195    TIP3     H1       HT       0.417000       1.00800           0   0.00000       0.00000    
     55501 TIP3     10195    TIP3     H2       HT       0.417000       1.00800           0   0.00000     -0.301140E-02
     55502 TIP3     10196    TIP3     OH2      OT      -0.834000       15.9994           0   0.00000       0.00000    
     55503 TIP3     10196    TIP3     H1       HT       0.417000       1.00800           0   0.00000       0.00000    
     55504 TIP3     10196    TIP3     H2       HT       0.417000       1.00800           0   0.00000     -0.301140E-02
     55505 TIP3     10197    TIP3     OH2      OT      -0.834000       15.9994           0   0.00000       0.00000    
     55506 TIP3     10197    TIP3     H1       HT       0.417000       1.00800           0   0.00000       0.00000    
     55507 TIP3     10197    TIP3     H2       HT       0.417000       1.00800           0   0.00000     -0.301140E-02
     55508 TIP3     10198    TIP3     OH2      OT      -0.834000       15.9994           0   0.00000       0.00000    
     55509 TIP3     10198    TIP3     H1       HT       0.417000       1.00800           0   0.00000       0.00000    
     55510 TIP3     10198    TIP3     H2       HT       0.417000       1.00800           0   0.00000     -0.301140E-02
     55511 TIP3     10199    TIP3     OH2      OT      -0.834000       15.9994           0   0.00000       0.00000    
     55512 TIP3     10199    TIP3     H1       HT       0.417000       1.00800           0   0.00000       0.00000    
     55513 TIP3     10199    TIP3     H2       HT       0.417000       1.00800           0   0.00000     -0.301140E-02
     55514 TIP3     10200    TIP3     OH2      OT      -0.834000       15.9994           0   0.00000       0.00000    
     55515 TIP3     10200    TIP3     H1       HT       0.417000       1.00800           0   0.00000       0.00000    
     55516 TIP3     10200    TIP3     H2       HT       0.417000       1.00800           0   0.00000     -0.301140E-02
     55517 TIP3     10201    TIP3     OH2      OT      -0.834000       15.9994           0   0.00000       0.00000    
     55518 TIP3     10201    TIP3     H1       HT       0.417000       1.00800           0   0.00000       0.00000    
     55519 TIP3     10201    TIP3     H2       HT       0.417000       1.00800           0   0.00000     -0.301140E-02
     55520 TIP3     10202    TIP3     OH2      OT      -0.834000       15.9994           0   0.00000       0.00000    
     55521 TIP3     10202    TIP3     H1       HT       0.417000       1.00800           0   0.00000       0.00000    
     55522 TIP3     10202    TIP3     H2       HT       0.417000       1.00800           0   0.00000     -0.301140E-02
     55523 TIP3     10203    TIP3     OH2      OT      -0.834000       15.9994           0   0.00000       0.00000    
     55524 TIP3     10203    TIP3     H1       HT       0.417000       1.00800           0   0.00000       0.00000    
     55525 TIP3     10203    TIP3     H2       HT       0.417000       1.00800           0   0.00000     -0.301140E-02
     55526 TIP3     10204    TIP3     OH2      OT      -0.834000       15.9994           0   0.00000       0.00000    
     55527 TIP3     10204    TIP3     H1       HT       0.417000       1.00800           0   0.00000       0.00000    
     55528 TIP3     10204    TIP3     H2       HT       0.417000       1.00800           0   0.00000     -0.301140E-02
     55529 TIP3     10205    TIP3     OH2      OT      -0.834000       15.9994           0   0.00000       0.00000    
     55530 TIP3     10205    TIP3     H1       HT       0.417000       1.00800           0   0.00000       0.00000    
     55531 TIP3     10205    TIP3     H2       HT       0.417000       1.00800           0   0.00000     -0.301140E-02
     55532 TIP3     10206    TIP3     OH2      OT      -0.834000       15.9994           0   0.00000       0.00000    
     55533 TIP3     10206    TIP3     H1       HT       0.417000       1.00800           0   0.00000       0.00000    
     55534 TIP3     10206    TIP3     H2       HT       0.417000       1.00800           0   0.00000     -0.301140E-02
     55535 TIP3     10207    TIP3     OH2      OT      -0.834000       15.9994           0   0.00000       0.00000    
     55536 TIP3     10207    TIP3     H1       HT       0.417000       1.00800           0   0.00000       0.00000    
     55537 TIP3     10207    TIP3     H2       HT       0.417000       1.00800           0   0.00000     -0.301140E-02
     55538 TIP3     10208    TIP3     OH2      OT      -0.834000       15.9994           0   0.00000       0.00000    
     55539 TIP3     10208    TIP3     H1       HT       0.417000       1.00800           0   0.00000       0.00000    
     55540 TIP3     10208    TIP3     H2       HT       0.417000       1.00800           0   0.00000     -0.301140E-02
     55541 TIP3     10209    TIP3     OH2      OT      -0.834000       15.9994           0   0.00000       0.00000    
     55542 TIP3     10209    TIP3     H1       HT       0.417000       1.00800           0   0.00000       0.00000    
     55543 TIP3     10209    TIP3     H2       HT       0.417000       1.00800           0   0.00000     -0.301140E-02
     55544 TIP3     10210    TIP3     OH2      OT      -0.834000       15.9994           0   0.00000       0.00000    
     55545 TIP3     10210    TIP3     H1       HT       0.417000       1.00800           0   0.00000       0.00000    
     55546 TIP3     10210    TIP3     H2       HT       0.417000       1.00800           0   0.00000     -0.301140E-02
     55547 TIP3     10211    TIP3     OH2      OT      -0.834000       15.9994           0   0.00000       0.00000    
     55548 TIP3     10211    TIP3     H1       HT       0.417000       1.00800           0   0.00000       0.00000    
     55549 TIP3     10211    TIP3     H2       HT       0.417000       1.00800           0   0.00000     -0.301140E-02
     55550 TIP3     10212    TIP3     OH2      OT      -0.834000       15.9994           0   0.00000       0.00000    
     55551 TIP3     10212    TIP3     H1       HT       0.417000       1.00800           0   0.00000       0.00000    
     55552 TIP3     10212    TIP3     H2       HT       0.417000       1.00800           0   0.00000     -0.301140E-02
     55553 TIP3     10213    TIP3     OH2      OT      -0.834000       15.9994           0   0.00000       0.00000    
     55554 TIP3     10213    TIP3     H1       HT       0.417000       1.00800           0   0.00000       0.00000    
     55555 TIP3     10213    TIP3     H2       HT       0.417000       1.00800           0   0.00000     -0.301140E-02
     55556 TIP3     10214    TIP3     OH2      OT      -0.834000       15.9994           0   0.00000       0.00000    
     55557 TIP3     10214    TIP3     H1       HT       0.417000       1.00800           0   0.00000       0.00000    
     55558 TIP3     10214    TIP3     H2       HT       0.417000       1.00800           0   0.00000     -0.301140E-02
     55559 TIP3     10215    TIP3     OH2      OT      -0.834000       15.9994           0   0.00000       0.00000    
     55560 TIP3     10215    TIP3     H1       HT       0.417000       1.00800           0   0.00000       0.00000    
     55561 TIP3     10215    TIP3     H2       HT       0.417000       1.00800           0   0.00000     -0.301140E-02
     55562 TIP3     10216    TIP3     OH2      OT      -0.834000       15.9994           0   0.00000       0.00000    
     55563 TIP3     10216    TIP3     H1       HT       0.417000       1.00800           0   0.00000       0.00000    
     55564 TIP3     10216    TIP3     H2       HT       0.417000       1.00800           0   0.00000     -0.301140E-02
     55565 TIP3     10217    TIP3     OH2      OT      -0.834000       15.9994           0   0.00000       0.00000    
     55566 TIP3     10217    TIP3     H1       HT       0.417000       1.00800           0   0.00000       0.00000    
     55567 TIP3     10217    TIP3     H2       HT       0.417000       1.00800           0   0.00000     -0.301140E-02
     55568 TIP3     10218    TIP3     OH2      OT      -0.834000       15.9994           0   0.00000       0.00000    
     55569 TIP3     10218    TIP3     H1       HT       0.417000       1.00800           0   0.00000       0.00000    
     55570 TIP3     10218    TIP3     H2       HT       0.417000       1.00800           0   0.00000     -0.301140E-02
     55571 TIP3     10219    TIP3     OH2      OT      -0.834000       15.9994           0   0.00000       0.00000    
     55572 TIP3     10219    TIP3     H1       HT       0.417000       1.00800           0   0.00000       0.00000    
     55573 TIP3     10219    TIP3     H2       HT       0.417000       1.00800           0   0.00000     -0.301140E-02
     55574 TIP3     10220    TIP3     OH2      OT      -0.834000       15.9994           0   0.00000       0.00000    
     55575 TIP3     10220    TIP3     H1       HT       0.417000       1.00800           0   0.00000       0.00000    
     55576 TIP3     10220    TIP3     H2       HT       0.417000       1.00800           0   0.00000     -0.301140E-02
     55577 TIP3     10221    TIP3     OH2      OT      -0.834000       15.9994           0   0.00000       0.00000    
     55578 TIP3     10221    TIP3     H1       HT       0.417000       1.00800           0   0.00000       0.00000    
     55579 TIP3     10221    TIP3     H2       HT       0.417000       1.00800           0   0.00000     -0.301140E-02
     55580 TIP3     10222    TIP3     OH2      OT      -0.834000       15.9994           0   0.00000       0.00000    
     55581 TIP3     10222    TIP3     H1       HT       0.417000       1.00800           0   0.00000       0.00000    
     55582 TIP3     10222    TIP3     H2       HT       0.417000       1.00800           0   0.00000     -0.301140E-02
     55583 TIP3     10223    TIP3     OH2      OT      -0.834000       15.9994           0   0.00000       0.00000    
     55584 TIP3     10223    TIP3     H1       HT       0.417000       1.00800           0   0.00000       0.00000    
     55585 TIP3     10223    TIP3     H2       HT       0.417000       1.00800           0   0.00000     -0.301140E-02
     55586 TIP3     10224    TIP3     OH2      OT      -0.834000       15.9994           0   0.00000       0.00000    
     55587 TIP3     10224    TIP3     H1       HT       0.417000       1.00800           0   0.00000       0.00000    
     55588 TIP3     10224    TIP3     H2       HT       0.417000       1.00800           0   0.00000     -0.301140E-02
     55589 TIP3     10225    TIP3     OH2      OT      -0.834000       15.9994           0   0.00000       0.00000    
     55590 TIP3     10225    TIP3     H1       HT       0.417000       1.00800           0   0.00000       0.00000    
     55591 TIP3     10225    TIP3     H2       HT       0.417000       1.00800           0   0.00000     -0.301140E-02
     55592 TIP3     10226    TIP3     OH2      OT      -0.834000       15.9994           0   0.00000       0.00000    
     55593 TIP3     10226    TIP3     H1       HT       0.417000       1.00800           0   0.00000       0.00000    
     55594 TIP3     10226    TIP3     H2       HT       0.417000       1.00800           0   0.00000     -0.301140E-02
     55595 TIP3     10227    TIP3     OH2      OT      -0.834000       15.9994           0   0.00000       0.00000    
     55596 TIP3     10227    TIP3     H1       HT       0.417000       1.00800           0   0.00000       0.00000    
     55597 TIP3     10227    TIP3     H2       HT       0.417000       1.00800           0   0.00000     -0.301140E-02
     55598 TIP3     10228    TIP3     OH2      OT      -0.834000       15.9994           0   0.00000       0.00000    
     55599 TIP3     10228    TIP3     H1       HT       0.417000       1.00800           0   0.00000       0.00000    
     55600 TIP3     10228    TIP3     H2       HT       0.417000       1.00800           0   0.00000     -0.301140E-02
     55601 TIP3     10229    TIP3     OH2      OT      -0.834000       15.9994           0   0.00000       0.00000    
     55602 TIP3     10229    TIP3     H1       HT       0.417000       1.00800           0   0.00000       0.00000    
     55603 TIP3     10229    TIP3     H2       HT       0.417000       1.00800           0   0.00000     -0.301140E-02
     55604 TIP3     10230    TIP3     OH2      OT      -0.834000       15.9994           0   0.00000       0.00000    
     55605 TIP3     10230    TIP3     H1       HT       0.417000       1.00800           0   0.00000       0.00000    
     55606 TIP3     10230    TIP3     H2       HT       0.417000       1.00800           0   0.00000     -0.301140E-02
     55607 TIP3     10231    TIP3     OH2      OT      -0.834000       15.9994           0   0.00000       0.00000    
     55608 TIP3     10231    TIP3     H1       HT       0.417000       1.00800           0   0.00000       0.00000    
     55609 TIP3     10231    TIP3     H2       HT       0.417000       1.00800           0   0.00000     -0.301140E-02
     55610 TIP3     10232    TIP3     OH2      OT      -0.834000       15.9994           0   0.00000       0.00000    
     55611 TIP3     10232    TIP3     H1       HT       0.417000       1.00800           0   0.00000       0.00000    
     55612 TIP3     10232    TIP3     H2       HT       0.417000       1.00800           0   0.00000     -0.301140E-02
     55613 TIP3     10233    TIP3     OH2      OT      -0.834000       15.9994           0   0.00000       0.00000    
     55614 TIP3     10233    TIP3     H1       HT       0.417000       1.00800           0   0.00000       0.00000    
     55615 TIP3     10233    TIP3     H2       HT       0.417000       1.00800           0   0.00000     -0.301140E-02
     55616 TIP3     10234    TIP3     OH2      OT      -0.834000       15.9994           0   0.00000       0.00000    
     55617 TIP3     10234    TIP3     H1       HT       0.417000       1.00800           0   0.00000       0.00000    
     55618 TIP3     10234    TIP3     H2       HT       0.417000       1.00800           0   0.00000     -0.301140E-02
     55619 TIP3     10235    TIP3     OH2      OT      -0.834000       15.9994           0   0.00000       0.00000    
     55620 TIP3     10235    TIP3     H1       HT       0.417000       1.00800           0   0.00000       0.00000    
     55621 TIP3     10235    TIP3     H2       HT       0.417000       1.00800           0   0.00000     -0.301140E-02
     55622 TIP3     10236    TIP3     OH2      OT      -0.834000       15.9994           0   0.00000       0.00000    
     55623 TIP3     10236    TIP3     H1       HT       0.417000       1.00800           0   0.00000       0.00000    
     55624 TIP3     10236    TIP3     H2       HT       0.417000       1.00800           0   0.00000     -0.301140E-02
     55625 TIP3     10237    TIP3     OH2      OT      -0.834000       15.9994           0   0.00000       0.00000    
     55626 TIP3     10237    TIP3     H1       HT       0.417000       1.00800           0   0.00000       0.00000    
     55627 TIP3     10237    TIP3     H2       HT       0.417000       1.00800           0   0.00000     -0.301140E-02
     55628 TIP3     10238    TIP3     OH2      OT      -0.834000       15.9994           0   0.00000       0.00000    
     55629 TIP3     10238    TIP3     H1       HT       0.417000       1.00800           0   0.00000       0.00000    
     55630 TIP3     10238    TIP3     H2       HT       0.417000       1.00800           0   0.00000     -0.301140E-02
     55631 TIP3     10239    TIP3     OH2      OT      -0.834000       15.9994           0   0.00000       0.00000    
     55632 TIP3     10239    TIP3     H1       HT       0.417000       1.00800           0   0.00000       0.00000    
     55633 TIP3     10239    TIP3     H2       HT       0.417000       1.00800           0   0.00000     -0.301140E-02
     55634 TIP3     10240    TIP3     OH2      OT      -0.834000       15.9994           0   0.00000       0.00000    
     55635 TIP3     10240    TIP3     H1       HT       0.417000       1.00800           0   0.00000       0.00000    
     55636 TIP3     10240    TIP3     H2       HT       0.417000       1.00800           0   0.00000     -0.301140E-02
     55637 TIP3     10241    TIP3     OH2      OT      -0.834000       15.9994           0   0.00000       0.00000    
     55638 TIP3     10241    TIP3     H1       HT       0.417000       1.00800           0   0.00000       0.00000    
     55639 TIP3     10241    TIP3     H2       HT       0.417000       1.00800           0   0.00000     -0.301140E-02
     55640 TIP3     10242    TIP3     OH2      OT      -0.834000       15.9994           0   0.00000       0.00000    
     55641 TIP3     10242    TIP3     H1       HT       0.417000       1.00800           0   0.00000       0.00000    
     55642 TIP3     10242    TIP3     H2       HT       0.417000       1.00800           0   0.00000     -0.301140E-02
     55643 TIP3     10243    TIP3     OH2      OT      -0.834000       15.9994           0   0.00000       0.00000    
     55644 TIP3     10243    TIP3     H1       HT       0.417000       1.00800           0   0.00000       0.00000    
     55645 TIP3     10243    TIP3     H2       HT       0.417000       1.00800           0   0.00000     -0.301140E-02
     55646 TIP3     10244    TIP3     OH2      OT      -0.834000       15.9994           0   0.00000       0.00000    
     55647 TIP3     10244    TIP3     H1       HT       0.417000       1.00800           0   0.00000       0.00000    
     55648 TIP3     10244    TIP3     H2       HT       0.417000       1.00800           0   0.00000     -0.301140E-02
     55649 TIP3     10245    TIP3     OH2      OT      -0.834000       15.9994           0   0.00000       0.00000    
     55650 TIP3     10245    TIP3     H1       HT       0.417000       1.00800           0   0.00000       0.00000    
     55651 TIP3     10245    TIP3     H2       HT       0.417000       1.00800           0   0.00000     -0.301140E-02
     55652 TIP3     10246    TIP3     OH2      OT      -0.834000       15.9994           0   0.00000       0.00000    
     55653 TIP3     10246    TIP3     H1       HT       0.417000       1.00800           0   0.00000       0.00000    
     55654 TIP3     10246    TIP3     H2       HT       0.417000       1.00800           0   0.00000     -0.301140E-02
     55655 TIP3     10247    TIP3     OH2      OT      -0.834000       15.9994           0   0.00000       0.00000    
     55656 TIP3     10247    TIP3     H1       HT       0.417000       1.00800           0   0.00000       0.00000    
     55657 TIP3     10247    TIP3     H2       HT       0.417000       1.00800           0   0.00000     -0.301140E-02
     55658 TIP3     10248    TIP3     OH2      OT      -0.834000       15.9994           0   0.00000       0.00000    
     55659 TIP3     10248    TIP3     H1       HT       0.417000       1.00800           0   0.00000       0.00000    
     55660 TIP3     10248    TIP3     H2       HT       0.417000       1.00800           0   0.00000     -0.301140E-02
     55661 TIP3     10249    TIP3     OH2      OT      -0.834000       15.9994           0   0.00000       0.00000    
     55662 TIP3     10249    TIP3     H1       HT       0.417000       1.00800           0   0.00000       0.00000    
     55663 TIP3     10249    TIP3     H2       HT       0.417000       1.00800           0   0.00000     -0.301140E-02
     55664 TIP3     10250    TIP3     OH2      OT      -0.834000       15.9994           0   0.00000       0.00000    
     55665 TIP3     10250    TIP3     H1       HT       0.417000       1.00800           0   0.00000       0.00000    
     55666 TIP3     10250    TIP3     H2       HT       0.417000       1.00800           0   0.00000     -0.301140E-02
     55667 TIP3     10251    TIP3     OH2      OT      -0.834000       15.9994           0   0.00000       0.00000    
     55668 TIP3     10251    TIP3     H1       HT       0.417000       1.00800           0   0.00000       0.00000    
     55669 TIP3     10251    TIP3     H2       HT       0.417000       1.00800           0   0.00000     -0.301140E-02
     55670 TIP3     10252    TIP3     OH2      OT      -0.834000       15.9994           0   0.00000       0.00000    
     55671 TIP3     10252    TIP3     H1       HT       0.417000       1.00800           0   0.00000       0.00000    
     55672 TIP3     10252    TIP3     H2       HT       0.417000       1.00800           0   0.00000     -0.301140E-02
     55673 TIP3     10253    TIP3     OH2      OT      -0.834000       15.9994           0   0.00000       0.00000    
     55674 TIP3     10253    TIP3     H1       HT       0.417000       1.00800           0   0.00000       0.00000    
     55675 TIP3     10253    TIP3     H2       HT       0.417000       1.00800           0   0.00000     -0.301140E-02
     55676 TIP3     10254    TIP3     OH2      OT      -0.834000       15.9994           0   0.00000       0.00000    
     55677 TIP3     10254    TIP3     H1       HT       0.417000       1.00800           0   0.00000       0.00000    
     55678 TIP3     10254    TIP3     H2       HT       0.417000       1.00800           0   0.00000     -0.301140E-02
     55679 TIP3     10255    TIP3     OH2      OT      -0.834000       15.9994           0   0.00000       0.00000    
     55680 TIP3     10255    TIP3     H1       HT       0.417000       1.00800           0   0.00000       0.00000    
     55681 TIP3     10255    TIP3     H2       HT       0.417000       1.00800           0   0.00000     -0.301140E-02
     55682 TIP3     10256    TIP3     OH2      OT      -0.834000       15.9994           0   0.00000       0.00000    
     55683 TIP3     10256    TIP3     H1       HT       0.417000       1.00800           0   0.00000       0.00000    
     55684 TIP3     10256    TIP3     H2       HT       0.417000       1.00800           0   0.00000     -0.301140E-02
     55685 TIP3     10257    TIP3     OH2      OT      -0.834000       15.9994           0   0.00000       0.00000    
     55686 TIP3     10257    TIP3     H1       HT       0.417000       1.00800           0   0.00000       0.00000    
     55687 TIP3     10257    TIP3     H2       HT       0.417000       1.00800           0   0.00000     -0.301140E-02
     55688 TIP3     10258    TIP3     OH2      OT      -0.834000       15.9994           0   0.00000       0.00000    
     55689 TIP3     10258    TIP3     H1       HT       0.417000       1.00800           0   0.00000       0.00000    
     55690 TIP3     10258    TIP3     H2       HT       0.417000       1.00800           0   0.00000     -0.301140E-02
     55691 TIP3     10259    TIP3     OH2      OT      -0.834000       15.9994           0   0.00000       0.00000    
     55692 TIP3     10259    TIP3     H1       HT       0.417000       1.00800           0   0.00000       0.00000    
     55693 TIP3     10259    TIP3     H2       HT       0.417000       1.00800           0   0.00000     -0.301140E-02
     55694 TIP3     10260    TIP3     OH2      OT      -0.834000       15.9994           0   0.00000       0.00000    
     55695 TIP3     10260    TIP3     H1       HT       0.417000       1.00800           0   0.00000       0.00000    
     55696 TIP3     10260    TIP3     H2       HT       0.417000       1.00800           0   0.00000     -0.301140E-02
     55697 TIP3     10261    TIP3     OH2      OT      -0.834000       15.9994           0   0.00000       0.00000    
     55698 TIP3     10261    TIP3     H1       HT       0.417000       1.00800           0   0.00000       0.00000    
     55699 TIP3     10261    TIP3     H2       HT       0.417000       1.00800           0   0.00000     -0.301140E-02
     55700 TIP3     10262    TIP3     OH2      OT      -0.834000       15.9994           0   0.00000       0.00000    
     55701 TIP3     10262    TIP3     H1       HT       0.417000       1.00800           0   0.00000       0.00000    
     55702 TIP3     10262    TIP3     H2       HT       0.417000       1.00800           0   0.00000     -0.301140E-02
     55703 TIP3     10263    TIP3     OH2      OT      -0.834000       15.9994           0   0.00000       0.00000    
     55704 TIP3     10263    TIP3     H1       HT       0.417000       1.00800           0   0.00000       0.00000    
     55705 TIP3     10263    TIP3     H2       HT       0.417000       1.00800           0   0.00000     -0.301140E-02
     55706 TIP3     10264    TIP3     OH2      OT      -0.834000       15.9994           0   0.00000       0.00000    
     55707 TIP3     10264    TIP3     H1       HT       0.417000       1.00800           0   0.00000       0.00000    
     55708 TIP3     10264    TIP3     H2       HT       0.417000       1.00800           0   0.00000     -0.301140E-02
     55709 TIP3     10265    TIP3     OH2      OT      -0.834000       15.9994           0   0.00000       0.00000    
     55710 TIP3     10265    TIP3     H1       HT       0.417000       1.00800           0   0.00000       0.00000    
     55711 TIP3     10265    TIP3     H2       HT       0.417000       1.00800           0   0.00000     -0.301140E-02
     55712 TIP3     10266    TIP3     OH2      OT      -0.834000       15.9994           0   0.00000       0.00000    
     55713 TIP3     10266    TIP3     H1       HT       0.417000       1.00800           0   0.00000       0.00000    
     55714 TIP3     10266    TIP3     H2       HT       0.417000       1.00800           0   0.00000     -0.301140E-02
     55715 TIP3     10267    TIP3     OH2      OT      -0.834000       15.9994           0   0.00000       0.00000    
     55716 TIP3     10267    TIP3     H1       HT       0.417000       1.00800           0   0.00000       0.00000    
     55717 TIP3     10267    TIP3     H2       HT       0.417000       1.00800           0   0.00000     -0.301140E-02
     55718 TIP3     10268    TIP3     OH2      OT      -0.834000       15.9994           0   0.00000       0.00000    
     55719 TIP3     10268    TIP3     H1       HT       0.417000       1.00800           0   0.00000       0.00000    
     55720 TIP3     10268    TIP3     H2       HT       0.417000       1.00800           0   0.00000     -0.301140E-02
     55721 TIP3     10269    TIP3     OH2      OT      -0.834000       15.9994           0   0.00000       0.00000    
     55722 TIP3     10269    TIP3     H1       HT       0.417000       1.00800           0   0.00000       0.00000    
     55723 TIP3     10269    TIP3     H2       HT       0.417000       1.00800           0   0.00000     -0.301140E-02
     55724 TIP3     10270    TIP3     OH2      OT      -0.834000       15.9994           0   0.00000       0.00000    
     55725 TIP3     10270    TIP3     H1       HT       0.417000       1.00800           0   0.00000       0.00000    
     55726 TIP3     10270    TIP3     H2       HT       0.417000       1.00800           0   0.00000     -0.301140E-02
     55727 TIP3     10271    TIP3     OH2      OT      -0.834000       15.9994           0   0.00000       0.00000    
     55728 TIP3     10271    TIP3     H1       HT       0.417000       1.00800           0   0.00000       0.00000    
     55729 TIP3     10271    TIP3     H2       HT       0.417000       1.00800           0   0.00000     -0.301140E-02
     55730 TIP3     10272    TIP3     OH2      OT      -0.834000       15.9994           0   0.00000       0.00000    
     55731 TIP3     10272    TIP3     H1       HT       0.417000       1.00800           0   0.00000       0.00000    
     55732 TIP3     10272    TIP3     H2       HT       0.417000       1.00800           0   0.00000     -0.301140E-02
     55733 TIP3     10273    TIP3     OH2      OT      -0.834000       15.9994           0   0.00000       0.00000    
     55734 TIP3     10273    TIP3     H1       HT       0.417000       1.00800           0   0.00000       0.00000    
     55735 TIP3     10273    TIP3     H2       HT       0.417000       1.00800           0   0.00000     -0.301140E-02
     55736 TIP3     10274    TIP3     OH2      OT      -0.834000       15.9994           0   0.00000       0.00000    
     55737 TIP3     10274    TIP3     H1       HT       0.417000       1.00800           0   0.00000       0.00000    
     55738 TIP3     10274    TIP3     H2       HT       0.417000       1.00800           0   0.00000     -0.301140E-02
     55739 TIP3     10275    TIP3     OH2      OT      -0.834000       15.9994           0   0.00000       0.00000    
     55740 TIP3     10275    TIP3     H1       HT       0.417000       1.00800           0   0.00000       0.00000    
     55741 TIP3     10275    TIP3     H2       HT       0.417000       1.00800           0   0.00000     -0.301140E-02
     55742 TIP3     10276    TIP3     OH2      OT      -0.834000       15.9994           0   0.00000       0.00000    
     55743 TIP3     10276    TIP3     H1       HT       0.417000       1.00800           0   0.00000       0.00000    
     55744 TIP3     10276    TIP3     H2       HT       0.417000       1.00800           0   0.00000     -0.301140E-02
     55745 TIP3     10277    TIP3     OH2      OT      -0.834000       15.9994           0   0.00000       0.00000    
     55746 TIP3     10277    TIP3     H1       HT       0.417000       1.00800           0   0.00000       0.00000    
     55747 TIP3     10277    TIP3     H2       HT       0.417000       1.00800           0   0.00000     -0.301140E-02
     55748 TIP3     10278    TIP3     OH2      OT      -0.834000       15.9994           0   0.00000       0.00000    
     55749 TIP3     10278    TIP3     H1       HT       0.417000       1.00800           0   0.00000       0.00000    
     55750 TIP3     10278    TIP3     H2       HT       0.417000       1.00800           0   0.00000     -0.301140E-02
     55751 TIP3     10279    TIP3     OH2      OT      -0.834000       15.9994           0   0.00000       0.00000    
     55752 TIP3     10279    TIP3     H1       HT       0.417000       1.00800           0   0.00000       0.00000    
     55753 TIP3     10279    TIP3     H2       HT       0.417000       1.00800           0   0.00000     -0.301140E-02
     55754 TIP3     10280    TIP3     OH2      OT      -0.834000       15.9994           0   0.00000       0.00000    
     55755 TIP3     10280    TIP3     H1       HT       0.417000       1.00800           0   0.00000       0.00000    
     55756 TIP3     10280    TIP3     H2       HT       0.417000       1.00800           0   0.00000     -0.301140E-02
     55757 TIP3     10281    TIP3     OH2      OT      -0.834000       15.9994           0   0.00000       0.00000    
     55758 TIP3     10281    TIP3     H1       HT       0.417000       1.00800           0   0.00000       0.00000    
     55759 TIP3     10281    TIP3     H2       HT       0.417000       1.00800           0   0.00000     -0.301140E-02
     55760 TIP3     10282    TIP3     OH2      OT      -0.834000       15.9994           0   0.00000       0.00000    
     55761 TIP3     10282    TIP3     H1       HT       0.417000       1.00800           0   0.00000       0.00000    
     55762 TIP3     10282    TIP3     H2       HT       0.417000       1.00800           0   0.00000     -0.301140E-02
     55763 TIP3     10283    TIP3     OH2      OT      -0.834000       15.9994           0   0.00000       0.00000    
     55764 TIP3     10283    TIP3     H1       HT       0.417000       1.00800           0   0.00000       0.00000    
     55765 TIP3     10283    TIP3     H2       HT       0.417000       1.00800           0   0.00000     -0.301140E-02
     55766 TIP3     10284    TIP3     OH2      OT      -0.834000       15.9994           0   0.00000       0.00000    
     55767 TIP3     10284    TIP3     H1       HT       0.417000       1.00800           0   0.00000       0.00000    
     55768 TIP3     10284    TIP3     H2       HT       0.417000       1.00800           0   0.00000     -0.301140E-02
     55769 TIP3     10285    TIP3     OH2      OT      -0.834000       15.9994           0   0.00000       0.00000    
     55770 TIP3     10285    TIP3     H1       HT       0.417000       1.00800           0   0.00000       0.00000    
     55771 TIP3     10285    TIP3     H2       HT       0.417000       1.00800           0   0.00000     -0.301140E-02
     55772 TIP3     10286    TIP3     OH2      OT      -0.834000       15.9994           0   0.00000       0.00000    
     55773 TIP3     10286    TIP3     H1       HT       0.417000       1.00800           0   0.00000       0.00000    
     55774 TIP3     10286    TIP3     H2       HT       0.417000       1.00800           0   0.00000     -0.301140E-02
     55775 TIP3     10287    TIP3     OH2      OT      -0.834000       15.9994           0   0.00000       0.00000    
     55776 TIP3     10287    TIP3     H1       HT       0.417000       1.00800           0   0.00000       0.00000    
     55777 TIP3     10287    TIP3     H2       HT       0.417000       1.00800           0   0.00000     -0.301140E-02
     55778 TIP3     10288    TIP3     OH2      OT      -0.834000       15.9994           0   0.00000       0.00000    
     55779 TIP3     10288    TIP3     H1       HT       0.417000       1.00800           0   0.00000       0.00000    
     55780 TIP3     10288    TIP3     H2       HT       0.417000       1.00800           0   0.00000     -0.301140E-02
     55781 TIP3     10289    TIP3     OH2      OT      -0.834000       15.9994           0   0.00000       0.00000    
     55782 TIP3     10289    TIP3     H1       HT       0.417000       1.00800           0   0.00000       0.00000    
     55783 TIP3     10289    TIP3     H2       HT       0.417000       1.00800           0   0.00000     -0.301140E-02
     55784 TIP3     10290    TIP3     OH2      OT      -0.834000       15.9994           0   0.00000       0.00000    
     55785 TIP3     10290    TIP3     H1       HT       0.417000       1.00800           0   0.00000       0.00000    
     55786 TIP3     10290    TIP3     H2       HT       0.417000       1.00800           0   0.00000     -0.301140E-02
     55787 TIP3     10291    TIP3     OH2      OT      -0.834000       15.9994           0   0.00000       0.00000    
     55788 TIP3     10291    TIP3     H1       HT       0.417000       1.00800           0   0.00000       0.00000    
     55789 TIP3     10291    TIP3     H2       HT       0.417000       1.00800           0   0.00000     -0.301140E-02
     55790 TIP3     10292    TIP3     OH2      OT      -0.834000       15.9994           0   0.00000       0.00000    
     55791 TIP3     10292    TIP3     H1       HT       0.417000       1.00800           0   0.00000       0.00000    
     55792 TIP3     10292    TIP3     H2       HT       0.417000       1.00800           0   0.00000     -0.301140E-02
     55793 TIP3     10293    TIP3     OH2      OT      -0.834000       15.9994           0   0.00000       0.00000    
     55794 TIP3     10293    TIP3     H1       HT       0.417000       1.00800           0   0.00000       0.00000    
     55795 TIP3     10293    TIP3     H2       HT       0.417000       1.00800           0   0.00000     -0.301140E-02
     55796 TIP3     10294    TIP3     OH2      OT      -0.834000       15.9994           0   0.00000       0.00000    
     55797 TIP3     10294    TIP3     H1       HT       0.417000       1.00800           0   0.00000       0.00000    
     55798 TIP3     10294    TIP3     H2       HT       0.417000       1.00800           0   0.00000     -0.301140E-02
     55799 TIP3     10295    TIP3     OH2      OT      -0.834000       15.9994           0   0.00000       0.00000    
     55800 TIP3     10295    TIP3     H1       HT       0.417000       1.00800           0   0.00000       0.00000    
     55801 TIP3     10295    TIP3     H2       HT       0.417000       1.00800           0   0.00000     -0.301140E-02
     55802 TIP3     10296    TIP3     OH2      OT      -0.834000       15.9994           0   0.00000       0.00000    
     55803 TIP3     10296    TIP3     H1       HT       0.417000       1.00800           0   0.00000       0.00000    
     55804 TIP3     10296    TIP3     H2       HT       0.417000       1.00800           0   0.00000     -0.301140E-02
     55805 TIP3     10297    TIP3     OH2      OT      -0.834000       15.9994           0   0.00000       0.00000    
     55806 TIP3     10297    TIP3     H1       HT       0.417000       1.00800           0   0.00000       0.00000    
     55807 TIP3     10297    TIP3     H2       HT       0.417000       1.00800           0   0.00000     -0.301140E-02
     55808 TIP3     10298    TIP3     OH2      OT      -0.834000       15.9994           0   0.00000       0.00000    
     55809 TIP3     10298    TIP3     H1       HT       0.417000       1.00800           0   0.00000       0.00000    
     55810 TIP3     10298    TIP3     H2       HT       0.417000       1.00800           0   0.00000     -0.301140E-02
     55811 TIP3     10299    TIP3     OH2      OT      -0.834000       15.9994           0   0.00000       0.00000    
     55812 TIP3     10299    TIP3     H1       HT       0.417000       1.00800           0   0.00000       0.00000    
     55813 TIP3     10299    TIP3     H2       HT       0.417000       1.00800           0   0.00000     -0.301140E-02
     55814 TIP3     10300    TIP3     OH2      OT      -0.834000       15.9994           0   0.00000       0.00000    
     55815 TIP3     10300    TIP3     H1       HT       0.417000       1.00800           0   0.00000       0.00000    
     55816 TIP3     10300    TIP3     H2       HT       0.417000       1.00800           0   0.00000     -0.301140E-02
     55817 TIP3     10301    TIP3     OH2      OT      -0.834000       15.9994           0   0.00000       0.00000    
     55818 TIP3     10301    TIP3     H1       HT       0.417000       1.00800           0   0.00000       0.00000    
     55819 TIP3     10301    TIP3     H2       HT       0.417000       1.00800           0   0.00000     -0.301140E-02
     55820 TIP3     10302    TIP3     OH2      OT      -0.834000       15.9994           0   0.00000       0.00000    
     55821 TIP3     10302    TIP3     H1       HT       0.417000       1.00800           0   0.00000       0.00000    
     55822 TIP3     10302    TIP3     H2       HT       0.417000       1.00800           0   0.00000     -0.301140E-02
     55823 TIP3     10303    TIP3     OH2      OT      -0.834000       15.9994           0   0.00000       0.00000    
     55824 TIP3     10303    TIP3     H1       HT       0.417000       1.00800           0   0.00000       0.00000    
     55825 TIP3     10303    TIP3     H2       HT       0.417000       1.00800           0   0.00000     -0.301140E-02
     55826 TIP3     10304    TIP3     OH2      OT      -0.834000       15.9994           0   0.00000       0.00000    
     55827 TIP3     10304    TIP3     H1       HT       0.417000       1.00800           0   0.00000       0.00000    
     55828 TIP3     10304    TIP3     H2       HT       0.417000       1.00800           0   0.00000     -0.301140E-02
     55829 TIP3     10305    TIP3     OH2      OT      -0.834000       15.9994           0   0.00000       0.00000    
     55830 TIP3     10305    TIP3     H1       HT       0.417000       1.00800           0   0.00000       0.00000    
     55831 TIP3     10305    TIP3     H2       HT       0.417000       1.00800           0   0.00000     -0.301140E-02
     55832 TIP3     10306    TIP3     OH2      OT      -0.834000       15.9994           0   0.00000       0.00000    
     55833 TIP3     10306    TIP3     H1       HT       0.417000       1.00800           0   0.00000       0.00000    
     55834 TIP3     10306    TIP3     H2       HT       0.417000       1.00800           0   0.00000     -0.301140E-02
     55835 TIP3     10307    TIP3     OH2      OT      -0.834000       15.9994           0   0.00000       0.00000    
     55836 TIP3     10307    TIP3     H1       HT       0.417000       1.00800           0   0.00000       0.00000    
     55837 TIP3     10307    TIP3     H2       HT       0.417000       1.00800           0   0.00000     -0.301140E-02
     55838 TIP3     10308    TIP3     OH2      OT      -0.834000       15.9994           0   0.00000       0.00000    
     55839 TIP3     10308    TIP3     H1       HT       0.417000       1.00800           0   0.00000       0.00000    
     55840 TIP3     10308    TIP3     H2       HT       0.417000       1.00800           0   0.00000     -0.301140E-02
     55841 TIP3     10309    TIP3     OH2      OT      -0.834000       15.9994           0   0.00000       0.00000    
     55842 TIP3     10309    TIP3     H1       HT       0.417000       1.00800           0   0.00000       0.00000    
     55843 TIP3     10309    TIP3     H2       HT       0.417000       1.00800           0   0.00000     -0.301140E-02
     55844 TIP3     10310    TIP3     OH2      OT      -0.834000       15.9994           0   0.00000       0.00000    
     55845 TIP3     10310    TIP3     H1       HT       0.417000       1.00800           0   0.00000       0.00000    
     55846 TIP3     10310    TIP3     H2       HT       0.417000       1.00800           0   0.00000     -0.301140E-02
     55847 TIP3     10311    TIP3     OH2      OT      -0.834000       15.9994           0   0.00000       0.00000    
     55848 TIP3     10311    TIP3     H1       HT       0.417000       1.00800           0   0.00000       0.00000    
     55849 TIP3     10311    TIP3     H2       HT       0.417000       1.00800           0   0.00000     -0.301140E-02
     55850 TIP3     10312    TIP3     OH2      OT      -0.834000       15.9994           0   0.00000       0.00000    
     55851 TIP3     10312    TIP3     H1       HT       0.417000       1.00800           0   0.00000       0.00000    
     55852 TIP3     10312    TIP3     H2       HT       0.417000       1.00800           0   0.00000     -0.301140E-02
     55853 TIP3     10313    TIP3     OH2      OT      -0.834000       15.9994           0   0.00000       0.00000    
     55854 TIP3     10313    TIP3     H1       HT       0.417000       1.00800           0   0.00000       0.00000    
     55855 TIP3     10313    TIP3     H2       HT       0.417000       1.00800           0   0.00000     -0.301140E-02
     55856 TIP3     10314    TIP3     OH2      OT      -0.834000       15.9994           0   0.00000       0.00000    
     55857 TIP3     10314    TIP3     H1       HT       0.417000       1.00800           0   0.00000       0.00000    
     55858 TIP3     10314    TIP3     H2       HT       0.417000       1.00800           0   0.00000     -0.301140E-02
     55859 TIP3     10315    TIP3     OH2      OT      -0.834000       15.9994           0   0.00000       0.00000    
     55860 TIP3     10315    TIP3     H1       HT       0.417000       1.00800           0   0.00000       0.00000    
     55861 TIP3     10315    TIP3     H2       HT       0.417000       1.00800           0   0.00000     -0.301140E-02
     55862 TIP3     10316    TIP3     OH2      OT      -0.834000       15.9994           0   0.00000       0.00000    
     55863 TIP3     10316    TIP3     H1       HT       0.417000       1.00800           0   0.00000       0.00000    
     55864 TIP3     10316    TIP3     H2       HT       0.417000       1.00800           0   0.00000     -0.301140E-02
     55865 TIP3     10317    TIP3     OH2      OT      -0.834000       15.9994           0   0.00000       0.00000    
     55866 TIP3     10317    TIP3     H1       HT       0.417000       1.00800           0   0.00000       0.00000    
     55867 TIP3     10317    TIP3     H2       HT       0.417000       1.00800           0   0.00000     -0.301140E-02
     55868 TIP3     10318    TIP3     OH2      OT      -0.834000       15.9994           0   0.00000       0.00000    
     55869 TIP3     10318    TIP3     H1       HT       0.417000       1.00800           0   0.00000       0.00000    
     55870 TIP3     10318    TIP3     H2       HT       0.417000       1.00800           0   0.00000     -0.301140E-02
     55871 TIP3     10319    TIP3     OH2      OT      -0.834000       15.9994           0   0.00000       0.00000    
     55872 TIP3     10319    TIP3     H1       HT       0.417000       1.00800           0   0.00000       0.00000    
     55873 TIP3     10319    TIP3     H2       HT       0.417000       1.00800           0   0.00000     -0.301140E-02
     55874 TIP3     10320    TIP3     OH2      OT      -0.834000       15.9994           0   0.00000       0.00000    
     55875 TIP3     10320    TIP3     H1       HT       0.417000       1.00800           0   0.00000       0.00000    
     55876 TIP3     10320    TIP3     H2       HT       0.417000       1.00800           0   0.00000     -0.301140E-02
     55877 TIP3     10321    TIP3     OH2      OT      -0.834000       15.9994           0   0.00000       0.00000    
     55878 TIP3     10321    TIP3     H1       HT       0.417000       1.00800           0   0.00000       0.00000    
     55879 TIP3     10321    TIP3     H2       HT       0.417000       1.00800           0   0.00000     -0.301140E-02
     55880 TIP3     10322    TIP3     OH2      OT      -0.834000       15.9994           0   0.00000       0.00000    
     55881 TIP3     10322    TIP3     H1       HT       0.417000       1.00800           0   0.00000       0.00000    
     55882 TIP3     10322    TIP3     H2       HT       0.417000       1.00800           0   0.00000     -0.301140E-02
     55883 TIP3     10323    TIP3     OH2      OT      -0.834000       15.9994           0   0.00000       0.00000    
     55884 TIP3     10323    TIP3     H1       HT       0.417000       1.00800           0   0.00000       0.00000    
     55885 TIP3     10323    TIP3     H2       HT       0.417000       1.00800           0   0.00000     -0.301140E-02
     55886 TIP3     10324    TIP3     OH2      OT      -0.834000       15.9994           0   0.00000       0.00000    
     55887 TIP3     10324    TIP3     H1       HT       0.417000       1.00800           0   0.00000       0.00000    
     55888 TIP3     10324    TIP3     H2       HT       0.417000       1.00800           0   0.00000     -0.301140E-02
     55889 TIP3     10325    TIP3     OH2      OT      -0.834000       15.9994           0   0.00000       0.00000    
     55890 TIP3     10325    TIP3     H1       HT       0.417000       1.00800           0   0.00000       0.00000    
     55891 TIP3     10325    TIP3     H2       HT       0.417000       1.00800           0   0.00000     -0.301140E-02
     55892 TIP3     10326    TIP3     OH2      OT      -0.834000       15.9994           0   0.00000       0.00000    
     55893 TIP3     10326    TIP3     H1       HT       0.417000       1.00800           0   0.00000       0.00000    
     55894 TIP3     10326    TIP3     H2       HT       0.417000       1.00800           0   0.00000     -0.301140E-02
     55895 TIP3     10327    TIP3     OH2      OT      -0.834000       15.9994           0   0.00000       0.00000    
     55896 TIP3     10327    TIP3     H1       HT       0.417000       1.00800           0   0.00000       0.00000    
     55897 TIP3     10327    TIP3     H2       HT       0.417000       1.00800           0   0.00000     -0.301140E-02
     55898 TIP3     10328    TIP3     OH2      OT      -0.834000       15.9994           0   0.00000       0.00000    
     55899 TIP3     10328    TIP3     H1       HT       0.417000       1.00800           0   0.00000       0.00000    
     55900 TIP3     10328    TIP3     H2       HT       0.417000       1.00800           0   0.00000     -0.301140E-02
     55901 TIP3     10329    TIP3     OH2      OT      -0.834000       15.9994           0   0.00000       0.00000    
     55902 TIP3     10329    TIP3     H1       HT       0.417000       1.00800           0   0.00000       0.00000    
     55903 TIP3     10329    TIP3     H2       HT       0.417000       1.00800           0   0.00000     -0.301140E-02
     55904 TIP3     10330    TIP3     OH2      OT      -0.834000       15.9994           0   0.00000       0.00000    
     55905 TIP3     10330    TIP3     H1       HT       0.417000       1.00800           0   0.00000       0.00000    
     55906 TIP3     10330    TIP3     H2       HT       0.417000       1.00800           0   0.00000     -0.301140E-02
     55907 TIP3     10331    TIP3     OH2      OT      -0.834000       15.9994           0   0.00000       0.00000    
     55908 TIP3     10331    TIP3     H1       HT       0.417000       1.00800           0   0.00000       0.00000    
     55909 TIP3     10331    TIP3     H2       HT       0.417000       1.00800           0   0.00000     -0.301140E-02
     55910 TIP3     10332    TIP3     OH2      OT      -0.834000       15.9994           0   0.00000       0.00000    
     55911 TIP3     10332    TIP3     H1       HT       0.417000       1.00800           0   0.00000       0.00000    
     55912 TIP3     10332    TIP3     H2       HT       0.417000       1.00800           0   0.00000     -0.301140E-02
     55913 TIP3     10333    TIP3     OH2      OT      -0.834000       15.9994           0   0.00000       0.00000    
     55914 TIP3     10333    TIP3     H1       HT       0.417000       1.00800           0   0.00000       0.00000    
     55915 TIP3     10333    TIP3     H2       HT       0.417000       1.00800           0   0.00000     -0.301140E-02
     55916 TIP3     10334    TIP3     OH2      OT      -0.834000       15.9994           0   0.00000       0.00000    
     55917 TIP3     10334    TIP3     H1       HT       0.417000       1.00800           0   0.00000       0.00000    
     55918 TIP3     10334    TIP3     H2       HT       0.417000       1.00800           0   0.00000     -0.301140E-02
     55919 TIP3     10335    TIP3     OH2      OT      -0.834000       15.9994           0   0.00000       0.00000    
     55920 TIP3     10335    TIP3     H1       HT       0.417000       1.00800           0   0.00000       0.00000    
     55921 TIP3     10335    TIP3     H2       HT       0.417000       1.00800           0   0.00000     -0.301140E-02
     55922 TIP3     10336    TIP3     OH2      OT      -0.834000       15.9994           0   0.00000       0.00000    
     55923 TIP3     10336    TIP3     H1       HT       0.417000       1.00800           0   0.00000       0.00000    
     55924 TIP3     10336    TIP3     H2       HT       0.417000       1.00800           0   0.00000     -0.301140E-02
     55925 TIP3     10337    TIP3     OH2      OT      -0.834000       15.9994           0   0.00000       0.00000    
     55926 TIP3     10337    TIP3     H1       HT       0.417000       1.00800           0   0.00000       0.00000    
     55927 TIP3     10337    TIP3     H2       HT       0.417000       1.00800           0   0.00000     -0.301140E-02
     55928 TIP3     10338    TIP3     OH2      OT      -0.834000       15.9994           0   0.00000       0.00000    
     55929 TIP3     10338    TIP3     H1       HT       0.417000       1.00800           0   0.00000       0.00000    
     55930 TIP3     10338    TIP3     H2       HT       0.417000       1.00800           0   0.00000     -0.301140E-02
     55931 TIP3     10339    TIP3     OH2      OT      -0.834000       15.9994           0   0.00000       0.00000    
     55932 TIP3     10339    TIP3     H1       HT       0.417000       1.00800           0   0.00000       0.00000    
     55933 TIP3     10339    TIP3     H2       HT       0.417000       1.00800           0   0.00000     -0.301140E-02
     55934 TIP3     10340    TIP3     OH2      OT      -0.834000       15.9994           0   0.00000       0.00000    
     55935 TIP3     10340    TIP3     H1       HT       0.417000       1.00800           0   0.00000       0.00000    
     55936 TIP3     10340    TIP3     H2       HT       0.417000       1.00800           0   0.00000     -0.301140E-02
     55937 TIP3     10341    TIP3     OH2      OT      -0.834000       15.9994           0   0.00000       0.00000    
     55938 TIP3     10341    TIP3     H1       HT       0.417000       1.00800           0   0.00000       0.00000    
     55939 TIP3     10341    TIP3     H2       HT       0.417000       1.00800           0   0.00000     -0.301140E-02
     55940 TIP3     10342    TIP3     OH2      OT      -0.834000       15.9994           0   0.00000       0.00000    
     55941 TIP3     10342    TIP3     H1       HT       0.417000       1.00800           0   0.00000       0.00000    
     55942 TIP3     10342    TIP3     H2       HT       0.417000       1.00800           0   0.00000     -0.301140E-02
     55943 TIP3     10343    TIP3     OH2      OT      -0.834000       15.9994           0   0.00000       0.00000    
     55944 TIP3     10343    TIP3     H1       HT       0.417000       1.00800           0   0.00000       0.00000    
     55945 TIP3     10343    TIP3     H2       HT       0.417000       1.00800           0   0.00000     -0.301140E-02
     55946 TIP3     10344    TIP3     OH2      OT      -0.834000       15.9994           0   0.00000       0.00000    
     55947 TIP3     10344    TIP3     H1       HT       0.417000       1.00800           0   0.00000       0.00000    
     55948 TIP3     10344    TIP3     H2       HT       0.417000       1.00800           0   0.00000     -0.301140E-02
     55949 TIP3     10345    TIP3     OH2      OT      -0.834000       15.9994           0   0.00000       0.00000    
     55950 TIP3     10345    TIP3     H1       HT       0.417000       1.00800           0   0.00000       0.00000    
     55951 TIP3     10345    TIP3     H2       HT       0.417000       1.00800           0   0.00000     -0.301140E-02
     55952 TIP3     10346    TIP3     OH2      OT      -0.834000       15.9994           0   0.00000       0.00000    
     55953 TIP3     10346    TIP3     H1       HT       0.417000       1.00800           0   0.00000       0.00000    
     55954 TIP3     10346    TIP3     H2       HT       0.417000       1.00800           0   0.00000     -0.301140E-02
     55955 TIP3     10347    TIP3     OH2      OT      -0.834000       15.9994           0   0.00000       0.00000    
     55956 TIP3     10347    TIP3     H1       HT       0.417000       1.00800           0   0.00000       0.00000    
     55957 TIP3     10347    TIP3     H2       HT       0.417000       1.00800           0   0.00000     -0.301140E-02
     55958 TIP3     10348    TIP3     OH2      OT      -0.834000       15.9994           0   0.00000       0.00000    
     55959 TIP3     10348    TIP3     H1       HT       0.417000       1.00800           0   0.00000       0.00000    
     55960 TIP3     10348    TIP3     H2       HT       0.417000       1.00800           0   0.00000     -0.301140E-02
     55961 TIP3     10349    TIP3     OH2      OT      -0.834000       15.9994           0   0.00000       0.00000    
     55962 TIP3     10349    TIP3     H1       HT       0.417000       1.00800           0   0.00000       0.00000    
     55963 TIP3     10349    TIP3     H2       HT       0.417000       1.00800           0   0.00000     -0.301140E-02
     55964 TIP3     10350    TIP3     OH2      OT      -0.834000       15.9994           0   0.00000       0.00000    
     55965 TIP3     10350    TIP3     H1       HT       0.417000       1.00800           0   0.00000       0.00000    
     55966 TIP3     10350    TIP3     H2       HT       0.417000       1.00800           0   0.00000     -0.301140E-02
     55967 TIP3     10351    TIP3     OH2      OT      -0.834000       15.9994           0   0.00000       0.00000    
     55968 TIP3     10351    TIP3     H1       HT       0.417000       1.00800           0   0.00000       0.00000    
     55969 TIP3     10351    TIP3     H2       HT       0.417000       1.00800           0   0.00000     -0.301140E-02
     55970 TIP3     10352    TIP3     OH2      OT      -0.834000       15.9994           0   0.00000       0.00000    
     55971 TIP3     10352    TIP3     H1       HT       0.417000       1.00800           0   0.00000       0.00000    
     55972 TIP3     10352    TIP3     H2       HT       0.417000       1.00800           0   0.00000     -0.301140E-02
     55973 TIP3     10353    TIP3     OH2      OT      -0.834000       15.9994           0   0.00000       0.00000    
     55974 TIP3     10353    TIP3     H1       HT       0.417000       1.00800           0   0.00000       0.00000    
     55975 TIP3     10353    TIP3     H2       HT       0.417000       1.00800           0   0.00000     -0.301140E-02
     55976 TIP3     10354    TIP3     OH2      OT      -0.834000       15.9994           0   0.00000       0.00000    
     55977 TIP3     10354    TIP3     H1       HT       0.417000       1.00800           0   0.00000       0.00000    
     55978 TIP3     10354    TIP3     H2       HT       0.417000       1.00800           0   0.00000     -0.301140E-02
     55979 TIP3     10355    TIP3     OH2      OT      -0.834000       15.9994           0   0.00000       0.00000    
     55980 TIP3     10355    TIP3     H1       HT       0.417000       1.00800           0   0.00000       0.00000    
     55981 TIP3     10355    TIP3     H2       HT       0.417000       1.00800           0   0.00000     -0.301140E-02
     55982 TIP3     10356    TIP3     OH2      OT      -0.834000       15.9994           0   0.00000       0.00000    
     55983 TIP3     10356    TIP3     H1       HT       0.417000       1.00800           0   0.00000       0.00000    
     55984 TIP3     10356    TIP3     H2       HT       0.417000       1.00800           0   0.00000     -0.301140E-02
     55985 TIP3     10357    TIP3     OH2      OT      -0.834000       15.9994           0   0.00000       0.00000    
     55986 TIP3     10357    TIP3     H1       HT       0.417000       1.00800           0   0.00000       0.00000    
     55987 TIP3     10357    TIP3     H2       HT       0.417000       1.00800           0   0.00000     -0.301140E-02
     55988 TIP3     10358    TIP3     OH2      OT      -0.834000       15.9994           0   0.00000       0.00000    
     55989 TIP3     10358    TIP3     H1       HT       0.417000       1.00800           0   0.00000       0.00000    
     55990 TIP3     10358    TIP3     H2       HT       0.417000       1.00800           0   0.00000     -0.301140E-02
     55991 TIP3     10359    TIP3     OH2      OT      -0.834000       15.9994           0   0.00000       0.00000    
     55992 TIP3     10359    TIP3     H1       HT       0.417000       1.00800           0   0.00000       0.00000    
     55993 TIP3     10359    TIP3     H2       HT       0.417000       1.00800           0   0.00000     -0.301140E-02
     55994 TIP3     10360    TIP3     OH2      OT      -0.834000       15.9994           0   0.00000       0.00000    
     55995 TIP3     10360    TIP3     H1       HT       0.417000       1.00800           0   0.00000       0.00000    
     55996 TIP3     10360    TIP3     H2       HT       0.417000       1.00800           0   0.00000     -0.301140E-02
     55997 TIP3     10361    TIP3     OH2      OT      -0.834000       15.9994           0   0.00000       0.00000    
     55998 TIP3     10361    TIP3     H1       HT       0.417000       1.00800           0   0.00000       0.00000    
     55999 TIP3     10361    TIP3     H2       HT       0.417000       1.00800           0   0.00000     -0.301140E-02
     56000 TIP3     10362    TIP3     OH2      OT      -0.834000       15.9994           0   0.00000       0.00000    
     56001 TIP3     10362    TIP3     H1       HT       0.417000       1.00800           0   0.00000       0.00000    
     56002 TIP3     10362    TIP3     H2       HT       0.417000       1.00800           0   0.00000     -0.301140E-02
     56003 TIP3     10363    TIP3     OH2      OT      -0.834000       15.9994           0   0.00000       0.00000    
     56004 TIP3     10363    TIP3     H1       HT       0.417000       1.00800           0   0.00000       0.00000    
     56005 TIP3     10363    TIP3     H2       HT       0.417000       1.00800           0   0.00000     -0.301140E-02
     56006 TIP3     10364    TIP3     OH2      OT      -0.834000       15.9994           0   0.00000       0.00000    
     56007 TIP3     10364    TIP3     H1       HT       0.417000       1.00800           0   0.00000       0.00000    
     56008 TIP3     10364    TIP3     H2       HT       0.417000       1.00800           0   0.00000     -0.301140E-02
     56009 TIP3     10365    TIP3     OH2      OT      -0.834000       15.9994           0   0.00000       0.00000    
     56010 TIP3     10365    TIP3     H1       HT       0.417000       1.00800           0   0.00000       0.00000    
     56011 TIP3     10365    TIP3     H2       HT       0.417000       1.00800           0   0.00000     -0.301140E-02
     56012 TIP3     10366    TIP3     OH2      OT      -0.834000       15.9994           0   0.00000       0.00000    
     56013 TIP3     10366    TIP3     H1       HT       0.417000       1.00800           0   0.00000       0.00000    
     56014 TIP3     10366    TIP3     H2       HT       0.417000       1.00800           0   0.00000     -0.301140E-02
     56015 TIP3     10367    TIP3     OH2      OT      -0.834000       15.9994           0   0.00000       0.00000    
     56016 TIP3     10367    TIP3     H1       HT       0.417000       1.00800           0   0.00000       0.00000    
     56017 TIP3     10367    TIP3     H2       HT       0.417000       1.00800           0   0.00000     -0.301140E-02
     56018 TIP3     10368    TIP3     OH2      OT      -0.834000       15.9994           0   0.00000       0.00000    
     56019 TIP3     10368    TIP3     H1       HT       0.417000       1.00800           0   0.00000       0.00000    
     56020 TIP3     10368    TIP3     H2       HT       0.417000       1.00800           0   0.00000     -0.301140E-02
     56021 TIP3     10369    TIP3     OH2      OT      -0.834000       15.9994           0   0.00000       0.00000    
     56022 TIP3     10369    TIP3     H1       HT       0.417000       1.00800           0   0.00000       0.00000    
     56023 TIP3     10369    TIP3     H2       HT       0.417000       1.00800           0   0.00000     -0.301140E-02
     56024 TIP3     10370    TIP3     OH2      OT      -0.834000       15.9994           0   0.00000       0.00000    
     56025 TIP3     10370    TIP3     H1       HT       0.417000       1.00800           0   0.00000       0.00000    
     56026 TIP3     10370    TIP3     H2       HT       0.417000       1.00800           0   0.00000     -0.301140E-02
     56027 TIP3     10371    TIP3     OH2      OT      -0.834000       15.9994           0   0.00000       0.00000    
     56028 TIP3     10371    TIP3     H1       HT       0.417000       1.00800           0   0.00000       0.00000    
     56029 TIP3     10371    TIP3     H2       HT       0.417000       1.00800           0   0.00000     -0.301140E-02
     56030 TIP3     10372    TIP3     OH2      OT      -0.834000       15.9994           0   0.00000       0.00000    
     56031 TIP3     10372    TIP3     H1       HT       0.417000       1.00800           0   0.00000       0.00000    
     56032 TIP3     10372    TIP3     H2       HT       0.417000       1.00800           0   0.00000     -0.301140E-02
     56033 TIP3     10373    TIP3     OH2      OT      -0.834000       15.9994           0   0.00000       0.00000    
     56034 TIP3     10373    TIP3     H1       HT       0.417000       1.00800           0   0.00000       0.00000    
     56035 TIP3     10373    TIP3     H2       HT       0.417000       1.00800           0   0.00000     -0.301140E-02
     56036 TIP3     10374    TIP3     OH2      OT      -0.834000       15.9994           0   0.00000       0.00000    
     56037 TIP3     10374    TIP3     H1       HT       0.417000       1.00800           0   0.00000       0.00000    
     56038 TIP3     10374    TIP3     H2       HT       0.417000       1.00800           0   0.00000     -0.301140E-02
     56039 TIP3     10375    TIP3     OH2      OT      -0.834000       15.9994           0   0.00000       0.00000    
     56040 TIP3     10375    TIP3     H1       HT       0.417000       1.00800           0   0.00000       0.00000    
     56041 TIP3     10375    TIP3     H2       HT       0.417000       1.00800           0   0.00000     -0.301140E-02
     56042 TIP3     10376    TIP3     OH2      OT      -0.834000       15.9994           0   0.00000       0.00000    
     56043 TIP3     10376    TIP3     H1       HT       0.417000       1.00800           0   0.00000       0.00000    
     56044 TIP3     10376    TIP3     H2       HT       0.417000       1.00800           0   0.00000     -0.301140E-02
     56045 TIP3     10377    TIP3     OH2      OT      -0.834000       15.9994           0   0.00000       0.00000    
     56046 TIP3     10377    TIP3     H1       HT       0.417000       1.00800           0   0.00000       0.00000    
     56047 TIP3     10377    TIP3     H2       HT       0.417000       1.00800           0   0.00000     -0.301140E-02
     56048 TIP3     10378    TIP3     OH2      OT      -0.834000       15.9994           0   0.00000       0.00000    
     56049 TIP3     10378    TIP3     H1       HT       0.417000       1.00800           0   0.00000       0.00000    
     56050 TIP3     10378    TIP3     H2       HT       0.417000       1.00800           0   0.00000     -0.301140E-02
     56051 TIP3     10379    TIP3     OH2      OT      -0.834000       15.9994           0   0.00000       0.00000    
     56052 TIP3     10379    TIP3     H1       HT       0.417000       1.00800           0   0.00000       0.00000    
     56053 TIP3     10379    TIP3     H2       HT       0.417000       1.00800           0   0.00000     -0.301140E-02
     56054 TIP3     10380    TIP3     OH2      OT      -0.834000       15.9994           0   0.00000       0.00000    
     56055 TIP3     10380    TIP3     H1       HT       0.417000       1.00800           0   0.00000       0.00000    
     56056 TIP3     10380    TIP3     H2       HT       0.417000       1.00800           0   0.00000     -0.301140E-02
     56057 TIP3     10381    TIP3     OH2      OT      -0.834000       15.9994           0   0.00000       0.00000    
     56058 TIP3     10381    TIP3     H1       HT       0.417000       1.00800           0   0.00000       0.00000    
     56059 TIP3     10381    TIP3     H2       HT       0.417000       1.00800           0   0.00000     -0.301140E-02
     56060 TIP3     10382    TIP3     OH2      OT      -0.834000       15.9994           0   0.00000       0.00000    
     56061 TIP3     10382    TIP3     H1       HT       0.417000       1.00800           0   0.00000       0.00000    
     56062 TIP3     10382    TIP3     H2       HT       0.417000       1.00800           0   0.00000     -0.301140E-02
     56063 TIP3     10383    TIP3     OH2      OT      -0.834000       15.9994           0   0.00000       0.00000    
     56064 TIP3     10383    TIP3     H1       HT       0.417000       1.00800           0   0.00000       0.00000    
     56065 TIP3     10383    TIP3     H2       HT       0.417000       1.00800           0   0.00000     -0.301140E-02
     56066 TIP3     10384    TIP3     OH2      OT      -0.834000       15.9994           0   0.00000       0.00000    
     56067 TIP3     10384    TIP3     H1       HT       0.417000       1.00800           0   0.00000       0.00000    
     56068 TIP3     10384    TIP3     H2       HT       0.417000       1.00800           0   0.00000     -0.301140E-02
     56069 TIP3     10385    TIP3     OH2      OT      -0.834000       15.9994           0   0.00000       0.00000    
     56070 TIP3     10385    TIP3     H1       HT       0.417000       1.00800           0   0.00000       0.00000    
     56071 TIP3     10385    TIP3     H2       HT       0.417000       1.00800           0   0.00000     -0.301140E-02
     56072 TIP3     10386    TIP3     OH2      OT      -0.834000       15.9994           0   0.00000       0.00000    
     56073 TIP3     10386    TIP3     H1       HT       0.417000       1.00800           0   0.00000       0.00000    
     56074 TIP3     10386    TIP3     H2       HT       0.417000       1.00800           0   0.00000     -0.301140E-02
     56075 TIP3     10387    TIP3     OH2      OT      -0.834000       15.9994           0   0.00000       0.00000    
     56076 TIP3     10387    TIP3     H1       HT       0.417000       1.00800           0   0.00000       0.00000    
     56077 TIP3     10387    TIP3     H2       HT       0.417000       1.00800           0   0.00000     -0.301140E-02
     56078 TIP3     10388    TIP3     OH2      OT      -0.834000       15.9994           0   0.00000       0.00000    
     56079 TIP3     10388    TIP3     H1       HT       0.417000       1.00800           0   0.00000       0.00000    
     56080 TIP3     10388    TIP3     H2       HT       0.417000       1.00800           0   0.00000     -0.301140E-02
     56081 TIP3     10389    TIP3     OH2      OT      -0.834000       15.9994           0   0.00000       0.00000    
     56082 TIP3     10389    TIP3     H1       HT       0.417000       1.00800           0   0.00000       0.00000    
     56083 TIP3     10389    TIP3     H2       HT       0.417000       1.00800           0   0.00000     -0.301140E-02
     56084 TIP3     10390    TIP3     OH2      OT      -0.834000       15.9994           0   0.00000       0.00000    
     56085 TIP3     10390    TIP3     H1       HT       0.417000       1.00800           0   0.00000       0.00000    
     56086 TIP3     10390    TIP3     H2       HT       0.417000       1.00800           0   0.00000     -0.301140E-02
     56087 TIP3     10391    TIP3     OH2      OT      -0.834000       15.9994           0   0.00000       0.00000    
     56088 TIP3     10391    TIP3     H1       HT       0.417000       1.00800           0   0.00000       0.00000    
     56089 TIP3     10391    TIP3     H2       HT       0.417000       1.00800           0   0.00000     -0.301140E-02
     56090 TIP3     10392    TIP3     OH2      OT      -0.834000       15.9994           0   0.00000       0.00000    
     56091 TIP3     10392    TIP3     H1       HT       0.417000       1.00800           0   0.00000       0.00000    
     56092 TIP3     10392    TIP3     H2       HT       0.417000       1.00800           0   0.00000     -0.301140E-02
     56093 TIP3     10393    TIP3     OH2      OT      -0.834000       15.9994           0   0.00000       0.00000    
     56094 TIP3     10393    TIP3     H1       HT       0.417000       1.00800           0   0.00000       0.00000    
     56095 TIP3     10393    TIP3     H2       HT       0.417000       1.00800           0   0.00000     -0.301140E-02
     56096 TIP3     10394    TIP3     OH2      OT      -0.834000       15.9994           0   0.00000       0.00000    
     56097 TIP3     10394    TIP3     H1       HT       0.417000       1.00800           0   0.00000       0.00000    
     56098 TIP3     10394    TIP3     H2       HT       0.417000       1.00800           0   0.00000     -0.301140E-02
     56099 TIP3     10395    TIP3     OH2      OT      -0.834000       15.9994           0   0.00000       0.00000    
     56100 TIP3     10395    TIP3     H1       HT       0.417000       1.00800           0   0.00000       0.00000    
     56101 TIP3     10395    TIP3     H2       HT       0.417000       1.00800           0   0.00000     -0.301140E-02
     56102 TIP3     10396    TIP3     OH2      OT      -0.834000       15.9994           0   0.00000       0.00000    
     56103 TIP3     10396    TIP3     H1       HT       0.417000       1.00800           0   0.00000       0.00000    
     56104 TIP3     10396    TIP3     H2       HT       0.417000       1.00800           0   0.00000     -0.301140E-02
     56105 TIP3     10397    TIP3     OH2      OT      -0.834000       15.9994           0   0.00000       0.00000    
     56106 TIP3     10397    TIP3     H1       HT       0.417000       1.00800           0   0.00000       0.00000    
     56107 TIP3     10397    TIP3     H2       HT       0.417000       1.00800           0   0.00000     -0.301140E-02
     56108 TIP3     10398    TIP3     OH2      OT      -0.834000       15.9994           0   0.00000       0.00000    
     56109 TIP3     10398    TIP3     H1       HT       0.417000       1.00800           0   0.00000       0.00000    
     56110 TIP3     10398    TIP3     H2       HT       0.417000       1.00800           0   0.00000     -0.301140E-02
     56111 TIP3     10399    TIP3     OH2      OT      -0.834000       15.9994           0   0.00000       0.00000    
     56112 TIP3     10399    TIP3     H1       HT       0.417000       1.00800           0   0.00000       0.00000    
     56113 TIP3     10399    TIP3     H2       HT       0.417000       1.00800           0   0.00000     -0.301140E-02
     56114 TIP3     10400    TIP3     OH2      OT      -0.834000       15.9994           0   0.00000       0.00000    
     56115 TIP3     10400    TIP3     H1       HT       0.417000       1.00800           0   0.00000       0.00000    
     56116 TIP3     10400    TIP3     H2       HT       0.417000       1.00800           0   0.00000     -0.301140E-02
     56117 TIP3     10401    TIP3     OH2      OT      -0.834000       15.9994           0   0.00000       0.00000    
     56118 TIP3     10401    TIP3     H1       HT       0.417000       1.00800           0   0.00000       0.00000    
     56119 TIP3     10401    TIP3     H2       HT       0.417000       1.00800           0   0.00000     -0.301140E-02
     56120 TIP3     10402    TIP3     OH2      OT      -0.834000       15.9994           0   0.00000       0.00000    
     56121 TIP3     10402    TIP3     H1       HT       0.417000       1.00800           0   0.00000       0.00000    
     56122 TIP3     10402    TIP3     H2       HT       0.417000       1.00800           0   0.00000     -0.301140E-02
     56123 TIP3     10403    TIP3     OH2      OT      -0.834000       15.9994           0   0.00000       0.00000    
     56124 TIP3     10403    TIP3     H1       HT       0.417000       1.00800           0   0.00000       0.00000    
     56125 TIP3     10403    TIP3     H2       HT       0.417000       1.00800           0   0.00000     -0.301140E-02
     56126 TIP3     10404    TIP3     OH2      OT      -0.834000       15.9994           0   0.00000       0.00000    
     56127 TIP3     10404    TIP3     H1       HT       0.417000       1.00800           0   0.00000       0.00000    
     56128 TIP3     10404    TIP3     H2       HT       0.417000       1.00800           0   0.00000     -0.301140E-02
     56129 TIP3     10405    TIP3     OH2      OT      -0.834000       15.9994           0   0.00000       0.00000    
     56130 TIP3     10405    TIP3     H1       HT       0.417000       1.00800           0   0.00000       0.00000    
     56131 TIP3     10405    TIP3     H2       HT       0.417000       1.00800           0   0.00000     -0.301140E-02
     56132 TIP3     10406    TIP3     OH2      OT      -0.834000       15.9994           0   0.00000       0.00000    
     56133 TIP3     10406    TIP3     H1       HT       0.417000       1.00800           0   0.00000       0.00000    
     56134 TIP3     10406    TIP3     H2       HT       0.417000       1.00800           0   0.00000     -0.301140E-02
     56135 TIP3     10407    TIP3     OH2      OT      -0.834000       15.9994           0   0.00000       0.00000    
     56136 TIP3     10407    TIP3     H1       HT       0.417000       1.00800           0   0.00000       0.00000    
     56137 TIP3     10407    TIP3     H2       HT       0.417000       1.00800           0   0.00000     -0.301140E-02
     56138 TIP3     10408    TIP3     OH2      OT      -0.834000       15.9994           0   0.00000       0.00000    
     56139 TIP3     10408    TIP3     H1       HT       0.417000       1.00800           0   0.00000       0.00000    
     56140 TIP3     10408    TIP3     H2       HT       0.417000       1.00800           0   0.00000     -0.301140E-02
     56141 TIP3     10409    TIP3     OH2      OT      -0.834000       15.9994           0   0.00000       0.00000    
     56142 TIP3     10409    TIP3     H1       HT       0.417000       1.00800           0   0.00000       0.00000    
     56143 TIP3     10409    TIP3     H2       HT       0.417000       1.00800           0   0.00000     -0.301140E-02
     56144 TIP3     10410    TIP3     OH2      OT      -0.834000       15.9994           0   0.00000       0.00000    
     56145 TIP3     10410    TIP3     H1       HT       0.417000       1.00800           0   0.00000       0.00000    
     56146 TIP3     10410    TIP3     H2       HT       0.417000       1.00800           0   0.00000     -0.301140E-02
     56147 TIP3     10411    TIP3     OH2      OT      -0.834000       15.9994           0   0.00000       0.00000    
     56148 TIP3     10411    TIP3     H1       HT       0.417000       1.00800           0   0.00000       0.00000    
     56149 TIP3     10411    TIP3     H2       HT       0.417000       1.00800           0   0.00000     -0.301140E-02
     56150 TIP3     10412    TIP3     OH2      OT      -0.834000       15.9994           0   0.00000       0.00000    
     56151 TIP3     10412    TIP3     H1       HT       0.417000       1.00800           0   0.00000       0.00000    
     56152 TIP3     10412    TIP3     H2       HT       0.417000       1.00800           0   0.00000     -0.301140E-02
     56153 TIP3     10413    TIP3     OH2      OT      -0.834000       15.9994           0   0.00000       0.00000    
     56154 TIP3     10413    TIP3     H1       HT       0.417000       1.00800           0   0.00000       0.00000    
     56155 TIP3     10413    TIP3     H2       HT       0.417000       1.00800           0   0.00000     -0.301140E-02
     56156 TIP3     10414    TIP3     OH2      OT      -0.834000       15.9994           0   0.00000       0.00000    
     56157 TIP3     10414    TIP3     H1       HT       0.417000       1.00800           0   0.00000       0.00000    
     56158 TIP3     10414    TIP3     H2       HT       0.417000       1.00800           0   0.00000     -0.301140E-02
     56159 TIP3     10415    TIP3     OH2      OT      -0.834000       15.9994           0   0.00000       0.00000    
     56160 TIP3     10415    TIP3     H1       HT       0.417000       1.00800           0   0.00000       0.00000    
     56161 TIP3     10415    TIP3     H2       HT       0.417000       1.00800           0   0.00000     -0.301140E-02
     56162 TIP3     10416    TIP3     OH2      OT      -0.834000       15.9994           0   0.00000       0.00000    
     56163 TIP3     10416    TIP3     H1       HT       0.417000       1.00800           0   0.00000       0.00000    
     56164 TIP3     10416    TIP3     H2       HT       0.417000       1.00800           0   0.00000     -0.301140E-02
     56165 TIP3     10417    TIP3     OH2      OT      -0.834000       15.9994           0   0.00000       0.00000    
     56166 TIP3     10417    TIP3     H1       HT       0.417000       1.00800           0   0.00000       0.00000    
     56167 TIP3     10417    TIP3     H2       HT       0.417000       1.00800           0   0.00000     -0.301140E-02
     56168 TIP3     10418    TIP3     OH2      OT      -0.834000       15.9994           0   0.00000       0.00000    
     56169 TIP3     10418    TIP3     H1       HT       0.417000       1.00800           0   0.00000       0.00000    
     56170 TIP3     10418    TIP3     H2       HT       0.417000       1.00800           0   0.00000     -0.301140E-02
     56171 TIP3     10419    TIP3     OH2      OT      -0.834000       15.9994           0   0.00000       0.00000    
     56172 TIP3     10419    TIP3     H1       HT       0.417000       1.00800           0   0.00000       0.00000    
     56173 TIP3     10419    TIP3     H2       HT       0.417000       1.00800           0   0.00000     -0.301140E-02
     56174 TIP3     10420    TIP3     OH2      OT      -0.834000       15.9994           0   0.00000       0.00000    
     56175 TIP3     10420    TIP3     H1       HT       0.417000       1.00800           0   0.00000       0.00000    
     56176 TIP3     10420    TIP3     H2       HT       0.417000       1.00800           0   0.00000     -0.301140E-02
     56177 TIP3     10421    TIP3     OH2      OT      -0.834000       15.9994           0   0.00000       0.00000    
     56178 TIP3     10421    TIP3     H1       HT       0.417000       1.00800           0   0.00000       0.00000    
     56179 TIP3     10421    TIP3     H2       HT       0.417000       1.00800           0   0.00000     -0.301140E-02
     56180 TIP3     10422    TIP3     OH2      OT      -0.834000       15.9994           0   0.00000       0.00000    
     56181 TIP3     10422    TIP3     H1       HT       0.417000       1.00800           0   0.00000       0.00000    
     56182 TIP3     10422    TIP3     H2       HT       0.417000       1.00800           0   0.00000     -0.301140E-02
     56183 TIP3     10423    TIP3     OH2      OT      -0.834000       15.9994           0   0.00000       0.00000    
     56184 TIP3     10423    TIP3     H1       HT       0.417000       1.00800           0   0.00000       0.00000    
     56185 TIP3     10423    TIP3     H2       HT       0.417000       1.00800           0   0.00000     -0.301140E-02
     56186 TIP3     10424    TIP3     OH2      OT      -0.834000       15.9994           0   0.00000       0.00000    
     56187 TIP3     10424    TIP3     H1       HT       0.417000       1.00800           0   0.00000       0.00000    
     56188 TIP3     10424    TIP3     H2       HT       0.417000       1.00800           0   0.00000     -0.301140E-02
     56189 TIP3     10425    TIP3     OH2      OT      -0.834000       15.9994           0   0.00000       0.00000    
     56190 TIP3     10425    TIP3     H1       HT       0.417000       1.00800           0   0.00000       0.00000    
     56191 TIP3     10425    TIP3     H2       HT       0.417000       1.00800           0   0.00000     -0.301140E-02
     56192 TIP3     10426    TIP3     OH2      OT      -0.834000       15.9994           0   0.00000       0.00000    
     56193 TIP3     10426    TIP3     H1       HT       0.417000       1.00800           0   0.00000       0.00000    
     56194 TIP3     10426    TIP3     H2       HT       0.417000       1.00800           0   0.00000     -0.301140E-02
     56195 TIP3     10427    TIP3     OH2      OT      -0.834000       15.9994           0   0.00000       0.00000    
     56196 TIP3     10427    TIP3     H1       HT       0.417000       1.00800           0   0.00000       0.00000    
     56197 TIP3     10427    TIP3     H2       HT       0.417000       1.00800           0   0.00000     -0.301140E-02
     56198 TIP3     10428    TIP3     OH2      OT      -0.834000       15.9994           0   0.00000       0.00000    
     56199 TIP3     10428    TIP3     H1       HT       0.417000       1.00800           0   0.00000       0.00000    
     56200 TIP3     10428    TIP3     H2       HT       0.417000       1.00800           0   0.00000     -0.301140E-02
     56201 TIP3     10429    TIP3     OH2      OT      -0.834000       15.9994           0   0.00000       0.00000    
     56202 TIP3     10429    TIP3     H1       HT       0.417000       1.00800           0   0.00000       0.00000    
     56203 TIP3     10429    TIP3     H2       HT       0.417000       1.00800           0   0.00000     -0.301140E-02
     56204 TIP3     10430    TIP3     OH2      OT      -0.834000       15.9994           0   0.00000       0.00000    
     56205 TIP3     10430    TIP3     H1       HT       0.417000       1.00800           0   0.00000       0.00000    
     56206 TIP3     10430    TIP3     H2       HT       0.417000       1.00800           0   0.00000     -0.301140E-02
     56207 TIP3     10431    TIP3     OH2      OT      -0.834000       15.9994           0   0.00000       0.00000    
     56208 TIP3     10431    TIP3     H1       HT       0.417000       1.00800           0   0.00000       0.00000    
     56209 TIP3     10431    TIP3     H2       HT       0.417000       1.00800           0   0.00000     -0.301140E-02
     56210 TIP3     10432    TIP3     OH2      OT      -0.834000       15.9994           0   0.00000       0.00000    
     56211 TIP3     10432    TIP3     H1       HT       0.417000       1.00800           0   0.00000       0.00000    
     56212 TIP3     10432    TIP3     H2       HT       0.417000       1.00800           0   0.00000     -0.301140E-02
     56213 TIP3     10433    TIP3     OH2      OT      -0.834000       15.9994           0   0.00000       0.00000    
     56214 TIP3     10433    TIP3     H1       HT       0.417000       1.00800           0   0.00000       0.00000    
     56215 TIP3     10433    TIP3     H2       HT       0.417000       1.00800           0   0.00000     -0.301140E-02
     56216 TIP3     10434    TIP3     OH2      OT      -0.834000       15.9994           0   0.00000       0.00000    
     56217 TIP3     10434    TIP3     H1       HT       0.417000       1.00800           0   0.00000       0.00000    
     56218 TIP3     10434    TIP3     H2       HT       0.417000       1.00800           0   0.00000     -0.301140E-02
     56219 TIP3     10435    TIP3     OH2      OT      -0.834000       15.9994           0   0.00000       0.00000    
     56220 TIP3     10435    TIP3     H1       HT       0.417000       1.00800           0   0.00000       0.00000    
     56221 TIP3     10435    TIP3     H2       HT       0.417000       1.00800           0   0.00000     -0.301140E-02
     56222 TIP3     10436    TIP3     OH2      OT      -0.834000       15.9994           0   0.00000       0.00000    
     56223 TIP3     10436    TIP3     H1       HT       0.417000       1.00800           0   0.00000       0.00000    
     56224 TIP3     10436    TIP3     H2       HT       0.417000       1.00800           0   0.00000     -0.301140E-02
     56225 TIP3     10437    TIP3     OH2      OT      -0.834000       15.9994           0   0.00000       0.00000    
     56226 TIP3     10437    TIP3     H1       HT       0.417000       1.00800           0   0.00000       0.00000    
     56227 TIP3     10437    TIP3     H2       HT       0.417000       1.00800           0   0.00000     -0.301140E-02
     56228 TIP3     10438    TIP3     OH2      OT      -0.834000       15.9994           0   0.00000       0.00000    
     56229 TIP3     10438    TIP3     H1       HT       0.417000       1.00800           0   0.00000       0.00000    
     56230 TIP3     10438    TIP3     H2       HT       0.417000       1.00800           0   0.00000     -0.301140E-02
     56231 TIP3     10439    TIP3     OH2      OT      -0.834000       15.9994           0   0.00000       0.00000    
     56232 TIP3     10439    TIP3     H1       HT       0.417000       1.00800           0   0.00000       0.00000    
     56233 TIP3     10439    TIP3     H2       HT       0.417000       1.00800           0   0.00000     -0.301140E-02
     56234 TIP3     10440    TIP3     OH2      OT      -0.834000       15.9994           0   0.00000       0.00000    
     56235 TIP3     10440    TIP3     H1       HT       0.417000       1.00800           0   0.00000       0.00000    
     56236 TIP3     10440    TIP3     H2       HT       0.417000       1.00800           0   0.00000     -0.301140E-02
     56237 TIP3     10441    TIP3     OH2      OT      -0.834000       15.9994           0   0.00000       0.00000    
     56238 TIP3     10441    TIP3     H1       HT       0.417000       1.00800           0   0.00000       0.00000    
     56239 TIP3     10441    TIP3     H2       HT       0.417000       1.00800           0   0.00000     -0.301140E-02
     56240 TIP3     10442    TIP3     OH2      OT      -0.834000       15.9994           0   0.00000       0.00000    
     56241 TIP3     10442    TIP3     H1       HT       0.417000       1.00800           0   0.00000       0.00000    
     56242 TIP3     10442    TIP3     H2       HT       0.417000       1.00800           0   0.00000     -0.301140E-02
     56243 TIP3     10443    TIP3     OH2      OT      -0.834000       15.9994           0   0.00000       0.00000    
     56244 TIP3     10443    TIP3     H1       HT       0.417000       1.00800           0   0.00000       0.00000    
     56245 TIP3     10443    TIP3     H2       HT       0.417000       1.00800           0   0.00000     -0.301140E-02
     56246 TIP3     10444    TIP3     OH2      OT      -0.834000       15.9994           0   0.00000       0.00000    
     56247 TIP3     10444    TIP3     H1       HT       0.417000       1.00800           0   0.00000       0.00000    
     56248 TIP3     10444    TIP3     H2       HT       0.417000       1.00800           0   0.00000     -0.301140E-02
     56249 TIP3     10445    TIP3     OH2      OT      -0.834000       15.9994           0   0.00000       0.00000    
     56250 TIP3     10445    TIP3     H1       HT       0.417000       1.00800           0   0.00000       0.00000    
     56251 TIP3     10445    TIP3     H2       HT       0.417000       1.00800           0   0.00000     -0.301140E-02
     56252 TIP3     10446    TIP3     OH2      OT      -0.834000       15.9994           0   0.00000       0.00000    
     56253 TIP3     10446    TIP3     H1       HT       0.417000       1.00800           0   0.00000       0.00000    
     56254 TIP3     10446    TIP3     H2       HT       0.417000       1.00800           0   0.00000     -0.301140E-02
     56255 TIP3     10447    TIP3     OH2      OT      -0.834000       15.9994           0   0.00000       0.00000    
     56256 TIP3     10447    TIP3     H1       HT       0.417000       1.00800           0   0.00000       0.00000    
     56257 TIP3     10447    TIP3     H2       HT       0.417000       1.00800           0   0.00000     -0.301140E-02
     56258 TIP3     10448    TIP3     OH2      OT      -0.834000       15.9994           0   0.00000       0.00000    
     56259 TIP3     10448    TIP3     H1       HT       0.417000       1.00800           0   0.00000       0.00000    
     56260 TIP3     10448    TIP3     H2       HT       0.417000       1.00800           0   0.00000     -0.301140E-02
     56261 TIP3     10449    TIP3     OH2      OT      -0.834000       15.9994           0   0.00000       0.00000    
     56262 TIP3     10449    TIP3     H1       HT       0.417000       1.00800           0   0.00000       0.00000    
     56263 TIP3     10449    TIP3     H2       HT       0.417000       1.00800           0   0.00000     -0.301140E-02
     56264 TIP3     10450    TIP3     OH2      OT      -0.834000       15.9994           0   0.00000       0.00000    
     56265 TIP3     10450    TIP3     H1       HT       0.417000       1.00800           0   0.00000       0.00000    
     56266 TIP3     10450    TIP3     H2       HT       0.417000       1.00800           0   0.00000     -0.301140E-02
     56267 TIP3     10451    TIP3     OH2      OT      -0.834000       15.9994           0   0.00000       0.00000    
     56268 TIP3     10451    TIP3     H1       HT       0.417000       1.00800           0   0.00000       0.00000    
     56269 TIP3     10451    TIP3     H2       HT       0.417000       1.00800           0   0.00000     -0.301140E-02
     56270 TIP3     10452    TIP3     OH2      OT      -0.834000       15.9994           0   0.00000       0.00000    
     56271 TIP3     10452    TIP3     H1       HT       0.417000       1.00800           0   0.00000       0.00000    
     56272 TIP3     10452    TIP3     H2       HT       0.417000       1.00800           0   0.00000     -0.301140E-02
     56273 TIP3     10453    TIP3     OH2      OT      -0.834000       15.9994           0   0.00000       0.00000    
     56274 TIP3     10453    TIP3     H1       HT       0.417000       1.00800           0   0.00000       0.00000    
     56275 TIP3     10453    TIP3     H2       HT       0.417000       1.00800           0   0.00000     -0.301140E-02
     56276 TIP3     10454    TIP3     OH2      OT      -0.834000       15.9994           0   0.00000       0.00000    
     56277 TIP3     10454    TIP3     H1       HT       0.417000       1.00800           0   0.00000       0.00000    
     56278 TIP3     10454    TIP3     H2       HT       0.417000       1.00800           0   0.00000     -0.301140E-02
     56279 TIP3     10455    TIP3     OH2      OT      -0.834000       15.9994           0   0.00000       0.00000    
     56280 TIP3     10455    TIP3     H1       HT       0.417000       1.00800           0   0.00000       0.00000    
     56281 TIP3     10455    TIP3     H2       HT       0.417000       1.00800           0   0.00000     -0.301140E-02
     56282 TIP3     10456    TIP3     OH2      OT      -0.834000       15.9994           0   0.00000       0.00000    
     56283 TIP3     10456    TIP3     H1       HT       0.417000       1.00800           0   0.00000       0.00000    
     56284 TIP3     10456    TIP3     H2       HT       0.417000       1.00800           0   0.00000     -0.301140E-02
     56285 TIP3     10457    TIP3     OH2      OT      -0.834000       15.9994           0   0.00000       0.00000    
     56286 TIP3     10457    TIP3     H1       HT       0.417000       1.00800           0   0.00000       0.00000    
     56287 TIP3     10457    TIP3     H2       HT       0.417000       1.00800           0   0.00000     -0.301140E-02
     56288 TIP3     10458    TIP3     OH2      OT      -0.834000       15.9994           0   0.00000       0.00000    
     56289 TIP3     10458    TIP3     H1       HT       0.417000       1.00800           0   0.00000       0.00000    
     56290 TIP3     10458    TIP3     H2       HT       0.417000       1.00800           0   0.00000     -0.301140E-02
     56291 TIP3     10459    TIP3     OH2      OT      -0.834000       15.9994           0   0.00000       0.00000    
     56292 TIP3     10459    TIP3     H1       HT       0.417000       1.00800           0   0.00000       0.00000    
     56293 TIP3     10459    TIP3     H2       HT       0.417000       1.00800           0   0.00000     -0.301140E-02
     56294 TIP3     10460    TIP3     OH2      OT      -0.834000       15.9994           0   0.00000       0.00000    
     56295 TIP3     10460    TIP3     H1       HT       0.417000       1.00800           0   0.00000       0.00000    
     56296 TIP3     10460    TIP3     H2       HT       0.417000       1.00800           0   0.00000     -0.301140E-02
     56297 TIP3     10461    TIP3     OH2      OT      -0.834000       15.9994           0   0.00000       0.00000    
     56298 TIP3     10461    TIP3     H1       HT       0.417000       1.00800           0   0.00000       0.00000    
     56299 TIP3     10461    TIP3     H2       HT       0.417000       1.00800           0   0.00000     -0.301140E-02
     56300 TIP3     10462    TIP3     OH2      OT      -0.834000       15.9994           0   0.00000       0.00000    
     56301 TIP3     10462    TIP3     H1       HT       0.417000       1.00800           0   0.00000       0.00000    
     56302 TIP3     10462    TIP3     H2       HT       0.417000       1.00800           0   0.00000     -0.301140E-02
     56303 TIP3     10463    TIP3     OH2      OT      -0.834000       15.9994           0   0.00000       0.00000    
     56304 TIP3     10463    TIP3     H1       HT       0.417000       1.00800           0   0.00000       0.00000    
     56305 TIP3     10463    TIP3     H2       HT       0.417000       1.00800           0   0.00000     -0.301140E-02
     56306 TIP3     10464    TIP3     OH2      OT      -0.834000       15.9994           0   0.00000       0.00000    
     56307 TIP3     10464    TIP3     H1       HT       0.417000       1.00800           0   0.00000       0.00000    
     56308 TIP3     10464    TIP3     H2       HT       0.417000       1.00800           0   0.00000     -0.301140E-02
     56309 TIP3     10465    TIP3     OH2      OT      -0.834000       15.9994           0   0.00000       0.00000    
     56310 TIP3     10465    TIP3     H1       HT       0.417000       1.00800           0   0.00000       0.00000    
     56311 TIP3     10465    TIP3     H2       HT       0.417000       1.00800           0   0.00000     -0.301140E-02
     56312 TIP3     10466    TIP3     OH2      OT      -0.834000       15.9994           0   0.00000       0.00000    
     56313 TIP3     10466    TIP3     H1       HT       0.417000       1.00800           0   0.00000       0.00000    
     56314 TIP3     10466    TIP3     H2       HT       0.417000       1.00800           0   0.00000     -0.301140E-02
     56315 TIP3     10467    TIP3     OH2      OT      -0.834000       15.9994           0   0.00000       0.00000    
     56316 TIP3     10467    TIP3     H1       HT       0.417000       1.00800           0   0.00000       0.00000    
     56317 TIP3     10467    TIP3     H2       HT       0.417000       1.00800           0   0.00000     -0.301140E-02
     56318 TIP3     10468    TIP3     OH2      OT      -0.834000       15.9994           0   0.00000       0.00000    
     56319 TIP3     10468    TIP3     H1       HT       0.417000       1.00800           0   0.00000       0.00000    
     56320 TIP3     10468    TIP3     H2       HT       0.417000       1.00800           0   0.00000     -0.301140E-02
     56321 TIP3     10469    TIP3     OH2      OT      -0.834000       15.9994           0   0.00000       0.00000    
     56322 TIP3     10469    TIP3     H1       HT       0.417000       1.00800           0   0.00000       0.00000    
     56323 TIP3     10469    TIP3     H2       HT       0.417000       1.00800           0   0.00000     -0.301140E-02
     56324 TIP3     10470    TIP3     OH2      OT      -0.834000       15.9994           0   0.00000       0.00000    
     56325 TIP3     10470    TIP3     H1       HT       0.417000       1.00800           0   0.00000       0.00000    
     56326 TIP3     10470    TIP3     H2       HT       0.417000       1.00800           0   0.00000     -0.301140E-02
     56327 TIP3     10471    TIP3     OH2      OT      -0.834000       15.9994           0   0.00000       0.00000    
     56328 TIP3     10471    TIP3     H1       HT       0.417000       1.00800           0   0.00000       0.00000    
     56329 TIP3     10471    TIP3     H2       HT       0.417000       1.00800           0   0.00000     -0.301140E-02
     56330 TIP3     10472    TIP3     OH2      OT      -0.834000       15.9994           0   0.00000       0.00000    
     56331 TIP3     10472    TIP3     H1       HT       0.417000       1.00800           0   0.00000       0.00000    
     56332 TIP3     10472    TIP3     H2       HT       0.417000       1.00800           0   0.00000     -0.301140E-02
     56333 TIP3     10473    TIP3     OH2      OT      -0.834000       15.9994           0   0.00000       0.00000    
     56334 TIP3     10473    TIP3     H1       HT       0.417000       1.00800           0   0.00000       0.00000    
     56335 TIP3     10473    TIP3     H2       HT       0.417000       1.00800           0   0.00000     -0.301140E-02
     56336 TIP3     10474    TIP3     OH2      OT      -0.834000       15.9994           0   0.00000       0.00000    
     56337 TIP3     10474    TIP3     H1       HT       0.417000       1.00800           0   0.00000       0.00000    
     56338 TIP3     10474    TIP3     H2       HT       0.417000       1.00800           0   0.00000     -0.301140E-02
     56339 TIP3     10475    TIP3     OH2      OT      -0.834000       15.9994           0   0.00000       0.00000    
     56340 TIP3     10475    TIP3     H1       HT       0.417000       1.00800           0   0.00000       0.00000    
     56341 TIP3     10475    TIP3     H2       HT       0.417000       1.00800           0   0.00000     -0.301140E-02
     56342 TIP3     10476    TIP3     OH2      OT      -0.834000       15.9994           0   0.00000       0.00000    
     56343 TIP3     10476    TIP3     H1       HT       0.417000       1.00800           0   0.00000       0.00000    
     56344 TIP3     10476    TIP3     H2       HT       0.417000       1.00800           0   0.00000     -0.301140E-02
     56345 TIP3     10477    TIP3     OH2      OT      -0.834000       15.9994           0   0.00000       0.00000    
     56346 TIP3     10477    TIP3     H1       HT       0.417000       1.00800           0   0.00000       0.00000    
     56347 TIP3     10477    TIP3     H2       HT       0.417000       1.00800           0   0.00000     -0.301140E-02
     56348 TIP3     10478    TIP3     OH2      OT      -0.834000       15.9994           0   0.00000       0.00000    
     56349 TIP3     10478    TIP3     H1       HT       0.417000       1.00800           0   0.00000       0.00000    
     56350 TIP3     10478    TIP3     H2       HT       0.417000       1.00800           0   0.00000     -0.301140E-02
     56351 TIP3     10479    TIP3     OH2      OT      -0.834000       15.9994           0   0.00000       0.00000    
     56352 TIP3     10479    TIP3     H1       HT       0.417000       1.00800           0   0.00000       0.00000    
     56353 TIP3     10479    TIP3     H2       HT       0.417000       1.00800           0   0.00000     -0.301140E-02
     56354 TIP3     10480    TIP3     OH2      OT      -0.834000       15.9994           0   0.00000       0.00000    
     56355 TIP3     10480    TIP3     H1       HT       0.417000       1.00800           0   0.00000       0.00000    
     56356 TIP3     10480    TIP3     H2       HT       0.417000       1.00800           0   0.00000     -0.301140E-02
     56357 TIP3     10481    TIP3     OH2      OT      -0.834000       15.9994           0   0.00000       0.00000    
     56358 TIP3     10481    TIP3     H1       HT       0.417000       1.00800           0   0.00000       0.00000    
     56359 TIP3     10481    TIP3     H2       HT       0.417000       1.00800           0   0.00000     -0.301140E-02
     56360 TIP3     10482    TIP3     OH2      OT      -0.834000       15.9994           0   0.00000       0.00000    
     56361 TIP3     10482    TIP3     H1       HT       0.417000       1.00800           0   0.00000       0.00000    
     56362 TIP3     10482    TIP3     H2       HT       0.417000       1.00800           0   0.00000     -0.301140E-02
     56363 TIP3     10483    TIP3     OH2      OT      -0.834000       15.9994           0   0.00000       0.00000    
     56364 TIP3     10483    TIP3     H1       HT       0.417000       1.00800           0   0.00000       0.00000    
     56365 TIP3     10483    TIP3     H2       HT       0.417000       1.00800           0   0.00000     -0.301140E-02
     56366 TIP3     10484    TIP3     OH2      OT      -0.834000       15.9994           0   0.00000       0.00000    
     56367 TIP3     10484    TIP3     H1       HT       0.417000       1.00800           0   0.00000       0.00000    
     56368 TIP3     10484    TIP3     H2       HT       0.417000       1.00800           0   0.00000     -0.301140E-02
     56369 TIP3     10485    TIP3     OH2      OT      -0.834000       15.9994           0   0.00000       0.00000    
     56370 TIP3     10485    TIP3     H1       HT       0.417000       1.00800           0   0.00000       0.00000    
     56371 TIP3     10485    TIP3     H2       HT       0.417000       1.00800           0   0.00000     -0.301140E-02
     56372 TIP3     10486    TIP3     OH2      OT      -0.834000       15.9994           0   0.00000       0.00000    
     56373 TIP3     10486    TIP3     H1       HT       0.417000       1.00800           0   0.00000       0.00000    
     56374 TIP3     10486    TIP3     H2       HT       0.417000       1.00800           0   0.00000     -0.301140E-02
     56375 TIP3     10487    TIP3     OH2      OT      -0.834000       15.9994           0   0.00000       0.00000    
     56376 TIP3     10487    TIP3     H1       HT       0.417000       1.00800           0   0.00000       0.00000    
     56377 TIP3     10487    TIP3     H2       HT       0.417000       1.00800           0   0.00000     -0.301140E-02
     56378 TIP3     10488    TIP3     OH2      OT      -0.834000       15.9994           0   0.00000       0.00000    
     56379 TIP3     10488    TIP3     H1       HT       0.417000       1.00800           0   0.00000       0.00000    
     56380 TIP3     10488    TIP3     H2       HT       0.417000       1.00800           0   0.00000     -0.301140E-02
     56381 TIP3     10489    TIP3     OH2      OT      -0.834000       15.9994           0   0.00000       0.00000    
     56382 TIP3     10489    TIP3     H1       HT       0.417000       1.00800           0   0.00000       0.00000    
     56383 TIP3     10489    TIP3     H2       HT       0.417000       1.00800           0   0.00000     -0.301140E-02
     56384 TIP3     10490    TIP3     OH2      OT      -0.834000       15.9994           0   0.00000       0.00000    
     56385 TIP3     10490    TIP3     H1       HT       0.417000       1.00800           0   0.00000       0.00000    
     56386 TIP3     10490    TIP3     H2       HT       0.417000       1.00800           0   0.00000     -0.301140E-02
     56387 TIP3     10491    TIP3     OH2      OT      -0.834000       15.9994           0   0.00000       0.00000    
     56388 TIP3     10491    TIP3     H1       HT       0.417000       1.00800           0   0.00000       0.00000    
     56389 TIP3     10491    TIP3     H2       HT       0.417000       1.00800           0   0.00000     -0.301140E-02
     56390 TIP3     10492    TIP3     OH2      OT      -0.834000       15.9994           0   0.00000       0.00000    
     56391 TIP3     10492    TIP3     H1       HT       0.417000       1.00800           0   0.00000       0.00000    
     56392 TIP3     10492    TIP3     H2       HT       0.417000       1.00800           0   0.00000     -0.301140E-02
     56393 TIP3     10493    TIP3     OH2      OT      -0.834000       15.9994           0   0.00000       0.00000    
     56394 TIP3     10493    TIP3     H1       HT       0.417000       1.00800           0   0.00000       0.00000    
     56395 TIP3     10493    TIP3     H2       HT       0.417000       1.00800           0   0.00000     -0.301140E-02
     56396 TIP3     10494    TIP3     OH2      OT      -0.834000       15.9994           0   0.00000       0.00000    
     56397 TIP3     10494    TIP3     H1       HT       0.417000       1.00800           0   0.00000       0.00000    
     56398 TIP3     10494    TIP3     H2       HT       0.417000       1.00800           0   0.00000     -0.301140E-02
     56399 TIP3     10495    TIP3     OH2      OT      -0.834000       15.9994           0   0.00000       0.00000    
     56400 TIP3     10495    TIP3     H1       HT       0.417000       1.00800           0   0.00000       0.00000    
     56401 TIP3     10495    TIP3     H2       HT       0.417000       1.00800           0   0.00000     -0.301140E-02
     56402 TIP3     10496    TIP3     OH2      OT      -0.834000       15.9994           0   0.00000       0.00000    
     56403 TIP3     10496    TIP3     H1       HT       0.417000       1.00800           0   0.00000       0.00000    
     56404 TIP3     10496    TIP3     H2       HT       0.417000       1.00800           0   0.00000     -0.301140E-02
     56405 TIP3     10497    TIP3     OH2      OT      -0.834000       15.9994           0   0.00000       0.00000    
     56406 TIP3     10497    TIP3     H1       HT       0.417000       1.00800           0   0.00000       0.00000    
     56407 TIP3     10497    TIP3     H2       HT       0.417000       1.00800           0   0.00000     -0.301140E-02
     56408 TIP3     10498    TIP3     OH2      OT      -0.834000       15.9994           0   0.00000       0.00000    
     56409 TIP3     10498    TIP3     H1       HT       0.417000       1.00800           0   0.00000       0.00000    
     56410 TIP3     10498    TIP3     H2       HT       0.417000       1.00800           0   0.00000     -0.301140E-02
     56411 TIP3     10499    TIP3     OH2      OT      -0.834000       15.9994           0   0.00000       0.00000    
     56412 TIP3     10499    TIP3     H1       HT       0.417000       1.00800           0   0.00000       0.00000    
     56413 TIP3     10499    TIP3     H2       HT       0.417000       1.00800           0   0.00000     -0.301140E-02
     56414 TIP3     10500    TIP3     OH2      OT      -0.834000       15.9994           0   0.00000       0.00000    
     56415 TIP3     10500    TIP3     H1       HT       0.417000       1.00800           0   0.00000       0.00000    
     56416 TIP3     10500    TIP3     H2       HT       0.417000       1.00800           0   0.00000     -0.301140E-02
     56417 TIP3     10501    TIP3     OH2      OT      -0.834000       15.9994           0   0.00000       0.00000    
     56418 TIP3     10501    TIP3     H1       HT       0.417000       1.00800           0   0.00000       0.00000    
     56419 TIP3     10501    TIP3     H2       HT       0.417000       1.00800           0   0.00000     -0.301140E-02
     56420 TIP3     10502    TIP3     OH2      OT      -0.834000       15.9994           0   0.00000       0.00000    
     56421 TIP3     10502    TIP3     H1       HT       0.417000       1.00800           0   0.00000       0.00000    
     56422 TIP3     10502    TIP3     H2       HT       0.417000       1.00800           0   0.00000     -0.301140E-02
     56423 TIP3     10503    TIP3     OH2      OT      -0.834000       15.9994           0   0.00000       0.00000    
     56424 TIP3     10503    TIP3     H1       HT       0.417000       1.00800           0   0.00000       0.00000    
     56425 TIP3     10503    TIP3     H2       HT       0.417000       1.00800           0   0.00000     -0.301140E-02
     56426 TIP3     10504    TIP3     OH2      OT      -0.834000       15.9994           0   0.00000       0.00000    
     56427 TIP3     10504    TIP3     H1       HT       0.417000       1.00800           0   0.00000       0.00000    
     56428 TIP3     10504    TIP3     H2       HT       0.417000       1.00800           0   0.00000     -0.301140E-02
     56429 TIP3     10505    TIP3     OH2      OT      -0.834000       15.9994           0   0.00000       0.00000    
     56430 TIP3     10505    TIP3     H1       HT       0.417000       1.00800           0   0.00000       0.00000    
     56431 TIP3     10505    TIP3     H2       HT       0.417000       1.00800           0   0.00000     -0.301140E-02
     56432 TIP3     10506    TIP3     OH2      OT      -0.834000       15.9994           0   0.00000       0.00000    
     56433 TIP3     10506    TIP3     H1       HT       0.417000       1.00800           0   0.00000       0.00000    
     56434 TIP3     10506    TIP3     H2       HT       0.417000       1.00800           0   0.00000     -0.301140E-02
     56435 TIP3     10507    TIP3     OH2      OT      -0.834000       15.9994           0   0.00000       0.00000    
     56436 TIP3     10507    TIP3     H1       HT       0.417000       1.00800           0   0.00000       0.00000    
     56437 TIP3     10507    TIP3     H2       HT       0.417000       1.00800           0   0.00000     -0.301140E-02
     56438 TIP3     10508    TIP3     OH2      OT      -0.834000       15.9994           0   0.00000       0.00000    
     56439 TIP3     10508    TIP3     H1       HT       0.417000       1.00800           0   0.00000       0.00000    
     56440 TIP3     10508    TIP3     H2       HT       0.417000       1.00800           0   0.00000     -0.301140E-02
     56441 TIP3     10509    TIP3     OH2      OT      -0.834000       15.9994           0   0.00000       0.00000    
     56442 TIP3     10509    TIP3     H1       HT       0.417000       1.00800           0   0.00000       0.00000    
     56443 TIP3     10509    TIP3     H2       HT       0.417000       1.00800           0   0.00000     -0.301140E-02
     56444 TIP3     10510    TIP3     OH2      OT      -0.834000       15.9994           0   0.00000       0.00000    
     56445 TIP3     10510    TIP3     H1       HT       0.417000       1.00800           0   0.00000       0.00000    
     56446 TIP3     10510    TIP3     H2       HT       0.417000       1.00800           0   0.00000     -0.301140E-02
     56447 TIP3     10511    TIP3     OH2      OT      -0.834000       15.9994           0   0.00000       0.00000    
     56448 TIP3     10511    TIP3     H1       HT       0.417000       1.00800           0   0.00000       0.00000    
     56449 TIP3     10511    TIP3     H2       HT       0.417000       1.00800           0   0.00000     -0.301140E-02
     56450 TIP3     10512    TIP3     OH2      OT      -0.834000       15.9994           0   0.00000       0.00000    
     56451 TIP3     10512    TIP3     H1       HT       0.417000       1.00800           0   0.00000       0.00000    
     56452 TIP3     10512    TIP3     H2       HT       0.417000       1.00800           0   0.00000     -0.301140E-02
     56453 TIP3     10513    TIP3     OH2      OT      -0.834000       15.9994           0   0.00000       0.00000    
     56454 TIP3     10513    TIP3     H1       HT       0.417000       1.00800           0   0.00000       0.00000    
     56455 TIP3     10513    TIP3     H2       HT       0.417000       1.00800           0   0.00000     -0.301140E-02
     56456 TIP3     10514    TIP3     OH2      OT      -0.834000       15.9994           0   0.00000       0.00000    
     56457 TIP3     10514    TIP3     H1       HT       0.417000       1.00800           0   0.00000       0.00000    
     56458 TIP3     10514    TIP3     H2       HT       0.417000       1.00800           0   0.00000     -0.301140E-02
     56459 TIP3     10515    TIP3     OH2      OT      -0.834000       15.9994           0   0.00000       0.00000    
     56460 TIP3     10515    TIP3     H1       HT       0.417000       1.00800           0   0.00000       0.00000    
     56461 TIP3     10515    TIP3     H2       HT       0.417000       1.00800           0   0.00000     -0.301140E-02
     56462 TIP3     10516    TIP3     OH2      OT      -0.834000       15.9994           0   0.00000       0.00000    
     56463 TIP3     10516    TIP3     H1       HT       0.417000       1.00800           0   0.00000       0.00000    
     56464 TIP3     10516    TIP3     H2       HT       0.417000       1.00800           0   0.00000     -0.301140E-02
     56465 TIP3     10517    TIP3     OH2      OT      -0.834000       15.9994           0   0.00000       0.00000    
     56466 TIP3     10517    TIP3     H1       HT       0.417000       1.00800           0   0.00000       0.00000    
     56467 TIP3     10517    TIP3     H2       HT       0.417000       1.00800           0   0.00000     -0.301140E-02
     56468 TIP3     10518    TIP3     OH2      OT      -0.834000       15.9994           0   0.00000       0.00000    
     56469 TIP3     10518    TIP3     H1       HT       0.417000       1.00800           0   0.00000       0.00000    
     56470 TIP3     10518    TIP3     H2       HT       0.417000       1.00800           0   0.00000     -0.301140E-02
     56471 TIP3     10519    TIP3     OH2      OT      -0.834000       15.9994           0   0.00000       0.00000    
     56472 TIP3     10519    TIP3     H1       HT       0.417000       1.00800           0   0.00000       0.00000    
     56473 TIP3     10519    TIP3     H2       HT       0.417000       1.00800           0   0.00000     -0.301140E-02
     56474 TIP3     10520    TIP3     OH2      OT      -0.834000       15.9994           0   0.00000       0.00000    
     56475 TIP3     10520    TIP3     H1       HT       0.417000       1.00800           0   0.00000       0.00000    
     56476 TIP3     10520    TIP3     H2       HT       0.417000       1.00800           0   0.00000     -0.301140E-02
     56477 TIP3     10521    TIP3     OH2      OT      -0.834000       15.9994           0   0.00000       0.00000    
     56478 TIP3     10521    TIP3     H1       HT       0.417000       1.00800           0   0.00000       0.00000    
     56479 TIP3     10521    TIP3     H2       HT       0.417000       1.00800           0   0.00000     -0.301140E-02
     56480 TIP3     10522    TIP3     OH2      OT      -0.834000       15.9994           0   0.00000       0.00000    
     56481 TIP3     10522    TIP3     H1       HT       0.417000       1.00800           0   0.00000       0.00000    
     56482 TIP3     10522    TIP3     H2       HT       0.417000       1.00800           0   0.00000     -0.301140E-02
     56483 TIP3     10523    TIP3     OH2      OT      -0.834000       15.9994           0   0.00000       0.00000    
     56484 TIP3     10523    TIP3     H1       HT       0.417000       1.00800           0   0.00000       0.00000    
     56485 TIP3     10523    TIP3     H2       HT       0.417000       1.00800           0   0.00000     -0.301140E-02
     56486 TIP3     10524    TIP3     OH2      OT      -0.834000       15.9994           0   0.00000       0.00000    
     56487 TIP3     10524    TIP3     H1       HT       0.417000       1.00800           0   0.00000       0.00000    
     56488 TIP3     10524    TIP3     H2       HT       0.417000       1.00800           0   0.00000     -0.301140E-02
     56489 TIP3     10525    TIP3     OH2      OT      -0.834000       15.9994           0   0.00000       0.00000    
     56490 TIP3     10525    TIP3     H1       HT       0.417000       1.00800           0   0.00000       0.00000    
     56491 TIP3     10525    TIP3     H2       HT       0.417000       1.00800           0   0.00000     -0.301140E-02
     56492 TIP3     10526    TIP3     OH2      OT      -0.834000       15.9994           0   0.00000       0.00000    
     56493 TIP3     10526    TIP3     H1       HT       0.417000       1.00800           0   0.00000       0.00000    
     56494 TIP3     10526    TIP3     H2       HT       0.417000       1.00800           0   0.00000     -0.301140E-02
     56495 TIP3     10527    TIP3     OH2      OT      -0.834000       15.9994           0   0.00000       0.00000    
     56496 TIP3     10527    TIP3     H1       HT       0.417000       1.00800           0   0.00000       0.00000    
     56497 TIP3     10527    TIP3     H2       HT       0.417000       1.00800           0   0.00000     -0.301140E-02
     56498 TIP3     10528    TIP3     OH2      OT      -0.834000       15.9994           0   0.00000       0.00000    
     56499 TIP3     10528    TIP3     H1       HT       0.417000       1.00800           0   0.00000       0.00000    
     56500 TIP3     10528    TIP3     H2       HT       0.417000       1.00800           0   0.00000     -0.301140E-02
     56501 TIP3     10529    TIP3     OH2      OT      -0.834000       15.9994           0   0.00000       0.00000    
     56502 TIP3     10529    TIP3     H1       HT       0.417000       1.00800           0   0.00000       0.00000    
     56503 TIP3     10529    TIP3     H2       HT       0.417000       1.00800           0   0.00000     -0.301140E-02
     56504 TIP3     10530    TIP3     OH2      OT      -0.834000       15.9994           0   0.00000       0.00000    
     56505 TIP3     10530    TIP3     H1       HT       0.417000       1.00800           0   0.00000       0.00000    
     56506 TIP3     10530    TIP3     H2       HT       0.417000       1.00800           0   0.00000     -0.301140E-02
     56507 TIP3     10531    TIP3     OH2      OT      -0.834000       15.9994           0   0.00000       0.00000    
     56508 TIP3     10531    TIP3     H1       HT       0.417000       1.00800           0   0.00000       0.00000    
     56509 TIP3     10531    TIP3     H2       HT       0.417000       1.00800           0   0.00000     -0.301140E-02
     56510 TIP3     10532    TIP3     OH2      OT      -0.834000       15.9994           0   0.00000       0.00000    
     56511 TIP3     10532    TIP3     H1       HT       0.417000       1.00800           0   0.00000       0.00000    
     56512 TIP3     10532    TIP3     H2       HT       0.417000       1.00800           0   0.00000     -0.301140E-02
     56513 TIP3     10533    TIP3     OH2      OT      -0.834000       15.9994           0   0.00000       0.00000    
     56514 TIP3     10533    TIP3     H1       HT       0.417000       1.00800           0   0.00000       0.00000    
     56515 TIP3     10533    TIP3     H2       HT       0.417000       1.00800           0   0.00000     -0.301140E-02
     56516 TIP3     10534    TIP3     OH2      OT      -0.834000       15.9994           0   0.00000       0.00000    
     56517 TIP3     10534    TIP3     H1       HT       0.417000       1.00800           0   0.00000       0.00000    
     56518 TIP3     10534    TIP3     H2       HT       0.417000       1.00800           0   0.00000     -0.301140E-02
     56519 TIP3     10535    TIP3     OH2      OT      -0.834000       15.9994           0   0.00000       0.00000    
     56520 TIP3     10535    TIP3     H1       HT       0.417000       1.00800           0   0.00000       0.00000    
     56521 TIP3     10535    TIP3     H2       HT       0.417000       1.00800           0   0.00000     -0.301140E-02
     56522 TIP3     10536    TIP3     OH2      OT      -0.834000       15.9994           0   0.00000       0.00000    
     56523 TIP3     10536    TIP3     H1       HT       0.417000       1.00800           0   0.00000       0.00000    
     56524 TIP3     10536    TIP3     H2       HT       0.417000       1.00800           0   0.00000     -0.301140E-02
     56525 TIP3     10537    TIP3     OH2      OT      -0.834000       15.9994           0   0.00000       0.00000    
     56526 TIP3     10537    TIP3     H1       HT       0.417000       1.00800           0   0.00000       0.00000    
     56527 TIP3     10537    TIP3     H2       HT       0.417000       1.00800           0   0.00000     -0.301140E-02
     56528 TIP3     10538    TIP3     OH2      OT      -0.834000       15.9994           0   0.00000       0.00000    
     56529 TIP3     10538    TIP3     H1       HT       0.417000       1.00800           0   0.00000       0.00000    
     56530 TIP3     10538    TIP3     H2       HT       0.417000       1.00800           0   0.00000     -0.301140E-02
     56531 TIP3     10539    TIP3     OH2      OT      -0.834000       15.9994           0   0.00000       0.00000    
     56532 TIP3     10539    TIP3     H1       HT       0.417000       1.00800           0   0.00000       0.00000    
     56533 TIP3     10539    TIP3     H2       HT       0.417000       1.00800           0   0.00000     -0.301140E-02
     56534 TIP3     10540    TIP3     OH2      OT      -0.834000       15.9994           0   0.00000       0.00000    
     56535 TIP3     10540    TIP3     H1       HT       0.417000       1.00800           0   0.00000       0.00000    
     56536 TIP3     10540    TIP3     H2       HT       0.417000       1.00800           0   0.00000     -0.301140E-02
     56537 TIP3     10541    TIP3     OH2      OT      -0.834000       15.9994           0   0.00000       0.00000    
     56538 TIP3     10541    TIP3     H1       HT       0.417000       1.00800           0   0.00000       0.00000    
     56539 TIP3     10541    TIP3     H2       HT       0.417000       1.00800           0   0.00000     -0.301140E-02
     56540 TIP3     10542    TIP3     OH2      OT      -0.834000       15.9994           0   0.00000       0.00000    
     56541 TIP3     10542    TIP3     H1       HT       0.417000       1.00800           0   0.00000       0.00000    
     56542 TIP3     10542    TIP3     H2       HT       0.417000       1.00800           0   0.00000     -0.301140E-02
     56543 TIP3     10543    TIP3     OH2      OT      -0.834000       15.9994           0   0.00000       0.00000    
     56544 TIP3     10543    TIP3     H1       HT       0.417000       1.00800           0   0.00000       0.00000    
     56545 TIP3     10543    TIP3     H2       HT       0.417000       1.00800           0   0.00000     -0.301140E-02
     56546 TIP3     10544    TIP3     OH2      OT      -0.834000       15.9994           0   0.00000       0.00000    
     56547 TIP3     10544    TIP3     H1       HT       0.417000       1.00800           0   0.00000       0.00000    
     56548 TIP3     10544    TIP3     H2       HT       0.417000       1.00800           0   0.00000     -0.301140E-02
     56549 TIP3     10545    TIP3     OH2      OT      -0.834000       15.9994           0   0.00000       0.00000    
     56550 TIP3     10545    TIP3     H1       HT       0.417000       1.00800           0   0.00000       0.00000    
     56551 TIP3     10545    TIP3     H2       HT       0.417000       1.00800           0   0.00000     -0.301140E-02
     56552 TIP3     10546    TIP3     OH2      OT      -0.834000       15.9994           0   0.00000       0.00000    
     56553 TIP3     10546    TIP3     H1       HT       0.417000       1.00800           0   0.00000       0.00000    
     56554 TIP3     10546    TIP3     H2       HT       0.417000       1.00800           0   0.00000     -0.301140E-02
     56555 TIP3     10547    TIP3     OH2      OT      -0.834000       15.9994           0   0.00000       0.00000    
     56556 TIP3     10547    TIP3     H1       HT       0.417000       1.00800           0   0.00000       0.00000    
     56557 TIP3     10547    TIP3     H2       HT       0.417000       1.00800           0   0.00000     -0.301140E-02
     56558 TIP3     10548    TIP3     OH2      OT      -0.834000       15.9994           0   0.00000       0.00000    
     56559 TIP3     10548    TIP3     H1       HT       0.417000       1.00800           0   0.00000       0.00000    
     56560 TIP3     10548    TIP3     H2       HT       0.417000       1.00800           0   0.00000     -0.301140E-02
     56561 TIP3     10549    TIP3     OH2      OT      -0.834000       15.9994           0   0.00000       0.00000    
     56562 TIP3     10549    TIP3     H1       HT       0.417000       1.00800           0   0.00000       0.00000    
     56563 TIP3     10549    TIP3     H2       HT       0.417000       1.00800           0   0.00000     -0.301140E-02
     56564 TIP3     10550    TIP3     OH2      OT      -0.834000       15.9994           0   0.00000       0.00000    
     56565 TIP3     10550    TIP3     H1       HT       0.417000       1.00800           0   0.00000       0.00000    
     56566 TIP3     10550    TIP3     H2       HT       0.417000       1.00800           0   0.00000     -0.301140E-02
     56567 TIP3     10551    TIP3     OH2      OT      -0.834000       15.9994           0   0.00000       0.00000    
     56568 TIP3     10551    TIP3     H1       HT       0.417000       1.00800           0   0.00000       0.00000    
     56569 TIP3     10551    TIP3     H2       HT       0.417000       1.00800           0   0.00000     -0.301140E-02
     56570 TIP3     10552    TIP3     OH2      OT      -0.834000       15.9994           0   0.00000       0.00000    
     56571 TIP3     10552    TIP3     H1       HT       0.417000       1.00800           0   0.00000       0.00000    
     56572 TIP3     10552    TIP3     H2       HT       0.417000       1.00800           0   0.00000     -0.301140E-02
     56573 TIP3     10553    TIP3     OH2      OT      -0.834000       15.9994           0   0.00000       0.00000    
     56574 TIP3     10553    TIP3     H1       HT       0.417000       1.00800           0   0.00000       0.00000    
     56575 TIP3     10553    TIP3     H2       HT       0.417000       1.00800           0   0.00000     -0.301140E-02
     56576 TIP3     10554    TIP3     OH2      OT      -0.834000       15.9994           0   0.00000       0.00000    
     56577 TIP3     10554    TIP3     H1       HT       0.417000       1.00800           0   0.00000       0.00000    
     56578 TIP3     10554    TIP3     H2       HT       0.417000       1.00800           0   0.00000     -0.301140E-02
     56579 TIP3     10555    TIP3     OH2      OT      -0.834000       15.9994           0   0.00000       0.00000    
     56580 TIP3     10555    TIP3     H1       HT       0.417000       1.00800           0   0.00000       0.00000    
     56581 TIP3     10555    TIP3     H2       HT       0.417000       1.00800           0   0.00000     -0.301140E-02
     56582 TIP3     10556    TIP3     OH2      OT      -0.834000       15.9994           0   0.00000       0.00000    
     56583 TIP3     10556    TIP3     H1       HT       0.417000       1.00800           0   0.00000       0.00000    
     56584 TIP3     10556    TIP3     H2       HT       0.417000       1.00800           0   0.00000     -0.301140E-02
     56585 TIP3     10557    TIP3     OH2      OT      -0.834000       15.9994           0   0.00000       0.00000    
     56586 TIP3     10557    TIP3     H1       HT       0.417000       1.00800           0   0.00000       0.00000    
     56587 TIP3     10557    TIP3     H2       HT       0.417000       1.00800           0   0.00000     -0.301140E-02
     56588 TIP3     10558    TIP3     OH2      OT      -0.834000       15.9994           0   0.00000       0.00000    
     56589 TIP3     10558    TIP3     H1       HT       0.417000       1.00800           0   0.00000       0.00000    
     56590 TIP3     10558    TIP3     H2       HT       0.417000       1.00800           0   0.00000     -0.301140E-02
     56591 TIP3     10559    TIP3     OH2      OT      -0.834000       15.9994           0   0.00000       0.00000    
     56592 TIP3     10559    TIP3     H1       HT       0.417000       1.00800           0   0.00000       0.00000    
     56593 TIP3     10559    TIP3     H2       HT       0.417000       1.00800           0   0.00000     -0.301140E-02
     56594 TIP3     10560    TIP3     OH2      OT      -0.834000       15.9994           0   0.00000       0.00000    
     56595 TIP3     10560    TIP3     H1       HT       0.417000       1.00800           0   0.00000       0.00000    
     56596 TIP3     10560    TIP3     H2       HT       0.417000       1.00800           0   0.00000     -0.301140E-02
     56597 TIP3     10561    TIP3     OH2      OT      -0.834000       15.9994           0   0.00000       0.00000    
     56598 TIP3     10561    TIP3     H1       HT       0.417000       1.00800           0   0.00000       0.00000    
     56599 TIP3     10561    TIP3     H2       HT       0.417000       1.00800           0   0.00000     -0.301140E-02
     56600 TIP3     10562    TIP3     OH2      OT      -0.834000       15.9994           0   0.00000       0.00000    
     56601 TIP3     10562    TIP3     H1       HT       0.417000       1.00800           0   0.00000       0.00000    
     56602 TIP3     10562    TIP3     H2       HT       0.417000       1.00800           0   0.00000     -0.301140E-02
     56603 TIP3     10563    TIP3     OH2      OT      -0.834000       15.9994           0   0.00000       0.00000    
     56604 TIP3     10563    TIP3     H1       HT       0.417000       1.00800           0   0.00000       0.00000    
     56605 TIP3     10563    TIP3     H2       HT       0.417000       1.00800           0   0.00000     -0.301140E-02
     56606 TIP3     10564    TIP3     OH2      OT      -0.834000       15.9994           0   0.00000       0.00000    
     56607 TIP3     10564    TIP3     H1       HT       0.417000       1.00800           0   0.00000       0.00000    
     56608 TIP3     10564    TIP3     H2       HT       0.417000       1.00800           0   0.00000     -0.301140E-02
     56609 TIP3     10565    TIP3     OH2      OT      -0.834000       15.9994           0   0.00000       0.00000    
     56610 TIP3     10565    TIP3     H1       HT       0.417000       1.00800           0   0.00000       0.00000    
     56611 TIP3     10565    TIP3     H2       HT       0.417000       1.00800           0   0.00000     -0.301140E-02
     56612 TIP3     10566    TIP3     OH2      OT      -0.834000       15.9994           0   0.00000       0.00000    
     56613 TIP3     10566    TIP3     H1       HT       0.417000       1.00800           0   0.00000       0.00000    
     56614 TIP3     10566    TIP3     H2       HT       0.417000       1.00800           0   0.00000     -0.301140E-02
     56615 TIP3     10567    TIP3     OH2      OT      -0.834000       15.9994           0   0.00000       0.00000    
     56616 TIP3     10567    TIP3     H1       HT       0.417000       1.00800           0   0.00000       0.00000    
     56617 TIP3     10567    TIP3     H2       HT       0.417000       1.00800           0   0.00000     -0.301140E-02
     56618 TIP3     10568    TIP3     OH2      OT      -0.834000       15.9994           0   0.00000       0.00000    
     56619 TIP3     10568    TIP3     H1       HT       0.417000       1.00800           0   0.00000       0.00000    
     56620 TIP3     10568    TIP3     H2       HT       0.417000       1.00800           0   0.00000     -0.301140E-02
     56621 TIP3     10569    TIP3     OH2      OT      -0.834000       15.9994           0   0.00000       0.00000    
     56622 TIP3     10569    TIP3     H1       HT       0.417000       1.00800           0   0.00000       0.00000    
     56623 TIP3     10569    TIP3     H2       HT       0.417000       1.00800           0   0.00000     -0.301140E-02
     56624 TIP3     10570    TIP3     OH2      OT      -0.834000       15.9994           0   0.00000       0.00000    
     56625 TIP3     10570    TIP3     H1       HT       0.417000       1.00800           0   0.00000       0.00000    
     56626 TIP3     10570    TIP3     H2       HT       0.417000       1.00800           0   0.00000     -0.301140E-02
     56627 TIP3     10571    TIP3     OH2      OT      -0.834000       15.9994           0   0.00000       0.00000    
     56628 TIP3     10571    TIP3     H1       HT       0.417000       1.00800           0   0.00000       0.00000    
     56629 TIP3     10571    TIP3     H2       HT       0.417000       1.00800           0   0.00000     -0.301140E-02
     56630 TIP3     10572    TIP3     OH2      OT      -0.834000       15.9994           0   0.00000       0.00000    
     56631 TIP3     10572    TIP3     H1       HT       0.417000       1.00800           0   0.00000       0.00000    
     56632 TIP3     10572    TIP3     H2       HT       0.417000       1.00800           0   0.00000     -0.301140E-02
     56633 TIP3     10573    TIP3     OH2      OT      -0.834000       15.9994           0   0.00000       0.00000    
     56634 TIP3     10573    TIP3     H1       HT       0.417000       1.00800           0   0.00000       0.00000    
     56635 TIP3     10573    TIP3     H2       HT       0.417000       1.00800           0   0.00000     -0.301140E-02
     56636 TIP3     10574    TIP3     OH2      OT      -0.834000       15.9994           0   0.00000       0.00000    
     56637 TIP3     10574    TIP3     H1       HT       0.417000       1.00800           0   0.00000       0.00000    
     56638 TIP3     10574    TIP3     H2       HT       0.417000       1.00800           0   0.00000     -0.301140E-02
     56639 TIP3     10575    TIP3     OH2      OT      -0.834000       15.9994           0   0.00000       0.00000    
     56640 TIP3     10575    TIP3     H1       HT       0.417000       1.00800           0   0.00000       0.00000    
     56641 TIP3     10575    TIP3     H2       HT       0.417000       1.00800           0   0.00000     -0.301140E-02
     56642 TIP3     10576    TIP3     OH2      OT      -0.834000       15.9994           0   0.00000       0.00000    
     56643 TIP3     10576    TIP3     H1       HT       0.417000       1.00800           0   0.00000       0.00000    
     56644 TIP3     10576    TIP3     H2       HT       0.417000       1.00800           0   0.00000     -0.301140E-02
     56645 TIP3     10577    TIP3     OH2      OT      -0.834000       15.9994           0   0.00000       0.00000    
     56646 TIP3     10577    TIP3     H1       HT       0.417000       1.00800           0   0.00000       0.00000    
     56647 TIP3     10577    TIP3     H2       HT       0.417000       1.00800           0   0.00000     -0.301140E-02
     56648 TIP3     10578    TIP3     OH2      OT      -0.834000       15.9994           0   0.00000       0.00000    
     56649 TIP3     10578    TIP3     H1       HT       0.417000       1.00800           0   0.00000       0.00000    
     56650 TIP3     10578    TIP3     H2       HT       0.417000       1.00800           0   0.00000     -0.301140E-02
     56651 TIP3     10579    TIP3     OH2      OT      -0.834000       15.9994           0   0.00000       0.00000    
     56652 TIP3     10579    TIP3     H1       HT       0.417000       1.00800           0   0.00000       0.00000    
     56653 TIP3     10579    TIP3     H2       HT       0.417000       1.00800           0   0.00000     -0.301140E-02
     56654 TIP3     10580    TIP3     OH2      OT      -0.834000       15.9994           0   0.00000       0.00000    
     56655 TIP3     10580    TIP3     H1       HT       0.417000       1.00800           0   0.00000       0.00000    
     56656 TIP3     10580    TIP3     H2       HT       0.417000       1.00800           0   0.00000     -0.301140E-02
     56657 TIP3     10581    TIP3     OH2      OT      -0.834000       15.9994           0   0.00000       0.00000    
     56658 TIP3     10581    TIP3     H1       HT       0.417000       1.00800           0   0.00000       0.00000    
     56659 TIP3     10581    TIP3     H2       HT       0.417000       1.00800           0   0.00000     -0.301140E-02
     56660 TIP3     10582    TIP3     OH2      OT      -0.834000       15.9994           0   0.00000       0.00000    
     56661 TIP3     10582    TIP3     H1       HT       0.417000       1.00800           0   0.00000       0.00000    
     56662 TIP3     10582    TIP3     H2       HT       0.417000       1.00800           0   0.00000     -0.301140E-02
     56663 TIP3     10583    TIP3     OH2      OT      -0.834000       15.9994           0   0.00000       0.00000    
     56664 TIP3     10583    TIP3     H1       HT       0.417000       1.00800           0   0.00000       0.00000    
     56665 TIP3     10583    TIP3     H2       HT       0.417000       1.00800           0   0.00000     -0.301140E-02
     56666 TIP3     10584    TIP3     OH2      OT      -0.834000       15.9994           0   0.00000       0.00000    
     56667 TIP3     10584    TIP3     H1       HT       0.417000       1.00800           0   0.00000       0.00000    
     56668 TIP3     10584    TIP3     H2       HT       0.417000       1.00800           0   0.00000     -0.301140E-02
     56669 TIP3     10585    TIP3     OH2      OT      -0.834000       15.9994           0   0.00000       0.00000    
     56670 TIP3     10585    TIP3     H1       HT       0.417000       1.00800           0   0.00000       0.00000    
     56671 TIP3     10585    TIP3     H2       HT       0.417000       1.00800           0   0.00000     -0.301140E-02
     56672 TIP3     10586    TIP3     OH2      OT      -0.834000       15.9994           0   0.00000       0.00000    
     56673 TIP3     10586    TIP3     H1       HT       0.417000       1.00800           0   0.00000       0.00000    
     56674 TIP3     10586    TIP3     H2       HT       0.417000       1.00800           0   0.00000     -0.301140E-02
     56675 TIP3     10587    TIP3     OH2      OT      -0.834000       15.9994           0   0.00000       0.00000    
     56676 TIP3     10587    TIP3     H1       HT       0.417000       1.00800           0   0.00000       0.00000    
     56677 TIP3     10587    TIP3     H2       HT       0.417000       1.00800           0   0.00000     -0.301140E-02
     56678 TIP3     10588    TIP3     OH2      OT      -0.834000       15.9994           0   0.00000       0.00000    
     56679 TIP3     10588    TIP3     H1       HT       0.417000       1.00800           0   0.00000       0.00000    
     56680 TIP3     10588    TIP3     H2       HT       0.417000       1.00800           0   0.00000     -0.301140E-02
     56681 TIP3     10589    TIP3     OH2      OT      -0.834000       15.9994           0   0.00000       0.00000    
     56682 TIP3     10589    TIP3     H1       HT       0.417000       1.00800           0   0.00000       0.00000    
     56683 TIP3     10589    TIP3     H2       HT       0.417000       1.00800           0   0.00000     -0.301140E-02
     56684 TIP3     10590    TIP3     OH2      OT      -0.834000       15.9994           0   0.00000       0.00000    
     56685 TIP3     10590    TIP3     H1       HT       0.417000       1.00800           0   0.00000       0.00000    
     56686 TIP3     10590    TIP3     H2       HT       0.417000       1.00800           0   0.00000     -0.301140E-02
     56687 TIP3     10591    TIP3     OH2      OT      -0.834000       15.9994           0   0.00000       0.00000    
     56688 TIP3     10591    TIP3     H1       HT       0.417000       1.00800           0   0.00000       0.00000    
     56689 TIP3     10591    TIP3     H2       HT       0.417000       1.00800           0   0.00000     -0.301140E-02
     56690 TIP3     10592    TIP3     OH2      OT      -0.834000       15.9994           0   0.00000       0.00000    
     56691 TIP3     10592    TIP3     H1       HT       0.417000       1.00800           0   0.00000       0.00000    
     56692 TIP3     10592    TIP3     H2       HT       0.417000       1.00800           0   0.00000     -0.301140E-02
     56693 TIP3     10593    TIP3     OH2      OT      -0.834000       15.9994           0   0.00000       0.00000    
     56694 TIP3     10593    TIP3     H1       HT       0.417000       1.00800           0   0.00000       0.00000    
     56695 TIP3     10593    TIP3     H2       HT       0.417000       1.00800           0   0.00000     -0.301140E-02
     56696 TIP3     10594    TIP3     OH2      OT      -0.834000       15.9994           0   0.00000       0.00000    
     56697 TIP3     10594    TIP3     H1       HT       0.417000       1.00800           0   0.00000       0.00000    
     56698 TIP3     10594    TIP3     H2       HT       0.417000       1.00800           0   0.00000     -0.301140E-02
     56699 TIP3     10595    TIP3     OH2      OT      -0.834000       15.9994           0   0.00000       0.00000    
     56700 TIP3     10595    TIP3     H1       HT       0.417000       1.00800           0   0.00000       0.00000    
     56701 TIP3     10595    TIP3     H2       HT       0.417000       1.00800           0   0.00000     -0.301140E-02
     56702 TIP3     10596    TIP3     OH2      OT      -0.834000       15.9994           0   0.00000       0.00000    
     56703 TIP3     10596    TIP3     H1       HT       0.417000       1.00800           0   0.00000       0.00000    
     56704 TIP3     10596    TIP3     H2       HT       0.417000       1.00800           0   0.00000     -0.301140E-02
     56705 TIP3     10597    TIP3     OH2      OT      -0.834000       15.9994           0   0.00000       0.00000    
     56706 TIP3     10597    TIP3     H1       HT       0.417000       1.00800           0   0.00000       0.00000    
     56707 TIP3     10597    TIP3     H2       HT       0.417000       1.00800           0   0.00000     -0.301140E-02
     56708 TIP3     10598    TIP3     OH2      OT      -0.834000       15.9994           0   0.00000       0.00000    
     56709 TIP3     10598    TIP3     H1       HT       0.417000       1.00800           0   0.00000       0.00000    
     56710 TIP3     10598    TIP3     H2       HT       0.417000       1.00800           0   0.00000     -0.301140E-02
     56711 TIP3     10599    TIP3     OH2      OT      -0.834000       15.9994           0   0.00000       0.00000    
     56712 TIP3     10599    TIP3     H1       HT       0.417000       1.00800           0   0.00000       0.00000    
     56713 TIP3     10599    TIP3     H2       HT       0.417000       1.00800           0   0.00000     -0.301140E-02
     56714 TIP3     10600    TIP3     OH2      OT      -0.834000       15.9994           0   0.00000       0.00000    
     56715 TIP3     10600    TIP3     H1       HT       0.417000       1.00800           0   0.00000       0.00000    
     56716 TIP3     10600    TIP3     H2       HT       0.417000       1.00800           0   0.00000     -0.301140E-02
     56717 TIP3     10601    TIP3     OH2      OT      -0.834000       15.9994           0   0.00000       0.00000    
     56718 TIP3     10601    TIP3     H1       HT       0.417000       1.00800           0   0.00000       0.00000    
     56719 TIP3     10601    TIP3     H2       HT       0.417000       1.00800           0   0.00000     -0.301140E-02
     56720 TIP3     10602    TIP3     OH2      OT      -0.834000       15.9994           0   0.00000       0.00000    
     56721 TIP3     10602    TIP3     H1       HT       0.417000       1.00800           0   0.00000       0.00000    
     56722 TIP3     10602    TIP3     H2       HT       0.417000       1.00800           0   0.00000     -0.301140E-02
     56723 TIP3     10603    TIP3     OH2      OT      -0.834000       15.9994           0   0.00000       0.00000    
     56724 TIP3     10603    TIP3     H1       HT       0.417000       1.00800           0   0.00000       0.00000    
     56725 TIP3     10603    TIP3     H2       HT       0.417000       1.00800           0   0.00000     -0.301140E-02
     56726 TIP3     10604    TIP3     OH2      OT      -0.834000       15.9994           0   0.00000       0.00000    
     56727 TIP3     10604    TIP3     H1       HT       0.417000       1.00800           0   0.00000       0.00000    
     56728 TIP3     10604    TIP3     H2       HT       0.417000       1.00800           0   0.00000     -0.301140E-02
     56729 TIP3     10605    TIP3     OH2      OT      -0.834000       15.9994           0   0.00000       0.00000    
     56730 TIP3     10605    TIP3     H1       HT       0.417000       1.00800           0   0.00000       0.00000    
     56731 TIP3     10605    TIP3     H2       HT       0.417000       1.00800           0   0.00000     -0.301140E-02
     56732 TIP3     10606    TIP3     OH2      OT      -0.834000       15.9994           0   0.00000       0.00000    
     56733 TIP3     10606    TIP3     H1       HT       0.417000       1.00800           0   0.00000       0.00000    
     56734 TIP3     10606    TIP3     H2       HT       0.417000       1.00800           0   0.00000     -0.301140E-02
     56735 TIP3     10607    TIP3     OH2      OT      -0.834000       15.9994           0   0.00000       0.00000    
     56736 TIP3     10607    TIP3     H1       HT       0.417000       1.00800           0   0.00000       0.00000    
     56737 TIP3     10607    TIP3     H2       HT       0.417000       1.00800           0   0.00000     -0.301140E-02
     56738 TIP3     10608    TIP3     OH2      OT      -0.834000       15.9994           0   0.00000       0.00000    
     56739 TIP3     10608    TIP3     H1       HT       0.417000       1.00800           0   0.00000       0.00000    
     56740 TIP3     10608    TIP3     H2       HT       0.417000       1.00800           0   0.00000     -0.301140E-02
     56741 TIP3     10609    TIP3     OH2      OT      -0.834000       15.9994           0   0.00000       0.00000    
     56742 TIP3     10609    TIP3     H1       HT       0.417000       1.00800           0   0.00000       0.00000    
     56743 TIP3     10609    TIP3     H2       HT       0.417000       1.00800           0   0.00000     -0.301140E-02
     56744 TIP3     10610    TIP3     OH2      OT      -0.834000       15.9994           0   0.00000       0.00000    
     56745 TIP3     10610    TIP3     H1       HT       0.417000       1.00800           0   0.00000       0.00000    
     56746 TIP3     10610    TIP3     H2       HT       0.417000       1.00800           0   0.00000     -0.301140E-02
     56747 TIP3     10611    TIP3     OH2      OT      -0.834000       15.9994           0   0.00000       0.00000    
     56748 TIP3     10611    TIP3     H1       HT       0.417000       1.00800           0   0.00000       0.00000    
     56749 TIP3     10611    TIP3     H2       HT       0.417000       1.00800           0   0.00000     -0.301140E-02
     56750 TIP3     10612    TIP3     OH2      OT      -0.834000       15.9994           0   0.00000       0.00000    
     56751 TIP3     10612    TIP3     H1       HT       0.417000       1.00800           0   0.00000       0.00000    
     56752 TIP3     10612    TIP3     H2       HT       0.417000       1.00800           0   0.00000     -0.301140E-02
     56753 TIP3     10613    TIP3     OH2      OT      -0.834000       15.9994           0   0.00000       0.00000    
     56754 TIP3     10613    TIP3     H1       HT       0.417000       1.00800           0   0.00000       0.00000    
     56755 TIP3     10613    TIP3     H2       HT       0.417000       1.00800           0   0.00000     -0.301140E-02
     56756 TIP3     10614    TIP3     OH2      OT      -0.834000       15.9994           0   0.00000       0.00000    
     56757 TIP3     10614    TIP3     H1       HT       0.417000       1.00800           0   0.00000       0.00000    
     56758 TIP3     10614    TIP3     H2       HT       0.417000       1.00800           0   0.00000     -0.301140E-02
     56759 TIP3     10615    TIP3     OH2      OT      -0.834000       15.9994           0   0.00000       0.00000    
     56760 TIP3     10615    TIP3     H1       HT       0.417000       1.00800           0   0.00000       0.00000    
     56761 TIP3     10615    TIP3     H2       HT       0.417000       1.00800           0   0.00000     -0.301140E-02
     56762 TIP3     10616    TIP3     OH2      OT      -0.834000       15.9994           0   0.00000       0.00000    
     56763 TIP3     10616    TIP3     H1       HT       0.417000       1.00800           0   0.00000       0.00000    
     56764 TIP3     10616    TIP3     H2       HT       0.417000       1.00800           0   0.00000     -0.301140E-02
     56765 TIP3     10617    TIP3     OH2      OT      -0.834000       15.9994           0   0.00000       0.00000    
     56766 TIP3     10617    TIP3     H1       HT       0.417000       1.00800           0   0.00000       0.00000    
     56767 TIP3     10617    TIP3     H2       HT       0.417000       1.00800           0   0.00000     -0.301140E-02
     56768 TIP3     10618    TIP3     OH2      OT      -0.834000       15.9994           0   0.00000       0.00000    
     56769 TIP3     10618    TIP3     H1       HT       0.417000       1.00800           0   0.00000       0.00000    
     56770 TIP3     10618    TIP3     H2       HT       0.417000       1.00800           0   0.00000     -0.301140E-02
     56771 TIP3     10619    TIP3     OH2      OT      -0.834000       15.9994           0   0.00000       0.00000    
     56772 TIP3     10619    TIP3     H1       HT       0.417000       1.00800           0   0.00000       0.00000    
     56773 TIP3     10619    TIP3     H2       HT       0.417000       1.00800           0   0.00000     -0.301140E-02
     56774 TIP3     10620    TIP3     OH2      OT      -0.834000       15.9994           0   0.00000       0.00000    
     56775 TIP3     10620    TIP3     H1       HT       0.417000       1.00800           0   0.00000       0.00000    
     56776 TIP3     10620    TIP3     H2       HT       0.417000       1.00800           0   0.00000     -0.301140E-02
     56777 TIP3     10621    TIP3     OH2      OT      -0.834000       15.9994           0   0.00000       0.00000    
     56778 TIP3     10621    TIP3     H1       HT       0.417000       1.00800           0   0.00000       0.00000    
     56779 TIP3     10621    TIP3     H2       HT       0.417000       1.00800           0   0.00000     -0.301140E-02
     56780 TIP3     10622    TIP3     OH2      OT      -0.834000       15.9994           0   0.00000       0.00000    
     56781 TIP3     10622    TIP3     H1       HT       0.417000       1.00800           0   0.00000       0.00000    
     56782 TIP3     10622    TIP3     H2       HT       0.417000       1.00800           0   0.00000     -0.301140E-02
     56783 TIP3     10623    TIP3     OH2      OT      -0.834000       15.9994           0   0.00000       0.00000    
     56784 TIP3     10623    TIP3     H1       HT       0.417000       1.00800           0   0.00000       0.00000    
     56785 TIP3     10623    TIP3     H2       HT       0.417000       1.00800           0   0.00000     -0.301140E-02
     56786 TIP3     10624    TIP3     OH2      OT      -0.834000       15.9994           0   0.00000       0.00000    
     56787 TIP3     10624    TIP3     H1       HT       0.417000       1.00800           0   0.00000       0.00000    
     56788 TIP3     10624    TIP3     H2       HT       0.417000       1.00800           0   0.00000     -0.301140E-02
     56789 TIP3     10625    TIP3     OH2      OT      -0.834000       15.9994           0   0.00000       0.00000    
     56790 TIP3     10625    TIP3     H1       HT       0.417000       1.00800           0   0.00000       0.00000    
     56791 TIP3     10625    TIP3     H2       HT       0.417000       1.00800           0   0.00000     -0.301140E-02
     56792 TIP3     10626    TIP3     OH2      OT      -0.834000       15.9994           0   0.00000       0.00000    
     56793 TIP3     10626    TIP3     H1       HT       0.417000       1.00800           0   0.00000       0.00000    
     56794 TIP3     10626    TIP3     H2       HT       0.417000       1.00800           0   0.00000     -0.301140E-02
     56795 TIP3     10627    TIP3     OH2      OT      -0.834000       15.9994           0   0.00000       0.00000    
     56796 TIP3     10627    TIP3     H1       HT       0.417000       1.00800           0   0.00000       0.00000    
     56797 TIP3     10627    TIP3     H2       HT       0.417000       1.00800           0   0.00000     -0.301140E-02
     56798 TIP3     10628    TIP3     OH2      OT      -0.834000       15.9994           0   0.00000       0.00000    
     56799 TIP3     10628    TIP3     H1       HT       0.417000       1.00800           0   0.00000       0.00000    
     56800 TIP3     10628    TIP3     H2       HT       0.417000       1.00800           0   0.00000     -0.301140E-02
     56801 TIP3     10629    TIP3     OH2      OT      -0.834000       15.9994           0   0.00000       0.00000    
     56802 TIP3     10629    TIP3     H1       HT       0.417000       1.00800           0   0.00000       0.00000    
     56803 TIP3     10629    TIP3     H2       HT       0.417000       1.00800           0   0.00000     -0.301140E-02
     56804 TIP3     10630    TIP3     OH2      OT      -0.834000       15.9994           0   0.00000       0.00000    
     56805 TIP3     10630    TIP3     H1       HT       0.417000       1.00800           0   0.00000       0.00000    
     56806 TIP3     10630    TIP3     H2       HT       0.417000       1.00800           0   0.00000     -0.301140E-02
     56807 TIP3     10631    TIP3     OH2      OT      -0.834000       15.9994           0   0.00000       0.00000    
     56808 TIP3     10631    TIP3     H1       HT       0.417000       1.00800           0   0.00000       0.00000    
     56809 TIP3     10631    TIP3     H2       HT       0.417000       1.00800           0   0.00000     -0.301140E-02
     56810 TIP3     10632    TIP3     OH2      OT      -0.834000       15.9994           0   0.00000       0.00000    
     56811 TIP3     10632    TIP3     H1       HT       0.417000       1.00800           0   0.00000       0.00000    
     56812 TIP3     10632    TIP3     H2       HT       0.417000       1.00800           0   0.00000     -0.301140E-02
     56813 TIP3     10633    TIP3     OH2      OT      -0.834000       15.9994           0   0.00000       0.00000    
     56814 TIP3     10633    TIP3     H1       HT       0.417000       1.00800           0   0.00000       0.00000    
     56815 TIP3     10633    TIP3     H2       HT       0.417000       1.00800           0   0.00000     -0.301140E-02
     56816 TIP3     10634    TIP3     OH2      OT      -0.834000       15.9994           0   0.00000       0.00000    
     56817 TIP3     10634    TIP3     H1       HT       0.417000       1.00800           0   0.00000       0.00000    
     56818 TIP3     10634    TIP3     H2       HT       0.417000       1.00800           0   0.00000     -0.301140E-02
     56819 TIP3     10635    TIP3     OH2      OT      -0.834000       15.9994           0   0.00000       0.00000    
     56820 TIP3     10635    TIP3     H1       HT       0.417000       1.00800           0   0.00000       0.00000    
     56821 TIP3     10635    TIP3     H2       HT       0.417000       1.00800           0   0.00000     -0.301140E-02
     56822 TIP3     10636    TIP3     OH2      OT      -0.834000       15.9994           0   0.00000       0.00000    
     56823 TIP3     10636    TIP3     H1       HT       0.417000       1.00800           0   0.00000       0.00000    
     56824 TIP3     10636    TIP3     H2       HT       0.417000       1.00800           0   0.00000     -0.301140E-02
     56825 TIP3     10637    TIP3     OH2      OT      -0.834000       15.9994           0   0.00000       0.00000    
     56826 TIP3     10637    TIP3     H1       HT       0.417000       1.00800           0   0.00000       0.00000    
     56827 TIP3     10637    TIP3     H2       HT       0.417000       1.00800           0   0.00000     -0.301140E-02
     56828 TIP3     10638    TIP3     OH2      OT      -0.834000       15.9994           0   0.00000       0.00000    
     56829 TIP3     10638    TIP3     H1       HT       0.417000       1.00800           0   0.00000       0.00000    
     56830 TIP3     10638    TIP3     H2       HT       0.417000       1.00800           0   0.00000     -0.301140E-02
     56831 TIP3     10639    TIP3     OH2      OT      -0.834000       15.9994           0   0.00000       0.00000    
     56832 TIP3     10639    TIP3     H1       HT       0.417000       1.00800           0   0.00000       0.00000    
     56833 TIP3     10639    TIP3     H2       HT       0.417000       1.00800           0   0.00000     -0.301140E-02
     56834 TIP3     10640    TIP3     OH2      OT      -0.834000       15.9994           0   0.00000       0.00000    
     56835 TIP3     10640    TIP3     H1       HT       0.417000       1.00800           0   0.00000       0.00000    
     56836 TIP3     10640    TIP3     H2       HT       0.417000       1.00800           0   0.00000     -0.301140E-02
     56837 TIP3     10641    TIP3     OH2      OT      -0.834000       15.9994           0   0.00000       0.00000    
     56838 TIP3     10641    TIP3     H1       HT       0.417000       1.00800           0   0.00000       0.00000    
     56839 TIP3     10641    TIP3     H2       HT       0.417000       1.00800           0   0.00000     -0.301140E-02
     56840 TIP3     10642    TIP3     OH2      OT      -0.834000       15.9994           0   0.00000       0.00000    
     56841 TIP3     10642    TIP3     H1       HT       0.417000       1.00800           0   0.00000       0.00000    
     56842 TIP3     10642    TIP3     H2       HT       0.417000       1.00800           0   0.00000     -0.301140E-02
     56843 TIP3     10643    TIP3     OH2      OT      -0.834000       15.9994           0   0.00000       0.00000    
     56844 TIP3     10643    TIP3     H1       HT       0.417000       1.00800           0   0.00000       0.00000    
     56845 TIP3     10643    TIP3     H2       HT       0.417000       1.00800           0   0.00000     -0.301140E-02
     56846 TIP3     10644    TIP3     OH2      OT      -0.834000       15.9994           0   0.00000       0.00000    
     56847 TIP3     10644    TIP3     H1       HT       0.417000       1.00800           0   0.00000       0.00000    
     56848 TIP3     10644    TIP3     H2       HT       0.417000       1.00800           0   0.00000     -0.301140E-02
     56849 TIP3     10645    TIP3     OH2      OT      -0.834000       15.9994           0   0.00000       0.00000    
     56850 TIP3     10645    TIP3     H1       HT       0.417000       1.00800           0   0.00000       0.00000    
     56851 TIP3     10645    TIP3     H2       HT       0.417000       1.00800           0   0.00000     -0.301140E-02
     56852 TIP3     10646    TIP3     OH2      OT      -0.834000       15.9994           0   0.00000       0.00000    
     56853 TIP3     10646    TIP3     H1       HT       0.417000       1.00800           0   0.00000       0.00000    
     56854 TIP3     10646    TIP3     H2       HT       0.417000       1.00800           0   0.00000     -0.301140E-02
     56855 TIP3     10647    TIP3     OH2      OT      -0.834000       15.9994           0   0.00000       0.00000    
     56856 TIP3     10647    TIP3     H1       HT       0.417000       1.00800           0   0.00000       0.00000    
     56857 TIP3     10647    TIP3     H2       HT       0.417000       1.00800           0   0.00000     -0.301140E-02
     56858 TIP3     10648    TIP3     OH2      OT      -0.834000       15.9994           0   0.00000       0.00000    
     56859 TIP3     10648    TIP3     H1       HT       0.417000       1.00800           0   0.00000       0.00000    
     56860 TIP3     10648    TIP3     H2       HT       0.417000       1.00800           0   0.00000     -0.301140E-02
     56861 TIP3     10649    TIP3     OH2      OT      -0.834000       15.9994           0   0.00000       0.00000    
     56862 TIP3     10649    TIP3     H1       HT       0.417000       1.00800           0   0.00000       0.00000    
     56863 TIP3     10649    TIP3     H2       HT       0.417000       1.00800           0   0.00000     -0.301140E-02
     56864 TIP3     10650    TIP3     OH2      OT      -0.834000       15.9994           0   0.00000       0.00000    
     56865 TIP3     10650    TIP3     H1       HT       0.417000       1.00800           0   0.00000       0.00000    
     56866 TIP3     10650    TIP3     H2       HT       0.417000       1.00800           0   0.00000     -0.301140E-02
     56867 TIP3     10651    TIP3     OH2      OT      -0.834000       15.9994           0   0.00000       0.00000    
     56868 TIP3     10651    TIP3     H1       HT       0.417000       1.00800           0   0.00000       0.00000    
     56869 TIP3     10651    TIP3     H2       HT       0.417000       1.00800           0   0.00000     -0.301140E-02
     56870 TIP3     10652    TIP3     OH2      OT      -0.834000       15.9994           0   0.00000       0.00000    
     56871 TIP3     10652    TIP3     H1       HT       0.417000       1.00800           0   0.00000       0.00000    
     56872 TIP3     10652    TIP3     H2       HT       0.417000       1.00800           0   0.00000     -0.301140E-02
     56873 TIP3     10653    TIP3     OH2      OT      -0.834000       15.9994           0   0.00000       0.00000    
     56874 TIP3     10653    TIP3     H1       HT       0.417000       1.00800           0   0.00000       0.00000    
     56875 TIP3     10653    TIP3     H2       HT       0.417000       1.00800           0   0.00000     -0.301140E-02
     56876 TIP3     10654    TIP3     OH2      OT      -0.834000       15.9994           0   0.00000       0.00000    
     56877 TIP3     10654    TIP3     H1       HT       0.417000       1.00800           0   0.00000       0.00000    
     56878 TIP3     10654    TIP3     H2       HT       0.417000       1.00800           0   0.00000     -0.301140E-02
     56879 TIP3     10655    TIP3     OH2      OT      -0.834000       15.9994           0   0.00000       0.00000    
     56880 TIP3     10655    TIP3     H1       HT       0.417000       1.00800           0   0.00000       0.00000    
     56881 TIP3     10655    TIP3     H2       HT       0.417000       1.00800           0   0.00000     -0.301140E-02
     56882 TIP3     10656    TIP3     OH2      OT      -0.834000       15.9994           0   0.00000       0.00000    
     56883 TIP3     10656    TIP3     H1       HT       0.417000       1.00800           0   0.00000       0.00000    
     56884 TIP3     10656    TIP3     H2       HT       0.417000       1.00800           0   0.00000     -0.301140E-02
     56885 TIP3     10657    TIP3     OH2      OT      -0.834000       15.9994           0   0.00000       0.00000    
     56886 TIP3     10657    TIP3     H1       HT       0.417000       1.00800           0   0.00000       0.00000    
     56887 TIP3     10657    TIP3     H2       HT       0.417000       1.00800           0   0.00000     -0.301140E-02
     56888 TIP3     10658    TIP3     OH2      OT      -0.834000       15.9994           0   0.00000       0.00000    
     56889 TIP3     10658    TIP3     H1       HT       0.417000       1.00800           0   0.00000       0.00000    
     56890 TIP3     10658    TIP3     H2       HT       0.417000       1.00800           0   0.00000     -0.301140E-02
     56891 TIP3     10659    TIP3     OH2      OT      -0.834000       15.9994           0   0.00000       0.00000    
     56892 TIP3     10659    TIP3     H1       HT       0.417000       1.00800           0   0.00000       0.00000    
     56893 TIP3     10659    TIP3     H2       HT       0.417000       1.00800           0   0.00000     -0.301140E-02
     56894 TIP3     10660    TIP3     OH2      OT      -0.834000       15.9994           0   0.00000       0.00000    
     56895 TIP3     10660    TIP3     H1       HT       0.417000       1.00800           0   0.00000       0.00000    
     56896 TIP3     10660    TIP3     H2       HT       0.417000       1.00800           0   0.00000     -0.301140E-02
     56897 TIP3     10661    TIP3     OH2      OT      -0.834000       15.9994           0   0.00000       0.00000    
     56898 TIP3     10661    TIP3     H1       HT       0.417000       1.00800           0   0.00000       0.00000    
     56899 TIP3     10661    TIP3     H2       HT       0.417000       1.00800           0   0.00000     -0.301140E-02
     56900 TIP3     10662    TIP3     OH2      OT      -0.834000       15.9994           0   0.00000       0.00000    
     56901 TIP3     10662    TIP3     H1       HT       0.417000       1.00800           0   0.00000       0.00000    
     56902 TIP3     10662    TIP3     H2       HT       0.417000       1.00800           0   0.00000     -0.301140E-02
     56903 TIP3     10663    TIP3     OH2      OT      -0.834000       15.9994           0   0.00000       0.00000    
     56904 TIP3     10663    TIP3     H1       HT       0.417000       1.00800           0   0.00000       0.00000    
     56905 TIP3     10663    TIP3     H2       HT       0.417000       1.00800           0   0.00000     -0.301140E-02
     56906 TIP3     10664    TIP3     OH2      OT      -0.834000       15.9994           0   0.00000       0.00000    
     56907 TIP3     10664    TIP3     H1       HT       0.417000       1.00800           0   0.00000       0.00000    
     56908 TIP3     10664    TIP3     H2       HT       0.417000       1.00800           0   0.00000     -0.301140E-02
     56909 TIP3     10665    TIP3     OH2      OT      -0.834000       15.9994           0   0.00000       0.00000    
     56910 TIP3     10665    TIP3     H1       HT       0.417000       1.00800           0   0.00000       0.00000    
     56911 TIP3     10665    TIP3     H2       HT       0.417000       1.00800           0   0.00000     -0.301140E-02
     56912 TIP3     10666    TIP3     OH2      OT      -0.834000       15.9994           0   0.00000       0.00000    
     56913 TIP3     10666    TIP3     H1       HT       0.417000       1.00800           0   0.00000       0.00000    
     56914 TIP3     10666    TIP3     H2       HT       0.417000       1.00800           0   0.00000     -0.301140E-02
     56915 TIP3     10667    TIP3     OH2      OT      -0.834000       15.9994           0   0.00000       0.00000    
     56916 TIP3     10667    TIP3     H1       HT       0.417000       1.00800           0   0.00000       0.00000    
     56917 TIP3     10667    TIP3     H2       HT       0.417000       1.00800           0   0.00000     -0.301140E-02
     56918 TIP3     10668    TIP3     OH2      OT      -0.834000       15.9994           0   0.00000       0.00000    
     56919 TIP3     10668    TIP3     H1       HT       0.417000       1.00800           0   0.00000       0.00000    
     56920 TIP3     10668    TIP3     H2       HT       0.417000       1.00800           0   0.00000     -0.301140E-02
     56921 TIP3     10669    TIP3     OH2      OT      -0.834000       15.9994           0   0.00000       0.00000    
     56922 TIP3     10669    TIP3     H1       HT       0.417000       1.00800           0   0.00000       0.00000    
     56923 TIP3     10669    TIP3     H2       HT       0.417000       1.00800           0   0.00000     -0.301140E-02
     56924 TIP3     10670    TIP3     OH2      OT      -0.834000       15.9994           0   0.00000       0.00000    
     56925 TIP3     10670    TIP3     H1       HT       0.417000       1.00800           0   0.00000       0.00000    
     56926 TIP3     10670    TIP3     H2       HT       0.417000       1.00800           0   0.00000     -0.301140E-02
     56927 TIP3     10671    TIP3     OH2      OT      -0.834000       15.9994           0   0.00000       0.00000    
     56928 TIP3     10671    TIP3     H1       HT       0.417000       1.00800           0   0.00000       0.00000    
     56929 TIP3     10671    TIP3     H2       HT       0.417000       1.00800           0   0.00000     -0.301140E-02
     56930 TIP3     10672    TIP3     OH2      OT      -0.834000       15.9994           0   0.00000       0.00000    
     56931 TIP3     10672    TIP3     H1       HT       0.417000       1.00800           0   0.00000       0.00000    
     56932 TIP3     10672    TIP3     H2       HT       0.417000       1.00800           0   0.00000     -0.301140E-02
     56933 TIP3     10673    TIP3     OH2      OT      -0.834000       15.9994           0   0.00000       0.00000    
     56934 TIP3     10673    TIP3     H1       HT       0.417000       1.00800           0   0.00000       0.00000    
     56935 TIP3     10673    TIP3     H2       HT       0.417000       1.00800           0   0.00000     -0.301140E-02
     56936 TIP3     10674    TIP3     OH2      OT      -0.834000       15.9994           0   0.00000       0.00000    
     56937 TIP3     10674    TIP3     H1       HT       0.417000       1.00800           0   0.00000       0.00000    
     56938 TIP3     10674    TIP3     H2       HT       0.417000       1.00800           0   0.00000     -0.301140E-02
     56939 TIP3     10675    TIP3     OH2      OT      -0.834000       15.9994           0   0.00000       0.00000    
     56940 TIP3     10675    TIP3     H1       HT       0.417000       1.00800           0   0.00000       0.00000    
     56941 TIP3     10675    TIP3     H2       HT       0.417000       1.00800           0   0.00000     -0.301140E-02
     56942 TIP3     10676    TIP3     OH2      OT      -0.834000       15.9994           0   0.00000       0.00000    
     56943 TIP3     10676    TIP3     H1       HT       0.417000       1.00800           0   0.00000       0.00000    
     56944 TIP3     10676    TIP3     H2       HT       0.417000       1.00800           0   0.00000     -0.301140E-02
     56945 TIP3     10677    TIP3     OH2      OT      -0.834000       15.9994           0   0.00000       0.00000    
     56946 TIP3     10677    TIP3     H1       HT       0.417000       1.00800           0   0.00000       0.00000    
     56947 TIP3     10677    TIP3     H2       HT       0.417000       1.00800           0   0.00000     -0.301140E-02
     56948 TIP3     10678    TIP3     OH2      OT      -0.834000       15.9994           0   0.00000       0.00000    
     56949 TIP3     10678    TIP3     H1       HT       0.417000       1.00800           0   0.00000       0.00000    
     56950 TIP3     10678    TIP3     H2       HT       0.417000       1.00800           0   0.00000     -0.301140E-02
     56951 TIP3     10679    TIP3     OH2      OT      -0.834000       15.9994           0   0.00000       0.00000    
     56952 TIP3     10679    TIP3     H1       HT       0.417000       1.00800           0   0.00000       0.00000    
     56953 TIP3     10679    TIP3     H2       HT       0.417000       1.00800           0   0.00000     -0.301140E-02
     56954 TIP3     10680    TIP3     OH2      OT      -0.834000       15.9994           0   0.00000       0.00000    
     56955 TIP3     10680    TIP3     H1       HT       0.417000       1.00800           0   0.00000       0.00000    
     56956 TIP3     10680    TIP3     H2       HT       0.417000       1.00800           0   0.00000     -0.301140E-02
     56957 TIP3     10681    TIP3     OH2      OT      -0.834000       15.9994           0   0.00000       0.00000    
     56958 TIP3     10681    TIP3     H1       HT       0.417000       1.00800           0   0.00000       0.00000    
     56959 TIP3     10681    TIP3     H2       HT       0.417000       1.00800           0   0.00000     -0.301140E-02
     56960 TIP3     10682    TIP3     OH2      OT      -0.834000       15.9994           0   0.00000       0.00000    
     56961 TIP3     10682    TIP3     H1       HT       0.417000       1.00800           0   0.00000       0.00000    
     56962 TIP3     10682    TIP3     H2       HT       0.417000       1.00800           0   0.00000     -0.301140E-02
     56963 TIP3     10683    TIP3     OH2      OT      -0.834000       15.9994           0   0.00000       0.00000    
     56964 TIP3     10683    TIP3     H1       HT       0.417000       1.00800           0   0.00000       0.00000    
     56965 TIP3     10683    TIP3     H2       HT       0.417000       1.00800           0   0.00000     -0.301140E-02
     56966 TIP3     10684    TIP3     OH2      OT      -0.834000       15.9994           0   0.00000       0.00000    
     56967 TIP3     10684    TIP3     H1       HT       0.417000       1.00800           0   0.00000       0.00000    
     56968 TIP3     10684    TIP3     H2       HT       0.417000       1.00800           0   0.00000     -0.301140E-02
     56969 TIP3     10685    TIP3     OH2      OT      -0.834000       15.9994           0   0.00000       0.00000    
     56970 TIP3     10685    TIP3     H1       HT       0.417000       1.00800           0   0.00000       0.00000    
     56971 TIP3     10685    TIP3     H2       HT       0.417000       1.00800           0   0.00000     -0.301140E-02
     56972 TIP3     10686    TIP3     OH2      OT      -0.834000       15.9994           0   0.00000       0.00000    
     56973 TIP3     10686    TIP3     H1       HT       0.417000       1.00800           0   0.00000       0.00000    
     56974 TIP3     10686    TIP3     H2       HT       0.417000       1.00800           0   0.00000     -0.301140E-02
     56975 TIP3     10687    TIP3     OH2      OT      -0.834000       15.9994           0   0.00000       0.00000    
     56976 TIP3     10687    TIP3     H1       HT       0.417000       1.00800           0   0.00000       0.00000    
     56977 TIP3     10687    TIP3     H2       HT       0.417000       1.00800           0   0.00000     -0.301140E-02
     56978 TIP3     10688    TIP3     OH2      OT      -0.834000       15.9994           0   0.00000       0.00000    
     56979 TIP3     10688    TIP3     H1       HT       0.417000       1.00800           0   0.00000       0.00000    
     56980 TIP3     10688    TIP3     H2       HT       0.417000       1.00800           0   0.00000     -0.301140E-02
     56981 TIP3     10689    TIP3     OH2      OT      -0.834000       15.9994           0   0.00000       0.00000    
     56982 TIP3     10689    TIP3     H1       HT       0.417000       1.00800           0   0.00000       0.00000    
     56983 TIP3     10689    TIP3     H2       HT       0.417000       1.00800           0   0.00000     -0.301140E-02
     56984 TIP3     10690    TIP3     OH2      OT      -0.834000       15.9994           0   0.00000       0.00000    
     56985 TIP3     10690    TIP3     H1       HT       0.417000       1.00800           0   0.00000       0.00000    
     56986 TIP3     10690    TIP3     H2       HT       0.417000       1.00800           0   0.00000     -0.301140E-02
     56987 TIP3     10691    TIP3     OH2      OT      -0.834000       15.9994           0   0.00000       0.00000    
     56988 TIP3     10691    TIP3     H1       HT       0.417000       1.00800           0   0.00000       0.00000    
     56989 TIP3     10691    TIP3     H2       HT       0.417000       1.00800           0   0.00000     -0.301140E-02
     56990 TIP3     10692    TIP3     OH2      OT      -0.834000       15.9994           0   0.00000       0.00000    
     56991 TIP3     10692    TIP3     H1       HT       0.417000       1.00800           0   0.00000       0.00000    
     56992 TIP3     10692    TIP3     H2       HT       0.417000       1.00800           0   0.00000     -0.301140E-02
     56993 TIP3     10693    TIP3     OH2      OT      -0.834000       15.9994           0   0.00000       0.00000    
     56994 TIP3     10693    TIP3     H1       HT       0.417000       1.00800           0   0.00000       0.00000    
     56995 TIP3     10693    TIP3     H2       HT       0.417000       1.00800           0   0.00000     -0.301140E-02
     56996 TIP3     10694    TIP3     OH2      OT      -0.834000       15.9994           0   0.00000       0.00000    
     56997 TIP3     10694    TIP3     H1       HT       0.417000       1.00800           0   0.00000       0.00000    
     56998 TIP3     10694    TIP3     H2       HT       0.417000       1.00800           0   0.00000     -0.301140E-02
     56999 TIP3     10695    TIP3     OH2      OT      -0.834000       15.9994           0   0.00000       0.00000    
     57000 TIP3     10695    TIP3     H1       HT       0.417000       1.00800           0   0.00000       0.00000    
     57001 TIP3     10695    TIP3     H2       HT       0.417000       1.00800           0   0.00000     -0.301140E-02
     57002 TIP3     10696    TIP3     OH2      OT      -0.834000       15.9994           0   0.00000       0.00000    
     57003 TIP3     10696    TIP3     H1       HT       0.417000       1.00800           0   0.00000       0.00000    
     57004 TIP3     10696    TIP3     H2       HT       0.417000       1.00800           0   0.00000     -0.301140E-02
     57005 TIP3     10697    TIP3     OH2      OT      -0.834000       15.9994           0   0.00000       0.00000    
     57006 TIP3     10697    TIP3     H1       HT       0.417000       1.00800           0   0.00000       0.00000    
     57007 TIP3     10697    TIP3     H2       HT       0.417000       1.00800           0   0.00000     -0.301140E-02
     57008 TIP3     10698    TIP3     OH2      OT      -0.834000       15.9994           0   0.00000       0.00000    
     57009 TIP3     10698    TIP3     H1       HT       0.417000       1.00800           0   0.00000       0.00000    
     57010 TIP3     10698    TIP3     H2       HT       0.417000       1.00800           0   0.00000     -0.301140E-02
     57011 TIP3     10699    TIP3     OH2      OT      -0.834000       15.9994           0   0.00000       0.00000    
     57012 TIP3     10699    TIP3     H1       HT       0.417000       1.00800           0   0.00000       0.00000    
     57013 TIP3     10699    TIP3     H2       HT       0.417000       1.00800           0   0.00000     -0.301140E-02
     57014 TIP3     10700    TIP3     OH2      OT      -0.834000       15.9994           0   0.00000       0.00000    
     57015 TIP3     10700    TIP3     H1       HT       0.417000       1.00800           0   0.00000       0.00000    
     57016 TIP3     10700    TIP3     H2       HT       0.417000       1.00800           0   0.00000     -0.301140E-02
     57017 TIP3     10701    TIP3     OH2      OT      -0.834000       15.9994           0   0.00000       0.00000    
     57018 TIP3     10701    TIP3     H1       HT       0.417000       1.00800           0   0.00000       0.00000    
     57019 TIP3     10701    TIP3     H2       HT       0.417000       1.00800           0   0.00000     -0.301140E-02
     57020 TIP3     10702    TIP3     OH2      OT      -0.834000       15.9994           0   0.00000       0.00000    
     57021 TIP3     10702    TIP3     H1       HT       0.417000       1.00800           0   0.00000       0.00000    
     57022 TIP3     10702    TIP3     H2       HT       0.417000       1.00800           0   0.00000     -0.301140E-02
     57023 TIP3     10703    TIP3     OH2      OT      -0.834000       15.9994           0   0.00000       0.00000    
     57024 TIP3     10703    TIP3     H1       HT       0.417000       1.00800           0   0.00000       0.00000    
     57025 TIP3     10703    TIP3     H2       HT       0.417000       1.00800           0   0.00000     -0.301140E-02
     57026 TIP3     10704    TIP3     OH2      OT      -0.834000       15.9994           0   0.00000       0.00000    
     57027 TIP3     10704    TIP3     H1       HT       0.417000       1.00800           0   0.00000       0.00000    
     57028 TIP3     10704    TIP3     H2       HT       0.417000       1.00800           0   0.00000     -0.301140E-02
     57029 TIP3     10705    TIP3     OH2      OT      -0.834000       15.9994           0   0.00000       0.00000    
     57030 TIP3     10705    TIP3     H1       HT       0.417000       1.00800           0   0.00000       0.00000    
     57031 TIP3     10705    TIP3     H2       HT       0.417000       1.00800           0   0.00000     -0.301140E-02
     57032 TIP3     10706    TIP3     OH2      OT      -0.834000       15.9994           0   0.00000       0.00000    
     57033 TIP3     10706    TIP3     H1       HT       0.417000       1.00800           0   0.00000       0.00000    
     57034 TIP3     10706    TIP3     H2       HT       0.417000       1.00800           0   0.00000     -0.301140E-02
     57035 TIP3     10707    TIP3     OH2      OT      -0.834000       15.9994           0   0.00000       0.00000    
     57036 TIP3     10707    TIP3     H1       HT       0.417000       1.00800           0   0.00000       0.00000    
     57037 TIP3     10707    TIP3     H2       HT       0.417000       1.00800           0   0.00000     -0.301140E-02
     57038 TIP3     10708    TIP3     OH2      OT      -0.834000       15.9994           0   0.00000       0.00000    
     57039 TIP3     10708    TIP3     H1       HT       0.417000       1.00800           0   0.00000       0.00000    
     57040 TIP3     10708    TIP3     H2       HT       0.417000       1.00800           0   0.00000     -0.301140E-02
     57041 TIP3     10709    TIP3     OH2      OT      -0.834000       15.9994           0   0.00000       0.00000    
     57042 TIP3     10709    TIP3     H1       HT       0.417000       1.00800           0   0.00000       0.00000    
     57043 TIP3     10709    TIP3     H2       HT       0.417000       1.00800           0   0.00000     -0.301140E-02
     57044 TIP3     10710    TIP3     OH2      OT      -0.834000       15.9994           0   0.00000       0.00000    
     57045 TIP3     10710    TIP3     H1       HT       0.417000       1.00800           0   0.00000       0.00000    
     57046 TIP3     10710    TIP3     H2       HT       0.417000       1.00800           0   0.00000     -0.301140E-02
     57047 TIP3     10711    TIP3     OH2      OT      -0.834000       15.9994           0   0.00000       0.00000    
     57048 TIP3     10711    TIP3     H1       HT       0.417000       1.00800           0   0.00000       0.00000    
     57049 TIP3     10711    TIP3     H2       HT       0.417000       1.00800           0   0.00000     -0.301140E-02
     57050 TIP3     10712    TIP3     OH2      OT      -0.834000       15.9994           0   0.00000       0.00000    
     57051 TIP3     10712    TIP3     H1       HT       0.417000       1.00800           0   0.00000       0.00000    
     57052 TIP3     10712    TIP3     H2       HT       0.417000       1.00800           0   0.00000     -0.301140E-02
     57053 TIP3     10713    TIP3     OH2      OT      -0.834000       15.9994           0   0.00000       0.00000    
     57054 TIP3     10713    TIP3     H1       HT       0.417000       1.00800           0   0.00000       0.00000    
     57055 TIP3     10713    TIP3     H2       HT       0.417000       1.00800           0   0.00000     -0.301140E-02
     57056 TIP3     10714    TIP3     OH2      OT      -0.834000       15.9994           0   0.00000       0.00000    
     57057 TIP3     10714    TIP3     H1       HT       0.417000       1.00800           0   0.00000       0.00000    
     57058 TIP3     10714    TIP3     H2       HT       0.417000       1.00800           0   0.00000     -0.301140E-02
     57059 TIP3     10715    TIP3     OH2      OT      -0.834000       15.9994           0   0.00000       0.00000    
     57060 TIP3     10715    TIP3     H1       HT       0.417000       1.00800           0   0.00000       0.00000    
     57061 TIP3     10715    TIP3     H2       HT       0.417000       1.00800           0   0.00000     -0.301140E-02
     57062 TIP3     10716    TIP3     OH2      OT      -0.834000       15.9994           0   0.00000       0.00000    
     57063 TIP3     10716    TIP3     H1       HT       0.417000       1.00800           0   0.00000       0.00000    
     57064 TIP3     10716    TIP3     H2       HT       0.417000       1.00800           0   0.00000     -0.301140E-02
     57065 TIP3     10717    TIP3     OH2      OT      -0.834000       15.9994           0   0.00000       0.00000    
     57066 TIP3     10717    TIP3     H1       HT       0.417000       1.00800           0   0.00000       0.00000    
     57067 TIP3     10717    TIP3     H2       HT       0.417000       1.00800           0   0.00000     -0.301140E-02
     57068 TIP3     10718    TIP3     OH2      OT      -0.834000       15.9994           0   0.00000       0.00000    
     57069 TIP3     10718    TIP3     H1       HT       0.417000       1.00800           0   0.00000       0.00000    
     57070 TIP3     10718    TIP3     H2       HT       0.417000       1.00800           0   0.00000     -0.301140E-02
     57071 TIP3     10719    TIP3     OH2      OT      -0.834000       15.9994           0   0.00000       0.00000    
     57072 TIP3     10719    TIP3     H1       HT       0.417000       1.00800           0   0.00000       0.00000    
     57073 TIP3     10719    TIP3     H2       HT       0.417000       1.00800           0   0.00000     -0.301140E-02
     57074 TIP3     10720    TIP3     OH2      OT      -0.834000       15.9994           0   0.00000       0.00000    
     57075 TIP3     10720    TIP3     H1       HT       0.417000       1.00800           0   0.00000       0.00000    
     57076 TIP3     10720    TIP3     H2       HT       0.417000       1.00800           0   0.00000     -0.301140E-02
     57077 TIP3     10721    TIP3     OH2      OT      -0.834000       15.9994           0   0.00000       0.00000    
     57078 TIP3     10721    TIP3     H1       HT       0.417000       1.00800           0   0.00000       0.00000    
     57079 TIP3     10721    TIP3     H2       HT       0.417000       1.00800           0   0.00000     -0.301140E-02
     57080 TIP3     10722    TIP3     OH2      OT      -0.834000       15.9994           0   0.00000       0.00000    
     57081 TIP3     10722    TIP3     H1       HT       0.417000       1.00800           0   0.00000       0.00000    
     57082 TIP3     10722    TIP3     H2       HT       0.417000       1.00800           0   0.00000     -0.301140E-02
     57083 TIP3     10723    TIP3     OH2      OT      -0.834000       15.9994           0   0.00000       0.00000    
     57084 TIP3     10723    TIP3     H1       HT       0.417000       1.00800           0   0.00000       0.00000    
     57085 TIP3     10723    TIP3     H2       HT       0.417000       1.00800           0   0.00000     -0.301140E-02
     57086 TIP3     10724    TIP3     OH2      OT      -0.834000       15.9994           0   0.00000       0.00000    
     57087 TIP3     10724    TIP3     H1       HT       0.417000       1.00800           0   0.00000       0.00000    
     57088 TIP3     10724    TIP3     H2       HT       0.417000       1.00800           0   0.00000     -0.301140E-02
     57089 TIP3     10725    TIP3     OH2      OT      -0.834000       15.9994           0   0.00000       0.00000    
     57090 TIP3     10725    TIP3     H1       HT       0.417000       1.00800           0   0.00000       0.00000    
     57091 TIP3     10725    TIP3     H2       HT       0.417000       1.00800           0   0.00000     -0.301140E-02
     57092 TIP3     10726    TIP3     OH2      OT      -0.834000       15.9994           0   0.00000       0.00000    
     57093 TIP3     10726    TIP3     H1       HT       0.417000       1.00800           0   0.00000       0.00000    
     57094 TIP3     10726    TIP3     H2       HT       0.417000       1.00800           0   0.00000     -0.301140E-02
     57095 TIP3     10727    TIP3     OH2      OT      -0.834000       15.9994           0   0.00000       0.00000    
     57096 TIP3     10727    TIP3     H1       HT       0.417000       1.00800           0   0.00000       0.00000    
     57097 TIP3     10727    TIP3     H2       HT       0.417000       1.00800           0   0.00000     -0.301140E-02
     57098 TIP3     10728    TIP3     OH2      OT      -0.834000       15.9994           0   0.00000       0.00000    
     57099 TIP3     10728    TIP3     H1       HT       0.417000       1.00800           0   0.00000       0.00000    
     57100 TIP3     10728    TIP3     H2       HT       0.417000       1.00800           0   0.00000     -0.301140E-02
     57101 TIP3     10729    TIP3     OH2      OT      -0.834000       15.9994           0   0.00000       0.00000    
     57102 TIP3     10729    TIP3     H1       HT       0.417000       1.00800           0   0.00000       0.00000    
     57103 TIP3     10729    TIP3     H2       HT       0.417000       1.00800           0   0.00000     -0.301140E-02
     57104 TIP3     10730    TIP3     OH2      OT      -0.834000       15.9994           0   0.00000       0.00000    
     57105 TIP3     10730    TIP3     H1       HT       0.417000       1.00800           0   0.00000       0.00000    
     57106 TIP3     10730    TIP3     H2       HT       0.417000       1.00800           0   0.00000     -0.301140E-02
     57107 TIP3     10731    TIP3     OH2      OT      -0.834000       15.9994           0   0.00000       0.00000    
     57108 TIP3     10731    TIP3     H1       HT       0.417000       1.00800           0   0.00000       0.00000    
     57109 TIP3     10731    TIP3     H2       HT       0.417000       1.00800           0   0.00000     -0.301140E-02
     57110 TIP3     10732    TIP3     OH2      OT      -0.834000       15.9994           0   0.00000       0.00000    
     57111 TIP3     10732    TIP3     H1       HT       0.417000       1.00800           0   0.00000       0.00000    
     57112 TIP3     10732    TIP3     H2       HT       0.417000       1.00800           0   0.00000     -0.301140E-02
     57113 TIP3     10733    TIP3     OH2      OT      -0.834000       15.9994           0   0.00000       0.00000    
     57114 TIP3     10733    TIP3     H1       HT       0.417000       1.00800           0   0.00000       0.00000    
     57115 TIP3     10733    TIP3     H2       HT       0.417000       1.00800           0   0.00000     -0.301140E-02
     57116 TIP3     10734    TIP3     OH2      OT      -0.834000       15.9994           0   0.00000       0.00000    
     57117 TIP3     10734    TIP3     H1       HT       0.417000       1.00800           0   0.00000       0.00000    
     57118 TIP3     10734    TIP3     H2       HT       0.417000       1.00800           0   0.00000     -0.301140E-02
     57119 TIP3     10735    TIP3     OH2      OT      -0.834000       15.9994           0   0.00000       0.00000    
     57120 TIP3     10735    TIP3     H1       HT       0.417000       1.00800           0   0.00000       0.00000    
     57121 TIP3     10735    TIP3     H2       HT       0.417000       1.00800           0   0.00000     -0.301140E-02
     57122 TIP3     10736    TIP3     OH2      OT      -0.834000       15.9994           0   0.00000       0.00000    
     57123 TIP3     10736    TIP3     H1       HT       0.417000       1.00800           0   0.00000       0.00000    
     57124 TIP3     10736    TIP3     H2       HT       0.417000       1.00800           0   0.00000     -0.301140E-02
     57125 TIP3     10737    TIP3     OH2      OT      -0.834000       15.9994           0   0.00000       0.00000    
     57126 TIP3     10737    TIP3     H1       HT       0.417000       1.00800           0   0.00000       0.00000    
     57127 TIP3     10737    TIP3     H2       HT       0.417000       1.00800           0   0.00000     -0.301140E-02
     57128 TIP3     10738    TIP3     OH2      OT      -0.834000       15.9994           0   0.00000       0.00000    
     57129 TIP3     10738    TIP3     H1       HT       0.417000       1.00800           0   0.00000       0.00000    
     57130 TIP3     10738    TIP3     H2       HT       0.417000       1.00800           0   0.00000     -0.301140E-02
     57131 TIP3     10739    TIP3     OH2      OT      -0.834000       15.9994           0   0.00000       0.00000    
     57132 TIP3     10739    TIP3     H1       HT       0.417000       1.00800           0   0.00000       0.00000    
     57133 TIP3     10739    TIP3     H2       HT       0.417000       1.00800           0   0.00000     -0.301140E-02
     57134 TIP3     10740    TIP3     OH2      OT      -0.834000       15.9994           0   0.00000       0.00000    
     57135 TIP3     10740    TIP3     H1       HT       0.417000       1.00800           0   0.00000       0.00000    
     57136 TIP3     10740    TIP3     H2       HT       0.417000       1.00800           0   0.00000     -0.301140E-02
     57137 TIP3     10741    TIP3     OH2      OT      -0.834000       15.9994           0   0.00000       0.00000    
     57138 TIP3     10741    TIP3     H1       HT       0.417000       1.00800           0   0.00000       0.00000    
     57139 TIP3     10741    TIP3     H2       HT       0.417000       1.00800           0   0.00000     -0.301140E-02
     57140 TIP3     10742    TIP3     OH2      OT      -0.834000       15.9994           0   0.00000       0.00000    
     57141 TIP3     10742    TIP3     H1       HT       0.417000       1.00800           0   0.00000       0.00000    
     57142 TIP3     10742    TIP3     H2       HT       0.417000       1.00800           0   0.00000     -0.301140E-02
     57143 TIP3     10743    TIP3     OH2      OT      -0.834000       15.9994           0   0.00000       0.00000    
     57144 TIP3     10743    TIP3     H1       HT       0.417000       1.00800           0   0.00000       0.00000    
     57145 TIP3     10743    TIP3     H2       HT       0.417000       1.00800           0   0.00000     -0.301140E-02
     57146 TIP3     10744    TIP3     OH2      OT      -0.834000       15.9994           0   0.00000       0.00000    
     57147 TIP3     10744    TIP3     H1       HT       0.417000       1.00800           0   0.00000       0.00000    
     57148 TIP3     10744    TIP3     H2       HT       0.417000       1.00800           0   0.00000     -0.301140E-02
     57149 TIP3     10745    TIP3     OH2      OT      -0.834000       15.9994           0   0.00000       0.00000    
     57150 TIP3     10745    TIP3     H1       HT       0.417000       1.00800           0   0.00000       0.00000    
     57151 TIP3     10745    TIP3     H2       HT       0.417000       1.00800           0   0.00000     -0.301140E-02
     57152 TIP3     10746    TIP3     OH2      OT      -0.834000       15.9994           0   0.00000       0.00000    
     57153 TIP3     10746    TIP3     H1       HT       0.417000       1.00800           0   0.00000       0.00000    
     57154 TIP3     10746    TIP3     H2       HT       0.417000       1.00800           0   0.00000     -0.301140E-02
     57155 TIP3     10747    TIP3     OH2      OT      -0.834000       15.9994           0   0.00000       0.00000    
     57156 TIP3     10747    TIP3     H1       HT       0.417000       1.00800           0   0.00000       0.00000    
     57157 TIP3     10747    TIP3     H2       HT       0.417000       1.00800           0   0.00000     -0.301140E-02
     57158 TIP3     10748    TIP3     OH2      OT      -0.834000       15.9994           0   0.00000       0.00000    
     57159 TIP3     10748    TIP3     H1       HT       0.417000       1.00800           0   0.00000       0.00000    
     57160 TIP3     10748    TIP3     H2       HT       0.417000       1.00800           0   0.00000     -0.301140E-02
     57161 TIP3     10749    TIP3     OH2      OT      -0.834000       15.9994           0   0.00000       0.00000    
     57162 TIP3     10749    TIP3     H1       HT       0.417000       1.00800           0   0.00000       0.00000    
     57163 TIP3     10749    TIP3     H2       HT       0.417000       1.00800           0   0.00000     -0.301140E-02
     57164 TIP3     10750    TIP3     OH2      OT      -0.834000       15.9994           0   0.00000       0.00000    
     57165 TIP3     10750    TIP3     H1       HT       0.417000       1.00800           0   0.00000       0.00000    
     57166 TIP3     10750    TIP3     H2       HT       0.417000       1.00800           0   0.00000     -0.301140E-02
     57167 TIP3     10751    TIP3     OH2      OT      -0.834000       15.9994           0   0.00000       0.00000    
     57168 TIP3     10751    TIP3     H1       HT       0.417000       1.00800           0   0.00000       0.00000    
     57169 TIP3     10751    TIP3     H2       HT       0.417000       1.00800           0   0.00000     -0.301140E-02
     57170 TIP3     10752    TIP3     OH2      OT      -0.834000       15.9994           0   0.00000       0.00000    
     57171 TIP3     10752    TIP3     H1       HT       0.417000       1.00800           0   0.00000       0.00000    
     57172 TIP3     10752    TIP3     H2       HT       0.417000       1.00800           0   0.00000     -0.301140E-02
     57173 TIP3     10753    TIP3     OH2      OT      -0.834000       15.9994           0   0.00000       0.00000    
     57174 TIP3     10753    TIP3     H1       HT       0.417000       1.00800           0   0.00000       0.00000    
     57175 TIP3     10753    TIP3     H2       HT       0.417000       1.00800           0   0.00000     -0.301140E-02
     57176 TIP3     10754    TIP3     OH2      OT      -0.834000       15.9994           0   0.00000       0.00000    
     57177 TIP3     10754    TIP3     H1       HT       0.417000       1.00800           0   0.00000       0.00000    
     57178 TIP3     10754    TIP3     H2       HT       0.417000       1.00800           0   0.00000     -0.301140E-02
     57179 TIP3     10755    TIP3     OH2      OT      -0.834000       15.9994           0   0.00000       0.00000    
     57180 TIP3     10755    TIP3     H1       HT       0.417000       1.00800           0   0.00000       0.00000    
     57181 TIP3     10755    TIP3     H2       HT       0.417000       1.00800           0   0.00000     -0.301140E-02
     57182 TIP3     10756    TIP3     OH2      OT      -0.834000       15.9994           0   0.00000       0.00000    
     57183 TIP3     10756    TIP3     H1       HT       0.417000       1.00800           0   0.00000       0.00000    
     57184 TIP3     10756    TIP3     H2       HT       0.417000       1.00800           0   0.00000     -0.301140E-02
     57185 TIP3     10757    TIP3     OH2      OT      -0.834000       15.9994           0   0.00000       0.00000    
     57186 TIP3     10757    TIP3     H1       HT       0.417000       1.00800           0   0.00000       0.00000    
     57187 TIP3     10757    TIP3     H2       HT       0.417000       1.00800           0   0.00000     -0.301140E-02
     57188 TIP3     10758    TIP3     OH2      OT      -0.834000       15.9994           0   0.00000       0.00000    
     57189 TIP3     10758    TIP3     H1       HT       0.417000       1.00800           0   0.00000       0.00000    
     57190 TIP3     10758    TIP3     H2       HT       0.417000       1.00800           0   0.00000     -0.301140E-02
     57191 TIP3     10759    TIP3     OH2      OT      -0.834000       15.9994           0   0.00000       0.00000    
     57192 TIP3     10759    TIP3     H1       HT       0.417000       1.00800           0   0.00000       0.00000    
     57193 TIP3     10759    TIP3     H2       HT       0.417000       1.00800           0   0.00000     -0.301140E-02
     57194 TIP3     10760    TIP3     OH2      OT      -0.834000       15.9994           0   0.00000       0.00000    
     57195 TIP3     10760    TIP3     H1       HT       0.417000       1.00800           0   0.00000       0.00000    
     57196 TIP3     10760    TIP3     H2       HT       0.417000       1.00800           0   0.00000     -0.301140E-02
     57197 TIP3     10761    TIP3     OH2      OT      -0.834000       15.9994           0   0.00000       0.00000    
     57198 TIP3     10761    TIP3     H1       HT       0.417000       1.00800           0   0.00000       0.00000    
     57199 TIP3     10761    TIP3     H2       HT       0.417000       1.00800           0   0.00000     -0.301140E-02
     57200 TIP3     10762    TIP3     OH2      OT      -0.834000       15.9994           0   0.00000       0.00000    
     57201 TIP3     10762    TIP3     H1       HT       0.417000       1.00800           0   0.00000       0.00000    
     57202 TIP3     10762    TIP3     H2       HT       0.417000       1.00800           0   0.00000     -0.301140E-02
     57203 TIP3     10763    TIP3     OH2      OT      -0.834000       15.9994           0   0.00000       0.00000    
     57204 TIP3     10763    TIP3     H1       HT       0.417000       1.00800           0   0.00000       0.00000    
     57205 TIP3     10763    TIP3     H2       HT       0.417000       1.00800           0   0.00000     -0.301140E-02
     57206 TIP3     10764    TIP3     OH2      OT      -0.834000       15.9994           0   0.00000       0.00000    
     57207 TIP3     10764    TIP3     H1       HT       0.417000       1.00800           0   0.00000       0.00000    
     57208 TIP3     10764    TIP3     H2       HT       0.417000       1.00800           0   0.00000     -0.301140E-02
     57209 TIP3     10765    TIP3     OH2      OT      -0.834000       15.9994           0   0.00000       0.00000    
     57210 TIP3     10765    TIP3     H1       HT       0.417000       1.00800           0   0.00000       0.00000    
     57211 TIP3     10765    TIP3     H2       HT       0.417000       1.00800           0   0.00000     -0.301140E-02
     57212 TIP3     10766    TIP3     OH2      OT      -0.834000       15.9994           0   0.00000       0.00000    
     57213 TIP3     10766    TIP3     H1       HT       0.417000       1.00800           0   0.00000       0.00000    
     57214 TIP3     10766    TIP3     H2       HT       0.417000       1.00800           0   0.00000     -0.301140E-02
     57215 TIP3     10767    TIP3     OH2      OT      -0.834000       15.9994           0   0.00000       0.00000    
     57216 TIP3     10767    TIP3     H1       HT       0.417000       1.00800           0   0.00000       0.00000    
     57217 TIP3     10767    TIP3     H2       HT       0.417000       1.00800           0   0.00000     -0.301140E-02
     57218 TIP3     10768    TIP3     OH2      OT      -0.834000       15.9994           0   0.00000       0.00000    
     57219 TIP3     10768    TIP3     H1       HT       0.417000       1.00800           0   0.00000       0.00000    
     57220 TIP3     10768    TIP3     H2       HT       0.417000       1.00800           0   0.00000     -0.301140E-02
     57221 TIP3     10769    TIP3     OH2      OT      -0.834000       15.9994           0   0.00000       0.00000    
     57222 TIP3     10769    TIP3     H1       HT       0.417000       1.00800           0   0.00000       0.00000    
     57223 TIP3     10769    TIP3     H2       HT       0.417000       1.00800           0   0.00000     -0.301140E-02
     57224 TIP3     10770    TIP3     OH2      OT      -0.834000       15.9994           0   0.00000       0.00000    
     57225 TIP3     10770    TIP3     H1       HT       0.417000       1.00800           0   0.00000       0.00000    
     57226 TIP3     10770    TIP3     H2       HT       0.417000       1.00800           0   0.00000     -0.301140E-02
     57227 TIP3     10771    TIP3     OH2      OT      -0.834000       15.9994           0   0.00000       0.00000    
     57228 TIP3     10771    TIP3     H1       HT       0.417000       1.00800           0   0.00000       0.00000    
     57229 TIP3     10771    TIP3     H2       HT       0.417000       1.00800           0   0.00000     -0.301140E-02
     57230 TIP3     10772    TIP3     OH2      OT      -0.834000       15.9994           0   0.00000       0.00000    
     57231 TIP3     10772    TIP3     H1       HT       0.417000       1.00800           0   0.00000       0.00000    
     57232 TIP3     10772    TIP3     H2       HT       0.417000       1.00800           0   0.00000     -0.301140E-02
     57233 TIP3     10773    TIP3     OH2      OT      -0.834000       15.9994           0   0.00000       0.00000    
     57234 TIP3     10773    TIP3     H1       HT       0.417000       1.00800           0   0.00000       0.00000    
     57235 TIP3     10773    TIP3     H2       HT       0.417000       1.00800           0   0.00000     -0.301140E-02
     57236 TIP3     10774    TIP3     OH2      OT      -0.834000       15.9994           0   0.00000       0.00000    
     57237 TIP3     10774    TIP3     H1       HT       0.417000       1.00800           0   0.00000       0.00000    
     57238 TIP3     10774    TIP3     H2       HT       0.417000       1.00800           0   0.00000     -0.301140E-02
     57239 TIP3     10775    TIP3     OH2      OT      -0.834000       15.9994           0   0.00000       0.00000    
     57240 TIP3     10775    TIP3     H1       HT       0.417000       1.00800           0   0.00000       0.00000    
     57241 TIP3     10775    TIP3     H2       HT       0.417000       1.00800           0   0.00000     -0.301140E-02
     57242 TIP3     10776    TIP3     OH2      OT      -0.834000       15.9994           0   0.00000       0.00000    
     57243 TIP3     10776    TIP3     H1       HT       0.417000       1.00800           0   0.00000       0.00000    
     57244 TIP3     10776    TIP3     H2       HT       0.417000       1.00800           0   0.00000     -0.301140E-02
     57245 TIP3     10777    TIP3     OH2      OT      -0.834000       15.9994           0   0.00000       0.00000    
     57246 TIP3     10777    TIP3     H1       HT       0.417000       1.00800           0   0.00000       0.00000    
     57247 TIP3     10777    TIP3     H2       HT       0.417000       1.00800           0   0.00000     -0.301140E-02
     57248 TIP3     10778    TIP3     OH2      OT      -0.834000       15.9994           0   0.00000       0.00000    
     57249 TIP3     10778    TIP3     H1       HT       0.417000       1.00800           0   0.00000       0.00000    
     57250 TIP3     10778    TIP3     H2       HT       0.417000       1.00800           0   0.00000     -0.301140E-02
     57251 TIP3     10779    TIP3     OH2      OT      -0.834000       15.9994           0   0.00000       0.00000    
     57252 TIP3     10779    TIP3     H1       HT       0.417000       1.00800           0   0.00000       0.00000    
     57253 TIP3     10779    TIP3     H2       HT       0.417000       1.00800           0   0.00000     -0.301140E-02
     57254 TIP3     10780    TIP3     OH2      OT      -0.834000       15.9994           0   0.00000       0.00000    
     57255 TIP3     10780    TIP3     H1       HT       0.417000       1.00800           0   0.00000       0.00000    
     57256 TIP3     10780    TIP3     H2       HT       0.417000       1.00800           0   0.00000     -0.301140E-02
     57257 TIP3     10781    TIP3     OH2      OT      -0.834000       15.9994           0   0.00000       0.00000    
     57258 TIP3     10781    TIP3     H1       HT       0.417000       1.00800           0   0.00000       0.00000    
     57259 TIP3     10781    TIP3     H2       HT       0.417000       1.00800           0   0.00000     -0.301140E-02
     57260 TIP3     10782    TIP3     OH2      OT      -0.834000       15.9994           0   0.00000       0.00000    
     57261 TIP3     10782    TIP3     H1       HT       0.417000       1.00800           0   0.00000       0.00000    
     57262 TIP3     10782    TIP3     H2       HT       0.417000       1.00800           0   0.00000     -0.301140E-02
     57263 TIP3     10783    TIP3     OH2      OT      -0.834000       15.9994           0   0.00000       0.00000    
     57264 TIP3     10783    TIP3     H1       HT       0.417000       1.00800           0   0.00000       0.00000    
     57265 TIP3     10783    TIP3     H2       HT       0.417000       1.00800           0   0.00000     -0.301140E-02
     57266 TIP3     10784    TIP3     OH2      OT      -0.834000       15.9994           0   0.00000       0.00000    
     57267 TIP3     10784    TIP3     H1       HT       0.417000       1.00800           0   0.00000       0.00000    
     57268 TIP3     10784    TIP3     H2       HT       0.417000       1.00800           0   0.00000     -0.301140E-02
     57269 TIP3     10785    TIP3     OH2      OT      -0.834000       15.9994           0   0.00000       0.00000    
     57270 TIP3     10785    TIP3     H1       HT       0.417000       1.00800           0   0.00000       0.00000    
     57271 TIP3     10785    TIP3     H2       HT       0.417000       1.00800           0   0.00000     -0.301140E-02
     57272 TIP3     10786    TIP3     OH2      OT      -0.834000       15.9994           0   0.00000       0.00000    
     57273 TIP3     10786    TIP3     H1       HT       0.417000       1.00800           0   0.00000       0.00000    
     57274 TIP3     10786    TIP3     H2       HT       0.417000       1.00800           0   0.00000     -0.301140E-02
     57275 TIP3     10787    TIP3     OH2      OT      -0.834000       15.9994           0   0.00000       0.00000    
     57276 TIP3     10787    TIP3     H1       HT       0.417000       1.00800           0   0.00000       0.00000    
     57277 TIP3     10787    TIP3     H2       HT       0.417000       1.00800           0   0.00000     -0.301140E-02
     57278 TIP3     10788    TIP3     OH2      OT      -0.834000       15.9994           0   0.00000       0.00000    
     57279 TIP3     10788    TIP3     H1       HT       0.417000       1.00800           0   0.00000       0.00000    
     57280 TIP3     10788    TIP3     H2       HT       0.417000       1.00800           0   0.00000     -0.301140E-02
     57281 TIP3     10789    TIP3     OH2      OT      -0.834000       15.9994           0   0.00000       0.00000    
     57282 TIP3     10789    TIP3     H1       HT       0.417000       1.00800           0   0.00000       0.00000    
     57283 TIP3     10789    TIP3     H2       HT       0.417000       1.00800           0   0.00000     -0.301140E-02
     57284 TIP3     10790    TIP3     OH2      OT      -0.834000       15.9994           0   0.00000       0.00000    
     57285 TIP3     10790    TIP3     H1       HT       0.417000       1.00800           0   0.00000       0.00000    
     57286 TIP3     10790    TIP3     H2       HT       0.417000       1.00800           0   0.00000     -0.301140E-02
     57287 TIP3     10791    TIP3     OH2      OT      -0.834000       15.9994           0   0.00000       0.00000    
     57288 TIP3     10791    TIP3     H1       HT       0.417000       1.00800           0   0.00000       0.00000    
     57289 TIP3     10791    TIP3     H2       HT       0.417000       1.00800           0   0.00000     -0.301140E-02
     57290 TIP3     10792    TIP3     OH2      OT      -0.834000       15.9994           0   0.00000       0.00000    
     57291 TIP3     10792    TIP3     H1       HT       0.417000       1.00800           0   0.00000       0.00000    
     57292 TIP3     10792    TIP3     H2       HT       0.417000       1.00800           0   0.00000     -0.301140E-02
     57293 TIP3     10793    TIP3     OH2      OT      -0.834000       15.9994           0   0.00000       0.00000    
     57294 TIP3     10793    TIP3     H1       HT       0.417000       1.00800           0   0.00000       0.00000    
     57295 TIP3     10793    TIP3     H2       HT       0.417000       1.00800           0   0.00000     -0.301140E-02
     57296 TIP3     10794    TIP3     OH2      OT      -0.834000       15.9994           0   0.00000       0.00000    
     57297 TIP3     10794    TIP3     H1       HT       0.417000       1.00800           0   0.00000       0.00000    
     57298 TIP3     10794    TIP3     H2       HT       0.417000       1.00800           0   0.00000     -0.301140E-02
     57299 TIP3     10795    TIP3     OH2      OT      -0.834000       15.9994           0   0.00000       0.00000    
     57300 TIP3     10795    TIP3     H1       HT       0.417000       1.00800           0   0.00000       0.00000    
     57301 TIP3     10795    TIP3     H2       HT       0.417000       1.00800           0   0.00000     -0.301140E-02
     57302 TIP3     10796    TIP3     OH2      OT      -0.834000       15.9994           0   0.00000       0.00000    
     57303 TIP3     10796    TIP3     H1       HT       0.417000       1.00800           0   0.00000       0.00000    
     57304 TIP3     10796    TIP3     H2       HT       0.417000       1.00800           0   0.00000     -0.301140E-02
     57305 TIP3     10797    TIP3     OH2      OT      -0.834000       15.9994           0   0.00000       0.00000    
     57306 TIP3     10797    TIP3     H1       HT       0.417000       1.00800           0   0.00000       0.00000    
     57307 TIP3     10797    TIP3     H2       HT       0.417000       1.00800           0   0.00000     -0.301140E-02
     57308 TIP3     10798    TIP3     OH2      OT      -0.834000       15.9994           0   0.00000       0.00000    
     57309 TIP3     10798    TIP3     H1       HT       0.417000       1.00800           0   0.00000       0.00000    
     57310 TIP3     10798    TIP3     H2       HT       0.417000       1.00800           0   0.00000     -0.301140E-02
     57311 TIP3     10799    TIP3     OH2      OT      -0.834000       15.9994           0   0.00000       0.00000    
     57312 TIP3     10799    TIP3     H1       HT       0.417000       1.00800           0   0.00000       0.00000    
     57313 TIP3     10799    TIP3     H2       HT       0.417000       1.00800           0   0.00000     -0.301140E-02
     57314 TIP3     10800    TIP3     OH2      OT      -0.834000       15.9994           0   0.00000       0.00000    
     57315 TIP3     10800    TIP3     H1       HT       0.417000       1.00800           0   0.00000       0.00000    
     57316 TIP3     10800    TIP3     H2       HT       0.417000       1.00800           0   0.00000     -0.301140E-02
     57317 TIP3     10801    TIP3     OH2      OT      -0.834000       15.9994           0   0.00000       0.00000    
     57318 TIP3     10801    TIP3     H1       HT       0.417000       1.00800           0   0.00000       0.00000    
     57319 TIP3     10801    TIP3     H2       HT       0.417000       1.00800           0   0.00000     -0.301140E-02
     57320 TIP3     10802    TIP3     OH2      OT      -0.834000       15.9994           0   0.00000       0.00000    
     57321 TIP3     10802    TIP3     H1       HT       0.417000       1.00800           0   0.00000       0.00000    
     57322 TIP3     10802    TIP3     H2       HT       0.417000       1.00800           0   0.00000     -0.301140E-02
     57323 TIP3     10803    TIP3     OH2      OT      -0.834000       15.9994           0   0.00000       0.00000    
     57324 TIP3     10803    TIP3     H1       HT       0.417000       1.00800           0   0.00000       0.00000    
     57325 TIP3     10803    TIP3     H2       HT       0.417000       1.00800           0   0.00000     -0.301140E-02
     57326 TIP3     10804    TIP3     OH2      OT      -0.834000       15.9994           0   0.00000       0.00000    
     57327 TIP3     10804    TIP3     H1       HT       0.417000       1.00800           0   0.00000       0.00000    
     57328 TIP3     10804    TIP3     H2       HT       0.417000       1.00800           0   0.00000     -0.301140E-02
     57329 TIP3     10805    TIP3     OH2      OT      -0.834000       15.9994           0   0.00000       0.00000    
     57330 TIP3     10805    TIP3     H1       HT       0.417000       1.00800           0   0.00000       0.00000    
     57331 TIP3     10805    TIP3     H2       HT       0.417000       1.00800           0   0.00000     -0.301140E-02
     57332 TIP3     10806    TIP3     OH2      OT      -0.834000       15.9994           0   0.00000       0.00000    
     57333 TIP3     10806    TIP3     H1       HT       0.417000       1.00800           0   0.00000       0.00000    
     57334 TIP3     10806    TIP3     H2       HT       0.417000       1.00800           0   0.00000     -0.301140E-02
     57335 TIP3     10807    TIP3     OH2      OT      -0.834000       15.9994           0   0.00000       0.00000    
     57336 TIP3     10807    TIP3     H1       HT       0.417000       1.00800           0   0.00000       0.00000    
     57337 TIP3     10807    TIP3     H2       HT       0.417000       1.00800           0   0.00000     -0.301140E-02
     57338 TIP3     10808    TIP3     OH2      OT      -0.834000       15.9994           0   0.00000       0.00000    
     57339 TIP3     10808    TIP3     H1       HT       0.417000       1.00800           0   0.00000       0.00000    
     57340 TIP3     10808    TIP3     H2       HT       0.417000       1.00800           0   0.00000     -0.301140E-02
     57341 TIP3     10809    TIP3     OH2      OT      -0.834000       15.9994           0   0.00000       0.00000    
     57342 TIP3     10809    TIP3     H1       HT       0.417000       1.00800           0   0.00000       0.00000    
     57343 TIP3     10809    TIP3     H2       HT       0.417000       1.00800           0   0.00000     -0.301140E-02
     57344 TIP3     10810    TIP3     OH2      OT      -0.834000       15.9994           0   0.00000       0.00000    
     57345 TIP3     10810    TIP3     H1       HT       0.417000       1.00800           0   0.00000       0.00000    
     57346 TIP3     10810    TIP3     H2       HT       0.417000       1.00800           0   0.00000     -0.301140E-02
     57347 TIP3     10811    TIP3     OH2      OT      -0.834000       15.9994           0   0.00000       0.00000    
     57348 TIP3     10811    TIP3     H1       HT       0.417000       1.00800           0   0.00000       0.00000    
     57349 TIP3     10811    TIP3     H2       HT       0.417000       1.00800           0   0.00000     -0.301140E-02
     57350 TIP3     10812    TIP3     OH2      OT      -0.834000       15.9994           0   0.00000       0.00000    
     57351 TIP3     10812    TIP3     H1       HT       0.417000       1.00800           0   0.00000       0.00000    
     57352 TIP3     10812    TIP3     H2       HT       0.417000       1.00800           0   0.00000     -0.301140E-02
     57353 TIP3     10813    TIP3     OH2      OT      -0.834000       15.9994           0   0.00000       0.00000    
     57354 TIP3     10813    TIP3     H1       HT       0.417000       1.00800           0   0.00000       0.00000    
     57355 TIP3     10813    TIP3     H2       HT       0.417000       1.00800           0   0.00000     -0.301140E-02
     57356 TIP3     10814    TIP3     OH2      OT      -0.834000       15.9994           0   0.00000       0.00000    
     57357 TIP3     10814    TIP3     H1       HT       0.417000       1.00800           0   0.00000       0.00000    
     57358 TIP3     10814    TIP3     H2       HT       0.417000       1.00800           0   0.00000     -0.301140E-02
     57359 TIP3     10815    TIP3     OH2      OT      -0.834000       15.9994           0   0.00000       0.00000    
     57360 TIP3     10815    TIP3     H1       HT       0.417000       1.00800           0   0.00000       0.00000    
     57361 TIP3     10815    TIP3     H2       HT       0.417000       1.00800           0   0.00000     -0.301140E-02
     57362 TIP3     10816    TIP3     OH2      OT      -0.834000       15.9994           0   0.00000       0.00000    
     57363 TIP3     10816    TIP3     H1       HT       0.417000       1.00800           0   0.00000       0.00000    
     57364 TIP3     10816    TIP3     H2       HT       0.417000       1.00800           0   0.00000     -0.301140E-02
     57365 TIP3     10817    TIP3     OH2      OT      -0.834000       15.9994           0   0.00000       0.00000    
     57366 TIP3     10817    TIP3     H1       HT       0.417000       1.00800           0   0.00000       0.00000    
     57367 TIP3     10817    TIP3     H2       HT       0.417000       1.00800           0   0.00000     -0.301140E-02
     57368 TIP3     10818    TIP3     OH2      OT      -0.834000       15.9994           0   0.00000       0.00000    
     57369 TIP3     10818    TIP3     H1       HT       0.417000       1.00800           0   0.00000       0.00000    
     57370 TIP3     10818    TIP3     H2       HT       0.417000       1.00800           0   0.00000     -0.301140E-02
     57371 TIP3     10819    TIP3     OH2      OT      -0.834000       15.9994           0   0.00000       0.00000    
     57372 TIP3     10819    TIP3     H1       HT       0.417000       1.00800           0   0.00000       0.00000    
     57373 TIP3     10819    TIP3     H2       HT       0.417000       1.00800           0   0.00000     -0.301140E-02
     57374 TIP3     10820    TIP3     OH2      OT      -0.834000       15.9994           0   0.00000       0.00000    
     57375 TIP3     10820    TIP3     H1       HT       0.417000       1.00800           0   0.00000       0.00000    
     57376 TIP3     10820    TIP3     H2       HT       0.417000       1.00800           0   0.00000     -0.301140E-02
     57377 TIP3     10821    TIP3     OH2      OT      -0.834000       15.9994           0   0.00000       0.00000    
     57378 TIP3     10821    TIP3     H1       HT       0.417000       1.00800           0   0.00000       0.00000    
     57379 TIP3     10821    TIP3     H2       HT       0.417000       1.00800           0   0.00000     -0.301140E-02
     57380 TIP3     10822    TIP3     OH2      OT      -0.834000       15.9994           0   0.00000       0.00000    
     57381 TIP3     10822    TIP3     H1       HT       0.417000       1.00800           0   0.00000       0.00000    
     57382 TIP3     10822    TIP3     H2       HT       0.417000       1.00800           0   0.00000     -0.301140E-02
     57383 TIP3     10823    TIP3     OH2      OT      -0.834000       15.9994           0   0.00000       0.00000    
     57384 TIP3     10823    TIP3     H1       HT       0.417000       1.00800           0   0.00000       0.00000    
     57385 TIP3     10823    TIP3     H2       HT       0.417000       1.00800           0   0.00000     -0.301140E-02
     57386 TIP3     10824    TIP3     OH2      OT      -0.834000       15.9994           0   0.00000       0.00000    
     57387 TIP3     10824    TIP3     H1       HT       0.417000       1.00800           0   0.00000       0.00000    
     57388 TIP3     10824    TIP3     H2       HT       0.417000       1.00800           0   0.00000     -0.301140E-02
     57389 TIP3     10825    TIP3     OH2      OT      -0.834000       15.9994           0   0.00000       0.00000    
     57390 TIP3     10825    TIP3     H1       HT       0.417000       1.00800           0   0.00000       0.00000    
     57391 TIP3     10825    TIP3     H2       HT       0.417000       1.00800           0   0.00000     -0.301140E-02
     57392 TIP3     10826    TIP3     OH2      OT      -0.834000       15.9994           0   0.00000       0.00000    
     57393 TIP3     10826    TIP3     H1       HT       0.417000       1.00800           0   0.00000       0.00000    
     57394 TIP3     10826    TIP3     H2       HT       0.417000       1.00800           0   0.00000     -0.301140E-02
     57395 TIP3     10827    TIP3     OH2      OT      -0.834000       15.9994           0   0.00000       0.00000    
     57396 TIP3     10827    TIP3     H1       HT       0.417000       1.00800           0   0.00000       0.00000    
     57397 TIP3     10827    TIP3     H2       HT       0.417000       1.00800           0   0.00000     -0.301140E-02
     57398 TIP3     10828    TIP3     OH2      OT      -0.834000       15.9994           0   0.00000       0.00000    
     57399 TIP3     10828    TIP3     H1       HT       0.417000       1.00800           0   0.00000       0.00000    
     57400 TIP3     10828    TIP3     H2       HT       0.417000       1.00800           0   0.00000     -0.301140E-02
     57401 TIP3     10829    TIP3     OH2      OT      -0.834000       15.9994           0   0.00000       0.00000    
     57402 TIP3     10829    TIP3     H1       HT       0.417000       1.00800           0   0.00000       0.00000    
     57403 TIP3     10829    TIP3     H2       HT       0.417000       1.00800           0   0.00000     -0.301140E-02
     57404 TIP3     10830    TIP3     OH2      OT      -0.834000       15.9994           0   0.00000       0.00000    
     57405 TIP3     10830    TIP3     H1       HT       0.417000       1.00800           0   0.00000       0.00000    
     57406 TIP3     10830    TIP3     H2       HT       0.417000       1.00800           0   0.00000     -0.301140E-02
     57407 TIP3     10831    TIP3     OH2      OT      -0.834000       15.9994           0   0.00000       0.00000    
     57408 TIP3     10831    TIP3     H1       HT       0.417000       1.00800           0   0.00000       0.00000    
     57409 TIP3     10831    TIP3     H2       HT       0.417000       1.00800           0   0.00000     -0.301140E-02
     57410 TIP3     10832    TIP3     OH2      OT      -0.834000       15.9994           0   0.00000       0.00000    
     57411 TIP3     10832    TIP3     H1       HT       0.417000       1.00800           0   0.00000       0.00000    
     57412 TIP3     10832    TIP3     H2       HT       0.417000       1.00800           0   0.00000     -0.301140E-02
     57413 TIP3     10833    TIP3     OH2      OT      -0.834000       15.9994           0   0.00000       0.00000    
     57414 TIP3     10833    TIP3     H1       HT       0.417000       1.00800           0   0.00000       0.00000    
     57415 TIP3     10833    TIP3     H2       HT       0.417000       1.00800           0   0.00000     -0.301140E-02
     57416 TIP3     10834    TIP3     OH2      OT      -0.834000       15.9994           0   0.00000       0.00000    
     57417 TIP3     10834    TIP3     H1       HT       0.417000       1.00800           0   0.00000       0.00000    
     57418 TIP3     10834    TIP3     H2       HT       0.417000       1.00800           0   0.00000     -0.301140E-02
     57419 TIP3     10835    TIP3     OH2      OT      -0.834000       15.9994           0   0.00000       0.00000    
     57420 TIP3     10835    TIP3     H1       HT       0.417000       1.00800           0   0.00000       0.00000    
     57421 TIP3     10835    TIP3     H2       HT       0.417000       1.00800           0   0.00000     -0.301140E-02
     57422 TIP3     10836    TIP3     OH2      OT      -0.834000       15.9994           0   0.00000       0.00000    
     57423 TIP3     10836    TIP3     H1       HT       0.417000       1.00800           0   0.00000       0.00000    
     57424 TIP3     10836    TIP3     H2       HT       0.417000       1.00800           0   0.00000     -0.301140E-02
     57425 TIP3     10837    TIP3     OH2      OT      -0.834000       15.9994           0   0.00000       0.00000    
     57426 TIP3     10837    TIP3     H1       HT       0.417000       1.00800           0   0.00000       0.00000    
     57427 TIP3     10837    TIP3     H2       HT       0.417000       1.00800           0   0.00000     -0.301140E-02
     57428 TIP3     10838    TIP3     OH2      OT      -0.834000       15.9994           0   0.00000       0.00000    
     57429 TIP3     10838    TIP3     H1       HT       0.417000       1.00800           0   0.00000       0.00000    
     57430 TIP3     10838    TIP3     H2       HT       0.417000       1.00800           0   0.00000     -0.301140E-02
     57431 TIP3     10839    TIP3     OH2      OT      -0.834000       15.9994           0   0.00000       0.00000    
     57432 TIP3     10839    TIP3     H1       HT       0.417000       1.00800           0   0.00000       0.00000    
     57433 TIP3     10839    TIP3     H2       HT       0.417000       1.00800           0   0.00000     -0.301140E-02
     57434 TIP3     10840    TIP3     OH2      OT      -0.834000       15.9994           0   0.00000       0.00000    
     57435 TIP3     10840    TIP3     H1       HT       0.417000       1.00800           0   0.00000       0.00000    
     57436 TIP3     10840    TIP3     H2       HT       0.417000       1.00800           0   0.00000     -0.301140E-02
     57437 TIP3     10841    TIP3     OH2      OT      -0.834000       15.9994           0   0.00000       0.00000    
     57438 TIP3     10841    TIP3     H1       HT       0.417000       1.00800           0   0.00000       0.00000    
     57439 TIP3     10841    TIP3     H2       HT       0.417000       1.00800           0   0.00000     -0.301140E-02
     57440 TIP3     10842    TIP3     OH2      OT      -0.834000       15.9994           0   0.00000       0.00000    
     57441 TIP3     10842    TIP3     H1       HT       0.417000       1.00800           0   0.00000       0.00000    
     57442 TIP3     10842    TIP3     H2       HT       0.417000       1.00800           0   0.00000     -0.301140E-02
     57443 TIP3     10843    TIP3     OH2      OT      -0.834000       15.9994           0   0.00000       0.00000    
     57444 TIP3     10843    TIP3     H1       HT       0.417000       1.00800           0   0.00000       0.00000    
     57445 TIP3     10843    TIP3     H2       HT       0.417000       1.00800           0   0.00000     -0.301140E-02
     57446 TIP3     10844    TIP3     OH2      OT      -0.834000       15.9994           0   0.00000       0.00000    
     57447 TIP3     10844    TIP3     H1       HT       0.417000       1.00800           0   0.00000       0.00000    
     57448 TIP3     10844    TIP3     H2       HT       0.417000       1.00800           0   0.00000     -0.301140E-02
     57449 TIP3     10845    TIP3     OH2      OT      -0.834000       15.9994           0   0.00000       0.00000    
     57450 TIP3     10845    TIP3     H1       HT       0.417000       1.00800           0   0.00000       0.00000    
     57451 TIP3     10845    TIP3     H2       HT       0.417000       1.00800           0   0.00000     -0.301140E-02
     57452 TIP3     10846    TIP3     OH2      OT      -0.834000       15.9994           0   0.00000       0.00000    
     57453 TIP3     10846    TIP3     H1       HT       0.417000       1.00800           0   0.00000       0.00000    
     57454 TIP3     10846    TIP3     H2       HT       0.417000       1.00800           0   0.00000     -0.301140E-02
     57455 TIP3     10847    TIP3     OH2      OT      -0.834000       15.9994           0   0.00000       0.00000    
     57456 TIP3     10847    TIP3     H1       HT       0.417000       1.00800           0   0.00000       0.00000    
     57457 TIP3     10847    TIP3     H2       HT       0.417000       1.00800           0   0.00000     -0.301140E-02
     57458 TIP3     10848    TIP3     OH2      OT      -0.834000       15.9994           0   0.00000       0.00000    
     57459 TIP3     10848    TIP3     H1       HT       0.417000       1.00800           0   0.00000       0.00000    
     57460 TIP3     10848    TIP3     H2       HT       0.417000       1.00800           0   0.00000     -0.301140E-02
     57461 TIP3     10849    TIP3     OH2      OT      -0.834000       15.9994           0   0.00000       0.00000    
     57462 TIP3     10849    TIP3     H1       HT       0.417000       1.00800           0   0.00000       0.00000    
     57463 TIP3     10849    TIP3     H2       HT       0.417000       1.00800           0   0.00000     -0.301140E-02
     57464 TIP3     10850    TIP3     OH2      OT      -0.834000       15.9994           0   0.00000       0.00000    
     57465 TIP3     10850    TIP3     H1       HT       0.417000       1.00800           0   0.00000       0.00000    
     57466 TIP3     10850    TIP3     H2       HT       0.417000       1.00800           0   0.00000     -0.301140E-02
     57467 TIP3     10851    TIP3     OH2      OT      -0.834000       15.9994           0   0.00000       0.00000    
     57468 TIP3     10851    TIP3     H1       HT       0.417000       1.00800           0   0.00000       0.00000    
     57469 TIP3     10851    TIP3     H2       HT       0.417000       1.00800           0   0.00000     -0.301140E-02
     57470 TIP3     10852    TIP3     OH2      OT      -0.834000       15.9994           0   0.00000       0.00000    
     57471 TIP3     10852    TIP3     H1       HT       0.417000       1.00800           0   0.00000       0.00000    
     57472 TIP3     10852    TIP3     H2       HT       0.417000       1.00800           0   0.00000     -0.301140E-02
     57473 TIP3     10853    TIP3     OH2      OT      -0.834000       15.9994           0   0.00000       0.00000    
     57474 TIP3     10853    TIP3     H1       HT       0.417000       1.00800           0   0.00000       0.00000    
     57475 TIP3     10853    TIP3     H2       HT       0.417000       1.00800           0   0.00000     -0.301140E-02
     57476 TIP3     10854    TIP3     OH2      OT      -0.834000       15.9994           0   0.00000       0.00000    
     57477 TIP3     10854    TIP3     H1       HT       0.417000       1.00800           0   0.00000       0.00000    
     57478 TIP3     10854    TIP3     H2       HT       0.417000       1.00800           0   0.00000     -0.301140E-02
     57479 TIP3     10855    TIP3     OH2      OT      -0.834000       15.9994           0   0.00000       0.00000    
     57480 TIP3     10855    TIP3     H1       HT       0.417000       1.00800           0   0.00000       0.00000    
     57481 TIP3     10855    TIP3     H2       HT       0.417000       1.00800           0   0.00000     -0.301140E-02
     57482 TIP3     10856    TIP3     OH2      OT      -0.834000       15.9994           0   0.00000       0.00000    
     57483 TIP3     10856    TIP3     H1       HT       0.417000       1.00800           0   0.00000       0.00000    
     57484 TIP3     10856    TIP3     H2       HT       0.417000       1.00800           0   0.00000     -0.301140E-02
     57485 TIP3     10857    TIP3     OH2      OT      -0.834000       15.9994           0   0.00000       0.00000    
     57486 TIP3     10857    TIP3     H1       HT       0.417000       1.00800           0   0.00000       0.00000    
     57487 TIP3     10857    TIP3     H2       HT       0.417000       1.00800           0   0.00000     -0.301140E-02
     57488 TIP3     10858    TIP3     OH2      OT      -0.834000       15.9994           0   0.00000       0.00000    
     57489 TIP3     10858    TIP3     H1       HT       0.417000       1.00800           0   0.00000       0.00000    
     57490 TIP3     10858    TIP3     H2       HT       0.417000       1.00800           0   0.00000     -0.301140E-02
     57491 TIP3     10859    TIP3     OH2      OT      -0.834000       15.9994           0   0.00000       0.00000    
     57492 TIP3     10859    TIP3     H1       HT       0.417000       1.00800           0   0.00000       0.00000    
     57493 TIP3     10859    TIP3     H2       HT       0.417000       1.00800           0   0.00000     -0.301140E-02
     57494 TIP3     10860    TIP3     OH2      OT      -0.834000       15.9994           0   0.00000       0.00000    
     57495 TIP3     10860    TIP3     H1       HT       0.417000       1.00800           0   0.00000       0.00000    
     57496 TIP3     10860    TIP3     H2       HT       0.417000       1.00800           0   0.00000     -0.301140E-02
     57497 TIP3     10861    TIP3     OH2      OT      -0.834000       15.9994           0   0.00000       0.00000    
     57498 TIP3     10861    TIP3     H1       HT       0.417000       1.00800           0   0.00000       0.00000    
     57499 TIP3     10861    TIP3     H2       HT       0.417000       1.00800           0   0.00000     -0.301140E-02
     57500 TIP3     10862    TIP3     OH2      OT      -0.834000       15.9994           0   0.00000       0.00000    
     57501 TIP3     10862    TIP3     H1       HT       0.417000       1.00800           0   0.00000       0.00000    
     57502 TIP3     10862    TIP3     H2       HT       0.417000       1.00800           0   0.00000     -0.301140E-02
     57503 TIP3     10863    TIP3     OH2      OT      -0.834000       15.9994           0   0.00000       0.00000    
     57504 TIP3     10863    TIP3     H1       HT       0.417000       1.00800           0   0.00000       0.00000    
     57505 TIP3     10863    TIP3     H2       HT       0.417000       1.00800           0   0.00000     -0.301140E-02
     57506 TIP3     10864    TIP3     OH2      OT      -0.834000       15.9994           0   0.00000       0.00000    
     57507 TIP3     10864    TIP3     H1       HT       0.417000       1.00800           0   0.00000       0.00000    
     57508 TIP3     10864    TIP3     H2       HT       0.417000       1.00800           0   0.00000     -0.301140E-02
     57509 TIP3     10865    TIP3     OH2      OT      -0.834000       15.9994           0   0.00000       0.00000    
     57510 TIP3     10865    TIP3     H1       HT       0.417000       1.00800           0   0.00000       0.00000    
     57511 TIP3     10865    TIP3     H2       HT       0.417000       1.00800           0   0.00000     -0.301140E-02
     57512 TIP3     10866    TIP3     OH2      OT      -0.834000       15.9994           0   0.00000       0.00000    
     57513 TIP3     10866    TIP3     H1       HT       0.417000       1.00800           0   0.00000       0.00000    
     57514 TIP3     10866    TIP3     H2       HT       0.417000       1.00800           0   0.00000     -0.301140E-02
     57515 TIP3     10867    TIP3     OH2      OT      -0.834000       15.9994           0   0.00000       0.00000    
     57516 TIP3     10867    TIP3     H1       HT       0.417000       1.00800           0   0.00000       0.00000    
     57517 TIP3     10867    TIP3     H2       HT       0.417000       1.00800           0   0.00000     -0.301140E-02
     57518 TIP3     10868    TIP3     OH2      OT      -0.834000       15.9994           0   0.00000       0.00000    
     57519 TIP3     10868    TIP3     H1       HT       0.417000       1.00800           0   0.00000       0.00000    
     57520 TIP3     10868    TIP3     H2       HT       0.417000       1.00800           0   0.00000     -0.301140E-02
     57521 TIP3     10869    TIP3     OH2      OT      -0.834000       15.9994           0   0.00000       0.00000    
     57522 TIP3     10869    TIP3     H1       HT       0.417000       1.00800           0   0.00000       0.00000    
     57523 TIP3     10869    TIP3     H2       HT       0.417000       1.00800           0   0.00000     -0.301140E-02
     57524 TIP3     10870    TIP3     OH2      OT      -0.834000       15.9994           0   0.00000       0.00000    
     57525 TIP3     10870    TIP3     H1       HT       0.417000       1.00800           0   0.00000       0.00000    
     57526 TIP3     10870    TIP3     H2       HT       0.417000       1.00800           0   0.00000     -0.301140E-02
     57527 TIP3     10871    TIP3     OH2      OT      -0.834000       15.9994           0   0.00000       0.00000    
     57528 TIP3     10871    TIP3     H1       HT       0.417000       1.00800           0   0.00000       0.00000    
     57529 TIP3     10871    TIP3     H2       HT       0.417000       1.00800           0   0.00000     -0.301140E-02
     57530 TIP3     10872    TIP3     OH2      OT      -0.834000       15.9994           0   0.00000       0.00000    
     57531 TIP3     10872    TIP3     H1       HT       0.417000       1.00800           0   0.00000       0.00000    
     57532 TIP3     10872    TIP3     H2       HT       0.417000       1.00800           0   0.00000     -0.301140E-02
     57533 TIP3     10873    TIP3     OH2      OT      -0.834000       15.9994           0   0.00000       0.00000    
     57534 TIP3     10873    TIP3     H1       HT       0.417000       1.00800           0   0.00000       0.00000    
     57535 TIP3     10873    TIP3     H2       HT       0.417000       1.00800           0   0.00000     -0.301140E-02
     57536 TIP3     10874    TIP3     OH2      OT      -0.834000       15.9994           0   0.00000       0.00000    
     57537 TIP3     10874    TIP3     H1       HT       0.417000       1.00800           0   0.00000       0.00000    
     57538 TIP3     10874    TIP3     H2       HT       0.417000       1.00800           0   0.00000     -0.301140E-02
     57539 TIP3     10875    TIP3     OH2      OT      -0.834000       15.9994           0   0.00000       0.00000    
     57540 TIP3     10875    TIP3     H1       HT       0.417000       1.00800           0   0.00000       0.00000    
     57541 TIP3     10875    TIP3     H2       HT       0.417000       1.00800           0   0.00000     -0.301140E-02
     57542 TIP3     10876    TIP3     OH2      OT      -0.834000       15.9994           0   0.00000       0.00000    
     57543 TIP3     10876    TIP3     H1       HT       0.417000       1.00800           0   0.00000       0.00000    
     57544 TIP3     10876    TIP3     H2       HT       0.417000       1.00800           0   0.00000     -0.301140E-02
     57545 TIP3     10877    TIP3     OH2      OT      -0.834000       15.9994           0   0.00000       0.00000    
     57546 TIP3     10877    TIP3     H1       HT       0.417000       1.00800           0   0.00000       0.00000    
     57547 TIP3     10877    TIP3     H2       HT       0.417000       1.00800           0   0.00000     -0.301140E-02
     57548 TIP3     10878    TIP3     OH2      OT      -0.834000       15.9994           0   0.00000       0.00000    
     57549 TIP3     10878    TIP3     H1       HT       0.417000       1.00800           0   0.00000       0.00000    
     57550 TIP3     10878    TIP3     H2       HT       0.417000       1.00800           0   0.00000     -0.301140E-02
     57551 TIP3     10879    TIP3     OH2      OT      -0.834000       15.9994           0   0.00000       0.00000    
     57552 TIP3     10879    TIP3     H1       HT       0.417000       1.00800           0   0.00000       0.00000    
     57553 TIP3     10879    TIP3     H2       HT       0.417000       1.00800           0   0.00000     -0.301140E-02
     57554 TIP3     10880    TIP3     OH2      OT      -0.834000       15.9994           0   0.00000       0.00000    
     57555 TIP3     10880    TIP3     H1       HT       0.417000       1.00800           0   0.00000       0.00000    
     57556 TIP3     10880    TIP3     H2       HT       0.417000       1.00800           0   0.00000     -0.301140E-02
     57557 TIP3     10881    TIP3     OH2      OT      -0.834000       15.9994           0   0.00000       0.00000    
     57558 TIP3     10881    TIP3     H1       HT       0.417000       1.00800           0   0.00000       0.00000    
     57559 TIP3     10881    TIP3     H2       HT       0.417000       1.00800           0   0.00000     -0.301140E-02
     57560 TIP3     10882    TIP3     OH2      OT      -0.834000       15.9994           0   0.00000       0.00000    
     57561 TIP3     10882    TIP3     H1       HT       0.417000       1.00800           0   0.00000       0.00000    
     57562 TIP3     10882    TIP3     H2       HT       0.417000       1.00800           0   0.00000     -0.301140E-02
     57563 TIP3     10883    TIP3     OH2      OT      -0.834000       15.9994           0   0.00000       0.00000    
     57564 TIP3     10883    TIP3     H1       HT       0.417000       1.00800           0   0.00000       0.00000    
     57565 TIP3     10883    TIP3     H2       HT       0.417000       1.00800           0   0.00000     -0.301140E-02
     57566 TIP3     10884    TIP3     OH2      OT      -0.834000       15.9994           0   0.00000       0.00000    
     57567 TIP3     10884    TIP3     H1       HT       0.417000       1.00800           0   0.00000       0.00000    
     57568 TIP3     10884    TIP3     H2       HT       0.417000       1.00800           0   0.00000     -0.301140E-02
     57569 TIP3     10885    TIP3     OH2      OT      -0.834000       15.9994           0   0.00000       0.00000    
     57570 TIP3     10885    TIP3     H1       HT       0.417000       1.00800           0   0.00000       0.00000    
     57571 TIP3     10885    TIP3     H2       HT       0.417000       1.00800           0   0.00000     -0.301140E-02
     57572 TIP3     10886    TIP3     OH2      OT      -0.834000       15.9994           0   0.00000       0.00000    
     57573 TIP3     10886    TIP3     H1       HT       0.417000       1.00800           0   0.00000       0.00000    
     57574 TIP3     10886    TIP3     H2       HT       0.417000       1.00800           0   0.00000     -0.301140E-02
     57575 TIP3     10887    TIP3     OH2      OT      -0.834000       15.9994           0   0.00000       0.00000    
     57576 TIP3     10887    TIP3     H1       HT       0.417000       1.00800           0   0.00000       0.00000    
     57577 TIP3     10887    TIP3     H2       HT       0.417000       1.00800           0   0.00000     -0.301140E-02
     57578 TIP3     10888    TIP3     OH2      OT      -0.834000       15.9994           0   0.00000       0.00000    
     57579 TIP3     10888    TIP3     H1       HT       0.417000       1.00800           0   0.00000       0.00000    
     57580 TIP3     10888    TIP3     H2       HT       0.417000       1.00800           0   0.00000     -0.301140E-02
     57581 TIP3     10889    TIP3     OH2      OT      -0.834000       15.9994           0   0.00000       0.00000    
     57582 TIP3     10889    TIP3     H1       HT       0.417000       1.00800           0   0.00000       0.00000    
     57583 TIP3     10889    TIP3     H2       HT       0.417000       1.00800           0   0.00000     -0.301140E-02
     57584 TIP3     10890    TIP3     OH2      OT      -0.834000       15.9994           0   0.00000       0.00000    
     57585 TIP3     10890    TIP3     H1       HT       0.417000       1.00800           0   0.00000       0.00000    
     57586 TIP3     10890    TIP3     H2       HT       0.417000       1.00800           0   0.00000     -0.301140E-02
     57587 TIP3     10891    TIP3     OH2      OT      -0.834000       15.9994           0   0.00000       0.00000    
     57588 TIP3     10891    TIP3     H1       HT       0.417000       1.00800           0   0.00000       0.00000    
     57589 TIP3     10891    TIP3     H2       HT       0.417000       1.00800           0   0.00000     -0.301140E-02
     57590 TIP3     10892    TIP3     OH2      OT      -0.834000       15.9994           0   0.00000       0.00000    
     57591 TIP3     10892    TIP3     H1       HT       0.417000       1.00800           0   0.00000       0.00000    
     57592 TIP3     10892    TIP3     H2       HT       0.417000       1.00800           0   0.00000     -0.301140E-02
     57593 TIP3     10893    TIP3     OH2      OT      -0.834000       15.9994           0   0.00000       0.00000    
     57594 TIP3     10893    TIP3     H1       HT       0.417000       1.00800           0   0.00000       0.00000    
     57595 TIP3     10893    TIP3     H2       HT       0.417000       1.00800           0   0.00000     -0.301140E-02
     57596 TIP3     10894    TIP3     OH2      OT      -0.834000       15.9994           0   0.00000       0.00000    
     57597 TIP3     10894    TIP3     H1       HT       0.417000       1.00800           0   0.00000       0.00000    
     57598 TIP3     10894    TIP3     H2       HT       0.417000       1.00800           0   0.00000     -0.301140E-02
     57599 TIP3     10895    TIP3     OH2      OT      -0.834000       15.9994           0   0.00000       0.00000    
     57600 TIP3     10895    TIP3     H1       HT       0.417000       1.00800           0   0.00000       0.00000    
     57601 TIP3     10895    TIP3     H2       HT       0.417000       1.00800           0   0.00000     -0.301140E-02
     57602 TIP3     10896    TIP3     OH2      OT      -0.834000       15.9994           0   0.00000       0.00000    
     57603 TIP3     10896    TIP3     H1       HT       0.417000       1.00800           0   0.00000       0.00000    
     57604 TIP3     10896    TIP3     H2       HT       0.417000       1.00800           0   0.00000     -0.301140E-02
     57605 TIP3     10897    TIP3     OH2      OT      -0.834000       15.9994           0   0.00000       0.00000    
     57606 TIP3     10897    TIP3     H1       HT       0.417000       1.00800           0   0.00000       0.00000    
     57607 TIP3     10897    TIP3     H2       HT       0.417000       1.00800           0   0.00000     -0.301140E-02
     57608 TIP3     10898    TIP3     OH2      OT      -0.834000       15.9994           0   0.00000       0.00000    
     57609 TIP3     10898    TIP3     H1       HT       0.417000       1.00800           0   0.00000       0.00000    
     57610 TIP3     10898    TIP3     H2       HT       0.417000       1.00800           0   0.00000     -0.301140E-02
     57611 TIP3     10899    TIP3     OH2      OT      -0.834000       15.9994           0   0.00000       0.00000    
     57612 TIP3     10899    TIP3     H1       HT       0.417000       1.00800           0   0.00000       0.00000    
     57613 TIP3     10899    TIP3     H2       HT       0.417000       1.00800           0   0.00000     -0.301140E-02
     57614 TIP3     10900    TIP3     OH2      OT      -0.834000       15.9994           0   0.00000       0.00000    
     57615 TIP3     10900    TIP3     H1       HT       0.417000       1.00800           0   0.00000       0.00000    
     57616 TIP3     10900    TIP3     H2       HT       0.417000       1.00800           0   0.00000     -0.301140E-02
     57617 TIP3     10901    TIP3     OH2      OT      -0.834000       15.9994           0   0.00000       0.00000    
     57618 TIP3     10901    TIP3     H1       HT       0.417000       1.00800           0   0.00000       0.00000    
     57619 TIP3     10901    TIP3     H2       HT       0.417000       1.00800           0   0.00000     -0.301140E-02
     57620 TIP3     10902    TIP3     OH2      OT      -0.834000       15.9994           0   0.00000       0.00000    
     57621 TIP3     10902    TIP3     H1       HT       0.417000       1.00800           0   0.00000       0.00000    
     57622 TIP3     10902    TIP3     H2       HT       0.417000       1.00800           0   0.00000     -0.301140E-02
     57623 TIP3     10903    TIP3     OH2      OT      -0.834000       15.9994           0   0.00000       0.00000    
     57624 TIP3     10903    TIP3     H1       HT       0.417000       1.00800           0   0.00000       0.00000    
     57625 TIP3     10903    TIP3     H2       HT       0.417000       1.00800           0   0.00000     -0.301140E-02
     57626 TIP3     10904    TIP3     OH2      OT      -0.834000       15.9994           0   0.00000       0.00000    
     57627 TIP3     10904    TIP3     H1       HT       0.417000       1.00800           0   0.00000       0.00000    
     57628 TIP3     10904    TIP3     H2       HT       0.417000       1.00800           0   0.00000     -0.301140E-02
     57629 TIP3     10905    TIP3     OH2      OT      -0.834000       15.9994           0   0.00000       0.00000    
     57630 TIP3     10905    TIP3     H1       HT       0.417000       1.00800           0   0.00000       0.00000    
     57631 TIP3     10905    TIP3     H2       HT       0.417000       1.00800           0   0.00000     -0.301140E-02
     57632 TIP3     10906    TIP3     OH2      OT      -0.834000       15.9994           0   0.00000       0.00000    
     57633 TIP3     10906    TIP3     H1       HT       0.417000       1.00800           0   0.00000       0.00000    
     57634 TIP3     10906    TIP3     H2       HT       0.417000       1.00800           0   0.00000     -0.301140E-02
     57635 TIP3     10907    TIP3     OH2      OT      -0.834000       15.9994           0   0.00000       0.00000    
     57636 TIP3     10907    TIP3     H1       HT       0.417000       1.00800           0   0.00000       0.00000    
     57637 TIP3     10907    TIP3     H2       HT       0.417000       1.00800           0   0.00000     -0.301140E-02
     57638 TIP3     10908    TIP3     OH2      OT      -0.834000       15.9994           0   0.00000       0.00000    
     57639 TIP3     10908    TIP3     H1       HT       0.417000       1.00800           0   0.00000       0.00000    
     57640 TIP3     10908    TIP3     H2       HT       0.417000       1.00800           0   0.00000     -0.301140E-02
     57641 TIP3     10909    TIP3     OH2      OT      -0.834000       15.9994           0   0.00000       0.00000    
     57642 TIP3     10909    TIP3     H1       HT       0.417000       1.00800           0   0.00000       0.00000    
     57643 TIP3     10909    TIP3     H2       HT       0.417000       1.00800           0   0.00000     -0.301140E-02
     57644 TIP3     10910    TIP3     OH2      OT      -0.834000       15.9994           0   0.00000       0.00000    
     57645 TIP3     10910    TIP3     H1       HT       0.417000       1.00800           0   0.00000       0.00000    
     57646 TIP3     10910    TIP3     H2       HT       0.417000       1.00800           0   0.00000     -0.301140E-02
     57647 TIP3     10911    TIP3     OH2      OT      -0.834000       15.9994           0   0.00000       0.00000    
     57648 TIP3     10911    TIP3     H1       HT       0.417000       1.00800           0   0.00000       0.00000    
     57649 TIP3     10911    TIP3     H2       HT       0.417000       1.00800           0   0.00000     -0.301140E-02
     57650 TIP3     10912    TIP3     OH2      OT      -0.834000       15.9994           0   0.00000       0.00000    
     57651 TIP3     10912    TIP3     H1       HT       0.417000       1.00800           0   0.00000       0.00000    
     57652 TIP3     10912    TIP3     H2       HT       0.417000       1.00800           0   0.00000     -0.301140E-02
     57653 TIP3     10913    TIP3     OH2      OT      -0.834000       15.9994           0   0.00000       0.00000    
     57654 TIP3     10913    TIP3     H1       HT       0.417000       1.00800           0   0.00000       0.00000    
     57655 TIP3     10913    TIP3     H2       HT       0.417000       1.00800           0   0.00000     -0.301140E-02
     57656 TIP3     10914    TIP3     OH2      OT      -0.834000       15.9994           0   0.00000       0.00000    
     57657 TIP3     10914    TIP3     H1       HT       0.417000       1.00800           0   0.00000       0.00000    
     57658 TIP3     10914    TIP3     H2       HT       0.417000       1.00800           0   0.00000     -0.301140E-02
     57659 TIP3     10915    TIP3     OH2      OT      -0.834000       15.9994           0   0.00000       0.00000    
     57660 TIP3     10915    TIP3     H1       HT       0.417000       1.00800           0   0.00000       0.00000    
     57661 TIP3     10915    TIP3     H2       HT       0.417000       1.00800           0   0.00000     -0.301140E-02
     57662 TIP3     10916    TIP3     OH2      OT      -0.834000       15.9994           0   0.00000       0.00000    
     57663 TIP3     10916    TIP3     H1       HT       0.417000       1.00800           0   0.00000       0.00000    
     57664 TIP3     10916    TIP3     H2       HT       0.417000       1.00800           0   0.00000     -0.301140E-02
     57665 TIP3     10917    TIP3     OH2      OT      -0.834000       15.9994           0   0.00000       0.00000    
     57666 TIP3     10917    TIP3     H1       HT       0.417000       1.00800           0   0.00000       0.00000    
     57667 TIP3     10917    TIP3     H2       HT       0.417000       1.00800           0   0.00000     -0.301140E-02
     57668 TIP3     10918    TIP3     OH2      OT      -0.834000       15.9994           0   0.00000       0.00000    
     57669 TIP3     10918    TIP3     H1       HT       0.417000       1.00800           0   0.00000       0.00000    
     57670 TIP3     10918    TIP3     H2       HT       0.417000       1.00800           0   0.00000     -0.301140E-02
     57671 TIP3     10919    TIP3     OH2      OT      -0.834000       15.9994           0   0.00000       0.00000    
     57672 TIP3     10919    TIP3     H1       HT       0.417000       1.00800           0   0.00000       0.00000    
     57673 TIP3     10919    TIP3     H2       HT       0.417000       1.00800           0   0.00000     -0.301140E-02
     57674 TIP3     10920    TIP3     OH2      OT      -0.834000       15.9994           0   0.00000       0.00000    
     57675 TIP3     10920    TIP3     H1       HT       0.417000       1.00800           0   0.00000       0.00000    
     57676 TIP3     10920    TIP3     H2       HT       0.417000       1.00800           0   0.00000     -0.301140E-02
     57677 TIP3     10921    TIP3     OH2      OT      -0.834000       15.9994           0   0.00000       0.00000    
     57678 TIP3     10921    TIP3     H1       HT       0.417000       1.00800           0   0.00000       0.00000    
     57679 TIP3     10921    TIP3     H2       HT       0.417000       1.00800           0   0.00000     -0.301140E-02
     57680 TIP3     10922    TIP3     OH2      OT      -0.834000       15.9994           0   0.00000       0.00000    
     57681 TIP3     10922    TIP3     H1       HT       0.417000       1.00800           0   0.00000       0.00000    
     57682 TIP3     10922    TIP3     H2       HT       0.417000       1.00800           0   0.00000     -0.301140E-02
     57683 TIP3     10923    TIP3     OH2      OT      -0.834000       15.9994           0   0.00000       0.00000    
     57684 TIP3     10923    TIP3     H1       HT       0.417000       1.00800           0   0.00000       0.00000    
     57685 TIP3     10923    TIP3     H2       HT       0.417000       1.00800           0   0.00000     -0.301140E-02
     57686 TIP3     10924    TIP3     OH2      OT      -0.834000       15.9994           0   0.00000       0.00000    
     57687 TIP3     10924    TIP3     H1       HT       0.417000       1.00800           0   0.00000       0.00000    
     57688 TIP3     10924    TIP3     H2       HT       0.417000       1.00800           0   0.00000     -0.301140E-02
     57689 TIP3     10925    TIP3     OH2      OT      -0.834000       15.9994           0   0.00000       0.00000    
     57690 TIP3     10925    TIP3     H1       HT       0.417000       1.00800           0   0.00000       0.00000    
     57691 TIP3     10925    TIP3     H2       HT       0.417000       1.00800           0   0.00000     -0.301140E-02
     57692 TIP3     10926    TIP3     OH2      OT      -0.834000       15.9994           0   0.00000       0.00000    
     57693 TIP3     10926    TIP3     H1       HT       0.417000       1.00800           0   0.00000       0.00000    
     57694 TIP3     10926    TIP3     H2       HT       0.417000       1.00800           0   0.00000     -0.301140E-02
     57695 TIP3     10927    TIP3     OH2      OT      -0.834000       15.9994           0   0.00000       0.00000    
     57696 TIP3     10927    TIP3     H1       HT       0.417000       1.00800           0   0.00000       0.00000    
     57697 TIP3     10927    TIP3     H2       HT       0.417000       1.00800           0   0.00000     -0.301140E-02
     57698 TIP3     10928    TIP3     OH2      OT      -0.834000       15.9994           0   0.00000       0.00000    
     57699 TIP3     10928    TIP3     H1       HT       0.417000       1.00800           0   0.00000       0.00000    
     57700 TIP3     10928    TIP3     H2       HT       0.417000       1.00800           0   0.00000     -0.301140E-02
     57701 TIP3     10929    TIP3     OH2      OT      -0.834000       15.9994           0   0.00000       0.00000    
     57702 TIP3     10929    TIP3     H1       HT       0.417000       1.00800           0   0.00000       0.00000    
     57703 TIP3     10929    TIP3     H2       HT       0.417000       1.00800           0   0.00000     -0.301140E-02
     57704 TIP3     10930    TIP3     OH2      OT      -0.834000       15.9994           0   0.00000       0.00000    
     57705 TIP3     10930    TIP3     H1       HT       0.417000       1.00800           0   0.00000       0.00000    
     57706 TIP3     10930    TIP3     H2       HT       0.417000       1.00800           0   0.00000     -0.301140E-02
     57707 TIP3     10931    TIP3     OH2      OT      -0.834000       15.9994           0   0.00000       0.00000    
     57708 TIP3     10931    TIP3     H1       HT       0.417000       1.00800           0   0.00000       0.00000    
     57709 TIP3     10931    TIP3     H2       HT       0.417000       1.00800           0   0.00000     -0.301140E-02
     57710 TIP3     10932    TIP3     OH2      OT      -0.834000       15.9994           0   0.00000       0.00000    
     57711 TIP3     10932    TIP3     H1       HT       0.417000       1.00800           0   0.00000       0.00000    
     57712 TIP3     10932    TIP3     H2       HT       0.417000       1.00800           0   0.00000     -0.301140E-02
     57713 TIP3     10933    TIP3     OH2      OT      -0.834000       15.9994           0   0.00000       0.00000    
     57714 TIP3     10933    TIP3     H1       HT       0.417000       1.00800           0   0.00000       0.00000    
     57715 TIP3     10933    TIP3     H2       HT       0.417000       1.00800           0   0.00000     -0.301140E-02
     57716 TIP3     10934    TIP3     OH2      OT      -0.834000       15.9994           0   0.00000       0.00000    
     57717 TIP3     10934    TIP3     H1       HT       0.417000       1.00800           0   0.00000       0.00000    
     57718 TIP3     10934    TIP3     H2       HT       0.417000       1.00800           0   0.00000     -0.301140E-02
     57719 TIP3     10935    TIP3     OH2      OT      -0.834000       15.9994           0   0.00000       0.00000    
     57720 TIP3     10935    TIP3     H1       HT       0.417000       1.00800           0   0.00000       0.00000    
     57721 TIP3     10935    TIP3     H2       HT       0.417000       1.00800           0   0.00000     -0.301140E-02
     57722 TIP3     10936    TIP3     OH2      OT      -0.834000       15.9994           0   0.00000       0.00000    
     57723 TIP3     10936    TIP3     H1       HT       0.417000       1.00800           0   0.00000       0.00000    
     57724 TIP3     10936    TIP3     H2       HT       0.417000       1.00800           0   0.00000     -0.301140E-02
     57725 TIP3     10937    TIP3     OH2      OT      -0.834000       15.9994           0   0.00000       0.00000    
     57726 TIP3     10937    TIP3     H1       HT       0.417000       1.00800           0   0.00000       0.00000    
     57727 TIP3     10937    TIP3     H2       HT       0.417000       1.00800           0   0.00000     -0.301140E-02
     57728 TIP3     10938    TIP3     OH2      OT      -0.834000       15.9994           0   0.00000       0.00000    
     57729 TIP3     10938    TIP3     H1       HT       0.417000       1.00800           0   0.00000       0.00000    
     57730 TIP3     10938    TIP3     H2       HT       0.417000       1.00800           0   0.00000     -0.301140E-02
     57731 TIP3     10939    TIP3     OH2      OT      -0.834000       15.9994           0   0.00000       0.00000    
     57732 TIP3     10939    TIP3     H1       HT       0.417000       1.00800           0   0.00000       0.00000    
     57733 TIP3     10939    TIP3     H2       HT       0.417000       1.00800           0   0.00000     -0.301140E-02
     57734 TIP3     10940    TIP3     OH2      OT      -0.834000       15.9994           0   0.00000       0.00000    
     57735 TIP3     10940    TIP3     H1       HT       0.417000       1.00800           0   0.00000       0.00000    
     57736 TIP3     10940    TIP3     H2       HT       0.417000       1.00800           0   0.00000     -0.301140E-02
     57737 TIP3     10941    TIP3     OH2      OT      -0.834000       15.9994           0   0.00000       0.00000    
     57738 TIP3     10941    TIP3     H1       HT       0.417000       1.00800           0   0.00000       0.00000    
     57739 TIP3     10941    TIP3     H2       HT       0.417000       1.00800           0   0.00000     -0.301140E-02
     57740 TIP3     10942    TIP3     OH2      OT      -0.834000       15.9994           0   0.00000       0.00000    
     57741 TIP3     10942    TIP3     H1       HT       0.417000       1.00800           0   0.00000       0.00000    
     57742 TIP3     10942    TIP3     H2       HT       0.417000       1.00800           0   0.00000     -0.301140E-02
     57743 TIP3     10943    TIP3     OH2      OT      -0.834000       15.9994           0   0.00000       0.00000    
     57744 TIP3     10943    TIP3     H1       HT       0.417000       1.00800           0   0.00000       0.00000    
     57745 TIP3     10943    TIP3     H2       HT       0.417000       1.00800           0   0.00000     -0.301140E-02
     57746 TIP3     10944    TIP3     OH2      OT      -0.834000       15.9994           0   0.00000       0.00000    
     57747 TIP3     10944    TIP3     H1       HT       0.417000       1.00800           0   0.00000       0.00000    
     57748 TIP3     10944    TIP3     H2       HT       0.417000       1.00800           0   0.00000     -0.301140E-02
     57749 TIP3     10945    TIP3     OH2      OT      -0.834000       15.9994           0   0.00000       0.00000    
     57750 TIP3     10945    TIP3     H1       HT       0.417000       1.00800           0   0.00000       0.00000    
     57751 TIP3     10945    TIP3     H2       HT       0.417000       1.00800           0   0.00000     -0.301140E-02
     57752 TIP3     10946    TIP3     OH2      OT      -0.834000       15.9994           0   0.00000       0.00000    
     57753 TIP3     10946    TIP3     H1       HT       0.417000       1.00800           0   0.00000       0.00000    
     57754 TIP3     10946    TIP3     H2       HT       0.417000       1.00800           0   0.00000     -0.301140E-02
     57755 TIP3     10947    TIP3     OH2      OT      -0.834000       15.9994           0   0.00000       0.00000    
     57756 TIP3     10947    TIP3     H1       HT       0.417000       1.00800           0   0.00000       0.00000    
     57757 TIP3     10947    TIP3     H2       HT       0.417000       1.00800           0   0.00000     -0.301140E-02
     57758 TIP3     10948    TIP3     OH2      OT      -0.834000       15.9994           0   0.00000       0.00000    
     57759 TIP3     10948    TIP3     H1       HT       0.417000       1.00800           0   0.00000       0.00000    
     57760 TIP3     10948    TIP3     H2       HT       0.417000       1.00800           0   0.00000     -0.301140E-02
     57761 TIP3     10949    TIP3     OH2      OT      -0.834000       15.9994           0   0.00000       0.00000    
     57762 TIP3     10949    TIP3     H1       HT       0.417000       1.00800           0   0.00000       0.00000    
     57763 TIP3     10949    TIP3     H2       HT       0.417000       1.00800           0   0.00000     -0.301140E-02
     57764 TIP3     10950    TIP3     OH2      OT      -0.834000       15.9994           0   0.00000       0.00000    
     57765 TIP3     10950    TIP3     H1       HT       0.417000       1.00800           0   0.00000       0.00000    
     57766 TIP3     10950    TIP3     H2       HT       0.417000       1.00800           0   0.00000     -0.301140E-02
     57767 TIP3     10951    TIP3     OH2      OT      -0.834000       15.9994           0   0.00000       0.00000    
     57768 TIP3     10951    TIP3     H1       HT       0.417000       1.00800           0   0.00000       0.00000    
     57769 TIP3     10951    TIP3     H2       HT       0.417000       1.00800           0   0.00000     -0.301140E-02
     57770 TIP3     10952    TIP3     OH2      OT      -0.834000       15.9994           0   0.00000       0.00000    
     57771 TIP3     10952    TIP3     H1       HT       0.417000       1.00800           0   0.00000       0.00000    
     57772 TIP3     10952    TIP3     H2       HT       0.417000       1.00800           0   0.00000     -0.301140E-02
     57773 TIP3     10953    TIP3     OH2      OT      -0.834000       15.9994           0   0.00000       0.00000    
     57774 TIP3     10953    TIP3     H1       HT       0.417000       1.00800           0   0.00000       0.00000    
     57775 TIP3     10953    TIP3     H2       HT       0.417000       1.00800           0   0.00000     -0.301140E-02
     57776 TIP3     10954    TIP3     OH2      OT      -0.834000       15.9994           0   0.00000       0.00000    
     57777 TIP3     10954    TIP3     H1       HT       0.417000       1.00800           0   0.00000       0.00000    
     57778 TIP3     10954    TIP3     H2       HT       0.417000       1.00800           0   0.00000     -0.301140E-02
     57779 TIP3     10955    TIP3     OH2      OT      -0.834000       15.9994           0   0.00000       0.00000    
     57780 TIP3     10955    TIP3     H1       HT       0.417000       1.00800           0   0.00000       0.00000    
     57781 TIP3     10955    TIP3     H2       HT       0.417000       1.00800           0   0.00000     -0.301140E-02
     57782 TIP3     10956    TIP3     OH2      OT      -0.834000       15.9994           0   0.00000       0.00000    
     57783 TIP3     10956    TIP3     H1       HT       0.417000       1.00800           0   0.00000       0.00000    
     57784 TIP3     10956    TIP3     H2       HT       0.417000       1.00800           0   0.00000     -0.301140E-02
     57785 TIP3     10957    TIP3     OH2      OT      -0.834000       15.9994           0   0.00000       0.00000    
     57786 TIP3     10957    TIP3     H1       HT       0.417000       1.00800           0   0.00000       0.00000    
     57787 TIP3     10957    TIP3     H2       HT       0.417000       1.00800           0   0.00000     -0.301140E-02
     57788 TIP3     10958    TIP3     OH2      OT      -0.834000       15.9994           0   0.00000       0.00000    
     57789 TIP3     10958    TIP3     H1       HT       0.417000       1.00800           0   0.00000       0.00000    
     57790 TIP3     10958    TIP3     H2       HT       0.417000       1.00800           0   0.00000     -0.301140E-02
     57791 TIP3     10959    TIP3     OH2      OT      -0.834000       15.9994           0   0.00000       0.00000    
     57792 TIP3     10959    TIP3     H1       HT       0.417000       1.00800           0   0.00000       0.00000    
     57793 TIP3     10959    TIP3     H2       HT       0.417000       1.00800           0   0.00000     -0.301140E-02
     57794 TIP3     10960    TIP3     OH2      OT      -0.834000       15.9994           0   0.00000       0.00000    
     57795 TIP3     10960    TIP3     H1       HT       0.417000       1.00800           0   0.00000       0.00000    
     57796 TIP3     10960    TIP3     H2       HT       0.417000       1.00800           0   0.00000     -0.301140E-02
     57797 TIP3     10961    TIP3     OH2      OT      -0.834000       15.9994           0   0.00000       0.00000    
     57798 TIP3     10961    TIP3     H1       HT       0.417000       1.00800           0   0.00000       0.00000    
     57799 TIP3     10961    TIP3     H2       HT       0.417000       1.00800           0   0.00000     -0.301140E-02
     57800 TIP3     10962    TIP3     OH2      OT      -0.834000       15.9994           0   0.00000       0.00000    
     57801 TIP3     10962    TIP3     H1       HT       0.417000       1.00800           0   0.00000       0.00000    
     57802 TIP3     10962    TIP3     H2       HT       0.417000       1.00800           0   0.00000     -0.301140E-02
     57803 TIP3     10963    TIP3     OH2      OT      -0.834000       15.9994           0   0.00000       0.00000    
     57804 TIP3     10963    TIP3     H1       HT       0.417000       1.00800           0   0.00000       0.00000    
     57805 TIP3     10963    TIP3     H2       HT       0.417000       1.00800           0   0.00000     -0.301140E-02
     57806 TIP3     10964    TIP3     OH2      OT      -0.834000       15.9994           0   0.00000       0.00000    
     57807 TIP3     10964    TIP3     H1       HT       0.417000       1.00800           0   0.00000       0.00000    
     57808 TIP3     10964    TIP3     H2       HT       0.417000       1.00800           0   0.00000     -0.301140E-02
     57809 TIP3     10965    TIP3     OH2      OT      -0.834000       15.9994           0   0.00000       0.00000    
     57810 TIP3     10965    TIP3     H1       HT       0.417000       1.00800           0   0.00000       0.00000    
     57811 TIP3     10965    TIP3     H2       HT       0.417000       1.00800           0   0.00000     -0.301140E-02
     57812 TIP3     10966    TIP3     OH2      OT      -0.834000       15.9994           0   0.00000       0.00000    
     57813 TIP3     10966    TIP3     H1       HT       0.417000       1.00800           0   0.00000       0.00000    
     57814 TIP3     10966    TIP3     H2       HT       0.417000       1.00800           0   0.00000     -0.301140E-02
     57815 TIP3     10967    TIP3     OH2      OT      -0.834000       15.9994           0   0.00000       0.00000    
     57816 TIP3     10967    TIP3     H1       HT       0.417000       1.00800           0   0.00000       0.00000    
     57817 TIP3     10967    TIP3     H2       HT       0.417000       1.00800           0   0.00000     -0.301140E-02
     57818 TIP3     10968    TIP3     OH2      OT      -0.834000       15.9994           0   0.00000       0.00000    
     57819 TIP3     10968    TIP3     H1       HT       0.417000       1.00800           0   0.00000       0.00000    
     57820 TIP3     10968    TIP3     H2       HT       0.417000       1.00800           0   0.00000     -0.301140E-02
     57821 TIP3     10969    TIP3     OH2      OT      -0.834000       15.9994           0   0.00000       0.00000    
     57822 TIP3     10969    TIP3     H1       HT       0.417000       1.00800           0   0.00000       0.00000    
     57823 TIP3     10969    TIP3     H2       HT       0.417000       1.00800           0   0.00000     -0.301140E-02
     57824 TIP3     10970    TIP3     OH2      OT      -0.834000       15.9994           0   0.00000       0.00000    
     57825 TIP3     10970    TIP3     H1       HT       0.417000       1.00800           0   0.00000       0.00000    
     57826 TIP3     10970    TIP3     H2       HT       0.417000       1.00800           0   0.00000     -0.301140E-02
     57827 TIP3     10971    TIP3     OH2      OT      -0.834000       15.9994           0   0.00000       0.00000    
     57828 TIP3     10971    TIP3     H1       HT       0.417000       1.00800           0   0.00000       0.00000    
     57829 TIP3     10971    TIP3     H2       HT       0.417000       1.00800           0   0.00000     -0.301140E-02
     57830 TIP3     10972    TIP3     OH2      OT      -0.834000       15.9994           0   0.00000       0.00000    
     57831 TIP3     10972    TIP3     H1       HT       0.417000       1.00800           0   0.00000       0.00000    
     57832 TIP3     10972    TIP3     H2       HT       0.417000       1.00800           0   0.00000     -0.301140E-02
     57833 TIP3     10973    TIP3     OH2      OT      -0.834000       15.9994           0   0.00000       0.00000    
     57834 TIP3     10973    TIP3     H1       HT       0.417000       1.00800           0   0.00000       0.00000    
     57835 TIP3     10973    TIP3     H2       HT       0.417000       1.00800           0   0.00000     -0.301140E-02
     57836 TIP3     10974    TIP3     OH2      OT      -0.834000       15.9994           0   0.00000       0.00000    
     57837 TIP3     10974    TIP3     H1       HT       0.417000       1.00800           0   0.00000       0.00000    
     57838 TIP3     10974    TIP3     H2       HT       0.417000       1.00800           0   0.00000     -0.301140E-02
     57839 TIP3     10975    TIP3     OH2      OT      -0.834000       15.9994           0   0.00000       0.00000    
     57840 TIP3     10975    TIP3     H1       HT       0.417000       1.00800           0   0.00000       0.00000    
     57841 TIP3     10975    TIP3     H2       HT       0.417000       1.00800           0   0.00000     -0.301140E-02
     57842 TIP3     10976    TIP3     OH2      OT      -0.834000       15.9994           0   0.00000       0.00000    
     57843 TIP3     10976    TIP3     H1       HT       0.417000       1.00800           0   0.00000       0.00000    
     57844 TIP3     10976    TIP3     H2       HT       0.417000       1.00800           0   0.00000     -0.301140E-02
     57845 TIP3     10977    TIP3     OH2      OT      -0.834000       15.9994           0   0.00000       0.00000    
     57846 TIP3     10977    TIP3     H1       HT       0.417000       1.00800           0   0.00000       0.00000    
     57847 TIP3     10977    TIP3     H2       HT       0.417000       1.00800           0   0.00000     -0.301140E-02
     57848 TIP3     10978    TIP3     OH2      OT      -0.834000       15.9994           0   0.00000       0.00000    
     57849 TIP3     10978    TIP3     H1       HT       0.417000       1.00800           0   0.00000       0.00000    
     57850 TIP3     10978    TIP3     H2       HT       0.417000       1.00800           0   0.00000     -0.301140E-02
     57851 TIP3     10979    TIP3     OH2      OT      -0.834000       15.9994           0   0.00000       0.00000    
     57852 TIP3     10979    TIP3     H1       HT       0.417000       1.00800           0   0.00000       0.00000    
     57853 TIP3     10979    TIP3     H2       HT       0.417000       1.00800           0   0.00000     -0.301140E-02
     57854 TIP3     10980    TIP3     OH2      OT      -0.834000       15.9994           0   0.00000       0.00000    
     57855 TIP3     10980    TIP3     H1       HT       0.417000       1.00800           0   0.00000       0.00000    
     57856 TIP3     10980    TIP3     H2       HT       0.417000       1.00800           0   0.00000     -0.301140E-02
     57857 TIP3     10981    TIP3     OH2      OT      -0.834000       15.9994           0   0.00000       0.00000    
     57858 TIP3     10981    TIP3     H1       HT       0.417000       1.00800           0   0.00000       0.00000    
     57859 TIP3     10981    TIP3     H2       HT       0.417000       1.00800           0   0.00000     -0.301140E-02
     57860 TIP3     10982    TIP3     OH2      OT      -0.834000       15.9994           0   0.00000       0.00000    
     57861 TIP3     10982    TIP3     H1       HT       0.417000       1.00800           0   0.00000       0.00000    
     57862 TIP3     10982    TIP3     H2       HT       0.417000       1.00800           0   0.00000     -0.301140E-02
     57863 TIP3     10983    TIP3     OH2      OT      -0.834000       15.9994           0   0.00000       0.00000    
     57864 TIP3     10983    TIP3     H1       HT       0.417000       1.00800           0   0.00000       0.00000    
     57865 TIP3     10983    TIP3     H2       HT       0.417000       1.00800           0   0.00000     -0.301140E-02
     57866 TIP3     10984    TIP3     OH2      OT      -0.834000       15.9994           0   0.00000       0.00000    
     57867 TIP3     10984    TIP3     H1       HT       0.417000       1.00800           0   0.00000       0.00000    
     57868 TIP3     10984    TIP3     H2       HT       0.417000       1.00800           0   0.00000     -0.301140E-02
     57869 TIP3     10985    TIP3     OH2      OT      -0.834000       15.9994           0   0.00000       0.00000    
     57870 TIP3     10985    TIP3     H1       HT       0.417000       1.00800           0   0.00000       0.00000    
     57871 TIP3     10985    TIP3     H2       HT       0.417000       1.00800           0   0.00000     -0.301140E-02
     57872 TIP3     10986    TIP3     OH2      OT      -0.834000       15.9994           0   0.00000       0.00000    
     57873 TIP3     10986    TIP3     H1       HT       0.417000       1.00800           0   0.00000       0.00000    
     57874 TIP3     10986    TIP3     H2       HT       0.417000       1.00800           0   0.00000     -0.301140E-02
     57875 TIP3     10987    TIP3     OH2      OT      -0.834000       15.9994           0   0.00000       0.00000    
     57876 TIP3     10987    TIP3     H1       HT       0.417000       1.00800           0   0.00000       0.00000    
     57877 TIP3     10987    TIP3     H2       HT       0.417000       1.00800           0   0.00000     -0.301140E-02
     57878 TIP3     10988    TIP3     OH2      OT      -0.834000       15.9994           0   0.00000       0.00000    
     57879 TIP3     10988    TIP3     H1       HT       0.417000       1.00800           0   0.00000       0.00000    
     57880 TIP3     10988    TIP3     H2       HT       0.417000       1.00800           0   0.00000     -0.301140E-02
     57881 TIP3     10989    TIP3     OH2      OT      -0.834000       15.9994           0   0.00000       0.00000    
     57882 TIP3     10989    TIP3     H1       HT       0.417000       1.00800           0   0.00000       0.00000    
     57883 TIP3     10989    TIP3     H2       HT       0.417000       1.00800           0   0.00000     -0.301140E-02
     57884 TIP3     10990    TIP3     OH2      OT      -0.834000       15.9994           0   0.00000       0.00000    
     57885 TIP3     10990    TIP3     H1       HT       0.417000       1.00800           0   0.00000       0.00000    
     57886 TIP3     10990    TIP3     H2       HT       0.417000       1.00800           0   0.00000     -0.301140E-02
     57887 TIP3     10991    TIP3     OH2      OT      -0.834000       15.9994           0   0.00000       0.00000    
     57888 TIP3     10991    TIP3     H1       HT       0.417000       1.00800           0   0.00000       0.00000    
     57889 TIP3     10991    TIP3     H2       HT       0.417000       1.00800           0   0.00000     -0.301140E-02
     57890 TIP3     10992    TIP3     OH2      OT      -0.834000       15.9994           0   0.00000       0.00000    
     57891 TIP3     10992    TIP3     H1       HT       0.417000       1.00800           0   0.00000       0.00000    
     57892 TIP3     10992    TIP3     H2       HT       0.417000       1.00800           0   0.00000     -0.301140E-02
     57893 TIP3     10993    TIP3     OH2      OT      -0.834000       15.9994           0   0.00000       0.00000    
     57894 TIP3     10993    TIP3     H1       HT       0.417000       1.00800           0   0.00000       0.00000    
     57895 TIP3     10993    TIP3     H2       HT       0.417000       1.00800           0   0.00000     -0.301140E-02
     57896 TIP3     10994    TIP3     OH2      OT      -0.834000       15.9994           0   0.00000       0.00000    
     57897 TIP3     10994    TIP3     H1       HT       0.417000       1.00800           0   0.00000       0.00000    
     57898 TIP3     10994    TIP3     H2       HT       0.417000       1.00800           0   0.00000     -0.301140E-02
     57899 TIP3     10995    TIP3     OH2      OT      -0.834000       15.9994           0   0.00000       0.00000    
     57900 TIP3     10995    TIP3     H1       HT       0.417000       1.00800           0   0.00000       0.00000    
     57901 TIP3     10995    TIP3     H2       HT       0.417000       1.00800           0   0.00000     -0.301140E-02
     57902 TIP3     10996    TIP3     OH2      OT      -0.834000       15.9994           0   0.00000       0.00000    
     57903 TIP3     10996    TIP3     H1       HT       0.417000       1.00800           0   0.00000       0.00000    
     57904 TIP3     10996    TIP3     H2       HT       0.417000       1.00800           0   0.00000     -0.301140E-02
     57905 TIP3     10997    TIP3     OH2      OT      -0.834000       15.9994           0   0.00000       0.00000    
     57906 TIP3     10997    TIP3     H1       HT       0.417000       1.00800           0   0.00000       0.00000    
     57907 TIP3     10997    TIP3     H2       HT       0.417000       1.00800           0   0.00000     -0.301140E-02
     57908 TIP3     10998    TIP3     OH2      OT      -0.834000       15.9994           0   0.00000       0.00000    
     57909 TIP3     10998    TIP3     H1       HT       0.417000       1.00800           0   0.00000       0.00000    
     57910 TIP3     10998    TIP3     H2       HT       0.417000       1.00800           0   0.00000     -0.301140E-02
     57911 TIP3     10999    TIP3     OH2      OT      -0.834000       15.9994           0   0.00000       0.00000    
     57912 TIP3     10999    TIP3     H1       HT       0.417000       1.00800           0   0.00000       0.00000    
     57913 TIP3     10999    TIP3     H2       HT       0.417000       1.00800           0   0.00000     -0.301140E-02
     57914 TIP3     11000    TIP3     OH2      OT      -0.834000       15.9994           0   0.00000       0.00000    
     57915 TIP3     11000    TIP3     H1       HT       0.417000       1.00800           0   0.00000       0.00000    
     57916 TIP3     11000    TIP3     H2       HT       0.417000       1.00800           0   0.00000     -0.301140E-02
     57917 TIP3     11001    TIP3     OH2      OT      -0.834000       15.9994           0   0.00000       0.00000    
     57918 TIP3     11001    TIP3     H1       HT       0.417000       1.00800           0   0.00000       0.00000    
     57919 TIP3     11001    TIP3     H2       HT       0.417000       1.00800           0   0.00000     -0.301140E-02
     57920 TIP3     11002    TIP3     OH2      OT      -0.834000       15.9994           0   0.00000       0.00000    
     57921 TIP3     11002    TIP3     H1       HT       0.417000       1.00800           0   0.00000       0.00000    
     57922 TIP3     11002    TIP3     H2       HT       0.417000       1.00800           0   0.00000     -0.301140E-02
     57923 TIP3     11003    TIP3     OH2      OT      -0.834000       15.9994           0   0.00000       0.00000    
     57924 TIP3     11003    TIP3     H1       HT       0.417000       1.00800           0   0.00000       0.00000    
     57925 TIP3     11003    TIP3     H2       HT       0.417000       1.00800           0   0.00000     -0.301140E-02
     57926 TIP3     11004    TIP3     OH2      OT      -0.834000       15.9994           0   0.00000       0.00000    
     57927 TIP3     11004    TIP3     H1       HT       0.417000       1.00800           0   0.00000       0.00000    
     57928 TIP3     11004    TIP3     H2       HT       0.417000       1.00800           0   0.00000     -0.301140E-02
     57929 TIP3     11005    TIP3     OH2      OT      -0.834000       15.9994           0   0.00000       0.00000    
     57930 TIP3     11005    TIP3     H1       HT       0.417000       1.00800           0   0.00000       0.00000    
     57931 TIP3     11005    TIP3     H2       HT       0.417000       1.00800           0   0.00000     -0.301140E-02
     57932 TIP3     11006    TIP3     OH2      OT      -0.834000       15.9994           0   0.00000       0.00000    
     57933 TIP3     11006    TIP3     H1       HT       0.417000       1.00800           0   0.00000       0.00000    
     57934 TIP3     11006    TIP3     H2       HT       0.417000       1.00800           0   0.00000     -0.301140E-02
     57935 TIP3     11007    TIP3     OH2      OT      -0.834000       15.9994           0   0.00000       0.00000    
     57936 TIP3     11007    TIP3     H1       HT       0.417000       1.00800           0   0.00000       0.00000    
     57937 TIP3     11007    TIP3     H2       HT       0.417000       1.00800           0   0.00000     -0.301140E-02
     57938 TIP3     11008    TIP3     OH2      OT      -0.834000       15.9994           0   0.00000       0.00000    
     57939 TIP3     11008    TIP3     H1       HT       0.417000       1.00800           0   0.00000       0.00000    
     57940 TIP3     11008    TIP3     H2       HT       0.417000       1.00800           0   0.00000     -0.301140E-02
     57941 TIP3     11009    TIP3     OH2      OT      -0.834000       15.9994           0   0.00000       0.00000    
     57942 TIP3     11009    TIP3     H1       HT       0.417000       1.00800           0   0.00000       0.00000    
     57943 TIP3     11009    TIP3     H2       HT       0.417000       1.00800           0   0.00000     -0.301140E-02
     57944 TIP3     11010    TIP3     OH2      OT      -0.834000       15.9994           0   0.00000       0.00000    
     57945 TIP3     11010    TIP3     H1       HT       0.417000       1.00800           0   0.00000       0.00000    
     57946 TIP3     11010    TIP3     H2       HT       0.417000       1.00800           0   0.00000     -0.301140E-02
     57947 TIP3     11011    TIP3     OH2      OT      -0.834000       15.9994           0   0.00000       0.00000    
     57948 TIP3     11011    TIP3     H1       HT       0.417000       1.00800           0   0.00000       0.00000    
     57949 TIP3     11011    TIP3     H2       HT       0.417000       1.00800           0   0.00000     -0.301140E-02
     57950 TIP3     11012    TIP3     OH2      OT      -0.834000       15.9994           0   0.00000       0.00000    
     57951 TIP3     11012    TIP3     H1       HT       0.417000       1.00800           0   0.00000       0.00000    
     57952 TIP3     11012    TIP3     H2       HT       0.417000       1.00800           0   0.00000     -0.301140E-02
     57953 TIP3     11013    TIP3     OH2      OT      -0.834000       15.9994           0   0.00000       0.00000    
     57954 TIP3     11013    TIP3     H1       HT       0.417000       1.00800           0   0.00000       0.00000    
     57955 TIP3     11013    TIP3     H2       HT       0.417000       1.00800           0   0.00000     -0.301140E-02
     57956 TIP3     11014    TIP3     OH2      OT      -0.834000       15.9994           0   0.00000       0.00000    
     57957 TIP3     11014    TIP3     H1       HT       0.417000       1.00800           0   0.00000       0.00000    
     57958 TIP3     11014    TIP3     H2       HT       0.417000       1.00800           0   0.00000     -0.301140E-02
     57959 TIP3     11015    TIP3     OH2      OT      -0.834000       15.9994           0   0.00000       0.00000    
     57960 TIP3     11015    TIP3     H1       HT       0.417000       1.00800           0   0.00000       0.00000    
     57961 TIP3     11015    TIP3     H2       HT       0.417000       1.00800           0   0.00000     -0.301140E-02
     57962 TIP3     11016    TIP3     OH2      OT      -0.834000       15.9994           0   0.00000       0.00000    
     57963 TIP3     11016    TIP3     H1       HT       0.417000       1.00800           0   0.00000       0.00000    
     57964 TIP3     11016    TIP3     H2       HT       0.417000       1.00800           0   0.00000     -0.301140E-02
     57965 TIP3     11017    TIP3     OH2      OT      -0.834000       15.9994           0   0.00000       0.00000    
     57966 TIP3     11017    TIP3     H1       HT       0.417000       1.00800           0   0.00000       0.00000    
     57967 TIP3     11017    TIP3     H2       HT       0.417000       1.00800           0   0.00000     -0.301140E-02
     57968 TIP3     11018    TIP3     OH2      OT      -0.834000       15.9994           0   0.00000       0.00000    
     57969 TIP3     11018    TIP3     H1       HT       0.417000       1.00800           0   0.00000       0.00000    
     57970 TIP3     11018    TIP3     H2       HT       0.417000       1.00800           0   0.00000     -0.301140E-02
     57971 TIP3     11019    TIP3     OH2      OT      -0.834000       15.9994           0   0.00000       0.00000    
     57972 TIP3     11019    TIP3     H1       HT       0.417000       1.00800           0   0.00000       0.00000    
     57973 TIP3     11019    TIP3     H2       HT       0.417000       1.00800           0   0.00000     -0.301140E-02
     57974 TIP3     11020    TIP3     OH2      OT      -0.834000       15.9994           0   0.00000       0.00000    
     57975 TIP3     11020    TIP3     H1       HT       0.417000       1.00800           0   0.00000       0.00000    
     57976 TIP3     11020    TIP3     H2       HT       0.417000       1.00800           0   0.00000     -0.301140E-02
     57977 TIP3     11021    TIP3     OH2      OT      -0.834000       15.9994           0   0.00000       0.00000    
     57978 TIP3     11021    TIP3     H1       HT       0.417000       1.00800           0   0.00000       0.00000    
     57979 TIP3     11021    TIP3     H2       HT       0.417000       1.00800           0   0.00000     -0.301140E-02
     57980 TIP3     11022    TIP3     OH2      OT      -0.834000       15.9994           0   0.00000       0.00000    
     57981 TIP3     11022    TIP3     H1       HT       0.417000       1.00800           0   0.00000       0.00000    
     57982 TIP3     11022    TIP3     H2       HT       0.417000       1.00800           0   0.00000     -0.301140E-02
     57983 TIP3     11023    TIP3     OH2      OT      -0.834000       15.9994           0   0.00000       0.00000    
     57984 TIP3     11023    TIP3     H1       HT       0.417000       1.00800           0   0.00000       0.00000    
     57985 TIP3     11023    TIP3     H2       HT       0.417000       1.00800           0   0.00000     -0.301140E-02
     57986 TIP3     11024    TIP3     OH2      OT      -0.834000       15.9994           0   0.00000       0.00000    
     57987 TIP3     11024    TIP3     H1       HT       0.417000       1.00800           0   0.00000       0.00000    
     57988 TIP3     11024    TIP3     H2       HT       0.417000       1.00800           0   0.00000     -0.301140E-02
     57989 TIP3     11025    TIP3     OH2      OT      -0.834000       15.9994           0   0.00000       0.00000    
     57990 TIP3     11025    TIP3     H1       HT       0.417000       1.00800           0   0.00000       0.00000    
     57991 TIP3     11025    TIP3     H2       HT       0.417000       1.00800           0   0.00000     -0.301140E-02
     57992 TIP3     11026    TIP3     OH2      OT      -0.834000       15.9994           0   0.00000       0.00000    
     57993 TIP3     11026    TIP3     H1       HT       0.417000       1.00800           0   0.00000       0.00000    
     57994 TIP3     11026    TIP3     H2       HT       0.417000       1.00800           0   0.00000     -0.301140E-02
     57995 TIP3     11027    TIP3     OH2      OT      -0.834000       15.9994           0   0.00000       0.00000    
     57996 TIP3     11027    TIP3     H1       HT       0.417000       1.00800           0   0.00000       0.00000    
     57997 TIP3     11027    TIP3     H2       HT       0.417000       1.00800           0   0.00000     -0.301140E-02
     57998 TIP3     11028    TIP3     OH2      OT      -0.834000       15.9994           0   0.00000       0.00000    
     57999 TIP3     11028    TIP3     H1       HT       0.417000       1.00800           0   0.00000       0.00000    
     58000 TIP3     11028    TIP3     H2       HT       0.417000       1.00800           0   0.00000     -0.301140E-02
     58001 TIP3     11029    TIP3     OH2      OT      -0.834000       15.9994           0   0.00000       0.00000    
     58002 TIP3     11029    TIP3     H1       HT       0.417000       1.00800           0   0.00000       0.00000    
     58003 TIP3     11029    TIP3     H2       HT       0.417000       1.00800           0   0.00000     -0.301140E-02
     58004 TIP3     11030    TIP3     OH2      OT      -0.834000       15.9994           0   0.00000       0.00000    
     58005 TIP3     11030    TIP3     H1       HT       0.417000       1.00800           0   0.00000       0.00000    
     58006 TIP3     11030    TIP3     H2       HT       0.417000       1.00800           0   0.00000     -0.301140E-02
     58007 TIP3     11031    TIP3     OH2      OT      -0.834000       15.9994           0   0.00000       0.00000    
     58008 TIP3     11031    TIP3     H1       HT       0.417000       1.00800           0   0.00000       0.00000    
     58009 TIP3     11031    TIP3     H2       HT       0.417000       1.00800           0   0.00000     -0.301140E-02
     58010 TIP3     11032    TIP3     OH2      OT      -0.834000       15.9994           0   0.00000       0.00000    
     58011 TIP3     11032    TIP3     H1       HT       0.417000       1.00800           0   0.00000       0.00000    
     58012 TIP3     11032    TIP3     H2       HT       0.417000       1.00800           0   0.00000     -0.301140E-02
     58013 TIP3     11033    TIP3     OH2      OT      -0.834000       15.9994           0   0.00000       0.00000    
     58014 TIP3     11033    TIP3     H1       HT       0.417000       1.00800           0   0.00000       0.00000    
     58015 TIP3     11033    TIP3     H2       HT       0.417000       1.00800           0   0.00000     -0.301140E-02
     58016 TIP3     11034    TIP3     OH2      OT      -0.834000       15.9994           0   0.00000       0.00000    
     58017 TIP3     11034    TIP3     H1       HT       0.417000       1.00800           0   0.00000       0.00000    
     58018 TIP3     11034    TIP3     H2       HT       0.417000       1.00800           0   0.00000     -0.301140E-02
     58019 TIP3     11035    TIP3     OH2      OT      -0.834000       15.9994           0   0.00000       0.00000    
     58020 TIP3     11035    TIP3     H1       HT       0.417000       1.00800           0   0.00000       0.00000    
     58021 TIP3     11035    TIP3     H2       HT       0.417000       1.00800           0   0.00000     -0.301140E-02
     58022 TIP3     11036    TIP3     OH2      OT      -0.834000       15.9994           0   0.00000       0.00000    
     58023 TIP3     11036    TIP3     H1       HT       0.417000       1.00800           0   0.00000       0.00000    
     58024 TIP3     11036    TIP3     H2       HT       0.417000       1.00800           0   0.00000     -0.301140E-02
     58025 TIP3     11037    TIP3     OH2      OT      -0.834000       15.9994           0   0.00000       0.00000    
     58026 TIP3     11037    TIP3     H1       HT       0.417000       1.00800           0   0.00000       0.00000    
     58027 TIP3     11037    TIP3     H2       HT       0.417000       1.00800           0   0.00000     -0.301140E-02
     58028 TIP3     11038    TIP3     OH2      OT      -0.834000       15.9994           0   0.00000       0.00000    
     58029 TIP3     11038    TIP3     H1       HT       0.417000       1.00800           0   0.00000       0.00000    
     58030 TIP3     11038    TIP3     H2       HT       0.417000       1.00800           0   0.00000     -0.301140E-02
     58031 TIP3     11039    TIP3     OH2      OT      -0.834000       15.9994           0   0.00000       0.00000    
     58032 TIP3     11039    TIP3     H1       HT       0.417000       1.00800           0   0.00000       0.00000    
     58033 TIP3     11039    TIP3     H2       HT       0.417000       1.00800           0   0.00000     -0.301140E-02
     58034 TIP3     11040    TIP3     OH2      OT      -0.834000       15.9994           0   0.00000       0.00000    
     58035 TIP3     11040    TIP3     H1       HT       0.417000       1.00800           0   0.00000       0.00000    
     58036 TIP3     11040    TIP3     H2       HT       0.417000       1.00800           0   0.00000     -0.301140E-02
     58037 TIP3     11041    TIP3     OH2      OT      -0.834000       15.9994           0   0.00000       0.00000    
     58038 TIP3     11041    TIP3     H1       HT       0.417000       1.00800           0   0.00000       0.00000    
     58039 TIP3     11041    TIP3     H2       HT       0.417000       1.00800           0   0.00000     -0.301140E-02
     58040 TIP3     11042    TIP3     OH2      OT      -0.834000       15.9994           0   0.00000       0.00000    
     58041 TIP3     11042    TIP3     H1       HT       0.417000       1.00800           0   0.00000       0.00000    
     58042 TIP3     11042    TIP3     H2       HT       0.417000       1.00800           0   0.00000     -0.301140E-02
     58043 TIP3     11043    TIP3     OH2      OT      -0.834000       15.9994           0   0.00000       0.00000    
     58044 TIP3     11043    TIP3     H1       HT       0.417000       1.00800           0   0.00000       0.00000    
     58045 TIP3     11043    TIP3     H2       HT       0.417000       1.00800           0   0.00000     -0.301140E-02
     58046 TIP3     11044    TIP3     OH2      OT      -0.834000       15.9994           0   0.00000       0.00000    
     58047 TIP3     11044    TIP3     H1       HT       0.417000       1.00800           0   0.00000       0.00000    
     58048 TIP3     11044    TIP3     H2       HT       0.417000       1.00800           0   0.00000     -0.301140E-02
     58049 TIP3     11045    TIP3     OH2      OT      -0.834000       15.9994           0   0.00000       0.00000    
     58050 TIP3     11045    TIP3     H1       HT       0.417000       1.00800           0   0.00000       0.00000    
     58051 TIP3     11045    TIP3     H2       HT       0.417000       1.00800           0   0.00000     -0.301140E-02
     58052 TIP3     11046    TIP3     OH2      OT      -0.834000       15.9994           0   0.00000       0.00000    
     58053 TIP3     11046    TIP3     H1       HT       0.417000       1.00800           0   0.00000       0.00000    
     58054 TIP3     11046    TIP3     H2       HT       0.417000       1.00800           0   0.00000     -0.301140E-02
     58055 TIP3     11047    TIP3     OH2      OT      -0.834000       15.9994           0   0.00000       0.00000    
     58056 TIP3     11047    TIP3     H1       HT       0.417000       1.00800           0   0.00000       0.00000    
     58057 TIP3     11047    TIP3     H2       HT       0.417000       1.00800           0   0.00000     -0.301140E-02
     58058 TIP3     11048    TIP3     OH2      OT      -0.834000       15.9994           0   0.00000       0.00000    
     58059 TIP3     11048    TIP3     H1       HT       0.417000       1.00800           0   0.00000       0.00000    
     58060 TIP3     11048    TIP3     H2       HT       0.417000       1.00800           0   0.00000     -0.301140E-02
     58061 TIP3     11049    TIP3     OH2      OT      -0.834000       15.9994           0   0.00000       0.00000    
     58062 TIP3     11049    TIP3     H1       HT       0.417000       1.00800           0   0.00000       0.00000    
     58063 TIP3     11049    TIP3     H2       HT       0.417000       1.00800           0   0.00000     -0.301140E-02
     58064 TIP3     11050    TIP3     OH2      OT      -0.834000       15.9994           0   0.00000       0.00000    
     58065 TIP3     11050    TIP3     H1       HT       0.417000       1.00800           0   0.00000       0.00000    
     58066 TIP3     11050    TIP3     H2       HT       0.417000       1.00800           0   0.00000     -0.301140E-02
     58067 TIP3     11051    TIP3     OH2      OT      -0.834000       15.9994           0   0.00000       0.00000    
     58068 TIP3     11051    TIP3     H1       HT       0.417000       1.00800           0   0.00000       0.00000    
     58069 TIP3     11051    TIP3     H2       HT       0.417000       1.00800           0   0.00000     -0.301140E-02
     58070 TIP3     11052    TIP3     OH2      OT      -0.834000       15.9994           0   0.00000       0.00000    
     58071 TIP3     11052    TIP3     H1       HT       0.417000       1.00800           0   0.00000       0.00000    
     58072 TIP3     11052    TIP3     H2       HT       0.417000       1.00800           0   0.00000     -0.301140E-02
     58073 TIP3     11053    TIP3     OH2      OT      -0.834000       15.9994           0   0.00000       0.00000    
     58074 TIP3     11053    TIP3     H1       HT       0.417000       1.00800           0   0.00000       0.00000    
     58075 TIP3     11053    TIP3     H2       HT       0.417000       1.00800           0   0.00000     -0.301140E-02
     58076 TIP3     11054    TIP3     OH2      OT      -0.834000       15.9994           0   0.00000       0.00000    
     58077 TIP3     11054    TIP3     H1       HT       0.417000       1.00800           0   0.00000       0.00000    
     58078 TIP3     11054    TIP3     H2       HT       0.417000       1.00800           0   0.00000     -0.301140E-02
     58079 TIP3     11055    TIP3     OH2      OT      -0.834000       15.9994           0   0.00000       0.00000    
     58080 TIP3     11055    TIP3     H1       HT       0.417000       1.00800           0   0.00000       0.00000    
     58081 TIP3     11055    TIP3     H2       HT       0.417000       1.00800           0   0.00000     -0.301140E-02
     58082 TIP3     11056    TIP3     OH2      OT      -0.834000       15.9994           0   0.00000       0.00000    
     58083 TIP3     11056    TIP3     H1       HT       0.417000       1.00800           0   0.00000       0.00000    
     58084 TIP3     11056    TIP3     H2       HT       0.417000       1.00800           0   0.00000     -0.301140E-02
     58085 TIP3     11057    TIP3     OH2      OT      -0.834000       15.9994           0   0.00000       0.00000    
     58086 TIP3     11057    TIP3     H1       HT       0.417000       1.00800           0   0.00000       0.00000    
     58087 TIP3     11057    TIP3     H2       HT       0.417000       1.00800           0   0.00000     -0.301140E-02
     58088 TIP3     11058    TIP3     OH2      OT      -0.834000       15.9994           0   0.00000       0.00000    
     58089 TIP3     11058    TIP3     H1       HT       0.417000       1.00800           0   0.00000       0.00000    
     58090 TIP3     11058    TIP3     H2       HT       0.417000       1.00800           0   0.00000     -0.301140E-02
     58091 TIP3     11059    TIP3     OH2      OT      -0.834000       15.9994           0   0.00000       0.00000    
     58092 TIP3     11059    TIP3     H1       HT       0.417000       1.00800           0   0.00000       0.00000    
     58093 TIP3     11059    TIP3     H2       HT       0.417000       1.00800           0   0.00000     -0.301140E-02
     58094 TIP3     11060    TIP3     OH2      OT      -0.834000       15.9994           0   0.00000       0.00000    
     58095 TIP3     11060    TIP3     H1       HT       0.417000       1.00800           0   0.00000       0.00000    
     58096 TIP3     11060    TIP3     H2       HT       0.417000       1.00800           0   0.00000     -0.301140E-02
     58097 TIP3     11061    TIP3     OH2      OT      -0.834000       15.9994           0   0.00000       0.00000    
     58098 TIP3     11061    TIP3     H1       HT       0.417000       1.00800           0   0.00000       0.00000    
     58099 TIP3     11061    TIP3     H2       HT       0.417000       1.00800           0   0.00000     -0.301140E-02
     58100 TIP3     11062    TIP3     OH2      OT      -0.834000       15.9994           0   0.00000       0.00000    
     58101 TIP3     11062    TIP3     H1       HT       0.417000       1.00800           0   0.00000       0.00000    
     58102 TIP3     11062    TIP3     H2       HT       0.417000       1.00800           0   0.00000     -0.301140E-02
     58103 TIP3     11063    TIP3     OH2      OT      -0.834000       15.9994           0   0.00000       0.00000    
     58104 TIP3     11063    TIP3     H1       HT       0.417000       1.00800           0   0.00000       0.00000    
     58105 TIP3     11063    TIP3     H2       HT       0.417000       1.00800           0   0.00000     -0.301140E-02
     58106 TIP3     11064    TIP3     OH2      OT      -0.834000       15.9994           0   0.00000       0.00000    
     58107 TIP3     11064    TIP3     H1       HT       0.417000       1.00800           0   0.00000       0.00000    
     58108 TIP3     11064    TIP3     H2       HT       0.417000       1.00800           0   0.00000     -0.301140E-02
     58109 TIP3     11065    TIP3     OH2      OT      -0.834000       15.9994           0   0.00000       0.00000    
     58110 TIP3     11065    TIP3     H1       HT       0.417000       1.00800           0   0.00000       0.00000    
     58111 TIP3     11065    TIP3     H2       HT       0.417000       1.00800           0   0.00000     -0.301140E-02
     58112 TIP3     11066    TIP3     OH2      OT      -0.834000       15.9994           0   0.00000       0.00000    
     58113 TIP3     11066    TIP3     H1       HT       0.417000       1.00800           0   0.00000       0.00000    
     58114 TIP3     11066    TIP3     H2       HT       0.417000       1.00800           0   0.00000     -0.301140E-02
     58115 TIP3     11067    TIP3     OH2      OT      -0.834000       15.9994           0   0.00000       0.00000    
     58116 TIP3     11067    TIP3     H1       HT       0.417000       1.00800           0   0.00000       0.00000    
     58117 TIP3     11067    TIP3     H2       HT       0.417000       1.00800           0   0.00000     -0.301140E-02
     58118 TIP3     11068    TIP3     OH2      OT      -0.834000       15.9994           0   0.00000       0.00000    
     58119 TIP3     11068    TIP3     H1       HT       0.417000       1.00800           0   0.00000       0.00000    
     58120 TIP3     11068    TIP3     H2       HT       0.417000       1.00800           0   0.00000     -0.301140E-02
     58121 TIP3     11069    TIP3     OH2      OT      -0.834000       15.9994           0   0.00000       0.00000    
     58122 TIP3     11069    TIP3     H1       HT       0.417000       1.00800           0   0.00000       0.00000    
     58123 TIP3     11069    TIP3     H2       HT       0.417000       1.00800           0   0.00000     -0.301140E-02
     58124 TIP3     11070    TIP3     OH2      OT      -0.834000       15.9994           0   0.00000       0.00000    
     58125 TIP3     11070    TIP3     H1       HT       0.417000       1.00800           0   0.00000       0.00000    
     58126 TIP3     11070    TIP3     H2       HT       0.417000       1.00800           0   0.00000     -0.301140E-02
     58127 TIP3     11071    TIP3     OH2      OT      -0.834000       15.9994           0   0.00000       0.00000    
     58128 TIP3     11071    TIP3     H1       HT       0.417000       1.00800           0   0.00000       0.00000    
     58129 TIP3     11071    TIP3     H2       HT       0.417000       1.00800           0   0.00000     -0.301140E-02
     58130 TIP3     11072    TIP3     OH2      OT      -0.834000       15.9994           0   0.00000       0.00000    
     58131 TIP3     11072    TIP3     H1       HT       0.417000       1.00800           0   0.00000       0.00000    
     58132 TIP3     11072    TIP3     H2       HT       0.417000       1.00800           0   0.00000     -0.301140E-02
     58133 TIP3     11073    TIP3     OH2      OT      -0.834000       15.9994           0   0.00000       0.00000    
     58134 TIP3     11073    TIP3     H1       HT       0.417000       1.00800           0   0.00000       0.00000    
     58135 TIP3     11073    TIP3     H2       HT       0.417000       1.00800           0   0.00000     -0.301140E-02
     58136 TIP3     11074    TIP3     OH2      OT      -0.834000       15.9994           0   0.00000       0.00000    
     58137 TIP3     11074    TIP3     H1       HT       0.417000       1.00800           0   0.00000       0.00000    
     58138 TIP3     11074    TIP3     H2       HT       0.417000       1.00800           0   0.00000     -0.301140E-02
     58139 TIP3     11075    TIP3     OH2      OT      -0.834000       15.9994           0   0.00000       0.00000    
     58140 TIP3     11075    TIP3     H1       HT       0.417000       1.00800           0   0.00000       0.00000    
     58141 TIP3     11075    TIP3     H2       HT       0.417000       1.00800           0   0.00000     -0.301140E-02
     58142 TIP3     11076    TIP3     OH2      OT      -0.834000       15.9994           0   0.00000       0.00000    
     58143 TIP3     11076    TIP3     H1       HT       0.417000       1.00800           0   0.00000       0.00000    
     58144 TIP3     11076    TIP3     H2       HT       0.417000       1.00800           0   0.00000     -0.301140E-02
     58145 TIP3     11077    TIP3     OH2      OT      -0.834000       15.9994           0   0.00000       0.00000    
     58146 TIP3     11077    TIP3     H1       HT       0.417000       1.00800           0   0.00000       0.00000    
     58147 TIP3     11077    TIP3     H2       HT       0.417000       1.00800           0   0.00000     -0.301140E-02
     58148 TIP3     11078    TIP3     OH2      OT      -0.834000       15.9994           0   0.00000       0.00000    
     58149 TIP3     11078    TIP3     H1       HT       0.417000       1.00800           0   0.00000       0.00000    
     58150 TIP3     11078    TIP3     H2       HT       0.417000       1.00800           0   0.00000     -0.301140E-02
     58151 TIP3     11079    TIP3     OH2      OT      -0.834000       15.9994           0   0.00000       0.00000    
     58152 TIP3     11079    TIP3     H1       HT       0.417000       1.00800           0   0.00000       0.00000    
     58153 TIP3     11079    TIP3     H2       HT       0.417000       1.00800           0   0.00000     -0.301140E-02
     58154 TIP3     11080    TIP3     OH2      OT      -0.834000       15.9994           0   0.00000       0.00000    
     58155 TIP3     11080    TIP3     H1       HT       0.417000       1.00800           0   0.00000       0.00000    
     58156 TIP3     11080    TIP3     H2       HT       0.417000       1.00800           0   0.00000     -0.301140E-02
     58157 TIP3     11081    TIP3     OH2      OT      -0.834000       15.9994           0   0.00000       0.00000    
     58158 TIP3     11081    TIP3     H1       HT       0.417000       1.00800           0   0.00000       0.00000    
     58159 TIP3     11081    TIP3     H2       HT       0.417000       1.00800           0   0.00000     -0.301140E-02
     58160 TIP3     11082    TIP3     OH2      OT      -0.834000       15.9994           0   0.00000       0.00000    
     58161 TIP3     11082    TIP3     H1       HT       0.417000       1.00800           0   0.00000       0.00000    
     58162 TIP3     11082    TIP3     H2       HT       0.417000       1.00800           0   0.00000     -0.301140E-02
     58163 TIP3     11083    TIP3     OH2      OT      -0.834000       15.9994           0   0.00000       0.00000    
     58164 TIP3     11083    TIP3     H1       HT       0.417000       1.00800           0   0.00000       0.00000    
     58165 TIP3     11083    TIP3     H2       HT       0.417000       1.00800           0   0.00000     -0.301140E-02
     58166 TIP3     11084    TIP3     OH2      OT      -0.834000       15.9994           0   0.00000       0.00000    
     58167 TIP3     11084    TIP3     H1       HT       0.417000       1.00800           0   0.00000       0.00000    
     58168 TIP3     11084    TIP3     H2       HT       0.417000       1.00800           0   0.00000     -0.301140E-02
     58169 TIP3     11085    TIP3     OH2      OT      -0.834000       15.9994           0   0.00000       0.00000    
     58170 TIP3     11085    TIP3     H1       HT       0.417000       1.00800           0   0.00000       0.00000    
     58171 TIP3     11085    TIP3     H2       HT       0.417000       1.00800           0   0.00000     -0.301140E-02
     58172 TIP3     11086    TIP3     OH2      OT      -0.834000       15.9994           0   0.00000       0.00000    
     58173 TIP3     11086    TIP3     H1       HT       0.417000       1.00800           0   0.00000       0.00000    
     58174 TIP3     11086    TIP3     H2       HT       0.417000       1.00800           0   0.00000     -0.301140E-02
     58175 TIP3     11087    TIP3     OH2      OT      -0.834000       15.9994           0   0.00000       0.00000    
     58176 TIP3     11087    TIP3     H1       HT       0.417000       1.00800           0   0.00000       0.00000    
     58177 TIP3     11087    TIP3     H2       HT       0.417000       1.00800           0   0.00000     -0.301140E-02
     58178 TIP3     11088    TIP3     OH2      OT      -0.834000       15.9994           0   0.00000       0.00000    
     58179 TIP3     11088    TIP3     H1       HT       0.417000       1.00800           0   0.00000       0.00000    
     58180 TIP3     11088    TIP3     H2       HT       0.417000       1.00800           0   0.00000     -0.301140E-02
     58181 TIP3     11089    TIP3     OH2      OT      -0.834000       15.9994           0   0.00000       0.00000    
     58182 TIP3     11089    TIP3     H1       HT       0.417000       1.00800           0   0.00000       0.00000    
     58183 TIP3     11089    TIP3     H2       HT       0.417000       1.00800           0   0.00000     -0.301140E-02
     58184 TIP3     11090    TIP3     OH2      OT      -0.834000       15.9994           0   0.00000       0.00000    
     58185 TIP3     11090    TIP3     H1       HT       0.417000       1.00800           0   0.00000       0.00000    
     58186 TIP3     11090    TIP3     H2       HT       0.417000       1.00800           0   0.00000     -0.301140E-02
     58187 TIP3     11091    TIP3     OH2      OT      -0.834000       15.9994           0   0.00000       0.00000    
     58188 TIP3     11091    TIP3     H1       HT       0.417000       1.00800           0   0.00000       0.00000    
     58189 TIP3     11091    TIP3     H2       HT       0.417000       1.00800           0   0.00000     -0.301140E-02
     58190 TIP3     11092    TIP3     OH2      OT      -0.834000       15.9994           0   0.00000       0.00000    
     58191 TIP3     11092    TIP3     H1       HT       0.417000       1.00800           0   0.00000       0.00000    
     58192 TIP3     11092    TIP3     H2       HT       0.417000       1.00800           0   0.00000     -0.301140E-02
     58193 TIP3     11093    TIP3     OH2      OT      -0.834000       15.9994           0   0.00000       0.00000    
     58194 TIP3     11093    TIP3     H1       HT       0.417000       1.00800           0   0.00000       0.00000    
     58195 TIP3     11093    TIP3     H2       HT       0.417000       1.00800           0   0.00000     -0.301140E-02
     58196 TIP3     11094    TIP3     OH2      OT      -0.834000       15.9994           0   0.00000       0.00000    
     58197 TIP3     11094    TIP3     H1       HT       0.417000       1.00800           0   0.00000       0.00000    
     58198 TIP3     11094    TIP3     H2       HT       0.417000       1.00800           0   0.00000     -0.301140E-02
     58199 TIP3     11095    TIP3     OH2      OT      -0.834000       15.9994           0   0.00000       0.00000    
     58200 TIP3     11095    TIP3     H1       HT       0.417000       1.00800           0   0.00000       0.00000    
     58201 TIP3     11095    TIP3     H2       HT       0.417000       1.00800           0   0.00000     -0.301140E-02
     58202 TIP3     11096    TIP3     OH2      OT      -0.834000       15.9994           0   0.00000       0.00000    
     58203 TIP3     11096    TIP3     H1       HT       0.417000       1.00800           0   0.00000       0.00000    
     58204 TIP3     11096    TIP3     H2       HT       0.417000       1.00800           0   0.00000     -0.301140E-02
     58205 TIP3     11097    TIP3     OH2      OT      -0.834000       15.9994           0   0.00000       0.00000    
     58206 TIP3     11097    TIP3     H1       HT       0.417000       1.00800           0   0.00000       0.00000    
     58207 TIP3     11097    TIP3     H2       HT       0.417000       1.00800           0   0.00000     -0.301140E-02
     58208 TIP3     11098    TIP3     OH2      OT      -0.834000       15.9994           0   0.00000       0.00000    
     58209 TIP3     11098    TIP3     H1       HT       0.417000       1.00800           0   0.00000       0.00000    
     58210 TIP3     11098    TIP3     H2       HT       0.417000       1.00800           0   0.00000     -0.301140E-02
     58211 TIP3     11099    TIP3     OH2      OT      -0.834000       15.9994           0   0.00000       0.00000    
     58212 TIP3     11099    TIP3     H1       HT       0.417000       1.00800           0   0.00000       0.00000    
     58213 TIP3     11099    TIP3     H2       HT       0.417000       1.00800           0   0.00000     -0.301140E-02
     58214 TIP3     11100    TIP3     OH2      OT      -0.834000       15.9994           0   0.00000       0.00000    
     58215 TIP3     11100    TIP3     H1       HT       0.417000       1.00800           0   0.00000       0.00000    
     58216 TIP3     11100    TIP3     H2       HT       0.417000       1.00800           0   0.00000     -0.301140E-02
     58217 TIP3     11101    TIP3     OH2      OT      -0.834000       15.9994           0   0.00000       0.00000    
     58218 TIP3     11101    TIP3     H1       HT       0.417000       1.00800           0   0.00000       0.00000    
     58219 TIP3     11101    TIP3     H2       HT       0.417000       1.00800           0   0.00000     -0.301140E-02
     58220 TIP3     11102    TIP3     OH2      OT      -0.834000       15.9994           0   0.00000       0.00000    
     58221 TIP3     11102    TIP3     H1       HT       0.417000       1.00800           0   0.00000       0.00000    
     58222 TIP3     11102    TIP3     H2       HT       0.417000       1.00800           0   0.00000     -0.301140E-02
     58223 TIP3     11103    TIP3     OH2      OT      -0.834000       15.9994           0   0.00000       0.00000    
     58224 TIP3     11103    TIP3     H1       HT       0.417000       1.00800           0   0.00000       0.00000    
     58225 TIP3     11103    TIP3     H2       HT       0.417000       1.00800           0   0.00000     -0.301140E-02
     58226 TIP3     11104    TIP3     OH2      OT      -0.834000       15.9994           0   0.00000       0.00000    
     58227 TIP3     11104    TIP3     H1       HT       0.417000       1.00800           0   0.00000       0.00000    
     58228 TIP3     11104    TIP3     H2       HT       0.417000       1.00800           0   0.00000     -0.301140E-02
     58229 TIP3     11105    TIP3     OH2      OT      -0.834000       15.9994           0   0.00000       0.00000    
     58230 TIP3     11105    TIP3     H1       HT       0.417000       1.00800           0   0.00000       0.00000    
     58231 TIP3     11105    TIP3     H2       HT       0.417000       1.00800           0   0.00000     -0.301140E-02
     58232 TIP3     11106    TIP3     OH2      OT      -0.834000       15.9994           0   0.00000       0.00000    
     58233 TIP3     11106    TIP3     H1       HT       0.417000       1.00800           0   0.00000       0.00000    
     58234 TIP3     11106    TIP3     H2       HT       0.417000       1.00800           0   0.00000     -0.301140E-02
     58235 TIP3     11107    TIP3     OH2      OT      -0.834000       15.9994           0   0.00000       0.00000    
     58236 TIP3     11107    TIP3     H1       HT       0.417000       1.00800           0   0.00000       0.00000    
     58237 TIP3     11107    TIP3     H2       HT       0.417000       1.00800           0   0.00000     -0.301140E-02
     58238 TIP3     11108    TIP3     OH2      OT      -0.834000       15.9994           0   0.00000       0.00000    
     58239 TIP3     11108    TIP3     H1       HT       0.417000       1.00800           0   0.00000       0.00000    
     58240 TIP3     11108    TIP3     H2       HT       0.417000       1.00800           0   0.00000     -0.301140E-02
     58241 TIP3     11109    TIP3     OH2      OT      -0.834000       15.9994           0   0.00000       0.00000    
     58242 TIP3     11109    TIP3     H1       HT       0.417000       1.00800           0   0.00000       0.00000    
     58243 TIP3     11109    TIP3     H2       HT       0.417000       1.00800           0   0.00000     -0.301140E-02
     58244 TIP3     11110    TIP3     OH2      OT      -0.834000       15.9994           0   0.00000       0.00000    
     58245 TIP3     11110    TIP3     H1       HT       0.417000       1.00800           0   0.00000       0.00000    
     58246 TIP3     11110    TIP3     H2       HT       0.417000       1.00800           0   0.00000     -0.301140E-02
     58247 TIP3     11111    TIP3     OH2      OT      -0.834000       15.9994           0   0.00000       0.00000    
     58248 TIP3     11111    TIP3     H1       HT       0.417000       1.00800           0   0.00000       0.00000    
     58249 TIP3     11111    TIP3     H2       HT       0.417000       1.00800           0   0.00000     -0.301140E-02
     58250 TIP3     11112    TIP3     OH2      OT      -0.834000       15.9994           0   0.00000       0.00000    
     58251 TIP3     11112    TIP3     H1       HT       0.417000       1.00800           0   0.00000       0.00000    
     58252 TIP3     11112    TIP3     H2       HT       0.417000       1.00800           0   0.00000     -0.301140E-02
     58253 TIP3     11113    TIP3     OH2      OT      -0.834000       15.9994           0   0.00000       0.00000    
     58254 TIP3     11113    TIP3     H1       HT       0.417000       1.00800           0   0.00000       0.00000    
     58255 TIP3     11113    TIP3     H2       HT       0.417000       1.00800           0   0.00000     -0.301140E-02
     58256 TIP3     11114    TIP3     OH2      OT      -0.834000       15.9994           0   0.00000       0.00000    
     58257 TIP3     11114    TIP3     H1       HT       0.417000       1.00800           0   0.00000       0.00000    
     58258 TIP3     11114    TIP3     H2       HT       0.417000       1.00800           0   0.00000     -0.301140E-02
     58259 TIP3     11115    TIP3     OH2      OT      -0.834000       15.9994           0   0.00000       0.00000    
     58260 TIP3     11115    TIP3     H1       HT       0.417000       1.00800           0   0.00000       0.00000    
     58261 TIP3     11115    TIP3     H2       HT       0.417000       1.00800           0   0.00000     -0.301140E-02
     58262 TIP3     11116    TIP3     OH2      OT      -0.834000       15.9994           0   0.00000       0.00000    
     58263 TIP3     11116    TIP3     H1       HT       0.417000       1.00800           0   0.00000       0.00000    
     58264 TIP3     11116    TIP3     H2       HT       0.417000       1.00800           0   0.00000     -0.301140E-02
     58265 TIP3     11117    TIP3     OH2      OT      -0.834000       15.9994           0   0.00000       0.00000    
     58266 TIP3     11117    TIP3     H1       HT       0.417000       1.00800           0   0.00000       0.00000    
     58267 TIP3     11117    TIP3     H2       HT       0.417000       1.00800           0   0.00000     -0.301140E-02
     58268 TIP3     11118    TIP3     OH2      OT      -0.834000       15.9994           0   0.00000       0.00000    
     58269 TIP3     11118    TIP3     H1       HT       0.417000       1.00800           0   0.00000       0.00000    
     58270 TIP3     11118    TIP3     H2       HT       0.417000       1.00800           0   0.00000     -0.301140E-02
     58271 TIP3     11119    TIP3     OH2      OT      -0.834000       15.9994           0   0.00000       0.00000    
     58272 TIP3     11119    TIP3     H1       HT       0.417000       1.00800           0   0.00000       0.00000    
     58273 TIP3     11119    TIP3     H2       HT       0.417000       1.00800           0   0.00000     -0.301140E-02
     58274 TIP3     11120    TIP3     OH2      OT      -0.834000       15.9994           0   0.00000       0.00000    
     58275 TIP3     11120    TIP3     H1       HT       0.417000       1.00800           0   0.00000       0.00000    
     58276 TIP3     11120    TIP3     H2       HT       0.417000       1.00800           0   0.00000     -0.301140E-02
     58277 TIP3     11121    TIP3     OH2      OT      -0.834000       15.9994           0   0.00000       0.00000    
     58278 TIP3     11121    TIP3     H1       HT       0.417000       1.00800           0   0.00000       0.00000    
     58279 TIP3     11121    TIP3     H2       HT       0.417000       1.00800           0   0.00000     -0.301140E-02
     58280 TIP3     11122    TIP3     OH2      OT      -0.834000       15.9994           0   0.00000       0.00000    
     58281 TIP3     11122    TIP3     H1       HT       0.417000       1.00800           0   0.00000       0.00000    
     58282 TIP3     11122    TIP3     H2       HT       0.417000       1.00800           0   0.00000     -0.301140E-02
     58283 TIP3     11123    TIP3     OH2      OT      -0.834000       15.9994           0   0.00000       0.00000    
     58284 TIP3     11123    TIP3     H1       HT       0.417000       1.00800           0   0.00000       0.00000    
     58285 TIP3     11123    TIP3     H2       HT       0.417000       1.00800           0   0.00000     -0.301140E-02
     58286 TIP3     11124    TIP3     OH2      OT      -0.834000       15.9994           0   0.00000       0.00000    
     58287 TIP3     11124    TIP3     H1       HT       0.417000       1.00800           0   0.00000       0.00000    
     58288 TIP3     11124    TIP3     H2       HT       0.417000       1.00800           0   0.00000     -0.301140E-02
     58289 TIP3     11125    TIP3     OH2      OT      -0.834000       15.9994           0   0.00000       0.00000    
     58290 TIP3     11125    TIP3     H1       HT       0.417000       1.00800           0   0.00000       0.00000    
     58291 TIP3     11125    TIP3     H2       HT       0.417000       1.00800           0   0.00000     -0.301140E-02
     58292 TIP3     11126    TIP3     OH2      OT      -0.834000       15.9994           0   0.00000       0.00000    
     58293 TIP3     11126    TIP3     H1       HT       0.417000       1.00800           0   0.00000       0.00000    
     58294 TIP3     11126    TIP3     H2       HT       0.417000       1.00800           0   0.00000     -0.301140E-02
     58295 TIP3     11127    TIP3     OH2      OT      -0.834000       15.9994           0   0.00000       0.00000    
     58296 TIP3     11127    TIP3     H1       HT       0.417000       1.00800           0   0.00000       0.00000    
     58297 TIP3     11127    TIP3     H2       HT       0.417000       1.00800           0   0.00000     -0.301140E-02
     58298 TIP3     11128    TIP3     OH2      OT      -0.834000       15.9994           0   0.00000       0.00000    
     58299 TIP3     11128    TIP3     H1       HT       0.417000       1.00800           0   0.00000       0.00000    
     58300 TIP3     11128    TIP3     H2       HT       0.417000       1.00800           0   0.00000     -0.301140E-02
     58301 TIP3     11129    TIP3     OH2      OT      -0.834000       15.9994           0   0.00000       0.00000    
     58302 TIP3     11129    TIP3     H1       HT       0.417000       1.00800           0   0.00000       0.00000    
     58303 TIP3     11129    TIP3     H2       HT       0.417000       1.00800           0   0.00000     -0.301140E-02
     58304 TIP3     11130    TIP3     OH2      OT      -0.834000       15.9994           0   0.00000       0.00000    
     58305 TIP3     11130    TIP3     H1       HT       0.417000       1.00800           0   0.00000       0.00000    
     58306 TIP3     11130    TIP3     H2       HT       0.417000       1.00800           0   0.00000     -0.301140E-02
     58307 TIP3     11131    TIP3     OH2      OT      -0.834000       15.9994           0   0.00000       0.00000    
     58308 TIP3     11131    TIP3     H1       HT       0.417000       1.00800           0   0.00000       0.00000    
     58309 TIP3     11131    TIP3     H2       HT       0.417000       1.00800           0   0.00000     -0.301140E-02
     58310 TIP3     11132    TIP3     OH2      OT      -0.834000       15.9994           0   0.00000       0.00000    
     58311 TIP3     11132    TIP3     H1       HT       0.417000       1.00800           0   0.00000       0.00000    
     58312 TIP3     11132    TIP3     H2       HT       0.417000       1.00800           0   0.00000     -0.301140E-02
     58313 TIP3     11133    TIP3     OH2      OT      -0.834000       15.9994           0   0.00000       0.00000    
     58314 TIP3     11133    TIP3     H1       HT       0.417000       1.00800           0   0.00000       0.00000    
     58315 TIP3     11133    TIP3     H2       HT       0.417000       1.00800           0   0.00000     -0.301140E-02
     58316 TIP3     11134    TIP3     OH2      OT      -0.834000       15.9994           0   0.00000       0.00000    
     58317 TIP3     11134    TIP3     H1       HT       0.417000       1.00800           0   0.00000       0.00000    
     58318 TIP3     11134    TIP3     H2       HT       0.417000       1.00800           0   0.00000     -0.301140E-02
     58319 TIP3     11135    TIP3     OH2      OT      -0.834000       15.9994           0   0.00000       0.00000    
     58320 TIP3     11135    TIP3     H1       HT       0.417000       1.00800           0   0.00000       0.00000    
     58321 TIP3     11135    TIP3     H2       HT       0.417000       1.00800           0   0.00000     -0.301140E-02
     58322 TIP3     11136    TIP3     OH2      OT      -0.834000       15.9994           0   0.00000       0.00000    
     58323 TIP3     11136    TIP3     H1       HT       0.417000       1.00800           0   0.00000       0.00000    
     58324 TIP3     11136    TIP3     H2       HT       0.417000       1.00800           0   0.00000     -0.301140E-02
     58325 TIP3     11137    TIP3     OH2      OT      -0.834000       15.9994           0   0.00000       0.00000    
     58326 TIP3     11137    TIP3     H1       HT       0.417000       1.00800           0   0.00000       0.00000    
     58327 TIP3     11137    TIP3     H2       HT       0.417000       1.00800           0   0.00000     -0.301140E-02
     58328 TIP3     11138    TIP3     OH2      OT      -0.834000       15.9994           0   0.00000       0.00000    
     58329 TIP3     11138    TIP3     H1       HT       0.417000       1.00800           0   0.00000       0.00000    
     58330 TIP3     11138    TIP3     H2       HT       0.417000       1.00800           0   0.00000     -0.301140E-02
     58331 TIP3     11139    TIP3     OH2      OT      -0.834000       15.9994           0   0.00000       0.00000    
     58332 TIP3     11139    TIP3     H1       HT       0.417000       1.00800           0   0.00000       0.00000    
     58333 TIP3     11139    TIP3     H2       HT       0.417000       1.00800           0   0.00000     -0.301140E-02
     58334 TIP3     11140    TIP3     OH2      OT      -0.834000       15.9994           0   0.00000       0.00000    
     58335 TIP3     11140    TIP3     H1       HT       0.417000       1.00800           0   0.00000       0.00000    
     58336 TIP3     11140    TIP3     H2       HT       0.417000       1.00800           0   0.00000     -0.301140E-02
     58337 TIP3     11141    TIP3     OH2      OT      -0.834000       15.9994           0   0.00000       0.00000    
     58338 TIP3     11141    TIP3     H1       HT       0.417000       1.00800           0   0.00000       0.00000    
     58339 TIP3     11141    TIP3     H2       HT       0.417000       1.00800           0   0.00000     -0.301140E-02
     58340 TIP3     11142    TIP3     OH2      OT      -0.834000       15.9994           0   0.00000       0.00000    
     58341 TIP3     11142    TIP3     H1       HT       0.417000       1.00800           0   0.00000       0.00000    
     58342 TIP3     11142    TIP3     H2       HT       0.417000       1.00800           0   0.00000     -0.301140E-02
     58343 TIP3     11143    TIP3     OH2      OT      -0.834000       15.9994           0   0.00000       0.00000    
     58344 TIP3     11143    TIP3     H1       HT       0.417000       1.00800           0   0.00000       0.00000    
     58345 TIP3     11143    TIP3     H2       HT       0.417000       1.00800           0   0.00000     -0.301140E-02
     58346 TIP3     11144    TIP3     OH2      OT      -0.834000       15.9994           0   0.00000       0.00000    
     58347 TIP3     11144    TIP3     H1       HT       0.417000       1.00800           0   0.00000       0.00000    
     58348 TIP3     11144    TIP3     H2       HT       0.417000       1.00800           0   0.00000     -0.301140E-02
     58349 TIP3     11145    TIP3     OH2      OT      -0.834000       15.9994           0   0.00000       0.00000    
     58350 TIP3     11145    TIP3     H1       HT       0.417000       1.00800           0   0.00000       0.00000    
     58351 TIP3     11145    TIP3     H2       HT       0.417000       1.00800           0   0.00000     -0.301140E-02
     58352 TIP3     11146    TIP3     OH2      OT      -0.834000       15.9994           0   0.00000       0.00000    
     58353 TIP3     11146    TIP3     H1       HT       0.417000       1.00800           0   0.00000       0.00000    
     58354 TIP3     11146    TIP3     H2       HT       0.417000       1.00800           0   0.00000     -0.301140E-02
     58355 TIP3     11147    TIP3     OH2      OT      -0.834000       15.9994           0   0.00000       0.00000    
     58356 TIP3     11147    TIP3     H1       HT       0.417000       1.00800           0   0.00000       0.00000    
     58357 TIP3     11147    TIP3     H2       HT       0.417000       1.00800           0   0.00000     -0.301140E-02
     58358 TIP3     11148    TIP3     OH2      OT      -0.834000       15.9994           0   0.00000       0.00000    
     58359 TIP3     11148    TIP3     H1       HT       0.417000       1.00800           0   0.00000       0.00000    
     58360 TIP3     11148    TIP3     H2       HT       0.417000       1.00800           0   0.00000     -0.301140E-02
     58361 TIP3     11149    TIP3     OH2      OT      -0.834000       15.9994           0   0.00000       0.00000    
     58362 TIP3     11149    TIP3     H1       HT       0.417000       1.00800           0   0.00000       0.00000    
     58363 TIP3     11149    TIP3     H2       HT       0.417000       1.00800           0   0.00000     -0.301140E-02
     58364 TIP3     11150    TIP3     OH2      OT      -0.834000       15.9994           0   0.00000       0.00000    
     58365 TIP3     11150    TIP3     H1       HT       0.417000       1.00800           0   0.00000       0.00000    
     58366 TIP3     11150    TIP3     H2       HT       0.417000       1.00800           0   0.00000     -0.301140E-02
     58367 TIP3     11151    TIP3     OH2      OT      -0.834000       15.9994           0   0.00000       0.00000    
     58368 TIP3     11151    TIP3     H1       HT       0.417000       1.00800           0   0.00000       0.00000    
     58369 TIP3     11151    TIP3     H2       HT       0.417000       1.00800           0   0.00000     -0.301140E-02
     58370 TIP3     11152    TIP3     OH2      OT      -0.834000       15.9994           0   0.00000       0.00000    
     58371 TIP3     11152    TIP3     H1       HT       0.417000       1.00800           0   0.00000       0.00000    
     58372 TIP3     11152    TIP3     H2       HT       0.417000       1.00800           0   0.00000     -0.301140E-02
     58373 TIP3     11153    TIP3     OH2      OT      -0.834000       15.9994           0   0.00000       0.00000    
     58374 TIP3     11153    TIP3     H1       HT       0.417000       1.00800           0   0.00000       0.00000    
     58375 TIP3     11153    TIP3     H2       HT       0.417000       1.00800           0   0.00000     -0.301140E-02
     58376 TIP3     11154    TIP3     OH2      OT      -0.834000       15.9994           0   0.00000       0.00000    
     58377 TIP3     11154    TIP3     H1       HT       0.417000       1.00800           0   0.00000       0.00000    
     58378 TIP3     11154    TIP3     H2       HT       0.417000       1.00800           0   0.00000     -0.301140E-02
     58379 TIP3     11155    TIP3     OH2      OT      -0.834000       15.9994           0   0.00000       0.00000    
     58380 TIP3     11155    TIP3     H1       HT       0.417000       1.00800           0   0.00000       0.00000    
     58381 TIP3     11155    TIP3     H2       HT       0.417000       1.00800           0   0.00000     -0.301140E-02
     58382 TIP3     11156    TIP3     OH2      OT      -0.834000       15.9994           0   0.00000       0.00000    
     58383 TIP3     11156    TIP3     H1       HT       0.417000       1.00800           0   0.00000       0.00000    
     58384 TIP3     11156    TIP3     H2       HT       0.417000       1.00800           0   0.00000     -0.301140E-02
     58385 TIP3     11157    TIP3     OH2      OT      -0.834000       15.9994           0   0.00000       0.00000    
     58386 TIP3     11157    TIP3     H1       HT       0.417000       1.00800           0   0.00000       0.00000    
     58387 TIP3     11157    TIP3     H2       HT       0.417000       1.00800           0   0.00000     -0.301140E-02
     58388 TIP3     11158    TIP3     OH2      OT      -0.834000       15.9994           0   0.00000       0.00000    
     58389 TIP3     11158    TIP3     H1       HT       0.417000       1.00800           0   0.00000       0.00000    
     58390 TIP3     11158    TIP3     H2       HT       0.417000       1.00800           0   0.00000     -0.301140E-02
     58391 TIP3     11159    TIP3     OH2      OT      -0.834000       15.9994           0   0.00000       0.00000    
     58392 TIP3     11159    TIP3     H1       HT       0.417000       1.00800           0   0.00000       0.00000    
     58393 TIP3     11159    TIP3     H2       HT       0.417000       1.00800           0   0.00000     -0.301140E-02
     58394 TIP3     11160    TIP3     OH2      OT      -0.834000       15.9994           0   0.00000       0.00000    
     58395 TIP3     11160    TIP3     H1       HT       0.417000       1.00800           0   0.00000       0.00000    
     58396 TIP3     11160    TIP3     H2       HT       0.417000       1.00800           0   0.00000     -0.301140E-02
     58397 TIP3     11161    TIP3     OH2      OT      -0.834000       15.9994           0   0.00000       0.00000    
     58398 TIP3     11161    TIP3     H1       HT       0.417000       1.00800           0   0.00000       0.00000    
     58399 TIP3     11161    TIP3     H2       HT       0.417000       1.00800           0   0.00000     -0.301140E-02
     58400 TIP3     11162    TIP3     OH2      OT      -0.834000       15.9994           0   0.00000       0.00000    
     58401 TIP3     11162    TIP3     H1       HT       0.417000       1.00800           0   0.00000       0.00000    
     58402 TIP3     11162    TIP3     H2       HT       0.417000       1.00800           0   0.00000     -0.301140E-02
     58403 TIP3     11163    TIP3     OH2      OT      -0.834000       15.9994           0   0.00000       0.00000    
     58404 TIP3     11163    TIP3     H1       HT       0.417000       1.00800           0   0.00000       0.00000    
     58405 TIP3     11163    TIP3     H2       HT       0.417000       1.00800           0   0.00000     -0.301140E-02
     58406 TIP3     11164    TIP3     OH2      OT      -0.834000       15.9994           0   0.00000       0.00000    
     58407 TIP3     11164    TIP3     H1       HT       0.417000       1.00800           0   0.00000       0.00000    
     58408 TIP3     11164    TIP3     H2       HT       0.417000       1.00800           0   0.00000     -0.301140E-02
     58409 TIP3     11165    TIP3     OH2      OT      -0.834000       15.9994           0   0.00000       0.00000    
     58410 TIP3     11165    TIP3     H1       HT       0.417000       1.00800           0   0.00000       0.00000    
     58411 TIP3     11165    TIP3     H2       HT       0.417000       1.00800           0   0.00000     -0.301140E-02
     58412 TIP3     11166    TIP3     OH2      OT      -0.834000       15.9994           0   0.00000       0.00000    
     58413 TIP3     11166    TIP3     H1       HT       0.417000       1.00800           0   0.00000       0.00000    
     58414 TIP3     11166    TIP3     H2       HT       0.417000       1.00800           0   0.00000     -0.301140E-02
     58415 TIP3     11167    TIP3     OH2      OT      -0.834000       15.9994           0   0.00000       0.00000    
     58416 TIP3     11167    TIP3     H1       HT       0.417000       1.00800           0   0.00000       0.00000    
     58417 TIP3     11167    TIP3     H2       HT       0.417000       1.00800           0   0.00000     -0.301140E-02
     58418 TIP3     11168    TIP3     OH2      OT      -0.834000       15.9994           0   0.00000       0.00000    
     58419 TIP3     11168    TIP3     H1       HT       0.417000       1.00800           0   0.00000       0.00000    
     58420 TIP3     11168    TIP3     H2       HT       0.417000       1.00800           0   0.00000     -0.301140E-02
     58421 TIP3     11169    TIP3     OH2      OT      -0.834000       15.9994           0   0.00000       0.00000    
     58422 TIP3     11169    TIP3     H1       HT       0.417000       1.00800           0   0.00000       0.00000    
     58423 TIP3     11169    TIP3     H2       HT       0.417000       1.00800           0   0.00000     -0.301140E-02
     58424 TIP3     11170    TIP3     OH2      OT      -0.834000       15.9994           0   0.00000       0.00000    
     58425 TIP3     11170    TIP3     H1       HT       0.417000       1.00800           0   0.00000       0.00000    
     58426 TIP3     11170    TIP3     H2       HT       0.417000       1.00800           0   0.00000     -0.301140E-02
     58427 TIP3     11171    TIP3     OH2      OT      -0.834000       15.9994           0   0.00000       0.00000    
     58428 TIP3     11171    TIP3     H1       HT       0.417000       1.00800           0   0.00000       0.00000    
     58429 TIP3     11171    TIP3     H2       HT       0.417000       1.00800           0   0.00000     -0.301140E-02
     58430 TIP3     11172    TIP3     OH2      OT      -0.834000       15.9994           0   0.00000       0.00000    
     58431 TIP3     11172    TIP3     H1       HT       0.417000       1.00800           0   0.00000       0.00000    
     58432 TIP3     11172    TIP3     H2       HT       0.417000       1.00800           0   0.00000     -0.301140E-02
     58433 TIP3     11173    TIP3     OH2      OT      -0.834000       15.9994           0   0.00000       0.00000    
     58434 TIP3     11173    TIP3     H1       HT       0.417000       1.00800           0   0.00000       0.00000    
     58435 TIP3     11173    TIP3     H2       HT       0.417000       1.00800           0   0.00000     -0.301140E-02
     58436 TIP3     11174    TIP3     OH2      OT      -0.834000       15.9994           0   0.00000       0.00000    
     58437 TIP3     11174    TIP3     H1       HT       0.417000       1.00800           0   0.00000       0.00000    
     58438 TIP3     11174    TIP3     H2       HT       0.417000       1.00800           0   0.00000     -0.301140E-02
     58439 TIP3     11175    TIP3     OH2      OT      -0.834000       15.9994           0   0.00000       0.00000    
     58440 TIP3     11175    TIP3     H1       HT       0.417000       1.00800           0   0.00000       0.00000    
     58441 TIP3     11175    TIP3     H2       HT       0.417000       1.00800           0   0.00000     -0.301140E-02
     58442 TIP3     11176    TIP3     OH2      OT      -0.834000       15.9994           0   0.00000       0.00000    
     58443 TIP3     11176    TIP3     H1       HT       0.417000       1.00800           0   0.00000       0.00000    
     58444 TIP3     11176    TIP3     H2       HT       0.417000       1.00800           0   0.00000     -0.301140E-02
     58445 TIP3     11177    TIP3     OH2      OT      -0.834000       15.9994           0   0.00000       0.00000    
     58446 TIP3     11177    TIP3     H1       HT       0.417000       1.00800           0   0.00000       0.00000    
     58447 TIP3     11177    TIP3     H2       HT       0.417000       1.00800           0   0.00000     -0.301140E-02
     58448 TIP3     11178    TIP3     OH2      OT      -0.834000       15.9994           0   0.00000       0.00000    
     58449 TIP3     11178    TIP3     H1       HT       0.417000       1.00800           0   0.00000       0.00000    
     58450 TIP3     11178    TIP3     H2       HT       0.417000       1.00800           0   0.00000     -0.301140E-02
     58451 TIP3     11179    TIP3     OH2      OT      -0.834000       15.9994           0   0.00000       0.00000    
     58452 TIP3     11179    TIP3     H1       HT       0.417000       1.00800           0   0.00000       0.00000    
     58453 TIP3     11179    TIP3     H2       HT       0.417000       1.00800           0   0.00000     -0.301140E-02
     58454 TIP3     11180    TIP3     OH2      OT      -0.834000       15.9994           0   0.00000       0.00000    
     58455 TIP3     11180    TIP3     H1       HT       0.417000       1.00800           0   0.00000       0.00000    
     58456 TIP3     11180    TIP3     H2       HT       0.417000       1.00800           0   0.00000     -0.301140E-02
     58457 TIP3     11181    TIP3     OH2      OT      -0.834000       15.9994           0   0.00000       0.00000    
     58458 TIP3     11181    TIP3     H1       HT       0.417000       1.00800           0   0.00000       0.00000    
     58459 TIP3     11181    TIP3     H2       HT       0.417000       1.00800           0   0.00000     -0.301140E-02
     58460 TIP3     11182    TIP3     OH2      OT      -0.834000       15.9994           0   0.00000       0.00000    
     58461 TIP3     11182    TIP3     H1       HT       0.417000       1.00800           0   0.00000       0.00000    
     58462 TIP3     11182    TIP3     H2       HT       0.417000       1.00800           0   0.00000     -0.301140E-02
     58463 TIP3     11183    TIP3     OH2      OT      -0.834000       15.9994           0   0.00000       0.00000    
     58464 TIP3     11183    TIP3     H1       HT       0.417000       1.00800           0   0.00000       0.00000    
     58465 TIP3     11183    TIP3     H2       HT       0.417000       1.00800           0   0.00000     -0.301140E-02
     58466 TIP3     11184    TIP3     OH2      OT      -0.834000       15.9994           0   0.00000       0.00000    
     58467 TIP3     11184    TIP3     H1       HT       0.417000       1.00800           0   0.00000       0.00000    
     58468 TIP3     11184    TIP3     H2       HT       0.417000       1.00800           0   0.00000     -0.301140E-02
     58469 TIP3     11185    TIP3     OH2      OT      -0.834000       15.9994           0   0.00000       0.00000    
     58470 TIP3     11185    TIP3     H1       HT       0.417000       1.00800           0   0.00000       0.00000    
     58471 TIP3     11185    TIP3     H2       HT       0.417000       1.00800           0   0.00000     -0.301140E-02
     58472 TIP3     11186    TIP3     OH2      OT      -0.834000       15.9994           0   0.00000       0.00000    
     58473 TIP3     11186    TIP3     H1       HT       0.417000       1.00800           0   0.00000       0.00000    
     58474 TIP3     11186    TIP3     H2       HT       0.417000       1.00800           0   0.00000     -0.301140E-02
     58475 TIP3     11187    TIP3     OH2      OT      -0.834000       15.9994           0   0.00000       0.00000    
     58476 TIP3     11187    TIP3     H1       HT       0.417000       1.00800           0   0.00000       0.00000    
     58477 TIP3     11187    TIP3     H2       HT       0.417000       1.00800           0   0.00000     -0.301140E-02
     58478 TIP3     11188    TIP3     OH2      OT      -0.834000       15.9994           0   0.00000       0.00000    
     58479 TIP3     11188    TIP3     H1       HT       0.417000       1.00800           0   0.00000       0.00000    
     58480 TIP3     11188    TIP3     H2       HT       0.417000       1.00800           0   0.00000     -0.301140E-02
     58481 TIP3     11189    TIP3     OH2      OT      -0.834000       15.9994           0   0.00000       0.00000    
     58482 TIP3     11189    TIP3     H1       HT       0.417000       1.00800           0   0.00000       0.00000    
     58483 TIP3     11189    TIP3     H2       HT       0.417000       1.00800           0   0.00000     -0.301140E-02
     58484 TIP3     11190    TIP3     OH2      OT      -0.834000       15.9994           0   0.00000       0.00000    
     58485 TIP3     11190    TIP3     H1       HT       0.417000       1.00800           0   0.00000       0.00000    
     58486 TIP3     11190    TIP3     H2       HT       0.417000       1.00800           0   0.00000     -0.301140E-02
     58487 TIP3     11191    TIP3     OH2      OT      -0.834000       15.9994           0   0.00000       0.00000    
     58488 TIP3     11191    TIP3     H1       HT       0.417000       1.00800           0   0.00000       0.00000    
     58489 TIP3     11191    TIP3     H2       HT       0.417000       1.00800           0   0.00000     -0.301140E-02
     58490 TIP3     11192    TIP3     OH2      OT      -0.834000       15.9994           0   0.00000       0.00000    
     58491 TIP3     11192    TIP3     H1       HT       0.417000       1.00800           0   0.00000       0.00000    
     58492 TIP3     11192    TIP3     H2       HT       0.417000       1.00800           0   0.00000     -0.301140E-02
     58493 TIP3     11193    TIP3     OH2      OT      -0.834000       15.9994           0   0.00000       0.00000    
     58494 TIP3     11193    TIP3     H1       HT       0.417000       1.00800           0   0.00000       0.00000    
     58495 TIP3     11193    TIP3     H2       HT       0.417000       1.00800           0   0.00000     -0.301140E-02
     58496 TIP3     11194    TIP3     OH2      OT      -0.834000       15.9994           0   0.00000       0.00000    
     58497 TIP3     11194    TIP3     H1       HT       0.417000       1.00800           0   0.00000       0.00000    
     58498 TIP3     11194    TIP3     H2       HT       0.417000       1.00800           0   0.00000     -0.301140E-02
     58499 TIP3     11195    TIP3     OH2      OT      -0.834000       15.9994           0   0.00000       0.00000    
     58500 TIP3     11195    TIP3     H1       HT       0.417000       1.00800           0   0.00000       0.00000    
     58501 TIP3     11195    TIP3     H2       HT       0.417000       1.00800           0   0.00000     -0.301140E-02
     58502 TIP3     11196    TIP3     OH2      OT      -0.834000       15.9994           0   0.00000       0.00000    
     58503 TIP3     11196    TIP3     H1       HT       0.417000       1.00800           0   0.00000       0.00000    
     58504 TIP3     11196    TIP3     H2       HT       0.417000       1.00800           0   0.00000     -0.301140E-02
     58505 TIP3     11197    TIP3     OH2      OT      -0.834000       15.9994           0   0.00000       0.00000    
     58506 TIP3     11197    TIP3     H1       HT       0.417000       1.00800           0   0.00000       0.00000    
     58507 TIP3     11197    TIP3     H2       HT       0.417000       1.00800           0   0.00000     -0.301140E-02
     58508 TIP3     11198    TIP3     OH2      OT      -0.834000       15.9994           0   0.00000       0.00000    
     58509 TIP3     11198    TIP3     H1       HT       0.417000       1.00800           0   0.00000       0.00000    
     58510 TIP3     11198    TIP3     H2       HT       0.417000       1.00800           0   0.00000     -0.301140E-02
     58511 TIP3     11199    TIP3     OH2      OT      -0.834000       15.9994           0   0.00000       0.00000    
     58512 TIP3     11199    TIP3     H1       HT       0.417000       1.00800           0   0.00000       0.00000    
     58513 TIP3     11199    TIP3     H2       HT       0.417000       1.00800           0   0.00000     -0.301140E-02
     58514 TIP3     11200    TIP3     OH2      OT      -0.834000       15.9994           0   0.00000       0.00000    
     58515 TIP3     11200    TIP3     H1       HT       0.417000       1.00800           0   0.00000       0.00000    
     58516 TIP3     11200    TIP3     H2       HT       0.417000       1.00800           0   0.00000     -0.301140E-02
     58517 TIP3     11201    TIP3     OH2      OT      -0.834000       15.9994           0   0.00000       0.00000    
     58518 TIP3     11201    TIP3     H1       HT       0.417000       1.00800           0   0.00000       0.00000    
     58519 TIP3     11201    TIP3     H2       HT       0.417000       1.00800           0   0.00000     -0.301140E-02
     58520 TIP3     11202    TIP3     OH2      OT      -0.834000       15.9994           0   0.00000       0.00000    
     58521 TIP3     11202    TIP3     H1       HT       0.417000       1.00800           0   0.00000       0.00000    
     58522 TIP3     11202    TIP3     H2       HT       0.417000       1.00800           0   0.00000     -0.301140E-02
     58523 TIP3     11203    TIP3     OH2      OT      -0.834000       15.9994           0   0.00000       0.00000    
     58524 TIP3     11203    TIP3     H1       HT       0.417000       1.00800           0   0.00000       0.00000    
     58525 TIP3     11203    TIP3     H2       HT       0.417000       1.00800           0   0.00000     -0.301140E-02
     58526 TIP3     11204    TIP3     OH2      OT      -0.834000       15.9994           0   0.00000       0.00000    
     58527 TIP3     11204    TIP3     H1       HT       0.417000       1.00800           0   0.00000       0.00000    
     58528 TIP3     11204    TIP3     H2       HT       0.417000       1.00800           0   0.00000     -0.301140E-02
     58529 TIP3     11205    TIP3     OH2      OT      -0.834000       15.9994           0   0.00000       0.00000    
     58530 TIP3     11205    TIP3     H1       HT       0.417000       1.00800           0   0.00000       0.00000    
     58531 TIP3     11205    TIP3     H2       HT       0.417000       1.00800           0   0.00000     -0.301140E-02
     58532 TIP3     11206    TIP3     OH2      OT      -0.834000       15.9994           0   0.00000       0.00000    
     58533 TIP3     11206    TIP3     H1       HT       0.417000       1.00800           0   0.00000       0.00000    
     58534 TIP3     11206    TIP3     H2       HT       0.417000       1.00800           0   0.00000     -0.301140E-02
     58535 TIP3     11207    TIP3     OH2      OT      -0.834000       15.9994           0   0.00000       0.00000    
     58536 TIP3     11207    TIP3     H1       HT       0.417000       1.00800           0   0.00000       0.00000    
     58537 TIP3     11207    TIP3     H2       HT       0.417000       1.00800           0   0.00000     -0.301140E-02
     58538 TIP3     11208    TIP3     OH2      OT      -0.834000       15.9994           0   0.00000       0.00000    
     58539 TIP3     11208    TIP3     H1       HT       0.417000       1.00800           0   0.00000       0.00000    
     58540 TIP3     11208    TIP3     H2       HT       0.417000       1.00800           0   0.00000     -0.301140E-02
     58541 TIP3     11209    TIP3     OH2      OT      -0.834000       15.9994           0   0.00000       0.00000    
     58542 TIP3     11209    TIP3     H1       HT       0.417000       1.00800           0   0.00000       0.00000    
     58543 TIP3     11209    TIP3     H2       HT       0.417000       1.00800           0   0.00000     -0.301140E-02
     58544 TIP3     11210    TIP3     OH2      OT      -0.834000       15.9994           0   0.00000       0.00000    
     58545 TIP3     11210    TIP3     H1       HT       0.417000       1.00800           0   0.00000       0.00000    
     58546 TIP3     11210    TIP3     H2       HT       0.417000       1.00800           0   0.00000     -0.301140E-02
     58547 TIP3     11211    TIP3     OH2      OT      -0.834000       15.9994           0   0.00000       0.00000    
     58548 TIP3     11211    TIP3     H1       HT       0.417000       1.00800           0   0.00000       0.00000    
     58549 TIP3     11211    TIP3     H2       HT       0.417000       1.00800           0   0.00000     -0.301140E-02
     58550 TIP3     11212    TIP3     OH2      OT      -0.834000       15.9994           0   0.00000       0.00000    
     58551 TIP3     11212    TIP3     H1       HT       0.417000       1.00800           0   0.00000       0.00000    
     58552 TIP3     11212    TIP3     H2       HT       0.417000       1.00800           0   0.00000     -0.301140E-02
     58553 TIP3     11213    TIP3     OH2      OT      -0.834000       15.9994           0   0.00000       0.00000    
     58554 TIP3     11213    TIP3     H1       HT       0.417000       1.00800           0   0.00000       0.00000    
     58555 TIP3     11213    TIP3     H2       HT       0.417000       1.00800           0   0.00000     -0.301140E-02
     58556 TIP3     11214    TIP3     OH2      OT      -0.834000       15.9994           0   0.00000       0.00000    
     58557 TIP3     11214    TIP3     H1       HT       0.417000       1.00800           0   0.00000       0.00000    
     58558 TIP3     11214    TIP3     H2       HT       0.417000       1.00800           0   0.00000     -0.301140E-02
     58559 TIP3     11215    TIP3     OH2      OT      -0.834000       15.9994           0   0.00000       0.00000    
     58560 TIP3     11215    TIP3     H1       HT       0.417000       1.00800           0   0.00000       0.00000    
     58561 TIP3     11215    TIP3     H2       HT       0.417000       1.00800           0   0.00000     -0.301140E-02
     58562 TIP3     11216    TIP3     OH2      OT      -0.834000       15.9994           0   0.00000       0.00000    
     58563 TIP3     11216    TIP3     H1       HT       0.417000       1.00800           0   0.00000       0.00000    
     58564 TIP3     11216    TIP3     H2       HT       0.417000       1.00800           0   0.00000     -0.301140E-02
     58565 TIP3     11217    TIP3     OH2      OT      -0.834000       15.9994           0   0.00000       0.00000    
     58566 TIP3     11217    TIP3     H1       HT       0.417000       1.00800           0   0.00000       0.00000    
     58567 TIP3     11217    TIP3     H2       HT       0.417000       1.00800           0   0.00000     -0.301140E-02
     58568 TIP3     11218    TIP3     OH2      OT      -0.834000       15.9994           0   0.00000       0.00000    
     58569 TIP3     11218    TIP3     H1       HT       0.417000       1.00800           0   0.00000       0.00000    
     58570 TIP3     11218    TIP3     H2       HT       0.417000       1.00800           0   0.00000     -0.301140E-02
     58571 TIP3     11219    TIP3     OH2      OT      -0.834000       15.9994           0   0.00000       0.00000    
     58572 TIP3     11219    TIP3     H1       HT       0.417000       1.00800           0   0.00000       0.00000    
     58573 TIP3     11219    TIP3     H2       HT       0.417000       1.00800           0   0.00000     -0.301140E-02
     58574 TIP3     11220    TIP3     OH2      OT      -0.834000       15.9994           0   0.00000       0.00000    
     58575 TIP3     11220    TIP3     H1       HT       0.417000       1.00800           0   0.00000       0.00000    
     58576 TIP3     11220    TIP3     H2       HT       0.417000       1.00800           0   0.00000     -0.301140E-02
     58577 TIP3     11221    TIP3     OH2      OT      -0.834000       15.9994           0   0.00000       0.00000    
     58578 TIP3     11221    TIP3     H1       HT       0.417000       1.00800           0   0.00000       0.00000    
     58579 TIP3     11221    TIP3     H2       HT       0.417000       1.00800           0   0.00000     -0.301140E-02
     58580 TIP3     11222    TIP3     OH2      OT      -0.834000       15.9994           0   0.00000       0.00000    
     58581 TIP3     11222    TIP3     H1       HT       0.417000       1.00800           0   0.00000       0.00000    
     58582 TIP3     11222    TIP3     H2       HT       0.417000       1.00800           0   0.00000     -0.301140E-02
     58583 TIP3     11223    TIP3     OH2      OT      -0.834000       15.9994           0   0.00000       0.00000    
     58584 TIP3     11223    TIP3     H1       HT       0.417000       1.00800           0   0.00000       0.00000    
     58585 TIP3     11223    TIP3     H2       HT       0.417000       1.00800           0   0.00000     -0.301140E-02
     58586 TIP3     11224    TIP3     OH2      OT      -0.834000       15.9994           0   0.00000       0.00000    
     58587 TIP3     11224    TIP3     H1       HT       0.417000       1.00800           0   0.00000       0.00000    
     58588 TIP3     11224    TIP3     H2       HT       0.417000       1.00800           0   0.00000     -0.301140E-02
     58589 TIP3     11225    TIP3     OH2      OT      -0.834000       15.9994           0   0.00000       0.00000    
     58590 TIP3     11225    TIP3     H1       HT       0.417000       1.00800           0   0.00000       0.00000    
     58591 TIP3     11225    TIP3     H2       HT       0.417000       1.00800           0   0.00000     -0.301140E-02
     58592 TIP3     11226    TIP3     OH2      OT      -0.834000       15.9994           0   0.00000       0.00000    
     58593 TIP3     11226    TIP3     H1       HT       0.417000       1.00800           0   0.00000       0.00000    
     58594 TIP3     11226    TIP3     H2       HT       0.417000       1.00800           0   0.00000     -0.301140E-02
     58595 TIP3     11227    TIP3     OH2      OT      -0.834000       15.9994           0   0.00000       0.00000    
     58596 TIP3     11227    TIP3     H1       HT       0.417000       1.00800           0   0.00000       0.00000    
     58597 TIP3     11227    TIP3     H2       HT       0.417000       1.00800           0   0.00000     -0.301140E-02
     58598 TIP3     11228    TIP3     OH2      OT      -0.834000       15.9994           0   0.00000       0.00000    
     58599 TIP3     11228    TIP3     H1       HT       0.417000       1.00800           0   0.00000       0.00000    
     58600 TIP3     11228    TIP3     H2       HT       0.417000       1.00800           0   0.00000     -0.301140E-02
     58601 TIP3     11229    TIP3     OH2      OT      -0.834000       15.9994           0   0.00000       0.00000    
     58602 TIP3     11229    TIP3     H1       HT       0.417000       1.00800           0   0.00000       0.00000    
     58603 TIP3     11229    TIP3     H2       HT       0.417000       1.00800           0   0.00000     -0.301140E-02
     58604 TIP3     11230    TIP3     OH2      OT      -0.834000       15.9994           0   0.00000       0.00000    
     58605 TIP3     11230    TIP3     H1       HT       0.417000       1.00800           0   0.00000       0.00000    
     58606 TIP3     11230    TIP3     H2       HT       0.417000       1.00800           0   0.00000     -0.301140E-02
     58607 TIP3     11231    TIP3     OH2      OT      -0.834000       15.9994           0   0.00000       0.00000    
     58608 TIP3     11231    TIP3     H1       HT       0.417000       1.00800           0   0.00000       0.00000    
     58609 TIP3     11231    TIP3     H2       HT       0.417000       1.00800           0   0.00000     -0.301140E-02
     58610 TIP3     11232    TIP3     OH2      OT      -0.834000       15.9994           0   0.00000       0.00000    
     58611 TIP3     11232    TIP3     H1       HT       0.417000       1.00800           0   0.00000       0.00000    
     58612 TIP3     11232    TIP3     H2       HT       0.417000       1.00800           0   0.00000     -0.301140E-02
     58613 TIP3     11233    TIP3     OH2      OT      -0.834000       15.9994           0   0.00000       0.00000    
     58614 TIP3     11233    TIP3     H1       HT       0.417000       1.00800           0   0.00000       0.00000    
     58615 TIP3     11233    TIP3     H2       HT       0.417000       1.00800           0   0.00000     -0.301140E-02
     58616 TIP3     11234    TIP3     OH2      OT      -0.834000       15.9994           0   0.00000       0.00000    
     58617 TIP3     11234    TIP3     H1       HT       0.417000       1.00800           0   0.00000       0.00000    
     58618 TIP3     11234    TIP3     H2       HT       0.417000       1.00800           0   0.00000     -0.301140E-02
     58619 TIP3     11235    TIP3     OH2      OT      -0.834000       15.9994           0   0.00000       0.00000    
     58620 TIP3     11235    TIP3     H1       HT       0.417000       1.00800           0   0.00000       0.00000    
     58621 TIP3     11235    TIP3     H2       HT       0.417000       1.00800           0   0.00000     -0.301140E-02
     58622 TIP3     11236    TIP3     OH2      OT      -0.834000       15.9994           0   0.00000       0.00000    
     58623 TIP3     11236    TIP3     H1       HT       0.417000       1.00800           0   0.00000       0.00000    
     58624 TIP3     11236    TIP3     H2       HT       0.417000       1.00800           0   0.00000     -0.301140E-02
     58625 TIP3     11237    TIP3     OH2      OT      -0.834000       15.9994           0   0.00000       0.00000    
     58626 TIP3     11237    TIP3     H1       HT       0.417000       1.00800           0   0.00000       0.00000    
     58627 TIP3     11237    TIP3     H2       HT       0.417000       1.00800           0   0.00000     -0.301140E-02
     58628 TIP3     11238    TIP3     OH2      OT      -0.834000       15.9994           0   0.00000       0.00000    
     58629 TIP3     11238    TIP3     H1       HT       0.417000       1.00800           0   0.00000       0.00000    
     58630 TIP3     11238    TIP3     H2       HT       0.417000       1.00800           0   0.00000     -0.301140E-02
     58631 TIP3     11239    TIP3     OH2      OT      -0.834000       15.9994           0   0.00000       0.00000    
     58632 TIP3     11239    TIP3     H1       HT       0.417000       1.00800           0   0.00000       0.00000    
     58633 TIP3     11239    TIP3     H2       HT       0.417000       1.00800           0   0.00000     -0.301140E-02
     58634 TIP3     11240    TIP3     OH2      OT      -0.834000       15.9994           0   0.00000       0.00000    
     58635 TIP3     11240    TIP3     H1       HT       0.417000       1.00800           0   0.00000       0.00000    
     58636 TIP3     11240    TIP3     H2       HT       0.417000       1.00800           0   0.00000     -0.301140E-02
     58637 TIP3     11241    TIP3     OH2      OT      -0.834000       15.9994           0   0.00000       0.00000    
     58638 TIP3     11241    TIP3     H1       HT       0.417000       1.00800           0   0.00000       0.00000    
     58639 TIP3     11241    TIP3     H2       HT       0.417000       1.00800           0   0.00000     -0.301140E-02
     58640 TIP3     11242    TIP3     OH2      OT      -0.834000       15.9994           0   0.00000       0.00000    
     58641 TIP3     11242    TIP3     H1       HT       0.417000       1.00800           0   0.00000       0.00000    
     58642 TIP3     11242    TIP3     H2       HT       0.417000       1.00800           0   0.00000     -0.301140E-02
     58643 TIP3     11243    TIP3     OH2      OT      -0.834000       15.9994           0   0.00000       0.00000    
     58644 TIP3     11243    TIP3     H1       HT       0.417000       1.00800           0   0.00000       0.00000    
     58645 TIP3     11243    TIP3     H2       HT       0.417000       1.00800           0   0.00000     -0.301140E-02
     58646 TIP3     11244    TIP3     OH2      OT      -0.834000       15.9994           0   0.00000       0.00000    
     58647 TIP3     11244    TIP3     H1       HT       0.417000       1.00800           0   0.00000       0.00000    
     58648 TIP3     11244    TIP3     H2       HT       0.417000       1.00800           0   0.00000     -0.301140E-02
     58649 TIP3     11245    TIP3     OH2      OT      -0.834000       15.9994           0   0.00000       0.00000    
     58650 TIP3     11245    TIP3     H1       HT       0.417000       1.00800           0   0.00000       0.00000    
     58651 TIP3     11245    TIP3     H2       HT       0.417000       1.00800           0   0.00000     -0.301140E-02
     58652 TIP3     11246    TIP3     OH2      OT      -0.834000       15.9994           0   0.00000       0.00000    
     58653 TIP3     11246    TIP3     H1       HT       0.417000       1.00800           0   0.00000       0.00000    
     58654 TIP3     11246    TIP3     H2       HT       0.417000       1.00800           0   0.00000     -0.301140E-02
     58655 TIP3     11247    TIP3     OH2      OT      -0.834000       15.9994           0   0.00000       0.00000    
     58656 TIP3     11247    TIP3     H1       HT       0.417000       1.00800           0   0.00000       0.00000    
     58657 TIP3     11247    TIP3     H2       HT       0.417000       1.00800           0   0.00000     -0.301140E-02
     58658 TIP3     11248    TIP3     OH2      OT      -0.834000       15.9994           0   0.00000       0.00000    
     58659 TIP3     11248    TIP3     H1       HT       0.417000       1.00800           0   0.00000       0.00000    
     58660 TIP3     11248    TIP3     H2       HT       0.417000       1.00800           0   0.00000     -0.301140E-02
     58661 TIP3     11249    TIP3     OH2      OT      -0.834000       15.9994           0   0.00000       0.00000    
     58662 TIP3     11249    TIP3     H1       HT       0.417000       1.00800           0   0.00000       0.00000    
     58663 TIP3     11249    TIP3     H2       HT       0.417000       1.00800           0   0.00000     -0.301140E-02
     58664 TIP3     11250    TIP3     OH2      OT      -0.834000       15.9994           0   0.00000       0.00000    
     58665 TIP3     11250    TIP3     H1       HT       0.417000       1.00800           0   0.00000       0.00000    
     58666 TIP3     11250    TIP3     H2       HT       0.417000       1.00800           0   0.00000     -0.301140E-02
     58667 TIP3     11251    TIP3     OH2      OT      -0.834000       15.9994           0   0.00000       0.00000    
     58668 TIP3     11251    TIP3     H1       HT       0.417000       1.00800           0   0.00000       0.00000    
     58669 TIP3     11251    TIP3     H2       HT       0.417000       1.00800           0   0.00000     -0.301140E-02
     58670 TIP3     11252    TIP3     OH2      OT      -0.834000       15.9994           0   0.00000       0.00000    
     58671 TIP3     11252    TIP3     H1       HT       0.417000       1.00800           0   0.00000       0.00000    
     58672 TIP3     11252    TIP3     H2       HT       0.417000       1.00800           0   0.00000     -0.301140E-02
     58673 TIP3     11253    TIP3     OH2      OT      -0.834000       15.9994           0   0.00000       0.00000    
     58674 TIP3     11253    TIP3     H1       HT       0.417000       1.00800           0   0.00000       0.00000    
     58675 TIP3     11253    TIP3     H2       HT       0.417000       1.00800           0   0.00000     -0.301140E-02
     58676 TIP3     11254    TIP3     OH2      OT      -0.834000       15.9994           0   0.00000       0.00000    
     58677 TIP3     11254    TIP3     H1       HT       0.417000       1.00800           0   0.00000       0.00000    
     58678 TIP3     11254    TIP3     H2       HT       0.417000       1.00800           0   0.00000     -0.301140E-02
     58679 TIP3     11255    TIP3     OH2      OT      -0.834000       15.9994           0   0.00000       0.00000    
     58680 TIP3     11255    TIP3     H1       HT       0.417000       1.00800           0   0.00000       0.00000    
     58681 TIP3     11255    TIP3     H2       HT       0.417000       1.00800           0   0.00000     -0.301140E-02
     58682 TIP3     11256    TIP3     OH2      OT      -0.834000       15.9994           0   0.00000       0.00000    
     58683 TIP3     11256    TIP3     H1       HT       0.417000       1.00800           0   0.00000       0.00000    
     58684 TIP3     11256    TIP3     H2       HT       0.417000       1.00800           0   0.00000     -0.301140E-02
     58685 TIP3     11257    TIP3     OH2      OT      -0.834000       15.9994           0   0.00000       0.00000    
     58686 TIP3     11257    TIP3     H1       HT       0.417000       1.00800           0   0.00000       0.00000    
     58687 TIP3     11257    TIP3     H2       HT       0.417000       1.00800           0   0.00000     -0.301140E-02
     58688 TIP3     11258    TIP3     OH2      OT      -0.834000       15.9994           0   0.00000       0.00000    
     58689 TIP3     11258    TIP3     H1       HT       0.417000       1.00800           0   0.00000       0.00000    
     58690 TIP3     11258    TIP3     H2       HT       0.417000       1.00800           0   0.00000     -0.301140E-02
     58691 TIP3     11259    TIP3     OH2      OT      -0.834000       15.9994           0   0.00000       0.00000    
     58692 TIP3     11259    TIP3     H1       HT       0.417000       1.00800           0   0.00000       0.00000    
     58693 TIP3     11259    TIP3     H2       HT       0.417000       1.00800           0   0.00000     -0.301140E-02
     58694 TIP3     11260    TIP3     OH2      OT      -0.834000       15.9994           0   0.00000       0.00000    
     58695 TIP3     11260    TIP3     H1       HT       0.417000       1.00800           0   0.00000       0.00000    
     58696 TIP3     11260    TIP3     H2       HT       0.417000       1.00800           0   0.00000     -0.301140E-02
     58697 TIP3     11261    TIP3     OH2      OT      -0.834000       15.9994           0   0.00000       0.00000    
     58698 TIP3     11261    TIP3     H1       HT       0.417000       1.00800           0   0.00000       0.00000    
     58699 TIP3     11261    TIP3     H2       HT       0.417000       1.00800           0   0.00000     -0.301140E-02
     58700 TIP3     11262    TIP3     OH2      OT      -0.834000       15.9994           0   0.00000       0.00000    
     58701 TIP3     11262    TIP3     H1       HT       0.417000       1.00800           0   0.00000       0.00000    
     58702 TIP3     11262    TIP3     H2       HT       0.417000       1.00800           0   0.00000     -0.301140E-02
     58703 TIP3     11263    TIP3     OH2      OT      -0.834000       15.9994           0   0.00000       0.00000    
     58704 TIP3     11263    TIP3     H1       HT       0.417000       1.00800           0   0.00000       0.00000    
     58705 TIP3     11263    TIP3     H2       HT       0.417000       1.00800           0   0.00000     -0.301140E-02
     58706 TIP3     11264    TIP3     OH2      OT      -0.834000       15.9994           0   0.00000       0.00000    
     58707 TIP3     11264    TIP3     H1       HT       0.417000       1.00800           0   0.00000       0.00000    
     58708 TIP3     11264    TIP3     H2       HT       0.417000       1.00800           0   0.00000     -0.301140E-02
     58709 TIP3     11265    TIP3     OH2      OT      -0.834000       15.9994           0   0.00000       0.00000    
     58710 TIP3     11265    TIP3     H1       HT       0.417000       1.00800           0   0.00000       0.00000    
     58711 TIP3     11265    TIP3     H2       HT       0.417000       1.00800           0   0.00000     -0.301140E-02
     58712 TIP3     11266    TIP3     OH2      OT      -0.834000       15.9994           0   0.00000       0.00000    
     58713 TIP3     11266    TIP3     H1       HT       0.417000       1.00800           0   0.00000       0.00000    
     58714 TIP3     11266    TIP3     H2       HT       0.417000       1.00800           0   0.00000     -0.301140E-02
     58715 TIP3     11267    TIP3     OH2      OT      -0.834000       15.9994           0   0.00000       0.00000    
     58716 TIP3     11267    TIP3     H1       HT       0.417000       1.00800           0   0.00000       0.00000    
     58717 TIP3     11267    TIP3     H2       HT       0.417000       1.00800           0   0.00000     -0.301140E-02
     58718 TIP3     11268    TIP3     OH2      OT      -0.834000       15.9994           0   0.00000       0.00000    
     58719 TIP3     11268    TIP3     H1       HT       0.417000       1.00800           0   0.00000       0.00000    
     58720 TIP3     11268    TIP3     H2       HT       0.417000       1.00800           0   0.00000     -0.301140E-02
     58721 TIP3     11269    TIP3     OH2      OT      -0.834000       15.9994           0   0.00000       0.00000    
     58722 TIP3     11269    TIP3     H1       HT       0.417000       1.00800           0   0.00000       0.00000    
     58723 TIP3     11269    TIP3     H2       HT       0.417000       1.00800           0   0.00000     -0.301140E-02
     58724 TIP3     11270    TIP3     OH2      OT      -0.834000       15.9994           0   0.00000       0.00000    
     58725 TIP3     11270    TIP3     H1       HT       0.417000       1.00800           0   0.00000       0.00000    
     58726 TIP3     11270    TIP3     H2       HT       0.417000       1.00800           0   0.00000     -0.301140E-02
     58727 TIP3     11271    TIP3     OH2      OT      -0.834000       15.9994           0   0.00000       0.00000    
     58728 TIP3     11271    TIP3     H1       HT       0.417000       1.00800           0   0.00000       0.00000    
     58729 TIP3     11271    TIP3     H2       HT       0.417000       1.00800           0   0.00000     -0.301140E-02
     58730 TIP3     11272    TIP3     OH2      OT      -0.834000       15.9994           0   0.00000       0.00000    
     58731 TIP3     11272    TIP3     H1       HT       0.417000       1.00800           0   0.00000       0.00000    
     58732 TIP3     11272    TIP3     H2       HT       0.417000       1.00800           0   0.00000     -0.301140E-02
     58733 TIP3     11273    TIP3     OH2      OT      -0.834000       15.9994           0   0.00000       0.00000    
     58734 TIP3     11273    TIP3     H1       HT       0.417000       1.00800           0   0.00000       0.00000    
     58735 TIP3     11273    TIP3     H2       HT       0.417000       1.00800           0   0.00000     -0.301140E-02
     58736 TIP3     11274    TIP3     OH2      OT      -0.834000       15.9994           0   0.00000       0.00000    
     58737 TIP3     11274    TIP3     H1       HT       0.417000       1.00800           0   0.00000       0.00000    
     58738 TIP3     11274    TIP3     H2       HT       0.417000       1.00800           0   0.00000     -0.301140E-02
     58739 TIP3     11275    TIP3     OH2      OT      -0.834000       15.9994           0   0.00000       0.00000    
     58740 TIP3     11275    TIP3     H1       HT       0.417000       1.00800           0   0.00000       0.00000    
     58741 TIP3     11275    TIP3     H2       HT       0.417000       1.00800           0   0.00000     -0.301140E-02
     58742 TIP3     11276    TIP3     OH2      OT      -0.834000       15.9994           0   0.00000       0.00000    
     58743 TIP3     11276    TIP3     H1       HT       0.417000       1.00800           0   0.00000       0.00000    
     58744 TIP3     11276    TIP3     H2       HT       0.417000       1.00800           0   0.00000     -0.301140E-02
     58745 TIP3     11277    TIP3     OH2      OT      -0.834000       15.9994           0   0.00000       0.00000    
     58746 TIP3     11277    TIP3     H1       HT       0.417000       1.00800           0   0.00000       0.00000    
     58747 TIP3     11277    TIP3     H2       HT       0.417000       1.00800           0   0.00000     -0.301140E-02
     58748 TIP3     11278    TIP3     OH2      OT      -0.834000       15.9994           0   0.00000       0.00000    
     58749 TIP3     11278    TIP3     H1       HT       0.417000       1.00800           0   0.00000       0.00000    
     58750 TIP3     11278    TIP3     H2       HT       0.417000       1.00800           0   0.00000     -0.301140E-02
     58751 TIP3     11279    TIP3     OH2      OT      -0.834000       15.9994           0   0.00000       0.00000    
     58752 TIP3     11279    TIP3     H1       HT       0.417000       1.00800           0   0.00000       0.00000    
     58753 TIP3     11279    TIP3     H2       HT       0.417000       1.00800           0   0.00000     -0.301140E-02
     58754 TIP3     11280    TIP3     OH2      OT      -0.834000       15.9994           0   0.00000       0.00000    
     58755 TIP3     11280    TIP3     H1       HT       0.417000       1.00800           0   0.00000       0.00000    
     58756 TIP3     11280    TIP3     H2       HT       0.417000       1.00800           0   0.00000     -0.301140E-02
     58757 TIP3     11281    TIP3     OH2      OT      -0.834000       15.9994           0   0.00000       0.00000    
     58758 TIP3     11281    TIP3     H1       HT       0.417000       1.00800           0   0.00000       0.00000    
     58759 TIP3     11281    TIP3     H2       HT       0.417000       1.00800           0   0.00000     -0.301140E-02
     58760 TIP3     11282    TIP3     OH2      OT      -0.834000       15.9994           0   0.00000       0.00000    
     58761 TIP3     11282    TIP3     H1       HT       0.417000       1.00800           0   0.00000       0.00000    
     58762 TIP3     11282    TIP3     H2       HT       0.417000       1.00800           0   0.00000     -0.301140E-02
     58763 TIP3     11283    TIP3     OH2      OT      -0.834000       15.9994           0   0.00000       0.00000    
     58764 TIP3     11283    TIP3     H1       HT       0.417000       1.00800           0   0.00000       0.00000    
     58765 TIP3     11283    TIP3     H2       HT       0.417000       1.00800           0   0.00000     -0.301140E-02
     58766 TIP3     11284    TIP3     OH2      OT      -0.834000       15.9994           0   0.00000       0.00000    
     58767 TIP3     11284    TIP3     H1       HT       0.417000       1.00800           0   0.00000       0.00000    
     58768 TIP3     11284    TIP3     H2       HT       0.417000       1.00800           0   0.00000     -0.301140E-02
     58769 TIP3     11285    TIP3     OH2      OT      -0.834000       15.9994           0   0.00000       0.00000    
     58770 TIP3     11285    TIP3     H1       HT       0.417000       1.00800           0   0.00000       0.00000    
     58771 TIP3     11285    TIP3     H2       HT       0.417000       1.00800           0   0.00000     -0.301140E-02
     58772 TIP3     11286    TIP3     OH2      OT      -0.834000       15.9994           0   0.00000       0.00000    
     58773 TIP3     11286    TIP3     H1       HT       0.417000       1.00800           0   0.00000       0.00000    
     58774 TIP3     11286    TIP3     H2       HT       0.417000       1.00800           0   0.00000     -0.301140E-02
     58775 TIP3     11287    TIP3     OH2      OT      -0.834000       15.9994           0   0.00000       0.00000    
     58776 TIP3     11287    TIP3     H1       HT       0.417000       1.00800           0   0.00000       0.00000    
     58777 TIP3     11287    TIP3     H2       HT       0.417000       1.00800           0   0.00000     -0.301140E-02
     58778 TIP3     11288    TIP3     OH2      OT      -0.834000       15.9994           0   0.00000       0.00000    
     58779 TIP3     11288    TIP3     H1       HT       0.417000       1.00800           0   0.00000       0.00000    
     58780 TIP3     11288    TIP3     H2       HT       0.417000       1.00800           0   0.00000     -0.301140E-02
     58781 TIP3     11289    TIP3     OH2      OT      -0.834000       15.9994           0   0.00000       0.00000    
     58782 TIP3     11289    TIP3     H1       HT       0.417000       1.00800           0   0.00000       0.00000    
     58783 TIP3     11289    TIP3     H2       HT       0.417000       1.00800           0   0.00000     -0.301140E-02
     58784 TIP3     11290    TIP3     OH2      OT      -0.834000       15.9994           0   0.00000       0.00000    
     58785 TIP3     11290    TIP3     H1       HT       0.417000       1.00800           0   0.00000       0.00000    
     58786 TIP3     11290    TIP3     H2       HT       0.417000       1.00800           0   0.00000     -0.301140E-02
     58787 TIP3     11291    TIP3     OH2      OT      -0.834000       15.9994           0   0.00000       0.00000    
     58788 TIP3     11291    TIP3     H1       HT       0.417000       1.00800           0   0.00000       0.00000    
     58789 TIP3     11291    TIP3     H2       HT       0.417000       1.00800           0   0.00000     -0.301140E-02
     58790 TIP3     11292    TIP3     OH2      OT      -0.834000       15.9994           0   0.00000       0.00000    
     58791 TIP3     11292    TIP3     H1       HT       0.417000       1.00800           0   0.00000       0.00000    
     58792 TIP3     11292    TIP3     H2       HT       0.417000       1.00800           0   0.00000     -0.301140E-02
     58793 TIP3     11293    TIP3     OH2      OT      -0.834000       15.9994           0   0.00000       0.00000    
     58794 TIP3     11293    TIP3     H1       HT       0.417000       1.00800           0   0.00000       0.00000    
     58795 TIP3     11293    TIP3     H2       HT       0.417000       1.00800           0   0.00000     -0.301140E-02
     58796 TIP3     11294    TIP3     OH2      OT      -0.834000       15.9994           0   0.00000       0.00000    
     58797 TIP3     11294    TIP3     H1       HT       0.417000       1.00800           0   0.00000       0.00000    
     58798 TIP3     11294    TIP3     H2       HT       0.417000       1.00800           0   0.00000     -0.301140E-02
     58799 TIP3     11295    TIP3     OH2      OT      -0.834000       15.9994           0   0.00000       0.00000    
     58800 TIP3     11295    TIP3     H1       HT       0.417000       1.00800           0   0.00000       0.00000    
     58801 TIP3     11295    TIP3     H2       HT       0.417000       1.00800           0   0.00000     -0.301140E-02
     58802 TIP3     11296    TIP3     OH2      OT      -0.834000       15.9994           0   0.00000       0.00000    
     58803 TIP3     11296    TIP3     H1       HT       0.417000       1.00800           0   0.00000       0.00000    
     58804 TIP3     11296    TIP3     H2       HT       0.417000       1.00800           0   0.00000     -0.301140E-02
     58805 TIP3     11297    TIP3     OH2      OT      -0.834000       15.9994           0   0.00000       0.00000    
     58806 TIP3     11297    TIP3     H1       HT       0.417000       1.00800           0   0.00000       0.00000    
     58807 TIP3     11297    TIP3     H2       HT       0.417000       1.00800           0   0.00000     -0.301140E-02
     58808 TIP3     11298    TIP3     OH2      OT      -0.834000       15.9994           0   0.00000       0.00000    
     58809 TIP3     11298    TIP3     H1       HT       0.417000       1.00800           0   0.00000       0.00000    
     58810 TIP3     11298    TIP3     H2       HT       0.417000       1.00800           0   0.00000     -0.301140E-02
     58811 TIP3     11299    TIP3     OH2      OT      -0.834000       15.9994           0   0.00000       0.00000    
     58812 TIP3     11299    TIP3     H1       HT       0.417000       1.00800           0   0.00000       0.00000    
     58813 TIP3     11299    TIP3     H2       HT       0.417000       1.00800           0   0.00000     -0.301140E-02
     58814 TIP3     11300    TIP3     OH2      OT      -0.834000       15.9994           0   0.00000       0.00000    
     58815 TIP3     11300    TIP3     H1       HT       0.417000       1.00800           0   0.00000       0.00000    
     58816 TIP3     11300    TIP3     H2       HT       0.417000       1.00800           0   0.00000     -0.301140E-02
     58817 TIP3     11301    TIP3     OH2      OT      -0.834000       15.9994           0   0.00000       0.00000    
     58818 TIP3     11301    TIP3     H1       HT       0.417000       1.00800           0   0.00000       0.00000    
     58819 TIP3     11301    TIP3     H2       HT       0.417000       1.00800           0   0.00000     -0.301140E-02
     58820 TIP3     11302    TIP3     OH2      OT      -0.834000       15.9994           0   0.00000       0.00000    
     58821 TIP3     11302    TIP3     H1       HT       0.417000       1.00800           0   0.00000       0.00000    
     58822 TIP3     11302    TIP3     H2       HT       0.417000       1.00800           0   0.00000     -0.301140E-02
     58823 TIP3     11303    TIP3     OH2      OT      -0.834000       15.9994           0   0.00000       0.00000    
     58824 TIP3     11303    TIP3     H1       HT       0.417000       1.00800           0   0.00000       0.00000    
     58825 TIP3     11303    TIP3     H2       HT       0.417000       1.00800           0   0.00000     -0.301140E-02
     58826 TIP3     11304    TIP3     OH2      OT      -0.834000       15.9994           0   0.00000       0.00000    
     58827 TIP3     11304    TIP3     H1       HT       0.417000       1.00800           0   0.00000       0.00000    
     58828 TIP3     11304    TIP3     H2       HT       0.417000       1.00800           0   0.00000     -0.301140E-02
     58829 TIP3     11305    TIP3     OH2      OT      -0.834000       15.9994           0   0.00000       0.00000    
     58830 TIP3     11305    TIP3     H1       HT       0.417000       1.00800           0   0.00000       0.00000    
     58831 TIP3     11305    TIP3     H2       HT       0.417000       1.00800           0   0.00000     -0.301140E-02
     58832 TIP3     11306    TIP3     OH2      OT      -0.834000       15.9994           0   0.00000       0.00000    
     58833 TIP3     11306    TIP3     H1       HT       0.417000       1.00800           0   0.00000       0.00000    
     58834 TIP3     11306    TIP3     H2       HT       0.417000       1.00800           0   0.00000     -0.301140E-02
     58835 TIP3     11307    TIP3     OH2      OT      -0.834000       15.9994           0   0.00000       0.00000    
     58836 TIP3     11307    TIP3     H1       HT       0.417000       1.00800           0   0.00000       0.00000    
     58837 TIP3     11307    TIP3     H2       HT       0.417000       1.00800           0   0.00000     -0.301140E-02
     58838 TIP3     11308    TIP3     OH2      OT      -0.834000       15.9994           0   0.00000       0.00000    
     58839 TIP3     11308    TIP3     H1       HT       0.417000       1.00800           0   0.00000       0.00000    
     58840 TIP3     11308    TIP3     H2       HT       0.417000       1.00800           0   0.00000     -0.301140E-02
     58841 TIP3     11309    TIP3     OH2      OT      -0.834000       15.9994           0   0.00000       0.00000    
     58842 TIP3     11309    TIP3     H1       HT       0.417000       1.00800           0   0.00000       0.00000    
     58843 TIP3     11309    TIP3     H2       HT       0.417000       1.00800           0   0.00000     -0.301140E-02
     58844 TIP3     11310    TIP3     OH2      OT      -0.834000       15.9994           0   0.00000       0.00000    
     58845 TIP3     11310    TIP3     H1       HT       0.417000       1.00800           0   0.00000       0.00000    
     58846 TIP3     11310    TIP3     H2       HT       0.417000       1.00800           0   0.00000     -0.301140E-02
     58847 TIP3     11311    TIP3     OH2      OT      -0.834000       15.9994           0   0.00000       0.00000    
     58848 TIP3     11311    TIP3     H1       HT       0.417000       1.00800           0   0.00000       0.00000    
     58849 TIP3     11311    TIP3     H2       HT       0.417000       1.00800           0   0.00000     -0.301140E-02
     58850 TIP3     11312    TIP3     OH2      OT      -0.834000       15.9994           0   0.00000       0.00000    
     58851 TIP3     11312    TIP3     H1       HT       0.417000       1.00800           0   0.00000       0.00000    
     58852 TIP3     11312    TIP3     H2       HT       0.417000       1.00800           0   0.00000     -0.301140E-02
     58853 TIP3     11313    TIP3     OH2      OT      -0.834000       15.9994           0   0.00000       0.00000    
     58854 TIP3     11313    TIP3     H1       HT       0.417000       1.00800           0   0.00000       0.00000    
     58855 TIP3     11313    TIP3     H2       HT       0.417000       1.00800           0   0.00000     -0.301140E-02
     58856 TIP3     11314    TIP3     OH2      OT      -0.834000       15.9994           0   0.00000       0.00000    
     58857 TIP3     11314    TIP3     H1       HT       0.417000       1.00800           0   0.00000       0.00000    
     58858 TIP3     11314    TIP3     H2       HT       0.417000       1.00800           0   0.00000     -0.301140E-02
     58859 TIP3     11315    TIP3     OH2      OT      -0.834000       15.9994           0   0.00000       0.00000    
     58860 TIP3     11315    TIP3     H1       HT       0.417000       1.00800           0   0.00000       0.00000    
     58861 TIP3     11315    TIP3     H2       HT       0.417000       1.00800           0   0.00000     -0.301140E-02
     58862 TIP3     11316    TIP3     OH2      OT      -0.834000       15.9994           0   0.00000       0.00000    
     58863 TIP3     11316    TIP3     H1       HT       0.417000       1.00800           0   0.00000       0.00000    
     58864 TIP3     11316    TIP3     H2       HT       0.417000       1.00800           0   0.00000     -0.301140E-02
     58865 TIP3     11317    TIP3     OH2      OT      -0.834000       15.9994           0   0.00000       0.00000    
     58866 TIP3     11317    TIP3     H1       HT       0.417000       1.00800           0   0.00000       0.00000    
     58867 TIP3     11317    TIP3     H2       HT       0.417000       1.00800           0   0.00000     -0.301140E-02
     58868 TIP3     11318    TIP3     OH2      OT      -0.834000       15.9994           0   0.00000       0.00000    
     58869 TIP3     11318    TIP3     H1       HT       0.417000       1.00800           0   0.00000       0.00000    
     58870 TIP3     11318    TIP3     H2       HT       0.417000       1.00800           0   0.00000     -0.301140E-02
     58871 TIP3     11319    TIP3     OH2      OT      -0.834000       15.9994           0   0.00000       0.00000    
     58872 TIP3     11319    TIP3     H1       HT       0.417000       1.00800           0   0.00000       0.00000    
     58873 TIP3     11319    TIP3     H2       HT       0.417000       1.00800           0   0.00000     -0.301140E-02
     58874 TIP3     11320    TIP3     OH2      OT      -0.834000       15.9994           0   0.00000       0.00000    
     58875 TIP3     11320    TIP3     H1       HT       0.417000       1.00800           0   0.00000       0.00000    
     58876 TIP3     11320    TIP3     H2       HT       0.417000       1.00800           0   0.00000     -0.301140E-02
     58877 TIP3     11321    TIP3     OH2      OT      -0.834000       15.9994           0   0.00000       0.00000    
     58878 TIP3     11321    TIP3     H1       HT       0.417000       1.00800           0   0.00000       0.00000    
     58879 TIP3     11321    TIP3     H2       HT       0.417000       1.00800           0   0.00000     -0.301140E-02
     58880 TIP3     11322    TIP3     OH2      OT      -0.834000       15.9994           0   0.00000       0.00000    
     58881 TIP3     11322    TIP3     H1       HT       0.417000       1.00800           0   0.00000       0.00000    
     58882 TIP3     11322    TIP3     H2       HT       0.417000       1.00800           0   0.00000     -0.301140E-02
     58883 TIP3     11323    TIP3     OH2      OT      -0.834000       15.9994           0   0.00000       0.00000    
     58884 TIP3     11323    TIP3     H1       HT       0.417000       1.00800           0   0.00000       0.00000    
     58885 TIP3     11323    TIP3     H2       HT       0.417000       1.00800           0   0.00000     -0.301140E-02
     58886 TIP3     11324    TIP3     OH2      OT      -0.834000       15.9994           0   0.00000       0.00000    
     58887 TIP3     11324    TIP3     H1       HT       0.417000       1.00800           0   0.00000       0.00000    
     58888 TIP3     11324    TIP3     H2       HT       0.417000       1.00800           0   0.00000     -0.301140E-02
     58889 TIP3     11325    TIP3     OH2      OT      -0.834000       15.9994           0   0.00000       0.00000    
     58890 TIP3     11325    TIP3     H1       HT       0.417000       1.00800           0   0.00000       0.00000    
     58891 TIP3     11325    TIP3     H2       HT       0.417000       1.00800           0   0.00000     -0.301140E-02
     58892 TIP3     11326    TIP3     OH2      OT      -0.834000       15.9994           0   0.00000       0.00000    
     58893 TIP3     11326    TIP3     H1       HT       0.417000       1.00800           0   0.00000       0.00000    
     58894 TIP3     11326    TIP3     H2       HT       0.417000       1.00800           0   0.00000     -0.301140E-02
     58895 TIP3     11327    TIP3     OH2      OT      -0.834000       15.9994           0   0.00000       0.00000    
     58896 TIP3     11327    TIP3     H1       HT       0.417000       1.00800           0   0.00000       0.00000    
     58897 TIP3     11327    TIP3     H2       HT       0.417000       1.00800           0   0.00000     -0.301140E-02
     58898 TIP3     11328    TIP3     OH2      OT      -0.834000       15.9994           0   0.00000       0.00000    
     58899 TIP3     11328    TIP3     H1       HT       0.417000       1.00800           0   0.00000       0.00000    
     58900 TIP3     11328    TIP3     H2       HT       0.417000       1.00800           0   0.00000     -0.301140E-02
     58901 TIP3     11329    TIP3     OH2      OT      -0.834000       15.9994           0   0.00000       0.00000    
     58902 TIP3     11329    TIP3     H1       HT       0.417000       1.00800           0   0.00000       0.00000    
     58903 TIP3     11329    TIP3     H2       HT       0.417000       1.00800           0   0.00000     -0.301140E-02
     58904 TIP3     11330    TIP3     OH2      OT      -0.834000       15.9994           0   0.00000       0.00000    
     58905 TIP3     11330    TIP3     H1       HT       0.417000       1.00800           0   0.00000       0.00000    
     58906 TIP3     11330    TIP3     H2       HT       0.417000       1.00800           0   0.00000     -0.301140E-02
     58907 TIP3     11331    TIP3     OH2      OT      -0.834000       15.9994           0   0.00000       0.00000    
     58908 TIP3     11331    TIP3     H1       HT       0.417000       1.00800           0   0.00000       0.00000    
     58909 TIP3     11331    TIP3     H2       HT       0.417000       1.00800           0   0.00000     -0.301140E-02
     58910 TIP3     11332    TIP3     OH2      OT      -0.834000       15.9994           0   0.00000       0.00000    
     58911 TIP3     11332    TIP3     H1       HT       0.417000       1.00800           0   0.00000       0.00000    
     58912 TIP3     11332    TIP3     H2       HT       0.417000       1.00800           0   0.00000     -0.301140E-02
     58913 TIP3     11333    TIP3     OH2      OT      -0.834000       15.9994           0   0.00000       0.00000    
     58914 TIP3     11333    TIP3     H1       HT       0.417000       1.00800           0   0.00000       0.00000    
     58915 TIP3     11333    TIP3     H2       HT       0.417000       1.00800           0   0.00000     -0.301140E-02
     58916 TIP3     11334    TIP3     OH2      OT      -0.834000       15.9994           0   0.00000       0.00000    
     58917 TIP3     11334    TIP3     H1       HT       0.417000       1.00800           0   0.00000       0.00000    
     58918 TIP3     11334    TIP3     H2       HT       0.417000       1.00800           0   0.00000     -0.301140E-02
     58919 TIP3     11335    TIP3     OH2      OT      -0.834000       15.9994           0   0.00000       0.00000    
     58920 TIP3     11335    TIP3     H1       HT       0.417000       1.00800           0   0.00000       0.00000    
     58921 TIP3     11335    TIP3     H2       HT       0.417000       1.00800           0   0.00000     -0.301140E-02
     58922 TIP3     11336    TIP3     OH2      OT      -0.834000       15.9994           0   0.00000       0.00000    
     58923 TIP3     11336    TIP3     H1       HT       0.417000       1.00800           0   0.00000       0.00000    
     58924 TIP3     11336    TIP3     H2       HT       0.417000       1.00800           0   0.00000     -0.301140E-02
     58925 TIP3     11337    TIP3     OH2      OT      -0.834000       15.9994           0   0.00000       0.00000    
     58926 TIP3     11337    TIP3     H1       HT       0.417000       1.00800           0   0.00000       0.00000    
     58927 TIP3     11337    TIP3     H2       HT       0.417000       1.00800           0   0.00000     -0.301140E-02
     58928 TIP3     11338    TIP3     OH2      OT      -0.834000       15.9994           0   0.00000       0.00000    
     58929 TIP3     11338    TIP3     H1       HT       0.417000       1.00800           0   0.00000       0.00000    
     58930 TIP3     11338    TIP3     H2       HT       0.417000       1.00800           0   0.00000     -0.301140E-02
     58931 TIP3     11339    TIP3     OH2      OT      -0.834000       15.9994           0   0.00000       0.00000    
     58932 TIP3     11339    TIP3     H1       HT       0.417000       1.00800           0   0.00000       0.00000    
     58933 TIP3     11339    TIP3     H2       HT       0.417000       1.00800           0   0.00000     -0.301140E-02
     58934 TIP3     11340    TIP3     OH2      OT      -0.834000       15.9994           0   0.00000       0.00000    
     58935 TIP3     11340    TIP3     H1       HT       0.417000       1.00800           0   0.00000       0.00000    
     58936 TIP3     11340    TIP3     H2       HT       0.417000       1.00800           0   0.00000     -0.301140E-02
     58937 TIP3     11341    TIP3     OH2      OT      -0.834000       15.9994           0   0.00000       0.00000    
     58938 TIP3     11341    TIP3     H1       HT       0.417000       1.00800           0   0.00000       0.00000    
     58939 TIP3     11341    TIP3     H2       HT       0.417000       1.00800           0   0.00000     -0.301140E-02
     58940 TIP3     11342    TIP3     OH2      OT      -0.834000       15.9994           0   0.00000       0.00000    
     58941 TIP3     11342    TIP3     H1       HT       0.417000       1.00800           0   0.00000       0.00000    
     58942 TIP3     11342    TIP3     H2       HT       0.417000       1.00800           0   0.00000     -0.301140E-02
     58943 TIP3     11343    TIP3     OH2      OT      -0.834000       15.9994           0   0.00000       0.00000    
     58944 TIP3     11343    TIP3     H1       HT       0.417000       1.00800           0   0.00000       0.00000    
     58945 TIP3     11343    TIP3     H2       HT       0.417000       1.00800           0   0.00000     -0.301140E-02
     58946 TIP3     11344    TIP3     OH2      OT      -0.834000       15.9994           0   0.00000       0.00000    
     58947 TIP3     11344    TIP3     H1       HT       0.417000       1.00800           0   0.00000       0.00000    
     58948 TIP3     11344    TIP3     H2       HT       0.417000       1.00800           0   0.00000     -0.301140E-02
     58949 TIP3     11345    TIP3     OH2      OT      -0.834000       15.9994           0   0.00000       0.00000    
     58950 TIP3     11345    TIP3     H1       HT       0.417000       1.00800           0   0.00000       0.00000    
     58951 TIP3     11345    TIP3     H2       HT       0.417000       1.00800           0   0.00000     -0.301140E-02
     58952 TIP3     11346    TIP3     OH2      OT      -0.834000       15.9994           0   0.00000       0.00000    
     58953 TIP3     11346    TIP3     H1       HT       0.417000       1.00800           0   0.00000       0.00000    
     58954 TIP3     11346    TIP3     H2       HT       0.417000       1.00800           0   0.00000     -0.301140E-02
     58955 TIP3     11347    TIP3     OH2      OT      -0.834000       15.9994           0   0.00000       0.00000    
     58956 TIP3     11347    TIP3     H1       HT       0.417000       1.00800           0   0.00000       0.00000    
     58957 TIP3     11347    TIP3     H2       HT       0.417000       1.00800           0   0.00000     -0.301140E-02
     58958 TIP3     11348    TIP3     OH2      OT      -0.834000       15.9994           0   0.00000       0.00000    
     58959 TIP3     11348    TIP3     H1       HT       0.417000       1.00800           0   0.00000       0.00000    
     58960 TIP3     11348    TIP3     H2       HT       0.417000       1.00800           0   0.00000     -0.301140E-02
     58961 TIP3     11349    TIP3     OH2      OT      -0.834000       15.9994           0   0.00000       0.00000    
     58962 TIP3     11349    TIP3     H1       HT       0.417000       1.00800           0   0.00000       0.00000    
     58963 TIP3     11349    TIP3     H2       HT       0.417000       1.00800           0   0.00000     -0.301140E-02
     58964 TIP3     11350    TIP3     OH2      OT      -0.834000       15.9994           0   0.00000       0.00000    
     58965 TIP3     11350    TIP3     H1       HT       0.417000       1.00800           0   0.00000       0.00000    
     58966 TIP3     11350    TIP3     H2       HT       0.417000       1.00800           0   0.00000     -0.301140E-02
     58967 TIP3     11351    TIP3     OH2      OT      -0.834000       15.9994           0   0.00000       0.00000    
     58968 TIP3     11351    TIP3     H1       HT       0.417000       1.00800           0   0.00000       0.00000    
     58969 TIP3     11351    TIP3     H2       HT       0.417000       1.00800           0   0.00000     -0.301140E-02
     58970 TIP3     11352    TIP3     OH2      OT      -0.834000       15.9994           0   0.00000       0.00000    
     58971 TIP3     11352    TIP3     H1       HT       0.417000       1.00800           0   0.00000       0.00000    
     58972 TIP3     11352    TIP3     H2       HT       0.417000       1.00800           0   0.00000     -0.301140E-02
     58973 TIP3     11353    TIP3     OH2      OT      -0.834000       15.9994           0   0.00000       0.00000    
     58974 TIP3     11353    TIP3     H1       HT       0.417000       1.00800           0   0.00000       0.00000    
     58975 TIP3     11353    TIP3     H2       HT       0.417000       1.00800           0   0.00000     -0.301140E-02
     58976 TIP3     11354    TIP3     OH2      OT      -0.834000       15.9994           0   0.00000       0.00000    
     58977 TIP3     11354    TIP3     H1       HT       0.417000       1.00800           0   0.00000       0.00000    
     58978 TIP3     11354    TIP3     H2       HT       0.417000       1.00800           0   0.00000     -0.301140E-02
     58979 TIP3     11355    TIP3     OH2      OT      -0.834000       15.9994           0   0.00000       0.00000    
     58980 TIP3     11355    TIP3     H1       HT       0.417000       1.00800           0   0.00000       0.00000    
     58981 TIP3     11355    TIP3     H2       HT       0.417000       1.00800           0   0.00000     -0.301140E-02
     58982 TIP3     11356    TIP3     OH2      OT      -0.834000       15.9994           0   0.00000       0.00000    
     58983 TIP3     11356    TIP3     H1       HT       0.417000       1.00800           0   0.00000       0.00000    
     58984 TIP3     11356    TIP3     H2       HT       0.417000       1.00800           0   0.00000     -0.301140E-02
     58985 TIP3     11357    TIP3     OH2      OT      -0.834000       15.9994           0   0.00000       0.00000    
     58986 TIP3     11357    TIP3     H1       HT       0.417000       1.00800           0   0.00000       0.00000    
     58987 TIP3     11357    TIP3     H2       HT       0.417000       1.00800           0   0.00000     -0.301140E-02
     58988 TIP3     11358    TIP3     OH2      OT      -0.834000       15.9994           0   0.00000       0.00000    
     58989 TIP3     11358    TIP3     H1       HT       0.417000       1.00800           0   0.00000       0.00000    
     58990 TIP3     11358    TIP3     H2       HT       0.417000       1.00800           0   0.00000     -0.301140E-02
     58991 TIP3     11359    TIP3     OH2      OT      -0.834000       15.9994           0   0.00000       0.00000    
     58992 TIP3     11359    TIP3     H1       HT       0.417000       1.00800           0   0.00000       0.00000    
     58993 TIP3     11359    TIP3     H2       HT       0.417000       1.00800           0   0.00000     -0.301140E-02
     58994 TIP3     11360    TIP3     OH2      OT      -0.834000       15.9994           0   0.00000       0.00000    
     58995 TIP3     11360    TIP3     H1       HT       0.417000       1.00800           0   0.00000       0.00000    
     58996 TIP3     11360    TIP3     H2       HT       0.417000       1.00800           0   0.00000     -0.301140E-02
     58997 TIP3     11361    TIP3     OH2      OT      -0.834000       15.9994           0   0.00000       0.00000    
     58998 TIP3     11361    TIP3     H1       HT       0.417000       1.00800           0   0.00000       0.00000    
     58999 TIP3     11361    TIP3     H2       HT       0.417000       1.00800           0   0.00000     -0.301140E-02
     59000 TIP3     11362    TIP3     OH2      OT      -0.834000       15.9994           0   0.00000       0.00000    
     59001 TIP3     11362    TIP3     H1       HT       0.417000       1.00800           0   0.00000       0.00000    
     59002 TIP3     11362    TIP3     H2       HT       0.417000       1.00800           0   0.00000     -0.301140E-02
     59003 TIP3     11363    TIP3     OH2      OT      -0.834000       15.9994           0   0.00000       0.00000    
     59004 TIP3     11363    TIP3     H1       HT       0.417000       1.00800           0   0.00000       0.00000    
     59005 TIP3     11363    TIP3     H2       HT       0.417000       1.00800           0   0.00000     -0.301140E-02
     59006 TIP3     11364    TIP3     OH2      OT      -0.834000       15.9994           0   0.00000       0.00000    
     59007 TIP3     11364    TIP3     H1       HT       0.417000       1.00800           0   0.00000       0.00000    
     59008 TIP3     11364    TIP3     H2       HT       0.417000       1.00800           0   0.00000     -0.301140E-02
     59009 TIP3     11365    TIP3     OH2      OT      -0.834000       15.9994           0   0.00000       0.00000    
     59010 TIP3     11365    TIP3     H1       HT       0.417000       1.00800           0   0.00000       0.00000    
     59011 TIP3     11365    TIP3     H2       HT       0.417000       1.00800           0   0.00000     -0.301140E-02
     59012 TIP3     11366    TIP3     OH2      OT      -0.834000       15.9994           0   0.00000       0.00000    
     59013 TIP3     11366    TIP3     H1       HT       0.417000       1.00800           0   0.00000       0.00000    
     59014 TIP3     11366    TIP3     H2       HT       0.417000       1.00800           0   0.00000     -0.301140E-02
     59015 TIP3     11367    TIP3     OH2      OT      -0.834000       15.9994           0   0.00000       0.00000    
     59016 TIP3     11367    TIP3     H1       HT       0.417000       1.00800           0   0.00000       0.00000    
     59017 TIP3     11367    TIP3     H2       HT       0.417000       1.00800           0   0.00000     -0.301140E-02
     59018 TIP3     11368    TIP3     OH2      OT      -0.834000       15.9994           0   0.00000       0.00000    
     59019 TIP3     11368    TIP3     H1       HT       0.417000       1.00800           0   0.00000       0.00000    
     59020 TIP3     11368    TIP3     H2       HT       0.417000       1.00800           0   0.00000     -0.301140E-02
     59021 TIP3     11369    TIP3     OH2      OT      -0.834000       15.9994           0   0.00000       0.00000    
     59022 TIP3     11369    TIP3     H1       HT       0.417000       1.00800           0   0.00000       0.00000    
     59023 TIP3     11369    TIP3     H2       HT       0.417000       1.00800           0   0.00000     -0.301140E-02
     59024 TIP3     11370    TIP3     OH2      OT      -0.834000       15.9994           0   0.00000       0.00000    
     59025 TIP3     11370    TIP3     H1       HT       0.417000       1.00800           0   0.00000       0.00000    
     59026 TIP3     11370    TIP3     H2       HT       0.417000       1.00800           0   0.00000     -0.301140E-02
     59027 TIP3     11371    TIP3     OH2      OT      -0.834000       15.9994           0   0.00000       0.00000    
     59028 TIP3     11371    TIP3     H1       HT       0.417000       1.00800           0   0.00000       0.00000    
     59029 TIP3     11371    TIP3     H2       HT       0.417000       1.00800           0   0.00000     -0.301140E-02
     59030 TIP3     11372    TIP3     OH2      OT      -0.834000       15.9994           0   0.00000       0.00000    
     59031 TIP3     11372    TIP3     H1       HT       0.417000       1.00800           0   0.00000       0.00000    
     59032 TIP3     11372    TIP3     H2       HT       0.417000       1.00800           0   0.00000     -0.301140E-02
     59033 TIP3     11373    TIP3     OH2      OT      -0.834000       15.9994           0   0.00000       0.00000    
     59034 TIP3     11373    TIP3     H1       HT       0.417000       1.00800           0   0.00000       0.00000    
     59035 TIP3     11373    TIP3     H2       HT       0.417000       1.00800           0   0.00000     -0.301140E-02
     59036 TIP3     11374    TIP3     OH2      OT      -0.834000       15.9994           0   0.00000       0.00000    
     59037 TIP3     11374    TIP3     H1       HT       0.417000       1.00800           0   0.00000       0.00000    
     59038 TIP3     11374    TIP3     H2       HT       0.417000       1.00800           0   0.00000     -0.301140E-02
     59039 TIP3     11375    TIP3     OH2      OT      -0.834000       15.9994           0   0.00000       0.00000    
     59040 TIP3     11375    TIP3     H1       HT       0.417000       1.00800           0   0.00000       0.00000    
     59041 TIP3     11375    TIP3     H2       HT       0.417000       1.00800           0   0.00000     -0.301140E-02
     59042 TIP3     11376    TIP3     OH2      OT      -0.834000       15.9994           0   0.00000       0.00000    
     59043 TIP3     11376    TIP3     H1       HT       0.417000       1.00800           0   0.00000       0.00000    
     59044 TIP3     11376    TIP3     H2       HT       0.417000       1.00800           0   0.00000     -0.301140E-02
     59045 TIP3     11377    TIP3     OH2      OT      -0.834000       15.9994           0   0.00000       0.00000    
     59046 TIP3     11377    TIP3     H1       HT       0.417000       1.00800           0   0.00000       0.00000    
     59047 TIP3     11377    TIP3     H2       HT       0.417000       1.00800           0   0.00000     -0.301140E-02
     59048 TIP3     11378    TIP3     OH2      OT      -0.834000       15.9994           0   0.00000       0.00000    
     59049 TIP3     11378    TIP3     H1       HT       0.417000       1.00800           0   0.00000       0.00000    
     59050 TIP3     11378    TIP3     H2       HT       0.417000       1.00800           0   0.00000     -0.301140E-02
     59051 TIP3     11379    TIP3     OH2      OT      -0.834000       15.9994           0   0.00000       0.00000    
     59052 TIP3     11379    TIP3     H1       HT       0.417000       1.00800           0   0.00000       0.00000    
     59053 TIP3     11379    TIP3     H2       HT       0.417000       1.00800           0   0.00000     -0.301140E-02
     59054 TIP3     11380    TIP3     OH2      OT      -0.834000       15.9994           0   0.00000       0.00000    
     59055 TIP3     11380    TIP3     H1       HT       0.417000       1.00800           0   0.00000       0.00000    
     59056 TIP3     11380    TIP3     H2       HT       0.417000       1.00800           0   0.00000     -0.301140E-02
     59057 TIP3     11381    TIP3     OH2      OT      -0.834000       15.9994           0   0.00000       0.00000    
     59058 TIP3     11381    TIP3     H1       HT       0.417000       1.00800           0   0.00000       0.00000    
     59059 TIP3     11381    TIP3     H2       HT       0.417000       1.00800           0   0.00000     -0.301140E-02
     59060 TIP3     11382    TIP3     OH2      OT      -0.834000       15.9994           0   0.00000       0.00000    
     59061 TIP3     11382    TIP3     H1       HT       0.417000       1.00800           0   0.00000       0.00000    
     59062 TIP3     11382    TIP3     H2       HT       0.417000       1.00800           0   0.00000     -0.301140E-02
     59063 TIP3     11383    TIP3     OH2      OT      -0.834000       15.9994           0   0.00000       0.00000    
     59064 TIP3     11383    TIP3     H1       HT       0.417000       1.00800           0   0.00000       0.00000    
     59065 TIP3     11383    TIP3     H2       HT       0.417000       1.00800           0   0.00000     -0.301140E-02
     59066 TIP3     11384    TIP3     OH2      OT      -0.834000       15.9994           0   0.00000       0.00000    
     59067 TIP3     11384    TIP3     H1       HT       0.417000       1.00800           0   0.00000       0.00000    
     59068 TIP3     11384    TIP3     H2       HT       0.417000       1.00800           0   0.00000     -0.301140E-02
     59069 TIP3     11385    TIP3     OH2      OT      -0.834000       15.9994           0   0.00000       0.00000    
     59070 TIP3     11385    TIP3     H1       HT       0.417000       1.00800           0   0.00000       0.00000    
     59071 TIP3     11385    TIP3     H2       HT       0.417000       1.00800           0   0.00000     -0.301140E-02
     59072 TIP3     11386    TIP3     OH2      OT      -0.834000       15.9994           0   0.00000       0.00000    
     59073 TIP3     11386    TIP3     H1       HT       0.417000       1.00800           0   0.00000       0.00000    
     59074 TIP3     11386    TIP3     H2       HT       0.417000       1.00800           0   0.00000     -0.301140E-02
     59075 TIP3     11387    TIP3     OH2      OT      -0.834000       15.9994           0   0.00000       0.00000    
     59076 TIP3     11387    TIP3     H1       HT       0.417000       1.00800           0   0.00000       0.00000    
     59077 TIP3     11387    TIP3     H2       HT       0.417000       1.00800           0   0.00000     -0.301140E-02
     59078 TIP3     11388    TIP3     OH2      OT      -0.834000       15.9994           0   0.00000       0.00000    
     59079 TIP3     11388    TIP3     H1       HT       0.417000       1.00800           0   0.00000       0.00000    
     59080 TIP3     11388    TIP3     H2       HT       0.417000       1.00800           0   0.00000     -0.301140E-02
     59081 TIP3     11389    TIP3     OH2      OT      -0.834000       15.9994           0   0.00000       0.00000    
     59082 TIP3     11389    TIP3     H1       HT       0.417000       1.00800           0   0.00000       0.00000    
     59083 TIP3     11389    TIP3     H2       HT       0.417000       1.00800           0   0.00000     -0.301140E-02
     59084 TIP3     11390    TIP3     OH2      OT      -0.834000       15.9994           0   0.00000       0.00000    
     59085 TIP3     11390    TIP3     H1       HT       0.417000       1.00800           0   0.00000       0.00000    
     59086 TIP3     11390    TIP3     H2       HT       0.417000       1.00800           0   0.00000     -0.301140E-02
     59087 TIP3     11391    TIP3     OH2      OT      -0.834000       15.9994           0   0.00000       0.00000    
     59088 TIP3     11391    TIP3     H1       HT       0.417000       1.00800           0   0.00000       0.00000    
     59089 TIP3     11391    TIP3     H2       HT       0.417000       1.00800           0   0.00000     -0.301140E-02
     59090 TIP3     11392    TIP3     OH2      OT      -0.834000       15.9994           0   0.00000       0.00000    
     59091 TIP3     11392    TIP3     H1       HT       0.417000       1.00800           0   0.00000       0.00000    
     59092 TIP3     11392    TIP3     H2       HT       0.417000       1.00800           0   0.00000     -0.301140E-02
     59093 TIP3     11393    TIP3     OH2      OT      -0.834000       15.9994           0   0.00000       0.00000    
     59094 TIP3     11393    TIP3     H1       HT       0.417000       1.00800           0   0.00000       0.00000    
     59095 TIP3     11393    TIP3     H2       HT       0.417000       1.00800           0   0.00000     -0.301140E-02
     59096 TIP3     11394    TIP3     OH2      OT      -0.834000       15.9994           0   0.00000       0.00000    
     59097 TIP3     11394    TIP3     H1       HT       0.417000       1.00800           0   0.00000       0.00000    
     59098 TIP3     11394    TIP3     H2       HT       0.417000       1.00800           0   0.00000     -0.301140E-02
     59099 TIP3     11395    TIP3     OH2      OT      -0.834000       15.9994           0   0.00000       0.00000    
     59100 TIP3     11395    TIP3     H1       HT       0.417000       1.00800           0   0.00000       0.00000    
     59101 TIP3     11395    TIP3     H2       HT       0.417000       1.00800           0   0.00000     -0.301140E-02
     59102 TIP3     11396    TIP3     OH2      OT      -0.834000       15.9994           0   0.00000       0.00000    
     59103 TIP3     11396    TIP3     H1       HT       0.417000       1.00800           0   0.00000       0.00000    
     59104 TIP3     11396    TIP3     H2       HT       0.417000       1.00800           0   0.00000     -0.301140E-02
     59105 TIP3     11397    TIP3     OH2      OT      -0.834000       15.9994           0   0.00000       0.00000    
     59106 TIP3     11397    TIP3     H1       HT       0.417000       1.00800           0   0.00000       0.00000    
     59107 TIP3     11397    TIP3     H2       HT       0.417000       1.00800           0   0.00000     -0.301140E-02
     59108 TIP3     11398    TIP3     OH2      OT      -0.834000       15.9994           0   0.00000       0.00000    
     59109 TIP3     11398    TIP3     H1       HT       0.417000       1.00800           0   0.00000       0.00000    
     59110 TIP3     11398    TIP3     H2       HT       0.417000       1.00800           0   0.00000     -0.301140E-02
     59111 TIP3     11399    TIP3     OH2      OT      -0.834000       15.9994           0   0.00000       0.00000    
     59112 TIP3     11399    TIP3     H1       HT       0.417000       1.00800           0   0.00000       0.00000    
     59113 TIP3     11399    TIP3     H2       HT       0.417000       1.00800           0   0.00000     -0.301140E-02
     59114 TIP3     11400    TIP3     OH2      OT      -0.834000       15.9994           0   0.00000       0.00000    
     59115 TIP3     11400    TIP3     H1       HT       0.417000       1.00800           0   0.00000       0.00000    
     59116 TIP3     11400    TIP3     H2       HT       0.417000       1.00800           0   0.00000     -0.301140E-02
     59117 TIP3     11401    TIP3     OH2      OT      -0.834000       15.9994           0   0.00000       0.00000    
     59118 TIP3     11401    TIP3     H1       HT       0.417000       1.00800           0   0.00000       0.00000    
     59119 TIP3     11401    TIP3     H2       HT       0.417000       1.00800           0   0.00000     -0.301140E-02
     59120 TIP3     11402    TIP3     OH2      OT      -0.834000       15.9994           0   0.00000       0.00000    
     59121 TIP3     11402    TIP3     H1       HT       0.417000       1.00800           0   0.00000       0.00000    
     59122 TIP3     11402    TIP3     H2       HT       0.417000       1.00800           0   0.00000     -0.301140E-02
     59123 TIP3     11403    TIP3     OH2      OT      -0.834000       15.9994           0   0.00000       0.00000    
     59124 TIP3     11403    TIP3     H1       HT       0.417000       1.00800           0   0.00000       0.00000    
     59125 TIP3     11403    TIP3     H2       HT       0.417000       1.00800           0   0.00000     -0.301140E-02
     59126 TIP3     11404    TIP3     OH2      OT      -0.834000       15.9994           0   0.00000       0.00000    
     59127 TIP3     11404    TIP3     H1       HT       0.417000       1.00800           0   0.00000       0.00000    
     59128 TIP3     11404    TIP3     H2       HT       0.417000       1.00800           0   0.00000     -0.301140E-02
     59129 TIP3     11405    TIP3     OH2      OT      -0.834000       15.9994           0   0.00000       0.00000    
     59130 TIP3     11405    TIP3     H1       HT       0.417000       1.00800           0   0.00000       0.00000    
     59131 TIP3     11405    TIP3     H2       HT       0.417000       1.00800           0   0.00000     -0.301140E-02
     59132 TIP3     11406    TIP3     OH2      OT      -0.834000       15.9994           0   0.00000       0.00000    
     59133 TIP3     11406    TIP3     H1       HT       0.417000       1.00800           0   0.00000       0.00000    
     59134 TIP3     11406    TIP3     H2       HT       0.417000       1.00800           0   0.00000     -0.301140E-02
     59135 TIP3     11407    TIP3     OH2      OT      -0.834000       15.9994           0   0.00000       0.00000    
     59136 TIP3     11407    TIP3     H1       HT       0.417000       1.00800           0   0.00000       0.00000    
     59137 TIP3     11407    TIP3     H2       HT       0.417000       1.00800           0   0.00000     -0.301140E-02
     59138 TIP3     11408    TIP3     OH2      OT      -0.834000       15.9994           0   0.00000       0.00000    
     59139 TIP3     11408    TIP3     H1       HT       0.417000       1.00800           0   0.00000       0.00000    
     59140 TIP3     11408    TIP3     H2       HT       0.417000       1.00800           0   0.00000     -0.301140E-02
     59141 TIP3     11409    TIP3     OH2      OT      -0.834000       15.9994           0   0.00000       0.00000    
     59142 TIP3     11409    TIP3     H1       HT       0.417000       1.00800           0   0.00000       0.00000    
     59143 TIP3     11409    TIP3     H2       HT       0.417000       1.00800           0   0.00000     -0.301140E-02
     59144 TIP3     11410    TIP3     OH2      OT      -0.834000       15.9994           0   0.00000       0.00000    
     59145 TIP3     11410    TIP3     H1       HT       0.417000       1.00800           0   0.00000       0.00000    
     59146 TIP3     11410    TIP3     H2       HT       0.417000       1.00800           0   0.00000     -0.301140E-02
     59147 TIP3     11411    TIP3     OH2      OT      -0.834000       15.9994           0   0.00000       0.00000    
     59148 TIP3     11411    TIP3     H1       HT       0.417000       1.00800           0   0.00000       0.00000    
     59149 TIP3     11411    TIP3     H2       HT       0.417000       1.00800           0   0.00000     -0.301140E-02
     59150 TIP3     11412    TIP3     OH2      OT      -0.834000       15.9994           0   0.00000       0.00000    
     59151 TIP3     11412    TIP3     H1       HT       0.417000       1.00800           0   0.00000       0.00000    
     59152 TIP3     11412    TIP3     H2       HT       0.417000       1.00800           0   0.00000     -0.301140E-02
     59153 TIP3     11413    TIP3     OH2      OT      -0.834000       15.9994           0   0.00000       0.00000    
     59154 TIP3     11413    TIP3     H1       HT       0.417000       1.00800           0   0.00000       0.00000    
     59155 TIP3     11413    TIP3     H2       HT       0.417000       1.00800           0   0.00000     -0.301140E-02
     59156 TIP3     11414    TIP3     OH2      OT      -0.834000       15.9994           0   0.00000       0.00000    
     59157 TIP3     11414    TIP3     H1       HT       0.417000       1.00800           0   0.00000       0.00000    
     59158 TIP3     11414    TIP3     H2       HT       0.417000       1.00800           0   0.00000     -0.301140E-02
     59159 TIP3     11415    TIP3     OH2      OT      -0.834000       15.9994           0   0.00000       0.00000    
     59160 TIP3     11415    TIP3     H1       HT       0.417000       1.00800           0   0.00000       0.00000    
     59161 TIP3     11415    TIP3     H2       HT       0.417000       1.00800           0   0.00000     -0.301140E-02
     59162 TIP3     11416    TIP3     OH2      OT      -0.834000       15.9994           0   0.00000       0.00000    
     59163 TIP3     11416    TIP3     H1       HT       0.417000       1.00800           0   0.00000       0.00000    
     59164 TIP3     11416    TIP3     H2       HT       0.417000       1.00800           0   0.00000     -0.301140E-02
     59165 TIP3     11417    TIP3     OH2      OT      -0.834000       15.9994           0   0.00000       0.00000    
     59166 TIP3     11417    TIP3     H1       HT       0.417000       1.00800           0   0.00000       0.00000    
     59167 TIP3     11417    TIP3     H2       HT       0.417000       1.00800           0   0.00000     -0.301140E-02
     59168 TIP3     11418    TIP3     OH2      OT      -0.834000       15.9994           0   0.00000       0.00000    
     59169 TIP3     11418    TIP3     H1       HT       0.417000       1.00800           0   0.00000       0.00000    
     59170 TIP3     11418    TIP3     H2       HT       0.417000       1.00800           0   0.00000     -0.301140E-02
     59171 TIP3     11419    TIP3     OH2      OT      -0.834000       15.9994           0   0.00000       0.00000    
     59172 TIP3     11419    TIP3     H1       HT       0.417000       1.00800           0   0.00000       0.00000    
     59173 TIP3     11419    TIP3     H2       HT       0.417000       1.00800           0   0.00000     -0.301140E-02
     59174 TIP3     11420    TIP3     OH2      OT      -0.834000       15.9994           0   0.00000       0.00000    
     59175 TIP3     11420    TIP3     H1       HT       0.417000       1.00800           0   0.00000       0.00000    
     59176 TIP3     11420    TIP3     H2       HT       0.417000       1.00800           0   0.00000     -0.301140E-02
     59177 TIP3     11421    TIP3     OH2      OT      -0.834000       15.9994           0   0.00000       0.00000    
     59178 TIP3     11421    TIP3     H1       HT       0.417000       1.00800           0   0.00000       0.00000    
     59179 TIP3     11421    TIP3     H2       HT       0.417000       1.00800           0   0.00000     -0.301140E-02
     59180 TIP3     11422    TIP3     OH2      OT      -0.834000       15.9994           0   0.00000       0.00000    
     59181 TIP3     11422    TIP3     H1       HT       0.417000       1.00800           0   0.00000       0.00000    
     59182 TIP3     11422    TIP3     H2       HT       0.417000       1.00800           0   0.00000     -0.301140E-02
     59183 TIP3     11423    TIP3     OH2      OT      -0.834000       15.9994           0   0.00000       0.00000    
     59184 TIP3     11423    TIP3     H1       HT       0.417000       1.00800           0   0.00000       0.00000    
     59185 TIP3     11423    TIP3     H2       HT       0.417000       1.00800           0   0.00000     -0.301140E-02
     59186 TIP3     11424    TIP3     OH2      OT      -0.834000       15.9994           0   0.00000       0.00000    
     59187 TIP3     11424    TIP3     H1       HT       0.417000       1.00800           0   0.00000       0.00000    
     59188 TIP3     11424    TIP3     H2       HT       0.417000       1.00800           0   0.00000     -0.301140E-02
     59189 TIP3     11425    TIP3     OH2      OT      -0.834000       15.9994           0   0.00000       0.00000    
     59190 TIP3     11425    TIP3     H1       HT       0.417000       1.00800           0   0.00000       0.00000    
     59191 TIP3     11425    TIP3     H2       HT       0.417000       1.00800           0   0.00000     -0.301140E-02
     59192 TIP3     11426    TIP3     OH2      OT      -0.834000       15.9994           0   0.00000       0.00000    
     59193 TIP3     11426    TIP3     H1       HT       0.417000       1.00800           0   0.00000       0.00000    
     59194 TIP3     11426    TIP3     H2       HT       0.417000       1.00800           0   0.00000     -0.301140E-02
     59195 TIP3     11427    TIP3     OH2      OT      -0.834000       15.9994           0   0.00000       0.00000    
     59196 TIP3     11427    TIP3     H1       HT       0.417000       1.00800           0   0.00000       0.00000    
     59197 TIP3     11427    TIP3     H2       HT       0.417000       1.00800           0   0.00000     -0.301140E-02
     59198 TIP3     11428    TIP3     OH2      OT      -0.834000       15.9994           0   0.00000       0.00000    
     59199 TIP3     11428    TIP3     H1       HT       0.417000       1.00800           0   0.00000       0.00000    
     59200 TIP3     11428    TIP3     H2       HT       0.417000       1.00800           0   0.00000     -0.301140E-02
     59201 TIP3     11429    TIP3     OH2      OT      -0.834000       15.9994           0   0.00000       0.00000    
     59202 TIP3     11429    TIP3     H1       HT       0.417000       1.00800           0   0.00000       0.00000    
     59203 TIP3     11429    TIP3     H2       HT       0.417000       1.00800           0   0.00000     -0.301140E-02
     59204 TIP3     11430    TIP3     OH2      OT      -0.834000       15.9994           0   0.00000       0.00000    
     59205 TIP3     11430    TIP3     H1       HT       0.417000       1.00800           0   0.00000       0.00000    
     59206 TIP3     11430    TIP3     H2       HT       0.417000       1.00800           0   0.00000     -0.301140E-02
     59207 TIP3     11431    TIP3     OH2      OT      -0.834000       15.9994           0   0.00000       0.00000    
     59208 TIP3     11431    TIP3     H1       HT       0.417000       1.00800           0   0.00000       0.00000    
     59209 TIP3     11431    TIP3     H2       HT       0.417000       1.00800           0   0.00000     -0.301140E-02
     59210 TIP3     11432    TIP3     OH2      OT      -0.834000       15.9994           0   0.00000       0.00000    
     59211 TIP3     11432    TIP3     H1       HT       0.417000       1.00800           0   0.00000       0.00000    
     59212 TIP3     11432    TIP3     H2       HT       0.417000       1.00800           0   0.00000     -0.301140E-02
     59213 TIP3     11433    TIP3     OH2      OT      -0.834000       15.9994           0   0.00000       0.00000    
     59214 TIP3     11433    TIP3     H1       HT       0.417000       1.00800           0   0.00000       0.00000    
     59215 TIP3     11433    TIP3     H2       HT       0.417000       1.00800           0   0.00000     -0.301140E-02
     59216 TIP3     11434    TIP3     OH2      OT      -0.834000       15.9994           0   0.00000       0.00000    
     59217 TIP3     11434    TIP3     H1       HT       0.417000       1.00800           0   0.00000       0.00000    
     59218 TIP3     11434    TIP3     H2       HT       0.417000       1.00800           0   0.00000     -0.301140E-02
     59219 TIP3     11435    TIP3     OH2      OT      -0.834000       15.9994           0   0.00000       0.00000    
     59220 TIP3     11435    TIP3     H1       HT       0.417000       1.00800           0   0.00000       0.00000    
     59221 TIP3     11435    TIP3     H2       HT       0.417000       1.00800           0   0.00000     -0.301140E-02
     59222 TIP3     11436    TIP3     OH2      OT      -0.834000       15.9994           0   0.00000       0.00000    
     59223 TIP3     11436    TIP3     H1       HT       0.417000       1.00800           0   0.00000       0.00000    
     59224 TIP3     11436    TIP3     H2       HT       0.417000       1.00800           0   0.00000     -0.301140E-02
     59225 TIP3     11437    TIP3     OH2      OT      -0.834000       15.9994           0   0.00000       0.00000    
     59226 TIP3     11437    TIP3     H1       HT       0.417000       1.00800           0   0.00000       0.00000    
     59227 TIP3     11437    TIP3     H2       HT       0.417000       1.00800           0   0.00000     -0.301140E-02
     59228 TIP3     11438    TIP3     OH2      OT      -0.834000       15.9994           0   0.00000       0.00000    
     59229 TIP3     11438    TIP3     H1       HT       0.417000       1.00800           0   0.00000       0.00000    
     59230 TIP3     11438    TIP3     H2       HT       0.417000       1.00800           0   0.00000     -0.301140E-02
     59231 TIP3     11439    TIP3     OH2      OT      -0.834000       15.9994           0   0.00000       0.00000    
     59232 TIP3     11439    TIP3     H1       HT       0.417000       1.00800           0   0.00000       0.00000    
     59233 TIP3     11439    TIP3     H2       HT       0.417000       1.00800           0   0.00000     -0.301140E-02
     59234 TIP3     11440    TIP3     OH2      OT      -0.834000       15.9994           0   0.00000       0.00000    
     59235 TIP3     11440    TIP3     H1       HT       0.417000       1.00800           0   0.00000       0.00000    
     59236 TIP3     11440    TIP3     H2       HT       0.417000       1.00800           0   0.00000     -0.301140E-02
     59237 TIP3     11441    TIP3     OH2      OT      -0.834000       15.9994           0   0.00000       0.00000    
     59238 TIP3     11441    TIP3     H1       HT       0.417000       1.00800           0   0.00000       0.00000    
     59239 TIP3     11441    TIP3     H2       HT       0.417000       1.00800           0   0.00000     -0.301140E-02
     59240 TIP3     11442    TIP3     OH2      OT      -0.834000       15.9994           0   0.00000       0.00000    
     59241 TIP3     11442    TIP3     H1       HT       0.417000       1.00800           0   0.00000       0.00000    
     59242 TIP3     11442    TIP3     H2       HT       0.417000       1.00800           0   0.00000     -0.301140E-02
     59243 TIP3     11443    TIP3     OH2      OT      -0.834000       15.9994           0   0.00000       0.00000    
     59244 TIP3     11443    TIP3     H1       HT       0.417000       1.00800           0   0.00000       0.00000    
     59245 TIP3     11443    TIP3     H2       HT       0.417000       1.00800           0   0.00000     -0.301140E-02
     59246 TIP3     11444    TIP3     OH2      OT      -0.834000       15.9994           0   0.00000       0.00000    
     59247 TIP3     11444    TIP3     H1       HT       0.417000       1.00800           0   0.00000       0.00000    
     59248 TIP3     11444    TIP3     H2       HT       0.417000       1.00800           0   0.00000     -0.301140E-02
     59249 TIP3     11445    TIP3     OH2      OT      -0.834000       15.9994           0   0.00000       0.00000    
     59250 TIP3     11445    TIP3     H1       HT       0.417000       1.00800           0   0.00000       0.00000    
     59251 TIP3     11445    TIP3     H2       HT       0.417000       1.00800           0   0.00000     -0.301140E-02
     59252 TIP3     11446    TIP3     OH2      OT      -0.834000       15.9994           0   0.00000       0.00000    
     59253 TIP3     11446    TIP3     H1       HT       0.417000       1.00800           0   0.00000       0.00000    
     59254 TIP3     11446    TIP3     H2       HT       0.417000       1.00800           0   0.00000     -0.301140E-02
     59255 TIP3     11447    TIP3     OH2      OT      -0.834000       15.9994           0   0.00000       0.00000    
     59256 TIP3     11447    TIP3     H1       HT       0.417000       1.00800           0   0.00000       0.00000    
     59257 TIP3     11447    TIP3     H2       HT       0.417000       1.00800           0   0.00000     -0.301140E-02
     59258 TIP3     11448    TIP3     OH2      OT      -0.834000       15.9994           0   0.00000       0.00000    
     59259 TIP3     11448    TIP3     H1       HT       0.417000       1.00800           0   0.00000       0.00000    
     59260 TIP3     11448    TIP3     H2       HT       0.417000       1.00800           0   0.00000     -0.301140E-02
     59261 TIP3     11449    TIP3     OH2      OT      -0.834000       15.9994           0   0.00000       0.00000    
     59262 TIP3     11449    TIP3     H1       HT       0.417000       1.00800           0   0.00000       0.00000    
     59263 TIP3     11449    TIP3     H2       HT       0.417000       1.00800           0   0.00000     -0.301140E-02
     59264 TIP3     11450    TIP3     OH2      OT      -0.834000       15.9994           0   0.00000       0.00000    
     59265 TIP3     11450    TIP3     H1       HT       0.417000       1.00800           0   0.00000       0.00000    
     59266 TIP3     11450    TIP3     H2       HT       0.417000       1.00800           0   0.00000     -0.301140E-02
     59267 TIP3     11451    TIP3     OH2      OT      -0.834000       15.9994           0   0.00000       0.00000    
     59268 TIP3     11451    TIP3     H1       HT       0.417000       1.00800           0   0.00000       0.00000    
     59269 TIP3     11451    TIP3     H2       HT       0.417000       1.00800           0   0.00000     -0.301140E-02
     59270 TIP3     11452    TIP3     OH2      OT      -0.834000       15.9994           0   0.00000       0.00000    
     59271 TIP3     11452    TIP3     H1       HT       0.417000       1.00800           0   0.00000       0.00000    
     59272 TIP3     11452    TIP3     H2       HT       0.417000       1.00800           0   0.00000     -0.301140E-02
     59273 TIP3     11453    TIP3     OH2      OT      -0.834000       15.9994           0   0.00000       0.00000    
     59274 TIP3     11453    TIP3     H1       HT       0.417000       1.00800           0   0.00000       0.00000    
     59275 TIP3     11453    TIP3     H2       HT       0.417000       1.00800           0   0.00000     -0.301140E-02
     59276 TIP3     11454    TIP3     OH2      OT      -0.834000       15.9994           0   0.00000       0.00000    
     59277 TIP3     11454    TIP3     H1       HT       0.417000       1.00800           0   0.00000       0.00000    
     59278 TIP3     11454    TIP3     H2       HT       0.417000       1.00800           0   0.00000     -0.301140E-02
     59279 TIP3     11455    TIP3     OH2      OT      -0.834000       15.9994           0   0.00000       0.00000    
     59280 TIP3     11455    TIP3     H1       HT       0.417000       1.00800           0   0.00000       0.00000    
     59281 TIP3     11455    TIP3     H2       HT       0.417000       1.00800           0   0.00000     -0.301140E-02
     59282 TIP3     11456    TIP3     OH2      OT      -0.834000       15.9994           0   0.00000       0.00000    
     59283 TIP3     11456    TIP3     H1       HT       0.417000       1.00800           0   0.00000       0.00000    
     59284 TIP3     11456    TIP3     H2       HT       0.417000       1.00800           0   0.00000     -0.301140E-02
     59285 TIP3     11457    TIP3     OH2      OT      -0.834000       15.9994           0   0.00000       0.00000    
     59286 TIP3     11457    TIP3     H1       HT       0.417000       1.00800           0   0.00000       0.00000    
     59287 TIP3     11457    TIP3     H2       HT       0.417000       1.00800           0   0.00000     -0.301140E-02
     59288 TIP3     11458    TIP3     OH2      OT      -0.834000       15.9994           0   0.00000       0.00000    
     59289 TIP3     11458    TIP3     H1       HT       0.417000       1.00800           0   0.00000       0.00000    
     59290 TIP3     11458    TIP3     H2       HT       0.417000       1.00800           0   0.00000     -0.301140E-02
     59291 TIP3     11459    TIP3     OH2      OT      -0.834000       15.9994           0   0.00000       0.00000    
     59292 TIP3     11459    TIP3     H1       HT       0.417000       1.00800           0   0.00000       0.00000    
     59293 TIP3     11459    TIP3     H2       HT       0.417000       1.00800           0   0.00000     -0.301140E-02
     59294 TIP3     11460    TIP3     OH2      OT      -0.834000       15.9994           0   0.00000       0.00000    
     59295 TIP3     11460    TIP3     H1       HT       0.417000       1.00800           0   0.00000       0.00000    
     59296 TIP3     11460    TIP3     H2       HT       0.417000       1.00800           0   0.00000     -0.301140E-02
     59297 TIP3     11461    TIP3     OH2      OT      -0.834000       15.9994           0   0.00000       0.00000    
     59298 TIP3     11461    TIP3     H1       HT       0.417000       1.00800           0   0.00000       0.00000    
     59299 TIP3     11461    TIP3     H2       HT       0.417000       1.00800           0   0.00000     -0.301140E-02
     59300 TIP3     11462    TIP3     OH2      OT      -0.834000       15.9994           0   0.00000       0.00000    
     59301 TIP3     11462    TIP3     H1       HT       0.417000       1.00800           0   0.00000       0.00000    
     59302 TIP3     11462    TIP3     H2       HT       0.417000       1.00800           0   0.00000     -0.301140E-02
     59303 TIP3     11463    TIP3     OH2      OT      -0.834000       15.9994           0   0.00000       0.00000    
     59304 TIP3     11463    TIP3     H1       HT       0.417000       1.00800           0   0.00000       0.00000    
     59305 TIP3     11463    TIP3     H2       HT       0.417000       1.00800           0   0.00000     -0.301140E-02
     59306 TIP3     11464    TIP3     OH2      OT      -0.834000       15.9994           0   0.00000       0.00000    
     59307 TIP3     11464    TIP3     H1       HT       0.417000       1.00800           0   0.00000       0.00000    
     59308 TIP3     11464    TIP3     H2       HT       0.417000       1.00800           0   0.00000     -0.301140E-02
     59309 TIP3     11465    TIP3     OH2      OT      -0.834000       15.9994           0   0.00000       0.00000    
     59310 TIP3     11465    TIP3     H1       HT       0.417000       1.00800           0   0.00000       0.00000    
     59311 TIP3     11465    TIP3     H2       HT       0.417000       1.00800           0   0.00000     -0.301140E-02
     59312 TIP3     11466    TIP3     OH2      OT      -0.834000       15.9994           0   0.00000       0.00000    
     59313 TIP3     11466    TIP3     H1       HT       0.417000       1.00800           0   0.00000       0.00000    
     59314 TIP3     11466    TIP3     H2       HT       0.417000       1.00800           0   0.00000     -0.301140E-02
     59315 TIP3     11467    TIP3     OH2      OT      -0.834000       15.9994           0   0.00000       0.00000    
     59316 TIP3     11467    TIP3     H1       HT       0.417000       1.00800           0   0.00000       0.00000    
     59317 TIP3     11467    TIP3     H2       HT       0.417000       1.00800           0   0.00000     -0.301140E-02
     59318 TIP3     11468    TIP3     OH2      OT      -0.834000       15.9994           0   0.00000       0.00000    
     59319 TIP3     11468    TIP3     H1       HT       0.417000       1.00800           0   0.00000       0.00000    
     59320 TIP3     11468    TIP3     H2       HT       0.417000       1.00800           0   0.00000     -0.301140E-02
     59321 TIP3     11469    TIP3     OH2      OT      -0.834000       15.9994           0   0.00000       0.00000    
     59322 TIP3     11469    TIP3     H1       HT       0.417000       1.00800           0   0.00000       0.00000    
     59323 TIP3     11469    TIP3     H2       HT       0.417000       1.00800           0   0.00000     -0.301140E-02
     59324 TIP3     11470    TIP3     OH2      OT      -0.834000       15.9994           0   0.00000       0.00000    
     59325 TIP3     11470    TIP3     H1       HT       0.417000       1.00800           0   0.00000       0.00000    
     59326 TIP3     11470    TIP3     H2       HT       0.417000       1.00800           0   0.00000     -0.301140E-02
     59327 TIP3     11471    TIP3     OH2      OT      -0.834000       15.9994           0   0.00000       0.00000    
     59328 TIP3     11471    TIP3     H1       HT       0.417000       1.00800           0   0.00000       0.00000    
     59329 TIP3     11471    TIP3     H2       HT       0.417000       1.00800           0   0.00000     -0.301140E-02
     59330 TIP3     11472    TIP3     OH2      OT      -0.834000       15.9994           0   0.00000       0.00000    
     59331 TIP3     11472    TIP3     H1       HT       0.417000       1.00800           0   0.00000       0.00000    
     59332 TIP3     11472    TIP3     H2       HT       0.417000       1.00800           0   0.00000     -0.301140E-02
     59333 TIP3     11473    TIP3     OH2      OT      -0.834000       15.9994           0   0.00000       0.00000    
     59334 TIP3     11473    TIP3     H1       HT       0.417000       1.00800           0   0.00000       0.00000    
     59335 TIP3     11473    TIP3     H2       HT       0.417000       1.00800           0   0.00000     -0.301140E-02
     59336 TIP3     11474    TIP3     OH2      OT      -0.834000       15.9994           0   0.00000       0.00000    
     59337 TIP3     11474    TIP3     H1       HT       0.417000       1.00800           0   0.00000       0.00000    
     59338 TIP3     11474    TIP3     H2       HT       0.417000       1.00800           0   0.00000     -0.301140E-02
     59339 TIP3     11475    TIP3     OH2      OT      -0.834000       15.9994           0   0.00000       0.00000    
     59340 TIP3     11475    TIP3     H1       HT       0.417000       1.00800           0   0.00000       0.00000    
     59341 TIP3     11475    TIP3     H2       HT       0.417000       1.00800           0   0.00000     -0.301140E-02
     59342 TIP3     11476    TIP3     OH2      OT      -0.834000       15.9994           0   0.00000       0.00000    
     59343 TIP3     11476    TIP3     H1       HT       0.417000       1.00800           0   0.00000       0.00000    
     59344 TIP3     11476    TIP3     H2       HT       0.417000       1.00800           0   0.00000     -0.301140E-02
     59345 TIP3     11477    TIP3     OH2      OT      -0.834000       15.9994           0   0.00000       0.00000    
     59346 TIP3     11477    TIP3     H1       HT       0.417000       1.00800           0   0.00000       0.00000    
     59347 TIP3     11477    TIP3     H2       HT       0.417000       1.00800           0   0.00000     -0.301140E-02
     59348 TIP3     11478    TIP3     OH2      OT      -0.834000       15.9994           0   0.00000       0.00000    
     59349 TIP3     11478    TIP3     H1       HT       0.417000       1.00800           0   0.00000       0.00000    
     59350 TIP3     11478    TIP3     H2       HT       0.417000       1.00800           0   0.00000     -0.301140E-02
     59351 TIP3     11479    TIP3     OH2      OT      -0.834000       15.9994           0   0.00000       0.00000    
     59352 TIP3     11479    TIP3     H1       HT       0.417000       1.00800           0   0.00000       0.00000    
     59353 TIP3     11479    TIP3     H2       HT       0.417000       1.00800           0   0.00000     -0.301140E-02
     59354 TIP3     11480    TIP3     OH2      OT      -0.834000       15.9994           0   0.00000       0.00000    
     59355 TIP3     11480    TIP3     H1       HT       0.417000       1.00800           0   0.00000       0.00000    
     59356 TIP3     11480    TIP3     H2       HT       0.417000       1.00800           0   0.00000     -0.301140E-02
     59357 TIP3     11481    TIP3     OH2      OT      -0.834000       15.9994           0   0.00000       0.00000    
     59358 TIP3     11481    TIP3     H1       HT       0.417000       1.00800           0   0.00000       0.00000    
     59359 TIP3     11481    TIP3     H2       HT       0.417000       1.00800           0   0.00000     -0.301140E-02
     59360 TIP3     11482    TIP3     OH2      OT      -0.834000       15.9994           0   0.00000       0.00000    
     59361 TIP3     11482    TIP3     H1       HT       0.417000       1.00800           0   0.00000       0.00000    
     59362 TIP3     11482    TIP3     H2       HT       0.417000       1.00800           0   0.00000     -0.301140E-02
     59363 TIP3     11483    TIP3     OH2      OT      -0.834000       15.9994           0   0.00000       0.00000    
     59364 TIP3     11483    TIP3     H1       HT       0.417000       1.00800           0   0.00000       0.00000    
     59365 TIP3     11483    TIP3     H2       HT       0.417000       1.00800           0   0.00000     -0.301140E-02
     59366 TIP3     11484    TIP3     OH2      OT      -0.834000       15.9994           0   0.00000       0.00000    
     59367 TIP3     11484    TIP3     H1       HT       0.417000       1.00800           0   0.00000       0.00000    
     59368 TIP3     11484    TIP3     H2       HT       0.417000       1.00800           0   0.00000     -0.301140E-02
     59369 TIP3     11485    TIP3     OH2      OT      -0.834000       15.9994           0   0.00000       0.00000    
     59370 TIP3     11485    TIP3     H1       HT       0.417000       1.00800           0   0.00000       0.00000    
     59371 TIP3     11485    TIP3     H2       HT       0.417000       1.00800           0   0.00000     -0.301140E-02
     59372 TIP3     11486    TIP3     OH2      OT      -0.834000       15.9994           0   0.00000       0.00000    
     59373 TIP3     11486    TIP3     H1       HT       0.417000       1.00800           0   0.00000       0.00000    
     59374 TIP3     11486    TIP3     H2       HT       0.417000       1.00800           0   0.00000     -0.301140E-02
     59375 TIP3     11487    TIP3     OH2      OT      -0.834000       15.9994           0   0.00000       0.00000    
     59376 TIP3     11487    TIP3     H1       HT       0.417000       1.00800           0   0.00000       0.00000    
     59377 TIP3     11487    TIP3     H2       HT       0.417000       1.00800           0   0.00000     -0.301140E-02
     59378 TIP3     11488    TIP3     OH2      OT      -0.834000       15.9994           0   0.00000       0.00000    
     59379 TIP3     11488    TIP3     H1       HT       0.417000       1.00800           0   0.00000       0.00000    
     59380 TIP3     11488    TIP3     H2       HT       0.417000       1.00800           0   0.00000     -0.301140E-02
     59381 TIP3     11489    TIP3     OH2      OT      -0.834000       15.9994           0   0.00000       0.00000    
     59382 TIP3     11489    TIP3     H1       HT       0.417000       1.00800           0   0.00000       0.00000    
     59383 TIP3     11489    TIP3     H2       HT       0.417000       1.00800           0   0.00000     -0.301140E-02
     59384 TIP3     11490    TIP3     OH2      OT      -0.834000       15.9994           0   0.00000       0.00000    
     59385 TIP3     11490    TIP3     H1       HT       0.417000       1.00800           0   0.00000       0.00000    
     59386 TIP3     11490    TIP3     H2       HT       0.417000       1.00800           0   0.00000     -0.301140E-02
     59387 TIP3     11491    TIP3     OH2      OT      -0.834000       15.9994           0   0.00000       0.00000    
     59388 TIP3     11491    TIP3     H1       HT       0.417000       1.00800           0   0.00000       0.00000    
     59389 TIP3     11491    TIP3     H2       HT       0.417000       1.00800           0   0.00000     -0.301140E-02
     59390 TIP3     11492    TIP3     OH2      OT      -0.834000       15.9994           0   0.00000       0.00000    
     59391 TIP3     11492    TIP3     H1       HT       0.417000       1.00800           0   0.00000       0.00000    
     59392 TIP3     11492    TIP3     H2       HT       0.417000       1.00800           0   0.00000     -0.301140E-02
     59393 TIP3     11493    TIP3     OH2      OT      -0.834000       15.9994           0   0.00000       0.00000    
     59394 TIP3     11493    TIP3     H1       HT       0.417000       1.00800           0   0.00000       0.00000    
     59395 TIP3     11493    TIP3     H2       HT       0.417000       1.00800           0   0.00000     -0.301140E-02
     59396 TIP3     11494    TIP3     OH2      OT      -0.834000       15.9994           0   0.00000       0.00000    
     59397 TIP3     11494    TIP3     H1       HT       0.417000       1.00800           0   0.00000       0.00000    
     59398 TIP3     11494    TIP3     H2       HT       0.417000       1.00800           0   0.00000     -0.301140E-02
     59399 TIP3     11495    TIP3     OH2      OT      -0.834000       15.9994           0   0.00000       0.00000    
     59400 TIP3     11495    TIP3     H1       HT       0.417000       1.00800           0   0.00000       0.00000    
     59401 TIP3     11495    TIP3     H2       HT       0.417000       1.00800           0   0.00000     -0.301140E-02
     59402 TIP3     11496    TIP3     OH2      OT      -0.834000       15.9994           0   0.00000       0.00000    
     59403 TIP3     11496    TIP3     H1       HT       0.417000       1.00800           0   0.00000       0.00000    
     59404 TIP3     11496    TIP3     H2       HT       0.417000       1.00800           0   0.00000     -0.301140E-02
     59405 TIP3     11497    TIP3     OH2      OT      -0.834000       15.9994           0   0.00000       0.00000    
     59406 TIP3     11497    TIP3     H1       HT       0.417000       1.00800           0   0.00000       0.00000    
     59407 TIP3     11497    TIP3     H2       HT       0.417000       1.00800           0   0.00000     -0.301140E-02
     59408 TIP3     11498    TIP3     OH2      OT      -0.834000       15.9994           0   0.00000       0.00000    
     59409 TIP3     11498    TIP3     H1       HT       0.417000       1.00800           0   0.00000       0.00000    
     59410 TIP3     11498    TIP3     H2       HT       0.417000       1.00800           0   0.00000     -0.301140E-02
     59411 TIP3     11499    TIP3     OH2      OT      -0.834000       15.9994           0   0.00000       0.00000    
     59412 TIP3     11499    TIP3     H1       HT       0.417000       1.00800           0   0.00000       0.00000    
     59413 TIP3     11499    TIP3     H2       HT       0.417000       1.00800           0   0.00000     -0.301140E-02
     59414 TIP3     11500    TIP3     OH2      OT      -0.834000       15.9994           0   0.00000       0.00000    
     59415 TIP3     11500    TIP3     H1       HT       0.417000       1.00800           0   0.00000       0.00000    
     59416 TIP3     11500    TIP3     H2       HT       0.417000       1.00800           0   0.00000     -0.301140E-02
     59417 TIP3     11501    TIP3     OH2      OT      -0.834000       15.9994           0   0.00000       0.00000    
     59418 TIP3     11501    TIP3     H1       HT       0.417000       1.00800           0   0.00000       0.00000    
     59419 TIP3     11501    TIP3     H2       HT       0.417000       1.00800           0   0.00000     -0.301140E-02
     59420 TIP3     11502    TIP3     OH2      OT      -0.834000       15.9994           0   0.00000       0.00000    
     59421 TIP3     11502    TIP3     H1       HT       0.417000       1.00800           0   0.00000       0.00000    
     59422 TIP3     11502    TIP3     H2       HT       0.417000       1.00800           0   0.00000     -0.301140E-02
     59423 TIP3     11503    TIP3     OH2      OT      -0.834000       15.9994           0   0.00000       0.00000    
     59424 TIP3     11503    TIP3     H1       HT       0.417000       1.00800           0   0.00000       0.00000    
     59425 TIP3     11503    TIP3     H2       HT       0.417000       1.00800           0   0.00000     -0.301140E-02
     59426 TIP3     11504    TIP3     OH2      OT      -0.834000       15.9994           0   0.00000       0.00000    
     59427 TIP3     11504    TIP3     H1       HT       0.417000       1.00800           0   0.00000       0.00000    
     59428 TIP3     11504    TIP3     H2       HT       0.417000       1.00800           0   0.00000     -0.301140E-02
     59429 TIP3     11505    TIP3     OH2      OT      -0.834000       15.9994           0   0.00000       0.00000    
     59430 TIP3     11505    TIP3     H1       HT       0.417000       1.00800           0   0.00000       0.00000    
     59431 TIP3     11505    TIP3     H2       HT       0.417000       1.00800           0   0.00000     -0.301140E-02
     59432 TIP3     11506    TIP3     OH2      OT      -0.834000       15.9994           0   0.00000       0.00000    
     59433 TIP3     11506    TIP3     H1       HT       0.417000       1.00800           0   0.00000       0.00000    
     59434 TIP3     11506    TIP3     H2       HT       0.417000       1.00800           0   0.00000     -0.301140E-02
     59435 TIP3     11507    TIP3     OH2      OT      -0.834000       15.9994           0   0.00000       0.00000    
     59436 TIP3     11507    TIP3     H1       HT       0.417000       1.00800           0   0.00000       0.00000    
     59437 TIP3     11507    TIP3     H2       HT       0.417000       1.00800           0   0.00000     -0.301140E-02
     59438 TIP3     11508    TIP3     OH2      OT      -0.834000       15.9994           0   0.00000       0.00000    
     59439 TIP3     11508    TIP3     H1       HT       0.417000       1.00800           0   0.00000       0.00000    
     59440 TIP3     11508    TIP3     H2       HT       0.417000       1.00800           0   0.00000     -0.301140E-02
     59441 TIP3     11509    TIP3     OH2      OT      -0.834000       15.9994           0   0.00000       0.00000    
     59442 TIP3     11509    TIP3     H1       HT       0.417000       1.00800           0   0.00000       0.00000    
     59443 TIP3     11509    TIP3     H2       HT       0.417000       1.00800           0   0.00000     -0.301140E-02
     59444 TIP3     11510    TIP3     OH2      OT      -0.834000       15.9994           0   0.00000       0.00000    
     59445 TIP3     11510    TIP3     H1       HT       0.417000       1.00800           0   0.00000       0.00000    
     59446 TIP3     11510    TIP3     H2       HT       0.417000       1.00800           0   0.00000     -0.301140E-02
     59447 TIP3     11511    TIP3     OH2      OT      -0.834000       15.9994           0   0.00000       0.00000    
     59448 TIP3     11511    TIP3     H1       HT       0.417000       1.00800           0   0.00000       0.00000    
     59449 TIP3     11511    TIP3     H2       HT       0.417000       1.00800           0   0.00000     -0.301140E-02
     59450 TIP3     11512    TIP3     OH2      OT      -0.834000       15.9994           0   0.00000       0.00000    
     59451 TIP3     11512    TIP3     H1       HT       0.417000       1.00800           0   0.00000       0.00000    
     59452 TIP3     11512    TIP3     H2       HT       0.417000       1.00800           0   0.00000     -0.301140E-02
     59453 TIP3     11513    TIP3     OH2      OT      -0.834000       15.9994           0   0.00000       0.00000    
     59454 TIP3     11513    TIP3     H1       HT       0.417000       1.00800           0   0.00000       0.00000    
     59455 TIP3     11513    TIP3     H2       HT       0.417000       1.00800           0   0.00000     -0.301140E-02
     59456 TIP3     11514    TIP3     OH2      OT      -0.834000       15.9994           0   0.00000       0.00000    
     59457 TIP3     11514    TIP3     H1       HT       0.417000       1.00800           0   0.00000       0.00000    
     59458 TIP3     11514    TIP3     H2       HT       0.417000       1.00800           0   0.00000     -0.301140E-02
     59459 TIP3     11515    TIP3     OH2      OT      -0.834000       15.9994           0   0.00000       0.00000    
     59460 TIP3     11515    TIP3     H1       HT       0.417000       1.00800           0   0.00000       0.00000    
     59461 TIP3     11515    TIP3     H2       HT       0.417000       1.00800           0   0.00000     -0.301140E-02
     59462 TIP3     11516    TIP3     OH2      OT      -0.834000       15.9994           0   0.00000       0.00000    
     59463 TIP3     11516    TIP3     H1       HT       0.417000       1.00800           0   0.00000       0.00000    
     59464 TIP3     11516    TIP3     H2       HT       0.417000       1.00800           0   0.00000     -0.301140E-02
     59465 TIP3     11517    TIP3     OH2      OT      -0.834000       15.9994           0   0.00000       0.00000    
     59466 TIP3     11517    TIP3     H1       HT       0.417000       1.00800           0   0.00000       0.00000    
     59467 TIP3     11517    TIP3     H2       HT       0.417000       1.00800           0   0.00000     -0.301140E-02
     59468 TIP3     11518    TIP3     OH2      OT      -0.834000       15.9994           0   0.00000       0.00000    
     59469 TIP3     11518    TIP3     H1       HT       0.417000       1.00800           0   0.00000       0.00000    
     59470 TIP3     11518    TIP3     H2       HT       0.417000       1.00800           0   0.00000     -0.301140E-02
     59471 TIP3     11519    TIP3     OH2      OT      -0.834000       15.9994           0   0.00000       0.00000    
     59472 TIP3     11519    TIP3     H1       HT       0.417000       1.00800           0   0.00000       0.00000    
     59473 TIP3     11519    TIP3     H2       HT       0.417000       1.00800           0   0.00000     -0.301140E-02
     59474 TIP3     11520    TIP3     OH2      OT      -0.834000       15.9994           0   0.00000       0.00000    
     59475 TIP3     11520    TIP3     H1       HT       0.417000       1.00800           0   0.00000       0.00000    
     59476 TIP3     11520    TIP3     H2       HT       0.417000       1.00800           0   0.00000     -0.301140E-02
     59477 TIP3     11521    TIP3     OH2      OT      -0.834000       15.9994           0   0.00000       0.00000    
     59478 TIP3     11521    TIP3     H1       HT       0.417000       1.00800           0   0.00000       0.00000    
     59479 TIP3     11521    TIP3     H2       HT       0.417000       1.00800           0   0.00000     -0.301140E-02
     59480 TIP3     11522    TIP3     OH2      OT      -0.834000       15.9994           0   0.00000       0.00000    
     59481 TIP3     11522    TIP3     H1       HT       0.417000       1.00800           0   0.00000       0.00000    
     59482 TIP3     11522    TIP3     H2       HT       0.417000       1.00800           0   0.00000     -0.301140E-02
     59483 TIP3     11523    TIP3     OH2      OT      -0.834000       15.9994           0   0.00000       0.00000    
     59484 TIP3     11523    TIP3     H1       HT       0.417000       1.00800           0   0.00000       0.00000    
     59485 TIP3     11523    TIP3     H2       HT       0.417000       1.00800           0   0.00000     -0.301140E-02
     59486 TIP3     11524    TIP3     OH2      OT      -0.834000       15.9994           0   0.00000       0.00000    
     59487 TIP3     11524    TIP3     H1       HT       0.417000       1.00800           0   0.00000       0.00000    
     59488 TIP3     11524    TIP3     H2       HT       0.417000       1.00800           0   0.00000     -0.301140E-02
     59489 TIP3     11525    TIP3     OH2      OT      -0.834000       15.9994           0   0.00000       0.00000    
     59490 TIP3     11525    TIP3     H1       HT       0.417000       1.00800           0   0.00000       0.00000    
     59491 TIP3     11525    TIP3     H2       HT       0.417000       1.00800           0   0.00000     -0.301140E-02
     59492 TIP3     11526    TIP3     OH2      OT      -0.834000       15.9994           0   0.00000       0.00000    
     59493 TIP3     11526    TIP3     H1       HT       0.417000       1.00800           0   0.00000       0.00000    
     59494 TIP3     11526    TIP3     H2       HT       0.417000       1.00800           0   0.00000     -0.301140E-02
     59495 TIP3     11527    TIP3     OH2      OT      -0.834000       15.9994           0   0.00000       0.00000    
     59496 TIP3     11527    TIP3     H1       HT       0.417000       1.00800           0   0.00000       0.00000    
     59497 TIP3     11527    TIP3     H2       HT       0.417000       1.00800           0   0.00000     -0.301140E-02
     59498 TIP3     11528    TIP3     OH2      OT      -0.834000       15.9994           0   0.00000       0.00000    
     59499 TIP3     11528    TIP3     H1       HT       0.417000       1.00800           0   0.00000       0.00000    
     59500 TIP3     11528    TIP3     H2       HT       0.417000       1.00800           0   0.00000     -0.301140E-02
     59501 TIP3     11529    TIP3     OH2      OT      -0.834000       15.9994           0   0.00000       0.00000    
     59502 TIP3     11529    TIP3     H1       HT       0.417000       1.00800           0   0.00000       0.00000    
     59503 TIP3     11529    TIP3     H2       HT       0.417000       1.00800           0   0.00000     -0.301140E-02
     59504 TIP3     11530    TIP3     OH2      OT      -0.834000       15.9994           0   0.00000       0.00000    
     59505 TIP3     11530    TIP3     H1       HT       0.417000       1.00800           0   0.00000       0.00000    
     59506 TIP3     11530    TIP3     H2       HT       0.417000       1.00800           0   0.00000     -0.301140E-02
     59507 TIP3     11531    TIP3     OH2      OT      -0.834000       15.9994           0   0.00000       0.00000    
     59508 TIP3     11531    TIP3     H1       HT       0.417000       1.00800           0   0.00000       0.00000    
     59509 TIP3     11531    TIP3     H2       HT       0.417000       1.00800           0   0.00000     -0.301140E-02
     59510 TIP3     11532    TIP3     OH2      OT      -0.834000       15.9994           0   0.00000       0.00000    
     59511 TIP3     11532    TIP3     H1       HT       0.417000       1.00800           0   0.00000       0.00000    
     59512 TIP3     11532    TIP3     H2       HT       0.417000       1.00800           0   0.00000     -0.301140E-02
     59513 TIP3     11533    TIP3     OH2      OT      -0.834000       15.9994           0   0.00000       0.00000    
     59514 TIP3     11533    TIP3     H1       HT       0.417000       1.00800           0   0.00000       0.00000    
     59515 TIP3     11533    TIP3     H2       HT       0.417000       1.00800           0   0.00000     -0.301140E-02
     59516 TIP3     11534    TIP3     OH2      OT      -0.834000       15.9994           0   0.00000       0.00000    
     59517 TIP3     11534    TIP3     H1       HT       0.417000       1.00800           0   0.00000       0.00000    
     59518 TIP3     11534    TIP3     H2       HT       0.417000       1.00800           0   0.00000     -0.301140E-02
     59519 TIP3     11535    TIP3     OH2      OT      -0.834000       15.9994           0   0.00000       0.00000    
     59520 TIP3     11535    TIP3     H1       HT       0.417000       1.00800           0   0.00000       0.00000    
     59521 TIP3     11535    TIP3     H2       HT       0.417000       1.00800           0   0.00000     -0.301140E-02
     59522 TIP3     11536    TIP3     OH2      OT      -0.834000       15.9994           0   0.00000       0.00000    
     59523 TIP3     11536    TIP3     H1       HT       0.417000       1.00800           0   0.00000       0.00000    
     59524 TIP3     11536    TIP3     H2       HT       0.417000       1.00800           0   0.00000     -0.301140E-02
     59525 TIP3     11537    TIP3     OH2      OT      -0.834000       15.9994           0   0.00000       0.00000    
     59526 TIP3     11537    TIP3     H1       HT       0.417000       1.00800           0   0.00000       0.00000    
     59527 TIP3     11537    TIP3     H2       HT       0.417000       1.00800           0   0.00000     -0.301140E-02
     59528 TIP3     11538    TIP3     OH2      OT      -0.834000       15.9994           0   0.00000       0.00000    
     59529 TIP3     11538    TIP3     H1       HT       0.417000       1.00800           0   0.00000       0.00000    
     59530 TIP3     11538    TIP3     H2       HT       0.417000       1.00800           0   0.00000     -0.301140E-02
     59531 TIP3     11539    TIP3     OH2      OT      -0.834000       15.9994           0   0.00000       0.00000    
     59532 TIP3     11539    TIP3     H1       HT       0.417000       1.00800           0   0.00000       0.00000    
     59533 TIP3     11539    TIP3     H2       HT       0.417000       1.00800           0   0.00000     -0.301140E-02
     59534 TIP3     11540    TIP3     OH2      OT      -0.834000       15.9994           0   0.00000       0.00000    
     59535 TIP3     11540    TIP3     H1       HT       0.417000       1.00800           0   0.00000       0.00000    
     59536 TIP3     11540    TIP3     H2       HT       0.417000       1.00800           0   0.00000     -0.301140E-02
     59537 TIP3     11541    TIP3     OH2      OT      -0.834000       15.9994           0   0.00000       0.00000    
     59538 TIP3     11541    TIP3     H1       HT       0.417000       1.00800           0   0.00000       0.00000    
     59539 TIP3     11541    TIP3     H2       HT       0.417000       1.00800           0   0.00000     -0.301140E-02
     59540 TIP3     11542    TIP3     OH2      OT      -0.834000       15.9994           0   0.00000       0.00000    
     59541 TIP3     11542    TIP3     H1       HT       0.417000       1.00800           0   0.00000       0.00000    
     59542 TIP3     11542    TIP3     H2       HT       0.417000       1.00800           0   0.00000     -0.301140E-02
     59543 TIP3     11543    TIP3     OH2      OT      -0.834000       15.9994           0   0.00000       0.00000    
     59544 TIP3     11543    TIP3     H1       HT       0.417000       1.00800           0   0.00000       0.00000    
     59545 TIP3     11543    TIP3     H2       HT       0.417000       1.00800           0   0.00000     -0.301140E-02
     59546 TIP3     11544    TIP3     OH2      OT      -0.834000       15.9994           0   0.00000       0.00000    
     59547 TIP3     11544    TIP3     H1       HT       0.417000       1.00800           0   0.00000       0.00000    
     59548 TIP3     11544    TIP3     H2       HT       0.417000       1.00800           0   0.00000     -0.301140E-02
     59549 TIP3     11545    TIP3     OH2      OT      -0.834000       15.9994           0   0.00000       0.00000    
     59550 TIP3     11545    TIP3     H1       HT       0.417000       1.00800           0   0.00000       0.00000    
     59551 TIP3     11545    TIP3     H2       HT       0.417000       1.00800           0   0.00000     -0.301140E-02
     59552 TIP3     11546    TIP3     OH2      OT      -0.834000       15.9994           0   0.00000       0.00000    
     59553 TIP3     11546    TIP3     H1       HT       0.417000       1.00800           0   0.00000       0.00000    
     59554 TIP3     11546    TIP3     H2       HT       0.417000       1.00800           0   0.00000     -0.301140E-02
     59555 TIP3     11547    TIP3     OH2      OT      -0.834000       15.9994           0   0.00000       0.00000    
     59556 TIP3     11547    TIP3     H1       HT       0.417000       1.00800           0   0.00000       0.00000    
     59557 TIP3     11547    TIP3     H2       HT       0.417000       1.00800           0   0.00000     -0.301140E-02
     59558 TIP3     11548    TIP3     OH2      OT      -0.834000       15.9994           0   0.00000       0.00000    
     59559 TIP3     11548    TIP3     H1       HT       0.417000       1.00800           0   0.00000       0.00000    
     59560 TIP3     11548    TIP3     H2       HT       0.417000       1.00800           0   0.00000     -0.301140E-02
     59561 TIP3     11549    TIP3     OH2      OT      -0.834000       15.9994           0   0.00000       0.00000    
     59562 TIP3     11549    TIP3     H1       HT       0.417000       1.00800           0   0.00000       0.00000    
     59563 TIP3     11549    TIP3     H2       HT       0.417000       1.00800           0   0.00000     -0.301140E-02
     59564 TIP3     11550    TIP3     OH2      OT      -0.834000       15.9994           0   0.00000       0.00000    
     59565 TIP3     11550    TIP3     H1       HT       0.417000       1.00800           0   0.00000       0.00000    
     59566 TIP3     11550    TIP3     H2       HT       0.417000       1.00800           0   0.00000     -0.301140E-02
     59567 SOD      1        SOD      SOD      SOD       1.00000       22.9898           0   0.00000     -0.301140E-02
     59568 SOD      2        SOD      SOD      SOD       1.00000       22.9898           0   0.00000     -0.301140E-02
     59569 SOD      3        SOD      SOD      SOD       1.00000       22.9898           0   0.00000     -0.301140E-02
     59570 SOD      4        SOD      SOD      SOD       1.00000       22.9898           0   0.00000     -0.301140E-02
     59571 SOD      5        SOD      SOD      SOD       1.00000       22.9898           0   0.00000     -0.301140E-02
     59572 SOD      6        SOD      SOD      SOD       1.00000       22.9898           0   0.00000     -0.301140E-02
     59573 SOD      7        SOD      SOD      SOD       1.00000       22.9898           0   0.00000     -0.301140E-02
     59574 SOD      8        SOD      SOD      SOD       1.00000       22.9898           0   0.00000     -0.301140E-02
     59575 SOD      9        SOD      SOD      SOD       1.00000       22.9898           0   0.00000     -0.301140E-02
     59576 SOD      10       SOD      SOD      SOD       1.00000       22.9898           0   0.00000     -0.301140E-02
     59577 SOD      11       SOD      SOD      SOD       1.00000       22.9898           0   0.00000     -0.301140E-02
     59578 SOD      12       SOD      SOD      SOD       1.00000       22.9898           0   0.00000     -0.301140E-02
     59579 SOD      13       SOD      SOD      SOD       1.00000       22.9898           0   0.00000     -0.301140E-02
     59580 SOD      14       SOD      SOD      SOD       1.00000       22.9898           0   0.00000     -0.301140E-02
     59581 SOD      15       SOD      SOD      SOD       1.00000       22.9898           0   0.00000     -0.301140E-02
     59582 SOD      16       SOD      SOD      SOD       1.00000       22.9898           0   0.00000     -0.301140E-02
     59583 SOD      17       SOD      SOD      SOD       1.00000       22.9898           0   0.00000     -0.301140E-02
     59584 SOD      18       SOD      SOD      SOD       1.00000       22.9898           0   0.00000     -0.301140E-02
     59585 SOD      19       SOD      SOD      SOD       1.00000       22.9898           0   0.00000     -0.301140E-02
     59586 SOD      20       SOD      SOD      SOD       1.00000       22.9898           0   0.00000     -0.301140E-02
     59587 SOD      21       SOD      SOD      SOD       1.00000       22.9898           0   0.00000     -0.301140E-02
     59588 SOD      22       SOD      SOD      SOD       1.00000       22.9898           0   0.00000     -0.301140E-02
     59589 SOD      23       SOD      SOD      SOD       1.00000       22.9898           0   0.00000     -0.301140E-02
     59590 SOD      24       SOD      SOD      SOD       1.00000       22.9898           0   0.00000     -0.301140E-02
     59591 SOD      25       SOD      SOD      SOD       1.00000       22.9898           0   0.00000     -0.301140E-02
     59592 SOD      26       SOD      SOD      SOD       1.00000       22.9898           0   0.00000     -0.301140E-02
     59593 SOD      27       SOD      SOD      SOD       1.00000       22.9898           0   0.00000     -0.301140E-02
     59594 SOD      28       SOD      SOD      SOD       1.00000       22.9898           0   0.00000     -0.301140E-02
     59595 SOD      29       SOD      SOD      SOD       1.00000       22.9898           0   0.00000     -0.301140E-02
     59596 SOD      30       SOD      SOD      SOD       1.00000       22.9898           0   0.00000     -0.301140E-02
     59597 SOD      31       SOD      SOD      SOD       1.00000       22.9898           0   0.00000     -0.301140E-02
     59598 SOD      32       SOD      SOD      SOD       1.00000       22.9898           0   0.00000     -0.301140E-02
     59599 SOD      33       SOD      SOD      SOD       1.00000       22.9898           0   0.00000     -0.301140E-02
     59600 SOD      34       SOD      SOD      SOD       1.00000       22.9898           0   0.00000     -0.301140E-02
     59601 SOD      35       SOD      SOD      SOD       1.00000       22.9898           0   0.00000     -0.301140E-02
     59602 SOD      36       SOD      SOD      SOD       1.00000       22.9898           0   0.00000     -0.301140E-02
     59603 SOD      37       SOD      SOD      SOD       1.00000       22.9898           0   0.00000     -0.301140E-02
     59604 SOD      38       SOD      SOD      SOD       1.00000       22.9898           0   0.00000     -0.301140E-02
     59605 SOD      39       SOD      SOD      SOD       1.00000       22.9898           0   0.00000     -0.301140E-02
     59606 SOD      40       SOD      SOD      SOD       1.00000       22.9898           0   0.00000     -0.301140E-02
     59607 SOD      41       SOD      SOD      SOD       1.00000       22.9898           0   0.00000     -0.301140E-02
     59608 SOD      42       SOD      SOD      SOD       1.00000       22.9898           0   0.00000     -0.301140E-02
     59609 SOD      43       SOD      SOD      SOD       1.00000       22.9898           0   0.00000     -0.301140E-02
     59610 SOD      44       SOD      SOD      SOD       1.00000       22.9898           0   0.00000     -0.301140E-02
     59611 SOD      45       SOD      SOD      SOD       1.00000       22.9898           0   0.00000     -0.301140E-02
     59612 SOD      46       SOD      SOD      SOD       1.00000       22.9898           0   0.00000     -0.301140E-02
     59613 SOD      47       SOD      SOD      SOD       1.00000       22.9898           0   0.00000     -0.301140E-02
     59614 SOD      48       SOD      SOD      SOD       1.00000       22.9898           0   0.00000     -0.301140E-02
     59615 SOD      49       SOD      SOD      SOD       1.00000       22.9898           0   0.00000     -0.301140E-02
     59616 SOD      50       SOD      SOD      SOD       1.00000       22.9898           0   0.00000     -0.301140E-02
     59617 SOD      51       SOD      SOD      SOD       1.00000       22.9898           0   0.00000     -0.301140E-02
     59618 SOD      52       SOD      SOD      SOD       1.00000       22.9898           0   0.00000     -0.301140E-02
     59619 SOD      53       SOD      SOD      SOD       1.00000       22.9898           0   0.00000     -0.301140E-02
     59620 SOD      54       SOD      SOD      SOD       1.00000       22.9898           0   0.00000     -0.301140E-02
     59621 SOD      55       SOD      SOD      SOD       1.00000       22.9898           0   0.00000     -0.301140E-02
     59622 SOD      56       SOD      SOD      SOD       1.00000       22.9898           0   0.00000     -0.301140E-02
     59623 SOD      57       SOD      SOD      SOD       1.00000       22.9898           0   0.00000     -0.301140E-02
     59624 SOD      58       SOD      SOD      SOD       1.00000       22.9898           0   0.00000     -0.301140E-02
     59625 SOD      59       SOD      SOD      SOD       1.00000       22.9898           0   0.00000     -0.301140E-02
     59626 SOD      60       SOD      SOD      SOD       1.00000       22.9898           0   0.00000     -0.301140E-02
     59627 SOD      61       SOD      SOD      SOD       1.00000       22.9898           0   0.00000     -0.301140E-02
     59628 SOD      62       SOD      SOD      SOD       1.00000       22.9898           0   0.00000     -0.301140E-02
     59629 SOD      63       SOD      SOD      SOD       1.00000       22.9898           0   0.00000     -0.301140E-02
     59630 SOD      64       SOD      SOD      SOD       1.00000       22.9898           0   0.00000     -0.301140E-02
     59631 SOD      65       SOD      SOD      SOD       1.00000       22.9898           0   0.00000     -0.301140E-02
     59632 SOD      66       SOD      SOD      SOD       1.00000       22.9898           0   0.00000     -0.301140E-02
     59633 SOD      67       SOD      SOD      SOD       1.00000       22.9898           0   0.00000     -0.301140E-02
     59634 SOD      68       SOD      SOD      SOD       1.00000       22.9898           0   0.00000     -0.301140E-02
     59635 SOD      69       SOD      SOD      SOD       1.00000       22.9898           0   0.00000     -0.301140E-02
     59636 SOD      70       SOD      SOD      SOD       1.00000       22.9898           0   0.00000     -0.301140E-02
     59637 SOD      71       SOD      SOD      SOD       1.00000       22.9898           0   0.00000     -0.301140E-02
     59638 SOD      72       SOD      SOD      SOD       1.00000       22.9898           0   0.00000     -0.301140E-02
     59639 SOD      73       SOD      SOD      SOD       1.00000       22.9898           0   0.00000     -0.301140E-02
     59640 SOD      74       SOD      SOD      SOD       1.00000       22.9898           0   0.00000     -0.301140E-02
     59641 SOD      75       SOD      SOD      SOD       1.00000       22.9898           0   0.00000     -0.301140E-02
     59642 SOD      76       SOD      SOD      SOD       1.00000       22.9898           0   0.00000     -0.301140E-02
     59643 CLA      1        CLA      CLA      CLA      -1.00000       35.4500           0   0.00000     -0.301140E-02
     59644 CLA      2        CLA      CLA      CLA      -1.00000       35.4500           0   0.00000     -0.301140E-02
     59645 CLA      3        CLA      CLA      CLA      -1.00000       35.4500           0   0.00000     -0.301140E-02
     59646 CLA      4        CLA      CLA      CLA      -1.00000       35.4500           0   0.00000     -0.301140E-02
     59647 CLA      5        CLA      CLA      CLA      -1.00000       35.4500           0   0.00000     -0.301140E-02
     59648 CLA      6        CLA      CLA      CLA      -1.00000       35.4500           0   0.00000     -0.301140E-02
     59649 CLA      7        CLA      CLA      CLA      -1.00000       35.4500           0   0.00000     -0.301140E-02
     59650 CLA      8        CLA      CLA      CLA      -1.00000       35.4500           0   0.00000     -0.301140E-02
     59651 CLA      9        CLA      CLA      CLA      -1.00000       35.4500           0   0.00000     -0.301140E-02
     59652 CLA      10       CLA      CLA      CLA      -1.00000       35.4500           0   0.00000     -0.301140E-02
     59653 CLA      11       CLA      CLA      CLA      -1.00000       35.4500           0   0.00000     -0.301140E-02
     59654 CLA      12       CLA      CLA      CLA      -1.00000       35.4500           0   0.00000     -0.301140E-02
     59655 CLA      13       CLA      CLA      CLA      -1.00000       35.4500           0   0.00000     -0.301140E-02
     59656 CLA      14       CLA      CLA      CLA      -1.00000       35.4500           0   0.00000     -0.301140E-02
     59657 CLA      15       CLA      CLA      CLA      -1.00000       35.4500           0   0.00000     -0.301140E-02
     59658 CLA      16       CLA      CLA      CLA      -1.00000       35.4500           0   0.00000     -0.301140E-02
     59659 CLA      17       CLA      CLA      CLA      -1.00000       35.4500           0   0.00000     -0.301140E-02
     59660 CLA      18       CLA      CLA      CLA      -1.00000       35.4500           0   0.00000     -0.301140E-02
     59661 CLA      19       CLA      CLA      CLA      -1.00000       35.4500           0   0.00000     -0.301140E-02
     59662 CLA      20       CLA      CLA      CLA      -1.00000       35.4500           0   0.00000     -0.301140E-02
     59663 CLA      21       CLA      CLA      CLA      -1.00000       35.4500           0   0.00000     -0.301140E-02
     59664 CLA      22       CLA      CLA      CLA      -1.00000       35.4500           0   0.00000     -0.301140E-02
     59665 CLA      23       CLA      CLA      CLA      -1.00000       35.4500           0   0.00000     -0.301140E-02
     59666 CLA      24       CLA      CLA      CLA      -1.00000       35.4500           0   0.00000     -0.301140E-02
     59667 CLA      25       CLA      CLA      CLA      -1.00000       35.4500           0   0.00000     -0.301140E-02
     59668 CLA      26       CLA      CLA      CLA      -1.00000       35.4500           0   0.00000     -0.301140E-02
     59669 CLA      27       CLA      CLA      CLA      -1.00000       35.4500           0   0.00000     -0.301140E-02
     59670 CLA      28       CLA      CLA      CLA      -1.00000       35.4500           0   0.00000     -0.301140E-02
     59671 CLA      29       CLA      CLA      CLA      -1.00000       35.4500           0   0.00000     -0.301140E-02
     59672 CLA      30       CLA      CLA      CLA      -1.00000       35.4500           0   0.00000     -0.301140E-02

     59502 !NBOND: bonds
         1         2         1         3         1         4         1         5
         5         6         5         7         5         8         8         9
         8        10         8        15        15        11        11        14
        11        12        11        13        16        17        16        18
        16        19        16        14        19        20        19        27
        19        21        27        28        27        29        27        30
        21        22        22        24        22        23        24        25
        24        26        24        36        36        37        36        38
        36        39        39        40        39        41        39        42
        42        43        42        44        42        45        45        46
        45        47        45        48        48        49        48        50
        48        51        51        52        51        53        51        54
        54        55        54        59        54        56        59        60
        59        61        59        56        61        62        61        63
        61        64        64        65        64        66        64        67
        67        68        67        69        67        70        70        71
        70        72        70        73        73        74        73        75
        73        76        76        77        76        78        76        79
        56        57        56        58        30        31        31        33
        31        32        33        34        33        35        33        80
        80        81        80        82        80        83        83        84
        83        85        83        86        86        87        86        88
        86        89        89        90        89        91        89        92
        92        93        92        94        92        95        95        96
        95        97        95        98        98        99        98       100
        98       101       101       102       101       103       101       104
       104       105       104       106       104       107       107       108
       107       109       107       110       110       111       110       112
       110       113       113       114       113       115       113       116
       116       117       116       118       116       119       120       121
       120       122       120       123       120       124       124       125
       124       126       124       127       127       128       127       129
       127       134       134       130       130       133       130       131
       130       132       135       136       135       137       135       138
       135       133       138       139       138       146       138       140
       146       147       146       148       146       149       140       141
       141       143       141       142       143       144       143       145
       143       155       155       156       155       157       155       158
       158       159       158       160       158       161       161       162
       161       163       161       164       164       165       164       166
       164       167       167       168       167       169       167       170
       170       171       170       172       170       173       173       174
       173       178       173       175       178       179       178       180
       178       175       180       181       180       182       180       183
       183       184       183       185       183       186       186       187
       186       188       186       189       189       190       189       191
       189       192       192       193       192       194       192       195
       195       196       195       197       195       198       175       176
       175       177       149       150       150       152       150       151
       152       153       152       154       152       199       199       200
       199       201       199       202       202       203       202       204
       202       205       205       206       205       207       205       208
       208       209       208       210       208       211       211       212
       211       213       211       214       214       215       214       216
       214       217       217       218       217       219       217       220
       220       221       220       222       220       223       223       224
       223       225       223       226       226       227       226       228
       226       229       229       230       229       231       229       232
       232       233       232       234       232       235       235       236
       235       237       235       238       238       239       238       240
       238       241       246       245       245       242       242       243
       242       244       242       247       250       249       249       247
       247       248       247       251       251       252       251       253
       251       258       258       254       254       257       254       255
       254       256       259       260       259       261       259       262
       259       257       262       263       262       270       262       264
       270       271       270       272       270       273       264       265
       265       267       265       266       267       268       267       269
       267       279       279       280       279       281       279       282
       282       283       282       284       282       285       285       286
       285       287       285       288       288       289       288       290
       288       291       291       292       291       293       291       294
       294       295       294       296       294       297       297       298
       297       299       299       300       299       301       301       302
       301       303       301       304       304       305       304       306
       304       307       307       308       307       309       307       310
       310       311       310       312       310       313       313       314
       313       315       313       316       316       317       316       318
       316       319       273       274       274       276       274       275
       276       277       276       278       276       320       320       321
       320       322       320       323       323       324       323       325
       323       326       326       327       326       328       326       329
       329       330       329       331       329       332       332       333
       332       334       332       335       335       336       335       337
       335       338       338       339       338       340       338       341
       341       342       341       343       341       344       344       345
       344       346       344       347       347       348       347       349
       347       350       350       351       350       352       350       353
       353       354       353       355       353       356       356       357
       356       358       356       359       359       360       359       361
       359       362       367       366       366       363       363       364
       363       365       363       368       371       370       370       368
       368       369       368       372       372       373       372       374
       372       379       379       375       375       378       375       376
       375       377       380       381       380       382       380       383
       380       378       383       384       383       391       383       385
       391       392       391       393       391       394       385       386
       386       388       386       387       388       389       388       390
       388       400       400       401       400       402       400       403
       403       404       403       405       403       406       406       407
       406       408       406       409       409       410       409       411
       409       412       412       413       412       414       412       415
       415       416       415       417       415       418       418       419
       418       423       418       420       423       424       423       425
       423       420       425       426       425       427       425       428
       428       429       428       430       428       431       431       432
       431       433       431       434       434       435       434       436
       434       437       437       438       437       439       437       440
       440       441       440       442       440       443       420       421
       420       422       394       395       395       397       395       396
       397       398       397       399       397       444       444       445
       444       446       444       447       447       448       447       449
       447       450       450       451       450       452       450       453
       453       454       453       455       453       456       456       457
       456       458       456       459       459       460       459       461
       459       462       462       463       462       464       462       465
       465       466       465       467       465       468       468       469
       468       470       468       471       471       472       471       473
       471       474       474       475       474       476       474       477
       477       478       477       479       477       480       480       481
       480       482       480       483       483       484       483       485
       483       486       487       488       487       489       487       490
       487       491       491       492       491       493       491       494
       494       495       494       496       494       501       501       497
       497       500       497       498       497       499       502       503
       502       504       502       505       502       500       505       506
       505       513       505       507       513       514       513       515
       513       516       507       508       508       510       508       509
       510       511       510       512       510       522       522       523
       522       524       522       525       525       526       525       527
       525       528       528       529       528       530       528       531
       531       532       531       533       531       534       534       535
       534       536       534       537       537       538       537       539
       537       540       540       541       540       545       540       542
       545       546       545       547       545       542       547       548
       547       549       547       550       550       551       550       552
       550       553       553       554       553       555       553       556
       556       557       556       558       556       559       559       560
       559       561       559       562       562       563       562       564
       562       565       542       543       542       544       516       517
       517       519       517       518       519       520       519       521
       519       566       566       567       566       568       566       569
       569       570       569       571       569       572       572       573
       572       574       572       575       575       576       575       577
       575       578       578       579       578       580       578       581
       581       582       581       583       581       584       584       585
       584       586       584       587       587       588       587       589
       587       590       590       591       590       592       590       593
       593       594       593       595       593       596       596       597
       596       598       596       599       599       600       599       601
       599       602       602       603       602       604       602       605
       606       607       606       608       606       609       606       610
       610       611       610       612       610       613       613       614
       613       615       613       620       620       616       616       619
       616       617       616       618       621       622       621       623
       621       624       621       619       624       625       624       632
       624       626       632       633       632       634       632       635
       626       627       627       629       627       628       629       630
       629       631       629       641       641       642       641       643
       641       644       644       645       644       646       644       647
       647       648       647       649       647       650       650       651
       650       652       650       653       653       654       653       655
       653       656       656       657       656       658       656       659
       659       660       659       664       659       661       664       665
       664       666       664       661       666       667       666       668
       666       669       669       670       669       671       669       672
       672       673       672       674       672       675       675       676
       675       677       675       678       678       679       678       680
       678       681       681       682       681       683       681       684
       661       662       661       663       635       636       636       638
       636       637       638       639       638       640       638       685
       685       686       685       687       685       688       688       689
       688       690       688       691       691       692       691       693
       691       694       694       695       694       696       694       697
       697       698       697       699       697       700       700       701
       700       702       700       703       703       704       703       705
       703       706       706       707       706       708       706       709
       709       710       709       711       709       712       712       713
       712       714       712       715       715       716       715       717
       715       718       718       719       718       720       718       721
       721       722       721       723       721       724       724       725
       724       726       724       727       732       731       731       728
       728       729       728       730       728       733       736       735
       735       733       733       734       733       737       737       738
       737       739       737       744       744       740       740       743
       740       741       740       742       745       746       745       747
       745       748       745       743       748       749       748       756
       748       750       756       757       756       758       756       759
       750       751       751       753       751       752       753       754
       753       755       753       765       765       766       765       767
       765       768       768       769       768       770       768       771
       771       772       771       773       771       774       774       775
       774       776       774       777       777       778       777       779
       777       780       780       781       780       782       780       783
       783       784       783       788       783       785       788       789
       788       790       788       785       790       791       790       792
       790       793       793       794       793       795       793       796
       796       797       796       798       796       799       799       800
       799       801       799       802       802       803       802       804
       802       805       805       806       805       807       805       808
       785       786       785       787       759       760       760       762
       760       761       762       763       762       764       762       809
       809       810       809       811       809       812       812       813
       812       814       812       815       815       816       815       817
       815       818       818       819       818       820       818       821
       821       822       821       823       821       824       824       825
       824       826       824       827       827       828       827       829
       827       830       830       831       830       832       830       833
       833       834       833       835       833       836       836       837
       836       838       836       839       839       840       839       841
       839       842       842       843       842       844       842       845
       845       846       845       847       845       848       848       849
       848       850       848       851       856       855       855       852
       852       853       852       854       852       857       860       859
       859       857       857       858       857       861       861       862
       861       863       861       868       868       864       864       867
       864       865       864       866       869       870       869       871
       869       872       869       867       872       873       872       880
       872       874       880       881       880       882       880       883
       874       875       875       877       875       876       877       878
       877       879       877       889       889       890       889       891
       889       892       892       893       892       894       892       895
       895       896       895       897       895       898       898       899
       898       900       898       901       901       902       901       903
       901       904       904       905       904       906       904       907
       907       908       907       909       909       910       909       911
       911       912       911       913       911       914       914       915
       914       916       914       917       917       918       917       919
       917       920       920       921       920       922       920       923
       923       924       923       925       923       926       926       927
       926       928       926       929       883       884       884       886
       884       885       886       887       886       888       886       930
       930       931       930       932       930       933       933       934
       933       935       933       936       936       937       936       938
       936       939       939       940       939       941       939       942
       942       943       942       944       942       945       945       946
       945       947       945       948       948       949       948       950
       948       951       951       952       951       953       951       954
       954       955       954       956       954       957       957       958
       957       959       957       960       960       961       960       962
       960       963       963       964       963       965       963       966
       966       967       966       968       966       969       969       970
       969       971       969       972       973       974       973       975
       973       976       973       977       977       978       977       979
       977       980       980       981       980       982       980       987
       987       983       983       986       983       984       983       985
       988       989       988       990       988       991       988       986
       991       992       991       999       991       993       999      1000
       999      1001       999      1002       993       994       994       996
       994       995       996       997       996       998       996      1008
      1008      1009      1008      1010      1008      1011      1011      1012
      1011      1013      1011      1014      1014      1015      1014      1016
      1014      1017      1017      1018      1017      1019      1017      1020
      1020      1021      1020      1022      1020      1023      1023      1024
      1023      1025      1023      1026      1026      1027      1026      1031
      1026      1028      1031      1032      1031      1033      1031      1028
      1033      1034      1033      1035      1033      1036      1036      1037
      1036      1038      1036      1039      1039      1040      1039      1041
      1039      1042      1042      1043      1042      1044      1042      1045
      1045      1046      1045      1047      1045      1048      1048      1049
      1048      1050      1048      1051      1028      1029      1028      1030
      1002      1003      1003      1005      1003      1004      1005      1006
      1005      1007      1005      1052      1052      1053      1052      1054
      1052      1055      1055      1056      1055      1057      1055      1058
      1058      1059      1058      1060      1058      1061      1061      1062
      1061      1063      1061      1064      1064      1065      1064      1066
      1064      1067      1067      1068      1067      1069      1067      1070
      1070      1071      1070      1072      1070      1073      1073      1074
      1073      1075      1073      1076      1076      1077      1076      1078
      1076      1079      1079      1080      1079      1081      1079      1082
      1082      1083      1082      1084      1082      1085      1085      1086
      1085      1087      1085      1088      1088      1089      1088      1090
      1088      1091      1091      1092      1091      1093      1091      1094
      1095      1096      1095      1097      1095      1098      1095      1099
      1099      1100      1099      1101      1099      1102      1102      1103
      1102      1104      1102      1109      1109      1105      1105      1108
      1105      1106      1105      1107      1110      1111      1110      1112
      1110      1113      1110      1108      1113      1114      1113      1121
      1113      1115      1121      1122      1121      1123      1121      1124
      1115      1116      1116      1118      1116      1117      1118      1119
      1118      1120      1118      1130      1130      1131      1130      1132
      1130      1133      1133      1134      1133      1135      1133      1136
      1136      1137      1136      1138      1136      1139      1139      1140
      1139      1141      1139      1142      1142      1143      1142      1144
      1142      1145      1145      1146      1145      1147      1145      1148
      1148      1149      1148      1150      1150      1151      1150      1152
      1152      1153      1152      1154      1152      1155      1155      1156
      1155      1157      1155      1158      1158      1159      1158      1160
      1158      1161      1161      1162      1161      1163      1161      1164
      1164      1165      1164      1166      1164      1167      1167      1168
      1167      1169      1167      1170      1170      1171      1170      1172
      1170      1173      1173      1174      1173      1175      1173      1176
      1124      1125      1125      1127      1125      1126      1127      1128
      1127      1129      1127      1177      1177      1178      1177      1179
      1177      1180      1180      1181      1180      1182      1180      1183
      1183      1184      1183      1185      1183      1186      1186      1187
      1186      1188      1186      1189      1189      1190      1189      1191
      1189      1192      1192      1193      1192      1194      1192      1195
      1195      1196      1195      1197      1195      1198      1198      1199
      1198      1200      1198      1201      1201      1202      1201      1203
      1201      1204      1204      1205      1204      1206      1204      1207
      1207      1208      1207      1209      1207      1210      1210      1211
      1210      1212      1210      1213      1213      1214      1213      1215
      1213      1216      1216      1217      1216      1218      1216      1219
      1220      1221      1220      1222      1220      1223      1220      1224
      1224      1225      1224      1226      1224      1227      1227      1228
      1227      1229      1227      1234      1234      1230      1230      1233
      1230      1231      1230      1232      1235      1236      1235      1237
      1235      1238      1235      1233      1238      1239      1238      1246
      1238      1240      1246      1247      1246      1248      1246      1249
      1240      1241      1241      1243      1241      1242      1243      1244
      1243      1245      1243      1255      1255      1256      1255      1257
      1255      1258      1258      1259      1258      1260      1258      1261
      1261      1262      1261      1263      1261      1264      1264      1265
      1264      1266      1264      1267      1267      1268      1267      1269
      1267      1270      1270      1271      1270      1272      1270      1273
      1273      1274      1273      1278      1273      1275      1278      1279
      1278      1280      1278      1275      1280      1281      1280      1282
      1280      1283      1283      1284      1283      1285      1283      1286
      1286      1287      1286      1288      1286      1289      1289      1290
      1289      1291      1289      1292      1292      1293      1292      1294
      1292      1295      1295      1296      1295      1297      1295      1298
      1275      1276      1275      1277      1249      1250      1250      1252
      1250      1251      1252      1253      1252      1254      1252      1299
      1299      1300      1299      1301      1299      1302      1302      1303
      1302      1304      1302      1305      1305      1306      1305      1307
      1305      1308      1308      1309      1308      1310      1308      1311
      1311      1312      1311      1313      1311      1314      1314      1315
      1314      1316      1314      1317      1317      1318      1317      1319
      1317      1320      1320      1321      1320      1322      1320      1323
      1323      1324      1323      1325      1323      1326      1326      1327
      1326      1328      1326      1329      1329      1330      1329      1331
      1329      1332      1332      1333      1332      1334      1332      1335
      1335      1336      1335      1337      1335      1338      1338      1339
      1338      1340      1338      1341      1342      1343      1342      1344
      1342      1345      1342      1346      1346      1347      1346      1348
      1346      1349      1349      1350      1349      1351      1349      1356
      1356      1352      1352      1355      1352      1353      1352      1354
      1357      1358      1357      1359      1357      1360      1357      1355
      1360      1361      1360      1368      1360      1362      1368      1369
      1368      1370      1368      1371      1362      1363      1363      1365
      1363      1364      1365      1366      1365      1367      1365      1377
      1377      1378      1377      1379      1377      1380      1380      1381
      1380      1382      1380      1383      1383      1384      1383      1385
      1383      1386      1386      1387      1386      1388      1386      1389
      1389      1390      1389      1391      1389      1392      1392      1393
      1392      1394      1392      1395      1395      1396      1395      1400
      1395      1397      1400      1401      1400      1402      1400      1397
      1402      1403      1402      1404      1402      1405      1405      1406
      1405      1407      1405      1408      1408      1409      1408      1410
      1408      1411      1411      1412      1411      1413      1411      1414
      1414      1415      1414      1416      1414      1417      1417      1418
      1417      1419      1417      1420      1397      1398      1397      1399
      1371      1372      1372      1374      1372      1373      1374      1375
      1374      1376      1374      1421      1421      1422      1421      1423
      1421      1424      1424      1425      1424      1426      1424      1427
      1427      1428      1427      1429      1427      1430      1430      1431
      1430      1432      1430      1433      1433      1434      1433      1435
      1433      1436      1436      1437      1436      1438      1436      1439
      1439      1440      1439      1441      1439      1442      1442      1443
      1442      1444      1442      1445      1445      1446      1445      1447
      1445      1448      1448      1449      1448      1450      1448      1451
      1451      1452      1451      1453      1451      1454      1454      1455
      1454      1456      1454      1457      1457      1458      1457      1459
      1457      1460      1460      1461      1460      1462      1460      1463
      1464      1465      1464      1466      1464      1467      1464      1468
      1468      1469      1468      1470      1468      1471      1471      1472
      1471      1473      1471      1478      1478      1474      1474      1477
      1474      1475      1474      1476      1479      1480      1479      1481
      1479      1482      1479      1477      1482      1483      1482      1490
      1482      1484      1490      1491      1490      1492      1490      1493
      1484      1485      1485      1487      1485      1486      1487      1488
      1487      1489      1487      1499      1499      1500      1499      1501
      1499      1502      1502      1503      1502      1504      1502      1505
      1505      1506      1505      1507      1505      1508      1508      1509
      1508      1510      1508      1511      1511      1512      1511      1513
      1511      1514      1514      1515      1514      1516      1514      1517
      1517      1518      1517      1519      1519      1520      1519      1521
      1521      1522      1521      1523      1521      1524      1524      1525
      1524      1526      1524      1527      1527      1528      1527      1529
      1527      1530      1530      1531      1530      1532      1530      1533
      1533      1534      1533      1535      1533      1536      1536      1537
      1536      1538      1536      1539      1539      1540      1539      1541
      1539      1542      1542      1543      1542      1544      1542      1545
      1493      1494      1494      1496      1494      1495      1496      1497
      1496      1498      1496      1546      1546      1547      1546      1548
      1546      1549      1549      1550      1549      1551      1549      1552
      1552      1553      1552      1554      1552      1555      1555      1556
      1555      1557      1555      1558      1558      1559      1558      1560
      1558      1561      1561      1562      1561      1563      1561      1564
      1564      1565      1564      1566      1564      1567      1567      1568
      1567      1569      1567      1570      1570      1571      1570      1572
      1570      1573      1573      1574      1573      1575      1573      1576
      1576      1577      1576      1578      1576      1579      1579      1580
      1579      1581      1579      1582      1582      1583      1582      1584
      1582      1585      1585      1586      1585      1587      1585      1588
      1589      1590      1589      1591      1589      1592      1589      1593
      1593      1594      1593      1595      1593      1596      1596      1597
      1596      1598      1596      1603      1603      1599      1599      1602
      1599      1600      1599      1601      1604      1605      1604      1606
      1604      1607      1604      1602      1607      1608      1607      1615
      1607      1609      1615      1616      1615      1617      1615      1618
      1609      1610      1610      1612      1610      1611      1612      1613
      1612      1614      1612      1624      1624      1625      1624      1626
      1624      1627      1627      1628      1627      1629      1627      1630
      1630      1631      1630      1632      1630      1633      1633      1634
      1633      1635      1633      1636      1636      1637      1636      1638
      1636      1639      1639      1640      1639      1641      1639      1642
      1642      1643      1642      1647      1642      1644      1647      1648
      1647      1649      1647      1644      1649      1650      1649      1651
      1649      1652      1652      1653      1652      1654      1652      1655
      1655      1656      1655      1657      1655      1658      1658      1659
      1658      1660      1658      1661      1661      1662      1661      1663
      1661      1664      1664      1665      1664      1666      1664      1667
      1644      1645      1644      1646      1618      1619      1619      1621
      1619      1620      1621      1622      1621      1623      1621      1668
      1668      1669      1668      1670      1668      1671      1671      1672
      1671      1673      1671      1674      1674      1675      1674      1676
      1674      1677      1677      1678      1677      1679      1677      1680
      1680      1681      1680      1682      1680      1683      1683      1684
      1683      1685      1683      1686      1686      1687      1686      1688
      1686      1689      1689      1690      1689      1691      1689      1692
      1692      1693      1692      1694      1692      1695      1695      1696
      1695      1697      1695      1698      1698      1699      1698      1700
      1698      1701      1701      1702      1701      1703      1701      1704
      1704      1705      1704      1706      1704      1707      1707      1708
      1707      1709      1707      1710      1711      1712      1711      1713
      1711      1714      1711      1715      1715      1716      1715      1717
      1715      1718      1718      1719      1718      1720      1718      1725
      1725      1721      1721      1724      1721      1722      1721      1723
      1726      1727      1726      1728      1726      1729      1726      1724
      1729      1730      1729      1737      1729      1731      1737      1738
      1737      1739      1737      1740      1731      1732      1732      1734
      1732      1733      1734      1735      1734      1736      1734      1746
      1746      1747      1746      1748      1746      1749      1749      1750
      1749      1751      1749      1752      1752      1753      1752      1754
      1752      1755      1755      1756      1755      1757      1755      1758
      1758      1759      1758      1760      1758      1761      1761      1762
      1761      1763      1761      1764      1764      1765      1764      1766
      1766      1767      1766      1768      1768      1769      1768      1770
      1768      1771      1771      1772      1771      1773      1771      1774
      1774      1775      1774      1776      1774      1777      1777      1778
      1777      1779      1777      1780      1780      1781      1780      1782
      1780      1783      1783      1784      1783      1785      1783      1786
      1740      1741      1741      1743      1741      1742      1743      1744
      1743      1745      1743      1787      1787      1788      1787      1789
      1787      1790      1790      1791      1790      1792      1790      1793
      1793      1794      1793      1795      1793      1796      1796      1797
      1796      1798      1796      1799      1799      1800      1799      1801
      1799      1802      1802      1803      1802      1804      1802      1805
      1805      1806      1805      1807      1807      1808      1807      1809
      1809      1810      1809      1811      1809      1812      1812      1813
      1812      1814      1812      1815      1815      1816      1815      1817
      1815      1818      1818      1819      1818      1820      1818      1821
      1821      1822      1821      1823      1821      1824      1824      1825
      1824      1826      1824      1827      1827      1828      1827      1829
      1827      1830      1830      1831      1830      1832      1830      1833
      1838      1837      1837      1834      1834      1835      1834      1836
      1834      1839      1842      1841      1841      1839      1839      1840
      1839      1843      1843      1844      1843      1845      1843      1850
      1850      1846      1846      1849      1846      1847      1846      1848
      1851      1852      1851      1853      1851      1854      1851      1849
      1854      1855      1854      1862      1854      1856      1862      1863
      1862      1864      1862      1865      1856      1857      1857      1859
      1857      1858      1859      1860      1859      1861      1859      1871
      1871      1872      1871      1873      1871      1874      1874      1875
      1874      1876      1874      1877      1877      1878      1877      1879
      1877      1880      1880      1881      1880      1882      1880      1883
      1883      1884      1883      1885      1883      1886      1886      1887
      1886      1888      1886      1889      1889      1890      1889      1891
      1891      1892      1891      1893      1893      1894      1893      1895
      1893      1896      1896      1897      1896      1898      1896      1899
      1899      1900      1899      1901      1899      1902      1902      1903
      1902      1904      1902      1905      1905      1906      1905      1907
      1905      1908      1908      1909      1908      1910      1908      1911
      1865      1866      1866      1868      1866      1867      1868      1869
      1868      1870      1868      1912      1912      1913      1912      1914
      1912      1915      1915      1916      1915      1917      1915      1918
      1918      1919      1918      1920      1918      1921      1921      1922
      1921      1923      1921      1924      1924      1925      1924      1926
      1924      1927      1927      1928      1927      1929      1927      1930
      1930      1931      1930      1932      1930      1933      1933      1934
      1933      1935      1933      1936      1936      1937      1936      1938
      1936      1939      1939      1940      1939      1941      1939      1942
      1942      1943      1942      1944      1942      1945      1945      1946
      1945      1947      1945      1948      1948      1949      1948      1950
      1948      1951      1951      1952      1951      1953      1951      1954
      1955      1956      1955      1957      1955      1958      1955      1959
      1959      1960      1959      1961      1959      1962      1962      1963
      1962      1964      1962      1969      1969      1965      1965      1968
      1965      1966      1965      1967      1970      1971      1970      1972
      1970      1973      1970      1968      1973      1974      1973      1981
      1973      1975      1981      1982      1981      1983      1981      1984
      1975      1976      1976      1978      1976      1977      1978      1979
      1978      1980      1978      1990      1990      1991      1990      1992
      1990      1993      1993      1994      1993      1995      1993      1996
      1996      1997      1996      1998      1996      1999      1999      2000
      1999      2001      1999      2002      2002      2003      2002      2004
      2002      2005      2005      2006      2005      2007      2005      2008
      2008      2009      2008      2013      2008      2010      2013      2014
      2013      2015      2013      2010      2015      2016      2015      2017
      2015      2018      2018      2019      2018      2020      2018      2021
      2021      2022      2021      2023      2021      2024      2024      2025
      2024      2026      2024      2027      2027      2028      2027      2029
      2027      2030      2030      2031      2030      2032      2030      2033
      2010      2011      2010      2012      1984      1985      1985      1987
      1985      1986      1987      1988      1987      1989      1987      2034
      2034      2035      2034      2036      2034      2037      2037      2038
      2037      2039      2037      2040      2040      2041      2040      2042
      2040      2043      2043      2044      2043      2045      2043      2046
      2046      2047      2046      2048      2046      2049      2049      2050
      2049      2051      2049      2052      2052      2053      2052      2054
      2052      2055      2055      2056      2055      2057      2055      2058
      2058      2059      2058      2060      2058      2061      2061      2062
      2061      2063      2061      2064      2064      2065      2064      2066
      2064      2067      2067      2068      2067      2069      2067      2070
      2070      2071      2070      2072      2070      2073      2073      2074
      2073      2075      2073      2076      2077      2078      2077      2079
      2077      2080      2077      2081      2081      2082      2081      2083
      2081      2084      2084      2085      2084      2086      2084      2091
      2091      2087      2087      2090      2087      2088      2087      2089
      2092      2093      2092      2094      2092      2095      2092      2090
      2095      2096      2095      2103      2095      2097      2103      2104
      2103      2105      2103      2106      2097      2098      2098      2100
      2098      2099      2100      2101      2100      2102      2100      2112
      2112      2113      2112      2114      2112      2115      2115      2116
      2115      2117      2115      2118      2118      2119      2118      2120
      2118      2121      2121      2122      2121      2123      2121      2124
      2124      2125      2124      2126      2124      2127      2127      2128
      2127      2129      2127      2130      2130      2131      2130      2135
      2130      2132      2135      2136      2135      2137      2135      2132
      2137      2138      2137      2139      2137      2140      2140      2141
      2140      2142      2140      2143      2143      2144      2143      2145
      2143      2146      2146      2147      2146      2148      2146      2149
      2149      2150      2149      2151      2149      2152      2152      2153
      2152      2154      2152      2155      2132      2133      2132      2134
      2106      2107      2107      2109      2107      2108      2109      2110
      2109      2111      2109      2156      2156      2157      2156      2158
      2156      2159      2159      2160      2159      2161      2159      2162
      2162      2163      2162      2164      2162      2165      2165      2166
      2165      2167      2165      2168      2168      2169      2168      2170
      2168      2171      2171      2172      2171      2173      2171      2174
      2174      2175      2174      2176      2174      2177      2177      2178
      2177      2179      2177      2180      2180      2181      2180      2182
      2180      2183      2183      2184      2183      2185      2183      2186
      2186      2187      2186      2188      2186      2189      2189      2190
      2189      2191      2189      2192      2192      2193      2192      2194
      2192      2195      2196      2197      2196      2198      2196      2199
      2196      2200      2200      2201      2200      2202      2200      2203
      2203      2204      2203      2205      2203      2210      2210      2206
      2206      2209      2206      2207      2206      2208      2211      2212
      2211      2213      2211      2214      2211      2209      2214      2215
      2214      2222      2214      2216      2222      2223      2222      2224
      2222      2225      2216      2217      2217      2219      2217      2218
      2219      2220      2219      2221      2219      2231      2231      2232
      2231      2233      2231      2234      2234      2235      2234      2236
      2234      2237      2237      2238      2237      2239      2237      2240
      2240      2241      2240      2242      2240      2243      2243      2244
      2243      2245      2243      2246      2246      2247      2246      2248
      2246      2249      2249      2250      2249      2251      2251      2252
      2251      2253      2253      2254      2253      2255      2253      2256
      2256      2257      2256      2258      2256      2259      2259      2260
      2259      2261      2259      2262      2262      2263      2262      2264
      2262      2265      2265      2266      2265      2267      2265      2268
      2268      2269      2268      2270      2268      2271      2225      2226
      2226      2228      2226      2227      2228      2229      2228      2230
      2228      2272      2272      2273      2272      2274      2272      2275
      2275      2276      2275      2277      2275      2278      2278      2279
      2278      2280      2278      2281      2281      2282      2281      2283
      2281      2284      2284      2285      2284      2286      2284      2287
      2287      2288      2287      2289      2287      2290      2290      2291
      2290      2292      2292      2293      2292      2294      2294      2295
      2294      2296      2294      2297      2297      2298      2297      2299
      2297      2300      2300      2301      2300      2302      2300      2303
      2303      2304      2303      2305      2303      2306      2306      2307
      2306      2308      2306      2309      2309      2310      2309      2311
      2309      2312      2312      2313      2312      2314      2312      2315
      2315      2316      2315      2317      2315      2318      2319      2320
      2319      2321      2319      2322      2319      2323      2323      2324
      2323      2325      2323      2326      2326      2327      2326      2328
      2326      2333      2333      2329      2329      2332      2329      2330
      2329      2331      2334      2335      2334      2336      2334      2337
      2334      2332      2337      2338      2337      2345      2337      2339
      2345      2346      2345      2347      2345      2348      2339      2340
      2340      2342      2340      2341      2342      2343      2342      2344
      2342      2354      2354      2355      2354      2356      2354      2357
      2357      2358      2357      2359      2357      2360      2360      2361
      2360      2362      2360      2363      2363      2364      2363      2365
      2363      2366      2366      2367      2366      2368      2366      2369
      2369      2370      2369      2371      2369      2372      2372      2373
      2372      2374      2374      2375      2374      2376      2376      2377
      2376      2378      2376      2379      2379      2380      2379      2381
      2379      2382      2382      2383      2382      2384      2382      2385
      2385      2386      2385      2387      2385      2388      2388      2389
      2388      2390      2388      2391      2391      2392      2391      2393
      2391      2394      2394      2395      2394      2396      2394      2397
      2397      2398      2397      2399      2397      2400      2348      2349
      2349      2351      2349      2350      2351      2352      2351      2353
      2351      2401      2401      2402      2401      2403      2401      2404
      2404      2405      2404      2406      2404      2407      2407      2408
      2407      2409      2407      2410      2410      2411      2410      2412
      2410      2413      2413      2414      2413      2415      2413      2416
      2416      2417      2416      2418      2416      2419      2419      2420
      2419      2421      2419      2422      2422      2423      2422      2424
      2422      2425      2425      2426      2425      2427      2425      2428
      2428      2429      2428      2430      2428      2431      2431      2432
      2431      2433      2431      2434      2434      2435      2434      2436
      2434      2437      2437      2438      2437      2439      2437      2440
      2440      2441      2440      2442      2440      2443      2444      2445
      2444      2446      2444      2447      2444      2448      2448      2449
      2448      2450      2448      2451      2451      2452      2451      2453
      2451      2458      2458      2454      2454      2457      2454      2455
      2454      2456      2459      2460      2459      2461      2459      2462
      2459      2457      2462      2463      2462      2470      2462      2464
      2470      2471      2470      2472      2470      2473      2464      2465
      2465      2467      2465      2466      2467      2468      2467      2469
      2467      2479      2479      2480      2479      2481      2479      2482
      2482      2483      2482      2484      2482      2485      2485      2486
      2485      2487      2485      2488      2488      2489      2488      2490
      2488      2491      2491      2492      2491      2493      2491      2494
      2494      2495      2494      2496      2494      2497      2497      2498
      2497      2499      2499      2500      2499      2501      2501      2502
      2501      2503      2501      2504      2504      2505      2504      2506
      2504      2507      2507      2508      2507      2509      2507      2510
      2510      2511      2510      2512      2510      2513      2513      2514
      2513      2515      2513      2516      2516      2517      2516      2518
      2516      2519      2473      2474      2474      2476      2474      2475
      2476      2477      2476      2478      2476      2520      2520      2521
      2520      2522      2520      2523      2523      2524      2523      2525
      2523      2526      2526      2527      2526      2528      2526      2529
      2529      2530      2529      2531      2529      2532      2532      2533
      2532      2534      2532      2535      2535      2536      2535      2537
      2535      2538      2538      2539      2538      2540      2540      2541
      2540      2542      2542      2543      2542      2544      2542      2545
      2545      2546      2545      2547      2545      2548      2548      2549
      2548      2550      2548      2551      2551      2552      2551      2553
      2551      2554      2554      2555      2554      2556      2554      2557
      2557      2558      2557      2559      2557      2560      2560      2561
      2560      2562      2560      2563      2563      2564      2563      2565
      2563      2566      2567      2568      2567      2569      2567      2570
      2567      2571      2571      2572      2571      2573      2571      2574
      2574      2575      2574      2576      2574      2581      2581      2577
      2577      2580      2577      2578      2577      2579      2582      2583
      2582      2584      2582      2585      2582      2580      2585      2586
      2585      2593      2585      2587      2593      2594      2593      2595
      2593      2596      2587      2588      2588      2590      2588      2589
      2590      2591      2590      2592      2590      2602      2602      2603
      2602      2604      2602      2605      2605      2606      2605      2607
      2605      2608      2608      2609      2608      2610      2608      2611
      2611      2612      2611      2613      2611      2614      2614      2615
      2614      2616      2614      2617      2617      2618      2617      2619
      2617      2620      2620      2621      2620      2625      2620      2622
      2625      2626      2625      2627      2625      2622      2627      2628
      2627      2629      2627      2630      2630      2631      2630      2632
      2630      2633      2633      2634      2633      2635      2633      2636
      2636      2637      2636      2638      2636      2639      2639      2640
      2639      2641      2639      2642      2642      2643      2642      2644
      2642      2645      2622      2623      2622      2624      2596      2597
      2597      2599      2597      2598      2599      2600      2599      2601
      2599      2646      2646      2647      2646      2648      2646      2649
      2649      2650      2649      2651      2649      2652      2652      2653
      2652      2654      2652      2655      2655      2656      2655      2657
      2655      2658      2658      2659      2658      2660      2658      2661
      2661      2662      2661      2663      2661      2664      2664      2665
      2664      2666      2664      2667      2667      2668      2667      2669
      2667      2670      2670      2671      2670      2672      2670      2673
      2673      2674      2673      2675      2673      2676      2676      2677
      2676      2678      2676      2679      2679      2680      2679      2681
      2679      2682      2682      2683      2682      2684      2682      2685
      2685      2686      2685      2687      2685      2688      2693      2692
      2692      2689      2689      2690      2689      2691      2689      2694
      2697      2696      2696      2694      2694      2695      2694      2698
      2698      2699      2698      2700      2698      2705      2705      2701
      2701      2704      2701      2702      2701      2703      2706      2707
      2706      2708      2706      2709      2706      2704      2709      2710
      2709      2717      2709      2711      2717      2718      2717      2719
      2717      2720      2711      2712      2712      2714      2712      2713
      2714      2715      2714      2716      2714      2726      2726      2727
      2726      2728      2726      2729      2729      2730      2729      2731
      2729      2732      2732      2733      2732      2734      2732      2735
      2735      2736      2735      2737      2735      2738      2738      2739
      2738      2740      2738      2741      2741      2742      2741      2743
      2741      2744      2744      2745      2744      2746      2746      2747
      2746      2748      2748      2749      2748      2750      2748      2751
      2751      2752      2751      2753      2751      2754      2754      2755
      2754      2756      2754      2757      2757      2758      2757      2759
      2757      2760      2760      2761      2760      2762      2760      2763
      2763      2764      2763      2765      2763      2766      2720      2721
      2721      2723      2721      2722      2723      2724      2723      2725
      2723      2767      2767      2768      2767      2769      2767      2770
      2770      2771      2770      2772      2770      2773      2773      2774
      2773      2775      2773      2776      2776      2777      2776      2778
      2776      2779      2779      2780      2779      2781      2779      2782
      2782      2783      2782      2784      2782      2785      2785      2786
      2785      2787      2785      2788      2788      2789      2788      2790
      2788      2791      2791      2792      2791      2793      2791      2794
      2794      2795      2794      2796      2794      2797      2797      2798
      2797      2799      2797      2800      2800      2801      2800      2802
      2800      2803      2803      2804      2803      2805      2803      2806
      2806      2807      2806      2808      2806      2809      2810      2811
      2810      2812      2810      2813      2810      2814      2814      2815
      2814      2816      2814      2817      2817      2818      2817      2819
      2817      2824      2824      2820      2820      2823      2820      2821
      2820      2822      2825      2826      2825      2827      2825      2828
      2825      2823      2828      2829      2828      2836      2828      2830
      2836      2837      2836      2838      2836      2839      2830      2831
      2831      2833      2831      2832      2833      2834      2833      2835
      2833      2845      2845      2846      2845      2847      2845      2848
      2848      2849      2848      2850      2848      2851      2851      2852
      2851      2853      2851      2854      2854      2855      2854      2856
      2854      2857      2857      2858      2857      2859      2857      2860
      2860      2861      2860      2862      2860      2863      2863      2864
      2863      2868      2863      2865      2868      2869      2868      2870
      2868      2865      2870      2871      2870      2872      2870      2873
      2873      2874      2873      2875      2873      2876      2876      2877
      2876      2878      2876      2879      2879      2880      2879      2881
      2879      2882      2882      2883      2882      2884      2882      2885
      2885      2886      2885      2887      2885      2888      2865      2866
      2865      2867      2839      2840      2840      2842      2840      2841
      2842      2843      2842      2844      2842      2889      2889      2890
      2889      2891      2889      2892      2892      2893      2892      2894
      2892      2895      2895      2896      2895      2897      2895      2898
      2898      2899      2898      2900      2898      2901      2901      2902
      2901      2903      2901      2904      2904      2905      2904      2906
      2904      2907      2907      2908      2907      2909      2907      2910
      2910      2911      2910      2912      2910      2913      2913      2914
      2913      2915      2913      2916      2916      2917      2916      2918
      2916      2919      2919      2920      2919      2921      2919      2922
      2922      2923      2922      2924      2922      2925      2925      2926
      2925      2927      2925      2928      2928      2929      2928      2930
      2928      2931      2932      2933      2932      2934      2932      2935
      2932      2936      2936      2937      2936      2938      2936      2939
      2939      2940      2939      2941      2939      2946      2946      2942
      2942      2945      2942      2943      2942      2944      2947      2948
      2947      2949      2947      2950      2947      2945      2950      2951
      2950      2958      2950      2952      2958      2959      2958      2960
      2958      2961      2952      2953      2953      2955      2953      2954
      2955      2956      2955      2957      2955      2967      2967      2968
      2967      2969      2967      2970      2970      2971      2970      2972
      2970      2973      2973      2974      2973      2975      2973      2976
      2976      2977      2976      2978      2976      2979      2979      2980
      2979      2981      2979      2982      2982      2983      2982      2984
      2982      2985      2985      2986      2985      2990      2985      2987
      2990      2991      2990      2992      2990      2987      2992      2993
      2992      2994      2992      2995      2995      2996      2995      2997
      2995      2998      2998      2999      2998      3000      2998      3001
      3001      3002      3001      3003      3001      3004      3004      3005
      3004      3006      3004      3007      3007      3008      3007      3009
      3007      3010      2987      2988      2987      2989      2961      2962
      2962      2964      2962      2963      2964      2965      2964      2966
      2964      3011      3011      3012      3011      3013      3011      3014
      3014      3015      3014      3016      3014      3017      3017      3018
      3017      3019      3017      3020      3020      3021      3020      3022
      3020      3023      3023      3024      3023      3025      3023      3026
      3026      3027      3026      3028      3026      3029      3029      3030
      3029      3031      3029      3032      3032      3033      3032      3034
      3032      3035      3035      3036      3035      3037      3035      3038
      3038      3039      3038      3040      3038      3041      3041      3042
      3041      3043      3041      3044      3044      3045      3044      3046
      3044      3047      3047      3048      3047      3049      3047      3050
      3050      3051      3050      3052      3050      3053      3054      3055
      3054      3056      3054      3057      3054      3058      3058      3059
      3058      3060      3058      3061      3061      3062      3061      3063
      3061      3068      3068      3064      3064      3067      3064      3065
      3064      3066      3069      3070      3069      3071      3069      3072
      3069      3067      3072      3073      3072      3080      3072      3074
      3080      3081      3080      3082      3080      3083      3074      3075
      3075      3077      3075      3076      3077      3078      3077      3079
      3077      3089      3089      3090      3089      3091      3089      3092
      3092      3093      3092      3094      3092      3095      3095      3096
      3095      3097      3095      3098      3098      3099      3098      3100
      3098      3101      3101      3102      3101      3103      3101      3104
      3104      3105      3104      3106      3104      3107      3107      3108
      3107      3112      3107      3109      3112      3113      3112      3114
      3112      3109      3114      3115      3114      3116      3114      3117
      3117      3118      3117      3119      3117      3120      3120      3121
      3120      3122      3120      3123      3123      3124      3123      3125
      3123      3126      3126      3127      3126      3128      3126      3129
      3129      3130      3129      3131      3129      3132      3109      3110
      3109      3111      3083      3084      3084      3086      3084      3085
      3086      3087      3086      3088      3086      3133      3133      3134
      3133      3135      3133      3136      3136      3137      3136      3138
      3136      3139      3139      3140      3139      3141      3139      3142
      3142      3143      3142      3144      3142      3145      3145      3146
      3145      3147      3145      3148      3148      3149      3148      3150
      3148      3151      3151      3152      3151      3153      3151      3154
      3154      3155      3154      3156      3154      3157      3157      3158
      3157      3159      3157      3160      3160      3161      3160      3162
      3160      3163      3163      3164      3163      3165      3163      3166
      3166      3167      3166      3168      3166      3169      3169      3170
      3169      3171      3169      3172      3172      3173      3172      3174
      3172      3175      3176      3177      3176      3178      3176      3179
      3176      3180      3180      3181      3180      3182      3180      3183
      3183      3184      3183      3185      3183      3190      3190      3186
      3186      3189      3186      3187      3186      3188      3191      3192
      3191      3193      3191      3194      3191      3189      3194      3195
      3194      3202      3194      3196      3202      3203      3202      3204
      3202      3205      3196      3197      3197      3199      3197      3198
      3199      3200      3199      3201      3199      3211      3211      3212
      3211      3213      3211      3214      3214      3215      3214      3216
      3214      3217      3217      3218      3217      3219      3217      3220
      3220      3221      3220      3222      3220      3223      3223      3224
      3223      3225      3223      3226      3226      3227      3226      3228
      3226      3229      3229      3230      3229      3234      3229      3231
      3234      3235      3234      3236      3234      3231      3236      3237
      3236      3238      3236      3239      3239      3240      3239      3241
      3239      3242      3242      3243      3242      3244      3242      3245
      3245      3246      3245      3247      3245      3248      3248      3249
      3248      3250      3248      3251      3251      3252      3251      3253
      3251      3254      3231      3232      3231      3233      3205      3206
      3206      3208      3206      3207      3208      3209      3208      3210
      3208      3255      3255      3256      3255      3257      3255      3258
      3258      3259      3258      3260      3258      3261      3261      3262
      3261      3263      3261      3264      3264      3265      3264      3266
      3264      3267      3267      3268      3267      3269      3267      3270
      3270      3271      3270      3272      3270      3273      3273      3274
      3273      3275      3273      3276      3276      3277      3276      3278
      3276      3279      3279      3280      3279      3281      3279      3282
      3282      3283      3282      3284      3282      3285      3285      3286
      3285      3287      3285      3288      3288      3289      3288      3290
      3288      3291      3291      3292      3291      3293      3291      3294
      3294      3295      3294      3296      3294      3297      3298      3299
      3298      3300      3298      3301      3298      3302      3302      3303
      3302      3304      3302      3305      3305      3306      3305      3307
      3305      3312      3312      3308      3308      3311      3308      3309
      3308      3310      3313      3314      3313      3315      3313      3316
      3313      3311      3316      3317      3316      3324      3316      3318
      3324      3325      3324      3326      3324      3327      3318      3319
      3319      3321      3319      3320      3321      3322      3321      3323
      3321      3333      3333      3334      3333      3335      3333      3336
      3336      3337      3336      3338      3336      3339      3339      3340
      3339      3341      3339      3342      3342      3343      3342      3344
      3342      3345      3345      3346      3345      3347      3345      3348
      3348      3349      3348      3350      3348      3351      3351      3352
      3351      3356      3351      3353      3356      3357      3356      3358
      3356      3353      3358      3359      3358      3360      3358      3361
      3361      3362      3361      3363      3361      3364      3364      3365
      3364      3366      3364      3367      3367      3368      3367      3369
      3367      3370      3370      3371      3370      3372      3370      3373
      3373      3374      3373      3375      3373      3376      3353      3354
      3353      3355      3327      3328      3328      3330      3328      3329
      3330      3331      3330      3332      3330      3377      3377      3378
      3377      3379      3377      3380      3380      3381      3380      3382
      3380      3383      3383      3384      3383      3385      3383      3386
      3386      3387      3386      3388      3386      3389      3389      3390
      3389      3391      3389      3392      3392      3393      3392      3394
      3392      3395      3395      3396      3395      3397      3395      3398
      3398      3399      3398      3400      3398      3401      3401      3402
      3401      3403      3401      3404      3404      3405      3404      3406
      3404      3407      3407      3408      3407      3409      3407      3410
      3410      3411      3410      3412      3410      3413      3413      3414
      3413      3415      3413      3416      3416      3417      3416      3418
      3416      3419      3424      3423      3423      3420      3420      3421
      3420      3422      3420      3425      3428      3427      3427      3425
      3425      3426      3425      3429      3429      3430      3429      3431
      3429      3436      3436      3432      3432      3435      3432      3433
      3432      3434      3437      3438      3437      3439      3437      3440
      3437      3435      3440      3441      3440      3448      3440      3442
      3448      3449      3448      3450      3448      3451      3442      3443
      3443      3445      3443      3444      3445      3446      3445      3447
      3445      3457      3457      3458      3457      3459      3457      3460
      3460      3461      3460      3462      3460      3463      3463      3464
      3463      3465      3463      3466      3466      3467      3466      3468
      3466      3469      3469      3470      3469      3471      3469      3472
      3472      3473      3472      3474      3472      3475      3475      3476
      3475      3480      3475      3477      3480      3481      3480      3482
      3480      3477      3482      3483      3482      3484      3482      3485
      3485      3486      3485      3487      3485      3488      3488      3489
      3488      3490      3488      3491      3491      3492      3491      3493
      3491      3494      3494      3495      3494      3496      3494      3497
      3497      3498      3497      3499      3497      3500      3477      3478
      3477      3479      3451      3452      3452      3454      3452      3453
      3454      3455      3454      3456      3454      3501      3501      3502
      3501      3503      3501      3504      3504      3505      3504      3506
      3504      3507      3507      3508      3507      3509      3507      3510
      3510      3511      3510      3512      3510      3513      3513      3514
      3513      3515      3513      3516      3516      3517      3516      3518
      3516      3519      3519      3520      3519      3521      3519      3522
      3522      3523      3522      3524      3522      3525      3525      3526
      3525      3527      3525      3528      3528      3529      3528      3530
      3528      3531      3531      3532      3531      3533      3531      3534
      3534      3535      3534      3536      3534      3537      3537      3538
      3537      3539      3537      3540      3540      3541      3540      3542
      3540      3543      3544      3545      3544      3546      3544      3547
      3544      3548      3548      3549      3548      3550      3548      3551
      3551      3552      3551      3553      3551      3558      3558      3554
      3554      3557      3554      3555      3554      3556      3559      3560
      3559      3561      3559      3562      3559      3557      3562      3563
      3562      3570      3562      3564      3570      3571      3570      3572
      3570      3573      3564      3565      3565      3567      3565      3566
      3567      3568      3567      3569      3567      3579      3579      3580
      3579      3581      3579      3582      3582      3583      3582      3584
      3582      3585      3585      3586      3585      3587      3585      3588
      3588      3589      3588      3590      3588      3591      3591      3592
      3591      3593      3591      3594      3594      3595      3594      3596
      3594      3597      3597      3598      3597      3602      3597      3599
      3602      3603      3602      3604      3602      3599      3604      3605
      3604      3606      3604      3607      3607      3608      3607      3609
      3607      3610      3610      3611      3610      3612      3610      3613
      3613      3614      3613      3615      3613      3616      3616      3617
      3616      3618      3616      3619      3619      3620      3619      3621
      3619      3622      3599      3600      3599      3601      3573      3574
      3574      3576      3574      3575      3576      3577      3576      3578
      3576      3623      3623      3624      3623      3625      3623      3626
      3626      3627      3626      3628      3626      3629      3629      3630
      3629      3631      3629      3632      3632      3633      3632      3634
      3632      3635      3635      3636      3635      3637      3635      3638
      3638      3639      3638      3640      3638      3641      3641      3642
      3641      3643      3641      3644      3644      3645      3644      3646
      3644      3647      3647      3648      3647      3649      3647      3650
      3650      3651      3650      3652      3650      3653      3653      3654
      3653      3655      3653      3656      3656      3657      3656      3658
      3656      3659      3659      3660      3659      3661      3659      3662
      3662      3663      3662      3664      3662      3665      3670      3669
      3669      3666      3666      3667      3666      3668      3666      3671
      3674      3673      3673      3671      3671      3672      3671      3675
      3675      3676      3675      3677      3675      3682      3682      3678
      3678      3681      3678      3679      3678      3680      3683      3684
      3683      3685      3683      3686      3683      3681      3686      3687
      3686      3694      3686      3688      3694      3695      3694      3696
      3694      3697      3688      3689      3689      3691      3689      3690
      3691      3692      3691      3693      3691      3703      3703      3704
      3703      3705      3703      3706      3706      3707      3706      3708
      3706      3709      3709      3710      3709      3711      3709      3712
      3712      3713      3712      3714      3712      3715      3715      3716
      3715      3717      3715      3718      3718      3719      3718      3720
      3718      3721      3721      3722      3721      3723      3723      3724
      3723      3725      3725      3726      3725      3727      3725      3728
      3728      3729      3728      3730      3728      3731      3731      3732
      3731      3733      3731      3734      3734      3735      3734      3736
      3734      3737      3737      3738      3737      3739      3737      3740
      3740      3741      3740      3742      3740      3743      3697      3698
      3698      3700      3698      3699      3700      3701      3700      3702
      3700      3744      3744      3745      3744      3746      3744      3747
      3747      3748      3747      3749      3747      3750      3750      3751
      3750      3752      3750      3753      3753      3754      3753      3755
      3753      3756      3756      3757      3756      3758      3756      3759
      3759      3760      3759      3761      3759      3762      3762      3763
      3762      3764      3762      3765      3765      3766      3765      3767
      3765      3768      3768      3769      3768      3770      3768      3771
      3771      3772      3771      3773      3771      3774      3774      3775
      3774      3776      3774      3777      3777      3778      3777      3779
      3777      3780      3780      3781      3780      3782      3780      3783
      3783      3784      3783      3785      3783      3786      3787      3788
      3787      3789      3787      3790      3787      3791      3791      3792
      3791      3793      3791      3794      3794      3795      3794      3796
      3794      3801      3801      3797      3797      3800      3797      3798
      3797      3799      3802      3803      3802      3804      3802      3805
      3802      3800      3805      3806      3805      3813      3805      3807
      3813      3814      3813      3815      3813      3816      3807      3808
      3808      3810      3808      3809      3810      3811      3810      3812
      3810      3822      3822      3823      3822      3824      3822      3825
      3825      3826      3825      3827      3825      3828      3828      3829
      3828      3830      3828      3831      3831      3832      3831      3833
      3831      3834      3834      3835      3834      3836      3834      3837
      3837      3838      3837      3839      3837      3840      3840      3841
      3840      3842      3842      3843      3842      3844      3844      3845
      3844      3846      3844      3847      3847      3848      3847      3849
      3847      3850      3850      3851      3850      3852      3850      3853
      3853      3854      3853      3855      3853      3856      3856      3857
      3856      3858      3856      3859      3859      3860      3859      3861
      3859      3862      3816      3817      3817      3819      3817      3818
      3819      3820      3819      3821      3819      3863      3863      3864
      3863      3865      3863      3866      3866      3867      3866      3868
      3866      3869      3869      3870      3869      3871      3869      3872
      3872      3873      3872      3874      3872      3875      3875      3876
      3875      3877      3875      3878      3878      3879      3878      3880
      3878      3881      3881      3882      3881      3883      3883      3884
      3883      3885      3885      3886      3885      3887      3885      3888
      3888      3889      3888      3890      3888      3891      3891      3892
      3891      3893      3891      3894      3894      3895      3894      3896
      3894      3897      3897      3898      3897      3899      3897      3900
      3900      3901      3900      3902      3900      3903      3903      3904
      3903      3905      3903      3906      3906      3907      3906      3908
      3906      3909      3910      3911      3910      3912      3910      3913
      3910      3914      3914      3915      3914      3916      3914      3917
      3917      3918      3917      3919      3917      3924      3924      3920
      3920      3923      3920      3921      3920      3922      3925      3926
      3925      3927      3925      3928      3925      3923      3928      3929
      3928      3936      3928      3930      3936      3937      3936      3938
      3936      3939      3930      3931      3931      3933      3931      3932
      3933      3934      3933      3935      3933      3945      3945      3946
      3945      3947      3945      3948      3948      3949      3948      3950
      3948      3951      3951      3952      3951      3953      3951      3954
      3954      3955      3954      3956      3954      3957      3957      3958
      3957      3959      3957      3960      3960      3961      3960      3962
      3960      3963      3963      3964      3963      3965      3965      3966
      3965      3967      3967      3968      3967      3969      3967      3970
      3970      3971      3970      3972      3970      3973      3973      3974
      3973      3975      3973      3976      3976      3977      3976      3978
      3976      3979      3979      3980      3979      3981      3979      3982
      3982      3983      3982      3984      3982      3985      3939      3940
      3940      3942      3940      3941      3942      3943      3942      3944
      3942      3986      3986      3987      3986      3988      3986      3989
      3989      3990      3989      3991      3989      3992      3992      3993
      3992      3994      3992      3995      3995      3996      3995      3997
      3995      3998      3998      3999      3998      4000      3998      4001
      4001      4002      4001      4003      4001      4004      4004      4005
      4004      4006      4006      4007      4006      4008      4008      4009
      4008      4010      4008      4011      4011      4012      4011      4013
      4011      4014      4014      4015      4014      4016      4014      4017
      4017      4018      4017      4019      4017      4020      4020      4021
      4020      4022      4020      4023      4023      4024      4023      4025
      4023      4026      4026      4027      4026      4028      4026      4029
      4029      4030      4029      4031      4029      4032      4037      4036
      4036      4033      4033      4034      4033      4035      4033      4038
      4041      4040      4040      4038      4038      4039      4038      4042
      4042      4043      4042      4044      4042      4049      4049      4045
      4045      4048      4045      4046      4045      4047      4050      4051
      4050      4052      4050      4053      4050      4048      4053      4054
      4053      4061      4053      4055      4061      4062      4061      4063
      4061      4064      4055      4056      4056      4058      4056      4057
      4058      4059      4058      4060      4058      4070      4070      4071
      4070      4072      4070      4073      4073      4074      4073      4075
      4073      4076      4076      4077      4076      4078      4076      4079
      4079      4080      4079      4081      4079      4082      4082      4083
      4082      4084      4082      4085      4085      4086      4085      4087
      4085      4088      4088      4089      4088      4093      4088      4090
      4093      4094      4093      4095      4093      4090      4095      4096
      4095      4097      4095      4098      4098      4099      4098      4100
      4098      4101      4101      4102      4101      4103      4101      4104
      4104      4105      4104      4106      4104      4107      4107      4108
      4107      4109      4107      4110      4110      4111      4110      4112
      4110      4113      4090      4091      4090      4092      4064      4065
      4065      4067      4065      4066      4067      4068      4067      4069
      4067      4114      4114      4115      4114      4116      4114      4117
      4117      4118      4117      4119      4117      4120      4120      4121
      4120      4122      4120      4123      4123      4124      4123      4125
      4123      4126      4126      4127      4126      4128      4126      4129
      4129      4130      4129      4131      4129      4132      4132      4133
      4132      4134      4132      4135      4135      4136      4135      4137
      4135      4138      4138      4139      4138      4140      4138      4141
      4141      4142      4141      4143      4141      4144      4144      4145
      4144      4146      4144      4147      4147      4148      4147      4149
      4147      4150      4150      4151      4150      4152      4150      4153
      4153      4154      4153      4155      4153      4156      4157      4158
      4157      4159      4157      4160      4157      4161      4161      4162
      4161      4163      4161      4164      4164      4165      4164      4166
      4164      4171      4171      4167      4167      4170      4167      4168
      4167      4169      4172      4173      4172      4174      4172      4175
      4172      4170      4175      4176      4175      4183      4175      4177
      4183      4184      4183      4185      4183      4186      4177      4178
      4178      4180      4178      4179      4180      4181      4180      4182
      4180      4192      4192      4193      4192      4194      4192      4195
      4195      4196      4195      4197      4195      4198      4198      4199
      4198      4200      4198      4201      4201      4202      4201      4203
      4201      4204      4204      4205      4204      4206      4204      4207
      4207      4208      4207      4209      4207      4210      4210      4211
      4210      4215      4210      4212      4215      4216      4215      4217
      4215      4212      4217      4218      4217      4219      4217      4220
      4220      4221      4220      4222      4220      4223      4223      4224
      4223      4225      4223      4226      4226      4227      4226      4228
      4226      4229      4229      4230      4229      4231      4229      4232
      4232      4233      4232      4234      4232      4235      4212      4213
      4212      4214      4186      4187      4187      4189      4187      4188
      4189      4190      4189      4191      4189      4236      4236      4237
      4236      4238      4236      4239      4239      4240      4239      4241
      4239      4242      4242      4243      4242      4244      4242      4245
      4245      4246      4245      4247      4245      4248      4248      4249
      4248      4250      4248      4251      4251      4252      4251      4253
      4251      4254      4254      4255      4254      4256      4254      4257
      4257      4258      4257      4259      4257      4260      4260      4261
      4260      4262      4260      4263      4263      4264      4263      4265
      4263      4266      4266      4267      4266      4268      4266      4269
      4269      4270      4269      4271      4269      4272      4272      4273
      4272      4274      4272      4275      4275      4276      4275      4277
      4275      4278      4279      4280      4279      4281      4279      4282
      4279      4283      4283      4284      4283      4285      4283      4286
      4286      4287      4286      4288      4286      4293      4293      4289
      4289      4292      4289      4290      4289      4291      4294      4295
      4294      4296      4294      4297      4294      4292      4297      4298
      4297      4305      4297      4299      4305      4306      4305      4307
      4305      4308      4299      4300      4300      4302      4300      4301
      4302      4303      4302      4304      4302      4314      4314      4315
      4314      4316      4314      4317      4317      4318      4317      4319
      4317      4320      4320      4321      4320      4322      4320      4323
      4323      4324      4323      4325      4323      4326      4326      4327
      4326      4328      4326      4329      4329      4330      4329      4331
      4329      4332      4332      4333      4332      4334      4334      4335
      4334      4336      4336      4337      4336      4338      4336      4339
      4339      4340      4339      4341      4339      4342      4342      4343
      4342      4344      4342      4345      4345      4346      4345      4347
      4345      4348      4348      4349      4348      4350      4348      4351
      4351      4352      4351      4353      4351      4354      4354      4355
      4354      4356      4354      4357      4357      4358      4357      4359
      4357      4360      4308      4309      4309      4311      4309      4310
      4311      4312      4311      4313      4311      4361      4361      4362
      4361      4363      4361      4364      4364      4365      4364      4366
      4364      4367      4367      4368      4367      4369      4367      4370
      4370      4371      4370      4372      4370      4373      4373      4374
      4373      4375      4373      4376      4376      4377      4376      4378
      4376      4379      4379      4380      4379      4381      4379      4382
      4382      4383      4382      4384      4382      4385      4385      4386
      4385      4387      4385      4388      4388      4389      4388      4390
      4388      4391      4391      4392      4391      4393      4391      4394
      4394      4395      4394      4396      4394      4397      4397      4398
      4397      4399      4397      4400      4400      4401      4400      4402
      4400      4403      4404      4405      4404      4406      4404      4407
      4404      4408      4408      4409      4408      4410      4408      4411
      4411      4412      4411      4413      4411      4418      4418      4414
      4414      4417      4414      4415      4414      4416      4419      4420
      4419      4421      4419      4422      4419      4417      4422      4423
      4422      4430      4422      4424      4430      4431      4430      4432
      4430      4433      4424      4425      4425      4427      4425      4426
      4427      4428      4427      4429      4427      4439      4439      4440
      4439      4441      4439      4442      4442      4443      4442      4444
      4442      4445      4445      4446      4445      4447      4445      4448
      4448      4449      4448      4450      4448      4451      4451      4452
      4451      4453      4451      4454      4454      4455      4454      4456
      4454      4457      4457      4458      4457      4459      4459      4460
      4459      4461      4461      4462      4461      4463      4461      4464
      4464      4465      4464      4466      4464      4467      4467      4468
      4467      4469      4467      4470      4470      4471      4470      4472
      4470      4473      4473      4474      4473      4475      4473      4476
      4476      4477      4476      4478      4476      4479      4433      4434
      4434      4436      4434      4435      4436      4437      4436      4438
      4436      4480      4480      4481      4480      4482      4480      4483
      4483      4484      4483      4485      4483      4486      4486      4487
      4486      4488      4486      4489      4489      4490      4489      4491
      4489      4492      4492      4493      4492      4494      4492      4495
      4495      4496      4495      4497      4495      4498      4498      4499
      4498      4500      4500      4501      4500      4502      4502      4503
      4502      4504      4502      4505      4505      4506      4505      4507
      4505      4508      4508      4509      4508      4510      4508      4511
      4511      4512      4511      4513      4511      4514      4514      4515
      4514      4516      4514      4517      4517      4518      4517      4519
      4517      4520      4520      4521      4520      4522      4520      4523
      4523      4524      4523      4525      4523      4526      4527      4528
      4527      4529      4527      4530      4527      4531      4531      4532
      4531      4533      4531      4534      4534      4535      4534      4536
      4534      4541      4541      4537      4537      4540      4537      4538
      4537      4539      4542      4543      4542      4544      4542      4545
      4542      4540      4545      4546      4545      4553      4545      4547
      4553      4554      4553      4555      4553      4556      4547      4548
      4548      4550      4548      4549      4550      4551      4550      4552
      4550      4562      4562      4563      4562      4564      4562      4565
      4565      4566      4565      4567      4565      4568      4568      4569
      4568      4570      4568      4571      4571      4572      4571      4573
      4571      4574      4574      4575      4574      4576      4574      4577
      4577      4578      4577      4579      4577      4580      4580      4581
      4580      4585      4580      4582      4585      4586      4585      4587
      4585      4582      4587      4588      4587      4589      4587      4590
      4590      4591      4590      4592      4590      4593      4593      4594
      4593      4595      4593      4596      4596      4597      4596      4598
      4596      4599      4599      4600      4599      4601      4599      4602
      4602      4603      4602      4604      4602      4605      4582      4583
      4582      4584      4556      4557      4557      4559      4557      4558
      4559      4560      4559      4561      4559      4606      4606      4607
      4606      4608      4606      4609      4609      4610      4609      4611
      4609      4612      4612      4613      4612      4614      4612      4615
      4615      4616      4615      4617      4615      4618      4618      4619
      4618      4620      4618      4621      4621      4622      4621      4623
      4621      4624      4624      4625      4624      4626      4624      4627
      4627      4628      4627      4629      4627      4630      4630      4631
      4630      4632      4630      4633      4633      4634      4633      4635
      4633      4636      4636      4637      4636      4638      4636      4639
      4639      4640      4639      4641      4639      4642      4642      4643
      4642      4644      4642      4645      4645      4646      4645      4647
      4645      4648      4649      4650      4649      4651      4649      4652
      4649      4653      4653      4654      4653      4655      4653      4656
      4656      4657      4656      4658      4656      4663      4663      4659
      4659      4662      4659      4660      4659      4661      4664      4665
      4664      4666      4664      4667      4664      4662      4667      4668
      4667      4675      4667      4669      4675      4676      4675      4677
      4675      4678      4669      4670      4670      4672      4670      4671
      4672      4673      4672      4674      4672      4684      4684      4685
      4684      4686      4684      4687      4687      4688      4687      4689
      4687      4690      4690      4691      4690      4692      4690      4693
      4693      4694      4693      4695      4693      4696      4696      4697
      4696      4698      4696      4699      4699      4700      4699      4701
      4699      4702      4702      4703      4702      4707      4702      4704
      4707      4708      4707      4709      4707      4704      4709      4710
      4709      4711      4709      4712      4712      4713      4712      4714
      4712      4715      4715      4716      4715      4717      4715      4718
      4718      4719      4718      4720      4718      4721      4721      4722
      4721      4723      4721      4724      4724      4725      4724      4726
      4724      4727      4704      4705      4704      4706      4678      4679
      4679      4681      4679      4680      4681      4682      4681      4683
      4681      4728      4728      4729      4728      4730      4728      4731
      4731      4732      4731      4733      4731      4734      4734      4735
      4734      4736      4734      4737      4737      4738      4737      4739
      4737      4740      4740      4741      4740      4742      4740      4743
      4743      4744      4743      4745      4743      4746      4746      4747
      4746      4748      4746      4749      4749      4750      4749      4751
      4749      4752      4752      4753      4752      4754      4752      4755
      4755      4756      4755      4757      4755      4758      4758      4759
      4758      4760      4758      4761      4761      4762      4761      4763
      4761      4764      4764      4765      4764      4766      4764      4767
      4767      4768      4767      4769      4767      4770      4775      4774
      4774      4771      4771      4772      4771      4773      4771      4776
      4779      4778      4778      4776      4776      4777      4776      4780
      4780      4781      4780      4782      4780      4787      4787      4783
      4783      4786      4783      4784      4783      4785      4788      4789
      4788      4790      4788      4791      4788      4786      4791      4792
      4791      4799      4791      4793      4799      4800      4799      4801
      4799      4802      4793      4794      4794      4796      4794      4795
      4796      4797      4796      4798      4796      4808      4808      4809
      4808      4810      4808      4811      4811      4812      4811      4813
      4811      4814      4814      4815      4814      4816      4814      4817
      4817      4818      4817      4819      4817      4820      4820      4821
      4820      4822      4820      4823      4823      4824      4823      4825
      4823      4826      4826      4827      4826      4831      4826      4828
      4831      4832      4831      4833      4831      4828      4833      4834
      4833      4835      4833      4836      4836      4837      4836      4838
      4836      4839      4839      4840      4839      4841      4839      4842
      4842      4843      4842      4844      4842      4845      4845      4846
      4845      4847      4845      4848      4848      4849      4848      4850
      4848      4851      4828      4829      4828      4830      4802      4803
      4803      4805      4803      4804      4805      4806      4805      4807
      4805      4852      4852      4853      4852      4854      4852      4855
      4855      4856      4855      4857      4855      4858      4858      4859
      4858      4860      4858      4861      4861      4862      4861      4863
      4861      4864      4864      4865      4864      4866      4864      4867
      4867      4868      4867      4869      4867      4870      4870      4871
      4870      4872      4870      4873      4873      4874      4873      4875
      4873      4876      4876      4877      4876      4878      4876      4879
      4879      4880      4879      4881      4879      4882      4882      4883
      4882      4884      4882      4885      4885      4886      4885      4887
      4885      4888      4888      4889      4888      4890      4888      4891
      4891      4892      4891      4893      4891      4894      4895      4896
      4895      4897      4895      4898      4895      4899      4899      4900
      4899      4901      4899      4902      4902      4903      4902      4904
      4902      4909      4909      4905      4905      4908      4905      4906
      4905      4907      4910      4911      4910      4912      4910      4913
      4910      4908      4913      4914      4913      4921      4913      4915
      4921      4922      4921      4923      4921      4924      4915      4916
      4916      4918      4916      4917      4918      4919      4918      4920
      4918      4930      4930      4931      4930      4932      4930      4933
      4933      4934      4933      4935      4933      4936      4936      4937
      4936      4938      4936      4939      4939      4940      4939      4941
      4939      4942      4942      4943      4942      4944      4942      4945
      4945      4946      4945      4947      4945      4948      4948      4949
      4948      4953      4948      4950      4953      4954      4953      4955
      4953      4950      4955      4956      4955      4957      4955      4958
      4958      4959      4958      4960      4958      4961      4961      4962
      4961      4963      4961      4964      4964      4965      4964      4966
      4964      4967      4967      4968      4967      4969      4967      4970
      4970      4971      4970      4972      4970      4973      4950      4951
      4950      4952      4924      4925      4925      4927      4925      4926
      4927      4928      4927      4929      4927      4974      4974      4975
      4974      4976      4974      4977      4977      4978      4977      4979
      4977      4980      4980      4981      4980      4982      4980      4983
      4983      4984      4983      4985      4983      4986      4986      4987
      4986      4988      4986      4989      4989      4990      4989      4991
      4989      4992      4992      4993      4992      4994      4992      4995
      4995      4996      4995      4997      4995      4998      4998      4999
      4998      5000      4998      5001      5001      5002      5001      5003
      5001      5004      5004      5005      5004      5006      5004      5007
      5007      5008      5007      5009      5007      5010      5010      5011
      5010      5012      5010      5013      5014      5015      5014      5016
      5014      5017      5014      5018      5018      5019      5018      5020
      5018      5021      5021      5022      5021      5023      5021      5028
      5028      5024      5024      5027      5024      5025      5024      5026
      5029      5030      5029      5031      5029      5032      5029      5027
      5032      5033      5032      5040      5032      5034      5040      5041
      5040      5042      5040      5043      5034      5035      5035      5037
      5035      5036      5037      5038      5037      5039      5037      5049
      5049      5050      5049      5051      5049      5052      5052      5053
      5052      5054      5052      5055      5055      5056      5055      5057
      5055      5058      5058      5059      5058      5060      5058      5061
      5061      5062      5061      5063      5061      5064      5064      5065
      5064      5066      5064      5067      5067      5068      5067      5072
      5067      5069      5072      5073      5072      5074      5072      5069
      5074      5075      5074      5076      5074      5077      5077      5078
      5077      5079      5077      5080      5080      5081      5080      5082
      5080      5083      5083      5084      5083      5085      5083      5086
      5086      5087      5086      5088      5086      5089      5089      5090
      5089      5091      5089      5092      5069      5070      5069      5071
      5043      5044      5044      5046      5044      5045      5046      5047
      5046      5048      5046      5093      5093      5094      5093      5095
      5093      5096      5096      5097      5096      5098      5096      5099
      5099      5100      5099      5101      5099      5102      5102      5103
      5102      5104      5102      5105      5105      5106      5105      5107
      5105      5108      5108      5109      5108      5110      5108      5111
      5111      5112      5111      5113      5111      5114      5114      5115
      5114      5116      5114      5117      5117      5118      5117      5119
      5117      5120      5120      5121      5120      5122      5120      5123
      5123      5124      5123      5125      5123      5126      5126      5127
      5126      5128      5126      5129      5129      5130      5129      5131
      5129      5132      5132      5133      5132      5134      5132      5135
      5136      5137      5136      5138      5136      5139      5136      5140
      5140      5141      5140      5142      5140      5143      5143      5144
      5143      5145      5143      5150      5150      5146      5146      5149
      5146      5147      5146      5148      5151      5152      5151      5153
      5151      5154      5151      5149      5154      5155      5154      5162
      5154      5156      5162      5163      5162      5164      5162      5165
      5156      5157      5157      5159      5157      5158      5159      5160
      5159      5161      5159      5171      5171      5172      5171      5173
      5171      5174      5174      5175      5174      5176      5174      5177
      5177      5178      5177      5179      5177      5180      5180      5181
      5180      5182      5180      5183      5183      5184      5183      5185
      5183      5186      5186      5187      5186      5188      5186      5189
      5189      5190      5189      5194      5189      5191      5194      5195
      5194      5196      5194      5191      5196      5197      5196      5198
      5196      5199      5199      5200      5199      5201      5199      5202
      5202      5203      5202      5204      5202      5205      5205      5206
      5205      5207      5205      5208      5208      5209      5208      5210
      5208      5211      5211      5212      5211      5213      5211      5214
      5191      5192      5191      5193      5165      5166      5166      5168
      5166      5167      5168      5169      5168      5170      5168      5215
      5215      5216      5215      5217      5215      5218      5218      5219
      5218      5220      5218      5221      5221      5222      5221      5223
      5221      5224      5224      5225      5224      5226      5224      5227
      5227      5228      5227      5229      5227      5230      5230      5231
      5230      5232      5230      5233      5233      5234      5233      5235
      5233      5236      5236      5237      5236      5238      5236      5239
      5239      5240      5239      5241      5239      5242      5242      5243
      5242      5244      5242      5245      5245      5246      5245      5247
      5245      5248      5248      5249      5248      5250      5248      5251
      5251      5252      5251      5253      5251      5254      5255      5256
      5255      5257      5255      5258      5255      5259      5259      5260
      5259      5261      5259      5262      5262      5263      5262      5264
      5262      5269      5269      5265      5265      5268      5265      5266
      5265      5267      5270      5271      5270      5272      5270      5273
      5270      5268      5273      5274      5273      5281      5273      5275
      5281      5282      5281      5283      5281      5284      5275      5276
      5276      5278      5276      5277      5278      5279      5278      5280
      5278      5290      5290      5291      5290      5292      5290      5293
      5293      5294      5293      5295      5293      5296      5296      5297
      5296      5298      5296      5299      5299      5300      5299      5301
      5299      5302      5302      5303      5302      5304      5302      5305
      5305      5306      5305      5307      5305      5308      5308      5309
      5308      5313      5308      5310      5313      5314      5313      5315
      5313      5310      5315      5316      5315      5317      5315      5318
      5318      5319      5318      5320      5318      5321      5321      5322
      5321      5323      5321      5324      5324      5325      5324      5326
      5324      5327      5327      5328      5327      5329      5327      5330
      5330      5331      5330      5332      5330      5333      5310      5311
      5310      5312      5284      5285      5285      5287      5285      5286
      5287      5288      5287      5289      5287      5334      5334      5335
      5334      5336      5334      5337      5337      5338      5337      5339
      5337      5340      5340      5341      5340      5342      5340      5343
      5343      5344      5343      5345      5343      5346      5346      5347
      5346      5348      5346      5349      5349      5350      5349      5351
      5349      5352      5352      5353      5352      5354      5352      5355
      5355      5356      5355      5357      5355      5358      5358      5359
      5358      5360      5358      5361      5361      5362      5361      5363
      5361      5364      5364      5365      5364      5366      5364      5367
      5367      5368      5367      5369      5367      5370      5370      5371
      5370      5372      5370      5373      5373      5374      5373      5375
      5373      5376      5377      5378      5377      5379      5377      5380
      5377      5381      5381      5382      5381      5383      5381      5384
      5384      5385      5384      5386      5384      5391      5391      5387
      5387      5390      5387      5388      5387      5389      5392      5393
      5392      5394      5392      5395      5392      5390      5395      5396
      5395      5403      5395      5397      5403      5404      5403      5405
      5403      5406      5397      5398      5398      5400      5398      5399
      5400      5401      5400      5402      5400      5412      5412      5413
      5412      5414      5412      5415      5415      5416      5415      5417
      5415      5418      5418      5419      5418      5420      5418      5421
      5421      5422      5421      5423      5421      5424      5424      5425
      5424      5426      5424      5427      5427      5428      5427      5429
      5427      5430      5430      5431      5430      5435      5430      5432
      5435      5436      5435      5437      5435      5432      5437      5438
      5437      5439      5437      5440      5440      5441      5440      5442
      5440      5443      5443      5444      5443      5445      5443      5446
      5446      5447      5446      5448      5446      5449      5449      5450
      5449      5451      5449      5452      5452      5453      5452      5454
      5452      5455      5432      5433      5432      5434      5406      5407
      5407      5409      5407      5408      5409      5410      5409      5411
      5409      5456      5456      5457      5456      5458      5456      5459
      5459      5460      5459      5461      5459      5462      5462      5463
      5462      5464      5462      5465      5465      5466      5465      5467
      5465      5468      5468      5469      5468      5470      5468      5471
      5471      5472      5471      5473      5471      5474      5474      5475
      5474      5476      5474      5477      5477      5478      5477      5479
      5477      5480      5480      5481      5480      5482      5480      5483
      5483      5484      5483      5485      5483      5486      5486      5487
      5486      5488      5486      5489      5489      5490      5489      5491
      5489      5492      5492      5493      5492      5494      5492      5495
      5495      5496      5495      5497      5495      5498      5499      5500
      5499      5501      5499      5502      5499      5503      5503      5504
      5503      5505      5503      5506      5506      5507      5506      5508
      5506      5513      5513      5509      5509      5512      5509      5510
      5509      5511      5514      5515      5514      5516      5514      5517
      5514      5512      5517      5518      5517      5525      5517      5519
      5525      5526      5525      5527      5525      5528      5519      5520
      5520      5522      5520      5521      5522      5523      5522      5524
      5522      5534      5534      5535      5534      5536      5534      5537
      5537      5538      5537      5539      5537      5540      5540      5541
      5540      5542      5540      5543      5543      5544      5543      5545
      5543      5546      5546      5547      5546      5548      5546      5549
      5549      5550      5549      5551      5549      5552      5552      5553
      5552      5557      5552      5554      5557      5558      5557      5559
      5557      5554      5559      5560      5559      5561      5559      5562
      5562      5563      5562      5564      5562      5565      5565      5566
      5565      5567      5565      5568      5568      5569      5568      5570
      5568      5571      5571      5572      5571      5573      5571      5574
      5574      5575      5574      5576      5574      5577      5554      5555
      5554      5556      5528      5529      5529      5531      5529      5530
      5531      5532      5531      5533      5531      5578      5578      5579
      5578      5580      5578      5581      5581      5582      5581      5583
      5581      5584      5584      5585      5584      5586      5584      5587
      5587      5588      5587      5589      5587      5590      5590      5591
      5590      5592      5590      5593      5593      5594      5593      5595
      5593      5596      5596      5597      5596      5598      5596      5599
      5599      5600      5599      5601      5599      5602      5602      5603
      5602      5604      5602      5605      5605      5606      5605      5607
      5605      5608      5608      5609      5608      5610      5608      5611
      5611      5612      5611      5613      5611      5614      5614      5615
      5614      5616      5614      5617      5617      5618      5617      5619
      5617      5620      5625      5624      5624      5621      5621      5622
      5621      5623      5621      5626      5629      5628      5628      5626
      5626      5627      5626      5630      5630      5631      5630      5632
      5630      5637      5637      5633      5633      5636      5633      5634
      5633      5635      5638      5639      5638      5640      5638      5641
      5638      5636      5641      5642      5641      5649      5641      5643
      5649      5650      5649      5651      5649      5652      5643      5644
      5644      5646      5644      5645      5646      5647      5646      5648
      5646      5658      5658      5659      5658      5660      5658      5661
      5661      5662      5661      5663      5661      5664      5664      5665
      5664      5666      5664      5667      5667      5668      5667      5669
      5667      5670      5670      5671      5670      5672      5670      5673
      5673      5674      5673      5675      5673      5676      5676      5677
      5676      5681      5676      5678      5681      5682      5681      5683
      5681      5678      5683      5684      5683      5685      5683      5686
      5686      5687      5686      5688      5686      5689      5689      5690
      5689      5691      5689      5692      5692      5693      5692      5694
      5692      5695      5695      5696      5695      5697      5695      5698
      5698      5699      5698      5700      5698      5701      5678      5679
      5678      5680      5652      5653      5653      5655      5653      5654
      5655      5656      5655      5657      5655      5702      5702      5703
      5702      5704      5702      5705      5705      5706      5705      5707
      5705      5708      5708      5709      5708      5710      5708      5711
      5711      5712      5711      5713      5711      5714      5714      5715
      5714      5716      5714      5717      5717      5718      5717      5719
      5717      5720      5720      5721      5720      5722      5720      5723
      5723      5724      5723      5725      5723      5726      5726      5727
      5726      5728      5726      5729      5729      5730      5729      5731
      5729      5732      5732      5733      5732      5734      5732      5735
      5735      5736      5735      5737      5735      5738      5738      5739
      5738      5740      5738      5741      5741      5742      5741      5743
      5741      5744      5749      5748      5748      5745      5745      5746
      5745      5747      5745      5750      5753      5752      5752      5750
      5750      5751      5750      5754      5754      5755      5754      5756
      5754      5761      5761      5757      5757      5760      5757      5758
      5757      5759      5762      5763      5762      5764      5762      5765
      5762      5760      5765      5766      5765      5773      5765      5767
      5773      5774      5773      5775      5773      5776      5767      5768
      5768      5770      5768      5769      5770      5771      5770      5772
      5770      5782      5782      5783      5782      5784      5782      5785
      5785      5786      5785      5787      5785      5788      5788      5789
      5788      5790      5788      5791      5791      5792      5791      5793
      5791      5794      5794      5795      5794      5796      5794      5797
      5797      5798      5797      5799      5797      5800      5800      5801
      5800      5802      5802      5803      5802      5804      5804      5805
      5804      5806      5804      5807      5807      5808      5807      5809
      5807      5810      5810      5811      5810      5812      5810      5813
      5813      5814      5813      5815      5813      5816      5816      5817
      5816      5818      5816      5819      5819      5820      5819      5821
      5819      5822      5776      5777      5777      5779      5777      5778
      5779      5780      5779      5781      5779      5823      5823      5824
      5823      5825      5823      5826      5826      5827      5826      5828
      5826      5829      5829      5830      5829      5831      5829      5832
      5832      5833      5832      5834      5832      5835      5835      5836
      5835      5837      5835      5838      5838      5839      5838      5840
      5838      5841      5841      5842      5841      5843      5841      5844
      5844      5845      5844      5846      5844      5847      5847      5848
      5847      5849      5847      5850      5850      5851      5850      5852
      5850      5853      5853      5854      5853      5855      5853      5856
      5856      5857      5856      5858      5856      5859      5859      5860
      5859      5861      5859      5862      5862      5863      5862      5864
      5862      5865      5870      5869      5869      5866      5866      5867
      5866      5868      5866      5871      5874      5873      5873      5871
      5871      5872      5871      5875      5875      5876      5875      5877
      5875      5882      5882      5878      5878      5881      5878      5879
      5878      5880      5883      5884      5883      5885      5883      5886
      5883      5881      5886      5887      5886      5894      5886      5888
      5894      5895      5894      5896      5894      5897      5888      5889
      5889      5891      5889      5890      5891      5892      5891      5893
      5891      5903      5903      5904      5903      5905      5903      5906
      5906      5907      5906      5908      5906      5909      5909      5910
      5909      5911      5909      5912      5912      5913      5912      5914
      5912      5915      5915      5916      5915      5917      5915      5918
      5918      5919      5918      5920      5918      5921      5921      5922
      5921      5926      5921      5923      5926      5927      5926      5928
      5926      5923      5928      5929      5928      5930      5928      5931
      5931      5932      5931      5933      5931      5934      5934      5935
      5934      5936      5934      5937      5937      5938      5937      5939
      5937      5940      5940      5941      5940      5942      5940      5943
      5943      5944      5943      5945      5943      5946      5923      5924
      5923      5925      5897      5898      5898      5900      5898      5899
      5900      5901      5900      5902      5900      5947      5947      5948
      5947      5949      5947      5950      5950      5951      5950      5952
      5950      5953      5953      5954      5953      5955      5953      5956
      5956      5957      5956      5958      5956      5959      5959      5960
      5959      5961      5959      5962      5962      5963      5962      5964
      5962      5965      5965      5966      5965      5967      5965      5968
      5968      5969      5968      5970      5968      5971      5971      5972
      5971      5973      5971      5974      5974      5975      5974      5976
      5974      5977      5977      5978      5977      5979      5977      5980
      5980      5981      5980      5982      5980      5983      5983      5984
      5983      5985      5983      5986      5986      5987      5986      5988
      5986      5989      5990      5991      5990      5992      5990      5993
      5990      5994      5994      5995      5994      5996      5994      5997
      5997      5998      5997      5999      5997      6004      6004      6000
      6000      6003      6000      6001      6000      6002      6005      6006
      6005      6007      6005      6008      6005      6003      6008      6009
      6008      6016      6008      6010      6016      6017      6016      6018
      6016      6019      6010      6011      6011      6013      6011      6012
      6013      6014      6013      6015      6013      6025      6025      6026
      6025      6027      6025      6028      6028      6029      6028      6030
      6028      6031      6031      6032      6031      6033      6031      6034
      6034      6035      6034      6036      6034      6037      6037      6038
      6037      6039      6037      6040      6040      6041      6040      6042
      6040      6043      6043      6044      6043      6048      6043      6045
      6048      6049      6048      6050      6048      6045      6050      6051
      6050      6052      6050      6053      6053      6054      6053      6055
      6053      6056      6056      6057      6056      6058      6056      6059
      6059      6060      6059      6061      6059      6062      6062      6063
      6062      6064      6062      6065      6065      6066      6065      6067
      6065      6068      6045      6046      6045      6047      6019      6020
      6020      6022      6020      6021      6022      6023      6022      6024
      6022      6069      6069      6070      6069      6071      6069      6072
      6072      6073      6072      6074      6072      6075      6075      6076
      6075      6077      6075      6078      6078      6079      6078      6080
      6078      6081      6081      6082      6081      6083      6081      6084
      6084      6085      6084      6086      6084      6087      6087      6088
      6087      6089      6087      6090      6090      6091      6090      6092
      6090      6093      6093      6094      6093      6095      6093      6096
      6096      6097      6096      6098      6096      6099      6099      6100
      6099      6101      6099      6102      6102      6103      6102      6104
      6102      6105      6105      6106      6105      6107      6105      6108
      6108      6109      6108      6110      6108      6111      6112      6113
      6112      6114      6112      6115      6112      6116      6116      6117
      6116      6118      6116      6119      6119      6120      6119      6121
      6119      6126      6126      6122      6122      6125      6122      6123
      6122      6124      6127      6128      6127      6129      6127      6130
      6127      6125      6130      6131      6130      6138      6130      6132
      6138      6139      6138      6140      6138      6141      6132      6133
      6133      6135      6133      6134      6135      6136      6135      6137
      6135      6147      6147      6148      6147      6149      6147      6150
      6150      6151      6150      6152      6150      6153      6153      6154
      6153      6155      6153      6156      6156      6157      6156      6158
      6156      6159      6159      6160      6159      6161      6159      6162
      6162      6163      6162      6164      6162      6165      6165      6166
      6165      6170      6165      6167      6170      6171      6170      6172
      6170      6167      6172      6173      6172      6174      6172      6175
      6175      6176      6175      6177      6175      6178      6178      6179
      6178      6180      6178      6181      6181      6182      6181      6183
      6181      6184      6184      6185      6184      6186      6184      6187
      6187      6188      6187      6189      6187      6190      6167      6168
      6167      6169      6141      6142      6142      6144      6142      6143
      6144      6145      6144      6146      6144      6191      6191      6192
      6191      6193      6191      6194      6194      6195      6194      6196
      6194      6197      6197      6198      6197      6199      6197      6200
      6200      6201      6200      6202      6200      6203      6203      6204
      6203      6205      6203      6206      6206      6207      6206      6208
      6206      6209      6209      6210      6209      6211      6209      6212
      6212      6213      6212      6214      6212      6215      6215      6216
      6215      6217      6215      6218      6218      6219      6218      6220
      6218      6221      6221      6222      6221      6223      6221      6224
      6224      6225      6224      6226      6224      6227      6227      6228
      6227      6229      6227      6230      6230      6231      6230      6232
      6230      6233      6234      6235      6234      6236      6234      6237
      6234      6238      6238      6239      6238      6240      6238      6241
      6241      6242      6241      6243      6241      6248      6248      6244
      6244      6247      6244      6245      6244      6246      6249      6250
      6249      6251      6249      6252      6249      6247      6252      6253
      6252      6260      6252      6254      6260      6261      6260      6262
      6260      6263      6254      6255      6255      6257      6255      6256
      6257      6258      6257      6259      6257      6269      6269      6270
      6269      6271      6269      6272      6272      6273      6272      6274
      6272      6275      6275      6276      6275      6277      6275      6278
      6278      6279      6278      6280      6278      6281      6281      6282
      6281      6283      6281      6284      6284      6285      6284      6286
      6284      6287      6287      6288      6287      6292      6287      6289
      6292      6293      6292      6294      6292      6289      6294      6295
      6294      6296      6294      6297      6297      6298      6297      6299
      6297      6300      6300      6301      6300      6302      6300      6303
      6303      6304      6303      6305      6303      6306      6306      6307
      6306      6308      6306      6309      6309      6310      6309      6311
      6309      6312      6289      6290      6289      6291      6263      6264
      6264      6266      6264      6265      6266      6267      6266      6268
      6266      6313      6313      6314      6313      6315      6313      6316
      6316      6317      6316      6318      6316      6319      6319      6320
      6319      6321      6319      6322      6322      6323      6322      6324
      6322      6325      6325      6326      6325      6327      6325      6328
      6328      6329      6328      6330      6328      6331      6331      6332
      6331      6333      6331      6334      6334      6335      6334      6336
      6334      6337      6337      6338      6337      6339      6337      6340
      6340      6341      6340      6342      6340      6343      6343      6344
      6343      6345      6343      6346      6346      6347      6346      6348
      6346      6349      6349      6350      6349      6351      6349      6352
      6352      6353      6352      6354      6352      6355      6356      6357
      6356      6358      6356      6359      6356      6360      6360      6361
      6360      6362      6360      6363      6363      6364      6363      6365
      6363      6370      6370      6366      6366      6369      6366      6367
      6366      6368      6371      6372      6371      6373      6371      6374
      6371      6369      6374      6375      6374      6382      6374      6376
      6382      6383      6382      6384      6382      6385      6376      6377
      6377      6379      6377      6378      6379      6380      6379      6381
      6379      6391      6391      6392      6391      6393      6391      6394
      6394      6395      6394      6396      6394      6397      6397      6398
      6397      6399      6397      6400      6400      6401      6400      6402
      6400      6403      6403      6404      6403      6405      6403      6406
      6406      6407      6406      6408      6406      6409      6409      6410
      6409      6414      6409      6411      6414      6415      6414      6416
      6414      6411      6416      6417      6416      6418      6416      6419
      6419      6420      6419      6421      6419      6422      6422      6423
      6422      6424      6422      6425      6425      6426      6425      6427
      6425      6428      6428      6429      6428      6430      6428      6431
      6431      6432      6431      6433      6431      6434      6411      6412
      6411      6413      6385      6386      6386      6388      6386      6387
      6388      6389      6388      6390      6388      6435      6435      6436
      6435      6437      6435      6438      6438      6439      6438      6440
      6438      6441      6441      6442      6441      6443      6441      6444
      6444      6445      6444      6446      6444      6447      6447      6448
      6447      6449      6447      6450      6450      6451      6450      6452
      6450      6453      6453      6454      6453      6455      6453      6456
      6456      6457      6456      6458      6456      6459      6459      6460
      6459      6461      6459      6462      6462      6463      6462      6464
      6462      6465      6465      6466      6465      6467      6465      6468
      6468      6469      6468      6470      6468      6471      6471      6472
      6471      6473      6471      6474      6474      6475      6474      6476
      6474      6477      6482      6481      6481      6478      6478      6479
      6478      6480      6478      6483      6486      6485      6485      6483
      6483      6484      6483      6487      6487      6488      6487      6489
      6487      6494      6494      6490      6490      6493      6490      6491
      6490      6492      6495      6496      6495      6497      6495      6498
      6495      6493      6498      6499      6498      6506      6498      6500
      6506      6507      6506      6508      6506      6509      6500      6501
      6501      6503      6501      6502      6503      6504      6503      6505
      6503      6515      6515      6516      6515      6517      6515      6518
      6518      6519      6518      6520      6518      6521      6521      6522
      6521      6523      6521      6524      6524      6525      6524      6526
      6524      6527      6527      6528      6527      6529      6527      6530
      6530      6531      6530      6532      6530      6533      6533      6534
      6533      6538      6533      6535      6538      6539      6538      6540
      6538      6535      6540      6541      6540      6542      6540      6543
      6543      6544      6543      6545      6543      6546      6546      6547
      6546      6548      6546      6549      6549      6550      6549      6551
      6549      6552      6552      6553      6552      6554      6552      6555
      6555      6556      6555      6557      6555      6558      6535      6536
      6535      6537      6509      6510      6510      6512      6510      6511
      6512      6513      6512      6514      6512      6559      6559      6560
      6559      6561      6559      6562      6562      6563      6562      6564
      6562      6565      6565      6566      6565      6567      6565      6568
      6568      6569      6568      6570      6568      6571      6571      6572
      6571      6573      6571      6574      6574      6575      6574      6576
      6574      6577      6577      6578      6577      6579      6577      6580
      6580      6581      6580      6582      6580      6583      6583      6584
      6583      6585      6583      6586      6586      6587      6586      6588
      6586      6589      6589      6590      6589      6591      6589      6592
      6592      6593      6592      6594      6592      6595      6595      6596
      6595      6597      6595      6598      6598      6599      6598      6600
      6598      6601      6606      6605      6605      6602      6602      6603
      6602      6604      6602      6607      6610      6609      6609      6607
      6607      6608      6607      6611      6611      6612      6611      6613
      6611      6618      6618      6614      6614      6617      6614      6615
      6614      6616      6619      6620      6619      6621      6619      6622
      6619      6617      6622      6623      6622      6630      6622      6624
      6630      6631      6630      6632      6630      6633      6624      6625
      6625      6627      6625      6626      6627      6628      6627      6629
      6627      6639      6639      6640      6639      6641      6639      6642
      6642      6643      6642      6644      6642      6645      6645      6646
      6645      6647      6645      6648      6648      6649      6648      6650
      6648      6651      6651      6652      6651      6653      6651      6654
      6654      6655      6654      6656      6654      6657      6657      6658
      6657      6662      6657      6659      6662      6663      6662      6664
      6662      6659      6664      6665      6664      6666      6664      6667
      6667      6668      6667      6669      6667      6670      6670      6671
      6670      6672      6670      6673      6673      6674      6673      6675
      6673      6676      6676      6677      6676      6678      6676      6679
      6679      6680      6679      6681      6679      6682      6659      6660
      6659      6661      6633      6634      6634      6636      6634      6635
      6636      6637      6636      6638      6636      6683      6683      6684
      6683      6685      6683      6686      6686      6687      6686      6688
      6686      6689      6689      6690      6689      6691      6689      6692
      6692      6693      6692      6694      6692      6695      6695      6696
      6695      6697      6695      6698      6698      6699      6698      6700
      6698      6701      6701      6702      6701      6703      6701      6704
      6704      6705      6704      6706      6704      6707      6707      6708
      6707      6709      6707      6710      6710      6711      6710      6712
      6710      6713      6713      6714      6713      6715      6713      6716
      6716      6717      6716      6718      6716      6719      6719      6720
      6719      6721      6719      6722      6722      6723      6722      6724
      6722      6725      6726      6727      6726      6728      6726      6729
      6726      6730      6730      6731      6730      6732      6730      6733
      6733      6734      6733      6735      6733      6740      6740      6736
      6736      6739      6736      6737      6736      6738      6741      6742
      6741      6743      6741      6744      6741      6739      6744      6745
      6744      6752      6744      6746      6752      6753      6752      6754
      6752      6755      6746      6747      6747      6749      6747      6748
      6749      6750      6749      6751      6749      6761      6761      6762
      6761      6763      6761      6764      6764      6765      6764      6766
      6764      6767      6767      6768      6767      6769      6767      6770
      6770      6771      6770      6772      6770      6773      6773      6774
      6773      6775      6773      6776      6776      6777      6776      6778
      6776      6779      6779      6780      6779      6784      6779      6781
      6784      6785      6784      6786      6784      6781      6786      6787
      6786      6788      6786      6789      6789      6790      6789      6791
      6789      6792      6792      6793      6792      6794      6792      6795
      6795      6796      6795      6797      6795      6798      6798      6799
      6798      6800      6798      6801      6801      6802      6801      6803
      6801      6804      6781      6782      6781      6783      6755      6756
      6756      6758      6756      6757      6758      6759      6758      6760
      6758      6805      6805      6806      6805      6807      6805      6808
      6808      6809      6808      6810      6808      6811      6811      6812
      6811      6813      6811      6814      6814      6815      6814      6816
      6814      6817      6817      6818      6817      6819      6817      6820
      6820      6821      6820      6822      6820      6823      6823      6824
      6823      6825      6823      6826      6826      6827      6826      6828
      6826      6829      6829      6830      6829      6831      6829      6832
      6832      6833      6832      6834      6832      6835      6835      6836
      6835      6837      6835      6838      6838      6839      6838      6840
      6838      6841      6841      6842      6841      6843      6841      6844
      6845      6846      6845      6847      6845      6848      6845      6849
      6849      6850      6849      6851      6849      6852      6852      6853
      6852      6854      6852      6859      6859      6855      6855      6858
      6855      6856      6855      6857      6860      6861      6860      6862
      6860      6863      6860      6858      6863      6864      6863      6871
      6863      6865      6871      6872      6871      6873      6871      6874
      6865      6866      6866      6868      6866      6867      6868      6869
      6868      6870      6868      6880      6880      6881      6880      6882
      6880      6883      6883      6884      6883      6885      6883      6886
      6886      6887      6886      6888      6886      6889      6889      6890
      6889      6891      6889      6892      6892      6893      6892      6894
      6892      6895      6895      6896      6895      6897      6895      6898
      6898      6899      6898      6903      6898      6900      6903      6904
      6903      6905      6903      6900      6905      6906      6905      6907
      6905      6908      6908      6909      6908      6910      6908      6911
      6911      6912      6911      6913      6911      6914      6914      6915
      6914      6916      6914      6917      6917      6918      6917      6919
      6917      6920      6920      6921      6920      6922      6920      6923
      6900      6901      6900      6902      6874      6875      6875      6877
      6875      6876      6877      6878      6877      6879      6877      6924
      6924      6925      6924      6926      6924      6927      6927      6928
      6927      6929      6927      6930      6930      6931      6930      6932
      6930      6933      6933      6934      6933      6935      6933      6936
      6936      6937      6936      6938      6936      6939      6939      6940
      6939      6941      6939      6942      6942      6943      6942      6944
      6942      6945      6945      6946      6945      6947      6945      6948
      6948      6949      6948      6950      6948      6951      6951      6952
      6951      6953      6951      6954      6954      6955      6954      6956
      6954      6957      6957      6958      6957      6959      6957      6960
      6960      6961      6960      6962      6960      6963      6963      6964
      6963      6965      6963      6966      6967      6968      6967      6969
      6967      6970      6967      6971      6971      6972      6971      6973
      6971      6974      6974      6975      6974      6976      6974      6981
      6981      6977      6977      6980      6977      6978      6977      6979
      6982      6983      6982      6984      6982      6985      6982      6980
      6985      6986      6985      6993      6985      6987      6993      6994
      6993      6995      6993      6996      6987      6988      6988      6990
      6988      6989      6990      6991      6990      6992      6990      7002
      7002      7003      7002      7004      7002      7005      7005      7006
      7005      7007      7005      7008      7008      7009      7008      7010
      7008      7011      7011      7012      7011      7013      7011      7014
      7014      7015      7014      7016      7014      7017      7017      7018
      7017      7019      7017      7020      7020      7021      7020      7025
      7020      7022      7025      7026      7025      7027      7025      7022
      7027      7028      7027      7029      7027      7030      7030      7031
      7030      7032      7030      7033      7033      7034      7033      7035
      7033      7036      7036      7037      7036      7038      7036      7039
      7039      7040      7039      7041      7039      7042      7042      7043
      7042      7044      7042      7045      7022      7023      7022      7024
      6996      6997      6997      6999      6997      6998      6999      7000
      6999      7001      6999      7046      7046      7047      7046      7048
      7046      7049      7049      7050      7049      7051      7049      7052
      7052      7053      7052      7054      7052      7055      7055      7056
      7055      7057      7055      7058      7058      7059      7058      7060
      7058      7061      7061      7062      7061      7063      7061      7064
      7064      7065      7064      7066      7064      7067      7067      7068
      7067      7069      7067      7070      7070      7071      7070      7072
      7070      7073      7073      7074      7073      7075      7073      7076
      7076      7077      7076      7078      7076      7079      7079      7080
      7079      7081      7079      7082      7082      7083      7082      7084
      7082      7085      7085      7086      7085      7087      7085      7088
      7089      7090      7089      7091      7089      7092      7089      7093
      7093      7094      7093      7095      7093      7096      7096      7097
      7096      7098      7096      7103      7103      7099      7099      7102
      7099      7100      7099      7101      7104      7105      7104      7106
      7104      7107      7104      7102      7107      7108      7107      7115
      7107      7109      7115      7116      7115      7117      7115      7118
      7109      7110      7110      7112      7110      7111      7112      7113
      7112      7114      7112      7124      7124      7125      7124      7126
      7124      7127      7127      7128      7127      7129      7127      7130
      7130      7131      7130      7132      7130      7133      7133      7134
      7133      7135      7133      7136      7136      7137      7136      7138
      7136      7139      7139      7140      7139      7141      7139      7142
      7142      7143      7142      7147      7142      7144      7147      7148
      7147      7149      7147      7144      7149      7150      7149      7151
      7149      7152      7152      7153      7152      7154      7152      7155
      7155      7156      7155      7157      7155      7158      7158      7159
      7158      7160      7158      7161      7161      7162      7161      7163
      7161      7164      7164      7165      7164      7166      7164      7167
      7144      7145      7144      7146      7118      7119      7119      7121
      7119      7120      7121      7122      7121      7123      7121      7168
      7168      7169      7168      7170      7168      7171      7171      7172
      7171      7173      7171      7174      7174      7175      7174      7176
      7174      7177      7177      7178      7177      7179      7177      7180
      7180      7181      7180      7182      7180      7183      7183      7184
      7183      7185      7183      7186      7186      7187      7186      7188
      7186      7189      7189      7190      7189      7191      7189      7192
      7192      7193      7192      7194      7192      7195      7195      7196
      7195      7197      7195      7198      7198      7199      7198      7200
      7198      7201      7201      7202      7201      7203      7201      7204
      7204      7205      7204      7206      7204      7207      7207      7208
      7207      7209      7207      7210      7211      7212      7211      7213
      7211      7214      7211      7215      7215      7216      7215      7217
      7215      7218      7218      7219      7218      7220      7218      7225
      7225      7221      7221      7224      7221      7222      7221      7223
      7226      7227      7226      7228      7226      7229      7226      7224
      7229      7230      7229      7237      7229      7231      7237      7238
      7237      7239      7237      7240      7231      7232      7232      7234
      7232      7233      7234      7235      7234      7236      7234      7246
      7246      7247      7246      7248      7246      7249      7249      7250
      7249      7251      7249      7252      7252      7253      7252      7254
      7252      7255      7255      7256      7255      7257      7255      7258
      7258      7259      7258      7260      7258      7261      7261      7262
      7261      7263      7261      7264      7264      7265      7264      7269
      7264      7266      7269      7270      7269      7271      7269      7266
      7271      7272      7271      7273      7271      7274      7274      7275
      7274      7276      7274      7277      7277      7278      7277      7279
      7277      7280      7280      7281      7280      7282      7280      7283
      7283      7284      7283      7285      7283      7286      7286      7287
      7286      7288      7286      7289      7266      7267      7266      7268
      7240      7241      7241      7243      7241      7242      7243      7244
      7243      7245      7243      7290      7290      7291      7290      7292
      7290      7293      7293      7294      7293      7295      7293      7296
      7296      7297      7296      7298      7296      7299      7299      7300
      7299      7301      7299      7302      7302      7303      7302      7304
      7302      7305      7305      7306      7305      7307      7305      7308
      7308      7309      7308      7310      7308      7311      7311      7312
      7311      7313      7311      7314      7314      7315      7314      7316
      7314      7317      7317      7318      7317      7319      7317      7320
      7320      7321      7320      7322      7320      7323      7323      7324
      7323      7325      7323      7326      7326      7327      7326      7328
      7326      7329      7329      7330      7329      7331      7329      7332
      7333      7334      7333      7335      7333      7336      7333      7337
      7337      7338      7337      7339      7337      7340      7340      7341
      7340      7342      7340      7347      7347      7343      7343      7346
      7343      7344      7343      7345      7348      7349      7348      7350
      7348      7351      7348      7346      7351      7352      7351      7359
      7351      7353      7359      7360      7359      7361      7359      7362
      7353      7354      7354      7356      7354      7355      7356      7357
      7356      7358      7356      7368      7368      7369      7368      7370
      7368      7371      7371      7372      7371      7373      7371      7374
      7374      7375      7374      7376      7374      7377      7377      7378
      7377      7379      7377      7380      7380      7381      7380      7382
      7380      7383      7383      7384      7383      7385      7383      7386
      7386      7387      7386      7391      7386      7388      7391      7392
      7391      7393      7391      7388      7393      7394      7393      7395
      7393      7396      7396      7397      7396      7398      7396      7399
      7399      7400      7399      7401      7399      7402      7402      7403
      7402      7404      7402      7405      7405      7406      7405      7407
      7405      7408      7408      7409      7408      7410      7408      7411
      7388      7389      7388      7390      7362      7363      7363      7365
      7363      7364      7365      7366      7365      7367      7365      7412
      7412      7413      7412      7414      7412      7415      7415      7416
      7415      7417      7415      7418      7418      7419      7418      7420
      7418      7421      7421      7422      7421      7423      7421      7424
      7424      7425      7424      7426      7424      7427      7427      7428
      7427      7429      7427      7430      7430      7431      7430      7432
      7430      7433      7433      7434      7433      7435      7433      7436
      7436      7437      7436      7438      7436      7439      7439      7440
      7439      7441      7439      7442      7442      7443      7442      7444
      7442      7445      7445      7446      7445      7447      7445      7448
      7448      7449      7448      7450      7448      7451      7451      7452
      7451      7453      7451      7454      7459      7458      7458      7455
      7455      7456      7455      7457      7455      7460      7463      7462
      7462      7460      7460      7461      7460      7464      7464      7465
      7464      7466      7464      7471      7471      7467      7467      7470
      7467      7468      7467      7469      7472      7473      7472      7474
      7472      7475      7472      7470      7475      7476      7475      7483
      7475      7477      7483      7484      7483      7485      7483      7486
      7477      7478      7478      7480      7478      7479      7480      7481
      7480      7482      7480      7492      7492      7493      7492      7494
      7492      7495      7495      7496      7495      7497      7495      7498
      7498      7499      7498      7500      7498      7501      7501      7502
      7501      7503      7501      7504      7504      7505      7504      7506
      7504      7507      7507      7508      7507      7509      7507      7510
      7510      7511      7510      7515      7510      7512      7515      7516
      7515      7517      7515      7512      7517      7518      7517      7519
      7517      7520      7520      7521      7520      7522      7520      7523
      7523      7524      7523      7525      7523      7526      7526      7527
      7526      7528      7526      7529      7529      7530      7529      7531
      7529      7532      7532      7533      7532      7534      7532      7535
      7512      7513      7512      7514      7486      7487      7487      7489
      7487      7488      7489      7490      7489      7491      7489      7536
      7536      7537      7536      7538      7536      7539      7539      7540
      7539      7541      7539      7542      7542      7543      7542      7544
      7542      7545      7545      7546      7545      7547      7545      7548
      7548      7549      7548      7550      7548      7551      7551      7552
      7551      7553      7551      7554      7554      7555      7554      7556
      7554      7557      7557      7558      7557      7559      7557      7560
      7560      7561      7560      7562      7560      7563      7563      7564
      7563      7565      7563      7566      7566      7567      7566      7568
      7566      7569      7569      7570      7569      7571      7569      7572
      7572      7573      7572      7574      7572      7575      7575      7576
      7575      7577      7575      7578      7579      7580      7579      7581
      7579      7582      7579      7583      7583      7584      7583      7585
      7583      7586      7586      7587      7586      7588      7586      7593
      7593      7589      7589      7592      7589      7590      7589      7591
      7594      7595      7594      7596      7594      7597      7594      7592
      7597      7598      7597      7605      7597      7599      7605      7606
      7605      7607      7605      7608      7599      7600      7600      7602
      7600      7601      7602      7603      7602      7604      7602      7614
      7614      7615      7614      7616      7614      7617      7617      7618
      7617      7619      7617      7620      7620      7621      7620      7622
      7620      7623      7623      7624      7623      7625      7623      7626
      7626      7627      7626      7628      7626      7629      7629      7630
      7629      7631      7629      7632      7632      7633      7632      7634
      7634      7635      7634      7636      7636      7637      7636      7638
      7636      7639      7639      7640      7639      7641      7639      7642
      7642      7643      7642      7644      7642      7645      7645      7646
      7645      7647      7645      7648      7648      7649      7648      7650
      7648      7651      7651      7652      7651      7653      7651      7654
      7654      7655      7654      7656      7654      7657      7657      7658
      7657      7659      7657      7660      7608      7609      7609      7611
      7609      7610      7611      7612      7611      7613      7611      7661
      7661      7662      7661      7663      7661      7664      7664      7665
      7664      7666      7664      7667      7667      7668      7667      7669
      7667      7670      7670      7671      7670      7672      7670      7673
      7673      7674      7673      7675      7673      7676      7676      7677
      7676      7678      7676      7679      7679      7680      7679      7681
      7679      7682      7682      7683      7682      7684      7682      7685
      7685      7686      7685      7687      7685      7688      7688      7689
      7688      7690      7688      7691      7691      7692      7691      7693
      7691      7694      7694      7695      7694      7696      7694      7697
      7697      7698      7697      7699      7697      7700      7700      7701
      7700      7702      7700      7703      7719      7715      7719      7720
      7719      7721      7715      7717      7715      7716      7717      7718
      7715      7704      7704      7705      7704      7706      7719      7725
      7704      7710      7722      7725      7722      7726      7722      7723
      7722      7724      7707      7710      7707      7711      7707      7708
      7707      7709      7726      7727      7727      7728      7727      7729
      7727      7730      7730      7731      7730      7732      7730      7738
      7738      7739      7738      7740      7738      7741      7711      7712
      7712      7713      7712      7714      7712      7747      7747      7748
      7747      7749      7747      7755      7755      7756      7755      7757
      7755      7758      7732      7733      7741      7742      7749      7750
      7758      7759      7733      7734      7733      7735      7735      7736
      7735      7737      7735      7764      7764      7765      7764      7766
      7764      7767      7767      7768      7767      7769      7767      7770
      7770      7771      7770      7772      7770      7773      7773      7774
      7773      7775      7773      7776      7776      7777      7776      7778
      7776      7779      7779      7780      7779      7781      7779      7782
      7782      7783      7782      7784      7782      7785      7785      7786
      7785      7787      7785      7788      7788      7789      7788      7790
      7790      7791      7790      7792      7792      7793      7792      7794
      7792      7795      7795      7796      7795      7797      7795      7798
      7798      7799      7798      7800      7798      7801      7801      7802
      7801      7803      7801      7804      7804      7805      7804      7806
      7804      7807      7807      7808      7807      7809      7807      7810
      7742      7743      7742      7744      7744      7745      7744      7746
      7744      7811      7811      7812      7811      7813      7811      7814
      7814      7815      7814      7816      7814      7817      7817      7818
      7817      7819      7817      7820      7820      7821      7820      7822
      7820      7823      7823      7824      7823      7825      7823      7826
      7826      7827      7826      7828      7826      7829      7829      7830
      7829      7831      7829      7832      7832      7833      7832      7834
      7832      7835      7835      7836      7835      7837      7835      7838
      7838      7839      7838      7840      7838      7841      7841      7842
      7841      7843      7841      7844      7844      7845      7844      7846
      7844      7847      7847      7848      7847      7849      7847      7850
      7850      7851      7850      7852      7850      7853      7750      7751
      7750      7752      7752      7753      7752      7754      7752      7854
      7854      7855      7854      7856      7854      7857      7857      7858
      7857      7859      7857      7860      7860      7861      7860      7862
      7860      7863      7863      7864      7863      7865      7863      7866
      7866      7867      7866      7868      7866      7869      7869      7870
      7869      7871      7869      7872      7872      7873      7872      7874
      7872      7875      7875      7876      7875      7877      7875      7878
      7878      7879      7878      7880      7880      7881      7880      7882
      7882      7883      7882      7884      7882      7885      7885      7886
      7885      7887      7885      7888      7888      7889      7888      7890
      7888      7891      7891      7892      7891      7893      7891      7894
      7894      7895      7894      7896      7894      7897      7897      7898
      7897      7899      7897      7900      7759      7760      7759      7761
      7761      7762      7761      7763      7761      7901      7901      7902
      7901      7903      7901      7904      7904      7905      7904      7906
      7904      7907      7907      7908      7907      7909      7907      7910
      7910      7911      7910      7912      7910      7913      7913      7914
      7913      7915      7913      7916      7916      7917      7916      7918
      7916      7919      7919      7920      7919      7921      7919      7922
      7922      7923      7922      7924      7922      7925      7925      7926
      7925      7927      7925      7928      7928      7929      7928      7930
      7928      7931      7931      7932      7931      7933      7931      7934
      7934      7935      7934      7936      7934      7937      7937      7938
      7937      7939      7937      7940      7940      7941      7940      7942
      7940      7943      7944      7945      7944      7946      7944      7947
      7944      7948      7948      7949      7948      7950      7948      7951
      7951      7952      7951      7953      7951      7958      7958      7954
      7954      7957      7954      7955      7954      7956      7959      7960
      7959      7961      7959      7962      7959      7957      7962      7963
      7962      7970      7962      7964      7970      7971      7970      7972
      7970      7973      7964      7965      7965      7967      7965      7966
      7967      7968      7967      7969      7967      7979      7979      7980
      7979      7981      7979      7982      7982      7983      7982      7984
      7982      7985      7985      7986      7985      7987      7985      7988
      7988      7989      7988      7990      7988      7991      7991      7992
      7991      7993      7991      7994      7994      7995      7994      7996
      7994      7997      7997      7998      7997      7999      7999      8000
      7999      8001      8001      8002      8001      8003      8001      8004
      8004      8005      8004      8006      8004      8007      8007      8008
      8007      8009      8007      8010      8010      8011      8010      8012
      8010      8013      8013      8014      8013      8015      8013      8016
      8016      8017      8016      8018      8016      8019      8019      8020
      8019      8021      8019      8022      8022      8023      8022      8024
      8022      8025      7973      7974      7974      7976      7974      7975
      7976      7977      7976      7978      7976      8026      8026      8027
      8026      8028      8026      8029      8029      8030      8029      8031
      8029      8032      8032      8033      8032      8034      8032      8035
      8035      8036      8035      8037      8035      8038      8038      8039
      8038      8040      8038      8041      8041      8042      8041      8043
      8041      8044      8044      8045      8044      8046      8044      8047
      8047      8048      8047      8049      8047      8050      8050      8051
      8050      8052      8050      8053      8053      8054      8053      8055
      8053      8056      8056      8057      8056      8058      8056      8059
      8059      8060      8059      8061      8059      8062      8062      8063
      8062      8064      8062      8065      8065      8066      8065      8067
      8065      8068      8069      8070      8069      8071      8069      8072
      8069      8073      8073      8074      8073      8075      8073      8076
      8076      8077      8076      8078      8076      8083      8083      8079
      8079      8082      8079      8080      8079      8081      8084      8085
      8084      8086      8084      8087      8084      8082      8087      8088
      8087      8095      8087      8089      8095      8096      8095      8097
      8095      8098      8089      8090      8090      8092      8090      8091
      8092      8093      8092      8094      8092      8104      8104      8105
      8104      8106      8104      8107      8107      8108      8107      8109
      8107      8110      8110      8111      8110      8112      8110      8113
      8113      8114      8113      8115      8113      8116      8116      8117
      8116      8118      8116      8119      8119      8120      8119      8121
      8119      8122      8122      8123      8122      8124      8124      8125
      8124      8126      8126      8127      8126      8128      8126      8129
      8129      8130      8129      8131      8129      8132      8132      8133
      8132      8134      8132      8135      8135      8136      8135      8137
      8135      8138      8138      8139      8138      8140      8138      8141
      8141      8142      8141      8143      8141      8144      8098      8099
      8099      8101      8099      8100      8101      8102      8101      8103
      8101      8145      8145      8146      8145      8147      8145      8148
      8148      8149      8148      8150      8148      8151      8151      8152
      8151      8153      8151      8154      8154      8155      8154      8156
      8154      8157      8157      8158      8157      8159      8157      8160
      8160      8161      8160      8162      8160      8163      8163      8164
      8163      8165      8165      8166      8165      8167      8167      8168
      8167      8169      8167      8170      8170      8171      8170      8172
      8170      8173      8173      8174      8173      8175      8173      8176
      8176      8177      8176      8178      8176      8179      8179      8180
      8179      8181      8179      8182      8182      8183      8182      8184
      8182      8185      8185      8186      8185      8187      8185      8188
      8188      8189      8188      8190      8188      8191      8192      8193
      8192      8194      8192      8195      8192      8196      8196      8197
      8196      8198      8196      8199      8199      8200      8199      8201
      8199      8206      8206      8202      8202      8205      8202      8203
      8202      8204      8207      8208      8207      8209      8207      8210
      8207      8205      8210      8211      8210      8218      8210      8212
      8218      8219      8218      8220      8218      8221      8212      8213
      8213      8215      8213      8214      8215      8216      8215      8217
      8215      8227      8227      8228      8227      8229      8227      8230
      8230      8231      8230      8232      8230      8233      8233      8234
      8233      8235      8233      8236      8236      8237      8236      8238
      8236      8239      8239      8240      8239      8241      8239      8242
      8242      8243      8242      8244      8242      8245      8245      8246
      8245      8250      8245      8247      8250      8251      8250      8252
      8250      8247      8252      8253      8252      8254      8252      8255
      8255      8256      8255      8257      8255      8258      8258      8259
      8258      8260      8258      8261      8261      8262      8261      8263
      8261      8264      8264      8265      8264      8266      8264      8267
      8267      8268      8267      8269      8267      8270      8247      8248
      8247      8249      8221      8222      8222      8224      8222      8223
      8224      8225      8224      8226      8224      8271      8271      8272
      8271      8273      8271      8274      8274      8275      8274      8276
      8274      8277      8277      8278      8277      8279      8277      8280
      8280      8281      8280      8282      8280      8283      8283      8284
      8283      8285      8283      8286      8286      8287      8286      8288
      8286      8289      8289      8290      8289      8291      8289      8292
      8292      8293      8292      8294      8292      8295      8295      8296
      8295      8297      8295      8298      8298      8299      8298      8300
      8298      8301      8301      8302      8301      8303      8301      8304
      8304      8305      8304      8306      8304      8307      8307      8308
      8307      8309      8307      8310      8310      8311      8310      8312
      8310      8313      8318      8317      8317      8314      8314      8315
      8314      8316      8314      8319      8322      8321      8321      8319
      8319      8320      8319      8323      8323      8324      8323      8325
      8323      8330      8330      8326      8326      8329      8326      8327
      8326      8328      8331      8332      8331      8333      8331      8334
      8331      8329      8334      8335      8334      8342      8334      8336
      8342      8343      8342      8344      8342      8345      8336      8337
      8337      8339      8337      8338      8339      8340      8339      8341
      8339      8351      8351      8352      8351      8353      8351      8354
      8354      8355      8354      8356      8354      8357      8357      8358
      8357      8359      8357      8360      8360      8361      8360      8362
      8360      8363      8363      8364      8363      8365      8363      8366
      8366      8367      8366      8368      8366      8369      8369      8370
      8369      8371      8371      8372      8371      8373      8373      8374
      8373      8375      8373      8376      8376      8377      8376      8378
      8376      8379      8379      8380      8379      8381      8379      8382
      8382      8383      8382      8384      8382      8385      8385      8386
      8385      8387      8385      8388      8388      8389      8388      8390
      8388      8391      8345      8346      8346      8348      8346      8347
      8348      8349      8348      8350      8348      8392      8392      8393
      8392      8394      8392      8395      8395      8396      8395      8397
      8395      8398      8398      8399      8398      8400      8398      8401
      8401      8402      8401      8403      8401      8404      8404      8405
      8404      8406      8404      8407      8407      8408      8407      8409
      8407      8410      8410      8411      8410      8412      8410      8413
      8413      8414      8413      8415      8413      8416      8416      8417
      8416      8418      8416      8419      8419      8420      8419      8421
      8419      8422      8422      8423      8422      8424      8422      8425
      8425      8426      8425      8427      8425      8428      8428      8429
      8428      8430      8428      8431      8431      8432      8431      8433
      8431      8434      8435      8436      8435      8437      8435      8438
      8435      8439      8439      8440      8439      8441      8439      8442
      8442      8443      8442      8444      8442      8449      8449      8445
      8445      8448      8445      8446      8445      8447      8450      8451
      8450      8452      8450      8453      8450      8448      8453      8454
      8453      8461      8453      8455      8461      8462      8461      8463
      8461      8464      8455      8456      8456      8458      8456      8457
      8458      8459      8458      8460      8458      8470      8470      8471
      8470      8472      8470      8473      8473      8474      8473      8475
      8473      8476      8476      8477      8476      8478      8476      8479
      8479      8480      8479      8481      8479      8482      8482      8483
      8482      8484      8482      8485      8485      8486      8485      8487
      8485      8488      8488      8489      8488      8493      8488      8490
      8493      8494      8493      8495      8493      8490      8495      8496
      8495      8497      8495      8498      8498      8499      8498      8500
      8498      8501      8501      8502      8501      8503      8501      8504
      8504      8505      8504      8506      8504      8507      8507      8508
      8507      8509      8507      8510      8510      8511      8510      8512
      8510      8513      8490      8491      8490      8492      8464      8465
      8465      8467      8465      8466      8467      8468      8467      8469
      8467      8514      8514      8515      8514      8516      8514      8517
      8517      8518      8517      8519      8517      8520      8520      8521
      8520      8522      8520      8523      8523      8524      8523      8525
      8523      8526      8526      8527      8526      8528      8526      8529
      8529      8530      8529      8531      8529      8532      8532      8533
      8532      8534      8532      8535      8535      8536      8535      8537
      8535      8538      8538      8539      8538      8540      8538      8541
      8541      8542      8541      8543      8541      8544      8544      8545
      8544      8546      8544      8547      8547      8548      8547      8549
      8547      8550      8550      8551      8550      8552      8550      8553
      8553      8554      8553      8555      8553      8556      8557      8558
      8557      8559      8557      8560      8557      8561      8561      8562
      8561      8563      8561      8564      8564      8565      8564      8566
      8564      8571      8571      8567      8567      8570      8567      8568
      8567      8569      8572      8573      8572      8574      8572      8575
      8572      8570      8575      8576      8575      8583      8575      8577
      8583      8584      8583      8585      8583      8586      8577      8578
      8578      8580      8578      8579      8580      8581      8580      8582
      8580      8592      8592      8593      8592      8594      8592      8595
      8595      8596      8595      8597      8595      8598      8598      8599
      8598      8600      8598      8601      8601      8602      8601      8603
      8601      8604      8604      8605      8604      8606      8604      8607
      8607      8608      8607      8609      8607      8610      8610      8611
      8610      8615      8610      8612      8615      8616      8615      8617
      8615      8612      8617      8618      8617      8619      8617      8620
      8620      8621      8620      8622      8620      8623      8623      8624
      8623      8625      8623      8626      8626      8627      8626      8628
      8626      8629      8629      8630      8629      8631      8629      8632
      8632      8633      8632      8634      8632      8635      8612      8613
      8612      8614      8586      8587      8587      8589      8587      8588
      8589      8590      8589      8591      8589      8636      8636      8637
      8636      8638      8636      8639      8639      8640      8639      8641
      8639      8642      8642      8643      8642      8644      8642      8645
      8645      8646      8645      8647      8645      8648      8648      8649
      8648      8650      8648      8651      8651      8652      8651      8653
      8651      8654      8654      8655      8654      8656      8654      8657
      8657      8658      8657      8659      8657      8660      8660      8661
      8660      8662      8660      8663      8663      8664      8663      8665
      8663      8666      8666      8667      8666      8668      8666      8669
      8669      8670      8669      8671      8669      8672      8672      8673
      8672      8674      8672      8675      8675      8676      8675      8677
      8675      8678      8679      8680      8679      8681      8679      8682
      8679      8683      8683      8684      8683      8685      8683      8686
      8686      8687      8686      8688      8686      8693      8693      8689
      8689      8692      8689      8690      8689      8691      8694      8695
      8694      8696      8694      8697      8694      8692      8697      8698
      8697      8705      8697      8699      8705      8706      8705      8707
      8705      8708      8699      8700      8700      8702      8700      8701
      8702      8703      8702      8704      8702      8714      8714      8715
      8714      8716      8714      8717      8717      8718      8717      8719
      8717      8720      8720      8721      8720      8722      8720      8723
      8723      8724      8723      8725      8723      8726      8726      8727
      8726      8728      8726      8729      8729      8730      8729      8731
      8729      8732      8732      8733      8732      8737      8732      8734
      8737      8738      8737      8739      8737      8734      8739      8740
      8739      8741      8739      8742      8742      8743      8742      8744
      8742      8745      8745      8746      8745      8747      8745      8748
      8748      8749      8748      8750      8748      8751      8751      8752
      8751      8753      8751      8754      8754      8755      8754      8756
      8754      8757      8734      8735      8734      8736      8708      8709
      8709      8711      8709      8710      8711      8712      8711      8713
      8711      8758      8758      8759      8758      8760      8758      8761
      8761      8762      8761      8763      8761      8764      8764      8765
      8764      8766      8764      8767      8767      8768      8767      8769
      8767      8770      8770      8771      8770      8772      8770      8773
      8773      8774      8773      8775      8773      8776      8776      8777
      8776      8778      8776      8779      8779      8780      8779      8781
      8779      8782      8782      8783      8782      8784      8782      8785
      8785      8786      8785      8787      8785      8788      8788      8789
      8788      8790      8788      8791      8791      8792      8791      8793
      8791      8794      8794      8795      8794      8796      8794      8797
      8797      8798      8797      8799      8797      8800      8801      8802
      8801      8803      8801      8804      8801      8805      8805      8806
      8805      8807      8805      8808      8808      8809      8808      8810
      8808      8815      8815      8811      8811      8814      8811      8812
      8811      8813      8816      8817      8816      8818      8816      8819
      8816      8814      8819      8820      8819      8827      8819      8821
      8827      8828      8827      8829      8827      8830      8821      8822
      8822      8824      8822      8823      8824      8825      8824      8826
      8824      8836      8836      8837      8836      8838      8836      8839
      8839      8840      8839      8841      8839      8842      8842      8843
      8842      8844      8842      8845      8845      8846      8845      8847
      8845      8848      8848      8849      8848      8850      8848      8851
      8851      8852      8851      8853      8851      8854      8854      8855
      8854      8859      8854      8856      8859      8860      8859      8861
      8859      8856      8861      8862      8861      8863      8861      8864
      8864      8865      8864      8866      8864      8867      8867      8868
      8867      8869      8867      8870      8870      8871      8870      8872
      8870      8873      8873      8874      8873      8875      8873      8876
      8876      8877      8876      8878      8876      8879      8856      8857
      8856      8858      8830      8831      8831      8833      8831      8832
      8833      8834      8833      8835      8833      8880      8880      8881
      8880      8882      8880      8883      8883      8884      8883      8885
      8883      8886      8886      8887      8886      8888      8886      8889
      8889      8890      8889      8891      8889      8892      8892      8893
      8892      8894      8892      8895      8895      8896      8895      8897
      8895      8898      8898      8899      8898      8900      8898      8901
      8901      8902      8901      8903      8901      8904      8904      8905
      8904      8906      8904      8907      8907      8908      8907      8909
      8907      8910      8910      8911      8910      8912      8910      8913
      8913      8914      8913      8915      8913      8916      8916      8917
      8916      8918      8916      8919      8919      8920      8919      8921
      8919      8922      8923      8924      8923      8925      8923      8926
      8923      8927      8927      8928      8927      8929      8927      8930
      8930      8931      8930      8932      8930      8937      8937      8933
      8933      8936      8933      8934      8933      8935      8938      8939
      8938      8940      8938      8941      8938      8936      8941      8942
      8941      8949      8941      8943      8949      8950      8949      8951
      8949      8952      8943      8944      8944      8946      8944      8945
      8946      8947      8946      8948      8946      8958      8958      8959
      8958      8960      8958      8961      8961      8962      8961      8963
      8961      8964      8964      8965      8964      8966      8964      8967
      8967      8968      8967      8969      8967      8970      8970      8971
      8970      8972      8970      8973      8973      8974      8973      8975
      8973      8976      8976      8977      8976      8981      8976      8978
      8981      8982      8981      8983      8981      8978      8983      8984
      8983      8985      8983      8986      8986      8987      8986      8988
      8986      8989      8989      8990      8989      8991      8989      8992
      8992      8993      8992      8994      8992      8995      8995      8996
      8995      8997      8995      8998      8998      8999      8998      9000
      8998      9001      8978      8979      8978      8980      8952      8953
      8953      8955      8953      8954      8955      8956      8955      8957
      8955      9002      9002      9003      9002      9004      9002      9005
      9005      9006      9005      9007      9005      9008      9008      9009
      9008      9010      9008      9011      9011      9012      9011      9013
      9011      9014      9014      9015      9014      9016      9014      9017
      9017      9018      9017      9019      9017      9020      9020      9021
      9020      9022      9020      9023      9023      9024      9023      9025
      9023      9026      9026      9027      9026      9028      9026      9029
      9029      9030      9029      9031      9029      9032      9032      9033
      9032      9034      9032      9035      9035      9036      9035      9037
      9035      9038      9038      9039      9038      9040      9038      9041
      9041      9042      9041      9043      9041      9044      9049      9048
      9048      9045      9045      9046      9045      9047      9045      9050
      9053      9052      9052      9050      9050      9051      9050      9054
      9054      9055      9054      9056      9054      9061      9061      9057
      9057      9060      9057      9058      9057      9059      9062      9063
      9062      9064      9062      9065      9062      9060      9065      9066
      9065      9073      9065      9067      9073      9074      9073      9075
      9073      9076      9067      9068      9068      9070      9068      9069
      9070      9071      9070      9072      9070      9082      9082      9083
      9082      9084      9082      9085      9085      9086      9085      9087
      9085      9088      9088      9089      9088      9090      9088      9091
      9091      9092      9091      9093      9091      9094      9094      9095
      9094      9096      9094      9097      9097      9098      9097      9099
      9097      9100      9100      9101      9100      9102      9102      9103
      9102      9104      9104      9105      9104      9106      9104      9107
      9107      9108      9107      9109      9107      9110      9110      9111
      9110      9112      9110      9113      9113      9114      9113      9115
      9113      9116      9116      9117      9116      9118      9116      9119
      9119      9120      9119      9121      9119      9122      9076      9077
      9077      9079      9077      9078      9079      9080      9079      9081
      9079      9123      9123      9124      9123      9125      9123      9126
      9126      9127      9126      9128      9126      9129      9129      9130
      9129      9131      9129      9132      9132      9133      9132      9134
      9132      9135      9135      9136      9135      9137      9135      9138
      9138      9139      9138      9140      9138      9141      9141      9142
      9141      9143      9141      9144      9144      9145      9144      9146
      9144      9147      9147      9148      9147      9149      9147      9150
      9150      9151      9150      9152      9150      9153      9153      9154
      9153      9155      9153      9156      9156      9157      9156      9158
      9156      9159      9159      9160      9159      9161      9159      9162
      9162      9163      9162      9164      9162      9165      9166      9167
      9166      9168      9166      9169      9166      9170      9170      9171
      9170      9172      9170      9173      9173      9174      9173      9175
      9173      9180      9180      9176      9176      9179      9176      9177
      9176      9178      9181      9182      9181      9183      9181      9184
      9181      9179      9184      9185      9184      9192      9184      9186
      9192      9193      9192      9194      9192      9195      9186      9187
      9187      9189      9187      9188      9189      9190      9189      9191
      9189      9201      9201      9202      9201      9203      9201      9204
      9204      9205      9204      9206      9204      9207      9207      9208
      9207      9209      9207      9210      9210      9211      9210      9212
      9210      9213      9213      9214      9213      9215      9213      9216
      9216      9217      9216      9218      9216      9219      9219      9220
      9219      9221      9221      9222      9221      9223      9223      9224
      9223      9225      9223      9226      9226      9227      9226      9228
      9226      9229      9229      9230      9229      9231      9229      9232
      9232      9233      9232      9234      9232      9235      9235      9236
      9235      9237      9235      9238      9238      9239      9238      9240
      9238      9241      9241      9242      9241      9243      9241      9244
      9244      9245      9244      9246      9244      9247      9195      9196
      9196      9198      9196      9197      9198      9199      9198      9200
      9198      9248      9248      9249      9248      9250      9248      9251
      9251      9252      9251      9253      9251      9254      9254      9255
      9254      9256      9254      9257      9257      9258      9257      9259
      9257      9260      9260      9261      9260      9262      9260      9263
      9263      9264      9263      9265      9263      9266      9266      9267
      9266      9268      9266      9269      9269      9270      9269      9271
      9269      9272      9272      9273      9272      9274      9272      9275
      9275      9276      9275      9277      9275      9278      9278      9279
      9278      9280      9278      9281      9281      9282      9281      9283
      9281      9284      9284      9285      9284      9286      9284      9287
      9287      9288      9287      9289      9287      9290      9291      9292
      9291      9293      9291      9294      9291      9295      9295      9296
      9295      9297      9295      9298      9298      9299      9298      9300
      9298      9305      9305      9301      9301      9304      9301      9302
      9301      9303      9306      9307      9306      9308      9306      9309
      9306      9304      9309      9310      9309      9317      9309      9311
      9317      9318      9317      9319      9317      9320      9311      9312
      9312      9314      9312      9313      9314      9315      9314      9316
      9314      9326      9326      9327      9326      9328      9326      9329
      9329      9330      9329      9331      9329      9332      9332      9333
      9332      9334      9332      9335      9335      9336      9335      9337
      9335      9338      9338      9339      9338      9340      9338      9341
      9341      9342      9341      9343      9341      9344      9344      9345
      9344      9349      9344      9346      9349      9350      9349      9351
      9349      9346      9351      9352      9351      9353      9351      9354
      9354      9355      9354      9356      9354      9357      9357      9358
      9357      9359      9357      9360      9360      9361      9360      9362
      9360      9363      9363      9364      9363      9365      9363      9366
      9366      9367      9366      9368      9366      9369      9346      9347
      9346      9348      9320      9321      9321      9323      9321      9322
      9323      9324      9323      9325      9323      9370      9370      9371
      9370      9372      9370      9373      9373      9374      9373      9375
      9373      9376      9376      9377      9376      9378      9376      9379
      9379      9380      9379      9381      9379      9382      9382      9383
      9382      9384      9382      9385      9385      9386      9385      9387
      9385      9388      9388      9389      9388      9390      9388      9391
      9391      9392      9391      9393      9391      9394      9394      9395
      9394      9396      9394      9397      9397      9398      9397      9399
      9397      9400      9400      9401      9400      9402      9400      9403
      9403      9404      9403      9405      9403      9406      9406      9407
      9406      9408      9406      9409      9410      9411      9410      9412
      9410      9413      9410      9414      9414      9415      9414      9416
      9414      9417      9417      9418      9417      9419      9417      9424
      9424      9420      9420      9423      9420      9421      9420      9422
      9425      9426      9425      9427      9425      9428      9425      9423
      9428      9429      9428      9436      9428      9430      9436      9437
      9436      9438      9436      9439      9430      9431      9431      9433
      9431      9432      9433      9434      9433      9435      9433      9445
      9445      9446      9445      9447      9445      9448      9448      9449
      9448      9450      9448      9451      9451      9452      9451      9453
      9451      9454      9454      9455      9454      9456      9454      9457
      9457      9458      9457      9459      9457      9460      9460      9461
      9460      9462      9460      9463      9463      9464      9463      9468
      9463      9465      9468      9469      9468      9470      9468      9465
      9470      9471      9470      9472      9470      9473      9473      9474
      9473      9475      9473      9476      9476      9477      9476      9478
      9476      9479      9479      9480      9479      9481      9479      9482
      9482      9483      9482      9484      9482      9485      9485      9486
      9485      9487      9485      9488      9465      9466      9465      9467
      9439      9440      9440      9442      9440      9441      9442      9443
      9442      9444      9442      9489      9489      9490      9489      9491
      9489      9492      9492      9493      9492      9494      9492      9495
      9495      9496      9495      9497      9495      9498      9498      9499
      9498      9500      9498      9501      9501      9502      9501      9503
      9501      9504      9504      9505      9504      9506      9504      9507
      9507      9508      9507      9509      9507      9510      9510      9511
      9510      9512      9510      9513      9513      9514      9513      9515
      9513      9516      9516      9517      9516      9518      9516      9519
      9519      9520      9519      9521      9519      9522      9522      9523
      9522      9524      9522      9525      9525      9526      9525      9527
      9525      9528      9528      9529      9528      9530      9528      9531
      9532      9533      9532      9534      9532      9535      9532      9536
      9536      9537      9536      9538      9536      9539      9539      9540
      9539      9541      9539      9546      9546      9542      9542      9545
      9542      9543      9542      9544      9547      9548      9547      9549
      9547      9550      9547      9545      9550      9551      9550      9558
      9550      9552      9558      9559      9558      9560      9558      9561
      9552      9553      9553      9555      9553      9554      9555      9556
      9555      9557      9555      9567      9567      9568      9567      9569
      9567      9570      9570      9571      9570      9572      9570      9573
      9573      9574      9573      9575      9573      9576      9576      9577
      9576      9578      9576      9579      9579      9580      9579      9581
      9579      9582      9582      9583      9582      9584      9582      9585
      9585      9586      9585      9587      9587      9588      9587      9589
      9589      9590      9589      9591      9589      9592      9592      9593
      9592      9594      9592      9595      9595      9596      9595      9597
      9595      9598      9598      9599      9598      9600      9598      9601
      9601      9602      9601      9603      9601      9604      9604      9605
      9604      9606      9604      9607      9607      9608      9607      9609
      9607      9610      9610      9611      9610      9612      9610      9613
      9561      9562      9562      9564      9562      9563      9564      9565
      9564      9566      9564      9614      9614      9615      9614      9616
      9614      9617      9617      9618      9617      9619      9617      9620
      9620      9621      9620      9622      9620      9623      9623      9624
      9623      9625      9623      9626      9626      9627      9626      9628
      9626      9629      9629      9630      9629      9631      9629      9632
      9632      9633      9632      9634      9632      9635      9635      9636
      9635      9637      9635      9638      9638      9639      9638      9640
      9638      9641      9641      9642      9641      9643      9641      9644
      9644      9645      9644      9646      9644      9647      9647      9648
      9647      9649      9647      9650      9650      9651      9650      9652
      9650      9653      9653      9654      9653      9655      9653      9656
      9657      9658      9657      9659      9657      9660      9657      9661
      9661      9662      9661      9663      9661      9664      9664      9665
      9664      9666      9664      9671      9671      9667      9667      9670
      9667      9668      9667      9669      9672      9673      9672      9674
      9672      9675      9672      9670      9675      9676      9675      9683
      9675      9677      9683      9684      9683      9685      9683      9686
      9677      9678      9678      9680      9678      9679      9680      9681
      9680      9682      9680      9692      9692      9693      9692      9694
      9692      9695      9695      9696      9695      9697      9695      9698
      9698      9699      9698      9700      9698      9701      9701      9702
      9701      9703      9701      9704      9704      9705      9704      9706
      9704      9707      9707      9708      9707      9709      9707      9710
      9710      9711      9710      9715      9710      9712      9715      9716
      9715      9717      9715      9712      9717      9718      9717      9719
      9717      9720      9720      9721      9720      9722      9720      9723
      9723      9724      9723      9725      9723      9726      9726      9727
      9726      9728      9726      9729      9729      9730      9729      9731
      9729      9732      9732      9733      9732      9734      9732      9735
      9712      9713      9712      9714      9686      9687      9687      9689
      9687      9688      9689      9690      9689      9691      9689      9736
      9736      9737      9736      9738      9736      9739      9739      9740
      9739      9741      9739      9742      9742      9743      9742      9744
      9742      9745      9745      9746      9745      9747      9745      9748
      9748      9749      9748      9750      9748      9751      9751      9752
      9751      9753      9751      9754      9754      9755      9754      9756
      9754      9757      9757      9758      9757      9759      9757      9760
      9760      9761      9760      9762      9760      9763      9763      9764
      9763      9765      9763      9766      9766      9767      9766      9768
      9766      9769      9769      9770      9769      9771      9769      9772
      9772      9773      9772      9774      9772      9775      9776      9777
      9776      9778      9776      9779      9776      9780      9780      9781
      9780      9782      9780      9783      9783      9784      9783      9785
      9783      9790      9790      9786      9786      9789      9786      9787
      9786      9788      9791      9792      9791      9793      9791      9794
      9791      9789      9794      9795      9794      9802      9794      9796
      9802      9803      9802      9804      9802      9805      9796      9797
      9797      9799      9797      9798      9799      9800      9799      9801
      9799      9811      9811      9812      9811      9813      9811      9814
      9814      9815      9814      9816      9814      9817      9817      9818
      9817      9819      9817      9820      9820      9821      9820      9822
      9820      9823      9823      9824      9823      9825      9823      9826
      9826      9827      9826      9828      9826      9829      9829      9830
      9829      9834      9829      9831      9834      9835      9834      9836
      9834      9831      9836      9837      9836      9838      9836      9839
      9839      9840      9839      9841      9839      9842      9842      9843
      9842      9844      9842      9845      9845      9846      9845      9847
      9845      9848      9848      9849      9848      9850      9848      9851
      9851      9852      9851      9853      9851      9854      9831      9832
      9831      9833      9805      9806      9806      9808      9806      9807
      9808      9809      9808      9810      9808      9855      9855      9856
      9855      9857      9855      9858      9858      9859      9858      9860
      9858      9861      9861      9862      9861      9863      9861      9864
      9864      9865      9864      9866      9864      9867      9867      9868
      9867      9869      9867      9870      9870      9871      9870      9872
      9870      9873      9873      9874      9873      9875      9873      9876
      9876      9877      9876      9878      9876      9879      9879      9880
      9879      9881      9879      9882      9882      9883      9882      9884
      9882      9885      9885      9886      9885      9887      9885      9888
      9888      9889      9888      9890      9888      9891      9891      9892
      9891      9893      9891      9894      9894      9895      9894      9896
      9894      9897      9898      9899      9898      9900      9898      9901
      9898      9902      9902      9903      9902      9904      9902      9905
      9905      9906      9905      9907      9905      9912      9912      9908
      9908      9911      9908      9909      9908      9910      9913      9914
      9913      9915      9913      9916      9913      9911      9916      9917
      9916      9924      9916      9918      9924      9925      9924      9926
      9924      9927      9918      9919      9919      9921      9919      9920
      9921      9922      9921      9923      9921      9933      9933      9934
      9933      9935      9933      9936      9936      9937      9936      9938
      9936      9939      9939      9940      9939      9941      9939      9942
      9942      9943      9942      9944      9942      9945      9945      9946
      9945      9947      9945      9948      9948      9949      9948      9950
      9948      9951      9951      9952      9951      9956      9951      9953
      9956      9957      9956      9958      9956      9953      9958      9959
      9958      9960      9958      9961      9961      9962      9961      9963
      9961      9964      9964      9965      9964      9966      9964      9967
      9967      9968      9967      9969      9967      9970      9970      9971
      9970      9972      9970      9973      9973      9974      9973      9975
      9973      9976      9953      9954      9953      9955      9927      9928
      9928      9930      9928      9929      9930      9931      9930      9932
      9930      9977      9977      9978      9977      9979      9977      9980
      9980      9981      9980      9982      9980      9983      9983      9984
      9983      9985      9983      9986      9986      9987      9986      9988
      9986      9989      9989      9990      9989      9991      9989      9992
      9992      9993      9992      9994      9992      9995      9995      9996
      9995      9997      9995      9998      9998      9999      9998     10000
      9998     10001     10001     10002     10001     10003     10001     10004
     10004     10005     10004     10006     10004     10007     10007     10008
     10007     10009     10007     10010     10010     10011     10010     10012
     10010     10013     10013     10014     10013     10015     10013     10016
     10017     10018     10017     10019     10017     10020     10017     10021
     10021     10022     10021     10023     10021     10024     10024     10025
     10024     10026     10024     10031     10031     10027     10027     10030
     10027     10028     10027     10029     10032     10033     10032     10034
     10032     10035     10032     10030     10035     10036     10035     10043
     10035     10037     10043     10044     10043     10045     10043     10046
     10037     10038     10038     10040     10038     10039     10040     10041
     10040     10042     10040     10052     10052     10053     10052     10054
     10052     10055     10055     10056     10055     10057     10055     10058
     10058     10059     10058     10060     10058     10061     10061     10062
     10061     10063     10061     10064     10064     10065     10064     10066
     10064     10067     10067     10068     10067     10069     10067     10070
     10070     10071     10070     10075     10070     10072     10075     10076
     10075     10077     10075     10072     10077     10078     10077     10079
     10077     10080     10080     10081     10080     10082     10080     10083
     10083     10084     10083     10085     10083     10086     10086     10087
     10086     10088     10086     10089     10089     10090     10089     10091
     10089     10092     10092     10093     10092     10094     10092     10095
     10072     10073     10072     10074     10046     10047     10047     10049
     10047     10048     10049     10050     10049     10051     10049     10096
     10096     10097     10096     10098     10096     10099     10099     10100
     10099     10101     10099     10102     10102     10103     10102     10104
     10102     10105     10105     10106     10105     10107     10105     10108
     10108     10109     10108     10110     10108     10111     10111     10112
     10111     10113     10111     10114     10114     10115     10114     10116
     10114     10117     10117     10118     10117     10119     10117     10120
     10120     10121     10120     10122     10120     10123     10123     10124
     10123     10125     10123     10126     10126     10127     10126     10128
     10126     10129     10129     10130     10129     10131     10129     10132
     10132     10133     10132     10134     10132     10135     10135     10136
     10135     10137     10135     10138     10139     10140     10139     10141
     10139     10142     10139     10143     10143     10144     10143     10145
     10143     10146     10146     10147     10146     10148     10146     10153
     10153     10149     10149     10152     10149     10150     10149     10151
     10154     10155     10154     10156     10154     10157     10154     10152
     10157     10158     10157     10165     10157     10159     10165     10166
     10165     10167     10165     10168     10159     10160     10160     10162
     10160     10161     10162     10163     10162     10164     10162     10174
     10174     10175     10174     10176     10174     10177     10177     10178
     10177     10179     10177     10180     10180     10181     10180     10182
     10180     10183     10183     10184     10183     10185     10183     10186
     10186     10187     10186     10188     10186     10189     10189     10190
     10189     10191     10189     10192     10192     10193     10192     10197
     10192     10194     10197     10198     10197     10199     10197     10194
     10199     10200     10199     10201     10199     10202     10202     10203
     10202     10204     10202     10205     10205     10206     10205     10207
     10205     10208     10208     10209     10208     10210     10208     10211
     10211     10212     10211     10213     10211     10214     10214     10215
     10214     10216     10214     10217     10194     10195     10194     10196
     10168     10169     10169     10171     10169     10170     10171     10172
     10171     10173     10171     10218     10218     10219     10218     10220
     10218     10221     10221     10222     10221     10223     10221     10224
     10224     10225     10224     10226     10224     10227     10227     10228
     10227     10229     10227     10230     10230     10231     10230     10232
     10230     10233     10233     10234     10233     10235     10233     10236
     10236     10237     10236     10238     10236     10239     10239     10240
     10239     10241     10239     10242     10242     10243     10242     10244
     10242     10245     10245     10246     10245     10247     10245     10248
     10248     10249     10248     10250     10248     10251     10251     10252
     10251     10253     10251     10254     10254     10255     10254     10256
     10254     10257     10258     10259     10258     10260     10258     10261
     10258     10262     10262     10263     10262     10264     10262     10265
     10265     10266     10265     10267     10265     10272     10272     10268
     10268     10271     10268     10269     10268     10270     10273     10274
     10273     10275     10273     10276     10273     10271     10276     10277
     10276     10284     10276     10278     10284     10285     10284     10286
     10284     10287     10278     10279     10279     10281     10279     10280
     10281     10282     10281     10283     10281     10293     10293     10294
     10293     10295     10293     10296     10296     10297     10296     10298
     10296     10299     10299     10300     10299     10301     10299     10302
     10302     10303     10302     10304     10302     10305     10305     10306
     10305     10307     10305     10308     10308     10309     10308     10310
     10308     10311     10311     10312     10311     10313     10313     10314
     10313     10315     10315     10316     10315     10317     10315     10318
     10318     10319     10318     10320     10318     10321     10321     10322
     10321     10323     10321     10324     10324     10325     10324     10326
     10324     10327     10327     10328     10327     10329     10327     10330
     10330     10331     10330     10332     10330     10333     10333     10334
     10333     10335     10333     10336     10336     10337     10336     10338
     10336     10339     10287     10288     10288     10290     10288     10289
     10290     10291     10290     10292     10290     10340     10340     10341
     10340     10342     10340     10343     10343     10344     10343     10345
     10343     10346     10346     10347     10346     10348     10346     10349
     10349     10350     10349     10351     10349     10352     10352     10353
     10352     10354     10352     10355     10355     10356     10355     10357
     10355     10358     10358     10359     10358     10360     10358     10361
     10361     10362     10361     10363     10361     10364     10364     10365
     10364     10366     10364     10367     10367     10368     10367     10369
     10367     10370     10370     10371     10370     10372     10370     10373
     10373     10374     10373     10375     10373     10376     10376     10377
     10376     10378     10376     10379     10379     10380     10379     10381
     10379     10382     10383     10384     10383     10385     10383     10386
     10383     10387     10387     10388     10387     10389     10387     10390
     10390     10391     10390     10392     10390     10397     10397     10393
     10393     10396     10393     10394     10393     10395     10398     10399
     10398     10400     10398     10401     10398     10396     10401     10402
     10401     10409     10401     10403     10409     10410     10409     10411
     10409     10412     10403     10404     10404     10406     10404     10405
     10406     10407     10406     10408     10406     10418     10418     10419
     10418     10420     10418     10421     10421     10422     10421     10423
     10421     10424     10424     10425     10424     10426     10424     10427
     10427     10428     10427     10429     10427     10430     10430     10431
     10430     10432     10430     10433     10433     10434     10433     10435
     10433     10436     10436     10437     10436     10438     10438     10439
     10438     10440     10440     10441     10440     10442     10440     10443
     10443     10444     10443     10445     10443     10446     10446     10447
     10446     10448     10446     10449     10449     10450     10449     10451
     10449     10452     10452     10453     10452     10454     10452     10455
     10455     10456     10455     10457     10455     10458     10458     10459
     10458     10460     10458     10461     10461     10462     10461     10463
     10461     10464     10412     10413     10413     10415     10413     10414
     10415     10416     10415     10417     10415     10465     10465     10466
     10465     10467     10465     10468     10468     10469     10468     10470
     10468     10471     10471     10472     10471     10473     10471     10474
     10474     10475     10474     10476     10474     10477     10477     10478
     10477     10479     10477     10480     10480     10481     10480     10482
     10480     10483     10483     10484     10483     10485     10483     10486
     10486     10487     10486     10488     10486     10489     10489     10490
     10489     10491     10489     10492     10492     10493     10492     10494
     10492     10495     10495     10496     10495     10497     10495     10498
     10498     10499     10498     10500     10498     10501     10501     10502
     10501     10503     10501     10504     10504     10505     10504     10506
     10504     10507     10508     10509     10508     10510     10508     10511
     10508     10512     10512     10513     10512     10514     10512     10515
     10515     10516     10515     10517     10515     10522     10522     10518
     10518     10521     10518     10519     10518     10520     10523     10524
     10523     10525     10523     10526     10523     10521     10526     10527
     10526     10534     10526     10528     10534     10535     10534     10536
     10534     10537     10528     10529     10529     10531     10529     10530
     10531     10532     10531     10533     10531     10543     10543     10544
     10543     10545     10543     10546     10546     10547     10546     10548
     10546     10549     10549     10550     10549     10551     10549     10552
     10552     10553     10552     10554     10552     10555     10555     10556
     10555     10557     10555     10558     10558     10559     10558     10560
     10558     10561     10561     10562     10561     10566     10561     10563
     10566     10567     10566     10568     10566     10563     10568     10569
     10568     10570     10568     10571     10571     10572     10571     10573
     10571     10574     10574     10575     10574     10576     10574     10577
     10577     10578     10577     10579     10577     10580     10580     10581
     10580     10582     10580     10583     10583     10584     10583     10585
     10583     10586     10563     10564     10563     10565     10537     10538
     10538     10540     10538     10539     10540     10541     10540     10542
     10540     10587     10587     10588     10587     10589     10587     10590
     10590     10591     10590     10592     10590     10593     10593     10594
     10593     10595     10593     10596     10596     10597     10596     10598
     10596     10599     10599     10600     10599     10601     10599     10602
     10602     10603     10602     10604     10602     10605     10605     10606
     10605     10607     10605     10608     10608     10609     10608     10610
     10608     10611     10611     10612     10611     10613     10611     10614
     10614     10615     10614     10616     10614     10617     10617     10618
     10617     10619     10617     10620     10620     10621     10620     10622
     10620     10623     10623     10624     10623     10625     10623     10626
     10627     10628     10627     10629     10627     10630     10627     10631
     10631     10632     10631     10633     10631     10634     10634     10635
     10634     10636     10634     10641     10641     10637     10637     10640
     10637     10638     10637     10639     10642     10643     10642     10644
     10642     10645     10642     10640     10645     10646     10645     10653
     10645     10647     10653     10654     10653     10655     10653     10656
     10647     10648     10648     10650     10648     10649     10650     10651
     10650     10652     10650     10662     10662     10663     10662     10664
     10662     10665     10665     10666     10665     10667     10665     10668
     10668     10669     10668     10670     10668     10671     10671     10672
     10671     10673     10671     10674     10674     10675     10674     10676
     10674     10677     10677     10678     10677     10679     10677     10680
     10680     10681     10680     10685     10680     10682     10685     10686
     10685     10687     10685     10682     10687     10688     10687     10689
     10687     10690     10690     10691     10690     10692     10690     10693
     10693     10694     10693     10695     10693     10696     10696     10697
     10696     10698     10696     10699     10699     10700     10699     10701
     10699     10702     10702     10703     10702     10704     10702     10705
     10682     10683     10682     10684     10656     10657     10657     10659
     10657     10658     10659     10660     10659     10661     10659     10706
     10706     10707     10706     10708     10706     10709     10709     10710
     10709     10711     10709     10712     10712     10713     10712     10714
     10712     10715     10715     10716     10715     10717     10715     10718
     10718     10719     10718     10720     10718     10721     10721     10722
     10721     10723     10721     10724     10724     10725     10724     10726
     10724     10727     10727     10728     10727     10729     10727     10730
     10730     10731     10730     10732     10730     10733     10733     10734
     10733     10735     10733     10736     10736     10737     10736     10738
     10736     10739     10739     10740     10739     10741     10739     10742
     10742     10743     10742     10744     10742     10745     10745     10746
     10745     10747     10745     10748     10749     10750     10749     10751
     10749     10752     10749     10753     10753     10754     10753     10755
     10753     10756     10756     10757     10756     10758     10756     10763
     10763     10759     10759     10762     10759     10760     10759     10761
     10764     10765     10764     10766     10764     10767     10764     10762
     10767     10768     10767     10775     10767     10769     10775     10776
     10775     10777     10775     10778     10769     10770     10770     10772
     10770     10771     10772     10773     10772     10774     10772     10784
     10784     10785     10784     10786     10784     10787     10787     10788
     10787     10789     10787     10790     10790     10791     10790     10792
     10790     10793     10793     10794     10793     10795     10793     10796
     10796     10797     10796     10798     10796     10799     10799     10800
     10799     10801     10799     10802     10802     10803     10802     10807
     10802     10804     10807     10808     10807     10809     10807     10804
     10809     10810     10809     10811     10809     10812     10812     10813
     10812     10814     10812     10815     10815     10816     10815     10817
     10815     10818     10818     10819     10818     10820     10818     10821
     10821     10822     10821     10823     10821     10824     10824     10825
     10824     10826     10824     10827     10804     10805     10804     10806
     10778     10779     10779     10781     10779     10780     10781     10782
     10781     10783     10781     10828     10828     10829     10828     10830
     10828     10831     10831     10832     10831     10833     10831     10834
     10834     10835     10834     10836     10834     10837     10837     10838
     10837     10839     10837     10840     10840     10841     10840     10842
     10840     10843     10843     10844     10843     10845     10843     10846
     10846     10847     10846     10848     10846     10849     10849     10850
     10849     10851     10849     10852     10852     10853     10852     10854
     10852     10855     10855     10856     10855     10857     10855     10858
     10858     10859     10858     10860     10858     10861     10861     10862
     10861     10863     10861     10864     10864     10865     10864     10866
     10864     10867     10867     10868     10867     10869     10867     10870
     10871     10872     10871     10873     10871     10874     10871     10875
     10875     10876     10875     10877     10875     10878     10878     10879
     10878     10880     10878     10885     10885     10881     10881     10884
     10881     10882     10881     10883     10886     10887     10886     10888
     10886     10889     10886     10884     10889     10890     10889     10897
     10889     10891     10897     10898     10897     10899     10897     10900
     10891     10892     10892     10894     10892     10893     10894     10895
     10894     10896     10894     10906     10906     10907     10906     10908
     10906     10909     10909     10910     10909     10911     10909     10912
     10912     10913     10912     10914     10912     10915     10915     10916
     10915     10917     10915     10918     10918     10919     10918     10920
     10918     10921     10921     10922     10921     10923     10921     10924
     10924     10925     10924     10929     10924     10926     10929     10930
     10929     10931     10929     10926     10931     10932     10931     10933
     10931     10934     10934     10935     10934     10936     10934     10937
     10937     10938     10937     10939     10937     10940     10940     10941
     10940     10942     10940     10943     10943     10944     10943     10945
     10943     10946     10946     10947     10946     10948     10946     10949
     10926     10927     10926     10928     10900     10901     10901     10903
     10901     10902     10903     10904     10903     10905     10903     10950
     10950     10951     10950     10952     10950     10953     10953     10954
     10953     10955     10953     10956     10956     10957     10956     10958
     10956     10959     10959     10960     10959     10961     10959     10962
     10962     10963     10962     10964     10962     10965     10965     10966
     10965     10967     10965     10968     10968     10969     10968     10970
     10968     10971     10971     10972     10971     10973     10971     10974
     10974     10975     10974     10976     10974     10977     10977     10978
     10977     10979     10977     10980     10980     10981     10980     10982
     10980     10983     10983     10984     10983     10985     10983     10986
     10986     10987     10986     10988     10986     10989     10989     10990
     10989     10991     10989     10992     11008     11004     11008     11009
     11008     11010     11004     11006     11004     11005     11006     11007
     11004     10993     10993     10994     10993     10995     11008     11014
     10993     10999     11011     11014     11011     11015     11011     11012
     11011     11013     10996     10999     10996     11000     10996     10997
     10996     10998     11015     11016     11016     11017     11016     11018
     11016     11019     11019     11020     11019     11021     11019     11027
     11027     11028     11027     11029     11027     11030     11000     11001
     11001     11002     11001     11003     11001     11036     11036     11037
     11036     11038     11036     11044     11044     11045     11044     11046
     11044     11047     11021     11022     11030     11031     11038     11039
     11047     11048     11022     11023     11022     11024     11024     11025
     11024     11026     11024     11053     11053     11054     11053     11055
     11053     11056     11056     11057     11056     11058     11056     11059
     11059     11060     11059     11061     11059     11062     11062     11063
     11062     11064     11062     11065     11065     11066     11065     11067
     11065     11068     11068     11069     11068     11070     11068     11071
     11071     11072     11071     11073     11071     11074     11074     11075
     11074     11076     11074     11077     11077     11078     11077     11079
     11079     11080     11079     11081     11081     11082     11081     11083
     11081     11084     11084     11085     11084     11086     11084     11087
     11087     11088     11087     11089     11087     11090     11090     11091
     11090     11092     11090     11093     11093     11094     11093     11095
     11093     11096     11096     11097     11096     11098     11096     11099
     11031     11032     11031     11033     11033     11034     11033     11035
     11033     11100     11100     11101     11100     11102     11100     11103
     11103     11104     11103     11105     11103     11106     11106     11107
     11106     11108     11106     11109     11109     11110     11109     11111
     11109     11112     11112     11113     11112     11114     11112     11115
     11115     11116     11115     11117     11115     11118     11118     11119
     11118     11120     11118     11121     11121     11122     11121     11123
     11121     11124     11124     11125     11124     11126     11124     11127
     11127     11128     11127     11129     11127     11130     11130     11131
     11130     11132     11130     11133     11133     11134     11133     11135
     11133     11136     11136     11137     11136     11138     11136     11139
     11139     11140     11139     11141     11139     11142     11039     11040
     11039     11041     11041     11042     11041     11043     11041     11143
     11143     11144     11143     11145     11143     11146     11146     11147
     11146     11148     11146     11149     11149     11150     11149     11151
     11149     11152     11152     11153     11152     11154     11152     11155
     11155     11156     11155     11157     11155     11158     11158     11159
     11158     11160     11158     11161     11161     11162     11161     11163
     11161     11164     11164     11165     11164     11166     11164     11167
     11167     11168     11167     11169     11169     11170     11169     11171
     11171     11172     11171     11173     11171     11174     11174     11175
     11174     11176     11174     11177     11177     11178     11177     11179
     11177     11180     11180     11181     11180     11182     11180     11183
     11183     11184     11183     11185     11183     11186     11186     11187
     11186     11188     11186     11189     11048     11049     11048     11050
     11050     11051     11050     11052     11050     11190     11190     11191
     11190     11192     11190     11193     11193     11194     11193     11195
     11193     11196     11196     11197     11196     11198     11196     11199
     11199     11200     11199     11201     11199     11202     11202     11203
     11202     11204     11202     11205     11205     11206     11205     11207
     11205     11208     11208     11209     11208     11210     11208     11211
     11211     11212     11211     11213     11211     11214     11214     11215
     11214     11216     11214     11217     11217     11218     11217     11219
     11217     11220     11220     11221     11220     11222     11220     11223
     11223     11224     11223     11225     11223     11226     11226     11227
     11226     11228     11226     11229     11229     11230     11229     11231
     11229     11232     11233     11234     11233     11235     11233     11236
     11233     11237     11237     11238     11237     11239     11237     11240
     11240     11241     11240     11242     11240     11247     11247     11243
     11243     11246     11243     11244     11243     11245     11248     11249
     11248     11250     11248     11251     11248     11246     11251     11252
     11251     11259     11251     11253     11259     11260     11259     11261
     11259     11262     11253     11254     11254     11256     11254     11255
     11256     11257     11256     11258     11256     11268     11268     11269
     11268     11270     11268     11271     11271     11272     11271     11273
     11271     11274     11274     11275     11274     11276     11274     11277
     11277     11278     11277     11279     11277     11280     11280     11281
     11280     11282     11280     11283     11283     11284     11283     11285
     11283     11286     11286     11287     11286     11291     11286     11288
     11291     11292     11291     11293     11291     11288     11293     11294
     11293     11295     11293     11296     11296     11297     11296     11298
     11296     11299     11299     11300     11299     11301     11299     11302
     11302     11303     11302     11304     11302     11305     11305     11306
     11305     11307     11305     11308     11308     11309     11308     11310
     11308     11311     11288     11289     11288     11290     11262     11263
     11263     11265     11263     11264     11265     11266     11265     11267
     11265     11312     11312     11313     11312     11314     11312     11315
     11315     11316     11315     11317     11315     11318     11318     11319
     11318     11320     11318     11321     11321     11322     11321     11323
     11321     11324     11324     11325     11324     11326     11324     11327
     11327     11328     11327     11329     11327     11330     11330     11331
     11330     11332     11330     11333     11333     11334     11333     11335
     11333     11336     11336     11337     11336     11338     11336     11339
     11339     11340     11339     11341     11339     11342     11342     11343
     11342     11344     11342     11345     11345     11346     11345     11347
     11345     11348     11348     11349     11348     11350     11348     11351
     11351     11352     11351     11353     11351     11354     11355     11356
     11355     11357     11355     11358     11355     11359     11359     11360
     11359     11361     11359     11362     11362     11363     11362     11364
     11362     11369     11369     11365     11365     11368     11365     11366
     11365     11367     11370     11371     11370     11372     11370     11373
     11370     11368     11373     11374     11373     11381     11373     11375
     11381     11382     11381     11383     11381     11384     11375     11376
     11376     11378     11376     11377     11378     11379     11378     11380
     11378     11390     11390     11391     11390     11392     11390     11393
     11393     11394     11393     11395     11393     11396     11396     11397
     11396     11398     11396     11399     11399     11400     11399     11401
     11399     11402     11402     11403     11402     11404     11402     11405
     11405     11406     11405     11407     11405     11408     11408     11409
     11408     11413     11408     11410     11413     11414     11413     11415
     11413     11410     11415     11416     11415     11417     11415     11418
     11418     11419     11418     11420     11418     11421     11421     11422
     11421     11423     11421     11424     11424     11425     11424     11426
     11424     11427     11427     11428     11427     11429     11427     11430
     11430     11431     11430     11432     11430     11433     11410     11411
     11410     11412     11384     11385     11385     11387     11385     11386
     11387     11388     11387     11389     11387     11434     11434     11435
     11434     11436     11434     11437     11437     11438     11437     11439
     11437     11440     11440     11441     11440     11442     11440     11443
     11443     11444     11443     11445     11443     11446     11446     11447
     11446     11448     11446     11449     11449     11450     11449     11451
     11449     11452     11452     11453     11452     11454     11452     11455
     11455     11456     11455     11457     11455     11458     11458     11459
     11458     11460     11458     11461     11461     11462     11461     11463
     11461     11464     11464     11465     11464     11466     11464     11467
     11467     11468     11467     11469     11467     11470     11470     11471
     11470     11472     11470     11473     11473     11474     11473     11475
     11473     11476     11477     11478     11477     11479     11477     11480
     11477     11481     11481     11482     11481     11483     11481     11484
     11484     11485     11484     11486     11484     11491     11491     11487
     11487     11490     11487     11488     11487     11489     11492     11493
     11492     11494     11492     11495     11492     11490     11495     11496
     11495     11503     11495     11497     11503     11504     11503     11505
     11503     11506     11497     11498     11498     11500     11498     11499
     11500     11501     11500     11502     11500     11512     11512     11513
     11512     11514     11512     11515     11515     11516     11515     11517
     11515     11518     11518     11519     11518     11520     11518     11521
     11521     11522     11521     11523     11521     11524     11524     11525
     11524     11526     11524     11527     11527     11528     11527     11529
     11527     11530     11530     11531     11530     11535     11530     11532
     11535     11536     11535     11537     11535     11532     11537     11538
     11537     11539     11537     11540     11540     11541     11540     11542
     11540     11543     11543     11544     11543     11545     11543     11546
     11546     11547     11546     11548     11546     11549     11549     11550
     11549     11551     11549     11552     11552     11553     11552     11554
     11552     11555     11532     11533     11532     11534     11506     11507
     11507     11509     11507     11508     11509     11510     11509     11511
     11509     11556     11556     11557     11556     11558     11556     11559
     11559     11560     11559     11561     11559     11562     11562     11563
     11562     11564     11562     11565     11565     11566     11565     11567
     11565     11568     11568     11569     11568     11570     11568     11571
     11571     11572     11571     11573     11571     11574     11574     11575
     11574     11576     11574     11577     11577     11578     11577     11579
     11577     11580     11580     11581     11580     11582     11580     11583
     11583     11584     11583     11585     11583     11586     11586     11587
     11586     11588     11586     11589     11589     11590     11589     11591
     11589     11592     11592     11593     11592     11594     11592     11595
     11595     11596     11595     11597     11595     11598     11599     11600
     11599     11601     11599     11602     11599     11603     11603     11604
     11603     11605     11603     11606     11606     11607     11606     11608
     11606     11613     11613     11609     11609     11612     11609     11610
     11609     11611     11614     11615     11614     11616     11614     11617
     11614     11612     11617     11618     11617     11625     11617     11619
     11625     11626     11625     11627     11625     11628     11619     11620
     11620     11622     11620     11621     11622     11623     11622     11624
     11622     11634     11634     11635     11634     11636     11634     11637
     11637     11638     11637     11639     11637     11640     11640     11641
     11640     11642     11640     11643     11643     11644     11643     11645
     11643     11646     11646     11647     11646     11648     11646     11649
     11649     11650     11649     11651     11649     11652     11652     11653
     11652     11654     11654     11655     11654     11656     11656     11657
     11656     11658     11656     11659     11659     11660     11659     11661
     11659     11662     11662     11663     11662     11664     11662     11665
     11665     11666     11665     11667     11665     11668     11668     11669
     11668     11670     11668     11671     11671     11672     11671     11673
     11671     11674     11674     11675     11674     11676     11674     11677
     11677     11678     11677     11679     11677     11680     11628     11629
     11629     11631     11629     11630     11631     11632     11631     11633
     11631     11681     11681     11682     11681     11683     11681     11684
     11684     11685     11684     11686     11684     11687     11687     11688
     11687     11689     11687     11690     11690     11691     11690     11692
     11690     11693     11693     11694     11693     11695     11693     11696
     11696     11697     11696     11698     11696     11699     11699     11700
     11699     11701     11699     11702     11702     11703     11702     11704
     11702     11705     11705     11706     11705     11707     11705     11708
     11708     11709     11708     11710     11708     11711     11711     11712
     11711     11713     11711     11714     11714     11715     11714     11716
     11714     11717     11717     11718     11717     11719     11717     11720
     11720     11721     11720     11722     11720     11723     11724     11725
     11724     11726     11724     11727     11724     11728     11728     11729
     11728     11730     11728     11731     11731     11732     11731     11733
     11731     11738     11738     11734     11734     11737     11734     11735
     11734     11736     11739     11740     11739     11741     11739     11742
     11739     11737     11742     11743     11742     11750     11742     11744
     11750     11751     11750     11752     11750     11753     11744     11745
     11745     11747     11745     11746     11747     11748     11747     11749
     11747     11759     11759     11760     11759     11761     11759     11762
     11762     11763     11762     11764     11762     11765     11765     11766
     11765     11767     11765     11768     11768     11769     11768     11770
     11768     11771     11771     11772     11771     11773     11771     11774
     11774     11775     11774     11776     11774     11777     11777     11778
     11777     11782     11777     11779     11782     11783     11782     11784
     11782     11779     11784     11785     11784     11786     11784     11787
     11787     11788     11787     11789     11787     11790     11790     11791
     11790     11792     11790     11793     11793     11794     11793     11795
     11793     11796     11796     11797     11796     11798     11796     11799
     11799     11800     11799     11801     11799     11802     11779     11780
     11779     11781     11753     11754     11754     11756     11754     11755
     11756     11757     11756     11758     11756     11803     11803     11804
     11803     11805     11803     11806     11806     11807     11806     11808
     11806     11809     11809     11810     11809     11811     11809     11812
     11812     11813     11812     11814     11812     11815     11815     11816
     11815     11817     11815     11818     11818     11819     11818     11820
     11818     11821     11821     11822     11821     11823     11821     11824
     11824     11825     11824     11826     11824     11827     11827     11828
     11827     11829     11827     11830     11830     11831     11830     11832
     11830     11833     11833     11834     11833     11835     11833     11836
     11836     11837     11836     11838     11836     11839     11839     11840
     11839     11841     11839     11842     11842     11843     11842     11844
     11842     11845     11846     11847     11846     11848     11846     11849
     11846     11850     11850     11851     11850     11852     11850     11853
     11853     11854     11853     11855     11853     11860     11860     11856
     11856     11859     11856     11857     11856     11858     11861     11862
     11861     11863     11861     11864     11861     11859     11864     11865
     11864     11872     11864     11866     11872     11873     11872     11874
     11872     11875     11866     11867     11867     11869     11867     11868
     11869     11870     11869     11871     11869     11881     11881     11882
     11881     11883     11881     11884     11884     11885     11884     11886
     11884     11887     11887     11888     11887     11889     11887     11890
     11890     11891     11890     11892     11890     11893     11893     11894
     11893     11895     11893     11896     11896     11897     11896     11898
     11896     11899     11899     11900     11899     11901     11901     11902
     11901     11903     11903     11904     11903     11905     11903     11906
     11906     11907     11906     11908     11906     11909     11909     11910
     11909     11911     11909     11912     11912     11913     11912     11914
     11912     11915     11915     11916     11915     11917     11915     11918
     11918     11919     11918     11920     11918     11921     11875     11876
     11876     11878     11876     11877     11878     11879     11878     11880
     11878     11922     11922     11923     11922     11924     11922     11925
     11925     11926     11925     11927     11925     11928     11928     11929
     11928     11930     11928     11931     11931     11932     11931     11933
     11931     11934     11934     11935     11934     11936     11934     11937
     11937     11938     11937     11939     11937     11940     11940     11941
     11940     11942     11942     11943     11942     11944     11944     11945
     11944     11946     11944     11947     11947     11948     11947     11949
     11947     11950     11950     11951     11950     11952     11950     11953
     11953     11954     11953     11955     11953     11956     11956     11957
     11956     11958     11956     11959     11959     11960     11959     11961
     11959     11962     11962     11963     11962     11964     11962     11965
     11965     11966     11965     11967     11965     11968     11969     11970
     11969     11971     11969     11972     11969     11973     11973     11974
     11973     11975     11973     11976     11976     11977     11976     11978
     11976     11983     11983     11979     11979     11982     11979     11980
     11979     11981     11984     11985     11984     11986     11984     11987
     11984     11982     11987     11988     11987     11995     11987     11989
     11995     11996     11995     11997     11995     11998     11989     11990
     11990     11992     11990     11991     11992     11993     11992     11994
     11992     12004     12004     12005     12004     12006     12004     12007
     12007     12008     12007     12009     12007     12010     12010     12011
     12010     12012     12010     12013     12013     12014     12013     12015
     12013     12016     12016     12017     12016     12018     12016     12019
     12019     12020     12019     12021     12019     12022     12022     12023
     12022     12027     12022     12024     12027     12028     12027     12029
     12027     12024     12029     12030     12029     12031     12029     12032
     12032     12033     12032     12034     12032     12035     12035     12036
     12035     12037     12035     12038     12038     12039     12038     12040
     12038     12041     12041     12042     12041     12043     12041     12044
     12044     12045     12044     12046     12044     12047     12024     12025
     12024     12026     11998     11999     11999     12001     11999     12000
     12001     12002     12001     12003     12001     12048     12048     12049
     12048     12050     12048     12051     12051     12052     12051     12053
     12051     12054     12054     12055     12054     12056     12054     12057
     12057     12058     12057     12059     12057     12060     12060     12061
     12060     12062     12060     12063     12063     12064     12063     12065
     12063     12066     12066     12067     12066     12068     12066     12069
     12069     12070     12069     12071     12069     12072     12072     12073
     12072     12074     12072     12075     12075     12076     12075     12077
     12075     12078     12078     12079     12078     12080     12078     12081
     12081     12082     12081     12083     12081     12084     12084     12085
     12084     12086     12084     12087     12092     12091     12091     12088
     12088     12089     12088     12090     12088     12093     12096     12095
     12095     12093     12093     12094     12093     12097     12097     12098
     12097     12099     12097     12104     12104     12100     12100     12103
     12100     12101     12100     12102     12105     12106     12105     12107
     12105     12108     12105     12103     12108     12109     12108     12116
     12108     12110     12116     12117     12116     12118     12116     12119
     12110     12111     12111     12113     12111     12112     12113     12114
     12113     12115     12113     12125     12125     12126     12125     12127
     12125     12128     12128     12129     12128     12130     12128     12131
     12131     12132     12131     12133     12131     12134     12134     12135
     12134     12136     12134     12137     12137     12138     12137     12139
     12137     12140     12140     12141     12140     12142     12140     12143
     12143     12144     12143     12145     12145     12146     12145     12147
     12147     12148     12147     12149     12147     12150     12150     12151
     12150     12152     12150     12153     12153     12154     12153     12155
     12153     12156     12156     12157     12156     12158     12156     12159
     12159     12160     12159     12161     12159     12162     12162     12163
     12162     12164     12162     12165     12119     12120     12120     12122
     12120     12121     12122     12123     12122     12124     12122     12166
     12166     12167     12166     12168     12166     12169     12169     12170
     12169     12171     12169     12172     12172     12173     12172     12174
     12172     12175     12175     12176     12175     12177     12175     12178
     12178     12179     12178     12180     12178     12181     12181     12182
     12181     12183     12181     12184     12184     12185     12184     12186
     12184     12187     12187     12188     12187     12189     12187     12190
     12190     12191     12190     12192     12190     12193     12193     12194
     12193     12195     12193     12196     12196     12197     12196     12198
     12196     12199     12199     12200     12199     12201     12199     12202
     12202     12203     12202     12204     12202     12205     12205     12206
     12205     12207     12205     12208     12209     12210     12209     12211
     12209     12212     12209     12213     12213     12214     12213     12215
     12213     12216     12216     12217     12216     12218     12216     12223
     12223     12219     12219     12222     12219     12220     12219     12221
     12224     12225     12224     12226     12224     12227     12224     12222
     12227     12228     12227     12235     12227     12229     12235     12236
     12235     12237     12235     12238     12229     12230     12230     12232
     12230     12231     12232     12233     12232     12234     12232     12244
     12244     12245     12244     12246     12244     12247     12247     12248
     12247     12249     12247     12250     12250     12251     12250     12252
     12250     12253     12253     12254     12253     12255     12253     12256
     12256     12257     12256     12258     12256     12259     12259     12260
     12259     12261     12259     12262     12262     12263     12262     12264
     12264     12265     12264     12266     12266     12267     12266     12268
     12266     12269     12269     12270     12269     12271     12269     12272
     12272     12273     12272     12274     12272     12275     12275     12276
     12275     12277     12275     12278     12278     12279     12278     12280
     12278     12281     12281     12282     12281     12283     12281     12284
     12284     12285     12284     12286     12284     12287     12287     12288
     12287     12289     12287     12290     12238     12239     12239     12241
     12239     12240     12241     12242     12241     12243     12241     12291
     12291     12292     12291     12293     12291     12294     12294     12295
     12294     12296     12294     12297     12297     12298     12297     12299
     12297     12300     12300     12301     12300     12302     12300     12303
     12303     12304     12303     12305     12303     12306     12306     12307
     12306     12308     12306     12309     12309     12310     12309     12311
     12309     12312     12312     12313     12312     12314     12312     12315
     12315     12316     12315     12317     12315     12318     12318     12319
     12318     12320     12318     12321     12321     12322     12321     12323
     12321     12324     12324     12325     12324     12326     12324     12327
     12327     12328     12327     12329     12327     12330     12330     12331
     12330     12332     12330     12333     12334     12335     12334     12336
     12334     12337     12334     12338     12338     12339     12338     12340
     12338     12341     12341     12342     12341     12343     12341     12348
     12348     12344     12344     12347     12344     12345     12344     12346
     12349     12350     12349     12351     12349     12352     12349     12347
     12352     12353     12352     12360     12352     12354     12360     12361
     12360     12362     12360     12363     12354     12355     12355     12357
     12355     12356     12357     12358     12357     12359     12357     12369
     12369     12370     12369     12371     12369     12372     12372     12373
     12372     12374     12372     12375     12375     12376     12375     12377
     12375     12378     12378     12379     12378     12380     12378     12381
     12381     12382     12381     12383     12381     12384     12384     12385
     12384     12386     12384     12387     12387     12388     12387     12389
     12389     12390     12389     12391     12391     12392     12391     12393
     12391     12394     12394     12395     12394     12396     12394     12397
     12397     12398     12397     12399     12397     12400     12400     12401
     12400     12402     12400     12403     12403     12404     12403     12405
     12403     12406     12406     12407     12406     12408     12406     12409
     12409     12410     12409     12411     12409     12412     12412     12413
     12412     12414     12412     12415     12363     12364     12364     12366
     12364     12365     12366     12367     12366     12368     12366     12416
     12416     12417     12416     12418     12416     12419     12419     12420
     12419     12421     12419     12422     12422     12423     12422     12424
     12422     12425     12425     12426     12425     12427     12425     12428
     12428     12429     12428     12430     12428     12431     12431     12432
     12431     12433     12431     12434     12434     12435     12434     12436
     12434     12437     12437     12438     12437     12439     12437     12440
     12440     12441     12440     12442     12440     12443     12443     12444
     12443     12445     12443     12446     12446     12447     12446     12448
     12446     12449     12449     12450     12449     12451     12449     12452
     12452     12453     12452     12454     12452     12455     12455     12456
     12455     12457     12455     12458     12463     12462     12462     12459
     12459     12460     12459     12461     12459     12464     12467     12466
     12466     12464     12464     12465     12464     12468     12468     12469
     12468     12470     12468     12475     12475     12471     12471     12474
     12471     12472     12471     12473     12476     12477     12476     12478
     12476     12479     12476     12474     12479     12480     12479     12487
     12479     12481     12487     12488     12487     12489     12487     12490
     12481     12482     12482     12484     12482     12483     12484     12485
     12484     12486     12484     12496     12496     12497     12496     12498
     12496     12499     12499     12500     12499     12501     12499     12502
     12502     12503     12502     12504     12502     12505     12505     12506
     12505     12507     12505     12508     12508     12509     12508     12510
     12508     12511     12511     12512     12511     12513     12511     12514
     12514     12515     12514     12519     12514     12516     12519     12520
     12519     12521     12519     12516     12521     12522     12521     12523
     12521     12524     12524     12525     12524     12526     12524     12527
     12527     12528     12527     12529     12527     12530     12530     12531
     12530     12532     12530     12533     12533     12534     12533     12535
     12533     12536     12536     12537     12536     12538     12536     12539
     12516     12517     12516     12518     12490     12491     12491     12493
     12491     12492     12493     12494     12493     12495     12493     12540
     12540     12541     12540     12542     12540     12543     12543     12544
     12543     12545     12543     12546     12546     12547     12546     12548
     12546     12549     12549     12550     12549     12551     12549     12552
     12552     12553     12552     12554     12552     12555     12555     12556
     12555     12557     12555     12558     12558     12559     12558     12560
     12558     12561     12561     12562     12561     12563     12561     12564
     12564     12565     12564     12566     12564     12567     12567     12568
     12567     12569     12567     12570     12570     12571     12570     12572
     12570     12573     12573     12574     12573     12575     12573     12576
     12576     12577     12576     12578     12576     12579     12579     12580
     12579     12581     12579     12582     12583     12584     12583     12585
     12583     12586     12583     12587     12587     12588     12587     12589
     12587     12590     12590     12591     12590     12592     12590     12597
     12597     12593     12593     12596     12593     12594     12593     12595
     12598     12599     12598     12600     12598     12601     12598     12596
     12601     12602     12601     12609     12601     12603     12609     12610
     12609     12611     12609     12612     12603     12604     12604     12606
     12604     12605     12606     12607     12606     12608     12606     12618
     12618     12619     12618     12620     12618     12621     12621     12622
     12621     12623     12621     12624     12624     12625     12624     12626
     12624     12627     12627     12628     12627     12629     12627     12630
     12630     12631     12630     12632     12630     12633     12633     12634
     12633     12635     12633     12636     12636     12637     12636     12638
     12638     12639     12638     12640     12640     12641     12640     12642
     12640     12643     12643     12644     12643     12645     12643     12646
     12646     12647     12646     12648     12646     12649     12649     12650
     12649     12651     12649     12652     12652     12653     12652     12654
     12652     12655     12655     12656     12655     12657     12655     12658
     12658     12659     12658     12660     12658     12661     12661     12662
     12661     12663     12661     12664     12612     12613     12613     12615
     12613     12614     12615     12616     12615     12617     12615     12665
     12665     12666     12665     12667     12665     12668     12668     12669
     12668     12670     12668     12671     12671     12672     12671     12673
     12671     12674     12674     12675     12674     12676     12674     12677
     12677     12678     12677     12679     12677     12680     12680     12681
     12680     12682     12680     12683     12683     12684     12683     12685
     12683     12686     12686     12687     12686     12688     12686     12689
     12689     12690     12689     12691     12689     12692     12692     12693
     12692     12694     12692     12695     12695     12696     12695     12697
     12695     12698     12698     12699     12698     12700     12698     12701
     12701     12702     12701     12703     12701     12704     12704     12705
     12704     12706     12704     12707     12708     12709     12708     12710
     12708     12711     12708     12712     12712     12713     12712     12714
     12712     12715     12715     12716     12715     12717     12715     12722
     12722     12718     12718     12721     12718     12719     12718     12720
     12723     12724     12723     12725     12723     12726     12723     12721
     12726     12727     12726     12734     12726     12728     12734     12735
     12734     12736     12734     12737     12728     12729     12729     12731
     12729     12730     12731     12732     12731     12733     12731     12743
     12743     12744     12743     12745     12743     12746     12746     12747
     12746     12748     12746     12749     12749     12750     12749     12751
     12749     12752     12752     12753     12752     12754     12752     12755
     12755     12756     12755     12757     12755     12758     12758     12759
     12758     12760     12758     12761     12761     12762     12761     12766
     12761     12763     12766     12767     12766     12768     12766     12763
     12768     12769     12768     12770     12768     12771     12771     12772
     12771     12773     12771     12774     12774     12775     12774     12776
     12774     12777     12777     12778     12777     12779     12777     12780
     12780     12781     12780     12782     12780     12783     12783     12784
     12783     12785     12783     12786     12763     12764     12763     12765
     12737     12738     12738     12740     12738     12739     12740     12741
     12740     12742     12740     12787     12787     12788     12787     12789
     12787     12790     12790     12791     12790     12792     12790     12793
     12793     12794     12793     12795     12793     12796     12796     12797
     12796     12798     12796     12799     12799     12800     12799     12801
     12799     12802     12802     12803     12802     12804     12802     12805
     12805     12806     12805     12807     12805     12808     12808     12809
     12808     12810     12808     12811     12811     12812     12811     12813
     12811     12814     12814     12815     12814     12816     12814     12817
     12817     12818     12817     12819     12817     12820     12820     12821
     12820     12822     12820     12823     12823     12824     12823     12825
     12823     12826     12826     12827     12826     12828     12826     12829
     12830     12831     12830     12832     12830     12833     12830     12834
     12834     12835     12834     12836     12834     12837     12837     12838
     12837     12839     12837     12844     12844     12840     12840     12843
     12840     12841     12840     12842     12845     12846     12845     12847
     12845     12848     12845     12843     12848     12849     12848     12856
     12848     12850     12856     12857     12856     12858     12856     12859
     12850     12851     12851     12853     12851     12852     12853     12854
     12853     12855     12853     12865     12865     12866     12865     12867
     12865     12868     12868     12869     12868     12870     12868     12871
     12871     12872     12871     12873     12871     12874     12874     12875
     12874     12876     12874     12877     12877     12878     12877     12879
     12877     12880     12880     12881     12880     12882     12880     12883
     12883     12884     12883     12888     12883     12885     12888     12889
     12888     12890     12888     12885     12890     12891     12890     12892
     12890     12893     12893     12894     12893     12895     12893     12896
     12896     12897     12896     12898     12896     12899     12899     12900
     12899     12901     12899     12902     12902     12903     12902     12904
     12902     12905     12905     12906     12905     12907     12905     12908
     12885     12886     12885     12887     12859     12860     12860     12862
     12860     12861     12862     12863     12862     12864     12862     12909
     12909     12910     12909     12911     12909     12912     12912     12913
     12912     12914     12912     12915     12915     12916     12915     12917
     12915     12918     12918     12919     12918     12920     12918     12921
     12921     12922     12921     12923     12921     12924     12924     12925
     12924     12926     12924     12927     12927     12928     12927     12929
     12927     12930     12930     12931     12930     12932     12930     12933
     12933     12934     12933     12935     12933     12936     12936     12937
     12936     12938     12936     12939     12939     12940     12939     12941
     12939     12942     12942     12943     12942     12944     12942     12945
     12945     12946     12945     12947     12945     12948     12948     12949
     12948     12950     12948     12951     12952     12953     12952     12954
     12952     12955     12952     12956     12956     12957     12956     12958
     12956     12959     12959     12960     12959     12961     12959     12966
     12966     12962     12962     12965     12962     12963     12962     12964
     12967     12968     12967     12969     12967     12970     12967     12965
     12970     12971     12970     12978     12970     12972     12978     12979
     12978     12980     12978     12981     12972     12973     12973     12975
     12973     12974     12975     12976     12975     12977     12975     12987
     12987     12988     12987     12989     12987     12990     12990     12991
     12990     12992     12990     12993     12993     12994     12993     12995
     12993     12996     12996     12997     12996     12998     12996     12999
     12999     13000     12999     13001     12999     13002     13002     13003
     13002     13004     13002     13005     13005     13006     13005     13010
     13005     13007     13010     13011     13010     13012     13010     13007
     13012     13013     13012     13014     13012     13015     13015     13016
     13015     13017     13015     13018     13018     13019     13018     13020
     13018     13021     13021     13022     13021     13023     13021     13024
     13024     13025     13024     13026     13024     13027     13027     13028
     13027     13029     13027     13030     13007     13008     13007     13009
     12981     12982     12982     12984     12982     12983     12984     12985
     12984     12986     12984     13031     13031     13032     13031     13033
     13031     13034     13034     13035     13034     13036     13034     13037
     13037     13038     13037     13039     13037     13040     13040     13041
     13040     13042     13040     13043     13043     13044     13043     13045
     13043     13046     13046     13047     13046     13048     13046     13049
     13049     13050     13049     13051     13049     13052     13052     13053
     13052     13054     13052     13055     13055     13056     13055     13057
     13055     13058     13058     13059     13058     13060     13058     13061
     13061     13062     13061     13063     13061     13064     13064     13065
     13064     13066     13064     13067     13067     13068     13067     13069
     13067     13070     13071     13072     13071     13073     13071     13074
     13071     13075     13075     13076     13075     13077     13075     13078
     13078     13079     13078     13080     13078     13085     13085     13081
     13081     13084     13081     13082     13081     13083     13086     13087
     13086     13088     13086     13089     13086     13084     13089     13090
     13089     13097     13089     13091     13097     13098     13097     13099
     13097     13100     13091     13092     13092     13094     13092     13093
     13094     13095     13094     13096     13094     13106     13106     13107
     13106     13108     13106     13109     13109     13110     13109     13111
     13109     13112     13112     13113     13112     13114     13112     13115
     13115     13116     13115     13117     13115     13118     13118     13119
     13118     13120     13118     13121     13121     13122     13121     13123
     13121     13124     13124     13125     13124     13129     13124     13126
     13129     13130     13129     13131     13129     13126     13131     13132
     13131     13133     13131     13134     13134     13135     13134     13136
     13134     13137     13137     13138     13137     13139     13137     13140
     13140     13141     13140     13142     13140     13143     13143     13144
     13143     13145     13143     13146     13146     13147     13146     13148
     13146     13149     13126     13127     13126     13128     13100     13101
     13101     13103     13101     13102     13103     13104     13103     13105
     13103     13150     13150     13151     13150     13152     13150     13153
     13153     13154     13153     13155     13153     13156     13156     13157
     13156     13158     13156     13159     13159     13160     13159     13161
     13159     13162     13162     13163     13162     13164     13162     13165
     13165     13166     13165     13167     13165     13168     13168     13169
     13168     13170     13168     13171     13171     13172     13171     13173
     13171     13174     13174     13175     13174     13176     13174     13177
     13177     13178     13177     13179     13177     13180     13180     13181
     13180     13182     13180     13183     13183     13184     13183     13185
     13183     13186     13186     13187     13186     13188     13186     13189
     13190     13191     13190     13192     13190     13193     13190     13194
     13194     13195     13194     13196     13194     13197     13197     13198
     13197     13199     13197     13204     13204     13200     13200     13203
     13200     13201     13200     13202     13205     13206     13205     13207
     13205     13208     13205     13203     13208     13209     13208     13216
     13208     13210     13216     13217     13216     13218     13216     13219
     13210     13211     13211     13213     13211     13212     13213     13214
     13213     13215     13213     13225     13225     13226     13225     13227
     13225     13228     13228     13229     13228     13230     13228     13231
     13231     13232     13231     13233     13231     13234     13234     13235
     13234     13236     13234     13237     13237     13238     13237     13239
     13237     13240     13240     13241     13240     13242     13240     13243
     13243     13244     13243     13248     13243     13245     13248     13249
     13248     13250     13248     13245     13250     13251     13250     13252
     13250     13253     13253     13254     13253     13255     13253     13256
     13256     13257     13256     13258     13256     13259     13259     13260
     13259     13261     13259     13262     13262     13263     13262     13264
     13262     13265     13265     13266     13265     13267     13265     13268
     13245     13246     13245     13247     13219     13220     13220     13222
     13220     13221     13222     13223     13222     13224     13222     13269
     13269     13270     13269     13271     13269     13272     13272     13273
     13272     13274     13272     13275     13275     13276     13275     13277
     13275     13278     13278     13279     13278     13280     13278     13281
     13281     13282     13281     13283     13281     13284     13284     13285
     13284     13286     13284     13287     13287     13288     13287     13289
     13287     13290     13290     13291     13290     13292     13290     13293
     13293     13294     13293     13295     13293     13296     13296     13297
     13296     13298     13296     13299     13299     13300     13299     13301
     13299     13302     13302     13303     13302     13304     13302     13305
     13305     13306     13305     13307     13305     13308     13308     13309
     13308     13310     13308     13311     13312     13313     13312     13314
     13312     13315     13312     13316     13316     13317     13316     13318
     13316     13319     13319     13320     13319     13321     13319     13326
     13326     13322     13322     13325     13322     13323     13322     13324
     13327     13328     13327     13329     13327     13330     13327     13325
     13330     13331     13330     13338     13330     13332     13338     13339
     13338     13340     13338     13341     13332     13333     13333     13335
     13333     13334     13335     13336     13335     13337     13335     13347
     13347     13348     13347     13349     13347     13350     13350     13351
     13350     13352     13350     13353     13353     13354     13353     13355
     13353     13356     13356     13357     13356     13358     13356     13359
     13359     13360     13359     13361     13359     13362     13362     13363
     13362     13364     13362     13365     13365     13366     13365     13370
     13365     13367     13370     13371     13370     13372     13370     13367
     13372     13373     13372     13374     13372     13375     13375     13376
     13375     13377     13375     13378     13378     13379     13378     13380
     13378     13381     13381     13382     13381     13383     13381     13384
     13384     13385     13384     13386     13384     13387     13387     13388
     13387     13389     13387     13390     13367     13368     13367     13369
     13341     13342     13342     13344     13342     13343     13344     13345
     13344     13346     13344     13391     13391     13392     13391     13393
     13391     13394     13394     13395     13394     13396     13394     13397
     13397     13398     13397     13399     13397     13400     13400     13401
     13400     13402     13400     13403     13403     13404     13403     13405
     13403     13406     13406     13407     13406     13408     13406     13409
     13409     13410     13409     13411     13409     13412     13412     13413
     13412     13414     13412     13415     13415     13416     13415     13417
     13415     13418     13418     13419     13418     13420     13418     13421
     13421     13422     13421     13423     13421     13424     13424     13425
     13424     13426     13424     13427     13427     13428     13427     13429
     13427     13430     13430     13431     13430     13432     13430     13433
     13434     13435     13434     13436     13434     13437     13434     13438
     13438     13439     13438     13440     13438     13441     13441     13442
     13441     13443     13441     13448     13448     13444     13444     13447
     13444     13445     13444     13446     13449     13450     13449     13451
     13449     13452     13449     13447     13452     13453     13452     13460
     13452     13454     13460     13461     13460     13462     13460     13463
     13454     13455     13455     13457     13455     13456     13457     13458
     13457     13459     13457     13469     13469     13470     13469     13471
     13469     13472     13472     13473     13472     13474     13472     13475
     13475     13476     13475     13477     13475     13478     13478     13479
     13478     13480     13478     13481     13481     13482     13481     13483
     13481     13484     13484     13485     13484     13486     13484     13487
     13487     13488     13487     13492     13487     13489     13492     13493
     13492     13494     13492     13489     13494     13495     13494     13496
     13494     13497     13497     13498     13497     13499     13497     13500
     13500     13501     13500     13502     13500     13503     13503     13504
     13503     13505     13503     13506     13506     13507     13506     13508
     13506     13509     13509     13510     13509     13511     13509     13512
     13489     13490     13489     13491     13463     13464     13464     13466
     13464     13465     13466     13467     13466     13468     13466     13513
     13513     13514     13513     13515     13513     13516     13516     13517
     13516     13518     13516     13519     13519     13520     13519     13521
     13519     13522     13522     13523     13522     13524     13522     13525
     13525     13526     13525     13527     13525     13528     13528     13529
     13528     13530     13528     13531     13531     13532     13531     13533
     13531     13534     13534     13535     13534     13536     13534     13537
     13537     13538     13537     13539     13537     13540     13540     13541
     13540     13542     13540     13543     13543     13544     13543     13545
     13543     13546     13546     13547     13546     13548     13546     13549
     13549     13550     13549     13551     13549     13552     13552     13553
     13552     13554     13552     13555     13556     13557     13556     13558
     13556     13559     13556     13560     13560     13561     13560     13562
     13560     13563     13563     13564     13563     13565     13563     13570
     13570     13566     13566     13569     13566     13567     13566     13568
     13571     13572     13571     13573     13571     13574     13571     13569
     13574     13575     13574     13582     13574     13576     13582     13583
     13582     13584     13582     13585     13576     13577     13577     13579
     13577     13578     13579     13580     13579     13581     13579     13591
     13591     13592     13591     13593     13591     13594     13594     13595
     13594     13596     13594     13597     13597     13598     13597     13599
     13597     13600     13600     13601     13600     13602     13600     13603
     13603     13604     13603     13605     13603     13606     13606     13607
     13606     13608     13606     13609     13609     13610     13609     13614
     13609     13611     13614     13615     13614     13616     13614     13611
     13616     13617     13616     13618     13616     13619     13619     13620
     13619     13621     13619     13622     13622     13623     13622     13624
     13622     13625     13625     13626     13625     13627     13625     13628
     13628     13629     13628     13630     13628     13631     13631     13632
     13631     13633     13631     13634     13611     13612     13611     13613
     13585     13586     13586     13588     13586     13587     13588     13589
     13588     13590     13588     13635     13635     13636     13635     13637
     13635     13638     13638     13639     13638     13640     13638     13641
     13641     13642     13641     13643     13641     13644     13644     13645
     13644     13646     13644     13647     13647     13648     13647     13649
     13647     13650     13650     13651     13650     13652     13650     13653
     13653     13654     13653     13655     13653     13656     13656     13657
     13656     13658     13656     13659     13659     13660     13659     13661
     13659     13662     13662     13663     13662     13664     13662     13665
     13665     13666     13665     13667     13665     13668     13668     13669
     13668     13670     13668     13671     13671     13672     13671     13673
     13671     13674     13674     13675     13674     13676     13674     13677
     13678     13679     13678     13680     13678     13681     13678     13682
     13682     13683     13682     13684     13682     13685     13685     13686
     13685     13687     13685     13692     13692     13688     13688     13691
     13688     13689     13688     13690     13693     13694     13693     13695
     13693     13696     13693     13691     13696     13697     13696     13704
     13696     13698     13704     13705     13704     13706     13704     13707
     13698     13699     13699     13701     13699     13700     13701     13702
     13701     13703     13701     13713     13713     13714     13713     13715
     13713     13716     13716     13717     13716     13718     13716     13719
     13719     13720     13719     13721     13719     13722     13722     13723
     13722     13724     13722     13725     13725     13726     13725     13727
     13725     13728     13728     13729     13728     13730     13728     13731
     13731     13732     13731     13736     13731     13733     13736     13737
     13736     13738     13736     13733     13738     13739     13738     13740
     13738     13741     13741     13742     13741     13743     13741     13744
     13744     13745     13744     13746     13744     13747     13747     13748
     13747     13749     13747     13750     13750     13751     13750     13752
     13750     13753     13753     13754     13753     13755     13753     13756
     13733     13734     13733     13735     13707     13708     13708     13710
     13708     13709     13710     13711     13710     13712     13710     13757
     13757     13758     13757     13759     13757     13760     13760     13761
     13760     13762     13760     13763     13763     13764     13763     13765
     13763     13766     13766     13767     13766     13768     13766     13769
     13769     13770     13769     13771     13769     13772     13772     13773
     13772     13774     13772     13775     13775     13776     13775     13777
     13775     13778     13778     13779     13778     13780     13778     13781
     13781     13782     13781     13783     13781     13784     13784     13785
     13784     13786     13784     13787     13787     13788     13787     13789
     13787     13790     13790     13791     13790     13792     13790     13793
     13793     13794     13793     13795     13793     13796     13796     13797
     13796     13798     13796     13799     13800     13801     13800     13802
     13800     13803     13800     13804     13804     13805     13804     13806
     13804     13807     13807     13808     13807     13809     13807     13814
     13814     13810     13810     13813     13810     13811     13810     13812
     13815     13816     13815     13817     13815     13818     13815     13813
     13818     13819     13818     13826     13818     13820     13826     13827
     13826     13828     13826     13829     13820     13821     13821     13823
     13821     13822     13823     13824     13823     13825     13823     13835
     13835     13836     13835     13837     13835     13838     13838     13839
     13838     13840     13838     13841     13841     13842     13841     13843
     13841     13844     13844     13845     13844     13846     13844     13847
     13847     13848     13847     13849     13847     13850     13850     13851
     13850     13852     13850     13853     13853     13854     13853     13858
     13853     13855     13858     13859     13858     13860     13858     13855
     13860     13861     13860     13862     13860     13863     13863     13864
     13863     13865     13863     13866     13866     13867     13866     13868
     13866     13869     13869     13870     13869     13871     13869     13872
     13872     13873     13872     13874     13872     13875     13875     13876
     13875     13877     13875     13878     13855     13856     13855     13857
     13829     13830     13830     13832     13830     13831     13832     13833
     13832     13834     13832     13879     13879     13880     13879     13881
     13879     13882     13882     13883     13882     13884     13882     13885
     13885     13886     13885     13887     13885     13888     13888     13889
     13888     13890     13888     13891     13891     13892     13891     13893
     13891     13894     13894     13895     13894     13896     13894     13897
     13897     13898     13897     13899     13897     13900     13900     13901
     13900     13902     13900     13903     13903     13904     13903     13905
     13903     13906     13906     13907     13906     13908     13906     13909
     13909     13910     13909     13911     13909     13912     13912     13913
     13912     13914     13912     13915     13915     13916     13915     13917
     13915     13918     13923     13922     13922     13919     13919     13920
     13919     13921     13919     13924     13927     13926     13926     13924
     13924     13925     13924     13928     13928     13929     13928     13930
     13928     13935     13935     13931     13931     13934     13931     13932
     13931     13933     13936     13937     13936     13938     13936     13939
     13936     13934     13939     13940     13939     13947     13939     13941
     13947     13948     13947     13949     13947     13950     13941     13942
     13942     13944     13942     13943     13944     13945     13944     13946
     13944     13956     13956     13957     13956     13958     13956     13959
     13959     13960     13959     13961     13959     13962     13962     13963
     13962     13964     13962     13965     13965     13966     13965     13967
     13965     13968     13968     13969     13968     13970     13968     13971
     13971     13972     13971     13973     13971     13974     13974     13975
     13974     13979     13974     13976     13979     13980     13979     13981
     13979     13976     13981     13982     13981     13983     13981     13984
     13984     13985     13984     13986     13984     13987     13987     13988
     13987     13989     13987     13990     13990     13991     13990     13992
     13990     13993     13993     13994     13993     13995     13993     13996
     13996     13997     13996     13998     13996     13999     13976     13977
     13976     13978     13950     13951     13951     13953     13951     13952
     13953     13954     13953     13955     13953     14000     14000     14001
     14000     14002     14000     14003     14003     14004     14003     14005
     14003     14006     14006     14007     14006     14008     14006     14009
     14009     14010     14009     14011     14009     14012     14012     14013
     14012     14014     14012     14015     14015     14016     14015     14017
     14015     14018     14018     14019     14018     14020     14018     14021
     14021     14022     14021     14023     14021     14024     14024     14025
     14024     14026     14024     14027     14027     14028     14027     14029
     14027     14030     14030     14031     14030     14032     14030     14033
     14033     14034     14033     14035     14033     14036     14036     14037
     14036     14038     14036     14039     14039     14040     14039     14041
     14039     14042     14043     14044     14043     14045     14043     14046
     14043     14047     14047     14048     14047     14049     14047     14050
     14050     14051     14050     14052     14050     14057     14057     14053
     14053     14056     14053     14054     14053     14055     14058     14059
     14058     14060     14058     14061     14058     14056     14061     14062
     14061     14069     14061     14063     14069     14070     14069     14071
     14069     14072     14063     14064     14064     14066     14064     14065
     14066     14067     14066     14068     14066     14078     14078     14079
     14078     14080     14078     14081     14081     14082     14081     14083
     14081     14084     14084     14085     14084     14086     14084     14087
     14087     14088     14087     14089     14087     14090     14090     14091
     14090     14092     14090     14093     14093     14094     14093     14095
     14093     14096     14096     14097     14096     14098     14098     14099
     14098     14100     14100     14101     14100     14102     14100     14103
     14103     14104     14103     14105     14103     14106     14106     14107
     14106     14108     14106     14109     14109     14110     14109     14111
     14109     14112     14112     14113     14112     14114     14112     14115
     14115     14116     14115     14117     14115     14118     14118     14119
     14118     14120     14118     14121     14121     14122     14121     14123
     14121     14124     14072     14073     14073     14075     14073     14074
     14075     14076     14075     14077     14075     14125     14125     14126
     14125     14127     14125     14128     14128     14129     14128     14130
     14128     14131     14131     14132     14131     14133     14131     14134
     14134     14135     14134     14136     14134     14137     14137     14138
     14137     14139     14137     14140     14140     14141     14140     14142
     14140     14143     14143     14144     14143     14145     14143     14146
     14146     14147     14146     14148     14146     14149     14149     14150
     14149     14151     14149     14152     14152     14153     14152     14154
     14152     14155     14155     14156     14155     14157     14155     14158
     14158     14159     14158     14160     14158     14161     14161     14162
     14161     14163     14161     14164     14164     14165     14164     14166
     14164     14167     14168     14169     14168     14170     14168     14171
     14168     14172     14172     14173     14172     14174     14172     14175
     14175     14176     14175     14177     14175     14182     14182     14178
     14178     14181     14178     14179     14178     14180     14183     14184
     14183     14185     14183     14186     14183     14181     14186     14187
     14186     14194     14186     14188     14194     14195     14194     14196
     14194     14197     14188     14189     14189     14191     14189     14190
     14191     14192     14191     14193     14191     14203     14203     14204
     14203     14205     14203     14206     14206     14207     14206     14208
     14206     14209     14209     14210     14209     14211     14209     14212
     14212     14213     14212     14214     14212     14215     14215     14216
     14215     14217     14215     14218     14218     14219     14218     14220
     14218     14221     14221     14222     14221     14226     14221     14223
     14226     14227     14226     14228     14226     14223     14228     14229
     14228     14230     14228     14231     14231     14232     14231     14233
     14231     14234     14234     14235     14234     14236     14234     14237
     14237     14238     14237     14239     14237     14240     14240     14241
     14240     14242     14240     14243     14243     14244     14243     14245
     14243     14246     14223     14224     14223     14225     14197     14198
     14198     14200     14198     14199     14200     14201     14200     14202
     14200     14247     14247     14248     14247     14249     14247     14250
     14250     14251     14250     14252     14250     14253     14253     14254
     14253     14255     14253     14256     14256     14257     14256     14258
     14256     14259     14259     14260     14259     14261     14259     14262
     14262     14263     14262     14264     14262     14265     14265     14266
     14265     14267     14265     14268     14268     14269     14268     14270
     14268     14271     14271     14272     14271     14273     14271     14274
     14274     14275     14274     14276     14274     14277     14277     14278
     14277     14279     14277     14280     14280     14281     14280     14282
     14280     14283     14283     14284     14283     14285     14283     14286
     14286     14287     14286     14288     14286     14289     14290     14291
     14290     14292     14290     14293     14290     14294     14294     14295
     14294     14296     14294     14297     14297     14298     14297     14299
     14297     14304     14304     14300     14300     14303     14300     14301
     14300     14302     14305     14306     14305     14307     14305     14308
     14305     14303     14308     14309     14308     14316     14308     14310
     14316     14317     14316     14318     14316     14319     14310     14311
     14311     14313     14311     14312     14313     14314     14313     14315
     14313     14325     14325     14326     14325     14327     14325     14328
     14328     14329     14328     14330     14328     14331     14331     14332
     14331     14333     14331     14334     14334     14335     14334     14336
     14334     14337     14337     14338     14337     14339     14337     14340
     14340     14341     14340     14342     14340     14343     14343     14344
     14343     14345     14345     14346     14345     14347     14347     14348
     14347     14349     14347     14350     14350     14351     14350     14352
     14350     14353     14353     14354     14353     14355     14353     14356
     14356     14357     14356     14358     14356     14359     14359     14360
     14359     14361     14359     14362     14362     14363     14362     14364
     14362     14365     14365     14366     14365     14367     14365     14368
     14368     14369     14368     14370     14368     14371     14319     14320
     14320     14322     14320     14321     14322     14323     14322     14324
     14322     14372     14372     14373     14372     14374     14372     14375
     14375     14376     14375     14377     14375     14378     14378     14379
     14378     14380     14378     14381     14381     14382     14381     14383
     14381     14384     14384     14385     14384     14386     14384     14387
     14387     14388     14387     14389     14387     14390     14390     14391
     14390     14392     14390     14393     14393     14394     14393     14395
     14393     14396     14396     14397     14396     14398     14396     14399
     14399     14400     14399     14401     14399     14402     14402     14403
     14402     14404     14402     14405     14405     14406     14405     14407
     14405     14408     14408     14409     14408     14410     14408     14411
     14411     14412     14411     14413     14411     14414     14419     14418
     14418     14415     14415     14416     14415     14417     14415     14420
     14423     14422     14422     14420     14420     14421     14420     14424
     14424     14425     14424     14426     14424     14431     14431     14427
     14427     14430     14427     14428     14427     14429     14432     14433
     14432     14434     14432     14435     14432     14430     14435     14436
     14435     14443     14435     14437     14443     14444     14443     14445
     14443     14446     14437     14438     14438     14440     14438     14439
     14440     14441     14440     14442     14440     14452     14452     14453
     14452     14454     14452     14455     14455     14456     14455     14457
     14455     14458     14458     14459     14458     14460     14458     14461
     14461     14462     14461     14463     14461     14464     14464     14465
     14464     14466     14464     14467     14467     14468     14467     14469
     14467     14470     14470     14471     14470     14475     14470     14472
     14475     14476     14475     14477     14475     14472     14477     14478
     14477     14479     14477     14480     14480     14481     14480     14482
     14480     14483     14483     14484     14483     14485     14483     14486
     14486     14487     14486     14488     14486     14489     14489     14490
     14489     14491     14489     14492     14492     14493     14492     14494
     14492     14495     14472     14473     14472     14474     14446     14447
     14447     14449     14447     14448     14449     14450     14449     14451
     14449     14496     14496     14497     14496     14498     14496     14499
     14499     14500     14499     14501     14499     14502     14502     14503
     14502     14504     14502     14505     14505     14506     14505     14507
     14505     14508     14508     14509     14508     14510     14508     14511
     14511     14512     14511     14513     14511     14514     14514     14515
     14514     14516     14514     14517     14517     14518     14517     14519
     14517     14520     14520     14521     14520     14522     14520     14523
     14523     14524     14523     14525     14523     14526     14526     14527
     14526     14528     14526     14529     14529     14530     14529     14531
     14529     14532     14532     14533     14532     14534     14532     14535
     14535     14536     14535     14537     14535     14538     14539     14540
     14539     14541     14539     14542     14539     14543     14543     14544
     14543     14545     14543     14546     14546     14547     14546     14548
     14546     14553     14553     14549     14549     14552     14549     14550
     14549     14551     14554     14555     14554     14556     14554     14557
     14554     14552     14557     14558     14557     14565     14557     14559
     14565     14566     14565     14567     14565     14568     14559     14560
     14560     14562     14560     14561     14562     14563     14562     14564
     14562     14574     14574     14575     14574     14576     14574     14577
     14577     14578     14577     14579     14577     14580     14580     14581
     14580     14582     14580     14583     14583     14584     14583     14585
     14583     14586     14586     14587     14586     14588     14586     14589
     14589     14590     14589     14591     14589     14592     14592     14593
     14592     14597     14592     14594     14597     14598     14597     14599
     14597     14594     14599     14600     14599     14601     14599     14602
     14602     14603     14602     14604     14602     14605     14605     14606
     14605     14607     14605     14608     14608     14609     14608     14610
     14608     14611     14611     14612     14611     14613     14611     14614
     14614     14615     14614     14616     14614     14617     14594     14595
     14594     14596     14568     14569     14569     14571     14569     14570
     14571     14572     14571     14573     14571     14618     14618     14619
     14618     14620     14618     14621     14621     14622     14621     14623
     14621     14624     14624     14625     14624     14626     14624     14627
     14627     14628     14627     14629     14627     14630     14630     14631
     14630     14632     14630     14633     14633     14634     14633     14635
     14633     14636     14636     14637     14636     14638     14636     14639
     14639     14640     14639     14641     14639     14642     14642     14643
     14642     14644     14642     14645     14645     14646     14645     14647
     14645     14648     14648     14649     14648     14650     14648     14651
     14651     14652     14651     14653     14651     14654     14654     14655
     14654     14656     14654     14657     14657     14658     14657     14659
     14657     14660     14661     14662     14661     14663     14661     14664
     14661     14665     14665     14666     14665     14667     14665     14668
     14668     14669     14668     14670     14668     14675     14675     14671
     14671     14674     14671     14672     14671     14673     14676     14677
     14676     14678     14676     14679     14676     14674     14679     14680
     14679     14687     14679     14681     14687     14688     14687     14689
     14687     14690     14681     14682     14682     14684     14682     14683
     14684     14685     14684     14686     14684     14696     14696     14697
     14696     14698     14696     14699     14699     14700     14699     14701
     14699     14702     14702     14703     14702     14704     14702     14705
     14705     14706     14705     14707     14705     14708     14708     14709
     14708     14710     14708     14711     14711     14712     14711     14713
     14711     14714     14714     14715     14714     14719     14714     14716
     14719     14720     14719     14721     14719     14716     14721     14722
     14721     14723     14721     14724     14724     14725     14724     14726
     14724     14727     14727     14728     14727     14729     14727     14730
     14730     14731     14730     14732     14730     14733     14733     14734
     14733     14735     14733     14736     14736     14737     14736     14738
     14736     14739     14716     14717     14716     14718     14690     14691
     14691     14693     14691     14692     14693     14694     14693     14695
     14693     14740     14740     14741     14740     14742     14740     14743
     14743     14744     14743     14745     14743     14746     14746     14747
     14746     14748     14746     14749     14749     14750     14749     14751
     14749     14752     14752     14753     14752     14754     14752     14755
     14755     14756     14755     14757     14755     14758     14758     14759
     14758     14760     14758     14761     14761     14762     14761     14763
     14761     14764     14764     14765     14764     14766     14764     14767
     14767     14768     14767     14769     14767     14770     14770     14771
     14770     14772     14770     14773     14773     14774     14773     14775
     14773     14776     14776     14777     14776     14778     14776     14779
     14779     14780     14779     14781     14779     14782     14783     14784
     14783     14785     14783     14786     14783     14787     14787     14788
     14787     14789     14787     14790     14790     14791     14790     14792
     14790     14797     14797     14793     14793     14796     14793     14794
     14793     14795     14798     14799     14798     14800     14798     14801
     14798     14796     14801     14802     14801     14809     14801     14803
     14809     14810     14809     14811     14809     14812     14803     14804
     14804     14806     14804     14805     14806     14807     14806     14808
     14806     14818     14818     14819     14818     14820     14818     14821
     14821     14822     14821     14823     14821     14824     14824     14825
     14824     14826     14824     14827     14827     14828     14827     14829
     14827     14830     14830     14831     14830     14832     14830     14833
     14833     14834     14833     14835     14833     14836     14836     14837
     14836     14841     14836     14838     14841     14842     14841     14843
     14841     14838     14843     14844     14843     14845     14843     14846
     14846     14847     14846     14848     14846     14849     14849     14850
     14849     14851     14849     14852     14852     14853     14852     14854
     14852     14855     14855     14856     14855     14857     14855     14858
     14858     14859     14858     14860     14858     14861     14838     14839
     14838     14840     14812     14813     14813     14815     14813     14814
     14815     14816     14815     14817     14815     14862     14862     14863
     14862     14864     14862     14865     14865     14866     14865     14867
     14865     14868     14868     14869     14868     14870     14868     14871
     14871     14872     14871     14873     14871     14874     14874     14875
     14874     14876     14874     14877     14877     14878     14877     14879
     14877     14880     14880     14881     14880     14882     14880     14883
     14883     14884     14883     14885     14883     14886     14886     14887
     14886     14888     14886     14889     14889     14890     14889     14891
     14889     14892     14892     14893     14892     14894     14892     14895
     14895     14896     14895     14897     14895     14898     14898     14899
     14898     14900     14898     14901     14901     14902     14901     14903
     14901     14904     14905     14906     14905     14907     14905     14908
     14905     14909     14909     14910     14909     14911     14909     14912
     14912     14913     14912     14914     14912     14919     14919     14915
     14915     14918     14915     14916     14915     14917     14920     14921
     14920     14922     14920     14923     14920     14918     14923     14924
     14923     14931     14923     14925     14931     14932     14931     14933
     14931     14934     14925     14926     14926     14928     14926     14927
     14928     14929     14928     14930     14928     14940     14940     14941
     14940     14942     14940     14943     14943     14944     14943     14945
     14943     14946     14946     14947     14946     14948     14946     14949
     14949     14950     14949     14951     14949     14952     14952     14953
     14952     14954     14952     14955     14955     14956     14955     14957
     14955     14958     14958     14959     14958     14960     14960     14961
     14960     14962     14962     14963     14962     14964     14962     14965
     14965     14966     14965     14967     14965     14968     14968     14969
     14968     14970     14968     14971     14971     14972     14971     14973
     14971     14974     14974     14975     14974     14976     14974     14977
     14977     14978     14977     14979     14977     14980     14934     14935
     14935     14937     14935     14936     14937     14938     14937     14939
     14937     14981     14981     14982     14981     14983     14981     14984
     14984     14985     14984     14986     14984     14987     14987     14988
     14987     14989     14987     14990     14990     14991     14990     14992
     14990     14993     14993     14994     14993     14995     14993     14996
     14996     14997     14996     14998     14996     14999     14999     15000
     14999     15001     15001     15002     15001     15003     15003     15004
     15003     15005     15003     15006     15006     15007     15006     15008
     15006     15009     15009     15010     15009     15011     15009     15012
     15012     15013     15012     15014     15012     15015     15015     15016
     15015     15017     15015     15018     15018     15019     15018     15020
     15018     15021     15021     15022     15021     15023     15021     15024
     15024     15025     15024     15026     15024     15027     15043     15039
     15043     15044     15043     15045     15039     15041     15039     15040
     15041     15042     15039     15028     15028     15029     15028     15030
     15043     15049     15028     15034     15046     15049     15046     15050
     15046     15047     15046     15048     15031     15034     15031     15035
     15031     15032     15031     15033     15050     15051     15051     15052
     15051     15053     15051     15054     15054     15055     15054     15056
     15054     15062     15062     15063     15062     15064     15062     15065
     15035     15036     15036     15037     15036     15038     15036     15071
     15071     15072     15071     15073     15071     15079     15079     15080
     15079     15081     15079     15082     15056     15057     15065     15066
     15073     15074     15082     15083     15057     15058     15057     15059
     15059     15060     15059     15061     15059     15088     15088     15089
     15088     15090     15088     15091     15091     15092     15091     15093
     15091     15094     15094     15095     15094     15096     15094     15097
     15097     15098     15097     15099     15097     15100     15100     15101
     15100     15102     15100     15103     15103     15104     15103     15105
     15103     15106     15106     15107     15106     15108     15106     15109
     15109     15110     15109     15111     15109     15112     15112     15113
     15112     15114     15114     15115     15114     15116     15116     15117
     15116     15118     15116     15119     15119     15120     15119     15121
     15119     15122     15122     15123     15122     15124     15122     15125
     15125     15126     15125     15127     15125     15128     15128     15129
     15128     15130     15128     15131     15131     15132     15131     15133
     15131     15134     15066     15067     15066     15068     15068     15069
     15068     15070     15068     15135     15135     15136     15135     15137
     15135     15138     15138     15139     15138     15140     15138     15141
     15141     15142     15141     15143     15141     15144     15144     15145
     15144     15146     15144     15147     15147     15148     15147     15149
     15147     15150     15150     15151     15150     15152     15150     15153
     15153     15154     15153     15155     15153     15156     15156     15157
     15156     15158     15156     15159     15159     15160     15159     15161
     15159     15162     15162     15163     15162     15164     15162     15165
     15165     15166     15165     15167     15165     15168     15168     15169
     15168     15170     15168     15171     15171     15172     15171     15173
     15171     15174     15174     15175     15174     15176     15174     15177
     15074     15075     15074     15076     15076     15077     15076     15078
     15076     15178     15178     15179     15178     15180     15178     15181
     15181     15182     15181     15183     15181     15184     15184     15185
     15184     15186     15184     15187     15187     15188     15187     15189
     15187     15190     15190     15191     15190     15192     15190     15193
     15193     15194     15193     15195     15193     15196     15196     15197
     15196     15198     15196     15199     15199     15200     15199     15201
     15199     15202     15202     15203     15202     15204     15204     15205
     15204     15206     15206     15207     15206     15208     15206     15209
     15209     15210     15209     15211     15209     15212     15212     15213
     15212     15214     15212     15215     15215     15216     15215     15217
     15215     15218     15218     15219     15218     15220     15218     15221
     15221     15222     15221     15223     15221     15224     15083     15084
     15083     15085     15085     15086     15085     15087     15085     15225
     15225     15226     15225     15227     15225     15228     15228     15229
     15228     15230     15228     15231     15231     15232     15231     15233
     15231     15234     15234     15235     15234     15236     15234     15237
     15237     15238     15237     15239     15237     15240     15240     15241
     15240     15242     15240     15243     15243     15244     15243     15245
     15243     15246     15246     15247     15246     15248     15246     15249
     15249     15250     15249     15251     15249     15252     15252     15253
     15252     15254     15252     15255     15255     15256     15255     15257
     15255     15258     15258     15259     15258     15260     15258     15261
     15261     15262     15261     15263     15261     15264     15264     15265
     15264     15266     15264     15267     15268     15269     15268     15270
     15268     15271     15268     15272     15272     15273     15272     15274
     15272     15275     15275     15276     15275     15277     15275     15282
     15282     15278     15278     15281     15278     15279     15278     15280
     15283     15284     15283     15285     15283     15286     15283     15281
     15286     15287     15286     15294     15286     15288     15294     15295
     15294     15296     15294     15297     15288     15289     15289     15291
     15289     15290     15291     15292     15291     15293     15291     15303
     15303     15304     15303     15305     15303     15306     15306     15307
     15306     15308     15306     15309     15309     15310     15309     15311
     15309     15312     15312     15313     15312     15314     15312     15315
     15315     15316     15315     15317     15315     15318     15318     15319
     15318     15320     15318     15321     15321     15322     15321     15326
     15321     15323     15326     15327     15326     15328     15326     15323
     15328     15329     15328     15330     15328     15331     15331     15332
     15331     15333     15331     15334     15334     15335     15334     15336
     15334     15337     15337     15338     15337     15339     15337     15340
     15340     15341     15340     15342     15340     15343     15343     15344
     15343     15345     15343     15346     15323     15324     15323     15325
     15297     15298     15298     15300     15298     15299     15300     15301
     15300     15302     15300     15347     15347     15348     15347     15349
     15347     15350     15350     15351     15350     15352     15350     15353
     15353     15354     15353     15355     15353     15356     15356     15357
     15356     15358     15356     15359     15359     15360     15359     15361
     15359     15362     15362     15363     15362     15364     15362     15365
     15365     15366     15365     15367     15365     15368     15368     15369
     15368     15370     15368     15371     15371     15372     15371     15373
     15371     15374     15374     15375     15374     15376     15374     15377
     15377     15378     15377     15379     15377     15380     15380     15381
     15380     15382     15380     15383     15383     15384     15383     15385
     15383     15386     15386     15387     15386     15388     15386     15389
     15390     15391     15390     15392     15390     15393     15390     15394
     15394     15395     15394     15396     15394     15397     15397     15398
     15397     15399     15397     15404     15404     15400     15400     15403
     15400     15401     15400     15402     15405     15406     15405     15407
     15405     15408     15405     15403     15408     15409     15408     15416
     15408     15410     15416     15417     15416     15418     15416     15419
     15410     15411     15411     15413     15411     15412     15413     15414
     15413     15415     15413     15425     15425     15426     15425     15427
     15425     15428     15428     15429     15428     15430     15428     15431
     15431     15432     15431     15433     15431     15434     15434     15435
     15434     15436     15434     15437     15437     15438     15437     15439
     15437     15440     15440     15441     15440     15442     15440     15443
     15443     15444     15443     15445     15445     15446     15445     15447
     15447     15448     15447     15449     15447     15450     15450     15451
     15450     15452     15450     15453     15453     15454     15453     15455
     15453     15456     15456     15457     15456     15458     15456     15459
     15459     15460     15459     15461     15459     15462     15462     15463
     15462     15464     15462     15465     15419     15420     15420     15422
     15420     15421     15422     15423     15422     15424     15422     15466
     15466     15467     15466     15468     15466     15469     15469     15470
     15469     15471     15469     15472     15472     15473     15472     15474
     15472     15475     15475     15476     15475     15477     15475     15478
     15478     15479     15478     15480     15478     15481     15481     15482
     15481     15483     15481     15484     15484     15485     15484     15486
     15486     15487     15486     15488     15488     15489     15488     15490
     15488     15491     15491     15492     15491     15493     15491     15494
     15494     15495     15494     15496     15494     15497     15497     15498
     15497     15499     15497     15500     15500     15501     15500     15502
     15500     15503     15503     15504     15503     15505     15503     15506
     15506     15507     15506     15508     15506     15509     15509     15510
     15509     15511     15509     15512     15513     15514     15513     15515
     15513     15516     15513     15517     15517     15518     15517     15519
     15517     15520     15520     15521     15520     15522     15520     15527
     15527     15523     15523     15526     15523     15524     15523     15525
     15528     15529     15528     15530     15528     15531     15528     15526
     15531     15532     15531     15539     15531     15533     15539     15540
     15539     15541     15539     15542     15533     15534     15534     15536
     15534     15535     15536     15537     15536     15538     15536     15548
     15548     15549     15548     15550     15548     15551     15551     15552
     15551     15553     15551     15554     15554     15555     15554     15556
     15554     15557     15557     15558     15557     15559     15557     15560
     15560     15561     15560     15562     15560     15563     15563     15564
     15563     15565     15563     15566     15566     15567     15566     15571
     15566     15568     15571     15572     15571     15573     15571     15568
     15573     15574     15573     15575     15573     15576     15576     15577
     15576     15578     15576     15579     15579     15580     15579     15581
     15579     15582     15582     15583     15582     15584     15582     15585
     15585     15586     15585     15587     15585     15588     15588     15589
     15588     15590     15588     15591     15568     15569     15568     15570
     15542     15543     15543     15545     15543     15544     15545     15546
     15545     15547     15545     15592     15592     15593     15592     15594
     15592     15595     15595     15596     15595     15597     15595     15598
     15598     15599     15598     15600     15598     15601     15601     15602
     15601     15603     15601     15604     15604     15605     15604     15606
     15604     15607     15607     15608     15607     15609     15607     15610
     15610     15611     15610     15612     15610     15613     15613     15614
     15613     15615     15613     15616     15616     15617     15616     15618
     15616     15619     15619     15620     15619     15621     15619     15622
     15622     15623     15622     15624     15622     15625     15625     15626
     15625     15627     15625     15628     15628     15629     15628     15630
     15628     15631     15631     15632     15631     15633     15631     15634
     15635     15636     15635     15637     15635     15638     15635     15639
     15639     15640     15639     15641     15639     15642     15642     15643
     15642     15644     15642     15649     15649     15645     15645     15648
     15645     15646     15645     15647     15650     15651     15650     15652
     15650     15653     15650     15648     15653     15654     15653     15661
     15653     15655     15661     15662     15661     15663     15661     15664
     15655     15656     15656     15658     15656     15657     15658     15659
     15658     15660     15658     15670     15670     15671     15670     15672
     15670     15673     15673     15674     15673     15675     15673     15676
     15676     15677     15676     15678     15676     15679     15679     15680
     15679     15681     15679     15682     15682     15683     15682     15684
     15682     15685     15685     15686     15685     15687     15685     15688
     15688     15689     15688     15693     15688     15690     15693     15694
     15693     15695     15693     15690     15695     15696     15695     15697
     15695     15698     15698     15699     15698     15700     15698     15701
     15701     15702     15701     15703     15701     15704     15704     15705
     15704     15706     15704     15707     15707     15708     15707     15709
     15707     15710     15710     15711     15710     15712     15710     15713
     15690     15691     15690     15692     15664     15665     15665     15667
     15665     15666     15667     15668     15667     15669     15667     15714
     15714     15715     15714     15716     15714     15717     15717     15718
     15717     15719     15717     15720     15720     15721     15720     15722
     15720     15723     15723     15724     15723     15725     15723     15726
     15726     15727     15726     15728     15726     15729     15729     15730
     15729     15731     15729     15732     15732     15733     15732     15734
     15732     15735     15735     15736     15735     15737     15735     15738
     15738     15739     15738     15740     15738     15741     15741     15742
     15741     15743     15741     15744     15744     15745     15744     15746
     15744     15747     15747     15748     15747     15749     15747     15750
     15750     15751     15750     15752     15750     15753     15753     15754
     15753     15755     15753     15756     15757     15758     15757     15759
     15757     15760     15757     15761     15761     15762     15761     15763
     15761     15764     15764     15765     15764     15766     15764     15771
     15771     15767     15767     15770     15767     15768     15767     15769
     15772     15773     15772     15774     15772     15775     15772     15770
     15775     15776     15775     15783     15775     15777     15783     15784
     15783     15785     15783     15786     15777     15778     15778     15780
     15778     15779     15780     15781     15780     15782     15780     15792
     15792     15793     15792     15794     15792     15795     15795     15796
     15795     15797     15795     15798     15798     15799     15798     15800
     15798     15801     15801     15802     15801     15803     15801     15804
     15804     15805     15804     15806     15804     15807     15807     15808
     15807     15809     15807     15810     15810     15811     15810     15815
     15810     15812     15815     15816     15815     15817     15815     15812
     15817     15818     15817     15819     15817     15820     15820     15821
     15820     15822     15820     15823     15823     15824     15823     15825
     15823     15826     15826     15827     15826     15828     15826     15829
     15829     15830     15829     15831     15829     15832     15832     15833
     15832     15834     15832     15835     15812     15813     15812     15814
     15786     15787     15787     15789     15787     15788     15789     15790
     15789     15791     15789     15836     15836     15837     15836     15838
     15836     15839     15839     15840     15839     15841     15839     15842
     15842     15843     15842     15844     15842     15845     15845     15846
     15845     15847     15845     15848     15848     15849     15848     15850
     15848     15851     15851     15852     15851     15853     15851     15854
     15854     15855     15854     15856     15854     15857     15857     15858
     15857     15859     15857     15860     15860     15861     15860     15862
     15860     15863     15863     15864     15863     15865     15863     15866
     15866     15867     15866     15868     15866     15869     15869     15870
     15869     15871     15869     15872     15872     15873     15872     15874
     15872     15875     15880     15879     15879     15876     15876     15877
     15876     15878     15876     15881     15884     15883     15883     15881
     15881     15882     15881     15885     15885     15886     15885     15887
     15885     15892     15892     15888     15888     15891     15888     15889
     15888     15890     15893     15894     15893     15895     15893     15896
     15893     15891     15896     15897     15896     15904     15896     15898
     15904     15905     15904     15906     15904     15907     15898     15899
     15899     15901     15899     15900     15901     15902     15901     15903
     15901     15913     15913     15914     15913     15915     15913     15916
     15916     15917     15916     15918     15916     15919     15919     15920
     15919     15921     15919     15922     15922     15923     15922     15924
     15922     15925     15925     15926     15925     15927     15925     15928
     15928     15929     15928     15930     15928     15931     15931     15932
     15931     15933     15933     15934     15933     15935     15935     15936
     15935     15937     15935     15938     15938     15939     15938     15940
     15938     15941     15941     15942     15941     15943     15941     15944
     15944     15945     15944     15946     15944     15947     15947     15948
     15947     15949     15947     15950     15950     15951     15950     15952
     15950     15953     15907     15908     15908     15910     15908     15909
     15910     15911     15910     15912     15910     15954     15954     15955
     15954     15956     15954     15957     15957     15958     15957     15959
     15957     15960     15960     15961     15960     15962     15960     15963
     15963     15964     15963     15965     15963     15966     15966     15967
     15966     15968     15966     15969     15969     15970     15969     15971
     15969     15972     15972     15973     15972     15974     15972     15975
     15975     15976     15975     15977     15975     15978     15978     15979
     15978     15980     15978     15981     15981     15982     15981     15983
     15981     15984     15984     15985     15984     15986     15984     15987
     15987     15988     15987     15989     15987     15990     15990     15991
     15990     15992     15990     15993     15993     15994     15993     15995
     15993     15996     16001     16000     16000     15997     15997     15998
     15997     15999     15997     16002     16005     16004     16004     16002
     16002     16003     16002     16006     16006     16007     16006     16008
     16006     16013     16013     16009     16009     16012     16009     16010
     16009     16011     16014     16015     16014     16016     16014     16017
     16014     16012     16017     16018     16017     16025     16017     16019
     16025     16026     16025     16027     16025     16028     16019     16020
     16020     16022     16020     16021     16022     16023     16022     16024
     16022     16034     16034     16035     16034     16036     16034     16037
     16037     16038     16037     16039     16037     16040     16040     16041
     16040     16042     16040     16043     16043     16044     16043     16045
     16043     16046     16046     16047     16046     16048     16046     16049
     16049     16050     16049     16051     16049     16052     16052     16053
     16052     16054     16054     16055     16054     16056     16056     16057
     16056     16058     16056     16059     16059     16060     16059     16061
     16059     16062     16062     16063     16062     16064     16062     16065
     16065     16066     16065     16067     16065     16068     16068     16069
     16068     16070     16068     16071     16071     16072     16071     16073
     16071     16074     16028     16029     16029     16031     16029     16030
     16031     16032     16031     16033     16031     16075     16075     16076
     16075     16077     16075     16078     16078     16079     16078     16080
     16078     16081     16081     16082     16081     16083     16081     16084
     16084     16085     16084     16086     16084     16087     16087     16088
     16087     16089     16087     16090     16090     16091     16090     16092
     16090     16093     16093     16094     16093     16095     16093     16096
     16096     16097     16096     16098     16096     16099     16099     16100
     16099     16101     16099     16102     16102     16103     16102     16104
     16102     16105     16105     16106     16105     16107     16105     16108
     16108     16109     16108     16110     16108     16111     16111     16112
     16111     16113     16111     16114     16114     16115     16114     16116
     16114     16117     16118     16119     16118     16120     16118     16121
     16118     16122     16122     16123     16122     16124     16122     16125
     16125     16126     16125     16127     16125     16132     16132     16128
     16128     16131     16128     16129     16128     16130     16133     16134
     16133     16135     16133     16136     16133     16131     16136     16137
     16136     16144     16136     16138     16144     16145     16144     16146
     16144     16147     16138     16139     16139     16141     16139     16140
     16141     16142     16141     16143     16141     16153     16153     16154
     16153     16155     16153     16156     16156     16157     16156     16158
     16156     16159     16159     16160     16159     16161     16159     16162
     16162     16163     16162     16164     16162     16165     16165     16166
     16165     16167     16165     16168     16168     16169     16168     16170
     16168     16171     16171     16172     16171     16176     16171     16173
     16176     16177     16176     16178     16176     16173     16178     16179
     16178     16180     16178     16181     16181     16182     16181     16183
     16181     16184     16184     16185     16184     16186     16184     16187
     16187     16188     16187     16189     16187     16190     16190     16191
     16190     16192     16190     16193     16193     16194     16193     16195
     16193     16196     16173     16174     16173     16175     16147     16148
     16148     16150     16148     16149     16150     16151     16150     16152
     16150     16197     16197     16198     16197     16199     16197     16200
     16200     16201     16200     16202     16200     16203     16203     16204
     16203     16205     16203     16206     16206     16207     16206     16208
     16206     16209     16209     16210     16209     16211     16209     16212
     16212     16213     16212     16214     16212     16215     16215     16216
     16215     16217     16215     16218     16218     16219     16218     16220
     16218     16221     16221     16222     16221     16223     16221     16224
     16224     16225     16224     16226     16224     16227     16227     16228
     16227     16229     16227     16230     16230     16231     16230     16232
     16230     16233     16233     16234     16233     16235     16233     16236
     16236     16237     16236     16238     16236     16239     16240     16241
     16240     16242     16240     16243     16240     16244     16244     16245
     16244     16246     16244     16247     16247     16248     16247     16249
     16247     16254     16254     16250     16250     16253     16250     16251
     16250     16252     16255     16256     16255     16257     16255     16258
     16255     16253     16258     16259     16258     16266     16258     16260
     16266     16267     16266     16268     16266     16269     16260     16261
     16261     16263     16261     16262     16263     16264     16263     16265
     16263     16275     16275     16276     16275     16277     16275     16278
     16278     16279     16278     16280     16278     16281     16281     16282
     16281     16283     16281     16284     16284     16285     16284     16286
     16284     16287     16287     16288     16287     16289     16287     16290
     16290     16291     16290     16292     16290     16293     16293     16294
     16293     16298     16293     16295     16298     16299     16298     16300
     16298     16295     16300     16301     16300     16302     16300     16303
     16303     16304     16303     16305     16303     16306     16306     16307
     16306     16308     16306     16309     16309     16310     16309     16311
     16309     16312     16312     16313     16312     16314     16312     16315
     16315     16316     16315     16317     16315     16318     16295     16296
     16295     16297     16269     16270     16270     16272     16270     16271
     16272     16273     16272     16274     16272     16319     16319     16320
     16319     16321     16319     16322     16322     16323     16322     16324
     16322     16325     16325     16326     16325     16327     16325     16328
     16328     16329     16328     16330     16328     16331     16331     16332
     16331     16333     16331     16334     16334     16335     16334     16336
     16334     16337     16337     16338     16337     16339     16337     16340
     16340     16341     16340     16342     16340     16343     16343     16344
     16343     16345     16343     16346     16346     16347     16346     16348
     16346     16349     16349     16350     16349     16351     16349     16352
     16352     16353     16352     16354     16352     16355     16355     16356
     16355     16357     16355     16358     16359     16360     16359     16361
     16359     16362     16359     16363     16363     16364     16363     16365
     16363     16366     16366     16367     16366     16368     16366     16373
     16373     16369     16369     16372     16369     16370     16369     16371
     16374     16375     16374     16376     16374     16377     16374     16372
     16377     16378     16377     16385     16377     16379     16385     16386
     16385     16387     16385     16388     16379     16380     16380     16382
     16380     16381     16382     16383     16382     16384     16382     16394
     16394     16395     16394     16396     16394     16397     16397     16398
     16397     16399     16397     16400     16400     16401     16400     16402
     16400     16403     16403     16404     16403     16405     16403     16406
     16406     16407     16406     16408     16406     16409     16409     16410
     16409     16411     16409     16412     16412     16413     16412     16417
     16412     16414     16417     16418     16417     16419     16417     16414
     16419     16420     16419     16421     16419     16422     16422     16423
     16422     16424     16422     16425     16425     16426     16425     16427
     16425     16428     16428     16429     16428     16430     16428     16431
     16431     16432     16431     16433     16431     16434     16434     16435
     16434     16436     16434     16437     16414     16415     16414     16416
     16388     16389     16389     16391     16389     16390     16391     16392
     16391     16393     16391     16438     16438     16439     16438     16440
     16438     16441     16441     16442     16441     16443     16441     16444
     16444     16445     16444     16446     16444     16447     16447     16448
     16447     16449     16447     16450     16450     16451     16450     16452
     16450     16453     16453     16454     16453     16455     16453     16456
     16456     16457     16456     16458     16456     16459     16459     16460
     16459     16461     16459     16462     16462     16463     16462     16464
     16462     16465     16465     16466     16465     16467     16465     16468
     16468     16469     16468     16470     16468     16471     16471     16472
     16471     16473     16471     16474     16474     16475     16474     16476
     16474     16477     16477     16478     16477     16479     16477     16480
     16481     16482     16481     16483     16481     16484     16481     16485
     16485     16486     16485     16487     16485     16488     16488     16489
     16488     16490     16488     16495     16495     16491     16491     16494
     16491     16492     16491     16493     16496     16497     16496     16498
     16496     16499     16496     16494     16499     16500     16499     16507
     16499     16501     16507     16508     16507     16509     16507     16510
     16501     16502     16502     16504     16502     16503     16504     16505
     16504     16506     16504     16516     16516     16517     16516     16518
     16516     16519     16519     16520     16519     16521     16519     16522
     16522     16523     16522     16524     16522     16525     16525     16526
     16525     16527     16525     16528     16528     16529     16528     16530
     16528     16531     16531     16532     16531     16533     16531     16534
     16534     16535     16534     16539     16534     16536     16539     16540
     16539     16541     16539     16536     16541     16542     16541     16543
     16541     16544     16544     16545     16544     16546     16544     16547
     16547     16548     16547     16549     16547     16550     16550     16551
     16550     16552     16550     16553     16553     16554     16553     16555
     16553     16556     16556     16557     16556     16558     16556     16559
     16536     16537     16536     16538     16510     16511     16511     16513
     16511     16512     16513     16514     16513     16515     16513     16560
     16560     16561     16560     16562     16560     16563     16563     16564
     16563     16565     16563     16566     16566     16567     16566     16568
     16566     16569     16569     16570     16569     16571     16569     16572
     16572     16573     16572     16574     16572     16575     16575     16576
     16575     16577     16575     16578     16578     16579     16578     16580
     16578     16581     16581     16582     16581     16583     16581     16584
     16584     16585     16584     16586     16584     16587     16587     16588
     16587     16589     16587     16590     16590     16591     16590     16592
     16590     16593     16593     16594     16593     16595     16593     16596
     16596     16597     16596     16598     16596     16599     16600     16601
     16600     16602     16600     16603     16600     16604     16604     16605
     16604     16606     16604     16607     16607     16608     16607     16609
     16607     16614     16614     16610     16610     16613     16610     16611
     16610     16612     16615     16616     16615     16617     16615     16618
     16615     16613     16618     16619     16618     16626     16618     16620
     16626     16627     16626     16628     16626     16629     16620     16621
     16621     16623     16621     16622     16623     16624     16623     16625
     16623     16635     16635     16636     16635     16637     16635     16638
     16638     16639     16638     16640     16638     16641     16641     16642
     16641     16643     16641     16644     16644     16645     16644     16646
     16644     16647     16647     16648     16647     16649     16647     16650
     16650     16651     16650     16652     16650     16653     16653     16654
     16653     16655     16655     16656     16655     16657     16657     16658
     16657     16659     16657     16660     16660     16661     16660     16662
     16660     16663     16663     16664     16663     16665     16663     16666
     16666     16667     16666     16668     16666     16669     16669     16670
     16669     16671     16669     16672     16672     16673     16672     16674
     16672     16675     16629     16630     16630     16632     16630     16631
     16632     16633     16632     16634     16632     16676     16676     16677
     16676     16678     16676     16679     16679     16680     16679     16681
     16679     16682     16682     16683     16682     16684     16682     16685
     16685     16686     16685     16687     16685     16688     16688     16689
     16688     16690     16688     16691     16691     16692     16691     16693
     16691     16694     16694     16695     16694     16696     16696     16697
     16696     16698     16698     16699     16698     16700     16698     16701
     16701     16702     16701     16703     16701     16704     16704     16705
     16704     16706     16704     16707     16707     16708     16707     16709
     16707     16710     16710     16711     16710     16712     16710     16713
     16713     16714     16713     16715     16713     16716     16716     16717
     16716     16718     16716     16719     16719     16720     16719     16721
     16719     16722     16723     16724     16723     16725     16723     16726
     16723     16727     16727     16728     16727     16729     16727     16730
     16730     16731     16730     16732     16730     16737     16737     16733
     16733     16736     16733     16734     16733     16735     16738     16739
     16738     16740     16738     16741     16738     16736     16741     16742
     16741     16749     16741     16743     16749     16750     16749     16751
     16749     16752     16743     16744     16744     16746     16744     16745
     16746     16747     16746     16748     16746     16758     16758     16759
     16758     16760     16758     16761     16761     16762     16761     16763
     16761     16764     16764     16765     16764     16766     16764     16767
     16767     16768     16767     16769     16767     16770     16770     16771
     16770     16772     16770     16773     16773     16774     16773     16775
     16773     16776     16776     16777     16776     16778     16778     16779
     16778     16780     16780     16781     16780     16782     16780     16783
     16783     16784     16783     16785     16783     16786     16786     16787
     16786     16788     16786     16789     16789     16790     16789     16791
     16789     16792     16792     16793     16792     16794     16792     16795
     16795     16796     16795     16797     16795     16798     16798     16799
     16798     16800     16798     16801     16801     16802     16801     16803
     16801     16804     16752     16753     16753     16755     16753     16754
     16755     16756     16755     16757     16755     16805     16805     16806
     16805     16807     16805     16808     16808     16809     16808     16810
     16808     16811     16811     16812     16811     16813     16811     16814
     16814     16815     16814     16816     16814     16817     16817     16818
     16817     16819     16817     16820     16820     16821     16820     16822
     16820     16823     16823     16824     16823     16825     16823     16826
     16826     16827     16826     16828     16826     16829     16829     16830
     16829     16831     16829     16832     16832     16833     16832     16834
     16832     16835     16835     16836     16835     16837     16835     16838
     16838     16839     16838     16840     16838     16841     16841     16842
     16841     16843     16841     16844     16844     16845     16844     16846
     16844     16847     16848     16849     16848     16850     16848     16851
     16848     16852     16852     16853     16852     16854     16852     16855
     16855     16856     16855     16857     16855     16862     16862     16858
     16858     16861     16858     16859     16858     16860     16863     16864
     16863     16865     16863     16866     16863     16861     16866     16867
     16866     16874     16866     16868     16874     16875     16874     16876
     16874     16877     16868     16869     16869     16871     16869     16870
     16871     16872     16871     16873     16871     16883     16883     16884
     16883     16885     16883     16886     16886     16887     16886     16888
     16886     16889     16889     16890     16889     16891     16889     16892
     16892     16893     16892     16894     16892     16895     16895     16896
     16895     16897     16895     16898     16898     16899     16898     16900
     16898     16901     16901     16902     16901     16903     16903     16904
     16903     16905     16905     16906     16905     16907     16905     16908
     16908     16909     16908     16910     16908     16911     16911     16912
     16911     16913     16911     16914     16914     16915     16914     16916
     16914     16917     16917     16918     16917     16919     16917     16920
     16920     16921     16920     16922     16920     16923     16877     16878
     16878     16880     16878     16879     16880     16881     16880     16882
     16880     16924     16924     16925     16924     16926     16924     16927
     16927     16928     16927     16929     16927     16930     16930     16931
     16930     16932     16930     16933     16933     16934     16933     16935
     16933     16936     16936     16937     16936     16938     16936     16939
     16939     16940     16939     16941     16939     16942     16942     16943
     16942     16944     16944     16945     16944     16946     16946     16947
     16946     16948     16946     16949     16949     16950     16949     16951
     16949     16952     16952     16953     16952     16954     16952     16955
     16955     16956     16955     16957     16955     16958     16958     16959
     16958     16960     16958     16961     16961     16962     16961     16963
     16961     16964     16964     16965     16964     16966     16964     16967
     16967     16968     16967     16969     16967     16970     16971     16972
     16971     16973     16971     16974     16971     16975     16975     16976
     16975     16977     16975     16978     16978     16979     16978     16980
     16978     16985     16985     16981     16981     16984     16981     16982
     16981     16983     16986     16987     16986     16988     16986     16989
     16986     16984     16989     16990     16989     16997     16989     16991
     16997     16998     16997     16999     16997     17000     16991     16992
     16992     16994     16992     16993     16994     16995     16994     16996
     16994     17006     17006     17007     17006     17008     17006     17009
     17009     17010     17009     17011     17009     17012     17012     17013
     17012     17014     17012     17015     17015     17016     17015     17017
     17015     17018     17018     17019     17018     17020     17018     17021
     17021     17022     17021     17023     17021     17024     17024     17025
     17024     17029     17024     17026     17029     17030     17029     17031
     17029     17026     17031     17032     17031     17033     17031     17034
     17034     17035     17034     17036     17034     17037     17037     17038
     17037     17039     17037     17040     17040     17041     17040     17042
     17040     17043     17043     17044     17043     17045     17043     17046
     17046     17047     17046     17048     17046     17049     17026     17027
     17026     17028     17000     17001     17001     17003     17001     17002
     17003     17004     17003     17005     17003     17050     17050     17051
     17050     17052     17050     17053     17053     17054     17053     17055
     17053     17056     17056     17057     17056     17058     17056     17059
     17059     17060     17059     17061     17059     17062     17062     17063
     17062     17064     17062     17065     17065     17066     17065     17067
     17065     17068     17068     17069     17068     17070     17068     17071
     17071     17072     17071     17073     17071     17074     17074     17075
     17074     17076     17074     17077     17077     17078     17077     17079
     17077     17080     17080     17081     17080     17082     17080     17083
     17083     17084     17083     17085     17083     17086     17086     17087
     17086     17088     17086     17089     17089     17090     17089     17091
     17089     17092     17093     17094     17093     17095     17093     17096
     17093     17097     17097     17098     17097     17099     17097     17100
     17100     17101     17100     17102     17100     17107     17107     17103
     17103     17106     17103     17104     17103     17105     17108     17109
     17108     17110     17108     17111     17108     17106     17111     17112
     17111     17119     17111     17113     17119     17120     17119     17121
     17119     17122     17113     17114     17114     17116     17114     17115
     17116     17117     17116     17118     17116     17128     17128     17129
     17128     17130     17128     17131     17131     17132     17131     17133
     17131     17134     17134     17135     17134     17136     17134     17137
     17137     17138     17137     17139     17137     17140     17140     17141
     17140     17142     17140     17143     17143     17144     17143     17145
     17143     17146     17146     17147     17146     17148     17148     17149
     17148     17150     17150     17151     17150     17152     17150     17153
     17153     17154     17153     17155     17153     17156     17156     17157
     17156     17158     17156     17159     17159     17160     17159     17161
     17159     17162     17162     17163     17162     17164     17162     17165
     17165     17166     17165     17167     17165     17168     17168     17169
     17168     17170     17168     17171     17171     17172     17171     17173
     17171     17174     17122     17123     17123     17125     17123     17124
     17125     17126     17125     17127     17125     17175     17175     17176
     17175     17177     17175     17178     17178     17179     17178     17180
     17178     17181     17181     17182     17181     17183     17181     17184
     17184     17185     17184     17186     17184     17187     17187     17188
     17187     17189     17187     17190     17190     17191     17190     17192
     17190     17193     17193     17194     17193     17195     17193     17196
     17196     17197     17196     17198     17196     17199     17199     17200
     17199     17201     17199     17202     17202     17203     17202     17204
     17202     17205     17205     17206     17205     17207     17205     17208
     17208     17209     17208     17210     17208     17211     17211     17212
     17211     17213     17211     17214     17214     17215     17214     17216
     17214     17217     17218     17219     17218     17220     17218     17221
     17218     17222     17222     17223     17222     17224     17222     17225
     17225     17226     17225     17227     17225     17232     17232     17228
     17228     17231     17228     17229     17228     17230     17233     17234
     17233     17235     17233     17236     17233     17231     17236     17237
     17236     17244     17236     17238     17244     17245     17244     17246
     17244     17247     17238     17239     17239     17241     17239     17240
     17241     17242     17241     17243     17241     17253     17253     17254
     17253     17255     17253     17256     17256     17257     17256     17258
     17256     17259     17259     17260     17259     17261     17259     17262
     17262     17263     17262     17264     17262     17265     17265     17266
     17265     17267     17265     17268     17268     17269     17268     17270
     17268     17271     17271     17272     17271     17276     17271     17273
     17276     17277     17276     17278     17276     17273     17278     17279
     17278     17280     17278     17281     17281     17282     17281     17283
     17281     17284     17284     17285     17284     17286     17284     17287
     17287     17288     17287     17289     17287     17290     17290     17291
     17290     17292     17290     17293     17293     17294     17293     17295
     17293     17296     17273     17274     17273     17275     17247     17248
     17248     17250     17248     17249     17250     17251     17250     17252
     17250     17297     17297     17298     17297     17299     17297     17300
     17300     17301     17300     17302     17300     17303     17303     17304
     17303     17305     17303     17306     17306     17307     17306     17308
     17306     17309     17309     17310     17309     17311     17309     17312
     17312     17313     17312     17314     17312     17315     17315     17316
     17315     17317     17315     17318     17318     17319     17318     17320
     17318     17321     17321     17322     17321     17323     17321     17324
     17324     17325     17324     17326     17324     17327     17327     17328
     17327     17329     17327     17330     17330     17331     17330     17332
     17330     17333     17333     17334     17333     17335     17333     17336
     17336     17337     17336     17338     17336     17339     17344     17343
     17343     17340     17340     17341     17340     17342     17340     17345
     17348     17347     17347     17345     17345     17346     17345     17349
     17349     17350     17349     17351     17349     17356     17356     17352
     17352     17355     17352     17353     17352     17354     17357     17358
     17357     17359     17357     17360     17357     17355     17360     17361
     17360     17368     17360     17362     17368     17369     17368     17370
     17368     17371     17362     17363     17363     17365     17363     17364
     17365     17366     17365     17367     17365     17377     17377     17378
     17377     17379     17377     17380     17380     17381     17380     17382
     17380     17383     17383     17384     17383     17385     17383     17386
     17386     17387     17386     17388     17386     17389     17389     17390
     17389     17391     17389     17392     17392     17393     17392     17394
     17392     17395     17395     17396     17395     17400     17395     17397
     17400     17401     17400     17402     17400     17397     17402     17403
     17402     17404     17402     17405     17405     17406     17405     17407
     17405     17408     17408     17409     17408     17410     17408     17411
     17411     17412     17411     17413     17411     17414     17414     17415
     17414     17416     17414     17417     17417     17418     17417     17419
     17417     17420     17397     17398     17397     17399     17371     17372
     17372     17374     17372     17373     17374     17375     17374     17376
     17374     17421     17421     17422     17421     17423     17421     17424
     17424     17425     17424     17426     17424     17427     17427     17428
     17427     17429     17427     17430     17430     17431     17430     17432
     17430     17433     17433     17434     17433     17435     17433     17436
     17436     17437     17436     17438     17436     17439     17439     17440
     17439     17441     17439     17442     17442     17443     17442     17444
     17442     17445     17445     17446     17445     17447     17445     17448
     17448     17449     17448     17450     17448     17451     17451     17452
     17451     17453     17451     17454     17454     17455     17454     17456
     17454     17457     17457     17458     17457     17459     17457     17460
     17460     17461     17460     17462     17460     17463     17464     17465
     17464     17466     17464     17467     17464     17468     17468     17469
     17468     17470     17468     17471     17471     17472     17471     17473
     17471     17478     17478     17474     17474     17477     17474     17475
     17474     17476     17479     17480     17479     17481     17479     17482
     17479     17477     17482     17483     17482     17490     17482     17484
     17490     17491     17490     17492     17490     17493     17484     17485
     17485     17487     17485     17486     17487     17488     17487     17489
     17487     17499     17499     17500     17499     17501     17499     17502
     17502     17503     17502     17504     17502     17505     17505     17506
     17505     17507     17505     17508     17508     17509     17508     17510
     17508     17511     17511     17512     17511     17513     17511     17514
     17514     17515     17514     17516     17514     17517     17517     17518
     17517     17522     17517     17519     17522     17523     17522     17524
     17522     17519     17524     17525     17524     17526     17524     17527
     17527     17528     17527     17529     17527     17530     17530     17531
     17530     17532     17530     17533     17533     17534     17533     17535
     17533     17536     17536     17537     17536     17538     17536     17539
     17539     17540     17539     17541     17539     17542     17519     17520
     17519     17521     17493     17494     17494     17496     17494     17495
     17496     17497     17496     17498     17496     17543     17543     17544
     17543     17545     17543     17546     17546     17547     17546     17548
     17546     17549     17549     17550     17549     17551     17549     17552
     17552     17553     17552     17554     17552     17555     17555     17556
     17555     17557     17555     17558     17558     17559     17558     17560
     17558     17561     17561     17562     17561     17563     17561     17564
     17564     17565     17564     17566     17564     17567     17567     17568
     17567     17569     17567     17570     17570     17571     17570     17572
     17570     17573     17573     17574     17573     17575     17573     17576
     17576     17577     17576     17578     17576     17579     17579     17580
     17579     17581     17579     17582     17582     17583     17582     17584
     17582     17585     17590     17589     17589     17586     17586     17587
     17586     17588     17586     17591     17594     17593     17593     17591
     17591     17592     17591     17595     17595     17596     17595     17597
     17595     17602     17602     17598     17598     17601     17598     17599
     17598     17600     17603     17604     17603     17605     17603     17606
     17603     17601     17606     17607     17606     17614     17606     17608
     17614     17615     17614     17616     17614     17617     17608     17609
     17609     17611     17609     17610     17611     17612     17611     17613
     17611     17623     17623     17624     17623     17625     17623     17626
     17626     17627     17626     17628     17626     17629     17629     17630
     17629     17631     17629     17632     17632     17633     17632     17634
     17632     17635     17635     17636     17635     17637     17635     17638
     17638     17639     17638     17640     17638     17641     17641     17642
     17641     17646     17641     17643     17646     17647     17646     17648
     17646     17643     17648     17649     17648     17650     17648     17651
     17651     17652     17651     17653     17651     17654     17654     17655
     17654     17656     17654     17657     17657     17658     17657     17659
     17657     17660     17660     17661     17660     17662     17660     17663
     17663     17664     17663     17665     17663     17666     17643     17644
     17643     17645     17617     17618     17618     17620     17618     17619
     17620     17621     17620     17622     17620     17667     17667     17668
     17667     17669     17667     17670     17670     17671     17670     17672
     17670     17673     17673     17674     17673     17675     17673     17676
     17676     17677     17676     17678     17676     17679     17679     17680
     17679     17681     17679     17682     17682     17683     17682     17684
     17682     17685     17685     17686     17685     17687     17685     17688
     17688     17689     17688     17690     17688     17691     17691     17692
     17691     17693     17691     17694     17694     17695     17694     17696
     17694     17697     17697     17698     17697     17699     17697     17700
     17700     17701     17700     17702     17700     17703     17703     17704
     17703     17705     17703     17706     17706     17707     17706     17708
     17706     17709     17710     17711     17710     17712     17710     17713
     17710     17714     17714     17715     17714     17716     17714     17717
     17717     17718     17717     17719     17717     17724     17724     17720
     17720     17723     17720     17721     17720     17722     17725     17726
     17725     17727     17725     17728     17725     17723     17728     17729
     17728     17736     17728     17730     17736     17737     17736     17738
     17736     17739     17730     17731     17731     17733     17731     17732
     17733     17734     17733     17735     17733     17745     17745     17746
     17745     17747     17745     17748     17748     17749     17748     17750
     17748     17751     17751     17752     17751     17753     17751     17754
     17754     17755     17754     17756     17754     17757     17757     17758
     17757     17759     17757     17760     17760     17761     17760     17762
     17760     17763     17763     17764     17763     17768     17763     17765
     17768     17769     17768     17770     17768     17765     17770     17771
     17770     17772     17770     17773     17773     17774     17773     17775
     17773     17776     17776     17777     17776     17778     17776     17779
     17779     17780     17779     17781     17779     17782     17782     17783
     17782     17784     17782     17785     17785     17786     17785     17787
     17785     17788     17765     17766     17765     17767     17739     17740
     17740     17742     17740     17741     17742     17743     17742     17744
     17742     17789     17789     17790     17789     17791     17789     17792
     17792     17793     17792     17794     17792     17795     17795     17796
     17795     17797     17795     17798     17798     17799     17798     17800
     17798     17801     17801     17802     17801     17803     17801     17804
     17804     17805     17804     17806     17804     17807     17807     17808
     17807     17809     17807     17810     17810     17811     17810     17812
     17810     17813     17813     17814     17813     17815     17813     17816
     17816     17817     17816     17818     17816     17819     17819     17820
     17819     17821     17819     17822     17822     17823     17822     17824
     17822     17825     17825     17826     17825     17827     17825     17828
     17828     17829     17828     17830     17828     17831     17832     17833
     17832     17834     17832     17835     17832     17836     17836     17837
     17836     17838     17836     17839     17839     17840     17839     17841
     17839     17846     17846     17842     17842     17845     17842     17843
     17842     17844     17847     17848     17847     17849     17847     17850
     17847     17845     17850     17851     17850     17858     17850     17852
     17858     17859     17858     17860     17858     17861     17852     17853
     17853     17855     17853     17854     17855     17856     17855     17857
     17855     17867     17867     17868     17867     17869     17867     17870
     17870     17871     17870     17872     17870     17873     17873     17874
     17873     17875     17873     17876     17876     17877     17876     17878
     17876     17879     17879     17880     17879     17881     17879     17882
     17882     17883     17882     17884     17882     17885     17885     17886
     17885     17890     17885     17887     17890     17891     17890     17892
     17890     17887     17892     17893     17892     17894     17892     17895
     17895     17896     17895     17897     17895     17898     17898     17899
     17898     17900     17898     17901     17901     17902     17901     17903
     17901     17904     17904     17905     17904     17906     17904     17907
     17907     17908     17907     17909     17907     17910     17887     17888
     17887     17889     17861     17862     17862     17864     17862     17863
     17864     17865     17864     17866     17864     17911     17911     17912
     17911     17913     17911     17914     17914     17915     17914     17916
     17914     17917     17917     17918     17917     17919     17917     17920
     17920     17921     17920     17922     17920     17923     17923     17924
     17923     17925     17923     17926     17926     17927     17926     17928
     17926     17929     17929     17930     17929     17931     17929     17932
     17932     17933     17932     17934     17932     17935     17935     17936
     17935     17937     17935     17938     17938     17939     17938     17940
     17938     17941     17941     17942     17941     17943     17941     17944
     17944     17945     17944     17946     17944     17947     17947     17948
     17947     17949     17947     17950     17951     17952     17951     17953
     17951     17954     17951     17955     17955     17956     17955     17957
     17955     17958     17958     17959     17958     17960     17958     17965
     17965     17961     17961     17964     17961     17962     17961     17963
     17966     17967     17966     17968     17966     17969     17966     17964
     17969     17970     17969     17977     17969     17971     17977     17978
     17977     17979     17977     17980     17971     17972     17972     17974
     17972     17973     17974     17975     17974     17976     17974     17986
     17986     17987     17986     17988     17986     17989     17989     17990
     17989     17991     17989     17992     17992     17993     17992     17994
     17992     17995     17995     17996     17995     17997     17995     17998
     17998     17999     17998     18000     17998     18001     18001     18002
     18001     18003     18001     18004     18004     18005     18004     18009
     18004     18006     18009     18010     18009     18011     18009     18006
     18011     18012     18011     18013     18011     18014     18014     18015
     18014     18016     18014     18017     18017     18018     18017     18019
     18017     18020     18020     18021     18020     18022     18020     18023
     18023     18024     18023     18025     18023     18026     18026     18027
     18026     18028     18026     18029     18006     18007     18006     18008
     17980     17981     17981     17983     17981     17982     17983     17984
     17983     17985     17983     18030     18030     18031     18030     18032
     18030     18033     18033     18034     18033     18035     18033     18036
     18036     18037     18036     18038     18036     18039     18039     18040
     18039     18041     18039     18042     18042     18043     18042     18044
     18042     18045     18045     18046     18045     18047     18045     18048
     18048     18049     18048     18050     18048     18051     18051     18052
     18051     18053     18051     18054     18054     18055     18054     18056
     18054     18057     18057     18058     18057     18059     18057     18060
     18060     18061     18060     18062     18060     18063     18063     18064
     18063     18065     18063     18066     18066     18067     18066     18068
     18066     18069     18070     18071     18070     18072     18070     18073
     18070     18074     18074     18075     18074     18076     18074     18077
     18077     18078     18077     18079     18077     18084     18084     18080
     18080     18083     18080     18081     18080     18082     18085     18086
     18085     18087     18085     18088     18085     18083     18088     18089
     18088     18096     18088     18090     18096     18097     18096     18098
     18096     18099     18090     18091     18091     18093     18091     18092
     18093     18094     18093     18095     18093     18105     18105     18106
     18105     18107     18105     18108     18108     18109     18108     18110
     18108     18111     18111     18112     18111     18113     18111     18114
     18114     18115     18114     18116     18114     18117     18117     18118
     18117     18119     18117     18120     18120     18121     18120     18122
     18120     18123     18123     18124     18123     18128     18123     18125
     18128     18129     18128     18130     18128     18125     18130     18131
     18130     18132     18130     18133     18133     18134     18133     18135
     18133     18136     18136     18137     18136     18138     18136     18139
     18139     18140     18139     18141     18139     18142     18142     18143
     18142     18144     18142     18145     18145     18146     18145     18147
     18145     18148     18125     18126     18125     18127     18099     18100
     18100     18102     18100     18101     18102     18103     18102     18104
     18102     18149     18149     18150     18149     18151     18149     18152
     18152     18153     18152     18154     18152     18155     18155     18156
     18155     18157     18155     18158     18158     18159     18158     18160
     18158     18161     18161     18162     18161     18163     18161     18164
     18164     18165     18164     18166     18164     18167     18167     18168
     18167     18169     18167     18170     18170     18171     18170     18172
     18170     18173     18173     18174     18173     18175     18173     18176
     18176     18177     18176     18178     18176     18179     18179     18180
     18179     18181     18179     18182     18182     18183     18182     18184
     18182     18185     18185     18186     18185     18187     18185     18188
     18188     18189     18188     18190     18188     18191     18192     18193
     18192     18194     18192     18195     18192     18196     18196     18197
     18196     18198     18196     18199     18199     18200     18199     18201
     18199     18206     18206     18202     18202     18205     18202     18203
     18202     18204     18207     18208     18207     18209     18207     18210
     18207     18205     18210     18211     18210     18218     18210     18212
     18218     18219     18218     18220     18218     18221     18212     18213
     18213     18215     18213     18214     18215     18216     18215     18217
     18215     18227     18227     18228     18227     18229     18227     18230
     18230     18231     18230     18232     18230     18233     18233     18234
     18233     18235     18233     18236     18236     18237     18236     18238
     18236     18239     18239     18240     18239     18241     18239     18242
     18242     18243     18242     18244     18242     18245     18245     18246
     18245     18250     18245     18247     18250     18251     18250     18252
     18250     18247     18252     18253     18252     18254     18252     18255
     18255     18256     18255     18257     18255     18258     18258     18259
     18258     18260     18258     18261     18261     18262     18261     18263
     18261     18264     18264     18265     18264     18266     18264     18267
     18267     18268     18267     18269     18267     18270     18247     18248
     18247     18249     18221     18222     18222     18224     18222     18223
     18224     18225     18224     18226     18224     18271     18271     18272
     18271     18273     18271     18274     18274     18275     18274     18276
     18274     18277     18277     18278     18277     18279     18277     18280
     18280     18281     18280     18282     18280     18283     18283     18284
     18283     18285     18283     18286     18286     18287     18286     18288
     18286     18289     18289     18290     18289     18291     18289     18292
     18292     18293     18292     18294     18292     18295     18295     18296
     18295     18297     18295     18298     18298     18299     18298     18300
     18298     18301     18301     18302     18301     18303     18301     18304
     18304     18305     18304     18306     18304     18307     18307     18308
     18307     18309     18307     18310     18310     18311     18310     18312
     18310     18313     18314     18315     18314     18316     18314     18317
     18314     18318     18318     18319     18318     18320     18318     18321
     18321     18322     18321     18323     18321     18328     18328     18324
     18324     18327     18324     18325     18324     18326     18329     18330
     18329     18331     18329     18332     18329     18327     18332     18333
     18332     18340     18332     18334     18340     18341     18340     18342
     18340     18343     18334     18335     18335     18337     18335     18336
     18337     18338     18337     18339     18337     18349     18349     18350
     18349     18351     18349     18352     18352     18353     18352     18354
     18352     18355     18355     18356     18355     18357     18355     18358
     18358     18359     18358     18360     18358     18361     18361     18362
     18361     18363     18361     18364     18364     18365     18364     18366
     18364     18367     18367     18368     18367     18372     18367     18369
     18372     18373     18372     18374     18372     18369     18374     18375
     18374     18376     18374     18377     18377     18378     18377     18379
     18377     18380     18380     18381     18380     18382     18380     18383
     18383     18384     18383     18385     18383     18386     18386     18387
     18386     18388     18386     18389     18389     18390     18389     18391
     18389     18392     18369     18370     18369     18371     18343     18344
     18344     18346     18344     18345     18346     18347     18346     18348
     18346     18393     18393     18394     18393     18395     18393     18396
     18396     18397     18396     18398     18396     18399     18399     18400
     18399     18401     18399     18402     18402     18403     18402     18404
     18402     18405     18405     18406     18405     18407     18405     18408
     18408     18409     18408     18410     18408     18411     18411     18412
     18411     18413     18411     18414     18414     18415     18414     18416
     18414     18417     18417     18418     18417     18419     18417     18420
     18420     18421     18420     18422     18420     18423     18423     18424
     18423     18425     18423     18426     18426     18427     18426     18428
     18426     18429     18429     18430     18429     18431     18429     18432
     18432     18433     18432     18434     18432     18435     18440     18439
     18439     18436     18436     18437     18436     18438     18436     18441
     18444     18443     18443     18441     18441     18442     18441     18445
     18445     18446     18445     18447     18445     18452     18452     18448
     18448     18451     18448     18449     18448     18450     18453     18454
     18453     18455     18453     18456     18453     18451     18456     18457
     18456     18464     18456     18458     18464     18465     18464     18466
     18464     18467     18458     18459     18459     18461     18459     18460
     18461     18462     18461     18463     18461     18473     18473     18474
     18473     18475     18473     18476     18476     18477     18476     18478
     18476     18479     18479     18480     18479     18481     18479     18482
     18482     18483     18482     18484     18482     18485     18485     18486
     18485     18487     18485     18488     18488     18489     18488     18490
     18488     18491     18491     18492     18491     18493     18493     18494
     18493     18495     18495     18496     18495     18497     18495     18498
     18498     18499     18498     18500     18498     18501     18501     18502
     18501     18503     18501     18504     18504     18505     18504     18506
     18504     18507     18507     18508     18507     18509     18507     18510
     18510     18511     18510     18512     18510     18513     18467     18468
     18468     18470     18468     18469     18470     18471     18470     18472
     18470     18514     18514     18515     18514     18516     18514     18517
     18517     18518     18517     18519     18517     18520     18520     18521
     18520     18522     18520     18523     18523     18524     18523     18525
     18523     18526     18526     18527     18526     18528     18526     18529
     18529     18530     18529     18531     18529     18532     18532     18533
     18532     18534     18532     18535     18535     18536     18535     18537
     18535     18538     18538     18539     18538     18540     18538     18541
     18541     18542     18541     18543     18541     18544     18544     18545
     18544     18546     18544     18547     18547     18548     18547     18549
     18547     18550     18550     18551     18550     18552     18550     18553
     18553     18554     18553     18555     18553     18556     18557     18558
     18557     18559     18557     18560     18557     18561     18561     18562
     18561     18563     18561     18564     18564     18565     18564     18566
     18564     18571     18571     18567     18567     18570     18567     18568
     18567     18569     18572     18573     18572     18574     18572     18575
     18572     18570     18575     18576     18575     18583     18575     18577
     18583     18584     18583     18585     18583     18586     18577     18578
     18578     18580     18578     18579     18580     18581     18580     18582
     18580     18592     18592     18593     18592     18594     18592     18595
     18595     18596     18595     18597     18595     18598     18598     18599
     18598     18600     18598     18601     18601     18602     18601     18603
     18601     18604     18604     18605     18604     18606     18604     18607
     18607     18608     18607     18609     18607     18610     18610     18611
     18610     18612     18612     18613     18612     18614     18614     18615
     18614     18616     18614     18617     18617     18618     18617     18619
     18617     18620     18620     18621     18620     18622     18620     18623
     18623     18624     18623     18625     18623     18626     18626     18627
     18626     18628     18626     18629     18629     18630     18629     18631
     18629     18632     18632     18633     18632     18634     18632     18635
     18635     18636     18635     18637     18635     18638     18586     18587
     18587     18589     18587     18588     18589     18590     18589     18591
     18589     18639     18639     18640     18639     18641     18639     18642
     18642     18643     18642     18644     18642     18645     18645     18646
     18645     18647     18645     18648     18648     18649     18648     18650
     18648     18651     18651     18652     18651     18653     18651     18654
     18654     18655     18654     18656     18654     18657     18657     18658
     18657     18659     18657     18660     18660     18661     18660     18662
     18660     18663     18663     18664     18663     18665     18663     18666
     18666     18667     18666     18668     18666     18669     18669     18670
     18669     18671     18669     18672     18672     18673     18672     18674
     18672     18675     18675     18676     18675     18677     18675     18678
     18678     18679     18678     18680     18678     18681     18682     18683
     18682     18684     18682     18685     18682     18686     18686     18687
     18686     18688     18686     18689     18689     18690     18689     18691
     18689     18696     18696     18692     18692     18695     18692     18693
     18692     18694     18697     18698     18697     18699     18697     18700
     18697     18695     18700     18701     18700     18708     18700     18702
     18708     18709     18708     18710     18708     18711     18702     18703
     18703     18705     18703     18704     18705     18706     18705     18707
     18705     18717     18717     18718     18717     18719     18717     18720
     18720     18721     18720     18722     18720     18723     18723     18724
     18723     18725     18723     18726     18726     18727     18726     18728
     18726     18729     18729     18730     18729     18731     18729     18732
     18732     18733     18732     18734     18732     18735     18735     18736
     18735     18740     18735     18737     18740     18741     18740     18742
     18740     18737     18742     18743     18742     18744     18742     18745
     18745     18746     18745     18747     18745     18748     18748     18749
     18748     18750     18748     18751     18751     18752     18751     18753
     18751     18754     18754     18755     18754     18756     18754     18757
     18757     18758     18757     18759     18757     18760     18737     18738
     18737     18739     18711     18712     18712     18714     18712     18713
     18714     18715     18714     18716     18714     18761     18761     18762
     18761     18763     18761     18764     18764     18765     18764     18766
     18764     18767     18767     18768     18767     18769     18767     18770
     18770     18771     18770     18772     18770     18773     18773     18774
     18773     18775     18773     18776     18776     18777     18776     18778
     18776     18779     18779     18780     18779     18781     18779     18782
     18782     18783     18782     18784     18782     18785     18785     18786
     18785     18787     18785     18788     18788     18789     18788     18790
     18788     18791     18791     18792     18791     18793     18791     18794
     18794     18795     18794     18796     18794     18797     18797     18798
     18797     18799     18797     18800     18800     18801     18800     18802
     18800     18803     18804     18805     18804     18806     18804     18807
     18804     18808     18808     18809     18808     18810     18808     18811
     18811     18812     18811     18813     18811     18818     18818     18814
     18814     18817     18814     18815     18814     18816     18819     18820
     18819     18821     18819     18822     18819     18817     18822     18823
     18822     18830     18822     18824     18830     18831     18830     18832
     18830     18833     18824     18825     18825     18827     18825     18826
     18827     18828     18827     18829     18827     18839     18839     18840
     18839     18841     18839     18842     18842     18843     18842     18844
     18842     18845     18845     18846     18845     18847     18845     18848
     18848     18849     18848     18850     18848     18851     18851     18852
     18851     18853     18851     18854     18854     18855     18854     18856
     18854     18857     18857     18858     18857     18862     18857     18859
     18862     18863     18862     18864     18862     18859     18864     18865
     18864     18866     18864     18867     18867     18868     18867     18869
     18867     18870     18870     18871     18870     18872     18870     18873
     18873     18874     18873     18875     18873     18876     18876     18877
     18876     18878     18876     18879     18879     18880     18879     18881
     18879     18882     18859     18860     18859     18861     18833     18834
     18834     18836     18834     18835     18836     18837     18836     18838
     18836     18883     18883     18884     18883     18885     18883     18886
     18886     18887     18886     18888     18886     18889     18889     18890
     18889     18891     18889     18892     18892     18893     18892     18894
     18892     18895     18895     18896     18895     18897     18895     18898
     18898     18899     18898     18900     18898     18901     18901     18902
     18901     18903     18901     18904     18904     18905     18904     18906
     18904     18907     18907     18908     18907     18909     18907     18910
     18910     18911     18910     18912     18910     18913     18913     18914
     18913     18915     18913     18916     18916     18917     18916     18918
     18916     18919     18919     18920     18919     18921     18919     18922
     18923     18924     18923     18925     18923     18926     18923     18927
     18927     18928     18927     18929     18927     18930     18930     18931
     18930     18932     18930     18937     18937     18933     18933     18936
     18933     18934     18933     18935     18938     18939     18938     18940
     18938     18941     18938     18936     18941     18942     18941     18949
     18941     18943     18949     18950     18949     18951     18949     18952
     18943     18944     18944     18946     18944     18945     18946     18947
     18946     18948     18946     18958     18958     18959     18958     18960
     18958     18961     18961     18962     18961     18963     18961     18964
     18964     18965     18964     18966     18964     18967     18967     18968
     18967     18969     18967     18970     18970     18971     18970     18972
     18970     18973     18973     18974     18973     18975     18973     18976
     18976     18977     18976     18981     18976     18978     18981     18982
     18981     18983     18981     18978     18983     18984     18983     18985
     18983     18986     18986     18987     18986     18988     18986     18989
     18989     18990     18989     18991     18989     18992     18992     18993
     18992     18994     18992     18995     18995     18996     18995     18997
     18995     18998     18998     18999     18998     19000     18998     19001
     18978     18979     18978     18980     18952     18953     18953     18955
     18953     18954     18955     18956     18955     18957     18955     19002
     19002     19003     19002     19004     19002     19005     19005     19006
     19005     19007     19005     19008     19008     19009     19008     19010
     19008     19011     19011     19012     19011     19013     19011     19014
     19014     19015     19014     19016     19014     19017     19017     19018
     19017     19019     19017     19020     19020     19021     19020     19022
     19020     19023     19023     19024     19023     19025     19023     19026
     19026     19027     19026     19028     19026     19029     19029     19030
     19029     19031     19029     19032     19032     19033     19032     19034
     19032     19035     19035     19036     19035     19037     19035     19038
     19038     19039     19038     19040     19038     19041     19041     19042
     19041     19043     19041     19044     19045     19046     19045     19047
     19045     19048     19045     19049     19049     19050     19049     19051
     19049     19052     19052     19053     19052     19054     19052     19059
     19059     19055     19055     19058     19055     19056     19055     19057
     19060     19061     19060     19062     19060     19063     19060     19058
     19063     19064     19063     19071     19063     19065     19071     19072
     19071     19073     19071     19074     19065     19066     19066     19068
     19066     19067     19068     19069     19068     19070     19068     19080
     19080     19081     19080     19082     19080     19083     19083     19084
     19083     19085     19083     19086     19086     19087     19086     19088
     19086     19089     19089     19090     19089     19091     19089     19092
     19092     19093     19092     19094     19092     19095     19095     19096
     19095     19097     19095     19098     19098     19099     19098     19103
     19098     19100     19103     19104     19103     19105     19103     19100
     19105     19106     19105     19107     19105     19108     19108     19109
     19108     19110     19108     19111     19111     19112     19111     19113
     19111     19114     19114     19115     19114     19116     19114     19117
     19117     19118     19117     19119     19117     19120     19120     19121
     19120     19122     19120     19123     19100     19101     19100     19102
     19074     19075     19075     19077     19075     19076     19077     19078
     19077     19079     19077     19124     19124     19125     19124     19126
     19124     19127     19127     19128     19127     19129     19127     19130
     19130     19131     19130     19132     19130     19133     19133     19134
     19133     19135     19133     19136     19136     19137     19136     19138
     19136     19139     19139     19140     19139     19141     19139     19142
     19142     19143     19142     19144     19142     19145     19145     19146
     19145     19147     19145     19148     19148     19149     19148     19150
     19148     19151     19151     19152     19151     19153     19151     19154
     19154     19155     19154     19156     19154     19157     19157     19158
     19157     19159     19157     19160     19160     19161     19160     19162
     19160     19163     19163     19164     19163     19165     19163     19166
     19171     19170     19170     19167     19167     19168     19167     19169
     19167     19172     19175     19174     19174     19172     19172     19173
     19172     19176     19176     19177     19176     19178     19176     19183
     19183     19179     19179     19182     19179     19180     19179     19181
     19184     19185     19184     19186     19184     19187     19184     19182
     19187     19188     19187     19195     19187     19189     19195     19196
     19195     19197     19195     19198     19189     19190     19190     19192
     19190     19191     19192     19193     19192     19194     19192     19204
     19204     19205     19204     19206     19204     19207     19207     19208
     19207     19209     19207     19210     19210     19211     19210     19212
     19210     19213     19213     19214     19213     19215     19213     19216
     19216     19217     19216     19218     19216     19219     19219     19220
     19219     19221     19219     19222     19222     19223     19222     19224
     19224     19225     19224     19226     19226     19227     19226     19228
     19226     19229     19229     19230     19229     19231     19229     19232
     19232     19233     19232     19234     19232     19235     19235     19236
     19235     19237     19235     19238     19238     19239     19238     19240
     19238     19241     19241     19242     19241     19243     19241     19244
     19198     19199     19199     19201     19199     19200     19201     19202
     19201     19203     19201     19245     19245     19246     19245     19247
     19245     19248     19248     19249     19248     19250     19248     19251
     19251     19252     19251     19253     19251     19254     19254     19255
     19254     19256     19254     19257     19257     19258     19257     19259
     19257     19260     19260     19261     19260     19262     19260     19263
     19263     19264     19263     19265     19263     19266     19266     19267
     19266     19268     19266     19269     19269     19270     19269     19271
     19269     19272     19272     19273     19272     19274     19272     19275
     19275     19276     19275     19277     19275     19278     19278     19279
     19278     19280     19278     19281     19281     19282     19281     19283
     19281     19284     19284     19285     19284     19286     19284     19287
     19288     19289     19288     19290     19288     19291     19288     19292
     19292     19293     19292     19294     19292     19295     19295     19296
     19295     19297     19295     19302     19302     19298     19298     19301
     19298     19299     19298     19300     19303     19304     19303     19305
     19303     19306     19303     19301     19306     19307     19306     19314
     19306     19308     19314     19315     19314     19316     19314     19317
     19308     19309     19309     19311     19309     19310     19311     19312
     19311     19313     19311     19323     19323     19324     19323     19325
     19323     19326     19326     19327     19326     19328     19326     19329
     19329     19330     19329     19331     19329     19332     19332     19333
     19332     19334     19332     19335     19335     19336     19335     19337
     19335     19338     19338     19339     19338     19340     19338     19341
     19341     19342     19341     19346     19341     19343     19346     19347
     19346     19348     19346     19343     19348     19349     19348     19350
     19348     19351     19351     19352     19351     19353     19351     19354
     19354     19355     19354     19356     19354     19357     19357     19358
     19357     19359     19357     19360     19360     19361     19360     19362
     19360     19363     19363     19364     19363     19365     19363     19366
     19343     19344     19343     19345     19317     19318     19318     19320
     19318     19319     19320     19321     19320     19322     19320     19367
     19367     19368     19367     19369     19367     19370     19370     19371
     19370     19372     19370     19373     19373     19374     19373     19375
     19373     19376     19376     19377     19376     19378     19376     19379
     19379     19380     19379     19381     19379     19382     19382     19383
     19382     19384     19382     19385     19385     19386     19385     19387
     19385     19388     19388     19389     19388     19390     19388     19391
     19391     19392     19391     19393     19391     19394     19394     19395
     19394     19396     19394     19397     19397     19398     19397     19399
     19397     19400     19400     19401     19400     19402     19400     19403
     19403     19404     19403     19405     19403     19406     19406     19407
     19406     19408     19406     19409     19410     19411     19410     19412
     19410     19413     19410     19414     19414     19415     19414     19416
     19414     19417     19417     19418     19417     19419     19417     19424
     19424     19420     19420     19423     19420     19421     19420     19422
     19425     19426     19425     19427     19425     19428     19425     19423
     19428     19429     19428     19436     19428     19430     19436     19437
     19436     19438     19436     19439     19430     19431     19431     19433
     19431     19432     19433     19434     19433     19435     19433     19445
     19445     19446     19445     19447     19445     19448     19448     19449
     19448     19450     19448     19451     19451     19452     19451     19453
     19451     19454     19454     19455     19454     19456     19454     19457
     19457     19458     19457     19459     19457     19460     19460     19461
     19460     19462     19460     19463     19463     19464     19463     19468
     19463     19465     19468     19469     19468     19470     19468     19465
     19470     19471     19470     19472     19470     19473     19473     19474
     19473     19475     19473     19476     19476     19477     19476     19478
     19476     19479     19479     19480     19479     19481     19479     19482
     19482     19483     19482     19484     19482     19485     19485     19486
     19485     19487     19485     19488     19465     19466     19465     19467
     19439     19440     19440     19442     19440     19441     19442     19443
     19442     19444     19442     19489     19489     19490     19489     19491
     19489     19492     19492     19493     19492     19494     19492     19495
     19495     19496     19495     19497     19495     19498     19498     19499
     19498     19500     19498     19501     19501     19502     19501     19503
     19501     19504     19504     19505     19504     19506     19504     19507
     19507     19508     19507     19509     19507     19510     19510     19511
     19510     19512     19510     19513     19513     19514     19513     19515
     19513     19516     19516     19517     19516     19518     19516     19519
     19519     19520     19519     19521     19519     19522     19522     19523
     19522     19524     19522     19525     19525     19526     19525     19527
     19525     19528     19528     19529     19528     19530     19528     19531
     19532     19533     19532     19534     19532     19535     19532     19536
     19536     19537     19536     19538     19536     19539     19539     19540
     19539     19541     19539     19546     19546     19542     19542     19545
     19542     19543     19542     19544     19547     19548     19547     19549
     19547     19550     19547     19545     19550     19551     19550     19558
     19550     19552     19558     19559     19558     19560     19558     19561
     19552     19553     19553     19555     19553     19554     19555     19556
     19555     19557     19555     19567     19567     19568     19567     19569
     19567     19570     19570     19571     19570     19572     19570     19573
     19573     19574     19573     19575     19573     19576     19576     19577
     19576     19578     19576     19579     19579     19580     19579     19581
     19579     19582     19582     19583     19582     19584     19582     19585
     19585     19586     19585     19590     19585     19587     19590     19591
     19590     19592     19590     19587     19592     19593     19592     19594
     19592     19595     19595     19596     19595     19597     19595     19598
     19598     19599     19598     19600     19598     19601     19601     19602
     19601     19603     19601     19604     19604     19605     19604     19606
     19604     19607     19607     19608     19607     19609     19607     19610
     19587     19588     19587     19589     19561     19562     19562     19564
     19562     19563     19564     19565     19564     19566     19564     19611
     19611     19612     19611     19613     19611     19614     19614     19615
     19614     19616     19614     19617     19617     19618     19617     19619
     19617     19620     19620     19621     19620     19622     19620     19623
     19623     19624     19623     19625     19623     19626     19626     19627
     19626     19628     19626     19629     19629     19630     19629     19631
     19629     19632     19632     19633     19632     19634     19632     19635
     19635     19636     19635     19637     19635     19638     19638     19639
     19638     19640     19638     19641     19641     19642     19641     19643
     19641     19644     19644     19645     19644     19646     19644     19647
     19647     19648     19647     19649     19647     19650     19650     19651
     19650     19652     19650     19653     19658     19657     19657     19654
     19654     19655     19654     19656     19654     19659     19662     19661
     19661     19659     19659     19660     19659     19663     19663     19664
     19663     19665     19663     19670     19670     19666     19666     19669
     19666     19667     19666     19668     19671     19672     19671     19673
     19671     19674     19671     19669     19674     19675     19674     19682
     19674     19676     19682     19683     19682     19684     19682     19685
     19676     19677     19677     19679     19677     19678     19679     19680
     19679     19681     19679     19691     19691     19692     19691     19693
     19691     19694     19694     19695     19694     19696     19694     19697
     19697     19698     19697     19699     19697     19700     19700     19701
     19700     19702     19700     19703     19703     19704     19703     19705
     19703     19706     19706     19707     19706     19708     19706     19709
     19709     19710     19709     19714     19709     19711     19714     19715
     19714     19716     19714     19711     19716     19717     19716     19718
     19716     19719     19719     19720     19719     19721     19719     19722
     19722     19723     19722     19724     19722     19725     19725     19726
     19725     19727     19725     19728     19728     19729     19728     19730
     19728     19731     19731     19732     19731     19733     19731     19734
     19711     19712     19711     19713     19685     19686     19686     19688
     19686     19687     19688     19689     19688     19690     19688     19735
     19735     19736     19735     19737     19735     19738     19738     19739
     19738     19740     19738     19741     19741     19742     19741     19743
     19741     19744     19744     19745     19744     19746     19744     19747
     19747     19748     19747     19749     19747     19750     19750     19751
     19750     19752     19750     19753     19753     19754     19753     19755
     19753     19756     19756     19757     19756     19758     19756     19759
     19759     19760     19759     19761     19759     19762     19762     19763
     19762     19764     19762     19765     19765     19766     19765     19767
     19765     19768     19768     19769     19768     19770     19768     19771
     19771     19772     19771     19773     19771     19774     19774     19775
     19774     19776     19774     19777     19778     19779     19778     19780
     19778     19781     19778     19782     19782     19783     19782     19784
     19782     19785     19785     19786     19785     19787     19785     19792
     19792     19788     19788     19791     19788     19789     19788     19790
     19793     19794     19793     19795     19793     19796     19793     19791
     19796     19797     19796     19804     19796     19798     19804     19805
     19804     19806     19804     19807     19798     19799     19799     19801
     19799     19800     19801     19802     19801     19803     19801     19813
     19813     19814     19813     19815     19813     19816     19816     19817
     19816     19818     19816     19819     19819     19820     19819     19821
     19819     19822     19822     19823     19822     19824     19822     19825
     19825     19826     19825     19827     19825     19828     19828     19829
     19828     19830     19828     19831     19831     19832     19831     19833
     19833     19834     19833     19835     19835     19836     19835     19837
     19835     19838     19838     19839     19838     19840     19838     19841
     19841     19842     19841     19843     19841     19844     19844     19845
     19844     19846     19844     19847     19847     19848     19847     19849
     19847     19850     19850     19851     19850     19852     19850     19853
     19807     19808     19808     19810     19808     19809     19810     19811
     19810     19812     19810     19854     19854     19855     19854     19856
     19854     19857     19857     19858     19857     19859     19857     19860
     19860     19861     19860     19862     19860     19863     19863     19864
     19863     19865     19863     19866     19866     19867     19866     19868
     19866     19869     19869     19870     19869     19871     19869     19872
     19872     19873     19872     19874     19874     19875     19874     19876
     19876     19877     19876     19878     19876     19879     19879     19880
     19879     19881     19879     19882     19882     19883     19882     19884
     19882     19885     19885     19886     19885     19887     19885     19888
     19888     19889     19888     19890     19888     19891     19891     19892
     19891     19893     19891     19894     19894     19895     19894     19896
     19894     19897     19897     19898     19897     19899     19897     19900
     19901     19902     19901     19903     19901     19904     19901     19905
     19905     19906     19905     19907     19905     19908     19908     19909
     19908     19910     19908     19915     19915     19911     19911     19914
     19911     19912     19911     19913     19916     19917     19916     19918
     19916     19919     19916     19914     19919     19920     19919     19927
     19919     19921     19927     19928     19927     19929     19927     19930
     19921     19922     19922     19924     19922     19923     19924     19925
     19924     19926     19924     19936     19936     19937     19936     19938
     19936     19939     19939     19940     19939     19941     19939     19942
     19942     19943     19942     19944     19942     19945     19945     19946
     19945     19947     19945     19948     19948     19949     19948     19950
     19948     19951     19951     19952     19951     19953     19951     19954
     19954     19955     19954     19959     19954     19956     19959     19960
     19959     19961     19959     19956     19961     19962     19961     19963
     19961     19964     19964     19965     19964     19966     19964     19967
     19967     19968     19967     19969     19967     19970     19970     19971
     19970     19972     19970     19973     19973     19974     19973     19975
     19973     19976     19976     19977     19976     19978     19976     19979
     19956     19957     19956     19958     19930     19931     19931     19933
     19931     19932     19933     19934     19933     19935     19933     19980
     19980     19981     19980     19982     19980     19983     19983     19984
     19983     19985     19983     19986     19986     19987     19986     19988
     19986     19989     19989     19990     19989     19991     19989     19992
     19992     19993     19992     19994     19992     19995     19995     19996
     19995     19997     19995     19998     19998     19999     19998     20000
     19998     20001     20001     20002     20001     20003     20001     20004
     20004     20005     20004     20006     20004     20007     20007     20008
     20007     20009     20007     20010     20010     20011     20010     20012
     20010     20013     20013     20014     20013     20015     20013     20016
     20016     20017     20016     20018     20016     20019     20019     20020
     20019     20021     20019     20022     20023     20024     20023     20025
     20023     20026     20023     20027     20027     20028     20027     20029
     20027     20030     20030     20031     20030     20032     20030     20037
     20037     20033     20033     20036     20033     20034     20033     20035
     20038     20039     20038     20040     20038     20041     20038     20036
     20041     20042     20041     20049     20041     20043     20049     20050
     20049     20051     20049     20052     20043     20044     20044     20046
     20044     20045     20046     20047     20046     20048     20046     20058
     20058     20059     20058     20060     20058     20061     20061     20062
     20061     20063     20061     20064     20064     20065     20064     20066
     20064     20067     20067     20068     20067     20069     20067     20070
     20070     20071     20070     20072     20070     20073     20073     20074
     20073     20075     20073     20076     20076     20077     20076     20081
     20076     20078     20081     20082     20081     20083     20081     20078
     20083     20084     20083     20085     20083     20086     20086     20087
     20086     20088     20086     20089     20089     20090     20089     20091
     20089     20092     20092     20093     20092     20094     20092     20095
     20095     20096     20095     20097     20095     20098     20098     20099
     20098     20100     20098     20101     20078     20079     20078     20080
     20052     20053     20053     20055     20053     20054     20055     20056
     20055     20057     20055     20102     20102     20103     20102     20104
     20102     20105     20105     20106     20105     20107     20105     20108
     20108     20109     20108     20110     20108     20111     20111     20112
     20111     20113     20111     20114     20114     20115     20114     20116
     20114     20117     20117     20118     20117     20119     20117     20120
     20120     20121     20120     20122     20120     20123     20123     20124
     20123     20125     20123     20126     20126     20127     20126     20128
     20126     20129     20129     20130     20129     20131     20129     20132
     20132     20133     20132     20134     20132     20135     20135     20136
     20135     20137     20135     20138     20138     20139     20138     20140
     20138     20141     20146     20145     20145     20142     20142     20143
     20142     20144     20142     20147     20150     20149     20149     20147
     20147     20148     20147     20151     20151     20152     20151     20153
     20151     20158     20158     20154     20154     20157     20154     20155
     20154     20156     20159     20160     20159     20161     20159     20162
     20159     20157     20162     20163     20162     20170     20162     20164
     20170     20171     20170     20172     20170     20173     20164     20165
     20165     20167     20165     20166     20167     20168     20167     20169
     20167     20179     20179     20180     20179     20181     20179     20182
     20182     20183     20182     20184     20182     20185     20185     20186
     20185     20187     20185     20188     20188     20189     20188     20190
     20188     20191     20191     20192     20191     20193     20191     20194
     20194     20195     20194     20196     20194     20197     20197     20198
     20197     20199     20199     20200     20199     20201     20201     20202
     20201     20203     20201     20204     20204     20205     20204     20206
     20204     20207     20207     20208     20207     20209     20207     20210
     20210     20211     20210     20212     20210     20213     20213     20214
     20213     20215     20213     20216     20216     20217     20216     20218
     20216     20219     20173     20174     20174     20176     20174     20175
     20176     20177     20176     20178     20176     20220     20220     20221
     20220     20222     20220     20223     20223     20224     20223     20225
     20223     20226     20226     20227     20226     20228     20226     20229
     20229     20230     20229     20231     20229     20232     20232     20233
     20232     20234     20232     20235     20235     20236     20235     20237
     20235     20238     20238     20239     20238     20240     20238     20241
     20241     20242     20241     20243     20241     20244     20244     20245
     20244     20246     20244     20247     20247     20248     20247     20249
     20247     20250     20250     20251     20250     20252     20250     20253
     20253     20254     20253     20255     20253     20256     20256     20257
     20256     20258     20256     20259     20259     20260     20259     20261
     20259     20262     20267     20266     20266     20263     20263     20264
     20263     20265     20263     20268     20271     20270     20270     20268
     20268     20269     20268     20272     20272     20273     20272     20274
     20272     20279     20279     20275     20275     20278     20275     20276
     20275     20277     20280     20281     20280     20282     20280     20283
     20280     20278     20283     20284     20283     20291     20283     20285
     20291     20292     20291     20293     20291     20294     20285     20286
     20286     20288     20286     20287     20288     20289     20288     20290
     20288     20300     20300     20301     20300     20302     20300     20303
     20303     20304     20303     20305     20303     20306     20306     20307
     20306     20308     20306     20309     20309     20310     20309     20311
     20309     20312     20312     20313     20312     20314     20312     20315
     20315     20316     20315     20317     20315     20318     20318     20319
     20318     20323     20318     20320     20323     20324     20323     20325
     20323     20320     20325     20326     20325     20327     20325     20328
     20328     20329     20328     20330     20328     20331     20331     20332
     20331     20333     20331     20334     20334     20335     20334     20336
     20334     20337     20337     20338     20337     20339     20337     20340
     20340     20341     20340     20342     20340     20343     20320     20321
     20320     20322     20294     20295     20295     20297     20295     20296
     20297     20298     20297     20299     20297     20344     20344     20345
     20344     20346     20344     20347     20347     20348     20347     20349
     20347     20350     20350     20351     20350     20352     20350     20353
     20353     20354     20353     20355     20353     20356     20356     20357
     20356     20358     20356     20359     20359     20360     20359     20361
     20359     20362     20362     20363     20362     20364     20362     20365
     20365     20366     20365     20367     20365     20368     20368     20369
     20368     20370     20368     20371     20371     20372     20371     20373
     20371     20374     20374     20375     20374     20376     20374     20377
     20377     20378     20377     20379     20377     20380     20380     20381
     20380     20382     20380     20383     20383     20384     20383     20385
     20383     20386     20387     20388     20387     20389     20387     20390
     20387     20391     20391     20392     20391     20393     20391     20394
     20394     20395     20394     20396     20394     20401     20401     20397
     20397     20400     20397     20398     20397     20399     20402     20403
     20402     20404     20402     20405     20402     20400     20405     20406
     20405     20413     20405     20407     20413     20414     20413     20415
     20413     20416     20407     20408     20408     20410     20408     20409
     20410     20411     20410     20412     20410     20422     20422     20423
     20422     20424     20422     20425     20425     20426     20425     20427
     20425     20428     20428     20429     20428     20430     20428     20431
     20431     20432     20431     20433     20431     20434     20434     20435
     20434     20436     20434     20437     20437     20438     20437     20439
     20437     20440     20440     20441     20440     20442     20442     20443
     20442     20444     20444     20445     20444     20446     20444     20447
     20447     20448     20447     20449     20447     20450     20450     20451
     20450     20452     20450     20453     20453     20454     20453     20455
     20453     20456     20456     20457     20456     20458     20456     20459
     20459     20460     20459     20461     20459     20462     20416     20417
     20417     20419     20417     20418     20419     20420     20419     20421
     20419     20463     20463     20464     20463     20465     20463     20466
     20466     20467     20466     20468     20466     20469     20469     20470
     20469     20471     20469     20472     20472     20473     20472     20474
     20472     20475     20475     20476     20475     20477     20475     20478
     20478     20479     20478     20480     20478     20481     20481     20482
     20481     20483     20483     20484     20483     20485     20485     20486
     20485     20487     20485     20488     20488     20489     20488     20490
     20488     20491     20491     20492     20491     20493     20491     20494
     20494     20495     20494     20496     20494     20497     20497     20498
     20497     20499     20497     20500     20500     20501     20500     20502
     20500     20503     20503     20504     20503     20505     20503     20506
     20506     20507     20506     20508     20506     20509     20510     20511
     20510     20512     20510     20513     20510     20514     20514     20515
     20514     20516     20514     20517     20517     20518     20517     20519
     20517     20524     20524     20520     20520     20523     20520     20521
     20520     20522     20525     20526     20525     20527     20525     20528
     20525     20523     20528     20529     20528     20536     20528     20530
     20536     20537     20536     20538     20536     20539     20530     20531
     20531     20533     20531     20532     20533     20534     20533     20535
     20533     20545     20545     20546     20545     20547     20545     20548
     20548     20549     20548     20550     20548     20551     20551     20552
     20551     20553     20551     20554     20554     20555     20554     20556
     20554     20557     20557     20558     20557     20559     20557     20560
     20560     20561     20560     20562     20560     20563     20563     20564
     20563     20568     20563     20565     20568     20569     20568     20570
     20568     20565     20570     20571     20570     20572     20570     20573
     20573     20574     20573     20575     20573     20576     20576     20577
     20576     20578     20576     20579     20579     20580     20579     20581
     20579     20582     20582     20583     20582     20584     20582     20585
     20585     20586     20585     20587     20585     20588     20565     20566
     20565     20567     20539     20540     20540     20542     20540     20541
     20542     20543     20542     20544     20542     20589     20589     20590
     20589     20591     20589     20592     20592     20593     20592     20594
     20592     20595     20595     20596     20595     20597     20595     20598
     20598     20599     20598     20600     20598     20601     20601     20602
     20601     20603     20601     20604     20604     20605     20604     20606
     20604     20607     20607     20608     20607     20609     20607     20610
     20610     20611     20610     20612     20610     20613     20613     20614
     20613     20615     20613     20616     20616     20617     20616     20618
     20616     20619     20619     20620     20619     20621     20619     20622
     20622     20623     20622     20624     20622     20625     20625     20626
     20625     20627     20625     20628     20628     20629     20628     20630
     20628     20631     20632     20633     20632     20634     20632     20635
     20632     20636     20636     20637     20636     20638     20636     20639
     20639     20640     20639     20641     20639     20646     20646     20642
     20642     20645     20642     20643     20642     20644     20647     20648
     20647     20649     20647     20650     20647     20645     20650     20651
     20650     20658     20650     20652     20658     20659     20658     20660
     20658     20661     20652     20653     20653     20655     20653     20654
     20655     20656     20655     20657     20655     20667     20667     20668
     20667     20669     20667     20670     20670     20671     20670     20672
     20670     20673     20673     20674     20673     20675     20673     20676
     20676     20677     20676     20678     20676     20679     20679     20680
     20679     20681     20679     20682     20682     20683     20682     20684
     20682     20685     20685     20686     20685     20690     20685     20687
     20690     20691     20690     20692     20690     20687     20692     20693
     20692     20694     20692     20695     20695     20696     20695     20697
     20695     20698     20698     20699     20698     20700     20698     20701
     20701     20702     20701     20703     20701     20704     20704     20705
     20704     20706     20704     20707     20707     20708     20707     20709
     20707     20710     20687     20688     20687     20689     20661     20662
     20662     20664     20662     20663     20664     20665     20664     20666
     20664     20711     20711     20712     20711     20713     20711     20714
     20714     20715     20714     20716     20714     20717     20717     20718
     20717     20719     20717     20720     20720     20721     20720     20722
     20720     20723     20723     20724     20723     20725     20723     20726
     20726     20727     20726     20728     20726     20729     20729     20730
     20729     20731     20729     20732     20732     20733     20732     20734
     20732     20735     20735     20736     20735     20737     20735     20738
     20738     20739     20738     20740     20738     20741     20741     20742
     20741     20743     20741     20744     20744     20745     20744     20746
     20744     20747     20747     20748     20747     20749     20747     20750
     20750     20751     20750     20752     20750     20753     20754     20755
     20754     20756     20754     20757     20754     20758     20758     20759
     20758     20760     20758     20761     20761     20762     20761     20763
     20761     20768     20768     20764     20764     20767     20764     20765
     20764     20766     20769     20770     20769     20771     20769     20772
     20769     20767     20772     20773     20772     20780     20772     20774
     20780     20781     20780     20782     20780     20783     20774     20775
     20775     20777     20775     20776     20777     20778     20777     20779
     20777     20789     20789     20790     20789     20791     20789     20792
     20792     20793     20792     20794     20792     20795     20795     20796
     20795     20797     20795     20798     20798     20799     20798     20800
     20798     20801     20801     20802     20801     20803     20801     20804
     20804     20805     20804     20806     20804     20807     20807     20808
     20807     20812     20807     20809     20812     20813     20812     20814
     20812     20809     20814     20815     20814     20816     20814     20817
     20817     20818     20817     20819     20817     20820     20820     20821
     20820     20822     20820     20823     20823     20824     20823     20825
     20823     20826     20826     20827     20826     20828     20826     20829
     20829     20830     20829     20831     20829     20832     20809     20810
     20809     20811     20783     20784     20784     20786     20784     20785
     20786     20787     20786     20788     20786     20833     20833     20834
     20833     20835     20833     20836     20836     20837     20836     20838
     20836     20839     20839     20840     20839     20841     20839     20842
     20842     20843     20842     20844     20842     20845     20845     20846
     20845     20847     20845     20848     20848     20849     20848     20850
     20848     20851     20851     20852     20851     20853     20851     20854
     20854     20855     20854     20856     20854     20857     20857     20858
     20857     20859     20857     20860     20860     20861     20860     20862
     20860     20863     20863     20864     20863     20865     20863     20866
     20866     20867     20866     20868     20866     20869     20869     20870
     20869     20871     20869     20872     20872     20873     20872     20874
     20872     20875     20876     20877     20876     20878     20876     20879
     20876     20880     20880     20881     20880     20882     20880     20883
     20883     20884     20883     20885     20883     20890     20890     20886
     20886     20889     20886     20887     20886     20888     20891     20892
     20891     20893     20891     20894     20891     20889     20894     20895
     20894     20902     20894     20896     20902     20903     20902     20904
     20902     20905     20896     20897     20897     20899     20897     20898
     20899     20900     20899     20901     20899     20911     20911     20912
     20911     20913     20911     20914     20914     20915     20914     20916
     20914     20917     20917     20918     20917     20919     20917     20920
     20920     20921     20920     20922     20920     20923     20923     20924
     20923     20925     20923     20926     20926     20927     20926     20928
     20926     20929     20929     20930     20929     20931     20931     20932
     20931     20933     20933     20934     20933     20935     20933     20936
     20936     20937     20936     20938     20936     20939     20939     20940
     20939     20941     20939     20942     20942     20943     20942     20944
     20942     20945     20945     20946     20945     20947     20945     20948
     20948     20949     20948     20950     20948     20951     20951     20952
     20951     20953     20951     20954     20954     20955     20954     20956
     20954     20957     20905     20906     20906     20908     20906     20907
     20908     20909     20908     20910     20908     20958     20958     20959
     20958     20960     20958     20961     20961     20962     20961     20963
     20961     20964     20964     20965     20964     20966     20964     20967
     20967     20968     20967     20969     20967     20970     20970     20971
     20970     20972     20970     20973     20973     20974     20973     20975
     20973     20976     20976     20977     20976     20978     20976     20979
     20979     20980     20979     20981     20979     20982     20982     20983
     20982     20984     20982     20985     20985     20986     20985     20987
     20985     20988     20988     20989     20988     20990     20988     20991
     20991     20992     20991     20993     20991     20994     20994     20995
     20994     20996     20994     20997     20997     20998     20997     20999
     20997     21000     21001     21002     21001     21003     21001     21004
     21001     21005     21005     21006     21005     21007     21005     21008
     21008     21009     21008     21010     21008     21015     21015     21011
     21011     21014     21011     21012     21011     21013     21016     21017
     21016     21018     21016     21019     21016     21014     21019     21020
     21019     21027     21019     21021     21027     21028     21027     21029
     21027     21030     21021     21022     21022     21024     21022     21023
     21024     21025     21024     21026     21024     21036     21036     21037
     21036     21038     21036     21039     21039     21040     21039     21041
     21039     21042     21042     21043     21042     21044     21042     21045
     21045     21046     21045     21047     21045     21048     21048     21049
     21048     21050     21048     21051     21051     21052     21051     21053
     21051     21054     21054     21055     21054     21056     21056     21057
     21056     21058     21058     21059     21058     21060     21058     21061
     21061     21062     21061     21063     21061     21064     21064     21065
     21064     21066     21064     21067     21067     21068     21067     21069
     21067     21070     21070     21071     21070     21072     21070     21073
     21073     21074     21073     21075     21073     21076     21076     21077
     21076     21078     21076     21079     21079     21080     21079     21081
     21079     21082     21030     21031     21031     21033     21031     21032
     21033     21034     21033     21035     21033     21083     21083     21084
     21083     21085     21083     21086     21086     21087     21086     21088
     21086     21089     21089     21090     21089     21091     21089     21092
     21092     21093     21092     21094     21092     21095     21095     21096
     21095     21097     21095     21098     21098     21099     21098     21100
     21098     21101     21101     21102     21101     21103     21101     21104
     21104     21105     21104     21106     21104     21107     21107     21108
     21107     21109     21107     21110     21110     21111     21110     21112
     21110     21113     21113     21114     21113     21115     21113     21116
     21116     21117     21116     21118     21116     21119     21119     21120
     21119     21121     21119     21122     21122     21123     21122     21124
     21122     21125     21130     21129     21129     21126     21126     21127
     21126     21128     21126     21131     21134     21133     21133     21131
     21131     21132     21131     21135     21135     21136     21135     21137
     21135     21142     21142     21138     21138     21141     21138     21139
     21138     21140     21143     21144     21143     21145     21143     21146
     21143     21141     21146     21147     21146     21154     21146     21148
     21154     21155     21154     21156     21154     21157     21148     21149
     21149     21151     21149     21150     21151     21152     21151     21153
     21151     21163     21163     21164     21163     21165     21163     21166
     21166     21167     21166     21168     21166     21169     21169     21170
     21169     21171     21169     21172     21172     21173     21172     21174
     21172     21175     21175     21176     21175     21177     21175     21178
     21178     21179     21178     21180     21178     21181     21181     21182
     21181     21183     21183     21184     21183     21185     21185     21186
     21185     21187     21185     21188     21188     21189     21188     21190
     21188     21191     21191     21192     21191     21193     21191     21194
     21194     21195     21194     21196     21194     21197     21197     21198
     21197     21199     21197     21200     21200     21201     21200     21202
     21200     21203     21157     21158     21158     21160     21158     21159
     21160     21161     21160     21162     21160     21204     21204     21205
     21204     21206     21204     21207     21207     21208     21207     21209
     21207     21210     21210     21211     21210     21212     21210     21213
     21213     21214     21213     21215     21213     21216     21216     21217
     21216     21218     21216     21219     21219     21220     21219     21221
     21219     21222     21222     21223     21222     21224     21222     21225
     21225     21226     21225     21227     21225     21228     21228     21229
     21228     21230     21228     21231     21231     21232     21231     21233
     21231     21234     21234     21235     21234     21236     21234     21237
     21237     21238     21237     21239     21237     21240     21240     21241
     21240     21242     21240     21243     21243     21244     21243     21245
     21243     21246     21247     21248     21247     21249     21247     21250
     21247     21251     21251     21252     21251     21253     21251     21254
     21254     21255     21254     21256     21254     21261     21261     21257
     21257     21260     21257     21258     21257     21259     21262     21263
     21262     21264     21262     21265     21262     21260     21265     21266
     21265     21273     21265     21267     21273     21274     21273     21275
     21273     21276     21267     21268     21268     21270     21268     21269
     21270     21271     21270     21272     21270     21282     21282     21283
     21282     21284     21282     21285     21285     21286     21285     21287
     21285     21288     21288     21289     21288     21290     21288     21291
     21291     21292     21291     21293     21291     21294     21294     21295
     21294     21296     21294     21297     21297     21298     21297     21299
     21297     21300     21300     21301     21300     21305     21300     21302
     21305     21306     21305     21307     21305     21302     21307     21308
     21307     21309     21307     21310     21310     21311     21310     21312
     21310     21313     21313     21314     21313     21315     21313     21316
     21316     21317     21316     21318     21316     21319     21319     21320
     21319     21321     21319     21322     21322     21323     21322     21324
     21322     21325     21302     21303     21302     21304     21276     21277
     21277     21279     21277     21278     21279     21280     21279     21281
     21279     21326     21326     21327     21326     21328     21326     21329
     21329     21330     21329     21331     21329     21332     21332     21333
     21332     21334     21332     21335     21335     21336     21335     21337
     21335     21338     21338     21339     21338     21340     21338     21341
     21341     21342     21341     21343     21341     21344     21344     21345
     21344     21346     21344     21347     21347     21348     21347     21349
     21347     21350     21350     21351     21350     21352     21350     21353
     21353     21354     21353     21355     21353     21356     21356     21357
     21356     21358     21356     21359     21359     21360     21359     21361
     21359     21362     21362     21363     21362     21364     21362     21365
     21365     21366     21365     21367     21365     21368     21369     21370
     21369     21371     21369     21372     21369     21373     21373     21374
     21373     21375     21373     21376     21376     21377     21376     21378
     21376     21383     21383     21379     21379     21382     21379     21380
     21379     21381     21384     21385     21384     21386     21384     21387
     21384     21382     21387     21388     21387     21395     21387     21389
     21395     21396     21395     21397     21395     21398     21389     21390
     21390     21392     21390     21391     21392     21393     21392     21394
     21392     21404     21404     21405     21404     21406     21404     21407
     21407     21408     21407     21409     21407     21410     21410     21411
     21410     21412     21410     21413     21413     21414     21413     21415
     21413     21416     21416     21417     21416     21418     21416     21419
     21419     21420     21419     21421     21419     21422     21422     21423
     21422     21427     21422     21424     21427     21428     21427     21429
     21427     21424     21429     21430     21429     21431     21429     21432
     21432     21433     21432     21434     21432     21435     21435     21436
     21435     21437     21435     21438     21438     21439     21438     21440
     21438     21441     21441     21442     21441     21443     21441     21444
     21444     21445     21444     21446     21444     21447     21424     21425
     21424     21426     21398     21399     21399     21401     21399     21400
     21401     21402     21401     21403     21401     21448     21448     21449
     21448     21450     21448     21451     21451     21452     21451     21453
     21451     21454     21454     21455     21454     21456     21454     21457
     21457     21458     21457     21459     21457     21460     21460     21461
     21460     21462     21460     21463     21463     21464     21463     21465
     21463     21466     21466     21467     21466     21468     21466     21469
     21469     21470     21469     21471     21469     21472     21472     21473
     21472     21474     21472     21475     21475     21476     21475     21477
     21475     21478     21478     21479     21478     21480     21478     21481
     21481     21482     21481     21483     21481     21484     21484     21485
     21484     21486     21484     21487     21487     21488     21487     21489
     21487     21490     21491     21492     21491     21493     21491     21494
     21491     21495     21495     21496     21495     21497     21495     21498
     21498     21499     21498     21500     21498     21505     21505     21501
     21501     21504     21501     21502     21501     21503     21506     21507
     21506     21508     21506     21509     21506     21504     21509     21510
     21509     21517     21509     21511     21517     21518     21517     21519
     21517     21520     21511     21512     21512     21514     21512     21513
     21514     21515     21514     21516     21514     21526     21526     21527
     21526     21528     21526     21529     21529     21530     21529     21531
     21529     21532     21532     21533     21532     21534     21532     21535
     21535     21536     21535     21537     21535     21538     21538     21539
     21538     21540     21538     21541     21541     21542     21541     21543
     21541     21544     21544     21545     21544     21546     21546     21547
     21546     21548     21548     21549     21548     21550     21548     21551
     21551     21552     21551     21553     21551     21554     21554     21555
     21554     21556     21554     21557     21557     21558     21557     21559
     21557     21560     21560     21561     21560     21562     21560     21563
     21563     21564     21563     21565     21563     21566     21566     21567
     21566     21568     21566     21569     21569     21570     21569     21571
     21569     21572     21520     21521     21521     21523     21521     21522
     21523     21524     21523     21525     21523     21573     21573     21574
     21573     21575     21573     21576     21576     21577     21576     21578
     21576     21579     21579     21580     21579     21581     21579     21582
     21582     21583     21582     21584     21582     21585     21585     21586
     21585     21587     21585     21588     21588     21589     21588     21590
     21588     21591     21591     21592     21591     21593     21591     21594
     21594     21595     21594     21596     21594     21597     21597     21598
     21597     21599     21597     21600     21600     21601     21600     21602
     21600     21603     21603     21604     21603     21605     21603     21606
     21606     21607     21606     21608     21606     21609     21609     21610
     21609     21611     21609     21612     21612     21613     21612     21614
     21612     21615     21616     21617     21616     21618     21616     21619
     21616     21620     21620     21621     21620     21622     21620     21623
     21623     21624     21623     21625     21623     21630     21630     21626
     21626     21629     21626     21627     21626     21628     21631     21632
     21631     21633     21631     21634     21631     21629     21634     21635
     21634     21642     21634     21636     21642     21643     21642     21644
     21642     21645     21636     21637     21637     21639     21637     21638
     21639     21640     21639     21641     21639     21651     21651     21652
     21651     21653     21651     21654     21654     21655     21654     21656
     21654     21657     21657     21658     21657     21659     21657     21660
     21660     21661     21660     21662     21660     21663     21663     21664
     21663     21665     21663     21666     21666     21667     21666     21668
     21666     21669     21669     21670     21669     21671     21671     21672
     21671     21673     21673     21674     21673     21675     21673     21676
     21676     21677     21676     21678     21676     21679     21679     21680
     21679     21681     21679     21682     21682     21683     21682     21684
     21682     21685     21685     21686     21685     21687     21685     21688
     21688     21689     21688     21690     21688     21691     21691     21692
     21691     21693     21691     21694     21694     21695     21694     21696
     21694     21697     21645     21646     21646     21648     21646     21647
     21648     21649     21648     21650     21648     21698     21698     21699
     21698     21700     21698     21701     21701     21702     21701     21703
     21701     21704     21704     21705     21704     21706     21704     21707
     21707     21708     21707     21709     21707     21710     21710     21711
     21710     21712     21710     21713     21713     21714     21713     21715
     21713     21716     21716     21717     21716     21718     21716     21719
     21719     21720     21719     21721     21719     21722     21722     21723
     21722     21724     21722     21725     21725     21726     21725     21727
     21725     21728     21728     21729     21728     21730     21728     21731
     21731     21732     21731     21733     21731     21734     21734     21735
     21734     21736     21734     21737     21737     21738     21737     21739
     21737     21740     21741     21742     21741     21743     21741     21744
     21741     21745     21745     21746     21745     21747     21745     21748
     21748     21749     21748     21750     21748     21755     21755     21751
     21751     21754     21751     21752     21751     21753     21756     21757
     21756     21758     21756     21759     21756     21754     21759     21760
     21759     21767     21759     21761     21767     21768     21767     21769
     21767     21770     21761     21762     21762     21764     21762     21763
     21764     21765     21764     21766     21764     21776     21776     21777
     21776     21778     21776     21779     21779     21780     21779     21781
     21779     21782     21782     21783     21782     21784     21782     21785
     21785     21786     21785     21787     21785     21788     21788     21789
     21788     21790     21788     21791     21791     21792     21791     21793
     21791     21794     21794     21795     21794     21799     21794     21796
     21799     21800     21799     21801     21799     21796     21801     21802
     21801     21803     21801     21804     21804     21805     21804     21806
     21804     21807     21807     21808     21807     21809     21807     21810
     21810     21811     21810     21812     21810     21813     21813     21814
     21813     21815     21813     21816     21816     21817     21816     21818
     21816     21819     21796     21797     21796     21798     21770     21771
     21771     21773     21771     21772     21773     21774     21773     21775
     21773     21820     21820     21821     21820     21822     21820     21823
     21823     21824     21823     21825     21823     21826     21826     21827
     21826     21828     21826     21829     21829     21830     21829     21831
     21829     21832     21832     21833     21832     21834     21832     21835
     21835     21836     21835     21837     21835     21838     21838     21839
     21838     21840     21838     21841     21841     21842     21841     21843
     21841     21844     21844     21845     21844     21846     21844     21847
     21847     21848     21847     21849     21847     21850     21850     21851
     21850     21852     21850     21853     21853     21854     21853     21855
     21853     21856     21856     21857     21856     21858     21856     21859
     21859     21860     21859     21861     21859     21862     21863     21864
     21863     21865     21863     21866     21863     21867     21867     21868
     21867     21869     21867     21870     21870     21871     21870     21872
     21870     21877     21877     21873     21873     21876     21873     21874
     21873     21875     21878     21879     21878     21880     21878     21881
     21878     21876     21881     21882     21881     21889     21881     21883
     21889     21890     21889     21891     21889     21892     21883     21884
     21884     21886     21884     21885     21886     21887     21886     21888
     21886     21898     21898     21899     21898     21900     21898     21901
     21901     21902     21901     21903     21901     21904     21904     21905
     21904     21906     21904     21907     21907     21908     21907     21909
     21907     21910     21910     21911     21910     21912     21910     21913
     21913     21914     21913     21915     21913     21916     21916     21917
     21916     21918     21918     21919     21918     21920     21920     21921
     21920     21922     21920     21923     21923     21924     21923     21925
     21923     21926     21926     21927     21926     21928     21926     21929
     21929     21930     21929     21931     21929     21932     21932     21933
     21932     21934     21932     21935     21935     21936     21935     21937
     21935     21938     21892     21893     21893     21895     21893     21894
     21895     21896     21895     21897     21895     21939     21939     21940
     21939     21941     21939     21942     21942     21943     21942     21944
     21942     21945     21945     21946     21945     21947     21945     21948
     21948     21949     21948     21950     21948     21951     21951     21952
     21951     21953     21951     21954     21954     21955     21954     21956
     21954     21957     21957     21958     21957     21959     21959     21960
     21959     21961     21961     21962     21961     21963     21961     21964
     21964     21965     21964     21966     21964     21967     21967     21968
     21967     21969     21967     21970     21970     21971     21970     21972
     21970     21973     21973     21974     21973     21975     21973     21976
     21976     21977     21976     21978     21976     21979     21979     21980
     21979     21981     21979     21982     21982     21983     21982     21984
     21982     21985     21990     21989     21989     21986     21986     21987
     21986     21988     21986     21991     21994     21993     21993     21991
     21991     21992     21991     21995     21995     21996     21995     21997
     21995     22002     22002     21998     21998     22001     21998     21999
     21998     22000     22003     22004     22003     22005     22003     22006
     22003     22001     22006     22007     22006     22014     22006     22008
     22014     22015     22014     22016     22014     22017     22008     22009
     22009     22011     22009     22010     22011     22012     22011     22013
     22011     22023     22023     22024     22023     22025     22023     22026
     22026     22027     22026     22028     22026     22029     22029     22030
     22029     22031     22029     22032     22032     22033     22032     22034
     22032     22035     22035     22036     22035     22037     22035     22038
     22038     22039     22038     22040     22038     22041     22041     22042
     22041     22046     22041     22043     22046     22047     22046     22048
     22046     22043     22048     22049     22048     22050     22048     22051
     22051     22052     22051     22053     22051     22054     22054     22055
     22054     22056     22054     22057     22057     22058     22057     22059
     22057     22060     22060     22061     22060     22062     22060     22063
     22063     22064     22063     22065     22063     22066     22043     22044
     22043     22045     22017     22018     22018     22020     22018     22019
     22020     22021     22020     22022     22020     22067     22067     22068
     22067     22069     22067     22070     22070     22071     22070     22072
     22070     22073     22073     22074     22073     22075     22073     22076
     22076     22077     22076     22078     22076     22079     22079     22080
     22079     22081     22079     22082     22082     22083     22082     22084
     22082     22085     22085     22086     22085     22087     22085     22088
     22088     22089     22088     22090     22088     22091     22091     22092
     22091     22093     22091     22094     22094     22095     22094     22096
     22094     22097     22097     22098     22097     22099     22097     22100
     22100     22101     22100     22102     22100     22103     22103     22104
     22103     22105     22103     22106     22106     22107     22106     22108
     22106     22109     22110     22111     22110     22112     22110     22113
     22110     22114     22114     22115     22114     22116     22114     22117
     22117     22118     22117     22119     22117     22124     22124     22120
     22120     22123     22120     22121     22120     22122     22125     22126
     22125     22127     22125     22128     22125     22123     22128     22129
     22128     22136     22128     22130     22136     22137     22136     22138
     22136     22139     22130     22131     22131     22133     22131     22132
     22133     22134     22133     22135     22133     22145     22145     22146
     22145     22147     22145     22148     22148     22149     22148     22150
     22148     22151     22151     22152     22151     22153     22151     22154
     22154     22155     22154     22156     22154     22157     22157     22158
     22157     22159     22157     22160     22160     22161     22160     22162
     22160     22163     22163     22164     22163     22168     22163     22165
     22168     22169     22168     22170     22168     22165     22170     22171
     22170     22172     22170     22173     22173     22174     22173     22175
     22173     22176     22176     22177     22176     22178     22176     22179
     22179     22180     22179     22181     22179     22182     22182     22183
     22182     22184     22182     22185     22185     22186     22185     22187
     22185     22188     22165     22166     22165     22167     22139     22140
     22140     22142     22140     22141     22142     22143     22142     22144
     22142     22189     22189     22190     22189     22191     22189     22192
     22192     22193     22192     22194     22192     22195     22195     22196
     22195     22197     22195     22198     22198     22199     22198     22200
     22198     22201     22201     22202     22201     22203     22201     22204
     22204     22205     22204     22206     22204     22207     22207     22208
     22207     22209     22207     22210     22210     22211     22210     22212
     22210     22213     22213     22214     22213     22215     22213     22216
     22216     22217     22216     22218     22216     22219     22219     22220
     22219     22221     22219     22222     22222     22223     22222     22224
     22222     22225     22225     22226     22225     22227     22225     22228
     22228     22229     22228     22230     22228     22231     22232     22233
     22232     22234     22232     22235     22232     22236     22236     22237
     22236     22238     22236     22239     22239     22240     22239     22241
     22239     22246     22246     22242     22242     22245     22242     22243
     22242     22244     22247     22248     22247     22249     22247     22250
     22247     22245     22250     22251     22250     22258     22250     22252
     22258     22259     22258     22260     22258     22261     22252     22253
     22253     22255     22253     22254     22255     22256     22255     22257
     22255     22267     22267     22268     22267     22269     22267     22270
     22270     22271     22270     22272     22270     22273     22273     22274
     22273     22275     22273     22276     22276     22277     22276     22278
     22276     22279     22279     22280     22279     22281     22279     22282
     22282     22283     22282     22284     22282     22285     22285     22286
     22285     22290     22285     22287     22290     22291     22290     22292
     22290     22287     22292     22293     22292     22294     22292     22295
     22295     22296     22295     22297     22295     22298     22298     22299
     22298     22300     22298     22301     22301     22302     22301     22303
     22301     22304     22304     22305     22304     22306     22304     22307
     22307     22308     22307     22309     22307     22310     22287     22288
     22287     22289     22261     22262     22262     22264     22262     22263
     22264     22265     22264     22266     22264     22311     22311     22312
     22311     22313     22311     22314     22314     22315     22314     22316
     22314     22317     22317     22318     22317     22319     22317     22320
     22320     22321     22320     22322     22320     22323     22323     22324
     22323     22325     22323     22326     22326     22327     22326     22328
     22326     22329     22329     22330     22329     22331     22329     22332
     22332     22333     22332     22334     22332     22335     22335     22336
     22335     22337     22335     22338     22338     22339     22338     22340
     22338     22341     22341     22342     22341     22343     22341     22344
     22344     22345     22344     22346     22344     22347     22347     22348
     22347     22349     22347     22350     22350     22351     22350     22352
     22350     22353     22358     22357     22357     22354     22354     22355
     22354     22356     22354     22359     22362     22361     22361     22359
     22359     22360     22359     22363     22363     22364     22363     22365
     22363     22370     22370     22366     22366     22369     22366     22367
     22366     22368     22371     22372     22371     22373     22371     22374
     22371     22369     22374     22375     22374     22382     22374     22376
     22382     22383     22382     22384     22382     22385     22376     22377
     22377     22379     22377     22378     22379     22380     22379     22381
     22379     22391     22391     22392     22391     22393     22391     22394
     22394     22395     22394     22396     22394     22397     22397     22398
     22397     22399     22397     22400     22400     22401     22400     22402
     22400     22403     22403     22404     22403     22405     22403     22406
     22406     22407     22406     22408     22406     22409     22409     22410
     22409     22411     22411     22412     22411     22413     22413     22414
     22413     22415     22413     22416     22416     22417     22416     22418
     22416     22419     22419     22420     22419     22421     22419     22422
     22422     22423     22422     22424     22422     22425     22425     22426
     22425     22427     22425     22428     22428     22429     22428     22430
     22428     22431     22385     22386     22386     22388     22386     22387
     22388     22389     22388     22390     22388     22432     22432     22433
     22432     22434     22432     22435     22435     22436     22435     22437
     22435     22438     22438     22439     22438     22440     22438     22441
     22441     22442     22441     22443     22441     22444     22444     22445
     22444     22446     22444     22447     22447     22448     22447     22449
     22447     22450     22450     22451     22450     22452     22450     22453
     22453     22454     22453     22455     22453     22456     22456     22457
     22456     22458     22456     22459     22459     22460     22459     22461
     22459     22462     22462     22463     22462     22464     22462     22465
     22465     22466     22465     22467     22465     22468     22468     22469
     22468     22470     22468     22471     22471     22472     22471     22473
     22471     22474     22475     22476     22475     22477     22475     22478
     22475     22479     22479     22480     22479     22481     22479     22482
     22482     22483     22482     22484     22482     22489     22489     22485
     22485     22488     22485     22486     22485     22487     22490     22491
     22490     22492     22490     22493     22490     22488     22493     22494
     22493     22501     22493     22495     22501     22502     22501     22503
     22501     22504     22495     22496     22496     22498     22496     22497
     22498     22499     22498     22500     22498     22510     22510     22511
     22510     22512     22510     22513     22513     22514     22513     22515
     22513     22516     22516     22517     22516     22518     22516     22519
     22519     22520     22519     22521     22519     22522     22522     22523
     22522     22524     22522     22525     22525     22526     22525     22527
     22525     22528     22528     22529     22528     22530     22530     22531
     22530     22532     22532     22533     22532     22534     22532     22535
     22535     22536     22535     22537     22535     22538     22538     22539
     22538     22540     22538     22541     22541     22542     22541     22543
     22541     22544     22544     22545     22544     22546     22544     22547
     22547     22548     22547     22549     22547     22550     22504     22505
     22505     22507     22505     22506     22507     22508     22507     22509
     22507     22551     22551     22552     22551     22553     22551     22554
     22554     22555     22554     22556     22554     22557     22557     22558
     22557     22559     22557     22560     22560     22561     22560     22562
     22560     22563     22563     22564     22563     22565     22563     22566
     22566     22567     22566     22568     22566     22569     22569     22570
     22569     22571     22571     22572     22571     22573     22573     22574
     22573     22575     22573     22576     22576     22577     22576     22578
     22576     22579     22579     22580     22579     22581     22579     22582
     22582     22583     22582     22584     22582     22585     22585     22586
     22585     22587     22585     22588     22588     22589     22588     22590
     22588     22591     22591     22592     22591     22593     22591     22594
     22594     22595     22594     22596     22594     22597     22598     22599
     22598     22600     22598     22601     22598     22602     22602     22603
     22602     22604     22602     22605     22605     22606     22605     22607
     22605     22612     22612     22608     22608     22611     22608     22609
     22608     22610     22613     22614     22613     22615     22613     22616
     22613     22611     22616     22617     22616     22624     22616     22618
     22624     22625     22624     22626     22624     22627     22618     22619
     22619     22621     22619     22620     22621     22622     22621     22623
     22621     22633     22633     22634     22633     22635     22633     22636
     22636     22637     22636     22638     22636     22639     22639     22640
     22639     22641     22639     22642     22642     22643     22642     22644
     22642     22645     22645     22646     22645     22647     22645     22648
     22648     22649     22648     22650     22648     22651     22651     22652
     22651     22656     22651     22653     22656     22657     22656     22658
     22656     22653     22658     22659     22658     22660     22658     22661
     22661     22662     22661     22663     22661     22664     22664     22665
     22664     22666     22664     22667     22667     22668     22667     22669
     22667     22670     22670     22671     22670     22672     22670     22673
     22673     22674     22673     22675     22673     22676     22653     22654
     22653     22655     22627     22628     22628     22630     22628     22629
     22630     22631     22630     22632     22630     22677     22677     22678
     22677     22679     22677     22680     22680     22681     22680     22682
     22680     22683     22683     22684     22683     22685     22683     22686
     22686     22687     22686     22688     22686     22689     22689     22690
     22689     22691     22689     22692     22692     22693     22692     22694
     22692     22695     22695     22696     22695     22697     22695     22698
     22698     22699     22698     22700     22698     22701     22701     22702
     22701     22703     22701     22704     22704     22705     22704     22706
     22704     22707     22707     22708     22707     22709     22707     22710
     22710     22711     22710     22712     22710     22713     22713     22714
     22713     22715     22713     22716     22716     22717     22716     22718
     22716     22719     22720     22721     22720     22722     22720     22723
     22720     22724     22724     22725     22724     22726     22724     22727
     22727     22728     22727     22729     22727     22734     22734     22730
     22730     22733     22730     22731     22730     22732     22735     22736
     22735     22737     22735     22738     22735     22733     22738     22739
     22738     22746     22738     22740     22746     22747     22746     22748
     22746     22749     22740     22741     22741     22743     22741     22742
     22743     22744     22743     22745     22743     22755     22755     22756
     22755     22757     22755     22758     22758     22759     22758     22760
     22758     22761     22761     22762     22761     22763     22761     22764
     22764     22765     22764     22766     22764     22767     22767     22768
     22767     22769     22767     22770     22770     22771     22770     22772
     22770     22773     22773     22774     22773     22778     22773     22775
     22778     22779     22778     22780     22778     22775     22780     22781
     22780     22782     22780     22783     22783     22784     22783     22785
     22783     22786     22786     22787     22786     22788     22786     22789
     22789     22790     22789     22791     22789     22792     22792     22793
     22792     22794     22792     22795     22795     22796     22795     22797
     22795     22798     22775     22776     22775     22777     22749     22750
     22750     22752     22750     22751     22752     22753     22752     22754
     22752     22799     22799     22800     22799     22801     22799     22802
     22802     22803     22802     22804     22802     22805     22805     22806
     22805     22807     22805     22808     22808     22809     22808     22810
     22808     22811     22811     22812     22811     22813     22811     22814
     22814     22815     22814     22816     22814     22817     22817     22818
     22817     22819     22817     22820     22820     22821     22820     22822
     22820     22823     22823     22824     22823     22825     22823     22826
     22826     22827     22826     22828     22826     22829     22829     22830
     22829     22831     22829     22832     22832     22833     22832     22834
     22832     22835     22835     22836     22835     22837     22835     22838
     22843     22842     22842     22839     22839     22840     22839     22841
     22839     22844     22847     22846     22846     22844     22844     22845
     22844     22848     22848     22849     22848     22850     22848     22855
     22855     22851     22851     22854     22851     22852     22851     22853
     22856     22857     22856     22858     22856     22859     22856     22854
     22859     22860     22859     22867     22859     22861     22867     22868
     22867     22869     22867     22870     22861     22862     22862     22864
     22862     22863     22864     22865     22864     22866     22864     22876
     22876     22877     22876     22878     22876     22879     22879     22880
     22879     22881     22879     22882     22882     22883     22882     22884
     22882     22885     22885     22886     22885     22887     22885     22888
     22888     22889     22888     22890     22888     22891     22891     22892
     22891     22893     22891     22894     22894     22895     22894     22899
     22894     22896     22899     22900     22899     22901     22899     22896
     22901     22902     22901     22903     22901     22904     22904     22905
     22904     22906     22904     22907     22907     22908     22907     22909
     22907     22910     22910     22911     22910     22912     22910     22913
     22913     22914     22913     22915     22913     22916     22916     22917
     22916     22918     22916     22919     22896     22897     22896     22898
     22870     22871     22871     22873     22871     22872     22873     22874
     22873     22875     22873     22920     22920     22921     22920     22922
     22920     22923     22923     22924     22923     22925     22923     22926
     22926     22927     22926     22928     22926     22929     22929     22930
     22929     22931     22929     22932     22932     22933     22932     22934
     22932     22935     22935     22936     22935     22937     22935     22938
     22938     22939     22938     22940     22938     22941     22941     22942
     22941     22943     22941     22944     22944     22945     22944     22946
     22944     22947     22947     22948     22947     22949     22947     22950
     22950     22951     22950     22952     22950     22953     22953     22954
     22953     22955     22953     22956     22956     22957     22956     22958
     22956     22959     22959     22960     22959     22961     22959     22962
     22963     22964     22963     22965     22963     22966     22963     22967
     22967     22968     22967     22969     22967     22970     22970     22971
     22970     22972     22970     22977     22977     22973     22973     22976
     22973     22974     22973     22975     22978     22979     22978     22980
     22978     22981     22978     22976     22981     22982     22981     22989
     22981     22983     22989     22990     22989     22991     22989     22992
     22983     22984     22984     22986     22984     22985     22986     22987
     22986     22988     22986     22998     22998     22999     22998     23000
     22998     23001     23001     23002     23001     23003     23001     23004
     23004     23005     23004     23006     23004     23007     23007     23008
     23007     23009     23007     23010     23010     23011     23010     23012
     23010     23013     23013     23014     23013     23015     23013     23016
     23016     23017     23016     23021     23016     23018     23021     23022
     23021     23023     23021     23018     23023     23024     23023     23025
     23023     23026     23026     23027     23026     23028     23026     23029
     23029     23030     23029     23031     23029     23032     23032     23033
     23032     23034     23032     23035     23035     23036     23035     23037
     23035     23038     23038     23039     23038     23040     23038     23041
     23018     23019     23018     23020     22992     22993     22993     22995
     22993     22994     22995     22996     22995     22997     22995     23042
     23042     23043     23042     23044     23042     23045     23045     23046
     23045     23047     23045     23048     23048     23049     23048     23050
     23048     23051     23051     23052     23051     23053     23051     23054
     23054     23055     23054     23056     23054     23057     23057     23058
     23057     23059     23057     23060     23060     23061     23060     23062
     23060     23063     23063     23064     23063     23065     23063     23066
     23066     23067     23066     23068     23066     23069     23069     23070
     23069     23071     23069     23072     23072     23073     23072     23074
     23072     23075     23075     23076     23075     23077     23075     23078
     23078     23079     23078     23080     23078     23081     23081     23082
     23081     23083     23081     23084     23085     23086     23085     23087
     23085     23088     23085     23089     23089     23090     23089     23091
     23089     23092     23092     23093     23092     23094     23092     23099
     23099     23095     23095     23098     23095     23096     23095     23097
     23100     23101     23100     23102     23100     23103     23100     23098
     23103     23104     23103     23111     23103     23105     23111     23112
     23111     23113     23111     23114     23105     23106     23106     23108
     23106     23107     23108     23109     23108     23110     23108     23120
     23120     23121     23120     23122     23120     23123     23123     23124
     23123     23125     23123     23126     23126     23127     23126     23128
     23126     23129     23129     23130     23129     23131     23129     23132
     23132     23133     23132     23134     23132     23135     23135     23136
     23135     23137     23135     23138     23138     23139     23138     23140
     23140     23141     23140     23142     23142     23143     23142     23144
     23142     23145     23145     23146     23145     23147     23145     23148
     23148     23149     23148     23150     23148     23151     23151     23152
     23151     23153     23151     23154     23154     23155     23154     23156
     23154     23157     23157     23158     23157     23159     23157     23160
     23160     23161     23160     23162     23160     23163     23163     23164
     23163     23165     23163     23166     23114     23115     23115     23117
     23115     23116     23117     23118     23117     23119     23117     23167
     23167     23168     23167     23169     23167     23170     23170     23171
     23170     23172     23170     23173     23173     23174     23173     23175
     23173     23176     23176     23177     23176     23178     23176     23179
     23179     23180     23179     23181     23179     23182     23182     23183
     23182     23184     23182     23185     23185     23186     23185     23187
     23185     23188     23188     23189     23188     23190     23188     23191
     23191     23192     23191     23193     23191     23194     23194     23195
     23194     23196     23194     23197     23197     23198     23197     23199
     23197     23200     23200     23201     23200     23202     23200     23203
     23203     23204     23203     23205     23203     23206     23206     23207
     23206     23208     23206     23209     23210     23211     23210     23212
     23210     23213     23210     23214     23214     23215     23214     23216
     23214     23217     23217     23218     23217     23219     23217     23224
     23224     23220     23220     23223     23220     23221     23220     23222
     23225     23226     23225     23227     23225     23228     23225     23223
     23228     23229     23228     23236     23228     23230     23236     23237
     23236     23238     23236     23239     23230     23231     23231     23233
     23231     23232     23233     23234     23233     23235     23233     23245
     23245     23246     23245     23247     23245     23248     23248     23249
     23248     23250     23248     23251     23251     23252     23251     23253
     23251     23254     23254     23255     23254     23256     23254     23257
     23257     23258     23257     23259     23257     23260     23260     23261
     23260     23262     23260     23263     23263     23264     23263     23268
     23263     23265     23268     23269     23268     23270     23268     23265
     23270     23271     23270     23272     23270     23273     23273     23274
     23273     23275     23273     23276     23276     23277     23276     23278
     23276     23279     23279     23280     23279     23281     23279     23282
     23282     23283     23282     23284     23282     23285     23285     23286
     23285     23287     23285     23288     23265     23266     23265     23267
     23239     23240     23240     23242     23240     23241     23242     23243
     23242     23244     23242     23289     23289     23290     23289     23291
     23289     23292     23292     23293     23292     23294     23292     23295
     23295     23296     23295     23297     23295     23298     23298     23299
     23298     23300     23298     23301     23301     23302     23301     23303
     23301     23304     23304     23305     23304     23306     23304     23307
     23307     23308     23307     23309     23307     23310     23310     23311
     23310     23312     23310     23313     23313     23314     23313     23315
     23313     23316     23316     23317     23316     23318     23316     23319
     23319     23320     23319     23321     23319     23322     23322     23323
     23322     23324     23322     23325     23325     23326     23325     23327
     23325     23328     23328     23329     23328     23330     23328     23331
     23332     23333     23332     23334     23332     23335     23332     23336
     23336     23337     23336     23338     23336     23339     23339     23340
     23339     23341     23339     23346     23346     23342     23342     23345
     23342     23343     23342     23344     23347     23348     23347     23349
     23347     23350     23347     23345     23350     23351     23350     23358
     23350     23352     23358     23359     23358     23360     23358     23361
     23352     23353     23353     23355     23353     23354     23355     23356
     23355     23357     23355     23367     23367     23368     23367     23369
     23367     23370     23370     23371     23370     23372     23370     23373
     23373     23374     23373     23375     23373     23376     23376     23377
     23376     23378     23376     23379     23379     23380     23379     23381
     23379     23382     23382     23383     23382     23384     23382     23385
     23385     23386     23385     23390     23385     23387     23390     23391
     23390     23392     23390     23387     23392     23393     23392     23394
     23392     23395     23395     23396     23395     23397     23395     23398
     23398     23399     23398     23400     23398     23401     23401     23402
     23401     23403     23401     23404     23404     23405     23404     23406
     23404     23407     23407     23408     23407     23409     23407     23410
     23387     23388     23387     23389     23361     23362     23362     23364
     23362     23363     23364     23365     23364     23366     23364     23411
     23411     23412     23411     23413     23411     23414     23414     23415
     23414     23416     23414     23417     23417     23418     23417     23419
     23417     23420     23420     23421     23420     23422     23420     23423
     23423     23424     23423     23425     23423     23426     23426     23427
     23426     23428     23426     23429     23429     23430     23429     23431
     23429     23432     23432     23433     23432     23434     23432     23435
     23435     23436     23435     23437     23435     23438     23438     23439
     23438     23440     23438     23441     23441     23442     23441     23443
     23441     23444     23444     23445     23444     23446     23444     23447
     23447     23448     23447     23449     23447     23450     23450     23451
     23450     23452     23450     23453     23454     23455     23454     23456
     23454     23457     23454     23458     23458     23459     23458     23460
     23458     23461     23461     23462     23461     23463     23461     23468
     23468     23464     23464     23467     23464     23465     23464     23466
     23469     23470     23469     23471     23469     23472     23469     23467
     23472     23473     23472     23480     23472     23474     23480     23481
     23480     23482     23480     23483     23474     23475     23475     23477
     23475     23476     23477     23478     23477     23479     23477     23489
     23489     23490     23489     23491     23489     23492     23492     23493
     23492     23494     23492     23495     23495     23496     23495     23497
     23495     23498     23498     23499     23498     23500     23498     23501
     23501     23502     23501     23503     23501     23504     23504     23505
     23504     23506     23504     23507     23507     23508     23507     23512
     23507     23509     23512     23513     23512     23514     23512     23509
     23514     23515     23514     23516     23514     23517     23517     23518
     23517     23519     23517     23520     23520     23521     23520     23522
     23520     23523     23523     23524     23523     23525     23523     23526
     23526     23527     23526     23528     23526     23529     23529     23530
     23529     23531     23529     23532     23509     23510     23509     23511
     23483     23484     23484     23486     23484     23485     23486     23487
     23486     23488     23486     23533     23533     23534     23533     23535
     23533     23536     23536     23537     23536     23538     23536     23539
     23539     23540     23539     23541     23539     23542     23542     23543
     23542     23544     23542     23545     23545     23546     23545     23547
     23545     23548     23548     23549     23548     23550     23548     23551
     23551     23552     23551     23553     23551     23554     23554     23555
     23554     23556     23554     23557     23557     23558     23557     23559
     23557     23560     23560     23561     23560     23562     23560     23563
     23563     23564     23563     23565     23563     23566     23566     23567
     23566     23568     23566     23569     23569     23570     23569     23571
     23569     23572     23572     23573     23572     23574     23572     23575
     23576     23577     23576     23578     23576     23579     23576     23580
     23580     23581     23580     23582     23580     23583     23583     23584
     23583     23585     23583     23590     23590     23586     23586     23589
     23586     23587     23586     23588     23591     23592     23591     23593
     23591     23594     23591     23589     23594     23595     23594     23602
     23594     23596     23602     23603     23602     23604     23602     23605
     23596     23597     23597     23599     23597     23598     23599     23600
     23599     23601     23599     23611     23611     23612     23611     23613
     23611     23614     23614     23615     23614     23616     23614     23617
     23617     23618     23617     23619     23617     23620     23620     23621
     23620     23622     23620     23623     23623     23624     23623     23625
     23623     23626     23626     23627     23626     23628     23626     23629
     23629     23630     23629     23631     23631     23632     23631     23633
     23633     23634     23633     23635     23633     23636     23636     23637
     23636     23638     23636     23639     23639     23640     23639     23641
     23639     23642     23642     23643     23642     23644     23642     23645
     23645     23646     23645     23647     23645     23648     23648     23649
     23648     23650     23648     23651     23651     23652     23651     23653
     23651     23654     23654     23655     23654     23656     23654     23657
     23605     23606     23606     23608     23606     23607     23608     23609
     23608     23610     23608     23658     23658     23659     23658     23660
     23658     23661     23661     23662     23661     23663     23661     23664
     23664     23665     23664     23666     23664     23667     23667     23668
     23667     23669     23667     23670     23670     23671     23670     23672
     23670     23673     23673     23674     23673     23675     23673     23676
     23676     23677     23676     23678     23676     23679     23679     23680
     23679     23681     23679     23682     23682     23683     23682     23684
     23682     23685     23685     23686     23685     23687     23685     23688
     23688     23689     23688     23690     23688     23691     23691     23692
     23691     23693     23691     23694     23694     23695     23694     23696
     23694     23697     23697     23698     23697     23699     23697     23700
     23705     23704     23704     23701     23701     23702     23701     23703
     23701     23706     23709     23708     23708     23706     23706     23707
     23706     23710     23710     23711     23710     23712     23710     23717
     23717     23713     23713     23716     23713     23714     23713     23715
     23718     23719     23718     23720     23718     23721     23718     23716
     23721     23722     23721     23729     23721     23723     23729     23730
     23729     23731     23729     23732     23723     23724     23724     23726
     23724     23725     23726     23727     23726     23728     23726     23738
     23738     23739     23738     23740     23738     23741     23741     23742
     23741     23743     23741     23744     23744     23745     23744     23746
     23744     23747     23747     23748     23747     23749     23747     23750
     23750     23751     23750     23752     23750     23753     23753     23754
     23753     23755     23753     23756     23756     23757     23756     23758
     23758     23759     23758     23760     23760     23761     23760     23762
     23760     23763     23763     23764     23763     23765     23763     23766
     23766     23767     23766     23768     23766     23769     23769     23770
     23769     23771     23769     23772     23772     23773     23772     23774
     23772     23775     23775     23776     23775     23777     23775     23778
     23732     23733     23733     23735     23733     23734     23735     23736
     23735     23737     23735     23779     23779     23780     23779     23781
     23779     23782     23782     23783     23782     23784     23782     23785
     23785     23786     23785     23787     23785     23788     23788     23789
     23788     23790     23788     23791     23791     23792     23791     23793
     23791     23794     23794     23795     23794     23796     23794     23797
     23797     23798     23797     23799     23797     23800     23800     23801
     23800     23802     23800     23803     23803     23804     23803     23805
     23803     23806     23806     23807     23806     23808     23806     23809
     23809     23810     23809     23811     23809     23812     23812     23813
     23812     23814     23812     23815     23815     23816     23815     23817
     23815     23818     23818     23819     23818     23820     23818     23821
     23822     23823     23822     23824     23822     23825     23822     23826
     23826     23827     23826     23828     23826     23829     23829     23830
     23829     23831     23829     23836     23836     23832     23832     23835
     23832     23833     23832     23834     23837     23838     23837     23839
     23837     23840     23837     23835     23840     23841     23840     23848
     23840     23842     23848     23849     23848     23850     23848     23851
     23842     23843     23843     23845     23843     23844     23845     23846
     23845     23847     23845     23857     23857     23858     23857     23859
     23857     23860     23860     23861     23860     23862     23860     23863
     23863     23864     23863     23865     23863     23866     23866     23867
     23866     23868     23866     23869     23869     23870     23869     23871
     23869     23872     23872     23873     23872     23874     23872     23875
     23875     23876     23875     23880     23875     23877     23880     23881
     23880     23882     23880     23877     23882     23883     23882     23884
     23882     23885     23885     23886     23885     23887     23885     23888
     23888     23889     23888     23890     23888     23891     23891     23892
     23891     23893     23891     23894     23894     23895     23894     23896
     23894     23897     23897     23898     23897     23899     23897     23900
     23877     23878     23877     23879     23851     23852     23852     23854
     23852     23853     23854     23855     23854     23856     23854     23901
     23901     23902     23901     23903     23901     23904     23904     23905
     23904     23906     23904     23907     23907     23908     23907     23909
     23907     23910     23910     23911     23910     23912     23910     23913
     23913     23914     23913     23915     23913     23916     23916     23917
     23916     23918     23916     23919     23919     23920     23919     23921
     23919     23922     23922     23923     23922     23924     23922     23925
     23925     23926     23925     23927     23925     23928     23928     23929
     23928     23930     23928     23931     23931     23932     23931     23933
     23931     23934     23934     23935     23934     23936     23934     23937
     23937     23938     23937     23939     23937     23940     23941     23942
     23941     23943     23941     23944     23941     23945     23945     23946
     23945     23947     23945     23948     23948     23949     23948     23950
     23948     23955     23955     23951     23951     23954     23951     23952
     23951     23953     23956     23957     23956     23958     23956     23959
     23956     23954     23959     23960     23959     23967     23959     23961
     23967     23968     23967     23969     23967     23970     23961     23962
     23962     23964     23962     23963     23964     23965     23964     23966
     23964     23976     23976     23977     23976     23978     23976     23979
     23979     23980     23979     23981     23979     23982     23982     23983
     23982     23984     23982     23985     23985     23986     23985     23987
     23985     23988     23988     23989     23988     23990     23988     23991
     23991     23992     23991     23993     23991     23994     23994     23995
     23994     23999     23994     23996     23999     24000     23999     24001
     23999     23996     24001     24002     24001     24003     24001     24004
     24004     24005     24004     24006     24004     24007     24007     24008
     24007     24009     24007     24010     24010     24011     24010     24012
     24010     24013     24013     24014     24013     24015     24013     24016
     24016     24017     24016     24018     24016     24019     23996     23997
     23996     23998     23970     23971     23971     23973     23971     23972
     23973     23974     23973     23975     23973     24020     24020     24021
     24020     24022     24020     24023     24023     24024     24023     24025
     24023     24026     24026     24027     24026     24028     24026     24029
     24029     24030     24029     24031     24029     24032     24032     24033
     24032     24034     24032     24035     24035     24036     24035     24037
     24035     24038     24038     24039     24038     24040     24038     24041
     24041     24042     24041     24043     24041     24044     24044     24045
     24044     24046     24044     24047     24047     24048     24047     24049
     24047     24050     24050     24051     24050     24052     24050     24053
     24053     24054     24053     24055     24053     24056     24056     24057
     24056     24058     24056     24059     24059     24060     24059     24061
     24059     24062     24063     24064     24063     24065     24063     24066
     24063     24067     24067     24068     24067     24069     24067     24070
     24070     24071     24070     24072     24070     24077     24077     24073
     24073     24076     24073     24074     24073     24075     24078     24079
     24078     24080     24078     24081     24078     24076     24081     24082
     24081     24089     24081     24083     24089     24090     24089     24091
     24089     24092     24083     24084     24084     24086     24084     24085
     24086     24087     24086     24088     24086     24098     24098     24099
     24098     24100     24098     24101     24101     24102     24101     24103
     24101     24104     24104     24105     24104     24106     24104     24107
     24107     24108     24107     24109     24107     24110     24110     24111
     24110     24112     24110     24113     24113     24114     24113     24115
     24113     24116     24116     24117     24116     24118     24118     24119
     24118     24120     24120     24121     24120     24122     24120     24123
     24123     24124     24123     24125     24123     24126     24126     24127
     24126     24128     24126     24129     24129     24130     24129     24131
     24129     24132     24132     24133     24132     24134     24132     24135
     24135     24136     24135     24137     24135     24138     24138     24139
     24138     24140     24138     24141     24141     24142     24141     24143
     24141     24144     24092     24093     24093     24095     24093     24094
     24095     24096     24095     24097     24095     24145     24145     24146
     24145     24147     24145     24148     24148     24149     24148     24150
     24148     24151     24151     24152     24151     24153     24151     24154
     24154     24155     24154     24156     24154     24157     24157     24158
     24157     24159     24157     24160     24160     24161     24160     24162
     24160     24163     24163     24164     24163     24165     24163     24166
     24166     24167     24166     24168     24166     24169     24169     24170
     24169     24171     24169     24172     24172     24173     24172     24174
     24172     24175     24175     24176     24175     24177     24175     24178
     24178     24179     24178     24180     24178     24181     24181     24182
     24181     24183     24181     24184     24184     24185     24184     24186
     24184     24187     24203     24199     24203     24204     24203     24205
     24199     24201     24199     24200     24201     24202     24199     24188
     24188     24189     24188     24190     24203     24209     24188     24194
     24206     24209     24206     24210     24206     24207     24206     24208
     24191     24194     24191     24195     24191     24192     24191     24193
     24210     24211     24211     24212     24211     24213     24211     24214
     24214     24215     24214     24216     24214     24222     24222     24223
     24222     24224     24222     24225     24195     24196     24196     24197
     24196     24198     24196     24231     24231     24232     24231     24233
     24231     24239     24239     24240     24239     24241     24239     24242
     24216     24217     24225     24226     24233     24234     24242     24243
     24217     24218     24217     24219     24219     24220     24219     24221
     24219     24248     24248     24249     24248     24250     24248     24251
     24251     24252     24251     24253     24251     24254     24254     24255
     24254     24256     24254     24257     24257     24258     24257     24259
     24257     24260     24260     24261     24260     24262     24260     24263
     24263     24264     24263     24265     24263     24266     24266     24267
     24266     24268     24266     24269     24269     24270     24269     24271
     24269     24272     24272     24273     24272     24274     24274     24275
     24274     24276     24276     24277     24276     24278     24276     24279
     24279     24280     24279     24281     24279     24282     24282     24283
     24282     24284     24282     24285     24285     24286     24285     24287
     24285     24288     24288     24289     24288     24290     24288     24291
     24291     24292     24291     24293     24291     24294     24226     24227
     24226     24228     24228     24229     24228     24230     24228     24295
     24295     24296     24295     24297     24295     24298     24298     24299
     24298     24300     24298     24301     24301     24302     24301     24303
     24301     24304     24304     24305     24304     24306     24304     24307
     24307     24308     24307     24309     24307     24310     24310     24311
     24310     24312     24310     24313     24313     24314     24313     24315
     24313     24316     24316     24317     24316     24318     24316     24319
     24319     24320     24319     24321     24319     24322     24322     24323
     24322     24324     24322     24325     24325     24326     24325     24327
     24325     24328     24328     24329     24328     24330     24328     24331
     24331     24332     24331     24333     24331     24334     24334     24335
     24334     24336     24334     24337     24234     24235     24234     24236
     24236     24237     24236     24238     24236     24338     24338     24339
     24338     24340     24338     24341     24341     24342     24341     24343
     24341     24344     24344     24345     24344     24346     24344     24347
     24347     24348     24347     24349     24347     24350     24350     24351
     24350     24352     24350     24353     24353     24354     24353     24355
     24353     24356     24356     24357     24356     24358     24356     24359
     24359     24360     24359     24361     24359     24362     24362     24363
     24362     24364     24364     24365     24364     24366     24366     24367
     24366     24368     24366     24369     24369     24370     24369     24371
     24369     24372     24372     24373     24372     24374     24372     24375
     24375     24376     24375     24377     24375     24378     24378     24379
     24378     24380     24378     24381     24381     24382     24381     24383
     24381     24384     24243     24244     24243     24245     24245     24246
     24245     24247     24245     24385     24385     24386     24385     24387
     24385     24388     24388     24389     24388     24390     24388     24391
     24391     24392     24391     24393     24391     24394     24394     24395
     24394     24396     24394     24397     24397     24398     24397     24399
     24397     24400     24400     24401     24400     24402     24400     24403
     24403     24404     24403     24405     24403     24406     24406     24407
     24406     24408     24406     24409     24409     24410     24409     24411
     24409     24412     24412     24413     24412     24414     24412     24415
     24415     24416     24415     24417     24415     24418     24418     24419
     24418     24420     24418     24421     24421     24422     24421     24423
     24421     24424     24424     24425     24424     24426     24424     24427
     24432     24431     24431     24428     24428     24429     24428     24430
     24428     24433     24436     24435     24435     24433     24433     24434
     24433     24437     24437     24438     24437     24439     24437     24444
     24444     24440     24440     24443     24440     24441     24440     24442
     24445     24446     24445     24447     24445     24448     24445     24443
     24448     24449     24448     24456     24448     24450     24456     24457
     24456     24458     24456     24459     24450     24451     24451     24453
     24451     24452     24453     24454     24453     24455     24453     24465
     24465     24466     24465     24467     24465     24468     24468     24469
     24468     24470     24468     24471     24471     24472     24471     24473
     24471     24474     24474     24475     24474     24476     24474     24477
     24477     24478     24477     24479     24477     24480     24480     24481
     24480     24482     24480     24483     24483     24484     24483     24488
     24483     24485     24488     24489     24488     24490     24488     24485
     24490     24491     24490     24492     24490     24493     24493     24494
     24493     24495     24493     24496     24496     24497     24496     24498
     24496     24499     24499     24500     24499     24501     24499     24502
     24502     24503     24502     24504     24502     24505     24505     24506
     24505     24507     24505     24508     24485     24486     24485     24487
     24459     24460     24460     24462     24460     24461     24462     24463
     24462     24464     24462     24509     24509     24510     24509     24511
     24509     24512     24512     24513     24512     24514     24512     24515
     24515     24516     24515     24517     24515     24518     24518     24519
     24518     24520     24518     24521     24521     24522     24521     24523
     24521     24524     24524     24525     24524     24526     24524     24527
     24527     24528     24527     24529     24527     24530     24530     24531
     24530     24532     24530     24533     24533     24534     24533     24535
     24533     24536     24536     24537     24536     24538     24536     24539
     24539     24540     24539     24541     24539     24542     24542     24543
     24542     24544     24542     24545     24545     24546     24545     24547
     24545     24548     24548     24549     24548     24550     24548     24551
     24552     24553     24552     24554     24552     24555     24552     24556
     24556     24557     24556     24558     24556     24559     24559     24560
     24559     24561     24559     24566     24566     24562     24562     24565
     24562     24563     24562     24564     24567     24568     24567     24569
     24567     24570     24567     24565     24570     24571     24570     24578
     24570     24572     24578     24579     24578     24580     24578     24581
     24572     24573     24573     24575     24573     24574     24575     24576
     24575     24577     24575     24587     24587     24588     24587     24589
     24587     24590     24590     24591     24590     24592     24590     24593
     24593     24594     24593     24595     24593     24596     24596     24597
     24596     24598     24596     24599     24599     24600     24599     24601
     24599     24602     24602     24603     24602     24604     24602     24605
     24605     24606     24605     24610     24605     24607     24610     24611
     24610     24612     24610     24607     24612     24613     24612     24614
     24612     24615     24615     24616     24615     24617     24615     24618
     24618     24619     24618     24620     24618     24621     24621     24622
     24621     24623     24621     24624     24624     24625     24624     24626
     24624     24627     24627     24628     24627     24629     24627     24630
     24607     24608     24607     24609     24581     24582     24582     24584
     24582     24583     24584     24585     24584     24586     24584     24631
     24631     24632     24631     24633     24631     24634     24634     24635
     24634     24636     24634     24637     24637     24638     24637     24639
     24637     24640     24640     24641     24640     24642     24640     24643
     24643     24644     24643     24645     24643     24646     24646     24647
     24646     24648     24646     24649     24649     24650     24649     24651
     24649     24652     24652     24653     24652     24654     24652     24655
     24655     24656     24655     24657     24655     24658     24658     24659
     24658     24660     24658     24661     24661     24662     24661     24663
     24661     24664     24664     24665     24664     24666     24664     24667
     24667     24668     24667     24669     24667     24670     24670     24671
     24670     24672     24670     24673     24674     24675     24674     24676
     24674     24677     24674     24678     24678     24679     24678     24680
     24678     24681     24681     24682     24681     24683     24681     24688
     24688     24684     24684     24687     24684     24685     24684     24686
     24689     24690     24689     24691     24689     24692     24689     24687
     24692     24693     24692     24700     24692     24694     24700     24701
     24700     24702     24700     24703     24694     24695     24695     24697
     24695     24696     24697     24698     24697     24699     24697     24709
     24709     24710     24709     24711     24709     24712     24712     24713
     24712     24714     24712     24715     24715     24716     24715     24717
     24715     24718     24718     24719     24718     24720     24718     24721
     24721     24722     24721     24723     24721     24724     24724     24725
     24724     24726     24724     24727     24727     24728     24727     24732
     24727     24729     24732     24733     24732     24734     24732     24729
     24734     24735     24734     24736     24734     24737     24737     24738
     24737     24739     24737     24740     24740     24741     24740     24742
     24740     24743     24743     24744     24743     24745     24743     24746
     24746     24747     24746     24748     24746     24749     24749     24750
     24749     24751     24749     24752     24729     24730     24729     24731
     24703     24704     24704     24706     24704     24705     24706     24707
     24706     24708     24706     24753     24753     24754     24753     24755
     24753     24756     24756     24757     24756     24758     24756     24759
     24759     24760     24759     24761     24759     24762     24762     24763
     24762     24764     24762     24765     24765     24766     24765     24767
     24765     24768     24768     24769     24768     24770     24768     24771
     24771     24772     24771     24773     24771     24774     24774     24775
     24774     24776     24774     24777     24777     24778     24777     24779
     24777     24780     24780     24781     24780     24782     24780     24783
     24783     24784     24783     24785     24783     24786     24786     24787
     24786     24788     24786     24789     24789     24790     24789     24791
     24789     24792     24792     24793     24792     24794     24792     24795
     24800     24799     24799     24796     24796     24797     24796     24798
     24796     24801     24804     24803     24803     24801     24801     24802
     24801     24805     24805     24806     24805     24807     24805     24812
     24812     24808     24808     24811     24808     24809     24808     24810
     24813     24814     24813     24815     24813     24816     24813     24811
     24816     24817     24816     24824     24816     24818     24824     24825
     24824     24826     24824     24827     24818     24819     24819     24821
     24819     24820     24821     24822     24821     24823     24821     24833
     24833     24834     24833     24835     24833     24836     24836     24837
     24836     24838     24836     24839     24839     24840     24839     24841
     24839     24842     24842     24843     24842     24844     24842     24845
     24845     24846     24845     24847     24845     24848     24848     24849
     24848     24850     24848     24851     24851     24852     24851     24853
     24853     24854     24853     24855     24855     24856     24855     24857
     24855     24858     24858     24859     24858     24860     24858     24861
     24861     24862     24861     24863     24861     24864     24864     24865
     24864     24866     24864     24867     24867     24868     24867     24869
     24867     24870     24870     24871     24870     24872     24870     24873
     24827     24828     24828     24830     24828     24829     24830     24831
     24830     24832     24830     24874     24874     24875     24874     24876
     24874     24877     24877     24878     24877     24879     24877     24880
     24880     24881     24880     24882     24880     24883     24883     24884
     24883     24885     24883     24886     24886     24887     24886     24888
     24886     24889     24889     24890     24889     24891     24889     24892
     24892     24893     24892     24894     24892     24895     24895     24896
     24895     24897     24895     24898     24898     24899     24898     24900
     24898     24901     24901     24902     24901     24903     24901     24904
     24904     24905     24904     24906     24904     24907     24907     24908
     24907     24909     24907     24910     24910     24911     24910     24912
     24910     24913     24913     24914     24913     24915     24913     24916
     24917     24918     24917     24919     24918     24919     24920     24921
     24920     24922     24921     24922     24923     24924     24923     24925
     24924     24925     24926     24927     24926     24928     24927     24928
     24929     24930     24929     24931     24930     24931     24932     24933
     24932     24934     24933     24934     24935     24936     24935     24937
     24936     24937     24938     24939     24938     24940     24939     24940
     24941     24942     24941     24943     24942     24943     24944     24945
     24944     24946     24945     24946     24947     24948     24947     24949
     24948     24949     24950     24951     24950     24952     24951     24952
     24953     24954     24953     24955     24954     24955     24956     24957
     24956     24958     24957     24958     24959     24960     24959     24961
     24960     24961     24962     24963     24962     24964     24963     24964
     24965     24966     24965     24967     24966     24967     24968     24969
     24968     24970     24969     24970     24971     24972     24971     24973
     24972     24973     24974     24975     24974     24976     24975     24976
     24977     24978     24977     24979     24978     24979     24980     24981
     24980     24982     24981     24982     24983     24984     24983     24985
     24984     24985     24986     24987     24986     24988     24987     24988
     24989     24990     24989     24991     24990     24991     24992     24993
     24992     24994     24993     24994     24995     24996     24995     24997
     24996     24997     24998     24999     24998     25000     24999     25000
     25001     25002     25001     25003     25002     25003     25004     25005
     25004     25006     25005     25006     25007     25008     25007     25009
     25008     25009     25010     25011     25010     25012     25011     25012
     25013     25014     25013     25015     25014     25015     25016     25017
     25016     25018     25017     25018     25019     25020     25019     25021
     25020     25021     25022     25023     25022     25024     25023     25024
     25025     25026     25025     25027     25026     25027     25028     25029
     25028     25030     25029     25030     25031     25032     25031     25033
     25032     25033     25034     25035     25034     25036     25035     25036
     25037     25038     25037     25039     25038     25039     25040     25041
     25040     25042     25041     25042     25043     25044     25043     25045
     25044     25045     25046     25047     25046     25048     25047     25048
     25049     25050     25049     25051     25050     25051     25052     25053
     25052     25054     25053     25054     25055     25056     25055     25057
     25056     25057     25058     25059     25058     25060     25059     25060
     25061     25062     25061     25063     25062     25063     25064     25065
     25064     25066     25065     25066     25067     25068     25067     25069
     25068     25069     25070     25071     25070     25072     25071     25072
     25073     25074     25073     25075     25074     25075     25076     25077
     25076     25078     25077     25078     25079     25080     25079     25081
     25080     25081     25082     25083     25082     25084     25083     25084
     25085     25086     25085     25087     25086     25087     25088     25089
     25088     25090     25089     25090     25091     25092     25091     25093
     25092     25093     25094     25095     25094     25096     25095     25096
     25097     25098     25097     25099     25098     25099     25100     25101
     25100     25102     25101     25102     25103     25104     25103     25105
     25104     25105     25106     25107     25106     25108     25107     25108
     25109     25110     25109     25111     25110     25111     25112     25113
     25112     25114     25113     25114     25115     25116     25115     25117
     25116     25117     25118     25119     25118     25120     25119     25120
     25121     25122     25121     25123     25122     25123     25124     25125
     25124     25126     25125     25126     25127     25128     25127     25129
     25128     25129     25130     25131     25130     25132     25131     25132
     25133     25134     25133     25135     25134     25135     25136     25137
     25136     25138     25137     25138     25139     25140     25139     25141
     25140     25141     25142     25143     25142     25144     25143     25144
     25145     25146     25145     25147     25146     25147     25148     25149
     25148     25150     25149     25150     25151     25152     25151     25153
     25152     25153     25154     25155     25154     25156     25155     25156
     25157     25158     25157     25159     25158     25159     25160     25161
     25160     25162     25161     25162     25163     25164     25163     25165
     25164     25165     25166     25167     25166     25168     25167     25168
     25169     25170     25169     25171     25170     25171     25172     25173
     25172     25174     25173     25174     25175     25176     25175     25177
     25176     25177     25178     25179     25178     25180     25179     25180
     25181     25182     25181     25183     25182     25183     25184     25185
     25184     25186     25185     25186     25187     25188     25187     25189
     25188     25189     25190     25191     25190     25192     25191     25192
     25193     25194     25193     25195     25194     25195     25196     25197
     25196     25198     25197     25198     25199     25200     25199     25201
     25200     25201     25202     25203     25202     25204     25203     25204
     25205     25206     25205     25207     25206     25207     25208     25209
     25208     25210     25209     25210     25211     25212     25211     25213
     25212     25213     25214     25215     25214     25216     25215     25216
     25217     25218     25217     25219     25218     25219     25220     25221
     25220     25222     25221     25222     25223     25224     25223     25225
     25224     25225     25226     25227     25226     25228     25227     25228
     25229     25230     25229     25231     25230     25231     25232     25233
     25232     25234     25233     25234     25235     25236     25235     25237
     25236     25237     25238     25239     25238     25240     25239     25240
     25241     25242     25241     25243     25242     25243     25244     25245
     25244     25246     25245     25246     25247     25248     25247     25249
     25248     25249     25250     25251     25250     25252     25251     25252
     25253     25254     25253     25255     25254     25255     25256     25257
     25256     25258     25257     25258     25259     25260     25259     25261
     25260     25261     25262     25263     25262     25264     25263     25264
     25265     25266     25265     25267     25266     25267     25268     25269
     25268     25270     25269     25270     25271     25272     25271     25273
     25272     25273     25274     25275     25274     25276     25275     25276
     25277     25278     25277     25279     25278     25279     25280     25281
     25280     25282     25281     25282     25283     25284     25283     25285
     25284     25285     25286     25287     25286     25288     25287     25288
     25289     25290     25289     25291     25290     25291     25292     25293
     25292     25294     25293     25294     25295     25296     25295     25297
     25296     25297     25298     25299     25298     25300     25299     25300
     25301     25302     25301     25303     25302     25303     25304     25305
     25304     25306     25305     25306     25307     25308     25307     25309
     25308     25309     25310     25311     25310     25312     25311     25312
     25313     25314     25313     25315     25314     25315     25316     25317
     25316     25318     25317     25318     25319     25320     25319     25321
     25320     25321     25322     25323     25322     25324     25323     25324
     25325     25326     25325     25327     25326     25327     25328     25329
     25328     25330     25329     25330     25331     25332     25331     25333
     25332     25333     25334     25335     25334     25336     25335     25336
     25337     25338     25337     25339     25338     25339     25340     25341
     25340     25342     25341     25342     25343     25344     25343     25345
     25344     25345     25346     25347     25346     25348     25347     25348
     25349     25350     25349     25351     25350     25351     25352     25353
     25352     25354     25353     25354     25355     25356     25355     25357
     25356     25357     25358     25359     25358     25360     25359     25360
     25361     25362     25361     25363     25362     25363     25364     25365
     25364     25366     25365     25366     25367     25368     25367     25369
     25368     25369     25370     25371     25370     25372     25371     25372
     25373     25374     25373     25375     25374     25375     25376     25377
     25376     25378     25377     25378     25379     25380     25379     25381
     25380     25381     25382     25383     25382     25384     25383     25384
     25385     25386     25385     25387     25386     25387     25388     25389
     25388     25390     25389     25390     25391     25392     25391     25393
     25392     25393     25394     25395     25394     25396     25395     25396
     25397     25398     25397     25399     25398     25399     25400     25401
     25400     25402     25401     25402     25403     25404     25403     25405
     25404     25405     25406     25407     25406     25408     25407     25408
     25409     25410     25409     25411     25410     25411     25412     25413
     25412     25414     25413     25414     25415     25416     25415     25417
     25416     25417     25418     25419     25418     25420     25419     25420
     25421     25422     25421     25423     25422     25423     25424     25425
     25424     25426     25425     25426     25427     25428     25427     25429
     25428     25429     25430     25431     25430     25432     25431     25432
     25433     25434     25433     25435     25434     25435     25436     25437
     25436     25438     25437     25438     25439     25440     25439     25441
     25440     25441     25442     25443     25442     25444     25443     25444
     25445     25446     25445     25447     25446     25447     25448     25449
     25448     25450     25449     25450     25451     25452     25451     25453
     25452     25453     25454     25455     25454     25456     25455     25456
     25457     25458     25457     25459     25458     25459     25460     25461
     25460     25462     25461     25462     25463     25464     25463     25465
     25464     25465     25466     25467     25466     25468     25467     25468
     25469     25470     25469     25471     25470     25471     25472     25473
     25472     25474     25473     25474     25475     25476     25475     25477
     25476     25477     25478     25479     25478     25480     25479     25480
     25481     25482     25481     25483     25482     25483     25484     25485
     25484     25486     25485     25486     25487     25488     25487     25489
     25488     25489     25490     25491     25490     25492     25491     25492
     25493     25494     25493     25495     25494     25495     25496     25497
     25496     25498     25497     25498     25499     25500     25499     25501
     25500     25501     25502     25503     25502     25504     25503     25504
     25505     25506     25505     25507     25506     25507     25508     25509
     25508     25510     25509     25510     25511     25512     25511     25513
     25512     25513     25514     25515     25514     25516     25515     25516
     25517     25518     25517     25519     25518     25519     25520     25521
     25520     25522     25521     25522     25523     25524     25523     25525
     25524     25525     25526     25527     25526     25528     25527     25528
     25529     25530     25529     25531     25530     25531     25532     25533
     25532     25534     25533     25534     25535     25536     25535     25537
     25536     25537     25538     25539     25538     25540     25539     25540
     25541     25542     25541     25543     25542     25543     25544     25545
     25544     25546     25545     25546     25547     25548     25547     25549
     25548     25549     25550     25551     25550     25552     25551     25552
     25553     25554     25553     25555     25554     25555     25556     25557
     25556     25558     25557     25558     25559     25560     25559     25561
     25560     25561     25562     25563     25562     25564     25563     25564
     25565     25566     25565     25567     25566     25567     25568     25569
     25568     25570     25569     25570     25571     25572     25571     25573
     25572     25573     25574     25575     25574     25576     25575     25576
     25577     25578     25577     25579     25578     25579     25580     25581
     25580     25582     25581     25582     25583     25584     25583     25585
     25584     25585     25586     25587     25586     25588     25587     25588
     25589     25590     25589     25591     25590     25591     25592     25593
     25592     25594     25593     25594     25595     25596     25595     25597
     25596     25597     25598     25599     25598     25600     25599     25600
     25601     25602     25601     25603     25602     25603     25604     25605
     25604     25606     25605     25606     25607     25608     25607     25609
     25608     25609     25610     25611     25610     25612     25611     25612
     25613     25614     25613     25615     25614     25615     25616     25617
     25616     25618     25617     25618     25619     25620     25619     25621
     25620     25621     25622     25623     25622     25624     25623     25624
     25625     25626     25625     25627     25626     25627     25628     25629
     25628     25630     25629     25630     25631     25632     25631     25633
     25632     25633     25634     25635     25634     25636     25635     25636
     25637     25638     25637     25639     25638     25639     25640     25641
     25640     25642     25641     25642     25643     25644     25643     25645
     25644     25645     25646     25647     25646     25648     25647     25648
     25649     25650     25649     25651     25650     25651     25652     25653
     25652     25654     25653     25654     25655     25656     25655     25657
     25656     25657     25658     25659     25658     25660     25659     25660
     25661     25662     25661     25663     25662     25663     25664     25665
     25664     25666     25665     25666     25667     25668     25667     25669
     25668     25669     25670     25671     25670     25672     25671     25672
     25673     25674     25673     25675     25674     25675     25676     25677
     25676     25678     25677     25678     25679     25680     25679     25681
     25680     25681     25682     25683     25682     25684     25683     25684
     25685     25686     25685     25687     25686     25687     25688     25689
     25688     25690     25689     25690     25691     25692     25691     25693
     25692     25693     25694     25695     25694     25696     25695     25696
     25697     25698     25697     25699     25698     25699     25700     25701
     25700     25702     25701     25702     25703     25704     25703     25705
     25704     25705     25706     25707     25706     25708     25707     25708
     25709     25710     25709     25711     25710     25711     25712     25713
     25712     25714     25713     25714     25715     25716     25715     25717
     25716     25717     25718     25719     25718     25720     25719     25720
     25721     25722     25721     25723     25722     25723     25724     25725
     25724     25726     25725     25726     25727     25728     25727     25729
     25728     25729     25730     25731     25730     25732     25731     25732
     25733     25734     25733     25735     25734     25735     25736     25737
     25736     25738     25737     25738     25739     25740     25739     25741
     25740     25741     25742     25743     25742     25744     25743     25744
     25745     25746     25745     25747     25746     25747     25748     25749
     25748     25750     25749     25750     25751     25752     25751     25753
     25752     25753     25754     25755     25754     25756     25755     25756
     25757     25758     25757     25759     25758     25759     25760     25761
     25760     25762     25761     25762     25763     25764     25763     25765
     25764     25765     25766     25767     25766     25768     25767     25768
     25769     25770     25769     25771     25770     25771     25772     25773
     25772     25774     25773     25774     25775     25776     25775     25777
     25776     25777     25778     25779     25778     25780     25779     25780
     25781     25782     25781     25783     25782     25783     25784     25785
     25784     25786     25785     25786     25787     25788     25787     25789
     25788     25789     25790     25791     25790     25792     25791     25792
     25793     25794     25793     25795     25794     25795     25796     25797
     25796     25798     25797     25798     25799     25800     25799     25801
     25800     25801     25802     25803     25802     25804     25803     25804
     25805     25806     25805     25807     25806     25807     25808     25809
     25808     25810     25809     25810     25811     25812     25811     25813
     25812     25813     25814     25815     25814     25816     25815     25816
     25817     25818     25817     25819     25818     25819     25820     25821
     25820     25822     25821     25822     25823     25824     25823     25825
     25824     25825     25826     25827     25826     25828     25827     25828
     25829     25830     25829     25831     25830     25831     25832     25833
     25832     25834     25833     25834     25835     25836     25835     25837
     25836     25837     25838     25839     25838     25840     25839     25840
     25841     25842     25841     25843     25842     25843     25844     25845
     25844     25846     25845     25846     25847     25848     25847     25849
     25848     25849     25850     25851     25850     25852     25851     25852
     25853     25854     25853     25855     25854     25855     25856     25857
     25856     25858     25857     25858     25859     25860     25859     25861
     25860     25861     25862     25863     25862     25864     25863     25864
     25865     25866     25865     25867     25866     25867     25868     25869
     25868     25870     25869     25870     25871     25872     25871     25873
     25872     25873     25874     25875     25874     25876     25875     25876
     25877     25878     25877     25879     25878     25879     25880     25881
     25880     25882     25881     25882     25883     25884     25883     25885
     25884     25885     25886     25887     25886     25888     25887     25888
     25889     25890     25889     25891     25890     25891     25892     25893
     25892     25894     25893     25894     25895     25896     25895     25897
     25896     25897     25898     25899     25898     25900     25899     25900
     25901     25902     25901     25903     25902     25903     25904     25905
     25904     25906     25905     25906     25907     25908     25907     25909
     25908     25909     25910     25911     25910     25912     25911     25912
     25913     25914     25913     25915     25914     25915     25916     25917
     25916     25918     25917     25918     25919     25920     25919     25921
     25920     25921     25922     25923     25922     25924     25923     25924
     25925     25926     25925     25927     25926     25927     25928     25929
     25928     25930     25929     25930     25931     25932     25931     25933
     25932     25933     25934     25935     25934     25936     25935     25936
     25937     25938     25937     25939     25938     25939     25940     25941
     25940     25942     25941     25942     25943     25944     25943     25945
     25944     25945     25946     25947     25946     25948     25947     25948
     25949     25950     25949     25951     25950     25951     25952     25953
     25952     25954     25953     25954     25955     25956     25955     25957
     25956     25957     25958     25959     25958     25960     25959     25960
     25961     25962     25961     25963     25962     25963     25964     25965
     25964     25966     25965     25966     25967     25968     25967     25969
     25968     25969     25970     25971     25970     25972     25971     25972
     25973     25974     25973     25975     25974     25975     25976     25977
     25976     25978     25977     25978     25979     25980     25979     25981
     25980     25981     25982     25983     25982     25984     25983     25984
     25985     25986     25985     25987     25986     25987     25988     25989
     25988     25990     25989     25990     25991     25992     25991     25993
     25992     25993     25994     25995     25994     25996     25995     25996
     25997     25998     25997     25999     25998     25999     26000     26001
     26000     26002     26001     26002     26003     26004     26003     26005
     26004     26005     26006     26007     26006     26008     26007     26008
     26009     26010     26009     26011     26010     26011     26012     26013
     26012     26014     26013     26014     26015     26016     26015     26017
     26016     26017     26018     26019     26018     26020     26019     26020
     26021     26022     26021     26023     26022     26023     26024     26025
     26024     26026     26025     26026     26027     26028     26027     26029
     26028     26029     26030     26031     26030     26032     26031     26032
     26033     26034     26033     26035     26034     26035     26036     26037
     26036     26038     26037     26038     26039     26040     26039     26041
     26040     26041     26042     26043     26042     26044     26043     26044
     26045     26046     26045     26047     26046     26047     26048     26049
     26048     26050     26049     26050     26051     26052     26051     26053
     26052     26053     26054     26055     26054     26056     26055     26056
     26057     26058     26057     26059     26058     26059     26060     26061
     26060     26062     26061     26062     26063     26064     26063     26065
     26064     26065     26066     26067     26066     26068     26067     26068
     26069     26070     26069     26071     26070     26071     26072     26073
     26072     26074     26073     26074     26075     26076     26075     26077
     26076     26077     26078     26079     26078     26080     26079     26080
     26081     26082     26081     26083     26082     26083     26084     26085
     26084     26086     26085     26086     26087     26088     26087     26089
     26088     26089     26090     26091     26090     26092     26091     26092
     26093     26094     26093     26095     26094     26095     26096     26097
     26096     26098     26097     26098     26099     26100     26099     26101
     26100     26101     26102     26103     26102     26104     26103     26104
     26105     26106     26105     26107     26106     26107     26108     26109
     26108     26110     26109     26110     26111     26112     26111     26113
     26112     26113     26114     26115     26114     26116     26115     26116
     26117     26118     26117     26119     26118     26119     26120     26121
     26120     26122     26121     26122     26123     26124     26123     26125
     26124     26125     26126     26127     26126     26128     26127     26128
     26129     26130     26129     26131     26130     26131     26132     26133
     26132     26134     26133     26134     26135     26136     26135     26137
     26136     26137     26138     26139     26138     26140     26139     26140
     26141     26142     26141     26143     26142     26143     26144     26145
     26144     26146     26145     26146     26147     26148     26147     26149
     26148     26149     26150     26151     26150     26152     26151     26152
     26153     26154     26153     26155     26154     26155     26156     26157
     26156     26158     26157     26158     26159     26160     26159     26161
     26160     26161     26162     26163     26162     26164     26163     26164
     26165     26166     26165     26167     26166     26167     26168     26169
     26168     26170     26169     26170     26171     26172     26171     26173
     26172     26173     26174     26175     26174     26176     26175     26176
     26177     26178     26177     26179     26178     26179     26180     26181
     26180     26182     26181     26182     26183     26184     26183     26185
     26184     26185     26186     26187     26186     26188     26187     26188
     26189     26190     26189     26191     26190     26191     26192     26193
     26192     26194     26193     26194     26195     26196     26195     26197
     26196     26197     26198     26199     26198     26200     26199     26200
     26201     26202     26201     26203     26202     26203     26204     26205
     26204     26206     26205     26206     26207     26208     26207     26209
     26208     26209     26210     26211     26210     26212     26211     26212
     26213     26214     26213     26215     26214     26215     26216     26217
     26216     26218     26217     26218     26219     26220     26219     26221
     26220     26221     26222     26223     26222     26224     26223     26224
     26225     26226     26225     26227     26226     26227     26228     26229
     26228     26230     26229     26230     26231     26232     26231     26233
     26232     26233     26234     26235     26234     26236     26235     26236
     26237     26238     26237     26239     26238     26239     26240     26241
     26240     26242     26241     26242     26243     26244     26243     26245
     26244     26245     26246     26247     26246     26248     26247     26248
     26249     26250     26249     26251     26250     26251     26252     26253
     26252     26254     26253     26254     26255     26256     26255     26257
     26256     26257     26258     26259     26258     26260     26259     26260
     26261     26262     26261     26263     26262     26263     26264     26265
     26264     26266     26265     26266     26267     26268     26267     26269
     26268     26269     26270     26271     26270     26272     26271     26272
     26273     26274     26273     26275     26274     26275     26276     26277
     26276     26278     26277     26278     26279     26280     26279     26281
     26280     26281     26282     26283     26282     26284     26283     26284
     26285     26286     26285     26287     26286     26287     26288     26289
     26288     26290     26289     26290     26291     26292     26291     26293
     26292     26293     26294     26295     26294     26296     26295     26296
     26297     26298     26297     26299     26298     26299     26300     26301
     26300     26302     26301     26302     26303     26304     26303     26305
     26304     26305     26306     26307     26306     26308     26307     26308
     26309     26310     26309     26311     26310     26311     26312     26313
     26312     26314     26313     26314     26315     26316     26315     26317
     26316     26317     26318     26319     26318     26320     26319     26320
     26321     26322     26321     26323     26322     26323     26324     26325
     26324     26326     26325     26326     26327     26328     26327     26329
     26328     26329     26330     26331     26330     26332     26331     26332
     26333     26334     26333     26335     26334     26335     26336     26337
     26336     26338     26337     26338     26339     26340     26339     26341
     26340     26341     26342     26343     26342     26344     26343     26344
     26345     26346     26345     26347     26346     26347     26348     26349
     26348     26350     26349     26350     26351     26352     26351     26353
     26352     26353     26354     26355     26354     26356     26355     26356
     26357     26358     26357     26359     26358     26359     26360     26361
     26360     26362     26361     26362     26363     26364     26363     26365
     26364     26365     26366     26367     26366     26368     26367     26368
     26369     26370     26369     26371     26370     26371     26372     26373
     26372     26374     26373     26374     26375     26376     26375     26377
     26376     26377     26378     26379     26378     26380     26379     26380
     26381     26382     26381     26383     26382     26383     26384     26385
     26384     26386     26385     26386     26387     26388     26387     26389
     26388     26389     26390     26391     26390     26392     26391     26392
     26393     26394     26393     26395     26394     26395     26396     26397
     26396     26398     26397     26398     26399     26400     26399     26401
     26400     26401     26402     26403     26402     26404     26403     26404
     26405     26406     26405     26407     26406     26407     26408     26409
     26408     26410     26409     26410     26411     26412     26411     26413
     26412     26413     26414     26415     26414     26416     26415     26416
     26417     26418     26417     26419     26418     26419     26420     26421
     26420     26422     26421     26422     26423     26424     26423     26425
     26424     26425     26426     26427     26426     26428     26427     26428
     26429     26430     26429     26431     26430     26431     26432     26433
     26432     26434     26433     26434     26435     26436     26435     26437
     26436     26437     26438     26439     26438     26440     26439     26440
     26441     26442     26441     26443     26442     26443     26444     26445
     26444     26446     26445     26446     26447     26448     26447     26449
     26448     26449     26450     26451     26450     26452     26451     26452
     26453     26454     26453     26455     26454     26455     26456     26457
     26456     26458     26457     26458     26459     26460     26459     26461
     26460     26461     26462     26463     26462     26464     26463     26464
     26465     26466     26465     26467     26466     26467     26468     26469
     26468     26470     26469     26470     26471     26472     26471     26473
     26472     26473     26474     26475     26474     26476     26475     26476
     26477     26478     26477     26479     26478     26479     26480     26481
     26480     26482     26481     26482     26483     26484     26483     26485
     26484     26485     26486     26487     26486     26488     26487     26488
     26489     26490     26489     26491     26490     26491     26492     26493
     26492     26494     26493     26494     26495     26496     26495     26497
     26496     26497     26498     26499     26498     26500     26499     26500
     26501     26502     26501     26503     26502     26503     26504     26505
     26504     26506     26505     26506     26507     26508     26507     26509
     26508     26509     26510     26511     26510     26512     26511     26512
     26513     26514     26513     26515     26514     26515     26516     26517
     26516     26518     26517     26518     26519     26520     26519     26521
     26520     26521     26522     26523     26522     26524     26523     26524
     26525     26526     26525     26527     26526     26527     26528     26529
     26528     26530     26529     26530     26531     26532     26531     26533
     26532     26533     26534     26535     26534     26536     26535     26536
     26537     26538     26537     26539     26538     26539     26540     26541
     26540     26542     26541     26542     26543     26544     26543     26545
     26544     26545     26546     26547     26546     26548     26547     26548
     26549     26550     26549     26551     26550     26551     26552     26553
     26552     26554     26553     26554     26555     26556     26555     26557
     26556     26557     26558     26559     26558     26560     26559     26560
     26561     26562     26561     26563     26562     26563     26564     26565
     26564     26566     26565     26566     26567     26568     26567     26569
     26568     26569     26570     26571     26570     26572     26571     26572
     26573     26574     26573     26575     26574     26575     26576     26577
     26576     26578     26577     26578     26579     26580     26579     26581
     26580     26581     26582     26583     26582     26584     26583     26584
     26585     26586     26585     26587     26586     26587     26588     26589
     26588     26590     26589     26590     26591     26592     26591     26593
     26592     26593     26594     26595     26594     26596     26595     26596
     26597     26598     26597     26599     26598     26599     26600     26601
     26600     26602     26601     26602     26603     26604     26603     26605
     26604     26605     26606     26607     26606     26608     26607     26608
     26609     26610     26609     26611     26610     26611     26612     26613
     26612     26614     26613     26614     26615     26616     26615     26617
     26616     26617     26618     26619     26618     26620     26619     26620
     26621     26622     26621     26623     26622     26623     26624     26625
     26624     26626     26625     26626     26627     26628     26627     26629
     26628     26629     26630     26631     26630     26632     26631     26632
     26633     26634     26633     26635     26634     26635     26636     26637
     26636     26638     26637     26638     26639     26640     26639     26641
     26640     26641     26642     26643     26642     26644     26643     26644
     26645     26646     26645     26647     26646     26647     26648     26649
     26648     26650     26649     26650     26651     26652     26651     26653
     26652     26653     26654     26655     26654     26656     26655     26656
     26657     26658     26657     26659     26658     26659     26660     26661
     26660     26662     26661     26662     26663     26664     26663     26665
     26664     26665     26666     26667     26666     26668     26667     26668
     26669     26670     26669     26671     26670     26671     26672     26673
     26672     26674     26673     26674     26675     26676     26675     26677
     26676     26677     26678     26679     26678     26680     26679     26680
     26681     26682     26681     26683     26682     26683     26684     26685
     26684     26686     26685     26686     26687     26688     26687     26689
     26688     26689     26690     26691     26690     26692     26691     26692
     26693     26694     26693     26695     26694     26695     26696     26697
     26696     26698     26697     26698     26699     26700     26699     26701
     26700     26701     26702     26703     26702     26704     26703     26704
     26705     26706     26705     26707     26706     26707     26708     26709
     26708     26710     26709     26710     26711     26712     26711     26713
     26712     26713     26714     26715     26714     26716     26715     26716
     26717     26718     26717     26719     26718     26719     26720     26721
     26720     26722     26721     26722     26723     26724     26723     26725
     26724     26725     26726     26727     26726     26728     26727     26728
     26729     26730     26729     26731     26730     26731     26732     26733
     26732     26734     26733     26734     26735     26736     26735     26737
     26736     26737     26738     26739     26738     26740     26739     26740
     26741     26742     26741     26743     26742     26743     26744     26745
     26744     26746     26745     26746     26747     26748     26747     26749
     26748     26749     26750     26751     26750     26752     26751     26752
     26753     26754     26753     26755     26754     26755     26756     26757
     26756     26758     26757     26758     26759     26760     26759     26761
     26760     26761     26762     26763     26762     26764     26763     26764
     26765     26766     26765     26767     26766     26767     26768     26769
     26768     26770     26769     26770     26771     26772     26771     26773
     26772     26773     26774     26775     26774     26776     26775     26776
     26777     26778     26777     26779     26778     26779     26780     26781
     26780     26782     26781     26782     26783     26784     26783     26785
     26784     26785     26786     26787     26786     26788     26787     26788
     26789     26790     26789     26791     26790     26791     26792     26793
     26792     26794     26793     26794     26795     26796     26795     26797
     26796     26797     26798     26799     26798     26800     26799     26800
     26801     26802     26801     26803     26802     26803     26804     26805
     26804     26806     26805     26806     26807     26808     26807     26809
     26808     26809     26810     26811     26810     26812     26811     26812
     26813     26814     26813     26815     26814     26815     26816     26817
     26816     26818     26817     26818     26819     26820     26819     26821
     26820     26821     26822     26823     26822     26824     26823     26824
     26825     26826     26825     26827     26826     26827     26828     26829
     26828     26830     26829     26830     26831     26832     26831     26833
     26832     26833     26834     26835     26834     26836     26835     26836
     26837     26838     26837     26839     26838     26839     26840     26841
     26840     26842     26841     26842     26843     26844     26843     26845
     26844     26845     26846     26847     26846     26848     26847     26848
     26849     26850     26849     26851     26850     26851     26852     26853
     26852     26854     26853     26854     26855     26856     26855     26857
     26856     26857     26858     26859     26858     26860     26859     26860
     26861     26862     26861     26863     26862     26863     26864     26865
     26864     26866     26865     26866     26867     26868     26867     26869
     26868     26869     26870     26871     26870     26872     26871     26872
     26873     26874     26873     26875     26874     26875     26876     26877
     26876     26878     26877     26878     26879     26880     26879     26881
     26880     26881     26882     26883     26882     26884     26883     26884
     26885     26886     26885     26887     26886     26887     26888     26889
     26888     26890     26889     26890     26891     26892     26891     26893
     26892     26893     26894     26895     26894     26896     26895     26896
     26897     26898     26897     26899     26898     26899     26900     26901
     26900     26902     26901     26902     26903     26904     26903     26905
     26904     26905     26906     26907     26906     26908     26907     26908
     26909     26910     26909     26911     26910     26911     26912     26913
     26912     26914     26913     26914     26915     26916     26915     26917
     26916     26917     26918     26919     26918     26920     26919     26920
     26921     26922     26921     26923     26922     26923     26924     26925
     26924     26926     26925     26926     26927     26928     26927     26929
     26928     26929     26930     26931     26930     26932     26931     26932
     26933     26934     26933     26935     26934     26935     26936     26937
     26936     26938     26937     26938     26939     26940     26939     26941
     26940     26941     26942     26943     26942     26944     26943     26944
     26945     26946     26945     26947     26946     26947     26948     26949
     26948     26950     26949     26950     26951     26952     26951     26953
     26952     26953     26954     26955     26954     26956     26955     26956
     26957     26958     26957     26959     26958     26959     26960     26961
     26960     26962     26961     26962     26963     26964     26963     26965
     26964     26965     26966     26967     26966     26968     26967     26968
     26969     26970     26969     26971     26970     26971     26972     26973
     26972     26974     26973     26974     26975     26976     26975     26977
     26976     26977     26978     26979     26978     26980     26979     26980
     26981     26982     26981     26983     26982     26983     26984     26985
     26984     26986     26985     26986     26987     26988     26987     26989
     26988     26989     26990     26991     26990     26992     26991     26992
     26993     26994     26993     26995     26994     26995     26996     26997
     26996     26998     26997     26998     26999     27000     26999     27001
     27000     27001     27002     27003     27002     27004     27003     27004
     27005     27006     27005     27007     27006     27007     27008     27009
     27008     27010     27009     27010     27011     27012     27011     27013
     27012     27013     27014     27015     27014     27016     27015     27016
     27017     27018     27017     27019     27018     27019     27020     27021
     27020     27022     27021     27022     27023     27024     27023     27025
     27024     27025     27026     27027     27026     27028     27027     27028
     27029     27030     27029     27031     27030     27031     27032     27033
     27032     27034     27033     27034     27035     27036     27035     27037
     27036     27037     27038     27039     27038     27040     27039     27040
     27041     27042     27041     27043     27042     27043     27044     27045
     27044     27046     27045     27046     27047     27048     27047     27049
     27048     27049     27050     27051     27050     27052     27051     27052
     27053     27054     27053     27055     27054     27055     27056     27057
     27056     27058     27057     27058     27059     27060     27059     27061
     27060     27061     27062     27063     27062     27064     27063     27064
     27065     27066     27065     27067     27066     27067     27068     27069
     27068     27070     27069     27070     27071     27072     27071     27073
     27072     27073     27074     27075     27074     27076     27075     27076
     27077     27078     27077     27079     27078     27079     27080     27081
     27080     27082     27081     27082     27083     27084     27083     27085
     27084     27085     27086     27087     27086     27088     27087     27088
     27089     27090     27089     27091     27090     27091     27092     27093
     27092     27094     27093     27094     27095     27096     27095     27097
     27096     27097     27098     27099     27098     27100     27099     27100
     27101     27102     27101     27103     27102     27103     27104     27105
     27104     27106     27105     27106     27107     27108     27107     27109
     27108     27109     27110     27111     27110     27112     27111     27112
     27113     27114     27113     27115     27114     27115     27116     27117
     27116     27118     27117     27118     27119     27120     27119     27121
     27120     27121     27122     27123     27122     27124     27123     27124
     27125     27126     27125     27127     27126     27127     27128     27129
     27128     27130     27129     27130     27131     27132     27131     27133
     27132     27133     27134     27135     27134     27136     27135     27136
     27137     27138     27137     27139     27138     27139     27140     27141
     27140     27142     27141     27142     27143     27144     27143     27145
     27144     27145     27146     27147     27146     27148     27147     27148
     27149     27150     27149     27151     27150     27151     27152     27153
     27152     27154     27153     27154     27155     27156     27155     27157
     27156     27157     27158     27159     27158     27160     27159     27160
     27161     27162     27161     27163     27162     27163     27164     27165
     27164     27166     27165     27166     27167     27168     27167     27169
     27168     27169     27170     27171     27170     27172     27171     27172
     27173     27174     27173     27175     27174     27175     27176     27177
     27176     27178     27177     27178     27179     27180     27179     27181
     27180     27181     27182     27183     27182     27184     27183     27184
     27185     27186     27185     27187     27186     27187     27188     27189
     27188     27190     27189     27190     27191     27192     27191     27193
     27192     27193     27194     27195     27194     27196     27195     27196
     27197     27198     27197     27199     27198     27199     27200     27201
     27200     27202     27201     27202     27203     27204     27203     27205
     27204     27205     27206     27207     27206     27208     27207     27208
     27209     27210     27209     27211     27210     27211     27212     27213
     27212     27214     27213     27214     27215     27216     27215     27217
     27216     27217     27218     27219     27218     27220     27219     27220
     27221     27222     27221     27223     27222     27223     27224     27225
     27224     27226     27225     27226     27227     27228     27227     27229
     27228     27229     27230     27231     27230     27232     27231     27232
     27233     27234     27233     27235     27234     27235     27236     27237
     27236     27238     27237     27238     27239     27240     27239     27241
     27240     27241     27242     27243     27242     27244     27243     27244
     27245     27246     27245     27247     27246     27247     27248     27249
     27248     27250     27249     27250     27251     27252     27251     27253
     27252     27253     27254     27255     27254     27256     27255     27256
     27257     27258     27257     27259     27258     27259     27260     27261
     27260     27262     27261     27262     27263     27264     27263     27265
     27264     27265     27266     27267     27266     27268     27267     27268
     27269     27270     27269     27271     27270     27271     27272     27273
     27272     27274     27273     27274     27275     27276     27275     27277
     27276     27277     27278     27279     27278     27280     27279     27280
     27281     27282     27281     27283     27282     27283     27284     27285
     27284     27286     27285     27286     27287     27288     27287     27289
     27288     27289     27290     27291     27290     27292     27291     27292
     27293     27294     27293     27295     27294     27295     27296     27297
     27296     27298     27297     27298     27299     27300     27299     27301
     27300     27301     27302     27303     27302     27304     27303     27304
     27305     27306     27305     27307     27306     27307     27308     27309
     27308     27310     27309     27310     27311     27312     27311     27313
     27312     27313     27314     27315     27314     27316     27315     27316
     27317     27318     27317     27319     27318     27319     27320     27321
     27320     27322     27321     27322     27323     27324     27323     27325
     27324     27325     27326     27327     27326     27328     27327     27328
     27329     27330     27329     27331     27330     27331     27332     27333
     27332     27334     27333     27334     27335     27336     27335     27337
     27336     27337     27338     27339     27338     27340     27339     27340
     27341     27342     27341     27343     27342     27343     27344     27345
     27344     27346     27345     27346     27347     27348     27347     27349
     27348     27349     27350     27351     27350     27352     27351     27352
     27353     27354     27353     27355     27354     27355     27356     27357
     27356     27358     27357     27358     27359     27360     27359     27361
     27360     27361     27362     27363     27362     27364     27363     27364
     27365     27366     27365     27367     27366     27367     27368     27369
     27368     27370     27369     27370     27371     27372     27371     27373
     27372     27373     27374     27375     27374     27376     27375     27376
     27377     27378     27377     27379     27378     27379     27380     27381
     27380     27382     27381     27382     27383     27384     27383     27385
     27384     27385     27386     27387     27386     27388     27387     27388
     27389     27390     27389     27391     27390     27391     27392     27393
     27392     27394     27393     27394     27395     27396     27395     27397
     27396     27397     27398     27399     27398     27400     27399     27400
     27401     27402     27401     27403     27402     27403     27404     27405
     27404     27406     27405     27406     27407     27408     27407     27409
     27408     27409     27410     27411     27410     27412     27411     27412
     27413     27414     27413     27415     27414     27415     27416     27417
     27416     27418     27417     27418     27419     27420     27419     27421
     27420     27421     27422     27423     27422     27424     27423     27424
     27425     27426     27425     27427     27426     27427     27428     27429
     27428     27430     27429     27430     27431     27432     27431     27433
     27432     27433     27434     27435     27434     27436     27435     27436
     27437     27438     27437     27439     27438     27439     27440     27441
     27440     27442     27441     27442     27443     27444     27443     27445
     27444     27445     27446     27447     27446     27448     27447     27448
     27449     27450     27449     27451     27450     27451     27452     27453
     27452     27454     27453     27454     27455     27456     27455     27457
     27456     27457     27458     27459     27458     27460     27459     27460
     27461     27462     27461     27463     27462     27463     27464     27465
     27464     27466     27465     27466     27467     27468     27467     27469
     27468     27469     27470     27471     27470     27472     27471     27472
     27473     27474     27473     27475     27474     27475     27476     27477
     27476     27478     27477     27478     27479     27480     27479     27481
     27480     27481     27482     27483     27482     27484     27483     27484
     27485     27486     27485     27487     27486     27487     27488     27489
     27488     27490     27489     27490     27491     27492     27491     27493
     27492     27493     27494     27495     27494     27496     27495     27496
     27497     27498     27497     27499     27498     27499     27500     27501
     27500     27502     27501     27502     27503     27504     27503     27505
     27504     27505     27506     27507     27506     27508     27507     27508
     27509     27510     27509     27511     27510     27511     27512     27513
     27512     27514     27513     27514     27515     27516     27515     27517
     27516     27517     27518     27519     27518     27520     27519     27520
     27521     27522     27521     27523     27522     27523     27524     27525
     27524     27526     27525     27526     27527     27528     27527     27529
     27528     27529     27530     27531     27530     27532     27531     27532
     27533     27534     27533     27535     27534     27535     27536     27537
     27536     27538     27537     27538     27539     27540     27539     27541
     27540     27541     27542     27543     27542     27544     27543     27544
     27545     27546     27545     27547     27546     27547     27548     27549
     27548     27550     27549     27550     27551     27552     27551     27553
     27552     27553     27554     27555     27554     27556     27555     27556
     27557     27558     27557     27559     27558     27559     27560     27561
     27560     27562     27561     27562     27563     27564     27563     27565
     27564     27565     27566     27567     27566     27568     27567     27568
     27569     27570     27569     27571     27570     27571     27572     27573
     27572     27574     27573     27574     27575     27576     27575     27577
     27576     27577     27578     27579     27578     27580     27579     27580
     27581     27582     27581     27583     27582     27583     27584     27585
     27584     27586     27585     27586     27587     27588     27587     27589
     27588     27589     27590     27591     27590     27592     27591     27592
     27593     27594     27593     27595     27594     27595     27596     27597
     27596     27598     27597     27598     27599     27600     27599     27601
     27600     27601     27602     27603     27602     27604     27603     27604
     27605     27606     27605     27607     27606     27607     27608     27609
     27608     27610     27609     27610     27611     27612     27611     27613
     27612     27613     27614     27615     27614     27616     27615     27616
     27617     27618     27617     27619     27618     27619     27620     27621
     27620     27622     27621     27622     27623     27624     27623     27625
     27624     27625     27626     27627     27626     27628     27627     27628
     27629     27630     27629     27631     27630     27631     27632     27633
     27632     27634     27633     27634     27635     27636     27635     27637
     27636     27637     27638     27639     27638     27640     27639     27640
     27641     27642     27641     27643     27642     27643     27644     27645
     27644     27646     27645     27646     27647     27648     27647     27649
     27648     27649     27650     27651     27650     27652     27651     27652
     27653     27654     27653     27655     27654     27655     27656     27657
     27656     27658     27657     27658     27659     27660     27659     27661
     27660     27661     27662     27663     27662     27664     27663     27664
     27665     27666     27665     27667     27666     27667     27668     27669
     27668     27670     27669     27670     27671     27672     27671     27673
     27672     27673     27674     27675     27674     27676     27675     27676
     27677     27678     27677     27679     27678     27679     27680     27681
     27680     27682     27681     27682     27683     27684     27683     27685
     27684     27685     27686     27687     27686     27688     27687     27688
     27689     27690     27689     27691     27690     27691     27692     27693
     27692     27694     27693     27694     27695     27696     27695     27697
     27696     27697     27698     27699     27698     27700     27699     27700
     27701     27702     27701     27703     27702     27703     27704     27705
     27704     27706     27705     27706     27707     27708     27707     27709
     27708     27709     27710     27711     27710     27712     27711     27712
     27713     27714     27713     27715     27714     27715     27716     27717
     27716     27718     27717     27718     27719     27720     27719     27721
     27720     27721     27722     27723     27722     27724     27723     27724
     27725     27726     27725     27727     27726     27727     27728     27729
     27728     27730     27729     27730     27731     27732     27731     27733
     27732     27733     27734     27735     27734     27736     27735     27736
     27737     27738     27737     27739     27738     27739     27740     27741
     27740     27742     27741     27742     27743     27744     27743     27745
     27744     27745     27746     27747     27746     27748     27747     27748
     27749     27750     27749     27751     27750     27751     27752     27753
     27752     27754     27753     27754     27755     27756     27755     27757
     27756     27757     27758     27759     27758     27760     27759     27760
     27761     27762     27761     27763     27762     27763     27764     27765
     27764     27766     27765     27766     27767     27768     27767     27769
     27768     27769     27770     27771     27770     27772     27771     27772
     27773     27774     27773     27775     27774     27775     27776     27777
     27776     27778     27777     27778     27779     27780     27779     27781
     27780     27781     27782     27783     27782     27784     27783     27784
     27785     27786     27785     27787     27786     27787     27788     27789
     27788     27790     27789     27790     27791     27792     27791     27793
     27792     27793     27794     27795     27794     27796     27795     27796
     27797     27798     27797     27799     27798     27799     27800     27801
     27800     27802     27801     27802     27803     27804     27803     27805
     27804     27805     27806     27807     27806     27808     27807     27808
     27809     27810     27809     27811     27810     27811     27812     27813
     27812     27814     27813     27814     27815     27816     27815     27817
     27816     27817     27818     27819     27818     27820     27819     27820
     27821     27822     27821     27823     27822     27823     27824     27825
     27824     27826     27825     27826     27827     27828     27827     27829
     27828     27829     27830     27831     27830     27832     27831     27832
     27833     27834     27833     27835     27834     27835     27836     27837
     27836     27838     27837     27838     27839     27840     27839     27841
     27840     27841     27842     27843     27842     27844     27843     27844
     27845     27846     27845     27847     27846     27847     27848     27849
     27848     27850     27849     27850     27851     27852     27851     27853
     27852     27853     27854     27855     27854     27856     27855     27856
     27857     27858     27857     27859     27858     27859     27860     27861
     27860     27862     27861     27862     27863     27864     27863     27865
     27864     27865     27866     27867     27866     27868     27867     27868
     27869     27870     27869     27871     27870     27871     27872     27873
     27872     27874     27873     27874     27875     27876     27875     27877
     27876     27877     27878     27879     27878     27880     27879     27880
     27881     27882     27881     27883     27882     27883     27884     27885
     27884     27886     27885     27886     27887     27888     27887     27889
     27888     27889     27890     27891     27890     27892     27891     27892
     27893     27894     27893     27895     27894     27895     27896     27897
     27896     27898     27897     27898     27899     27900     27899     27901
     27900     27901     27902     27903     27902     27904     27903     27904
     27905     27906     27905     27907     27906     27907     27908     27909
     27908     27910     27909     27910     27911     27912     27911     27913
     27912     27913     27914     27915     27914     27916     27915     27916
     27917     27918     27917     27919     27918     27919     27920     27921
     27920     27922     27921     27922     27923     27924     27923     27925
     27924     27925     27926     27927     27926     27928     27927     27928
     27929     27930     27929     27931     27930     27931     27932     27933
     27932     27934     27933     27934     27935     27936     27935     27937
     27936     27937     27938     27939     27938     27940     27939     27940
     27941     27942     27941     27943     27942     27943     27944     27945
     27944     27946     27945     27946     27947     27948     27947     27949
     27948     27949     27950     27951     27950     27952     27951     27952
     27953     27954     27953     27955     27954     27955     27956     27957
     27956     27958     27957     27958     27959     27960     27959     27961
     27960     27961     27962     27963     27962     27964     27963     27964
     27965     27966     27965     27967     27966     27967     27968     27969
     27968     27970     27969     27970     27971     27972     27971     27973
     27972     27973     27974     27975     27974     27976     27975     27976
     27977     27978     27977     27979     27978     27979     27980     27981
     27980     27982     27981     27982     27983     27984     27983     27985
     27984     27985     27986     27987     27986     27988     27987     27988
     27989     27990     27989     27991     27990     27991     27992     27993
     27992     27994     27993     27994     27995     27996     27995     27997
     27996     27997     27998     27999     27998     28000     27999     28000
     28001     28002     28001     28003     28002     28003     28004     28005
     28004     28006     28005     28006     28007     28008     28007     28009
     28008     28009     28010     28011     28010     28012     28011     28012
     28013     28014     28013     28015     28014     28015     28016     28017
     28016     28018     28017     28018     28019     28020     28019     28021
     28020     28021     28022     28023     28022     28024     28023     28024
     28025     28026     28025     28027     28026     28027     28028     28029
     28028     28030     28029     28030     28031     28032     28031     28033
     28032     28033     28034     28035     28034     28036     28035     28036
     28037     28038     28037     28039     28038     28039     28040     28041
     28040     28042     28041     28042     28043     28044     28043     28045
     28044     28045     28046     28047     28046     28048     28047     28048
     28049     28050     28049     28051     28050     28051     28052     28053
     28052     28054     28053     28054     28055     28056     28055     28057
     28056     28057     28058     28059     28058     28060     28059     28060
     28061     28062     28061     28063     28062     28063     28064     28065
     28064     28066     28065     28066     28067     28068     28067     28069
     28068     28069     28070     28071     28070     28072     28071     28072
     28073     28074     28073     28075     28074     28075     28076     28077
     28076     28078     28077     28078     28079     28080     28079     28081
     28080     28081     28082     28083     28082     28084     28083     28084
     28085     28086     28085     28087     28086     28087     28088     28089
     28088     28090     28089     28090     28091     28092     28091     28093
     28092     28093     28094     28095     28094     28096     28095     28096
     28097     28098     28097     28099     28098     28099     28100     28101
     28100     28102     28101     28102     28103     28104     28103     28105
     28104     28105     28106     28107     28106     28108     28107     28108
     28109     28110     28109     28111     28110     28111     28112     28113
     28112     28114     28113     28114     28115     28116     28115     28117
     28116     28117     28118     28119     28118     28120     28119     28120
     28121     28122     28121     28123     28122     28123     28124     28125
     28124     28126     28125     28126     28127     28128     28127     28129
     28128     28129     28130     28131     28130     28132     28131     28132
     28133     28134     28133     28135     28134     28135     28136     28137
     28136     28138     28137     28138     28139     28140     28139     28141
     28140     28141     28142     28143     28142     28144     28143     28144
     28145     28146     28145     28147     28146     28147     28148     28149
     28148     28150     28149     28150     28151     28152     28151     28153
     28152     28153     28154     28155     28154     28156     28155     28156
     28157     28158     28157     28159     28158     28159     28160     28161
     28160     28162     28161     28162     28163     28164     28163     28165
     28164     28165     28166     28167     28166     28168     28167     28168
     28169     28170     28169     28171     28170     28171     28172     28173
     28172     28174     28173     28174     28175     28176     28175     28177
     28176     28177     28178     28179     28178     28180     28179     28180
     28181     28182     28181     28183     28182     28183     28184     28185
     28184     28186     28185     28186     28187     28188     28187     28189
     28188     28189     28190     28191     28190     28192     28191     28192
     28193     28194     28193     28195     28194     28195     28196     28197
     28196     28198     28197     28198     28199     28200     28199     28201
     28200     28201     28202     28203     28202     28204     28203     28204
     28205     28206     28205     28207     28206     28207     28208     28209
     28208     28210     28209     28210     28211     28212     28211     28213
     28212     28213     28214     28215     28214     28216     28215     28216
     28217     28218     28217     28219     28218     28219     28220     28221
     28220     28222     28221     28222     28223     28224     28223     28225
     28224     28225     28226     28227     28226     28228     28227     28228
     28229     28230     28229     28231     28230     28231     28232     28233
     28232     28234     28233     28234     28235     28236     28235     28237
     28236     28237     28238     28239     28238     28240     28239     28240
     28241     28242     28241     28243     28242     28243     28244     28245
     28244     28246     28245     28246     28247     28248     28247     28249
     28248     28249     28250     28251     28250     28252     28251     28252
     28253     28254     28253     28255     28254     28255     28256     28257
     28256     28258     28257     28258     28259     28260     28259     28261
     28260     28261     28262     28263     28262     28264     28263     28264
     28265     28266     28265     28267     28266     28267     28268     28269
     28268     28270     28269     28270     28271     28272     28271     28273
     28272     28273     28274     28275     28274     28276     28275     28276
     28277     28278     28277     28279     28278     28279     28280     28281
     28280     28282     28281     28282     28283     28284     28283     28285
     28284     28285     28286     28287     28286     28288     28287     28288
     28289     28290     28289     28291     28290     28291     28292     28293
     28292     28294     28293     28294     28295     28296     28295     28297
     28296     28297     28298     28299     28298     28300     28299     28300
     28301     28302     28301     28303     28302     28303     28304     28305
     28304     28306     28305     28306     28307     28308     28307     28309
     28308     28309     28310     28311     28310     28312     28311     28312
     28313     28314     28313     28315     28314     28315     28316     28317
     28316     28318     28317     28318     28319     28320     28319     28321
     28320     28321     28322     28323     28322     28324     28323     28324
     28325     28326     28325     28327     28326     28327     28328     28329
     28328     28330     28329     28330     28331     28332     28331     28333
     28332     28333     28334     28335     28334     28336     28335     28336
     28337     28338     28337     28339     28338     28339     28340     28341
     28340     28342     28341     28342     28343     28344     28343     28345
     28344     28345     28346     28347     28346     28348     28347     28348
     28349     28350     28349     28351     28350     28351     28352     28353
     28352     28354     28353     28354     28355     28356     28355     28357
     28356     28357     28358     28359     28358     28360     28359     28360
     28361     28362     28361     28363     28362     28363     28364     28365
     28364     28366     28365     28366     28367     28368     28367     28369
     28368     28369     28370     28371     28370     28372     28371     28372
     28373     28374     28373     28375     28374     28375     28376     28377
     28376     28378     28377     28378     28379     28380     28379     28381
     28380     28381     28382     28383     28382     28384     28383     28384
     28385     28386     28385     28387     28386     28387     28388     28389
     28388     28390     28389     28390     28391     28392     28391     28393
     28392     28393     28394     28395     28394     28396     28395     28396
     28397     28398     28397     28399     28398     28399     28400     28401
     28400     28402     28401     28402     28403     28404     28403     28405
     28404     28405     28406     28407     28406     28408     28407     28408
     28409     28410     28409     28411     28410     28411     28412     28413
     28412     28414     28413     28414     28415     28416     28415     28417
     28416     28417     28418     28419     28418     28420     28419     28420
     28421     28422     28421     28423     28422     28423     28424     28425
     28424     28426     28425     28426     28427     28428     28427     28429
     28428     28429     28430     28431     28430     28432     28431     28432
     28433     28434     28433     28435     28434     28435     28436     28437
     28436     28438     28437     28438     28439     28440     28439     28441
     28440     28441     28442     28443     28442     28444     28443     28444
     28445     28446     28445     28447     28446     28447     28448     28449
     28448     28450     28449     28450     28451     28452     28451     28453
     28452     28453     28454     28455     28454     28456     28455     28456
     28457     28458     28457     28459     28458     28459     28460     28461
     28460     28462     28461     28462     28463     28464     28463     28465
     28464     28465     28466     28467     28466     28468     28467     28468
     28469     28470     28469     28471     28470     28471     28472     28473
     28472     28474     28473     28474     28475     28476     28475     28477
     28476     28477     28478     28479     28478     28480     28479     28480
     28481     28482     28481     28483     28482     28483     28484     28485
     28484     28486     28485     28486     28487     28488     28487     28489
     28488     28489     28490     28491     28490     28492     28491     28492
     28493     28494     28493     28495     28494     28495     28496     28497
     28496     28498     28497     28498     28499     28500     28499     28501
     28500     28501     28502     28503     28502     28504     28503     28504
     28505     28506     28505     28507     28506     28507     28508     28509
     28508     28510     28509     28510     28511     28512     28511     28513
     28512     28513     28514     28515     28514     28516     28515     28516
     28517     28518     28517     28519     28518     28519     28520     28521
     28520     28522     28521     28522     28523     28524     28523     28525
     28524     28525     28526     28527     28526     28528     28527     28528
     28529     28530     28529     28531     28530     28531     28532     28533
     28532     28534     28533     28534     28535     28536     28535     28537
     28536     28537     28538     28539     28538     28540     28539     28540
     28541     28542     28541     28543     28542     28543     28544     28545
     28544     28546     28545     28546     28547     28548     28547     28549
     28548     28549     28550     28551     28550     28552     28551     28552
     28553     28554     28553     28555     28554     28555     28556     28557
     28556     28558     28557     28558     28559     28560     28559     28561
     28560     28561     28562     28563     28562     28564     28563     28564
     28565     28566     28565     28567     28566     28567     28568     28569
     28568     28570     28569     28570     28571     28572     28571     28573
     28572     28573     28574     28575     28574     28576     28575     28576
     28577     28578     28577     28579     28578     28579     28580     28581
     28580     28582     28581     28582     28583     28584     28583     28585
     28584     28585     28586     28587     28586     28588     28587     28588
     28589     28590     28589     28591     28590     28591     28592     28593
     28592     28594     28593     28594     28595     28596     28595     28597
     28596     28597     28598     28599     28598     28600     28599     28600
     28601     28602     28601     28603     28602     28603     28604     28605
     28604     28606     28605     28606     28607     28608     28607     28609
     28608     28609     28610     28611     28610     28612     28611     28612
     28613     28614     28613     28615     28614     28615     28616     28617
     28616     28618     28617     28618     28619     28620     28619     28621
     28620     28621     28622     28623     28622     28624     28623     28624
     28625     28626     28625     28627     28626     28627     28628     28629
     28628     28630     28629     28630     28631     28632     28631     28633
     28632     28633     28634     28635     28634     28636     28635     28636
     28637     28638     28637     28639     28638     28639     28640     28641
     28640     28642     28641     28642     28643     28644     28643     28645
     28644     28645     28646     28647     28646     28648     28647     28648
     28649     28650     28649     28651     28650     28651     28652     28653
     28652     28654     28653     28654     28655     28656     28655     28657
     28656     28657     28658     28659     28658     28660     28659     28660
     28661     28662     28661     28663     28662     28663     28664     28665
     28664     28666     28665     28666     28667     28668     28667     28669
     28668     28669     28670     28671     28670     28672     28671     28672
     28673     28674     28673     28675     28674     28675     28676     28677
     28676     28678     28677     28678     28679     28680     28679     28681
     28680     28681     28682     28683     28682     28684     28683     28684
     28685     28686     28685     28687     28686     28687     28688     28689
     28688     28690     28689     28690     28691     28692     28691     28693
     28692     28693     28694     28695     28694     28696     28695     28696
     28697     28698     28697     28699     28698     28699     28700     28701
     28700     28702     28701     28702     28703     28704     28703     28705
     28704     28705     28706     28707     28706     28708     28707     28708
     28709     28710     28709     28711     28710     28711     28712     28713
     28712     28714     28713     28714     28715     28716     28715     28717
     28716     28717     28718     28719     28718     28720     28719     28720
     28721     28722     28721     28723     28722     28723     28724     28725
     28724     28726     28725     28726     28727     28728     28727     28729
     28728     28729     28730     28731     28730     28732     28731     28732
     28733     28734     28733     28735     28734     28735     28736     28737
     28736     28738     28737     28738     28739     28740     28739     28741
     28740     28741     28742     28743     28742     28744     28743     28744
     28745     28746     28745     28747     28746     28747     28748     28749
     28748     28750     28749     28750     28751     28752     28751     28753
     28752     28753     28754     28755     28754     28756     28755     28756
     28757     28758     28757     28759     28758     28759     28760     28761
     28760     28762     28761     28762     28763     28764     28763     28765
     28764     28765     28766     28767     28766     28768     28767     28768
     28769     28770     28769     28771     28770     28771     28772     28773
     28772     28774     28773     28774     28775     28776     28775     28777
     28776     28777     28778     28779     28778     28780     28779     28780
     28781     28782     28781     28783     28782     28783     28784     28785
     28784     28786     28785     28786     28787     28788     28787     28789
     28788     28789     28790     28791     28790     28792     28791     28792
     28793     28794     28793     28795     28794     28795     28796     28797
     28796     28798     28797     28798     28799     28800     28799     28801
     28800     28801     28802     28803     28802     28804     28803     28804
     28805     28806     28805     28807     28806     28807     28808     28809
     28808     28810     28809     28810     28811     28812     28811     28813
     28812     28813     28814     28815     28814     28816     28815     28816
     28817     28818     28817     28819     28818     28819     28820     28821
     28820     28822     28821     28822     28823     28824     28823     28825
     28824     28825     28826     28827     28826     28828     28827     28828
     28829     28830     28829     28831     28830     28831     28832     28833
     28832     28834     28833     28834     28835     28836     28835     28837
     28836     28837     28838     28839     28838     28840     28839     28840
     28841     28842     28841     28843     28842     28843     28844     28845
     28844     28846     28845     28846     28847     28848     28847     28849
     28848     28849     28850     28851     28850     28852     28851     28852
     28853     28854     28853     28855     28854     28855     28856     28857
     28856     28858     28857     28858     28859     28860     28859     28861
     28860     28861     28862     28863     28862     28864     28863     28864
     28865     28866     28865     28867     28866     28867     28868     28869
     28868     28870     28869     28870     28871     28872     28871     28873
     28872     28873     28874     28875     28874     28876     28875     28876
     28877     28878     28877     28879     28878     28879     28880     28881
     28880     28882     28881     28882     28883     28884     28883     28885
     28884     28885     28886     28887     28886     28888     28887     28888
     28889     28890     28889     28891     28890     28891     28892     28893
     28892     28894     28893     28894     28895     28896     28895     28897
     28896     28897     28898     28899     28898     28900     28899     28900
     28901     28902     28901     28903     28902     28903     28904     28905
     28904     28906     28905     28906     28907     28908     28907     28909
     28908     28909     28910     28911     28910     28912     28911     28912
     28913     28914     28913     28915     28914     28915     28916     28917
     28916     28918     28917     28918     28919     28920     28919     28921
     28920     28921     28922     28923     28922     28924     28923     28924
     28925     28926     28925     28927     28926     28927     28928     28929
     28928     28930     28929     28930     28931     28932     28931     28933
     28932     28933     28934     28935     28934     28936     28935     28936
     28937     28938     28937     28939     28938     28939     28940     28941
     28940     28942     28941     28942     28943     28944     28943     28945
     28944     28945     28946     28947     28946     28948     28947     28948
     28949     28950     28949     28951     28950     28951     28952     28953
     28952     28954     28953     28954     28955     28956     28955     28957
     28956     28957     28958     28959     28958     28960     28959     28960
     28961     28962     28961     28963     28962     28963     28964     28965
     28964     28966     28965     28966     28967     28968     28967     28969
     28968     28969     28970     28971     28970     28972     28971     28972
     28973     28974     28973     28975     28974     28975     28976     28977
     28976     28978     28977     28978     28979     28980     28979     28981
     28980     28981     28982     28983     28982     28984     28983     28984
     28985     28986     28985     28987     28986     28987     28988     28989
     28988     28990     28989     28990     28991     28992     28991     28993
     28992     28993     28994     28995     28994     28996     28995     28996
     28997     28998     28997     28999     28998     28999     29000     29001
     29000     29002     29001     29002     29003     29004     29003     29005
     29004     29005     29006     29007     29006     29008     29007     29008
     29009     29010     29009     29011     29010     29011     29012     29013
     29012     29014     29013     29014     29015     29016     29015     29017
     29016     29017     29018     29019     29018     29020     29019     29020
     29021     29022     29021     29023     29022     29023     29024     29025
     29024     29026     29025     29026     29027     29028     29027     29029
     29028     29029     29030     29031     29030     29032     29031     29032
     29033     29034     29033     29035     29034     29035     29036     29037
     29036     29038     29037     29038     29039     29040     29039     29041
     29040     29041     29042     29043     29042     29044     29043     29044
     29045     29046     29045     29047     29046     29047     29048     29049
     29048     29050     29049     29050     29051     29052     29051     29053
     29052     29053     29054     29055     29054     29056     29055     29056
     29057     29058     29057     29059     29058     29059     29060     29061
     29060     29062     29061     29062     29063     29064     29063     29065
     29064     29065     29066     29067     29066     29068     29067     29068
     29069     29070     29069     29071     29070     29071     29072     29073
     29072     29074     29073     29074     29075     29076     29075     29077
     29076     29077     29078     29079     29078     29080     29079     29080
     29081     29082     29081     29083     29082     29083     29084     29085
     29084     29086     29085     29086     29087     29088     29087     29089
     29088     29089     29090     29091     29090     29092     29091     29092
     29093     29094     29093     29095     29094     29095     29096     29097
     29096     29098     29097     29098     29099     29100     29099     29101
     29100     29101     29102     29103     29102     29104     29103     29104
     29105     29106     29105     29107     29106     29107     29108     29109
     29108     29110     29109     29110     29111     29112     29111     29113
     29112     29113     29114     29115     29114     29116     29115     29116
     29117     29118     29117     29119     29118     29119     29120     29121
     29120     29122     29121     29122     29123     29124     29123     29125
     29124     29125     29126     29127     29126     29128     29127     29128
     29129     29130     29129     29131     29130     29131     29132     29133
     29132     29134     29133     29134     29135     29136     29135     29137
     29136     29137     29138     29139     29138     29140     29139     29140
     29141     29142     29141     29143     29142     29143     29144     29145
     29144     29146     29145     29146     29147     29148     29147     29149
     29148     29149     29150     29151     29150     29152     29151     29152
     29153     29154     29153     29155     29154     29155     29156     29157
     29156     29158     29157     29158     29159     29160     29159     29161
     29160     29161     29162     29163     29162     29164     29163     29164
     29165     29166     29165     29167     29166     29167     29168     29169
     29168     29170     29169     29170     29171     29172     29171     29173
     29172     29173     29174     29175     29174     29176     29175     29176
     29177     29178     29177     29179     29178     29179     29180     29181
     29180     29182     29181     29182     29183     29184     29183     29185
     29184     29185     29186     29187     29186     29188     29187     29188
     29189     29190     29189     29191     29190     29191     29192     29193
     29192     29194     29193     29194     29195     29196     29195     29197
     29196     29197     29198     29199     29198     29200     29199     29200
     29201     29202     29201     29203     29202     29203     29204     29205
     29204     29206     29205     29206     29207     29208     29207     29209
     29208     29209     29210     29211     29210     29212     29211     29212
     29213     29214     29213     29215     29214     29215     29216     29217
     29216     29218     29217     29218     29219     29220     29219     29221
     29220     29221     29222     29223     29222     29224     29223     29224
     29225     29226     29225     29227     29226     29227     29228     29229
     29228     29230     29229     29230     29231     29232     29231     29233
     29232     29233     29234     29235     29234     29236     29235     29236
     29237     29238     29237     29239     29238     29239     29240     29241
     29240     29242     29241     29242     29243     29244     29243     29245
     29244     29245     29246     29247     29246     29248     29247     29248
     29249     29250     29249     29251     29250     29251     29252     29253
     29252     29254     29253     29254     29255     29256     29255     29257
     29256     29257     29258     29259     29258     29260     29259     29260
     29261     29262     29261     29263     29262     29263     29264     29265
     29264     29266     29265     29266     29267     29268     29267     29269
     29268     29269     29270     29271     29270     29272     29271     29272
     29273     29274     29273     29275     29274     29275     29276     29277
     29276     29278     29277     29278     29279     29280     29279     29281
     29280     29281     29282     29283     29282     29284     29283     29284
     29285     29286     29285     29287     29286     29287     29288     29289
     29288     29290     29289     29290     29291     29292     29291     29293
     29292     29293     29294     29295     29294     29296     29295     29296
     29297     29298     29297     29299     29298     29299     29300     29301
     29300     29302     29301     29302     29303     29304     29303     29305
     29304     29305     29306     29307     29306     29308     29307     29308
     29309     29310     29309     29311     29310     29311     29312     29313
     29312     29314     29313     29314     29315     29316     29315     29317
     29316     29317     29318     29319     29318     29320     29319     29320
     29321     29322     29321     29323     29322     29323     29324     29325
     29324     29326     29325     29326     29327     29328     29327     29329
     29328     29329     29330     29331     29330     29332     29331     29332
     29333     29334     29333     29335     29334     29335     29336     29337
     29336     29338     29337     29338     29339     29340     29339     29341
     29340     29341     29342     29343     29342     29344     29343     29344
     29345     29346     29345     29347     29346     29347     29348     29349
     29348     29350     29349     29350     29351     29352     29351     29353
     29352     29353     29354     29355     29354     29356     29355     29356
     29357     29358     29357     29359     29358     29359     29360     29361
     29360     29362     29361     29362     29363     29364     29363     29365
     29364     29365     29366     29367     29366     29368     29367     29368
     29369     29370     29369     29371     29370     29371     29372     29373
     29372     29374     29373     29374     29375     29376     29375     29377
     29376     29377     29378     29379     29378     29380     29379     29380
     29381     29382     29381     29383     29382     29383     29384     29385
     29384     29386     29385     29386     29387     29388     29387     29389
     29388     29389     29390     29391     29390     29392     29391     29392
     29393     29394     29393     29395     29394     29395     29396     29397
     29396     29398     29397     29398     29399     29400     29399     29401
     29400     29401     29402     29403     29402     29404     29403     29404
     29405     29406     29405     29407     29406     29407     29408     29409
     29408     29410     29409     29410     29411     29412     29411     29413
     29412     29413     29414     29415     29414     29416     29415     29416
     29417     29418     29417     29419     29418     29419     29420     29421
     29420     29422     29421     29422     29423     29424     29423     29425
     29424     29425     29426     29427     29426     29428     29427     29428
     29429     29430     29429     29431     29430     29431     29432     29433
     29432     29434     29433     29434     29435     29436     29435     29437
     29436     29437     29438     29439     29438     29440     29439     29440
     29441     29442     29441     29443     29442     29443     29444     29445
     29444     29446     29445     29446     29447     29448     29447     29449
     29448     29449     29450     29451     29450     29452     29451     29452
     29453     29454     29453     29455     29454     29455     29456     29457
     29456     29458     29457     29458     29459     29460     29459     29461
     29460     29461     29462     29463     29462     29464     29463     29464
     29465     29466     29465     29467     29466     29467     29468     29469
     29468     29470     29469     29470     29471     29472     29471     29473
     29472     29473     29474     29475     29474     29476     29475     29476
     29477     29478     29477     29479     29478     29479     29480     29481
     29480     29482     29481     29482     29483     29484     29483     29485
     29484     29485     29486     29487     29486     29488     29487     29488
     29489     29490     29489     29491     29490     29491     29492     29493
     29492     29494     29493     29494     29495     29496     29495     29497
     29496     29497     29498     29499     29498     29500     29499     29500
     29501     29502     29501     29503     29502     29503     29504     29505
     29504     29506     29505     29506     29507     29508     29507     29509
     29508     29509     29510     29511     29510     29512     29511     29512
     29513     29514     29513     29515     29514     29515     29516     29517
     29516     29518     29517     29518     29519     29520     29519     29521
     29520     29521     29522     29523     29522     29524     29523     29524
     29525     29526     29525     29527     29526     29527     29528     29529
     29528     29530     29529     29530     29531     29532     29531     29533
     29532     29533     29534     29535     29534     29536     29535     29536
     29537     29538     29537     29539     29538     29539     29540     29541
     29540     29542     29541     29542     29543     29544     29543     29545
     29544     29545     29546     29547     29546     29548     29547     29548
     29549     29550     29549     29551     29550     29551     29552     29553
     29552     29554     29553     29554     29555     29556     29555     29557
     29556     29557     29558     29559     29558     29560     29559     29560
     29561     29562     29561     29563     29562     29563     29564     29565
     29564     29566     29565     29566     29567     29568     29567     29569
     29568     29569     29570     29571     29570     29572     29571     29572
     29573     29574     29573     29575     29574     29575     29576     29577
     29576     29578     29577     29578     29579     29580     29579     29581
     29580     29581     29582     29583     29582     29584     29583     29584
     29585     29586     29585     29587     29586     29587     29588     29589
     29588     29590     29589     29590     29591     29592     29591     29593
     29592     29593     29594     29595     29594     29596     29595     29596
     29597     29598     29597     29599     29598     29599     29600     29601
     29600     29602     29601     29602     29603     29604     29603     29605
     29604     29605     29606     29607     29606     29608     29607     29608
     29609     29610     29609     29611     29610     29611     29612     29613
     29612     29614     29613     29614     29615     29616     29615     29617
     29616     29617     29618     29619     29618     29620     29619     29620
     29621     29622     29621     29623     29622     29623     29624     29625
     29624     29626     29625     29626     29627     29628     29627     29629
     29628     29629     29630     29631     29630     29632     29631     29632
     29633     29634     29633     29635     29634     29635     29636     29637
     29636     29638     29637     29638     29639     29640     29639     29641
     29640     29641     29642     29643     29642     29644     29643     29644
     29645     29646     29645     29647     29646     29647     29648     29649
     29648     29650     29649     29650     29651     29652     29651     29653
     29652     29653     29654     29655     29654     29656     29655     29656
     29657     29658     29657     29659     29658     29659     29660     29661
     29660     29662     29661     29662     29663     29664     29663     29665
     29664     29665     29666     29667     29666     29668     29667     29668
     29669     29670     29669     29671     29670     29671     29672     29673
     29672     29674     29673     29674     29675     29676     29675     29677
     29676     29677     29678     29679     29678     29680     29679     29680
     29681     29682     29681     29683     29682     29683     29684     29685
     29684     29686     29685     29686     29687     29688     29687     29689
     29688     29689     29690     29691     29690     29692     29691     29692
     29693     29694     29693     29695     29694     29695     29696     29697
     29696     29698     29697     29698     29699     29700     29699     29701
     29700     29701     29702     29703     29702     29704     29703     29704
     29705     29706     29705     29707     29706     29707     29708     29709
     29708     29710     29709     29710     29711     29712     29711     29713
     29712     29713     29714     29715     29714     29716     29715     29716
     29717     29718     29717     29719     29718     29719     29720     29721
     29720     29722     29721     29722     29723     29724     29723     29725
     29724     29725     29726     29727     29726     29728     29727     29728
     29729     29730     29729     29731     29730     29731     29732     29733
     29732     29734     29733     29734     29735     29736     29735     29737
     29736     29737     29738     29739     29738     29740     29739     29740
     29741     29742     29741     29743     29742     29743     29744     29745
     29744     29746     29745     29746     29747     29748     29747     29749
     29748     29749     29750     29751     29750     29752     29751     29752
     29753     29754     29753     29755     29754     29755     29756     29757
     29756     29758     29757     29758     29759     29760     29759     29761
     29760     29761     29762     29763     29762     29764     29763     29764
     29765     29766     29765     29767     29766     29767     29768     29769
     29768     29770     29769     29770     29771     29772     29771     29773
     29772     29773     29774     29775     29774     29776     29775     29776
     29777     29778     29777     29779     29778     29779     29780     29781
     29780     29782     29781     29782     29783     29784     29783     29785
     29784     29785     29786     29787     29786     29788     29787     29788
     29789     29790     29789     29791     29790     29791     29792     29793
     29792     29794     29793     29794     29795     29796     29795     29797
     29796     29797     29798     29799     29798     29800     29799     29800
     29801     29802     29801     29803     29802     29803     29804     29805
     29804     29806     29805     29806     29807     29808     29807     29809
     29808     29809     29810     29811     29810     29812     29811     29812
     29813     29814     29813     29815     29814     29815     29816     29817
     29816     29818     29817     29818     29819     29820     29819     29821
     29820     29821     29822     29823     29822     29824     29823     29824
     29825     29826     29825     29827     29826     29827     29828     29829
     29828     29830     29829     29830     29831     29832     29831     29833
     29832     29833     29834     29835     29834     29836     29835     29836
     29837     29838     29837     29839     29838     29839     29840     29841
     29840     29842     29841     29842     29843     29844     29843     29845
     29844     29845     29846     29847     29846     29848     29847     29848
     29849     29850     29849     29851     29850     29851     29852     29853
     29852     29854     29853     29854     29855     29856     29855     29857
     29856     29857     29858     29859     29858     29860     29859     29860
     29861     29862     29861     29863     29862     29863     29864     29865
     29864     29866     29865     29866     29867     29868     29867     29869
     29868     29869     29870     29871     29870     29872     29871     29872
     29873     29874     29873     29875     29874     29875     29876     29877
     29876     29878     29877     29878     29879     29880     29879     29881
     29880     29881     29882     29883     29882     29884     29883     29884
     29885     29886     29885     29887     29886     29887     29888     29889
     29888     29890     29889     29890     29891     29892     29891     29893
     29892     29893     29894     29895     29894     29896     29895     29896
     29897     29898     29897     29899     29898     29899     29900     29901
     29900     29902     29901     29902     29903     29904     29903     29905
     29904     29905     29906     29907     29906     29908     29907     29908
     29909     29910     29909     29911     29910     29911     29912     29913
     29912     29914     29913     29914     29915     29916     29915     29917
     29916     29917     29918     29919     29918     29920     29919     29920
     29921     29922     29921     29923     29922     29923     29924     29925
     29924     29926     29925     29926     29927     29928     29927     29929
     29928     29929     29930     29931     29930     29932     29931     29932
     29933     29934     29933     29935     29934     29935     29936     29937
     29936     29938     29937     29938     29939     29940     29939     29941
     29940     29941     29942     29943     29942     29944     29943     29944
     29945     29946     29945     29947     29946     29947     29948     29949
     29948     29950     29949     29950     29951     29952     29951     29953
     29952     29953     29954     29955     29954     29956     29955     29956
     29957     29958     29957     29959     29958     29959     29960     29961
     29960     29962     29961     29962     29963     29964     29963     29965
     29964     29965     29966     29967     29966     29968     29967     29968
     29969     29970     29969     29971     29970     29971     29972     29973
     29972     29974     29973     29974     29975     29976     29975     29977
     29976     29977     29978     29979     29978     29980     29979     29980
     29981     29982     29981     29983     29982     29983     29984     29985
     29984     29986     29985     29986     29987     29988     29987     29989
     29988     29989     29990     29991     29990     29992     29991     29992
     29993     29994     29993     29995     29994     29995     29996     29997
     29996     29998     29997     29998     29999     30000     29999     30001
     30000     30001     30002     30003     30002     30004     30003     30004
     30005     30006     30005     30007     30006     30007     30008     30009
     30008     30010     30009     30010     30011     30012     30011     30013
     30012     30013     30014     30015     30014     30016     30015     30016
     30017     30018     30017     30019     30018     30019     30020     30021
     30020     30022     30021     30022     30023     30024     30023     30025
     30024     30025     30026     30027     30026     30028     30027     30028
     30029     30030     30029     30031     30030     30031     30032     30033
     30032     30034     30033     30034     30035     30036     30035     30037
     30036     30037     30038     30039     30038     30040     30039     30040
     30041     30042     30041     30043     30042     30043     30044     30045
     30044     30046     30045     30046     30047     30048     30047     30049
     30048     30049     30050     30051     30050     30052     30051     30052
     30053     30054     30053     30055     30054     30055     30056     30057
     30056     30058     30057     30058     30059     30060     30059     30061
     30060     30061     30062     30063     30062     30064     30063     30064
     30065     30066     30065     30067     30066     30067     30068     30069
     30068     30070     30069     30070     30071     30072     30071     30073
     30072     30073     30074     30075     30074     30076     30075     30076
     30077     30078     30077     30079     30078     30079     30080     30081
     30080     30082     30081     30082     30083     30084     30083     30085
     30084     30085     30086     30087     30086     30088     30087     30088
     30089     30090     30089     30091     30090     30091     30092     30093
     30092     30094     30093     30094     30095     30096     30095     30097
     30096     30097     30098     30099     30098     30100     30099     30100
     30101     30102     30101     30103     30102     30103     30104     30105
     30104     30106     30105     30106     30107     30108     30107     30109
     30108     30109     30110     30111     30110     30112     30111     30112
     30113     30114     30113     30115     30114     30115     30116     30117
     30116     30118     30117     30118     30119     30120     30119     30121
     30120     30121     30122     30123     30122     30124     30123     30124
     30125     30126     30125     30127     30126     30127     30128     30129
     30128     30130     30129     30130     30131     30132     30131     30133
     30132     30133     30134     30135     30134     30136     30135     30136
     30137     30138     30137     30139     30138     30139     30140     30141
     30140     30142     30141     30142     30143     30144     30143     30145
     30144     30145     30146     30147     30146     30148     30147     30148
     30149     30150     30149     30151     30150     30151     30152     30153
     30152     30154     30153     30154     30155     30156     30155     30157
     30156     30157     30158     30159     30158     30160     30159     30160
     30161     30162     30161     30163     30162     30163     30164     30165
     30164     30166     30165     30166     30167     30168     30167     30169
     30168     30169     30170     30171     30170     30172     30171     30172
     30173     30174     30173     30175     30174     30175     30176     30177
     30176     30178     30177     30178     30179     30180     30179     30181
     30180     30181     30182     30183     30182     30184     30183     30184
     30185     30186     30185     30187     30186     30187     30188     30189
     30188     30190     30189     30190     30191     30192     30191     30193
     30192     30193     30194     30195     30194     30196     30195     30196
     30197     30198     30197     30199     30198     30199     30200     30201
     30200     30202     30201     30202     30203     30204     30203     30205
     30204     30205     30206     30207     30206     30208     30207     30208
     30209     30210     30209     30211     30210     30211     30212     30213
     30212     30214     30213     30214     30215     30216     30215     30217
     30216     30217     30218     30219     30218     30220     30219     30220
     30221     30222     30221     30223     30222     30223     30224     30225
     30224     30226     30225     30226     30227     30228     30227     30229
     30228     30229     30230     30231     30230     30232     30231     30232
     30233     30234     30233     30235     30234     30235     30236     30237
     30236     30238     30237     30238     30239     30240     30239     30241
     30240     30241     30242     30243     30242     30244     30243     30244
     30245     30246     30245     30247     30246     30247     30248     30249
     30248     30250     30249     30250     30251     30252     30251     30253
     30252     30253     30254     30255     30254     30256     30255     30256
     30257     30258     30257     30259     30258     30259     30260     30261
     30260     30262     30261     30262     30263     30264     30263     30265
     30264     30265     30266     30267     30266     30268     30267     30268
     30269     30270     30269     30271     30270     30271     30272     30273
     30272     30274     30273     30274     30275     30276     30275     30277
     30276     30277     30278     30279     30278     30280     30279     30280
     30281     30282     30281     30283     30282     30283     30284     30285
     30284     30286     30285     30286     30287     30288     30287     30289
     30288     30289     30290     30291     30290     30292     30291     30292
     30293     30294     30293     30295     30294     30295     30296     30297
     30296     30298     30297     30298     30299     30300     30299     30301
     30300     30301     30302     30303     30302     30304     30303     30304
     30305     30306     30305     30307     30306     30307     30308     30309
     30308     30310     30309     30310     30311     30312     30311     30313
     30312     30313     30314     30315     30314     30316     30315     30316
     30317     30318     30317     30319     30318     30319     30320     30321
     30320     30322     30321     30322     30323     30324     30323     30325
     30324     30325     30326     30327     30326     30328     30327     30328
     30329     30330     30329     30331     30330     30331     30332     30333
     30332     30334     30333     30334     30335     30336     30335     30337
     30336     30337     30338     30339     30338     30340     30339     30340
     30341     30342     30341     30343     30342     30343     30344     30345
     30344     30346     30345     30346     30347     30348     30347     30349
     30348     30349     30350     30351     30350     30352     30351     30352
     30353     30354     30353     30355     30354     30355     30356     30357
     30356     30358     30357     30358     30359     30360     30359     30361
     30360     30361     30362     30363     30362     30364     30363     30364
     30365     30366     30365     30367     30366     30367     30368     30369
     30368     30370     30369     30370     30371     30372     30371     30373
     30372     30373     30374     30375     30374     30376     30375     30376
     30377     30378     30377     30379     30378     30379     30380     30381
     30380     30382     30381     30382     30383     30384     30383     30385
     30384     30385     30386     30387     30386     30388     30387     30388
     30389     30390     30389     30391     30390     30391     30392     30393
     30392     30394     30393     30394     30395     30396     30395     30397
     30396     30397     30398     30399     30398     30400     30399     30400
     30401     30402     30401     30403     30402     30403     30404     30405
     30404     30406     30405     30406     30407     30408     30407     30409
     30408     30409     30410     30411     30410     30412     30411     30412
     30413     30414     30413     30415     30414     30415     30416     30417
     30416     30418     30417     30418     30419     30420     30419     30421
     30420     30421     30422     30423     30422     30424     30423     30424
     30425     30426     30425     30427     30426     30427     30428     30429
     30428     30430     30429     30430     30431     30432     30431     30433
     30432     30433     30434     30435     30434     30436     30435     30436
     30437     30438     30437     30439     30438     30439     30440     30441
     30440     30442     30441     30442     30443     30444     30443     30445
     30444     30445     30446     30447     30446     30448     30447     30448
     30449     30450     30449     30451     30450     30451     30452     30453
     30452     30454     30453     30454     30455     30456     30455     30457
     30456     30457     30458     30459     30458     30460     30459     30460
     30461     30462     30461     30463     30462     30463     30464     30465
     30464     30466     30465     30466     30467     30468     30467     30469
     30468     30469     30470     30471     30470     30472     30471     30472
     30473     30474     30473     30475     30474     30475     30476     30477
     30476     30478     30477     30478     30479     30480     30479     30481
     30480     30481     30482     30483     30482     30484     30483     30484
     30485     30486     30485     30487     30486     30487     30488     30489
     30488     30490     30489     30490     30491     30492     30491     30493
     30492     30493     30494     30495     30494     30496     30495     30496
     30497     30498     30497     30499     30498     30499     30500     30501
     30500     30502     30501     30502     30503     30504     30503     30505
     30504     30505     30506     30507     30506     30508     30507     30508
     30509     30510     30509     30511     30510     30511     30512     30513
     30512     30514     30513     30514     30515     30516     30515     30517
     30516     30517     30518     30519     30518     30520     30519     30520
     30521     30522     30521     30523     30522     30523     30524     30525
     30524     30526     30525     30526     30527     30528     30527     30529
     30528     30529     30530     30531     30530     30532     30531     30532
     30533     30534     30533     30535     30534     30535     30536     30537
     30536     30538     30537     30538     30539     30540     30539     30541
     30540     30541     30542     30543     30542     30544     30543     30544
     30545     30546     30545     30547     30546     30547     30548     30549
     30548     30550     30549     30550     30551     30552     30551     30553
     30552     30553     30554     30555     30554     30556     30555     30556
     30557     30558     30557     30559     30558     30559     30560     30561
     30560     30562     30561     30562     30563     30564     30563     30565
     30564     30565     30566     30567     30566     30568     30567     30568
     30569     30570     30569     30571     30570     30571     30572     30573
     30572     30574     30573     30574     30575     30576     30575     30577
     30576     30577     30578     30579     30578     30580     30579     30580
     30581     30582     30581     30583     30582     30583     30584     30585
     30584     30586     30585     30586     30587     30588     30587     30589
     30588     30589     30590     30591     30590     30592     30591     30592
     30593     30594     30593     30595     30594     30595     30596     30597
     30596     30598     30597     30598     30599     30600     30599     30601
     30600     30601     30602     30603     30602     30604     30603     30604
     30605     30606     30605     30607     30606     30607     30608     30609
     30608     30610     30609     30610     30611     30612     30611     30613
     30612     30613     30614     30615     30614     30616     30615     30616
     30617     30618     30617     30619     30618     30619     30620     30621
     30620     30622     30621     30622     30623     30624     30623     30625
     30624     30625     30626     30627     30626     30628     30627     30628
     30629     30630     30629     30631     30630     30631     30632     30633
     30632     30634     30633     30634     30635     30636     30635     30637
     30636     30637     30638     30639     30638     30640     30639     30640
     30641     30642     30641     30643     30642     30643     30644     30645
     30644     30646     30645     30646     30647     30648     30647     30649
     30648     30649     30650     30651     30650     30652     30651     30652
     30653     30654     30653     30655     30654     30655     30656     30657
     30656     30658     30657     30658     30659     30660     30659     30661
     30660     30661     30662     30663     30662     30664     30663     30664
     30665     30666     30665     30667     30666     30667     30668     30669
     30668     30670     30669     30670     30671     30672     30671     30673
     30672     30673     30674     30675     30674     30676     30675     30676
     30677     30678     30677     30679     30678     30679     30680     30681
     30680     30682     30681     30682     30683     30684     30683     30685
     30684     30685     30686     30687     30686     30688     30687     30688
     30689     30690     30689     30691     30690     30691     30692     30693
     30692     30694     30693     30694     30695     30696     30695     30697
     30696     30697     30698     30699     30698     30700     30699     30700
     30701     30702     30701     30703     30702     30703     30704     30705
     30704     30706     30705     30706     30707     30708     30707     30709
     30708     30709     30710     30711     30710     30712     30711     30712
     30713     30714     30713     30715     30714     30715     30716     30717
     30716     30718     30717     30718     30719     30720     30719     30721
     30720     30721     30722     30723     30722     30724     30723     30724
     30725     30726     30725     30727     30726     30727     30728     30729
     30728     30730     30729     30730     30731     30732     30731     30733
     30732     30733     30734     30735     30734     30736     30735     30736
     30737     30738     30737     30739     30738     30739     30740     30741
     30740     30742     30741     30742     30743     30744     30743     30745
     30744     30745     30746     30747     30746     30748     30747     30748
     30749     30750     30749     30751     30750     30751     30752     30753
     30752     30754     30753     30754     30755     30756     30755     30757
     30756     30757     30758     30759     30758     30760     30759     30760
     30761     30762     30761     30763     30762     30763     30764     30765
     30764     30766     30765     30766     30767     30768     30767     30769
     30768     30769     30770     30771     30770     30772     30771     30772
     30773     30774     30773     30775     30774     30775     30776     30777
     30776     30778     30777     30778     30779     30780     30779     30781
     30780     30781     30782     30783     30782     30784     30783     30784
     30785     30786     30785     30787     30786     30787     30788     30789
     30788     30790     30789     30790     30791     30792     30791     30793
     30792     30793     30794     30795     30794     30796     30795     30796
     30797     30798     30797     30799     30798     30799     30800     30801
     30800     30802     30801     30802     30803     30804     30803     30805
     30804     30805     30806     30807     30806     30808     30807     30808
     30809     30810     30809     30811     30810     30811     30812     30813
     30812     30814     30813     30814     30815     30816     30815     30817
     30816     30817     30818     30819     30818     30820     30819     30820
     30821     30822     30821     30823     30822     30823     30824     30825
     30824     30826     30825     30826     30827     30828     30827     30829
     30828     30829     30830     30831     30830     30832     30831     30832
     30833     30834     30833     30835     30834     30835     30836     30837
     30836     30838     30837     30838     30839     30840     30839     30841
     30840     30841     30842     30843     30842     30844     30843     30844
     30845     30846     30845     30847     30846     30847     30848     30849
     30848     30850     30849     30850     30851     30852     30851     30853
     30852     30853     30854     30855     30854     30856     30855     30856
     30857     30858     30857     30859     30858     30859     30860     30861
     30860     30862     30861     30862     30863     30864     30863     30865
     30864     30865     30866     30867     30866     30868     30867     30868
     30869     30870     30869     30871     30870     30871     30872     30873
     30872     30874     30873     30874     30875     30876     30875     30877
     30876     30877     30878     30879     30878     30880     30879     30880
     30881     30882     30881     30883     30882     30883     30884     30885
     30884     30886     30885     30886     30887     30888     30887     30889
     30888     30889     30890     30891     30890     30892     30891     30892
     30893     30894     30893     30895     30894     30895     30896     30897
     30896     30898     30897     30898     30899     30900     30899     30901
     30900     30901     30902     30903     30902     30904     30903     30904
     30905     30906     30905     30907     30906     30907     30908     30909
     30908     30910     30909     30910     30911     30912     30911     30913
     30912     30913     30914     30915     30914     30916     30915     30916
     30917     30918     30917     30919     30918     30919     30920     30921
     30920     30922     30921     30922     30923     30924     30923     30925
     30924     30925     30926     30927     30926     30928     30927     30928
     30929     30930     30929     30931     30930     30931     30932     30933
     30932     30934     30933     30934     30935     30936     30935     30937
     30936     30937     30938     30939     30938     30940     30939     30940
     30941     30942     30941     30943     30942     30943     30944     30945
     30944     30946     30945     30946     30947     30948     30947     30949
     30948     30949     30950     30951     30950     30952     30951     30952
     30953     30954     30953     30955     30954     30955     30956     30957
     30956     30958     30957     30958     30959     30960     30959     30961
     30960     30961     30962     30963     30962     30964     30963     30964
     30965     30966     30965     30967     30966     30967     30968     30969
     30968     30970     30969     30970     30971     30972     30971     30973
     30972     30973     30974     30975     30974     30976     30975     30976
     30977     30978     30977     30979     30978     30979     30980     30981
     30980     30982     30981     30982     30983     30984     30983     30985
     30984     30985     30986     30987     30986     30988     30987     30988
     30989     30990     30989     30991     30990     30991     30992     30993
     30992     30994     30993     30994     30995     30996     30995     30997
     30996     30997     30998     30999     30998     31000     30999     31000
     31001     31002     31001     31003     31002     31003     31004     31005
     31004     31006     31005     31006     31007     31008     31007     31009
     31008     31009     31010     31011     31010     31012     31011     31012
     31013     31014     31013     31015     31014     31015     31016     31017
     31016     31018     31017     31018     31019     31020     31019     31021
     31020     31021     31022     31023     31022     31024     31023     31024
     31025     31026     31025     31027     31026     31027     31028     31029
     31028     31030     31029     31030     31031     31032     31031     31033
     31032     31033     31034     31035     31034     31036     31035     31036
     31037     31038     31037     31039     31038     31039     31040     31041
     31040     31042     31041     31042     31043     31044     31043     31045
     31044     31045     31046     31047     31046     31048     31047     31048
     31049     31050     31049     31051     31050     31051     31052     31053
     31052     31054     31053     31054     31055     31056     31055     31057
     31056     31057     31058     31059     31058     31060     31059     31060
     31061     31062     31061     31063     31062     31063     31064     31065
     31064     31066     31065     31066     31067     31068     31067     31069
     31068     31069     31070     31071     31070     31072     31071     31072
     31073     31074     31073     31075     31074     31075     31076     31077
     31076     31078     31077     31078     31079     31080     31079     31081
     31080     31081     31082     31083     31082     31084     31083     31084
     31085     31086     31085     31087     31086     31087     31088     31089
     31088     31090     31089     31090     31091     31092     31091     31093
     31092     31093     31094     31095     31094     31096     31095     31096
     31097     31098     31097     31099     31098     31099     31100     31101
     31100     31102     31101     31102     31103     31104     31103     31105
     31104     31105     31106     31107     31106     31108     31107     31108
     31109     31110     31109     31111     31110     31111     31112     31113
     31112     31114     31113     31114     31115     31116     31115     31117
     31116     31117     31118     31119     31118     31120     31119     31120
     31121     31122     31121     31123     31122     31123     31124     31125
     31124     31126     31125     31126     31127     31128     31127     31129
     31128     31129     31130     31131     31130     31132     31131     31132
     31133     31134     31133     31135     31134     31135     31136     31137
     31136     31138     31137     31138     31139     31140     31139     31141
     31140     31141     31142     31143     31142     31144     31143     31144
     31145     31146     31145     31147     31146     31147     31148     31149
     31148     31150     31149     31150     31151     31152     31151     31153
     31152     31153     31154     31155     31154     31156     31155     31156
     31157     31158     31157     31159     31158     31159     31160     31161
     31160     31162     31161     31162     31163     31164     31163     31165
     31164     31165     31166     31167     31166     31168     31167     31168
     31169     31170     31169     31171     31170     31171     31172     31173
     31172     31174     31173     31174     31175     31176     31175     31177
     31176     31177     31178     31179     31178     31180     31179     31180
     31181     31182     31181     31183     31182     31183     31184     31185
     31184     31186     31185     31186     31187     31188     31187     31189
     31188     31189     31190     31191     31190     31192     31191     31192
     31193     31194     31193     31195     31194     31195     31196     31197
     31196     31198     31197     31198     31199     31200     31199     31201
     31200     31201     31202     31203     31202     31204     31203     31204
     31205     31206     31205     31207     31206     31207     31208     31209
     31208     31210     31209     31210     31211     31212     31211     31213
     31212     31213     31214     31215     31214     31216     31215     31216
     31217     31218     31217     31219     31218     31219     31220     31221
     31220     31222     31221     31222     31223     31224     31223     31225
     31224     31225     31226     31227     31226     31228     31227     31228
     31229     31230     31229     31231     31230     31231     31232     31233
     31232     31234     31233     31234     31235     31236     31235     31237
     31236     31237     31238     31239     31238     31240     31239     31240
     31241     31242     31241     31243     31242     31243     31244     31245
     31244     31246     31245     31246     31247     31248     31247     31249
     31248     31249     31250     31251     31250     31252     31251     31252
     31253     31254     31253     31255     31254     31255     31256     31257
     31256     31258     31257     31258     31259     31260     31259     31261
     31260     31261     31262     31263     31262     31264     31263     31264
     31265     31266     31265     31267     31266     31267     31268     31269
     31268     31270     31269     31270     31271     31272     31271     31273
     31272     31273     31274     31275     31274     31276     31275     31276
     31277     31278     31277     31279     31278     31279     31280     31281
     31280     31282     31281     31282     31283     31284     31283     31285
     31284     31285     31286     31287     31286     31288     31287     31288
     31289     31290     31289     31291     31290     31291     31292     31293
     31292     31294     31293     31294     31295     31296     31295     31297
     31296     31297     31298     31299     31298     31300     31299     31300
     31301     31302     31301     31303     31302     31303     31304     31305
     31304     31306     31305     31306     31307     31308     31307     31309
     31308     31309     31310     31311     31310     31312     31311     31312
     31313     31314     31313     31315     31314     31315     31316     31317
     31316     31318     31317     31318     31319     31320     31319     31321
     31320     31321     31322     31323     31322     31324     31323     31324
     31325     31326     31325     31327     31326     31327     31328     31329
     31328     31330     31329     31330     31331     31332     31331     31333
     31332     31333     31334     31335     31334     31336     31335     31336
     31337     31338     31337     31339     31338     31339     31340     31341
     31340     31342     31341     31342     31343     31344     31343     31345
     31344     31345     31346     31347     31346     31348     31347     31348
     31349     31350     31349     31351     31350     31351     31352     31353
     31352     31354     31353     31354     31355     31356     31355     31357
     31356     31357     31358     31359     31358     31360     31359     31360
     31361     31362     31361     31363     31362     31363     31364     31365
     31364     31366     31365     31366     31367     31368     31367     31369
     31368     31369     31370     31371     31370     31372     31371     31372
     31373     31374     31373     31375     31374     31375     31376     31377
     31376     31378     31377     31378     31379     31380     31379     31381
     31380     31381     31382     31383     31382     31384     31383     31384
     31385     31386     31385     31387     31386     31387     31388     31389
     31388     31390     31389     31390     31391     31392     31391     31393
     31392     31393     31394     31395     31394     31396     31395     31396
     31397     31398     31397     31399     31398     31399     31400     31401
     31400     31402     31401     31402     31403     31404     31403     31405
     31404     31405     31406     31407     31406     31408     31407     31408
     31409     31410     31409     31411     31410     31411     31412     31413
     31412     31414     31413     31414     31415     31416     31415     31417
     31416     31417     31418     31419     31418     31420     31419     31420
     31421     31422     31421     31423     31422     31423     31424     31425
     31424     31426     31425     31426     31427     31428     31427     31429
     31428     31429     31430     31431     31430     31432     31431     31432
     31433     31434     31433     31435     31434     31435     31436     31437
     31436     31438     31437     31438     31439     31440     31439     31441
     31440     31441     31442     31443     31442     31444     31443     31444
     31445     31446     31445     31447     31446     31447     31448     31449
     31448     31450     31449     31450     31451     31452     31451     31453
     31452     31453     31454     31455     31454     31456     31455     31456
     31457     31458     31457     31459     31458     31459     31460     31461
     31460     31462     31461     31462     31463     31464     31463     31465
     31464     31465     31466     31467     31466     31468     31467     31468
     31469     31470     31469     31471     31470     31471     31472     31473
     31472     31474     31473     31474     31475     31476     31475     31477
     31476     31477     31478     31479     31478     31480     31479     31480
     31481     31482     31481     31483     31482     31483     31484     31485
     31484     31486     31485     31486     31487     31488     31487     31489
     31488     31489     31490     31491     31490     31492     31491     31492
     31493     31494     31493     31495     31494     31495     31496     31497
     31496     31498     31497     31498     31499     31500     31499     31501
     31500     31501     31502     31503     31502     31504     31503     31504
     31505     31506     31505     31507     31506     31507     31508     31509
     31508     31510     31509     31510     31511     31512     31511     31513
     31512     31513     31514     31515     31514     31516     31515     31516
     31517     31518     31517     31519     31518     31519     31520     31521
     31520     31522     31521     31522     31523     31524     31523     31525
     31524     31525     31526     31527     31526     31528     31527     31528
     31529     31530     31529     31531     31530     31531     31532     31533
     31532     31534     31533     31534     31535     31536     31535     31537
     31536     31537     31538     31539     31538     31540     31539     31540
     31541     31542     31541     31543     31542     31543     31544     31545
     31544     31546     31545     31546     31547     31548     31547     31549
     31548     31549     31550     31551     31550     31552     31551     31552
     31553     31554     31553     31555     31554     31555     31556     31557
     31556     31558     31557     31558     31559     31560     31559     31561
     31560     31561     31562     31563     31562     31564     31563     31564
     31565     31566     31565     31567     31566     31567     31568     31569
     31568     31570     31569     31570     31571     31572     31571     31573
     31572     31573     31574     31575     31574     31576     31575     31576
     31577     31578     31577     31579     31578     31579     31580     31581
     31580     31582     31581     31582     31583     31584     31583     31585
     31584     31585     31586     31587     31586     31588     31587     31588
     31589     31590     31589     31591     31590     31591     31592     31593
     31592     31594     31593     31594     31595     31596     31595     31597
     31596     31597     31598     31599     31598     31600     31599     31600
     31601     31602     31601     31603     31602     31603     31604     31605
     31604     31606     31605     31606     31607     31608     31607     31609
     31608     31609     31610     31611     31610     31612     31611     31612
     31613     31614     31613     31615     31614     31615     31616     31617
     31616     31618     31617     31618     31619     31620     31619     31621
     31620     31621     31622     31623     31622     31624     31623     31624
     31625     31626     31625     31627     31626     31627     31628     31629
     31628     31630     31629     31630     31631     31632     31631     31633
     31632     31633     31634     31635     31634     31636     31635     31636
     31637     31638     31637     31639     31638     31639     31640     31641
     31640     31642     31641     31642     31643     31644     31643     31645
     31644     31645     31646     31647     31646     31648     31647     31648
     31649     31650     31649     31651     31650     31651     31652     31653
     31652     31654     31653     31654     31655     31656     31655     31657
     31656     31657     31658     31659     31658     31660     31659     31660
     31661     31662     31661     31663     31662     31663     31664     31665
     31664     31666     31665     31666     31667     31668     31667     31669
     31668     31669     31670     31671     31670     31672     31671     31672
     31673     31674     31673     31675     31674     31675     31676     31677
     31676     31678     31677     31678     31679     31680     31679     31681
     31680     31681     31682     31683     31682     31684     31683     31684
     31685     31686     31685     31687     31686     31687     31688     31689
     31688     31690     31689     31690     31691     31692     31691     31693
     31692     31693     31694     31695     31694     31696     31695     31696
     31697     31698     31697     31699     31698     31699     31700     31701
     31700     31702     31701     31702     31703     31704     31703     31705
     31704     31705     31706     31707     31706     31708     31707     31708
     31709     31710     31709     31711     31710     31711     31712     31713
     31712     31714     31713     31714     31715     31716     31715     31717
     31716     31717     31718     31719     31718     31720     31719     31720
     31721     31722     31721     31723     31722     31723     31724     31725
     31724     31726     31725     31726     31727     31728     31727     31729
     31728     31729     31730     31731     31730     31732     31731     31732
     31733     31734     31733     31735     31734     31735     31736     31737
     31736     31738     31737     31738     31739     31740     31739     31741
     31740     31741     31742     31743     31742     31744     31743     31744
     31745     31746     31745     31747     31746     31747     31748     31749
     31748     31750     31749     31750     31751     31752     31751     31753
     31752     31753     31754     31755     31754     31756     31755     31756
     31757     31758     31757     31759     31758     31759     31760     31761
     31760     31762     31761     31762     31763     31764     31763     31765
     31764     31765     31766     31767     31766     31768     31767     31768
     31769     31770     31769     31771     31770     31771     31772     31773
     31772     31774     31773     31774     31775     31776     31775     31777
     31776     31777     31778     31779     31778     31780     31779     31780
     31781     31782     31781     31783     31782     31783     31784     31785
     31784     31786     31785     31786     31787     31788     31787     31789
     31788     31789     31790     31791     31790     31792     31791     31792
     31793     31794     31793     31795     31794     31795     31796     31797
     31796     31798     31797     31798     31799     31800     31799     31801
     31800     31801     31802     31803     31802     31804     31803     31804
     31805     31806     31805     31807     31806     31807     31808     31809
     31808     31810     31809     31810     31811     31812     31811     31813
     31812     31813     31814     31815     31814     31816     31815     31816
     31817     31818     31817     31819     31818     31819     31820     31821
     31820     31822     31821     31822     31823     31824     31823     31825
     31824     31825     31826     31827     31826     31828     31827     31828
     31829     31830     31829     31831     31830     31831     31832     31833
     31832     31834     31833     31834     31835     31836     31835     31837
     31836     31837     31838     31839     31838     31840     31839     31840
     31841     31842     31841     31843     31842     31843     31844     31845
     31844     31846     31845     31846     31847     31848     31847     31849
     31848     31849     31850     31851     31850     31852     31851     31852
     31853     31854     31853     31855     31854     31855     31856     31857
     31856     31858     31857     31858     31859     31860     31859     31861
     31860     31861     31862     31863     31862     31864     31863     31864
     31865     31866     31865     31867     31866     31867     31868     31869
     31868     31870     31869     31870     31871     31872     31871     31873
     31872     31873     31874     31875     31874     31876     31875     31876
     31877     31878     31877     31879     31878     31879     31880     31881
     31880     31882     31881     31882     31883     31884     31883     31885
     31884     31885     31886     31887     31886     31888     31887     31888
     31889     31890     31889     31891     31890     31891     31892     31893
     31892     31894     31893     31894     31895     31896     31895     31897
     31896     31897     31898     31899     31898     31900     31899     31900
     31901     31902     31901     31903     31902     31903     31904     31905
     31904     31906     31905     31906     31907     31908     31907     31909
     31908     31909     31910     31911     31910     31912     31911     31912
     31913     31914     31913     31915     31914     31915     31916     31917
     31916     31918     31917     31918     31919     31920     31919     31921
     31920     31921     31922     31923     31922     31924     31923     31924
     31925     31926     31925     31927     31926     31927     31928     31929
     31928     31930     31929     31930     31931     31932     31931     31933
     31932     31933     31934     31935     31934     31936     31935     31936
     31937     31938     31937     31939     31938     31939     31940     31941
     31940     31942     31941     31942     31943     31944     31943     31945
     31944     31945     31946     31947     31946     31948     31947     31948
     31949     31950     31949     31951     31950     31951     31952     31953
     31952     31954     31953     31954     31955     31956     31955     31957
     31956     31957     31958     31959     31958     31960     31959     31960
     31961     31962     31961     31963     31962     31963     31964     31965
     31964     31966     31965     31966     31967     31968     31967     31969
     31968     31969     31970     31971     31970     31972     31971     31972
     31973     31974     31973     31975     31974     31975     31976     31977
     31976     31978     31977     31978     31979     31980     31979     31981
     31980     31981     31982     31983     31982     31984     31983     31984
     31985     31986     31985     31987     31986     31987     31988     31989
     31988     31990     31989     31990     31991     31992     31991     31993
     31992     31993     31994     31995     31994     31996     31995     31996
     31997     31998     31997     31999     31998     31999     32000     32001
     32000     32002     32001     32002     32003     32004     32003     32005
     32004     32005     32006     32007     32006     32008     32007     32008
     32009     32010     32009     32011     32010     32011     32012     32013
     32012     32014     32013     32014     32015     32016     32015     32017
     32016     32017     32018     32019     32018     32020     32019     32020
     32021     32022     32021     32023     32022     32023     32024     32025
     32024     32026     32025     32026     32027     32028     32027     32029
     32028     32029     32030     32031     32030     32032     32031     32032
     32033     32034     32033     32035     32034     32035     32036     32037
     32036     32038     32037     32038     32039     32040     32039     32041
     32040     32041     32042     32043     32042     32044     32043     32044
     32045     32046     32045     32047     32046     32047     32048     32049
     32048     32050     32049     32050     32051     32052     32051     32053
     32052     32053     32054     32055     32054     32056     32055     32056
     32057     32058     32057     32059     32058     32059     32060     32061
     32060     32062     32061     32062     32063     32064     32063     32065
     32064     32065     32066     32067     32066     32068     32067     32068
     32069     32070     32069     32071     32070     32071     32072     32073
     32072     32074     32073     32074     32075     32076     32075     32077
     32076     32077     32078     32079     32078     32080     32079     32080
     32081     32082     32081     32083     32082     32083     32084     32085
     32084     32086     32085     32086     32087     32088     32087     32089
     32088     32089     32090     32091     32090     32092     32091     32092
     32093     32094     32093     32095     32094     32095     32096     32097
     32096     32098     32097     32098     32099     32100     32099     32101
     32100     32101     32102     32103     32102     32104     32103     32104
     32105     32106     32105     32107     32106     32107     32108     32109
     32108     32110     32109     32110     32111     32112     32111     32113
     32112     32113     32114     32115     32114     32116     32115     32116
     32117     32118     32117     32119     32118     32119     32120     32121
     32120     32122     32121     32122     32123     32124     32123     32125
     32124     32125     32126     32127     32126     32128     32127     32128
     32129     32130     32129     32131     32130     32131     32132     32133
     32132     32134     32133     32134     32135     32136     32135     32137
     32136     32137     32138     32139     32138     32140     32139     32140
     32141     32142     32141     32143     32142     32143     32144     32145
     32144     32146     32145     32146     32147     32148     32147     32149
     32148     32149     32150     32151     32150     32152     32151     32152
     32153     32154     32153     32155     32154     32155     32156     32157
     32156     32158     32157     32158     32159     32160     32159     32161
     32160     32161     32162     32163     32162     32164     32163     32164
     32165     32166     32165     32167     32166     32167     32168     32169
     32168     32170     32169     32170     32171     32172     32171     32173
     32172     32173     32174     32175     32174     32176     32175     32176
     32177     32178     32177     32179     32178     32179     32180     32181
     32180     32182     32181     32182     32183     32184     32183     32185
     32184     32185     32186     32187     32186     32188     32187     32188
     32189     32190     32189     32191     32190     32191     32192     32193
     32192     32194     32193     32194     32195     32196     32195     32197
     32196     32197     32198     32199     32198     32200     32199     32200
     32201     32202     32201     32203     32202     32203     32204     32205
     32204     32206     32205     32206     32207     32208     32207     32209
     32208     32209     32210     32211     32210     32212     32211     32212
     32213     32214     32213     32215     32214     32215     32216     32217
     32216     32218     32217     32218     32219     32220     32219     32221
     32220     32221     32222     32223     32222     32224     32223     32224
     32225     32226     32225     32227     32226     32227     32228     32229
     32228     32230     32229     32230     32231     32232     32231     32233
     32232     32233     32234     32235     32234     32236     32235     32236
     32237     32238     32237     32239     32238     32239     32240     32241
     32240     32242     32241     32242     32243     32244     32243     32245
     32244     32245     32246     32247     32246     32248     32247     32248
     32249     32250     32249     32251     32250     32251     32252     32253
     32252     32254     32253     32254     32255     32256     32255     32257
     32256     32257     32258     32259     32258     32260     32259     32260
     32261     32262     32261     32263     32262     32263     32264     32265
     32264     32266     32265     32266     32267     32268     32267     32269
     32268     32269     32270     32271     32270     32272     32271     32272
     32273     32274     32273     32275     32274     32275     32276     32277
     32276     32278     32277     32278     32279     32280     32279     32281
     32280     32281     32282     32283     32282     32284     32283     32284
     32285     32286     32285     32287     32286     32287     32288     32289
     32288     32290     32289     32290     32291     32292     32291     32293
     32292     32293     32294     32295     32294     32296     32295     32296
     32297     32298     32297     32299     32298     32299     32300     32301
     32300     32302     32301     32302     32303     32304     32303     32305
     32304     32305     32306     32307     32306     32308     32307     32308
     32309     32310     32309     32311     32310     32311     32312     32313
     32312     32314     32313     32314     32315     32316     32315     32317
     32316     32317     32318     32319     32318     32320     32319     32320
     32321     32322     32321     32323     32322     32323     32324     32325
     32324     32326     32325     32326     32327     32328     32327     32329
     32328     32329     32330     32331     32330     32332     32331     32332
     32333     32334     32333     32335     32334     32335     32336     32337
     32336     32338     32337     32338     32339     32340     32339     32341
     32340     32341     32342     32343     32342     32344     32343     32344
     32345     32346     32345     32347     32346     32347     32348     32349
     32348     32350     32349     32350     32351     32352     32351     32353
     32352     32353     32354     32355     32354     32356     32355     32356
     32357     32358     32357     32359     32358     32359     32360     32361
     32360     32362     32361     32362     32363     32364     32363     32365
     32364     32365     32366     32367     32366     32368     32367     32368
     32369     32370     32369     32371     32370     32371     32372     32373
     32372     32374     32373     32374     32375     32376     32375     32377
     32376     32377     32378     32379     32378     32380     32379     32380
     32381     32382     32381     32383     32382     32383     32384     32385
     32384     32386     32385     32386     32387     32388     32387     32389
     32388     32389     32390     32391     32390     32392     32391     32392
     32393     32394     32393     32395     32394     32395     32396     32397
     32396     32398     32397     32398     32399     32400     32399     32401
     32400     32401     32402     32403     32402     32404     32403     32404
     32405     32406     32405     32407     32406     32407     32408     32409
     32408     32410     32409     32410     32411     32412     32411     32413
     32412     32413     32414     32415     32414     32416     32415     32416
     32417     32418     32417     32419     32418     32419     32420     32421
     32420     32422     32421     32422     32423     32424     32423     32425
     32424     32425     32426     32427     32426     32428     32427     32428
     32429     32430     32429     32431     32430     32431     32432     32433
     32432     32434     32433     32434     32435     32436     32435     32437
     32436     32437     32438     32439     32438     32440     32439     32440
     32441     32442     32441     32443     32442     32443     32444     32445
     32444     32446     32445     32446     32447     32448     32447     32449
     32448     32449     32450     32451     32450     32452     32451     32452
     32453     32454     32453     32455     32454     32455     32456     32457
     32456     32458     32457     32458     32459     32460     32459     32461
     32460     32461     32462     32463     32462     32464     32463     32464
     32465     32466     32465     32467     32466     32467     32468     32469
     32468     32470     32469     32470     32471     32472     32471     32473
     32472     32473     32474     32475     32474     32476     32475     32476
     32477     32478     32477     32479     32478     32479     32480     32481
     32480     32482     32481     32482     32483     32484     32483     32485
     32484     32485     32486     32487     32486     32488     32487     32488
     32489     32490     32489     32491     32490     32491     32492     32493
     32492     32494     32493     32494     32495     32496     32495     32497
     32496     32497     32498     32499     32498     32500     32499     32500
     32501     32502     32501     32503     32502     32503     32504     32505
     32504     32506     32505     32506     32507     32508     32507     32509
     32508     32509     32510     32511     32510     32512     32511     32512
     32513     32514     32513     32515     32514     32515     32516     32517
     32516     32518     32517     32518     32519     32520     32519     32521
     32520     32521     32522     32523     32522     32524     32523     32524
     32525     32526     32525     32527     32526     32527     32528     32529
     32528     32530     32529     32530     32531     32532     32531     32533
     32532     32533     32534     32535     32534     32536     32535     32536
     32537     32538     32537     32539     32538     32539     32540     32541
     32540     32542     32541     32542     32543     32544     32543     32545
     32544     32545     32546     32547     32546     32548     32547     32548
     32549     32550     32549     32551     32550     32551     32552     32553
     32552     32554     32553     32554     32555     32556     32555     32557
     32556     32557     32558     32559     32558     32560     32559     32560
     32561     32562     32561     32563     32562     32563     32564     32565
     32564     32566     32565     32566     32567     32568     32567     32569
     32568     32569     32570     32571     32570     32572     32571     32572
     32573     32574     32573     32575     32574     32575     32576     32577
     32576     32578     32577     32578     32579     32580     32579     32581
     32580     32581     32582     32583     32582     32584     32583     32584
     32585     32586     32585     32587     32586     32587     32588     32589
     32588     32590     32589     32590     32591     32592     32591     32593
     32592     32593     32594     32595     32594     32596     32595     32596
     32597     32598     32597     32599     32598     32599     32600     32601
     32600     32602     32601     32602     32603     32604     32603     32605
     32604     32605     32606     32607     32606     32608     32607     32608
     32609     32610     32609     32611     32610     32611     32612     32613
     32612     32614     32613     32614     32615     32616     32615     32617
     32616     32617     32618     32619     32618     32620     32619     32620
     32621     32622     32621     32623     32622     32623     32624     32625
     32624     32626     32625     32626     32627     32628     32627     32629
     32628     32629     32630     32631     32630     32632     32631     32632
     32633     32634     32633     32635     32634     32635     32636     32637
     32636     32638     32637     32638     32639     32640     32639     32641
     32640     32641     32642     32643     32642     32644     32643     32644
     32645     32646     32645     32647     32646     32647     32648     32649
     32648     32650     32649     32650     32651     32652     32651     32653
     32652     32653     32654     32655     32654     32656     32655     32656
     32657     32658     32657     32659     32658     32659     32660     32661
     32660     32662     32661     32662     32663     32664     32663     32665
     32664     32665     32666     32667     32666     32668     32667     32668
     32669     32670     32669     32671     32670     32671     32672     32673
     32672     32674     32673     32674     32675     32676     32675     32677
     32676     32677     32678     32679     32678     32680     32679     32680
     32681     32682     32681     32683     32682     32683     32684     32685
     32684     32686     32685     32686     32687     32688     32687     32689
     32688     32689     32690     32691     32690     32692     32691     32692
     32693     32694     32693     32695     32694     32695     32696     32697
     32696     32698     32697     32698     32699     32700     32699     32701
     32700     32701     32702     32703     32702     32704     32703     32704
     32705     32706     32705     32707     32706     32707     32708     32709
     32708     32710     32709     32710     32711     32712     32711     32713
     32712     32713     32714     32715     32714     32716     32715     32716
     32717     32718     32717     32719     32718     32719     32720     32721
     32720     32722     32721     32722     32723     32724     32723     32725
     32724     32725     32726     32727     32726     32728     32727     32728
     32729     32730     32729     32731     32730     32731     32732     32733
     32732     32734     32733     32734     32735     32736     32735     32737
     32736     32737     32738     32739     32738     32740     32739     32740
     32741     32742     32741     32743     32742     32743     32744     32745
     32744     32746     32745     32746     32747     32748     32747     32749
     32748     32749     32750     32751     32750     32752     32751     32752
     32753     32754     32753     32755     32754     32755     32756     32757
     32756     32758     32757     32758     32759     32760     32759     32761
     32760     32761     32762     32763     32762     32764     32763     32764
     32765     32766     32765     32767     32766     32767     32768     32769
     32768     32770     32769     32770     32771     32772     32771     32773
     32772     32773     32774     32775     32774     32776     32775     32776
     32777     32778     32777     32779     32778     32779     32780     32781
     32780     32782     32781     32782     32783     32784     32783     32785
     32784     32785     32786     32787     32786     32788     32787     32788
     32789     32790     32789     32791     32790     32791     32792     32793
     32792     32794     32793     32794     32795     32796     32795     32797
     32796     32797     32798     32799     32798     32800     32799     32800
     32801     32802     32801     32803     32802     32803     32804     32805
     32804     32806     32805     32806     32807     32808     32807     32809
     32808     32809     32810     32811     32810     32812     32811     32812
     32813     32814     32813     32815     32814     32815     32816     32817
     32816     32818     32817     32818     32819     32820     32819     32821
     32820     32821     32822     32823     32822     32824     32823     32824
     32825     32826     32825     32827     32826     32827     32828     32829
     32828     32830     32829     32830     32831     32832     32831     32833
     32832     32833     32834     32835     32834     32836     32835     32836
     32837     32838     32837     32839     32838     32839     32840     32841
     32840     32842     32841     32842     32843     32844     32843     32845
     32844     32845     32846     32847     32846     32848     32847     32848
     32849     32850     32849     32851     32850     32851     32852     32853
     32852     32854     32853     32854     32855     32856     32855     32857
     32856     32857     32858     32859     32858     32860     32859     32860
     32861     32862     32861     32863     32862     32863     32864     32865
     32864     32866     32865     32866     32867     32868     32867     32869
     32868     32869     32870     32871     32870     32872     32871     32872
     32873     32874     32873     32875     32874     32875     32876     32877
     32876     32878     32877     32878     32879     32880     32879     32881
     32880     32881     32882     32883     32882     32884     32883     32884
     32885     32886     32885     32887     32886     32887     32888     32889
     32888     32890     32889     32890     32891     32892     32891     32893
     32892     32893     32894     32895     32894     32896     32895     32896
     32897     32898     32897     32899     32898     32899     32900     32901
     32900     32902     32901     32902     32903     32904     32903     32905
     32904     32905     32906     32907     32906     32908     32907     32908
     32909     32910     32909     32911     32910     32911     32912     32913
     32912     32914     32913     32914     32915     32916     32915     32917
     32916     32917     32918     32919     32918     32920     32919     32920
     32921     32922     32921     32923     32922     32923     32924     32925
     32924     32926     32925     32926     32927     32928     32927     32929
     32928     32929     32930     32931     32930     32932     32931     32932
     32933     32934     32933     32935     32934     32935     32936     32937
     32936     32938     32937     32938     32939     32940     32939     32941
     32940     32941     32942     32943     32942     32944     32943     32944
     32945     32946     32945     32947     32946     32947     32948     32949
     32948     32950     32949     32950     32951     32952     32951     32953
     32952     32953     32954     32955     32954     32956     32955     32956
     32957     32958     32957     32959     32958     32959     32960     32961
     32960     32962     32961     32962     32963     32964     32963     32965
     32964     32965     32966     32967     32966     32968     32967     32968
     32969     32970     32969     32971     32970     32971     32972     32973
     32972     32974     32973     32974     32975     32976     32975     32977
     32976     32977     32978     32979     32978     32980     32979     32980
     32981     32982     32981     32983     32982     32983     32984     32985
     32984     32986     32985     32986     32987     32988     32987     32989
     32988     32989     32990     32991     32990     32992     32991     32992
     32993     32994     32993     32995     32994     32995     32996     32997
     32996     32998     32997     32998     32999     33000     32999     33001
     33000     33001     33002     33003     33002     33004     33003     33004
     33005     33006     33005     33007     33006     33007     33008     33009
     33008     33010     33009     33010     33011     33012     33011     33013
     33012     33013     33014     33015     33014     33016     33015     33016
     33017     33018     33017     33019     33018     33019     33020     33021
     33020     33022     33021     33022     33023     33024     33023     33025
     33024     33025     33026     33027     33026     33028     33027     33028
     33029     33030     33029     33031     33030     33031     33032     33033
     33032     33034     33033     33034     33035     33036     33035     33037
     33036     33037     33038     33039     33038     33040     33039     33040
     33041     33042     33041     33043     33042     33043     33044     33045
     33044     33046     33045     33046     33047     33048     33047     33049
     33048     33049     33050     33051     33050     33052     33051     33052
     33053     33054     33053     33055     33054     33055     33056     33057
     33056     33058     33057     33058     33059     33060     33059     33061
     33060     33061     33062     33063     33062     33064     33063     33064
     33065     33066     33065     33067     33066     33067     33068     33069
     33068     33070     33069     33070     33071     33072     33071     33073
     33072     33073     33074     33075     33074     33076     33075     33076
     33077     33078     33077     33079     33078     33079     33080     33081
     33080     33082     33081     33082     33083     33084     33083     33085
     33084     33085     33086     33087     33086     33088     33087     33088
     33089     33090     33089     33091     33090     33091     33092     33093
     33092     33094     33093     33094     33095     33096     33095     33097
     33096     33097     33098     33099     33098     33100     33099     33100
     33101     33102     33101     33103     33102     33103     33104     33105
     33104     33106     33105     33106     33107     33108     33107     33109
     33108     33109     33110     33111     33110     33112     33111     33112
     33113     33114     33113     33115     33114     33115     33116     33117
     33116     33118     33117     33118     33119     33120     33119     33121
     33120     33121     33122     33123     33122     33124     33123     33124
     33125     33126     33125     33127     33126     33127     33128     33129
     33128     33130     33129     33130     33131     33132     33131     33133
     33132     33133     33134     33135     33134     33136     33135     33136
     33137     33138     33137     33139     33138     33139     33140     33141
     33140     33142     33141     33142     33143     33144     33143     33145
     33144     33145     33146     33147     33146     33148     33147     33148
     33149     33150     33149     33151     33150     33151     33152     33153
     33152     33154     33153     33154     33155     33156     33155     33157
     33156     33157     33158     33159     33158     33160     33159     33160
     33161     33162     33161     33163     33162     33163     33164     33165
     33164     33166     33165     33166     33167     33168     33167     33169
     33168     33169     33170     33171     33170     33172     33171     33172
     33173     33174     33173     33175     33174     33175     33176     33177
     33176     33178     33177     33178     33179     33180     33179     33181
     33180     33181     33182     33183     33182     33184     33183     33184
     33185     33186     33185     33187     33186     33187     33188     33189
     33188     33190     33189     33190     33191     33192     33191     33193
     33192     33193     33194     33195     33194     33196     33195     33196
     33197     33198     33197     33199     33198     33199     33200     33201
     33200     33202     33201     33202     33203     33204     33203     33205
     33204     33205     33206     33207     33206     33208     33207     33208
     33209     33210     33209     33211     33210     33211     33212     33213
     33212     33214     33213     33214     33215     33216     33215     33217
     33216     33217     33218     33219     33218     33220     33219     33220
     33221     33222     33221     33223     33222     33223     33224     33225
     33224     33226     33225     33226     33227     33228     33227     33229
     33228     33229     33230     33231     33230     33232     33231     33232
     33233     33234     33233     33235     33234     33235     33236     33237
     33236     33238     33237     33238     33239     33240     33239     33241
     33240     33241     33242     33243     33242     33244     33243     33244
     33245     33246     33245     33247     33246     33247     33248     33249
     33248     33250     33249     33250     33251     33252     33251     33253
     33252     33253     33254     33255     33254     33256     33255     33256
     33257     33258     33257     33259     33258     33259     33260     33261
     33260     33262     33261     33262     33263     33264     33263     33265
     33264     33265     33266     33267     33266     33268     33267     33268
     33269     33270     33269     33271     33270     33271     33272     33273
     33272     33274     33273     33274     33275     33276     33275     33277
     33276     33277     33278     33279     33278     33280     33279     33280
     33281     33282     33281     33283     33282     33283     33284     33285
     33284     33286     33285     33286     33287     33288     33287     33289
     33288     33289     33290     33291     33290     33292     33291     33292
     33293     33294     33293     33295     33294     33295     33296     33297
     33296     33298     33297     33298     33299     33300     33299     33301
     33300     33301     33302     33303     33302     33304     33303     33304
     33305     33306     33305     33307     33306     33307     33308     33309
     33308     33310     33309     33310     33311     33312     33311     33313
     33312     33313     33314     33315     33314     33316     33315     33316
     33317     33318     33317     33319     33318     33319     33320     33321
     33320     33322     33321     33322     33323     33324     33323     33325
     33324     33325     33326     33327     33326     33328     33327     33328
     33329     33330     33329     33331     33330     33331     33332     33333
     33332     33334     33333     33334     33335     33336     33335     33337
     33336     33337     33338     33339     33338     33340     33339     33340
     33341     33342     33341     33343     33342     33343     33344     33345
     33344     33346     33345     33346     33347     33348     33347     33349
     33348     33349     33350     33351     33350     33352     33351     33352
     33353     33354     33353     33355     33354     33355     33356     33357
     33356     33358     33357     33358     33359     33360     33359     33361
     33360     33361     33362     33363     33362     33364     33363     33364
     33365     33366     33365     33367     33366     33367     33368     33369
     33368     33370     33369     33370     33371     33372     33371     33373
     33372     33373     33374     33375     33374     33376     33375     33376
     33377     33378     33377     33379     33378     33379     33380     33381
     33380     33382     33381     33382     33383     33384     33383     33385
     33384     33385     33386     33387     33386     33388     33387     33388
     33389     33390     33389     33391     33390     33391     33392     33393
     33392     33394     33393     33394     33395     33396     33395     33397
     33396     33397     33398     33399     33398     33400     33399     33400
     33401     33402     33401     33403     33402     33403     33404     33405
     33404     33406     33405     33406     33407     33408     33407     33409
     33408     33409     33410     33411     33410     33412     33411     33412
     33413     33414     33413     33415     33414     33415     33416     33417
     33416     33418     33417     33418     33419     33420     33419     33421
     33420     33421     33422     33423     33422     33424     33423     33424
     33425     33426     33425     33427     33426     33427     33428     33429
     33428     33430     33429     33430     33431     33432     33431     33433
     33432     33433     33434     33435     33434     33436     33435     33436
     33437     33438     33437     33439     33438     33439     33440     33441
     33440     33442     33441     33442     33443     33444     33443     33445
     33444     33445     33446     33447     33446     33448     33447     33448
     33449     33450     33449     33451     33450     33451     33452     33453
     33452     33454     33453     33454     33455     33456     33455     33457
     33456     33457     33458     33459     33458     33460     33459     33460
     33461     33462     33461     33463     33462     33463     33464     33465
     33464     33466     33465     33466     33467     33468     33467     33469
     33468     33469     33470     33471     33470     33472     33471     33472
     33473     33474     33473     33475     33474     33475     33476     33477
     33476     33478     33477     33478     33479     33480     33479     33481
     33480     33481     33482     33483     33482     33484     33483     33484
     33485     33486     33485     33487     33486     33487     33488     33489
     33488     33490     33489     33490     33491     33492     33491     33493
     33492     33493     33494     33495     33494     33496     33495     33496
     33497     33498     33497     33499     33498     33499     33500     33501
     33500     33502     33501     33502     33503     33504     33503     33505
     33504     33505     33506     33507     33506     33508     33507     33508
     33509     33510     33509     33511     33510     33511     33512     33513
     33512     33514     33513     33514     33515     33516     33515     33517
     33516     33517     33518     33519     33518     33520     33519     33520
     33521     33522     33521     33523     33522     33523     33524     33525
     33524     33526     33525     33526     33527     33528     33527     33529
     33528     33529     33530     33531     33530     33532     33531     33532
     33533     33534     33533     33535     33534     33535     33536     33537
     33536     33538     33537     33538     33539     33540     33539     33541
     33540     33541     33542     33543     33542     33544     33543     33544
     33545     33546     33545     33547     33546     33547     33548     33549
     33548     33550     33549     33550     33551     33552     33551     33553
     33552     33553     33554     33555     33554     33556     33555     33556
     33557     33558     33557     33559     33558     33559     33560     33561
     33560     33562     33561     33562     33563     33564     33563     33565
     33564     33565     33566     33567     33566     33568     33567     33568
     33569     33570     33569     33571     33570     33571     33572     33573
     33572     33574     33573     33574     33575     33576     33575     33577
     33576     33577     33578     33579     33578     33580     33579     33580
     33581     33582     33581     33583     33582     33583     33584     33585
     33584     33586     33585     33586     33587     33588     33587     33589
     33588     33589     33590     33591     33590     33592     33591     33592
     33593     33594     33593     33595     33594     33595     33596     33597
     33596     33598     33597     33598     33599     33600     33599     33601
     33600     33601     33602     33603     33602     33604     33603     33604
     33605     33606     33605     33607     33606     33607     33608     33609
     33608     33610     33609     33610     33611     33612     33611     33613
     33612     33613     33614     33615     33614     33616     33615     33616
     33617     33618     33617     33619     33618     33619     33620     33621
     33620     33622     33621     33622     33623     33624     33623     33625
     33624     33625     33626     33627     33626     33628     33627     33628
     33629     33630     33629     33631     33630     33631     33632     33633
     33632     33634     33633     33634     33635     33636     33635     33637
     33636     33637     33638     33639     33638     33640     33639     33640
     33641     33642     33641     33643     33642     33643     33644     33645
     33644     33646     33645     33646     33647     33648     33647     33649
     33648     33649     33650     33651     33650     33652     33651     33652
     33653     33654     33653     33655     33654     33655     33656     33657
     33656     33658     33657     33658     33659     33660     33659     33661
     33660     33661     33662     33663     33662     33664     33663     33664
     33665     33666     33665     33667     33666     33667     33668     33669
     33668     33670     33669     33670     33671     33672     33671     33673
     33672     33673     33674     33675     33674     33676     33675     33676
     33677     33678     33677     33679     33678     33679     33680     33681
     33680     33682     33681     33682     33683     33684     33683     33685
     33684     33685     33686     33687     33686     33688     33687     33688
     33689     33690     33689     33691     33690     33691     33692     33693
     33692     33694     33693     33694     33695     33696     33695     33697
     33696     33697     33698     33699     33698     33700     33699     33700
     33701     33702     33701     33703     33702     33703     33704     33705
     33704     33706     33705     33706     33707     33708     33707     33709
     33708     33709     33710     33711     33710     33712     33711     33712
     33713     33714     33713     33715     33714     33715     33716     33717
     33716     33718     33717     33718     33719     33720     33719     33721
     33720     33721     33722     33723     33722     33724     33723     33724
     33725     33726     33725     33727     33726     33727     33728     33729
     33728     33730     33729     33730     33731     33732     33731     33733
     33732     33733     33734     33735     33734     33736     33735     33736
     33737     33738     33737     33739     33738     33739     33740     33741
     33740     33742     33741     33742     33743     33744     33743     33745
     33744     33745     33746     33747     33746     33748     33747     33748
     33749     33750     33749     33751     33750     33751     33752     33753
     33752     33754     33753     33754     33755     33756     33755     33757
     33756     33757     33758     33759     33758     33760     33759     33760
     33761     33762     33761     33763     33762     33763     33764     33765
     33764     33766     33765     33766     33767     33768     33767     33769
     33768     33769     33770     33771     33770     33772     33771     33772
     33773     33774     33773     33775     33774     33775     33776     33777
     33776     33778     33777     33778     33779     33780     33779     33781
     33780     33781     33782     33783     33782     33784     33783     33784
     33785     33786     33785     33787     33786     33787     33788     33789
     33788     33790     33789     33790     33791     33792     33791     33793
     33792     33793     33794     33795     33794     33796     33795     33796
     33797     33798     33797     33799     33798     33799     33800     33801
     33800     33802     33801     33802     33803     33804     33803     33805
     33804     33805     33806     33807     33806     33808     33807     33808
     33809     33810     33809     33811     33810     33811     33812     33813
     33812     33814     33813     33814     33815     33816     33815     33817
     33816     33817     33818     33819     33818     33820     33819     33820
     33821     33822     33821     33823     33822     33823     33824     33825
     33824     33826     33825     33826     33827     33828     33827     33829
     33828     33829     33830     33831     33830     33832     33831     33832
     33833     33834     33833     33835     33834     33835     33836     33837
     33836     33838     33837     33838     33839     33840     33839     33841
     33840     33841     33842     33843     33842     33844     33843     33844
     33845     33846     33845     33847     33846     33847     33848     33849
     33848     33850     33849     33850     33851     33852     33851     33853
     33852     33853     33854     33855     33854     33856     33855     33856
     33857     33858     33857     33859     33858     33859     33860     33861
     33860     33862     33861     33862     33863     33864     33863     33865
     33864     33865     33866     33867     33866     33868     33867     33868
     33869     33870     33869     33871     33870     33871     33872     33873
     33872     33874     33873     33874     33875     33876     33875     33877
     33876     33877     33878     33879     33878     33880     33879     33880
     33881     33882     33881     33883     33882     33883     33884     33885
     33884     33886     33885     33886     33887     33888     33887     33889
     33888     33889     33890     33891     33890     33892     33891     33892
     33893     33894     33893     33895     33894     33895     33896     33897
     33896     33898     33897     33898     33899     33900     33899     33901
     33900     33901     33902     33903     33902     33904     33903     33904
     33905     33906     33905     33907     33906     33907     33908     33909
     33908     33910     33909     33910     33911     33912     33911     33913
     33912     33913     33914     33915     33914     33916     33915     33916
     33917     33918     33917     33919     33918     33919     33920     33921
     33920     33922     33921     33922     33923     33924     33923     33925
     33924     33925     33926     33927     33926     33928     33927     33928
     33929     33930     33929     33931     33930     33931     33932     33933
     33932     33934     33933     33934     33935     33936     33935     33937
     33936     33937     33938     33939     33938     33940     33939     33940
     33941     33942     33941     33943     33942     33943     33944     33945
     33944     33946     33945     33946     33947     33948     33947     33949
     33948     33949     33950     33951     33950     33952     33951     33952
     33953     33954     33953     33955     33954     33955     33956     33957
     33956     33958     33957     33958     33959     33960     33959     33961
     33960     33961     33962     33963     33962     33964     33963     33964
     33965     33966     33965     33967     33966     33967     33968     33969
     33968     33970     33969     33970     33971     33972     33971     33973
     33972     33973     33974     33975     33974     33976     33975     33976
     33977     33978     33977     33979     33978     33979     33980     33981
     33980     33982     33981     33982     33983     33984     33983     33985
     33984     33985     33986     33987     33986     33988     33987     33988
     33989     33990     33989     33991     33990     33991     33992     33993
     33992     33994     33993     33994     33995     33996     33995     33997
     33996     33997     33998     33999     33998     34000     33999     34000
     34001     34002     34001     34003     34002     34003     34004     34005
     34004     34006     34005     34006     34007     34008     34007     34009
     34008     34009     34010     34011     34010     34012     34011     34012
     34013     34014     34013     34015     34014     34015     34016     34017
     34016     34018     34017     34018     34019     34020     34019     34021
     34020     34021     34022     34023     34022     34024     34023     34024
     34025     34026     34025     34027     34026     34027     34028     34029
     34028     34030     34029     34030     34031     34032     34031     34033
     34032     34033     34034     34035     34034     34036     34035     34036
     34037     34038     34037     34039     34038     34039     34040     34041
     34040     34042     34041     34042     34043     34044     34043     34045
     34044     34045     34046     34047     34046     34048     34047     34048
     34049     34050     34049     34051     34050     34051     34052     34053
     34052     34054     34053     34054     34055     34056     34055     34057
     34056     34057     34058     34059     34058     34060     34059     34060
     34061     34062     34061     34063     34062     34063     34064     34065
     34064     34066     34065     34066     34067     34068     34067     34069
     34068     34069     34070     34071     34070     34072     34071     34072
     34073     34074     34073     34075     34074     34075     34076     34077
     34076     34078     34077     34078     34079     34080     34079     34081
     34080     34081     34082     34083     34082     34084     34083     34084
     34085     34086     34085     34087     34086     34087     34088     34089
     34088     34090     34089     34090     34091     34092     34091     34093
     34092     34093     34094     34095     34094     34096     34095     34096
     34097     34098     34097     34099     34098     34099     34100     34101
     34100     34102     34101     34102     34103     34104     34103     34105
     34104     34105     34106     34107     34106     34108     34107     34108
     34109     34110     34109     34111     34110     34111     34112     34113
     34112     34114     34113     34114     34115     34116     34115     34117
     34116     34117     34118     34119     34118     34120     34119     34120
     34121     34122     34121     34123     34122     34123     34124     34125
     34124     34126     34125     34126     34127     34128     34127     34129
     34128     34129     34130     34131     34130     34132     34131     34132
     34133     34134     34133     34135     34134     34135     34136     34137
     34136     34138     34137     34138     34139     34140     34139     34141
     34140     34141     34142     34143     34142     34144     34143     34144
     34145     34146     34145     34147     34146     34147     34148     34149
     34148     34150     34149     34150     34151     34152     34151     34153
     34152     34153     34154     34155     34154     34156     34155     34156
     34157     34158     34157     34159     34158     34159     34160     34161
     34160     34162     34161     34162     34163     34164     34163     34165
     34164     34165     34166     34167     34166     34168     34167     34168
     34169     34170     34169     34171     34170     34171     34172     34173
     34172     34174     34173     34174     34175     34176     34175     34177
     34176     34177     34178     34179     34178     34180     34179     34180
     34181     34182     34181     34183     34182     34183     34184     34185
     34184     34186     34185     34186     34187     34188     34187     34189
     34188     34189     34190     34191     34190     34192     34191     34192
     34193     34194     34193     34195     34194     34195     34196     34197
     34196     34198     34197     34198     34199     34200     34199     34201
     34200     34201     34202     34203     34202     34204     34203     34204
     34205     34206     34205     34207     34206     34207     34208     34209
     34208     34210     34209     34210     34211     34212     34211     34213
     34212     34213     34214     34215     34214     34216     34215     34216
     34217     34218     34217     34219     34218     34219     34220     34221
     34220     34222     34221     34222     34223     34224     34223     34225
     34224     34225     34226     34227     34226     34228     34227     34228
     34229     34230     34229     34231     34230     34231     34232     34233
     34232     34234     34233     34234     34235     34236     34235     34237
     34236     34237     34238     34239     34238     34240     34239     34240
     34241     34242     34241     34243     34242     34243     34244     34245
     34244     34246     34245     34246     34247     34248     34247     34249
     34248     34249     34250     34251     34250     34252     34251     34252
     34253     34254     34253     34255     34254     34255     34256     34257
     34256     34258     34257     34258     34259     34260     34259     34261
     34260     34261     34262     34263     34262     34264     34263     34264
     34265     34266     34265     34267     34266     34267     34268     34269
     34268     34270     34269     34270     34271     34272     34271     34273
     34272     34273     34274     34275     34274     34276     34275     34276
     34277     34278     34277     34279     34278     34279     34280     34281
     34280     34282     34281     34282     34283     34284     34283     34285
     34284     34285     34286     34287     34286     34288     34287     34288
     34289     34290     34289     34291     34290     34291     34292     34293
     34292     34294     34293     34294     34295     34296     34295     34297
     34296     34297     34298     34299     34298     34300     34299     34300
     34301     34302     34301     34303     34302     34303     34304     34305
     34304     34306     34305     34306     34307     34308     34307     34309
     34308     34309     34310     34311     34310     34312     34311     34312
     34313     34314     34313     34315     34314     34315     34316     34317
     34316     34318     34317     34318     34319     34320     34319     34321
     34320     34321     34322     34323     34322     34324     34323     34324
     34325     34326     34325     34327     34326     34327     34328     34329
     34328     34330     34329     34330     34331     34332     34331     34333
     34332     34333     34334     34335     34334     34336     34335     34336
     34337     34338     34337     34339     34338     34339     34340     34341
     34340     34342     34341     34342     34343     34344     34343     34345
     34344     34345     34346     34347     34346     34348     34347     34348
     34349     34350     34349     34351     34350     34351     34352     34353
     34352     34354     34353     34354     34355     34356     34355     34357
     34356     34357     34358     34359     34358     34360     34359     34360
     34361     34362     34361     34363     34362     34363     34364     34365
     34364     34366     34365     34366     34367     34368     34367     34369
     34368     34369     34370     34371     34370     34372     34371     34372
     34373     34374     34373     34375     34374     34375     34376     34377
     34376     34378     34377     34378     34379     34380     34379     34381
     34380     34381     34382     34383     34382     34384     34383     34384
     34385     34386     34385     34387     34386     34387     34388     34389
     34388     34390     34389     34390     34391     34392     34391     34393
     34392     34393     34394     34395     34394     34396     34395     34396
     34397     34398     34397     34399     34398     34399     34400     34401
     34400     34402     34401     34402     34403     34404     34403     34405
     34404     34405     34406     34407     34406     34408     34407     34408
     34409     34410     34409     34411     34410     34411     34412     34413
     34412     34414     34413     34414     34415     34416     34415     34417
     34416     34417     34418     34419     34418     34420     34419     34420
     34421     34422     34421     34423     34422     34423     34424     34425
     34424     34426     34425     34426     34427     34428     34427     34429
     34428     34429     34430     34431     34430     34432     34431     34432
     34433     34434     34433     34435     34434     34435     34436     34437
     34436     34438     34437     34438     34439     34440     34439     34441
     34440     34441     34442     34443     34442     34444     34443     34444
     34445     34446     34445     34447     34446     34447     34448     34449
     34448     34450     34449     34450     34451     34452     34451     34453
     34452     34453     34454     34455     34454     34456     34455     34456
     34457     34458     34457     34459     34458     34459     34460     34461
     34460     34462     34461     34462     34463     34464     34463     34465
     34464     34465     34466     34467     34466     34468     34467     34468
     34469     34470     34469     34471     34470     34471     34472     34473
     34472     34474     34473     34474     34475     34476     34475     34477
     34476     34477     34478     34479     34478     34480     34479     34480
     34481     34482     34481     34483     34482     34483     34484     34485
     34484     34486     34485     34486     34487     34488     34487     34489
     34488     34489     34490     34491     34490     34492     34491     34492
     34493     34494     34493     34495     34494     34495     34496     34497
     34496     34498     34497     34498     34499     34500     34499     34501
     34500     34501     34502     34503     34502     34504     34503     34504
     34505     34506     34505     34507     34506     34507     34508     34509
     34508     34510     34509     34510     34511     34512     34511     34513
     34512     34513     34514     34515     34514     34516     34515     34516
     34517     34518     34517     34519     34518     34519     34520     34521
     34520     34522     34521     34522     34523     34524     34523     34525
     34524     34525     34526     34527     34526     34528     34527     34528
     34529     34530     34529     34531     34530     34531     34532     34533
     34532     34534     34533     34534     34535     34536     34535     34537
     34536     34537     34538     34539     34538     34540     34539     34540
     34541     34542     34541     34543     34542     34543     34544     34545
     34544     34546     34545     34546     34547     34548     34547     34549
     34548     34549     34550     34551     34550     34552     34551     34552
     34553     34554     34553     34555     34554     34555     34556     34557
     34556     34558     34557     34558     34559     34560     34559     34561
     34560     34561     34562     34563     34562     34564     34563     34564
     34565     34566     34565     34567     34566     34567     34568     34569
     34568     34570     34569     34570     34571     34572     34571     34573
     34572     34573     34574     34575     34574     34576     34575     34576
     34577     34578     34577     34579     34578     34579     34580     34581
     34580     34582     34581     34582     34583     34584     34583     34585
     34584     34585     34586     34587     34586     34588     34587     34588
     34589     34590     34589     34591     34590     34591     34592     34593
     34592     34594     34593     34594     34595     34596     34595     34597
     34596     34597     34598     34599     34598     34600     34599     34600
     34601     34602     34601     34603     34602     34603     34604     34605
     34604     34606     34605     34606     34607     34608     34607     34609
     34608     34609     34610     34611     34610     34612     34611     34612
     34613     34614     34613     34615     34614     34615     34616     34617
     34616     34618     34617     34618     34619     34620     34619     34621
     34620     34621     34622     34623     34622     34624     34623     34624
     34625     34626     34625     34627     34626     34627     34628     34629
     34628     34630     34629     34630     34631     34632     34631     34633
     34632     34633     34634     34635     34634     34636     34635     34636
     34637     34638     34637     34639     34638     34639     34640     34641
     34640     34642     34641     34642     34643     34644     34643     34645
     34644     34645     34646     34647     34646     34648     34647     34648
     34649     34650     34649     34651     34650     34651     34652     34653
     34652     34654     34653     34654     34655     34656     34655     34657
     34656     34657     34658     34659     34658     34660     34659     34660
     34661     34662     34661     34663     34662     34663     34664     34665
     34664     34666     34665     34666     34667     34668     34667     34669
     34668     34669     34670     34671     34670     34672     34671     34672
     34673     34674     34673     34675     34674     34675     34676     34677
     34676     34678     34677     34678     34679     34680     34679     34681
     34680     34681     34682     34683     34682     34684     34683     34684
     34685     34686     34685     34687     34686     34687     34688     34689
     34688     34690     34689     34690     34691     34692     34691     34693
     34692     34693     34694     34695     34694     34696     34695     34696
     34697     34698     34697     34699     34698     34699     34700     34701
     34700     34702     34701     34702     34703     34704     34703     34705
     34704     34705     34706     34707     34706     34708     34707     34708
     34709     34710     34709     34711     34710     34711     34712     34713
     34712     34714     34713     34714     34715     34716     34715     34717
     34716     34717     34718     34719     34718     34720     34719     34720
     34721     34722     34721     34723     34722     34723     34724     34725
     34724     34726     34725     34726     34727     34728     34727     34729
     34728     34729     34730     34731     34730     34732     34731     34732
     34733     34734     34733     34735     34734     34735     34736     34737
     34736     34738     34737     34738     34739     34740     34739     34741
     34740     34741     34742     34743     34742     34744     34743     34744
     34745     34746     34745     34747     34746     34747     34748     34749
     34748     34750     34749     34750     34751     34752     34751     34753
     34752     34753     34754     34755     34754     34756     34755     34756
     34757     34758     34757     34759     34758     34759     34760     34761
     34760     34762     34761     34762     34763     34764     34763     34765
     34764     34765     34766     34767     34766     34768     34767     34768
     34769     34770     34769     34771     34770     34771     34772     34773
     34772     34774     34773     34774     34775     34776     34775     34777
     34776     34777     34778     34779     34778     34780     34779     34780
     34781     34782     34781     34783     34782     34783     34784     34785
     34784     34786     34785     34786     34787     34788     34787     34789
     34788     34789     34790     34791     34790     34792     34791     34792
     34793     34794     34793     34795     34794     34795     34796     34797
     34796     34798     34797     34798     34799     34800     34799     34801
     34800     34801     34802     34803     34802     34804     34803     34804
     34805     34806     34805     34807     34806     34807     34808     34809
     34808     34810     34809     34810     34811     34812     34811     34813
     34812     34813     34814     34815     34814     34816     34815     34816
     34817     34818     34817     34819     34818     34819     34820     34821
     34820     34822     34821     34822     34823     34824     34823     34825
     34824     34825     34826     34827     34826     34828     34827     34828
     34829     34830     34829     34831     34830     34831     34832     34833
     34832     34834     34833     34834     34835     34836     34835     34837
     34836     34837     34838     34839     34838     34840     34839     34840
     34841     34842     34841     34843     34842     34843     34844     34845
     34844     34846     34845     34846     34847     34848     34847     34849
     34848     34849     34850     34851     34850     34852     34851     34852
     34853     34854     34853     34855     34854     34855     34856     34857
     34856     34858     34857     34858     34859     34860     34859     34861
     34860     34861     34862     34863     34862     34864     34863     34864
     34865     34866     34865     34867     34866     34867     34868     34869
     34868     34870     34869     34870     34871     34872     34871     34873
     34872     34873     34874     34875     34874     34876     34875     34876
     34877     34878     34877     34879     34878     34879     34880     34881
     34880     34882     34881     34882     34883     34884     34883     34885
     34884     34885     34886     34887     34886     34888     34887     34888
     34889     34890     34889     34891     34890     34891     34892     34893
     34892     34894     34893     34894     34895     34896     34895     34897
     34896     34897     34898     34899     34898     34900     34899     34900
     34901     34902     34901     34903     34902     34903     34904     34905
     34904     34906     34905     34906     34907     34908     34907     34909
     34908     34909     34910     34911     34910     34912     34911     34912
     34913     34914     34913     34915     34914     34915     34916     34917
     34916     34918     34917     34918     34919     34920     34919     34921
     34920     34921     34922     34923     34922     34924     34923     34924
     34925     34926     34925     34927     34926     34927     34928     34929
     34928     34930     34929     34930     34931     34932     34931     34933
     34932     34933     34934     34935     34934     34936     34935     34936
     34937     34938     34937     34939     34938     34939     34940     34941
     34940     34942     34941     34942     34943     34944     34943     34945
     34944     34945     34946     34947     34946     34948     34947     34948
     34949     34950     34949     34951     34950     34951     34952     34953
     34952     34954     34953     34954     34955     34956     34955     34957
     34956     34957     34958     34959     34958     34960     34959     34960
     34961     34962     34961     34963     34962     34963     34964     34965
     34964     34966     34965     34966     34967     34968     34967     34969
     34968     34969     34970     34971     34970     34972     34971     34972
     34973     34974     34973     34975     34974     34975     34976     34977
     34976     34978     34977     34978     34979     34980     34979     34981
     34980     34981     34982     34983     34982     34984     34983     34984
     34985     34986     34985     34987     34986     34987     34988     34989
     34988     34990     34989     34990     34991     34992     34991     34993
     34992     34993     34994     34995     34994     34996     34995     34996
     34997     34998     34997     34999     34998     34999     35000     35001
     35000     35002     35001     35002     35003     35004     35003     35005
     35004     35005     35006     35007     35006     35008     35007     35008
     35009     35010     35009     35011     35010     35011     35012     35013
     35012     35014     35013     35014     35015     35016     35015     35017
     35016     35017     35018     35019     35018     35020     35019     35020
     35021     35022     35021     35023     35022     35023     35024     35025
     35024     35026     35025     35026     35027     35028     35027     35029
     35028     35029     35030     35031     35030     35032     35031     35032
     35033     35034     35033     35035     35034     35035     35036     35037
     35036     35038     35037     35038     35039     35040     35039     35041
     35040     35041     35042     35043     35042     35044     35043     35044
     35045     35046     35045     35047     35046     35047     35048     35049
     35048     35050     35049     35050     35051     35052     35051     35053
     35052     35053     35054     35055     35054     35056     35055     35056
     35057     35058     35057     35059     35058     35059     35060     35061
     35060     35062     35061     35062     35063     35064     35063     35065
     35064     35065     35066     35067     35066     35068     35067     35068
     35069     35070     35069     35071     35070     35071     35072     35073
     35072     35074     35073     35074     35075     35076     35075     35077
     35076     35077     35078     35079     35078     35080     35079     35080
     35081     35082     35081     35083     35082     35083     35084     35085
     35084     35086     35085     35086     35087     35088     35087     35089
     35088     35089     35090     35091     35090     35092     35091     35092
     35093     35094     35093     35095     35094     35095     35096     35097
     35096     35098     35097     35098     35099     35100     35099     35101
     35100     35101     35102     35103     35102     35104     35103     35104
     35105     35106     35105     35107     35106     35107     35108     35109
     35108     35110     35109     35110     35111     35112     35111     35113
     35112     35113     35114     35115     35114     35116     35115     35116
     35117     35118     35117     35119     35118     35119     35120     35121
     35120     35122     35121     35122     35123     35124     35123     35125
     35124     35125     35126     35127     35126     35128     35127     35128
     35129     35130     35129     35131     35130     35131     35132     35133
     35132     35134     35133     35134     35135     35136     35135     35137
     35136     35137     35138     35139     35138     35140     35139     35140
     35141     35142     35141     35143     35142     35143     35144     35145
     35144     35146     35145     35146     35147     35148     35147     35149
     35148     35149     35150     35151     35150     35152     35151     35152
     35153     35154     35153     35155     35154     35155     35156     35157
     35156     35158     35157     35158     35159     35160     35159     35161
     35160     35161     35162     35163     35162     35164     35163     35164
     35165     35166     35165     35167     35166     35167     35168     35169
     35168     35170     35169     35170     35171     35172     35171     35173
     35172     35173     35174     35175     35174     35176     35175     35176
     35177     35178     35177     35179     35178     35179     35180     35181
     35180     35182     35181     35182     35183     35184     35183     35185
     35184     35185     35186     35187     35186     35188     35187     35188
     35189     35190     35189     35191     35190     35191     35192     35193
     35192     35194     35193     35194     35195     35196     35195     35197
     35196     35197     35198     35199     35198     35200     35199     35200
     35201     35202     35201     35203     35202     35203     35204     35205
     35204     35206     35205     35206     35207     35208     35207     35209
     35208     35209     35210     35211     35210     35212     35211     35212
     35213     35214     35213     35215     35214     35215     35216     35217
     35216     35218     35217     35218     35219     35220     35219     35221
     35220     35221     35222     35223     35222     35224     35223     35224
     35225     35226     35225     35227     35226     35227     35228     35229
     35228     35230     35229     35230     35231     35232     35231     35233
     35232     35233     35234     35235     35234     35236     35235     35236
     35237     35238     35237     35239     35238     35239     35240     35241
     35240     35242     35241     35242     35243     35244     35243     35245
     35244     35245     35246     35247     35246     35248     35247     35248
     35249     35250     35249     35251     35250     35251     35252     35253
     35252     35254     35253     35254     35255     35256     35255     35257
     35256     35257     35258     35259     35258     35260     35259     35260
     35261     35262     35261     35263     35262     35263     35264     35265
     35264     35266     35265     35266     35267     35268     35267     35269
     35268     35269     35270     35271     35270     35272     35271     35272
     35273     35274     35273     35275     35274     35275     35276     35277
     35276     35278     35277     35278     35279     35280     35279     35281
     35280     35281     35282     35283     35282     35284     35283     35284
     35285     35286     35285     35287     35286     35287     35288     35289
     35288     35290     35289     35290     35291     35292     35291     35293
     35292     35293     35294     35295     35294     35296     35295     35296
     35297     35298     35297     35299     35298     35299     35300     35301
     35300     35302     35301     35302     35303     35304     35303     35305
     35304     35305     35306     35307     35306     35308     35307     35308
     35309     35310     35309     35311     35310     35311     35312     35313
     35312     35314     35313     35314     35315     35316     35315     35317
     35316     35317     35318     35319     35318     35320     35319     35320
     35321     35322     35321     35323     35322     35323     35324     35325
     35324     35326     35325     35326     35327     35328     35327     35329
     35328     35329     35330     35331     35330     35332     35331     35332
     35333     35334     35333     35335     35334     35335     35336     35337
     35336     35338     35337     35338     35339     35340     35339     35341
     35340     35341     35342     35343     35342     35344     35343     35344
     35345     35346     35345     35347     35346     35347     35348     35349
     35348     35350     35349     35350     35351     35352     35351     35353
     35352     35353     35354     35355     35354     35356     35355     35356
     35357     35358     35357     35359     35358     35359     35360     35361
     35360     35362     35361     35362     35363     35364     35363     35365
     35364     35365     35366     35367     35366     35368     35367     35368
     35369     35370     35369     35371     35370     35371     35372     35373
     35372     35374     35373     35374     35375     35376     35375     35377
     35376     35377     35378     35379     35378     35380     35379     35380
     35381     35382     35381     35383     35382     35383     35384     35385
     35384     35386     35385     35386     35387     35388     35387     35389
     35388     35389     35390     35391     35390     35392     35391     35392
     35393     35394     35393     35395     35394     35395     35396     35397
     35396     35398     35397     35398     35399     35400     35399     35401
     35400     35401     35402     35403     35402     35404     35403     35404
     35405     35406     35405     35407     35406     35407     35408     35409
     35408     35410     35409     35410     35411     35412     35411     35413
     35412     35413     35414     35415     35414     35416     35415     35416
     35417     35418     35417     35419     35418     35419     35420     35421
     35420     35422     35421     35422     35423     35424     35423     35425
     35424     35425     35426     35427     35426     35428     35427     35428
     35429     35430     35429     35431     35430     35431     35432     35433
     35432     35434     35433     35434     35435     35436     35435     35437
     35436     35437     35438     35439     35438     35440     35439     35440
     35441     35442     35441     35443     35442     35443     35444     35445
     35444     35446     35445     35446     35447     35448     35447     35449
     35448     35449     35450     35451     35450     35452     35451     35452
     35453     35454     35453     35455     35454     35455     35456     35457
     35456     35458     35457     35458     35459     35460     35459     35461
     35460     35461     35462     35463     35462     35464     35463     35464
     35465     35466     35465     35467     35466     35467     35468     35469
     35468     35470     35469     35470     35471     35472     35471     35473
     35472     35473     35474     35475     35474     35476     35475     35476
     35477     35478     35477     35479     35478     35479     35480     35481
     35480     35482     35481     35482     35483     35484     35483     35485
     35484     35485     35486     35487     35486     35488     35487     35488
     35489     35490     35489     35491     35490     35491     35492     35493
     35492     35494     35493     35494     35495     35496     35495     35497
     35496     35497     35498     35499     35498     35500     35499     35500
     35501     35502     35501     35503     35502     35503     35504     35505
     35504     35506     35505     35506     35507     35508     35507     35509
     35508     35509     35510     35511     35510     35512     35511     35512
     35513     35514     35513     35515     35514     35515     35516     35517
     35516     35518     35517     35518     35519     35520     35519     35521
     35520     35521     35522     35523     35522     35524     35523     35524
     35525     35526     35525     35527     35526     35527     35528     35529
     35528     35530     35529     35530     35531     35532     35531     35533
     35532     35533     35534     35535     35534     35536     35535     35536
     35537     35538     35537     35539     35538     35539     35540     35541
     35540     35542     35541     35542     35543     35544     35543     35545
     35544     35545     35546     35547     35546     35548     35547     35548
     35549     35550     35549     35551     35550     35551     35552     35553
     35552     35554     35553     35554     35555     35556     35555     35557
     35556     35557     35558     35559     35558     35560     35559     35560
     35561     35562     35561     35563     35562     35563     35564     35565
     35564     35566     35565     35566     35567     35568     35567     35569
     35568     35569     35570     35571     35570     35572     35571     35572
     35573     35574     35573     35575     35574     35575     35576     35577
     35576     35578     35577     35578     35579     35580     35579     35581
     35580     35581     35582     35583     35582     35584     35583     35584
     35585     35586     35585     35587     35586     35587     35588     35589
     35588     35590     35589     35590     35591     35592     35591     35593
     35592     35593     35594     35595     35594     35596     35595     35596
     35597     35598     35597     35599     35598     35599     35600     35601
     35600     35602     35601     35602     35603     35604     35603     35605
     35604     35605     35606     35607     35606     35608     35607     35608
     35609     35610     35609     35611     35610     35611     35612     35613
     35612     35614     35613     35614     35615     35616     35615     35617
     35616     35617     35618     35619     35618     35620     35619     35620
     35621     35622     35621     35623     35622     35623     35624     35625
     35624     35626     35625     35626     35627     35628     35627     35629
     35628     35629     35630     35631     35630     35632     35631     35632
     35633     35634     35633     35635     35634     35635     35636     35637
     35636     35638     35637     35638     35639     35640     35639     35641
     35640     35641     35642     35643     35642     35644     35643     35644
     35645     35646     35645     35647     35646     35647     35648     35649
     35648     35650     35649     35650     35651     35652     35651     35653
     35652     35653     35654     35655     35654     35656     35655     35656
     35657     35658     35657     35659     35658     35659     35660     35661
     35660     35662     35661     35662     35663     35664     35663     35665
     35664     35665     35666     35667     35666     35668     35667     35668
     35669     35670     35669     35671     35670     35671     35672     35673
     35672     35674     35673     35674     35675     35676     35675     35677
     35676     35677     35678     35679     35678     35680     35679     35680
     35681     35682     35681     35683     35682     35683     35684     35685
     35684     35686     35685     35686     35687     35688     35687     35689
     35688     35689     35690     35691     35690     35692     35691     35692
     35693     35694     35693     35695     35694     35695     35696     35697
     35696     35698     35697     35698     35699     35700     35699     35701
     35700     35701     35702     35703     35702     35704     35703     35704
     35705     35706     35705     35707     35706     35707     35708     35709
     35708     35710     35709     35710     35711     35712     35711     35713
     35712     35713     35714     35715     35714     35716     35715     35716
     35717     35718     35717     35719     35718     35719     35720     35721
     35720     35722     35721     35722     35723     35724     35723     35725
     35724     35725     35726     35727     35726     35728     35727     35728
     35729     35730     35729     35731     35730     35731     35732     35733
     35732     35734     35733     35734     35735     35736     35735     35737
     35736     35737     35738     35739     35738     35740     35739     35740
     35741     35742     35741     35743     35742     35743     35744     35745
     35744     35746     35745     35746     35747     35748     35747     35749
     35748     35749     35750     35751     35750     35752     35751     35752
     35753     35754     35753     35755     35754     35755     35756     35757
     35756     35758     35757     35758     35759     35760     35759     35761
     35760     35761     35762     35763     35762     35764     35763     35764
     35765     35766     35765     35767     35766     35767     35768     35769
     35768     35770     35769     35770     35771     35772     35771     35773
     35772     35773     35774     35775     35774     35776     35775     35776
     35777     35778     35777     35779     35778     35779     35780     35781
     35780     35782     35781     35782     35783     35784     35783     35785
     35784     35785     35786     35787     35786     35788     35787     35788
     35789     35790     35789     35791     35790     35791     35792     35793
     35792     35794     35793     35794     35795     35796     35795     35797
     35796     35797     35798     35799     35798     35800     35799     35800
     35801     35802     35801     35803     35802     35803     35804     35805
     35804     35806     35805     35806     35807     35808     35807     35809
     35808     35809     35810     35811     35810     35812     35811     35812
     35813     35814     35813     35815     35814     35815     35816     35817
     35816     35818     35817     35818     35819     35820     35819     35821
     35820     35821     35822     35823     35822     35824     35823     35824
     35825     35826     35825     35827     35826     35827     35828     35829
     35828     35830     35829     35830     35831     35832     35831     35833
     35832     35833     35834     35835     35834     35836     35835     35836
     35837     35838     35837     35839     35838     35839     35840     35841
     35840     35842     35841     35842     35843     35844     35843     35845
     35844     35845     35846     35847     35846     35848     35847     35848
     35849     35850     35849     35851     35850     35851     35852     35853
     35852     35854     35853     35854     35855     35856     35855     35857
     35856     35857     35858     35859     35858     35860     35859     35860
     35861     35862     35861     35863     35862     35863     35864     35865
     35864     35866     35865     35866     35867     35868     35867     35869
     35868     35869     35870     35871     35870     35872     35871     35872
     35873     35874     35873     35875     35874     35875     35876     35877
     35876     35878     35877     35878     35879     35880     35879     35881
     35880     35881     35882     35883     35882     35884     35883     35884
     35885     35886     35885     35887     35886     35887     35888     35889
     35888     35890     35889     35890     35891     35892     35891     35893
     35892     35893     35894     35895     35894     35896     35895     35896
     35897     35898     35897     35899     35898     35899     35900     35901
     35900     35902     35901     35902     35903     35904     35903     35905
     35904     35905     35906     35907     35906     35908     35907     35908
     35909     35910     35909     35911     35910     35911     35912     35913
     35912     35914     35913     35914     35915     35916     35915     35917
     35916     35917     35918     35919     35918     35920     35919     35920
     35921     35922     35921     35923     35922     35923     35924     35925
     35924     35926     35925     35926     35927     35928     35927     35929
     35928     35929     35930     35931     35930     35932     35931     35932
     35933     35934     35933     35935     35934     35935     35936     35937
     35936     35938     35937     35938     35939     35940     35939     35941
     35940     35941     35942     35943     35942     35944     35943     35944
     35945     35946     35945     35947     35946     35947     35948     35949
     35948     35950     35949     35950     35951     35952     35951     35953
     35952     35953     35954     35955     35954     35956     35955     35956
     35957     35958     35957     35959     35958     35959     35960     35961
     35960     35962     35961     35962     35963     35964     35963     35965
     35964     35965     35966     35967     35966     35968     35967     35968
     35969     35970     35969     35971     35970     35971     35972     35973
     35972     35974     35973     35974     35975     35976     35975     35977
     35976     35977     35978     35979     35978     35980     35979     35980
     35981     35982     35981     35983     35982     35983     35984     35985
     35984     35986     35985     35986     35987     35988     35987     35989
     35988     35989     35990     35991     35990     35992     35991     35992
     35993     35994     35993     35995     35994     35995     35996     35997
     35996     35998     35997     35998     35999     36000     35999     36001
     36000     36001     36002     36003     36002     36004     36003     36004
     36005     36006     36005     36007     36006     36007     36008     36009
     36008     36010     36009     36010     36011     36012     36011     36013
     36012     36013     36014     36015     36014     36016     36015     36016
     36017     36018     36017     36019     36018     36019     36020     36021
     36020     36022     36021     36022     36023     36024     36023     36025
     36024     36025     36026     36027     36026     36028     36027     36028
     36029     36030     36029     36031     36030     36031     36032     36033
     36032     36034     36033     36034     36035     36036     36035     36037
     36036     36037     36038     36039     36038     36040     36039     36040
     36041     36042     36041     36043     36042     36043     36044     36045
     36044     36046     36045     36046     36047     36048     36047     36049
     36048     36049     36050     36051     36050     36052     36051     36052
     36053     36054     36053     36055     36054     36055     36056     36057
     36056     36058     36057     36058     36059     36060     36059     36061
     36060     36061     36062     36063     36062     36064     36063     36064
     36065     36066     36065     36067     36066     36067     36068     36069
     36068     36070     36069     36070     36071     36072     36071     36073
     36072     36073     36074     36075     36074     36076     36075     36076
     36077     36078     36077     36079     36078     36079     36080     36081
     36080     36082     36081     36082     36083     36084     36083     36085
     36084     36085     36086     36087     36086     36088     36087     36088
     36089     36090     36089     36091     36090     36091     36092     36093
     36092     36094     36093     36094     36095     36096     36095     36097
     36096     36097     36098     36099     36098     36100     36099     36100
     36101     36102     36101     36103     36102     36103     36104     36105
     36104     36106     36105     36106     36107     36108     36107     36109
     36108     36109     36110     36111     36110     36112     36111     36112
     36113     36114     36113     36115     36114     36115     36116     36117
     36116     36118     36117     36118     36119     36120     36119     36121
     36120     36121     36122     36123     36122     36124     36123     36124
     36125     36126     36125     36127     36126     36127     36128     36129
     36128     36130     36129     36130     36131     36132     36131     36133
     36132     36133     36134     36135     36134     36136     36135     36136
     36137     36138     36137     36139     36138     36139     36140     36141
     36140     36142     36141     36142     36143     36144     36143     36145
     36144     36145     36146     36147     36146     36148     36147     36148
     36149     36150     36149     36151     36150     36151     36152     36153
     36152     36154     36153     36154     36155     36156     36155     36157
     36156     36157     36158     36159     36158     36160     36159     36160
     36161     36162     36161     36163     36162     36163     36164     36165
     36164     36166     36165     36166     36167     36168     36167     36169
     36168     36169     36170     36171     36170     36172     36171     36172
     36173     36174     36173     36175     36174     36175     36176     36177
     36176     36178     36177     36178     36179     36180     36179     36181
     36180     36181     36182     36183     36182     36184     36183     36184
     36185     36186     36185     36187     36186     36187     36188     36189
     36188     36190     36189     36190     36191     36192     36191     36193
     36192     36193     36194     36195     36194     36196     36195     36196
     36197     36198     36197     36199     36198     36199     36200     36201
     36200     36202     36201     36202     36203     36204     36203     36205
     36204     36205     36206     36207     36206     36208     36207     36208
     36209     36210     36209     36211     36210     36211     36212     36213
     36212     36214     36213     36214     36215     36216     36215     36217
     36216     36217     36218     36219     36218     36220     36219     36220
     36221     36222     36221     36223     36222     36223     36224     36225
     36224     36226     36225     36226     36227     36228     36227     36229
     36228     36229     36230     36231     36230     36232     36231     36232
     36233     36234     36233     36235     36234     36235     36236     36237
     36236     36238     36237     36238     36239     36240     36239     36241
     36240     36241     36242     36243     36242     36244     36243     36244
     36245     36246     36245     36247     36246     36247     36248     36249
     36248     36250     36249     36250     36251     36252     36251     36253
     36252     36253     36254     36255     36254     36256     36255     36256
     36257     36258     36257     36259     36258     36259     36260     36261
     36260     36262     36261     36262     36263     36264     36263     36265
     36264     36265     36266     36267     36266     36268     36267     36268
     36269     36270     36269     36271     36270     36271     36272     36273
     36272     36274     36273     36274     36275     36276     36275     36277
     36276     36277     36278     36279     36278     36280     36279     36280
     36281     36282     36281     36283     36282     36283     36284     36285
     36284     36286     36285     36286     36287     36288     36287     36289
     36288     36289     36290     36291     36290     36292     36291     36292
     36293     36294     36293     36295     36294     36295     36296     36297
     36296     36298     36297     36298     36299     36300     36299     36301
     36300     36301     36302     36303     36302     36304     36303     36304
     36305     36306     36305     36307     36306     36307     36308     36309
     36308     36310     36309     36310     36311     36312     36311     36313
     36312     36313     36314     36315     36314     36316     36315     36316
     36317     36318     36317     36319     36318     36319     36320     36321
     36320     36322     36321     36322     36323     36324     36323     36325
     36324     36325     36326     36327     36326     36328     36327     36328
     36329     36330     36329     36331     36330     36331     36332     36333
     36332     36334     36333     36334     36335     36336     36335     36337
     36336     36337     36338     36339     36338     36340     36339     36340
     36341     36342     36341     36343     36342     36343     36344     36345
     36344     36346     36345     36346     36347     36348     36347     36349
     36348     36349     36350     36351     36350     36352     36351     36352
     36353     36354     36353     36355     36354     36355     36356     36357
     36356     36358     36357     36358     36359     36360     36359     36361
     36360     36361     36362     36363     36362     36364     36363     36364
     36365     36366     36365     36367     36366     36367     36368     36369
     36368     36370     36369     36370     36371     36372     36371     36373
     36372     36373     36374     36375     36374     36376     36375     36376
     36377     36378     36377     36379     36378     36379     36380     36381
     36380     36382     36381     36382     36383     36384     36383     36385
     36384     36385     36386     36387     36386     36388     36387     36388
     36389     36390     36389     36391     36390     36391     36392     36393
     36392     36394     36393     36394     36395     36396     36395     36397
     36396     36397     36398     36399     36398     36400     36399     36400
     36401     36402     36401     36403     36402     36403     36404     36405
     36404     36406     36405     36406     36407     36408     36407     36409
     36408     36409     36410     36411     36410     36412     36411     36412
     36413     36414     36413     36415     36414     36415     36416     36417
     36416     36418     36417     36418     36419     36420     36419     36421
     36420     36421     36422     36423     36422     36424     36423     36424
     36425     36426     36425     36427     36426     36427     36428     36429
     36428     36430     36429     36430     36431     36432     36431     36433
     36432     36433     36434     36435     36434     36436     36435     36436
     36437     36438     36437     36439     36438     36439     36440     36441
     36440     36442     36441     36442     36443     36444     36443     36445
     36444     36445     36446     36447     36446     36448     36447     36448
     36449     36450     36449     36451     36450     36451     36452     36453
     36452     36454     36453     36454     36455     36456     36455     36457
     36456     36457     36458     36459     36458     36460     36459     36460
     36461     36462     36461     36463     36462     36463     36464     36465
     36464     36466     36465     36466     36467     36468     36467     36469
     36468     36469     36470     36471     36470     36472     36471     36472
     36473     36474     36473     36475     36474     36475     36476     36477
     36476     36478     36477     36478     36479     36480     36479     36481
     36480     36481     36482     36483     36482     36484     36483     36484
     36485     36486     36485     36487     36486     36487     36488     36489
     36488     36490     36489     36490     36491     36492     36491     36493
     36492     36493     36494     36495     36494     36496     36495     36496
     36497     36498     36497     36499     36498     36499     36500     36501
     36500     36502     36501     36502     36503     36504     36503     36505
     36504     36505     36506     36507     36506     36508     36507     36508
     36509     36510     36509     36511     36510     36511     36512     36513
     36512     36514     36513     36514     36515     36516     36515     36517
     36516     36517     36518     36519     36518     36520     36519     36520
     36521     36522     36521     36523     36522     36523     36524     36525
     36524     36526     36525     36526     36527     36528     36527     36529
     36528     36529     36530     36531     36530     36532     36531     36532
     36533     36534     36533     36535     36534     36535     36536     36537
     36536     36538     36537     36538     36539     36540     36539     36541
     36540     36541     36542     36543     36542     36544     36543     36544
     36545     36546     36545     36547     36546     36547     36548     36549
     36548     36550     36549     36550     36551     36552     36551     36553
     36552     36553     36554     36555     36554     36556     36555     36556
     36557     36558     36557     36559     36558     36559     36560     36561
     36560     36562     36561     36562     36563     36564     36563     36565
     36564     36565     36566     36567     36566     36568     36567     36568
     36569     36570     36569     36571     36570     36571     36572     36573
     36572     36574     36573     36574     36575     36576     36575     36577
     36576     36577     36578     36579     36578     36580     36579     36580
     36581     36582     36581     36583     36582     36583     36584     36585
     36584     36586     36585     36586     36587     36588     36587     36589
     36588     36589     36590     36591     36590     36592     36591     36592
     36593     36594     36593     36595     36594     36595     36596     36597
     36596     36598     36597     36598     36599     36600     36599     36601
     36600     36601     36602     36603     36602     36604     36603     36604
     36605     36606     36605     36607     36606     36607     36608     36609
     36608     36610     36609     36610     36611     36612     36611     36613
     36612     36613     36614     36615     36614     36616     36615     36616
     36617     36618     36617     36619     36618     36619     36620     36621
     36620     36622     36621     36622     36623     36624     36623     36625
     36624     36625     36626     36627     36626     36628     36627     36628
     36629     36630     36629     36631     36630     36631     36632     36633
     36632     36634     36633     36634     36635     36636     36635     36637
     36636     36637     36638     36639     36638     36640     36639     36640
     36641     36642     36641     36643     36642     36643     36644     36645
     36644     36646     36645     36646     36647     36648     36647     36649
     36648     36649     36650     36651     36650     36652     36651     36652
     36653     36654     36653     36655     36654     36655     36656     36657
     36656     36658     36657     36658     36659     36660     36659     36661
     36660     36661     36662     36663     36662     36664     36663     36664
     36665     36666     36665     36667     36666     36667     36668     36669
     36668     36670     36669     36670     36671     36672     36671     36673
     36672     36673     36674     36675     36674     36676     36675     36676
     36677     36678     36677     36679     36678     36679     36680     36681
     36680     36682     36681     36682     36683     36684     36683     36685
     36684     36685     36686     36687     36686     36688     36687     36688
     36689     36690     36689     36691     36690     36691     36692     36693
     36692     36694     36693     36694     36695     36696     36695     36697
     36696     36697     36698     36699     36698     36700     36699     36700
     36701     36702     36701     36703     36702     36703     36704     36705
     36704     36706     36705     36706     36707     36708     36707     36709
     36708     36709     36710     36711     36710     36712     36711     36712
     36713     36714     36713     36715     36714     36715     36716     36717
     36716     36718     36717     36718     36719     36720     36719     36721
     36720     36721     36722     36723     36722     36724     36723     36724
     36725     36726     36725     36727     36726     36727     36728     36729
     36728     36730     36729     36730     36731     36732     36731     36733
     36732     36733     36734     36735     36734     36736     36735     36736
     36737     36738     36737     36739     36738     36739     36740     36741
     36740     36742     36741     36742     36743     36744     36743     36745
     36744     36745     36746     36747     36746     36748     36747     36748
     36749     36750     36749     36751     36750     36751     36752     36753
     36752     36754     36753     36754     36755     36756     36755     36757
     36756     36757     36758     36759     36758     36760     36759     36760
     36761     36762     36761     36763     36762     36763     36764     36765
     36764     36766     36765     36766     36767     36768     36767     36769
     36768     36769     36770     36771     36770     36772     36771     36772
     36773     36774     36773     36775     36774     36775     36776     36777
     36776     36778     36777     36778     36779     36780     36779     36781
     36780     36781     36782     36783     36782     36784     36783     36784
     36785     36786     36785     36787     36786     36787     36788     36789
     36788     36790     36789     36790     36791     36792     36791     36793
     36792     36793     36794     36795     36794     36796     36795     36796
     36797     36798     36797     36799     36798     36799     36800     36801
     36800     36802     36801     36802     36803     36804     36803     36805
     36804     36805     36806     36807     36806     36808     36807     36808
     36809     36810     36809     36811     36810     36811     36812     36813
     36812     36814     36813     36814     36815     36816     36815     36817
     36816     36817     36818     36819     36818     36820     36819     36820
     36821     36822     36821     36823     36822     36823     36824     36825
     36824     36826     36825     36826     36827     36828     36827     36829
     36828     36829     36830     36831     36830     36832     36831     36832
     36833     36834     36833     36835     36834     36835     36836     36837
     36836     36838     36837     36838     36839     36840     36839     36841
     36840     36841     36842     36843     36842     36844     36843     36844
     36845     36846     36845     36847     36846     36847     36848     36849
     36848     36850     36849     36850     36851     36852     36851     36853
     36852     36853     36854     36855     36854     36856     36855     36856
     36857     36858     36857     36859     36858     36859     36860     36861
     36860     36862     36861     36862     36863     36864     36863     36865
     36864     36865     36866     36867     36866     36868     36867     36868
     36869     36870     36869     36871     36870     36871     36872     36873
     36872     36874     36873     36874     36875     36876     36875     36877
     36876     36877     36878     36879     36878     36880     36879     36880
     36881     36882     36881     36883     36882     36883     36884     36885
     36884     36886     36885     36886     36887     36888     36887     36889
     36888     36889     36890     36891     36890     36892     36891     36892
     36893     36894     36893     36895     36894     36895     36896     36897
     36896     36898     36897     36898     36899     36900     36899     36901
     36900     36901     36902     36903     36902     36904     36903     36904
     36905     36906     36905     36907     36906     36907     36908     36909
     36908     36910     36909     36910     36911     36912     36911     36913
     36912     36913     36914     36915     36914     36916     36915     36916
     36917     36918     36917     36919     36918     36919     36920     36921
     36920     36922     36921     36922     36923     36924     36923     36925
     36924     36925     36926     36927     36926     36928     36927     36928
     36929     36930     36929     36931     36930     36931     36932     36933
     36932     36934     36933     36934     36935     36936     36935     36937
     36936     36937     36938     36939     36938     36940     36939     36940
     36941     36942     36941     36943     36942     36943     36944     36945
     36944     36946     36945     36946     36947     36948     36947     36949
     36948     36949     36950     36951     36950     36952     36951     36952
     36953     36954     36953     36955     36954     36955     36956     36957
     36956     36958     36957     36958     36959     36960     36959     36961
     36960     36961     36962     36963     36962     36964     36963     36964
     36965     36966     36965     36967     36966     36967     36968     36969
     36968     36970     36969     36970     36971     36972     36971     36973
     36972     36973     36974     36975     36974     36976     36975     36976
     36977     36978     36977     36979     36978     36979     36980     36981
     36980     36982     36981     36982     36983     36984     36983     36985
     36984     36985     36986     36987     36986     36988     36987     36988
     36989     36990     36989     36991     36990     36991     36992     36993
     36992     36994     36993     36994     36995     36996     36995     36997
     36996     36997     36998     36999     36998     37000     36999     37000
     37001     37002     37001     37003     37002     37003     37004     37005
     37004     37006     37005     37006     37007     37008     37007     37009
     37008     37009     37010     37011     37010     37012     37011     37012
     37013     37014     37013     37015     37014     37015     37016     37017
     37016     37018     37017     37018     37019     37020     37019     37021
     37020     37021     37022     37023     37022     37024     37023     37024
     37025     37026     37025     37027     37026     37027     37028     37029
     37028     37030     37029     37030     37031     37032     37031     37033
     37032     37033     37034     37035     37034     37036     37035     37036
     37037     37038     37037     37039     37038     37039     37040     37041
     37040     37042     37041     37042     37043     37044     37043     37045
     37044     37045     37046     37047     37046     37048     37047     37048
     37049     37050     37049     37051     37050     37051     37052     37053
     37052     37054     37053     37054     37055     37056     37055     37057
     37056     37057     37058     37059     37058     37060     37059     37060
     37061     37062     37061     37063     37062     37063     37064     37065
     37064     37066     37065     37066     37067     37068     37067     37069
     37068     37069     37070     37071     37070     37072     37071     37072
     37073     37074     37073     37075     37074     37075     37076     37077
     37076     37078     37077     37078     37079     37080     37079     37081
     37080     37081     37082     37083     37082     37084     37083     37084
     37085     37086     37085     37087     37086     37087     37088     37089
     37088     37090     37089     37090     37091     37092     37091     37093
     37092     37093     37094     37095     37094     37096     37095     37096
     37097     37098     37097     37099     37098     37099     37100     37101
     37100     37102     37101     37102     37103     37104     37103     37105
     37104     37105     37106     37107     37106     37108     37107     37108
     37109     37110     37109     37111     37110     37111     37112     37113
     37112     37114     37113     37114     37115     37116     37115     37117
     37116     37117     37118     37119     37118     37120     37119     37120
     37121     37122     37121     37123     37122     37123     37124     37125
     37124     37126     37125     37126     37127     37128     37127     37129
     37128     37129     37130     37131     37130     37132     37131     37132
     37133     37134     37133     37135     37134     37135     37136     37137
     37136     37138     37137     37138     37139     37140     37139     37141
     37140     37141     37142     37143     37142     37144     37143     37144
     37145     37146     37145     37147     37146     37147     37148     37149
     37148     37150     37149     37150     37151     37152     37151     37153
     37152     37153     37154     37155     37154     37156     37155     37156
     37157     37158     37157     37159     37158     37159     37160     37161
     37160     37162     37161     37162     37163     37164     37163     37165
     37164     37165     37166     37167     37166     37168     37167     37168
     37169     37170     37169     37171     37170     37171     37172     37173
     37172     37174     37173     37174     37175     37176     37175     37177
     37176     37177     37178     37179     37178     37180     37179     37180
     37181     37182     37181     37183     37182     37183     37184     37185
     37184     37186     37185     37186     37187     37188     37187     37189
     37188     37189     37190     37191     37190     37192     37191     37192
     37193     37194     37193     37195     37194     37195     37196     37197
     37196     37198     37197     37198     37199     37200     37199     37201
     37200     37201     37202     37203     37202     37204     37203     37204
     37205     37206     37205     37207     37206     37207     37208     37209
     37208     37210     37209     37210     37211     37212     37211     37213
     37212     37213     37214     37215     37214     37216     37215     37216
     37217     37218     37217     37219     37218     37219     37220     37221
     37220     37222     37221     37222     37223     37224     37223     37225
     37224     37225     37226     37227     37226     37228     37227     37228
     37229     37230     37229     37231     37230     37231     37232     37233
     37232     37234     37233     37234     37235     37236     37235     37237
     37236     37237     37238     37239     37238     37240     37239     37240
     37241     37242     37241     37243     37242     37243     37244     37245
     37244     37246     37245     37246     37247     37248     37247     37249
     37248     37249     37250     37251     37250     37252     37251     37252
     37253     37254     37253     37255     37254     37255     37256     37257
     37256     37258     37257     37258     37259     37260     37259     37261
     37260     37261     37262     37263     37262     37264     37263     37264
     37265     37266     37265     37267     37266     37267     37268     37269
     37268     37270     37269     37270     37271     37272     37271     37273
     37272     37273     37274     37275     37274     37276     37275     37276
     37277     37278     37277     37279     37278     37279     37280     37281
     37280     37282     37281     37282     37283     37284     37283     37285
     37284     37285     37286     37287     37286     37288     37287     37288
     37289     37290     37289     37291     37290     37291     37292     37293
     37292     37294     37293     37294     37295     37296     37295     37297
     37296     37297     37298     37299     37298     37300     37299     37300
     37301     37302     37301     37303     37302     37303     37304     37305
     37304     37306     37305     37306     37307     37308     37307     37309
     37308     37309     37310     37311     37310     37312     37311     37312
     37313     37314     37313     37315     37314     37315     37316     37317
     37316     37318     37317     37318     37319     37320     37319     37321
     37320     37321     37322     37323     37322     37324     37323     37324
     37325     37326     37325     37327     37326     37327     37328     37329
     37328     37330     37329     37330     37331     37332     37331     37333
     37332     37333     37334     37335     37334     37336     37335     37336
     37337     37338     37337     37339     37338     37339     37340     37341
     37340     37342     37341     37342     37343     37344     37343     37345
     37344     37345     37346     37347     37346     37348     37347     37348
     37349     37350     37349     37351     37350     37351     37352     37353
     37352     37354     37353     37354     37355     37356     37355     37357
     37356     37357     37358     37359     37358     37360     37359     37360
     37361     37362     37361     37363     37362     37363     37364     37365
     37364     37366     37365     37366     37367     37368     37367     37369
     37368     37369     37370     37371     37370     37372     37371     37372
     37373     37374     37373     37375     37374     37375     37376     37377
     37376     37378     37377     37378     37379     37380     37379     37381
     37380     37381     37382     37383     37382     37384     37383     37384
     37385     37386     37385     37387     37386     37387     37388     37389
     37388     37390     37389     37390     37391     37392     37391     37393
     37392     37393     37394     37395     37394     37396     37395     37396
     37397     37398     37397     37399     37398     37399     37400     37401
     37400     37402     37401     37402     37403     37404     37403     37405
     37404     37405     37406     37407     37406     37408     37407     37408
     37409     37410     37409     37411     37410     37411     37412     37413
     37412     37414     37413     37414     37415     37416     37415     37417
     37416     37417     37418     37419     37418     37420     37419     37420
     37421     37422     37421     37423     37422     37423     37424     37425
     37424     37426     37425     37426     37427     37428     37427     37429
     37428     37429     37430     37431     37430     37432     37431     37432
     37433     37434     37433     37435     37434     37435     37436     37437
     37436     37438     37437     37438     37439     37440     37439     37441
     37440     37441     37442     37443     37442     37444     37443     37444
     37445     37446     37445     37447     37446     37447     37448     37449
     37448     37450     37449     37450     37451     37452     37451     37453
     37452     37453     37454     37455     37454     37456     37455     37456
     37457     37458     37457     37459     37458     37459     37460     37461
     37460     37462     37461     37462     37463     37464     37463     37465
     37464     37465     37466     37467     37466     37468     37467     37468
     37469     37470     37469     37471     37470     37471     37472     37473
     37472     37474     37473     37474     37475     37476     37475     37477
     37476     37477     37478     37479     37478     37480     37479     37480
     37481     37482     37481     37483     37482     37483     37484     37485
     37484     37486     37485     37486     37487     37488     37487     37489
     37488     37489     37490     37491     37490     37492     37491     37492
     37493     37494     37493     37495     37494     37495     37496     37497
     37496     37498     37497     37498     37499     37500     37499     37501
     37500     37501     37502     37503     37502     37504     37503     37504
     37505     37506     37505     37507     37506     37507     37508     37509
     37508     37510     37509     37510     37511     37512     37511     37513
     37512     37513     37514     37515     37514     37516     37515     37516
     37517     37518     37517     37519     37518     37519     37520     37521
     37520     37522     37521     37522     37523     37524     37523     37525
     37524     37525     37526     37527     37526     37528     37527     37528
     37529     37530     37529     37531     37530     37531     37532     37533
     37532     37534     37533     37534     37535     37536     37535     37537
     37536     37537     37538     37539     37538     37540     37539     37540
     37541     37542     37541     37543     37542     37543     37544     37545
     37544     37546     37545     37546     37547     37548     37547     37549
     37548     37549     37550     37551     37550     37552     37551     37552
     37553     37554     37553     37555     37554     37555     37556     37557
     37556     37558     37557     37558     37559     37560     37559     37561
     37560     37561     37562     37563     37562     37564     37563     37564
     37565     37566     37565     37567     37566     37567     37568     37569
     37568     37570     37569     37570     37571     37572     37571     37573
     37572     37573     37574     37575     37574     37576     37575     37576
     37577     37578     37577     37579     37578     37579     37580     37581
     37580     37582     37581     37582     37583     37584     37583     37585
     37584     37585     37586     37587     37586     37588     37587     37588
     37589     37590     37589     37591     37590     37591     37592     37593
     37592     37594     37593     37594     37595     37596     37595     37597
     37596     37597     37598     37599     37598     37600     37599     37600
     37601     37602     37601     37603     37602     37603     37604     37605
     37604     37606     37605     37606     37607     37608     37607     37609
     37608     37609     37610     37611     37610     37612     37611     37612
     37613     37614     37613     37615     37614     37615     37616     37617
     37616     37618     37617     37618     37619     37620     37619     37621
     37620     37621     37622     37623     37622     37624     37623     37624
     37625     37626     37625     37627     37626     37627     37628     37629
     37628     37630     37629     37630     37631     37632     37631     37633
     37632     37633     37634     37635     37634     37636     37635     37636
     37637     37638     37637     37639     37638     37639     37640     37641
     37640     37642     37641     37642     37643     37644     37643     37645
     37644     37645     37646     37647     37646     37648     37647     37648
     37649     37650     37649     37651     37650     37651     37652     37653
     37652     37654     37653     37654     37655     37656     37655     37657
     37656     37657     37658     37659     37658     37660     37659     37660
     37661     37662     37661     37663     37662     37663     37664     37665
     37664     37666     37665     37666     37667     37668     37667     37669
     37668     37669     37670     37671     37670     37672     37671     37672
     37673     37674     37673     37675     37674     37675     37676     37677
     37676     37678     37677     37678     37679     37680     37679     37681
     37680     37681     37682     37683     37682     37684     37683     37684
     37685     37686     37685     37687     37686     37687     37688     37689
     37688     37690     37689     37690     37691     37692     37691     37693
     37692     37693     37694     37695     37694     37696     37695     37696
     37697     37698     37697     37699     37698     37699     37700     37701
     37700     37702     37701     37702     37703     37704     37703     37705
     37704     37705     37706     37707     37706     37708     37707     37708
     37709     37710     37709     37711     37710     37711     37712     37713
     37712     37714     37713     37714     37715     37716     37715     37717
     37716     37717     37718     37719     37718     37720     37719     37720
     37721     37722     37721     37723     37722     37723     37724     37725
     37724     37726     37725     37726     37727     37728     37727     37729
     37728     37729     37730     37731     37730     37732     37731     37732
     37733     37734     37733     37735     37734     37735     37736     37737
     37736     37738     37737     37738     37739     37740     37739     37741
     37740     37741     37742     37743     37742     37744     37743     37744
     37745     37746     37745     37747     37746     37747     37748     37749
     37748     37750     37749     37750     37751     37752     37751     37753
     37752     37753     37754     37755     37754     37756     37755     37756
     37757     37758     37757     37759     37758     37759     37760     37761
     37760     37762     37761     37762     37763     37764     37763     37765
     37764     37765     37766     37767     37766     37768     37767     37768
     37769     37770     37769     37771     37770     37771     37772     37773
     37772     37774     37773     37774     37775     37776     37775     37777
     37776     37777     37778     37779     37778     37780     37779     37780
     37781     37782     37781     37783     37782     37783     37784     37785
     37784     37786     37785     37786     37787     37788     37787     37789
     37788     37789     37790     37791     37790     37792     37791     37792
     37793     37794     37793     37795     37794     37795     37796     37797
     37796     37798     37797     37798     37799     37800     37799     37801
     37800     37801     37802     37803     37802     37804     37803     37804
     37805     37806     37805     37807     37806     37807     37808     37809
     37808     37810     37809     37810     37811     37812     37811     37813
     37812     37813     37814     37815     37814     37816     37815     37816
     37817     37818     37817     37819     37818     37819     37820     37821
     37820     37822     37821     37822     37823     37824     37823     37825
     37824     37825     37826     37827     37826     37828     37827     37828
     37829     37830     37829     37831     37830     37831     37832     37833
     37832     37834     37833     37834     37835     37836     37835     37837
     37836     37837     37838     37839     37838     37840     37839     37840
     37841     37842     37841     37843     37842     37843     37844     37845
     37844     37846     37845     37846     37847     37848     37847     37849
     37848     37849     37850     37851     37850     37852     37851     37852
     37853     37854     37853     37855     37854     37855     37856     37857
     37856     37858     37857     37858     37859     37860     37859     37861
     37860     37861     37862     37863     37862     37864     37863     37864
     37865     37866     37865     37867     37866     37867     37868     37869
     37868     37870     37869     37870     37871     37872     37871     37873
     37872     37873     37874     37875     37874     37876     37875     37876
     37877     37878     37877     37879     37878     37879     37880     37881
     37880     37882     37881     37882     37883     37884     37883     37885
     37884     37885     37886     37887     37886     37888     37887     37888
     37889     37890     37889     37891     37890     37891     37892     37893
     37892     37894     37893     37894     37895     37896     37895     37897
     37896     37897     37898     37899     37898     37900     37899     37900
     37901     37902     37901     37903     37902     37903     37904     37905
     37904     37906     37905     37906     37907     37908     37907     37909
     37908     37909     37910     37911     37910     37912     37911     37912
     37913     37914     37913     37915     37914     37915     37916     37917
     37916     37918     37917     37918     37919     37920     37919     37921
     37920     37921     37922     37923     37922     37924     37923     37924
     37925     37926     37925     37927     37926     37927     37928     37929
     37928     37930     37929     37930     37931     37932     37931     37933
     37932     37933     37934     37935     37934     37936     37935     37936
     37937     37938     37937     37939     37938     37939     37940     37941
     37940     37942     37941     37942     37943     37944     37943     37945
     37944     37945     37946     37947     37946     37948     37947     37948
     37949     37950     37949     37951     37950     37951     37952     37953
     37952     37954     37953     37954     37955     37956     37955     37957
     37956     37957     37958     37959     37958     37960     37959     37960
     37961     37962     37961     37963     37962     37963     37964     37965
     37964     37966     37965     37966     37967     37968     37967     37969
     37968     37969     37970     37971     37970     37972     37971     37972
     37973     37974     37973     37975     37974     37975     37976     37977
     37976     37978     37977     37978     37979     37980     37979     37981
     37980     37981     37982     37983     37982     37984     37983     37984
     37985     37986     37985     37987     37986     37987     37988     37989
     37988     37990     37989     37990     37991     37992     37991     37993
     37992     37993     37994     37995     37994     37996     37995     37996
     37997     37998     37997     37999     37998     37999     38000     38001
     38000     38002     38001     38002     38003     38004     38003     38005
     38004     38005     38006     38007     38006     38008     38007     38008
     38009     38010     38009     38011     38010     38011     38012     38013
     38012     38014     38013     38014     38015     38016     38015     38017
     38016     38017     38018     38019     38018     38020     38019     38020
     38021     38022     38021     38023     38022     38023     38024     38025
     38024     38026     38025     38026     38027     38028     38027     38029
     38028     38029     38030     38031     38030     38032     38031     38032
     38033     38034     38033     38035     38034     38035     38036     38037
     38036     38038     38037     38038     38039     38040     38039     38041
     38040     38041     38042     38043     38042     38044     38043     38044
     38045     38046     38045     38047     38046     38047     38048     38049
     38048     38050     38049     38050     38051     38052     38051     38053
     38052     38053     38054     38055     38054     38056     38055     38056
     38057     38058     38057     38059     38058     38059     38060     38061
     38060     38062     38061     38062     38063     38064     38063     38065
     38064     38065     38066     38067     38066     38068     38067     38068
     38069     38070     38069     38071     38070     38071     38072     38073
     38072     38074     38073     38074     38075     38076     38075     38077
     38076     38077     38078     38079     38078     38080     38079     38080
     38081     38082     38081     38083     38082     38083     38084     38085
     38084     38086     38085     38086     38087     38088     38087     38089
     38088     38089     38090     38091     38090     38092     38091     38092
     38093     38094     38093     38095     38094     38095     38096     38097
     38096     38098     38097     38098     38099     38100     38099     38101
     38100     38101     38102     38103     38102     38104     38103     38104
     38105     38106     38105     38107     38106     38107     38108     38109
     38108     38110     38109     38110     38111     38112     38111     38113
     38112     38113     38114     38115     38114     38116     38115     38116
     38117     38118     38117     38119     38118     38119     38120     38121
     38120     38122     38121     38122     38123     38124     38123     38125
     38124     38125     38126     38127     38126     38128     38127     38128
     38129     38130     38129     38131     38130     38131     38132     38133
     38132     38134     38133     38134     38135     38136     38135     38137
     38136     38137     38138     38139     38138     38140     38139     38140
     38141     38142     38141     38143     38142     38143     38144     38145
     38144     38146     38145     38146     38147     38148     38147     38149
     38148     38149     38150     38151     38150     38152     38151     38152
     38153     38154     38153     38155     38154     38155     38156     38157
     38156     38158     38157     38158     38159     38160     38159     38161
     38160     38161     38162     38163     38162     38164     38163     38164
     38165     38166     38165     38167     38166     38167     38168     38169
     38168     38170     38169     38170     38171     38172     38171     38173
     38172     38173     38174     38175     38174     38176     38175     38176
     38177     38178     38177     38179     38178     38179     38180     38181
     38180     38182     38181     38182     38183     38184     38183     38185
     38184     38185     38186     38187     38186     38188     38187     38188
     38189     38190     38189     38191     38190     38191     38192     38193
     38192     38194     38193     38194     38195     38196     38195     38197
     38196     38197     38198     38199     38198     38200     38199     38200
     38201     38202     38201     38203     38202     38203     38204     38205
     38204     38206     38205     38206     38207     38208     38207     38209
     38208     38209     38210     38211     38210     38212     38211     38212
     38213     38214     38213     38215     38214     38215     38216     38217
     38216     38218     38217     38218     38219     38220     38219     38221
     38220     38221     38222     38223     38222     38224     38223     38224
     38225     38226     38225     38227     38226     38227     38228     38229
     38228     38230     38229     38230     38231     38232     38231     38233
     38232     38233     38234     38235     38234     38236     38235     38236
     38237     38238     38237     38239     38238     38239     38240     38241
     38240     38242     38241     38242     38243     38244     38243     38245
     38244     38245     38246     38247     38246     38248     38247     38248
     38249     38250     38249     38251     38250     38251     38252     38253
     38252     38254     38253     38254     38255     38256     38255     38257
     38256     38257     38258     38259     38258     38260     38259     38260
     38261     38262     38261     38263     38262     38263     38264     38265
     38264     38266     38265     38266     38267     38268     38267     38269
     38268     38269     38270     38271     38270     38272     38271     38272
     38273     38274     38273     38275     38274     38275     38276     38277
     38276     38278     38277     38278     38279     38280     38279     38281
     38280     38281     38282     38283     38282     38284     38283     38284
     38285     38286     38285     38287     38286     38287     38288     38289
     38288     38290     38289     38290     38291     38292     38291     38293
     38292     38293     38294     38295     38294     38296     38295     38296
     38297     38298     38297     38299     38298     38299     38300     38301
     38300     38302     38301     38302     38303     38304     38303     38305
     38304     38305     38306     38307     38306     38308     38307     38308
     38309     38310     38309     38311     38310     38311     38312     38313
     38312     38314     38313     38314     38315     38316     38315     38317
     38316     38317     38318     38319     38318     38320     38319     38320
     38321     38322     38321     38323     38322     38323     38324     38325
     38324     38326     38325     38326     38327     38328     38327     38329
     38328     38329     38330     38331     38330     38332     38331     38332
     38333     38334     38333     38335     38334     38335     38336     38337
     38336     38338     38337     38338     38339     38340     38339     38341
     38340     38341     38342     38343     38342     38344     38343     38344
     38345     38346     38345     38347     38346     38347     38348     38349
     38348     38350     38349     38350     38351     38352     38351     38353
     38352     38353     38354     38355     38354     38356     38355     38356
     38357     38358     38357     38359     38358     38359     38360     38361
     38360     38362     38361     38362     38363     38364     38363     38365
     38364     38365     38366     38367     38366     38368     38367     38368
     38369     38370     38369     38371     38370     38371     38372     38373
     38372     38374     38373     38374     38375     38376     38375     38377
     38376     38377     38378     38379     38378     38380     38379     38380
     38381     38382     38381     38383     38382     38383     38384     38385
     38384     38386     38385     38386     38387     38388     38387     38389
     38388     38389     38390     38391     38390     38392     38391     38392
     38393     38394     38393     38395     38394     38395     38396     38397
     38396     38398     38397     38398     38399     38400     38399     38401
     38400     38401     38402     38403     38402     38404     38403     38404
     38405     38406     38405     38407     38406     38407     38408     38409
     38408     38410     38409     38410     38411     38412     38411     38413
     38412     38413     38414     38415     38414     38416     38415     38416
     38417     38418     38417     38419     38418     38419     38420     38421
     38420     38422     38421     38422     38423     38424     38423     38425
     38424     38425     38426     38427     38426     38428     38427     38428
     38429     38430     38429     38431     38430     38431     38432     38433
     38432     38434     38433     38434     38435     38436     38435     38437
     38436     38437     38438     38439     38438     38440     38439     38440
     38441     38442     38441     38443     38442     38443     38444     38445
     38444     38446     38445     38446     38447     38448     38447     38449
     38448     38449     38450     38451     38450     38452     38451     38452
     38453     38454     38453     38455     38454     38455     38456     38457
     38456     38458     38457     38458     38459     38460     38459     38461
     38460     38461     38462     38463     38462     38464     38463     38464
     38465     38466     38465     38467     38466     38467     38468     38469
     38468     38470     38469     38470     38471     38472     38471     38473
     38472     38473     38474     38475     38474     38476     38475     38476
     38477     38478     38477     38479     38478     38479     38480     38481
     38480     38482     38481     38482     38483     38484     38483     38485
     38484     38485     38486     38487     38486     38488     38487     38488
     38489     38490     38489     38491     38490     38491     38492     38493
     38492     38494     38493     38494     38495     38496     38495     38497
     38496     38497     38498     38499     38498     38500     38499     38500
     38501     38502     38501     38503     38502     38503     38504     38505
     38504     38506     38505     38506     38507     38508     38507     38509
     38508     38509     38510     38511     38510     38512     38511     38512
     38513     38514     38513     38515     38514     38515     38516     38517
     38516     38518     38517     38518     38519     38520     38519     38521
     38520     38521     38522     38523     38522     38524     38523     38524
     38525     38526     38525     38527     38526     38527     38528     38529
     38528     38530     38529     38530     38531     38532     38531     38533
     38532     38533     38534     38535     38534     38536     38535     38536
     38537     38538     38537     38539     38538     38539     38540     38541
     38540     38542     38541     38542     38543     38544     38543     38545
     38544     38545     38546     38547     38546     38548     38547     38548
     38549     38550     38549     38551     38550     38551     38552     38553
     38552     38554     38553     38554     38555     38556     38555     38557
     38556     38557     38558     38559     38558     38560     38559     38560
     38561     38562     38561     38563     38562     38563     38564     38565
     38564     38566     38565     38566     38567     38568     38567     38569
     38568     38569     38570     38571     38570     38572     38571     38572
     38573     38574     38573     38575     38574     38575     38576     38577
     38576     38578     38577     38578     38579     38580     38579     38581
     38580     38581     38582     38583     38582     38584     38583     38584
     38585     38586     38585     38587     38586     38587     38588     38589
     38588     38590     38589     38590     38591     38592     38591     38593
     38592     38593     38594     38595     38594     38596     38595     38596
     38597     38598     38597     38599     38598     38599     38600     38601
     38600     38602     38601     38602     38603     38604     38603     38605
     38604     38605     38606     38607     38606     38608     38607     38608
     38609     38610     38609     38611     38610     38611     38612     38613
     38612     38614     38613     38614     38615     38616     38615     38617
     38616     38617     38618     38619     38618     38620     38619     38620
     38621     38622     38621     38623     38622     38623     38624     38625
     38624     38626     38625     38626     38627     38628     38627     38629
     38628     38629     38630     38631     38630     38632     38631     38632
     38633     38634     38633     38635     38634     38635     38636     38637
     38636     38638     38637     38638     38639     38640     38639     38641
     38640     38641     38642     38643     38642     38644     38643     38644
     38645     38646     38645     38647     38646     38647     38648     38649
     38648     38650     38649     38650     38651     38652     38651     38653
     38652     38653     38654     38655     38654     38656     38655     38656
     38657     38658     38657     38659     38658     38659     38660     38661
     38660     38662     38661     38662     38663     38664     38663     38665
     38664     38665     38666     38667     38666     38668     38667     38668
     38669     38670     38669     38671     38670     38671     38672     38673
     38672     38674     38673     38674     38675     38676     38675     38677
     38676     38677     38678     38679     38678     38680     38679     38680
     38681     38682     38681     38683     38682     38683     38684     38685
     38684     38686     38685     38686     38687     38688     38687     38689
     38688     38689     38690     38691     38690     38692     38691     38692
     38693     38694     38693     38695     38694     38695     38696     38697
     38696     38698     38697     38698     38699     38700     38699     38701
     38700     38701     38702     38703     38702     38704     38703     38704
     38705     38706     38705     38707     38706     38707     38708     38709
     38708     38710     38709     38710     38711     38712     38711     38713
     38712     38713     38714     38715     38714     38716     38715     38716
     38717     38718     38717     38719     38718     38719     38720     38721
     38720     38722     38721     38722     38723     38724     38723     38725
     38724     38725     38726     38727     38726     38728     38727     38728
     38729     38730     38729     38731     38730     38731     38732     38733
     38732     38734     38733     38734     38735     38736     38735     38737
     38736     38737     38738     38739     38738     38740     38739     38740
     38741     38742     38741     38743     38742     38743     38744     38745
     38744     38746     38745     38746     38747     38748     38747     38749
     38748     38749     38750     38751     38750     38752     38751     38752
     38753     38754     38753     38755     38754     38755     38756     38757
     38756     38758     38757     38758     38759     38760     38759     38761
     38760     38761     38762     38763     38762     38764     38763     38764
     38765     38766     38765     38767     38766     38767     38768     38769
     38768     38770     38769     38770     38771     38772     38771     38773
     38772     38773     38774     38775     38774     38776     38775     38776
     38777     38778     38777     38779     38778     38779     38780     38781
     38780     38782     38781     38782     38783     38784     38783     38785
     38784     38785     38786     38787     38786     38788     38787     38788
     38789     38790     38789     38791     38790     38791     38792     38793
     38792     38794     38793     38794     38795     38796     38795     38797
     38796     38797     38798     38799     38798     38800     38799     38800
     38801     38802     38801     38803     38802     38803     38804     38805
     38804     38806     38805     38806     38807     38808     38807     38809
     38808     38809     38810     38811     38810     38812     38811     38812
     38813     38814     38813     38815     38814     38815     38816     38817
     38816     38818     38817     38818     38819     38820     38819     38821
     38820     38821     38822     38823     38822     38824     38823     38824
     38825     38826     38825     38827     38826     38827     38828     38829
     38828     38830     38829     38830     38831     38832     38831     38833
     38832     38833     38834     38835     38834     38836     38835     38836
     38837     38838     38837     38839     38838     38839     38840     38841
     38840     38842     38841     38842     38843     38844     38843     38845
     38844     38845     38846     38847     38846     38848     38847     38848
     38849     38850     38849     38851     38850     38851     38852     38853
     38852     38854     38853     38854     38855     38856     38855     38857
     38856     38857     38858     38859     38858     38860     38859     38860
     38861     38862     38861     38863     38862     38863     38864     38865
     38864     38866     38865     38866     38867     38868     38867     38869
     38868     38869     38870     38871     38870     38872     38871     38872
     38873     38874     38873     38875     38874     38875     38876     38877
     38876     38878     38877     38878     38879     38880     38879     38881
     38880     38881     38882     38883     38882     38884     38883     38884
     38885     38886     38885     38887     38886     38887     38888     38889
     38888     38890     38889     38890     38891     38892     38891     38893
     38892     38893     38894     38895     38894     38896     38895     38896
     38897     38898     38897     38899     38898     38899     38900     38901
     38900     38902     38901     38902     38903     38904     38903     38905
     38904     38905     38906     38907     38906     38908     38907     38908
     38909     38910     38909     38911     38910     38911     38912     38913
     38912     38914     38913     38914     38915     38916     38915     38917
     38916     38917     38918     38919     38918     38920     38919     38920
     38921     38922     38921     38923     38922     38923     38924     38925
     38924     38926     38925     38926     38927     38928     38927     38929
     38928     38929     38930     38931     38930     38932     38931     38932
     38933     38934     38933     38935     38934     38935     38936     38937
     38936     38938     38937     38938     38939     38940     38939     38941
     38940     38941     38942     38943     38942     38944     38943     38944
     38945     38946     38945     38947     38946     38947     38948     38949
     38948     38950     38949     38950     38951     38952     38951     38953
     38952     38953     38954     38955     38954     38956     38955     38956
     38957     38958     38957     38959     38958     38959     38960     38961
     38960     38962     38961     38962     38963     38964     38963     38965
     38964     38965     38966     38967     38966     38968     38967     38968
     38969     38970     38969     38971     38970     38971     38972     38973
     38972     38974     38973     38974     38975     38976     38975     38977
     38976     38977     38978     38979     38978     38980     38979     38980
     38981     38982     38981     38983     38982     38983     38984     38985
     38984     38986     38985     38986     38987     38988     38987     38989
     38988     38989     38990     38991     38990     38992     38991     38992
     38993     38994     38993     38995     38994     38995     38996     38997
     38996     38998     38997     38998     38999     39000     38999     39001
     39000     39001     39002     39003     39002     39004     39003     39004
     39005     39006     39005     39007     39006     39007     39008     39009
     39008     39010     39009     39010     39011     39012     39011     39013
     39012     39013     39014     39015     39014     39016     39015     39016
     39017     39018     39017     39019     39018     39019     39020     39021
     39020     39022     39021     39022     39023     39024     39023     39025
     39024     39025     39026     39027     39026     39028     39027     39028
     39029     39030     39029     39031     39030     39031     39032     39033
     39032     39034     39033     39034     39035     39036     39035     39037
     39036     39037     39038     39039     39038     39040     39039     39040
     39041     39042     39041     39043     39042     39043     39044     39045
     39044     39046     39045     39046     39047     39048     39047     39049
     39048     39049     39050     39051     39050     39052     39051     39052
     39053     39054     39053     39055     39054     39055     39056     39057
     39056     39058     39057     39058     39059     39060     39059     39061
     39060     39061     39062     39063     39062     39064     39063     39064
     39065     39066     39065     39067     39066     39067     39068     39069
     39068     39070     39069     39070     39071     39072     39071     39073
     39072     39073     39074     39075     39074     39076     39075     39076
     39077     39078     39077     39079     39078     39079     39080     39081
     39080     39082     39081     39082     39083     39084     39083     39085
     39084     39085     39086     39087     39086     39088     39087     39088
     39089     39090     39089     39091     39090     39091     39092     39093
     39092     39094     39093     39094     39095     39096     39095     39097
     39096     39097     39098     39099     39098     39100     39099     39100
     39101     39102     39101     39103     39102     39103     39104     39105
     39104     39106     39105     39106     39107     39108     39107     39109
     39108     39109     39110     39111     39110     39112     39111     39112
     39113     39114     39113     39115     39114     39115     39116     39117
     39116     39118     39117     39118     39119     39120     39119     39121
     39120     39121     39122     39123     39122     39124     39123     39124
     39125     39126     39125     39127     39126     39127     39128     39129
     39128     39130     39129     39130     39131     39132     39131     39133
     39132     39133     39134     39135     39134     39136     39135     39136
     39137     39138     39137     39139     39138     39139     39140     39141
     39140     39142     39141     39142     39143     39144     39143     39145
     39144     39145     39146     39147     39146     39148     39147     39148
     39149     39150     39149     39151     39150     39151     39152     39153
     39152     39154     39153     39154     39155     39156     39155     39157
     39156     39157     39158     39159     39158     39160     39159     39160
     39161     39162     39161     39163     39162     39163     39164     39165
     39164     39166     39165     39166     39167     39168     39167     39169
     39168     39169     39170     39171     39170     39172     39171     39172
     39173     39174     39173     39175     39174     39175     39176     39177
     39176     39178     39177     39178     39179     39180     39179     39181
     39180     39181     39182     39183     39182     39184     39183     39184
     39185     39186     39185     39187     39186     39187     39188     39189
     39188     39190     39189     39190     39191     39192     39191     39193
     39192     39193     39194     39195     39194     39196     39195     39196
     39197     39198     39197     39199     39198     39199     39200     39201
     39200     39202     39201     39202     39203     39204     39203     39205
     39204     39205     39206     39207     39206     39208     39207     39208
     39209     39210     39209     39211     39210     39211     39212     39213
     39212     39214     39213     39214     39215     39216     39215     39217
     39216     39217     39218     39219     39218     39220     39219     39220
     39221     39222     39221     39223     39222     39223     39224     39225
     39224     39226     39225     39226     39227     39228     39227     39229
     39228     39229     39230     39231     39230     39232     39231     39232
     39233     39234     39233     39235     39234     39235     39236     39237
     39236     39238     39237     39238     39239     39240     39239     39241
     39240     39241     39242     39243     39242     39244     39243     39244
     39245     39246     39245     39247     39246     39247     39248     39249
     39248     39250     39249     39250     39251     39252     39251     39253
     39252     39253     39254     39255     39254     39256     39255     39256
     39257     39258     39257     39259     39258     39259     39260     39261
     39260     39262     39261     39262     39263     39264     39263     39265
     39264     39265     39266     39267     39266     39268     39267     39268
     39269     39270     39269     39271     39270     39271     39272     39273
     39272     39274     39273     39274     39275     39276     39275     39277
     39276     39277     39278     39279     39278     39280     39279     39280
     39281     39282     39281     39283     39282     39283     39284     39285
     39284     39286     39285     39286     39287     39288     39287     39289
     39288     39289     39290     39291     39290     39292     39291     39292
     39293     39294     39293     39295     39294     39295     39296     39297
     39296     39298     39297     39298     39299     39300     39299     39301
     39300     39301     39302     39303     39302     39304     39303     39304
     39305     39306     39305     39307     39306     39307     39308     39309
     39308     39310     39309     39310     39311     39312     39311     39313
     39312     39313     39314     39315     39314     39316     39315     39316
     39317     39318     39317     39319     39318     39319     39320     39321
     39320     39322     39321     39322     39323     39324     39323     39325
     39324     39325     39326     39327     39326     39328     39327     39328
     39329     39330     39329     39331     39330     39331     39332     39333
     39332     39334     39333     39334     39335     39336     39335     39337
     39336     39337     39338     39339     39338     39340     39339     39340
     39341     39342     39341     39343     39342     39343     39344     39345
     39344     39346     39345     39346     39347     39348     39347     39349
     39348     39349     39350     39351     39350     39352     39351     39352
     39353     39354     39353     39355     39354     39355     39356     39357
     39356     39358     39357     39358     39359     39360     39359     39361
     39360     39361     39362     39363     39362     39364     39363     39364
     39365     39366     39365     39367     39366     39367     39368     39369
     39368     39370     39369     39370     39371     39372     39371     39373
     39372     39373     39374     39375     39374     39376     39375     39376
     39377     39378     39377     39379     39378     39379     39380     39381
     39380     39382     39381     39382     39383     39384     39383     39385
     39384     39385     39386     39387     39386     39388     39387     39388
     39389     39390     39389     39391     39390     39391     39392     39393
     39392     39394     39393     39394     39395     39396     39395     39397
     39396     39397     39398     39399     39398     39400     39399     39400
     39401     39402     39401     39403     39402     39403     39404     39405
     39404     39406     39405     39406     39407     39408     39407     39409
     39408     39409     39410     39411     39410     39412     39411     39412
     39413     39414     39413     39415     39414     39415     39416     39417
     39416     39418     39417     39418     39419     39420     39419     39421
     39420     39421     39422     39423     39422     39424     39423     39424
     39425     39426     39425     39427     39426     39427     39428     39429
     39428     39430     39429     39430     39431     39432     39431     39433
     39432     39433     39434     39435     39434     39436     39435     39436
     39437     39438     39437     39439     39438     39439     39440     39441
     39440     39442     39441     39442     39443     39444     39443     39445
     39444     39445     39446     39447     39446     39448     39447     39448
     39449     39450     39449     39451     39450     39451     39452     39453
     39452     39454     39453     39454     39455     39456     39455     39457
     39456     39457     39458     39459     39458     39460     39459     39460
     39461     39462     39461     39463     39462     39463     39464     39465
     39464     39466     39465     39466     39467     39468     39467     39469
     39468     39469     39470     39471     39470     39472     39471     39472
     39473     39474     39473     39475     39474     39475     39476     39477
     39476     39478     39477     39478     39479     39480     39479     39481
     39480     39481     39482     39483     39482     39484     39483     39484
     39485     39486     39485     39487     39486     39487     39488     39489
     39488     39490     39489     39490     39491     39492     39491     39493
     39492     39493     39494     39495     39494     39496     39495     39496
     39497     39498     39497     39499     39498     39499     39500     39501
     39500     39502     39501     39502     39503     39504     39503     39505
     39504     39505     39506     39507     39506     39508     39507     39508
     39509     39510     39509     39511     39510     39511     39512     39513
     39512     39514     39513     39514     39515     39516     39515     39517
     39516     39517     39518     39519     39518     39520     39519     39520
     39521     39522     39521     39523     39522     39523     39524     39525
     39524     39526     39525     39526     39527     39528     39527     39529
     39528     39529     39530     39531     39530     39532     39531     39532
     39533     39534     39533     39535     39534     39535     39536     39537
     39536     39538     39537     39538     39539     39540     39539     39541
     39540     39541     39542     39543     39542     39544     39543     39544
     39545     39546     39545     39547     39546     39547     39548     39549
     39548     39550     39549     39550     39551     39552     39551     39553
     39552     39553     39554     39555     39554     39556     39555     39556
     39557     39558     39557     39559     39558     39559     39560     39561
     39560     39562     39561     39562     39563     39564     39563     39565
     39564     39565     39566     39567     39566     39568     39567     39568
     39569     39570     39569     39571     39570     39571     39572     39573
     39572     39574     39573     39574     39575     39576     39575     39577
     39576     39577     39578     39579     39578     39580     39579     39580
     39581     39582     39581     39583     39582     39583     39584     39585
     39584     39586     39585     39586     39587     39588     39587     39589
     39588     39589     39590     39591     39590     39592     39591     39592
     39593     39594     39593     39595     39594     39595     39596     39597
     39596     39598     39597     39598     39599     39600     39599     39601
     39600     39601     39602     39603     39602     39604     39603     39604
     39605     39606     39605     39607     39606     39607     39608     39609
     39608     39610     39609     39610     39611     39612     39611     39613
     39612     39613     39614     39615     39614     39616     39615     39616
     39617     39618     39617     39619     39618     39619     39620     39621
     39620     39622     39621     39622     39623     39624     39623     39625
     39624     39625     39626     39627     39626     39628     39627     39628
     39629     39630     39629     39631     39630     39631     39632     39633
     39632     39634     39633     39634     39635     39636     39635     39637
     39636     39637     39638     39639     39638     39640     39639     39640
     39641     39642     39641     39643     39642     39643     39644     39645
     39644     39646     39645     39646     39647     39648     39647     39649
     39648     39649     39650     39651     39650     39652     39651     39652
     39653     39654     39653     39655     39654     39655     39656     39657
     39656     39658     39657     39658     39659     39660     39659     39661
     39660     39661     39662     39663     39662     39664     39663     39664
     39665     39666     39665     39667     39666     39667     39668     39669
     39668     39670     39669     39670     39671     39672     39671     39673
     39672     39673     39674     39675     39674     39676     39675     39676
     39677     39678     39677     39679     39678     39679     39680     39681
     39680     39682     39681     39682     39683     39684     39683     39685
     39684     39685     39686     39687     39686     39688     39687     39688
     39689     39690     39689     39691     39690     39691     39692     39693
     39692     39694     39693     39694     39695     39696     39695     39697
     39696     39697     39698     39699     39698     39700     39699     39700
     39701     39702     39701     39703     39702     39703     39704     39705
     39704     39706     39705     39706     39707     39708     39707     39709
     39708     39709     39710     39711     39710     39712     39711     39712
     39713     39714     39713     39715     39714     39715     39716     39717
     39716     39718     39717     39718     39719     39720     39719     39721
     39720     39721     39722     39723     39722     39724     39723     39724
     39725     39726     39725     39727     39726     39727     39728     39729
     39728     39730     39729     39730     39731     39732     39731     39733
     39732     39733     39734     39735     39734     39736     39735     39736
     39737     39738     39737     39739     39738     39739     39740     39741
     39740     39742     39741     39742     39743     39744     39743     39745
     39744     39745     39746     39747     39746     39748     39747     39748
     39749     39750     39749     39751     39750     39751     39752     39753
     39752     39754     39753     39754     39755     39756     39755     39757
     39756     39757     39758     39759     39758     39760     39759     39760
     39761     39762     39761     39763     39762     39763     39764     39765
     39764     39766     39765     39766     39767     39768     39767     39769
     39768     39769     39770     39771     39770     39772     39771     39772
     39773     39774     39773     39775     39774     39775     39776     39777
     39776     39778     39777     39778     39779     39780     39779     39781
     39780     39781     39782     39783     39782     39784     39783     39784
     39785     39786     39785     39787     39786     39787     39788     39789
     39788     39790     39789     39790     39791     39792     39791     39793
     39792     39793     39794     39795     39794     39796     39795     39796
     39797     39798     39797     39799     39798     39799     39800     39801
     39800     39802     39801     39802     39803     39804     39803     39805
     39804     39805     39806     39807     39806     39808     39807     39808
     39809     39810     39809     39811     39810     39811     39812     39813
     39812     39814     39813     39814     39815     39816     39815     39817
     39816     39817     39818     39819     39818     39820     39819     39820
     39821     39822     39821     39823     39822     39823     39824     39825
     39824     39826     39825     39826     39827     39828     39827     39829
     39828     39829     39830     39831     39830     39832     39831     39832
     39833     39834     39833     39835     39834     39835     39836     39837
     39836     39838     39837     39838     39839     39840     39839     39841
     39840     39841     39842     39843     39842     39844     39843     39844
     39845     39846     39845     39847     39846     39847     39848     39849
     39848     39850     39849     39850     39851     39852     39851     39853
     39852     39853     39854     39855     39854     39856     39855     39856
     39857     39858     39857     39859     39858     39859     39860     39861
     39860     39862     39861     39862     39863     39864     39863     39865
     39864     39865     39866     39867     39866     39868     39867     39868
     39869     39870     39869     39871     39870     39871     39872     39873
     39872     39874     39873     39874     39875     39876     39875     39877
     39876     39877     39878     39879     39878     39880     39879     39880
     39881     39882     39881     39883     39882     39883     39884     39885
     39884     39886     39885     39886     39887     39888     39887     39889
     39888     39889     39890     39891     39890     39892     39891     39892
     39893     39894     39893     39895     39894     39895     39896     39897
     39896     39898     39897     39898     39899     39900     39899     39901
     39900     39901     39902     39903     39902     39904     39903     39904
     39905     39906     39905     39907     39906     39907     39908     39909
     39908     39910     39909     39910     39911     39912     39911     39913
     39912     39913     39914     39915     39914     39916     39915     39916
     39917     39918     39917     39919     39918     39919     39920     39921
     39920     39922     39921     39922     39923     39924     39923     39925
     39924     39925     39926     39927     39926     39928     39927     39928
     39929     39930     39929     39931     39930     39931     39932     39933
     39932     39934     39933     39934     39935     39936     39935     39937
     39936     39937     39938     39939     39938     39940     39939     39940
     39941     39942     39941     39943     39942     39943     39944     39945
     39944     39946     39945     39946     39947     39948     39947     39949
     39948     39949     39950     39951     39950     39952     39951     39952
     39953     39954     39953     39955     39954     39955     39956     39957
     39956     39958     39957     39958     39959     39960     39959     39961
     39960     39961     39962     39963     39962     39964     39963     39964
     39965     39966     39965     39967     39966     39967     39968     39969
     39968     39970     39969     39970     39971     39972     39971     39973
     39972     39973     39974     39975     39974     39976     39975     39976
     39977     39978     39977     39979     39978     39979     39980     39981
     39980     39982     39981     39982     39983     39984     39983     39985
     39984     39985     39986     39987     39986     39988     39987     39988
     39989     39990     39989     39991     39990     39991     39992     39993
     39992     39994     39993     39994     39995     39996     39995     39997
     39996     39997     39998     39999     39998     40000     39999     40000
     40001     40002     40001     40003     40002     40003     40004     40005
     40004     40006     40005     40006     40007     40008     40007     40009
     40008     40009     40010     40011     40010     40012     40011     40012
     40013     40014     40013     40015     40014     40015     40016     40017
     40016     40018     40017     40018     40019     40020     40019     40021
     40020     40021     40022     40023     40022     40024     40023     40024
     40025     40026     40025     40027     40026     40027     40028     40029
     40028     40030     40029     40030     40031     40032     40031     40033
     40032     40033     40034     40035     40034     40036     40035     40036
     40037     40038     40037     40039     40038     40039     40040     40041
     40040     40042     40041     40042     40043     40044     40043     40045
     40044     40045     40046     40047     40046     40048     40047     40048
     40049     40050     40049     40051     40050     40051     40052     40053
     40052     40054     40053     40054     40055     40056     40055     40057
     40056     40057     40058     40059     40058     40060     40059     40060
     40061     40062     40061     40063     40062     40063     40064     40065
     40064     40066     40065     40066     40067     40068     40067     40069
     40068     40069     40070     40071     40070     40072     40071     40072
     40073     40074     40073     40075     40074     40075     40076     40077
     40076     40078     40077     40078     40079     40080     40079     40081
     40080     40081     40082     40083     40082     40084     40083     40084
     40085     40086     40085     40087     40086     40087     40088     40089
     40088     40090     40089     40090     40091     40092     40091     40093
     40092     40093     40094     40095     40094     40096     40095     40096
     40097     40098     40097     40099     40098     40099     40100     40101
     40100     40102     40101     40102     40103     40104     40103     40105
     40104     40105     40106     40107     40106     40108     40107     40108
     40109     40110     40109     40111     40110     40111     40112     40113
     40112     40114     40113     40114     40115     40116     40115     40117
     40116     40117     40118     40119     40118     40120     40119     40120
     40121     40122     40121     40123     40122     40123     40124     40125
     40124     40126     40125     40126     40127     40128     40127     40129
     40128     40129     40130     40131     40130     40132     40131     40132
     40133     40134     40133     40135     40134     40135     40136     40137
     40136     40138     40137     40138     40139     40140     40139     40141
     40140     40141     40142     40143     40142     40144     40143     40144
     40145     40146     40145     40147     40146     40147     40148     40149
     40148     40150     40149     40150     40151     40152     40151     40153
     40152     40153     40154     40155     40154     40156     40155     40156
     40157     40158     40157     40159     40158     40159     40160     40161
     40160     40162     40161     40162     40163     40164     40163     40165
     40164     40165     40166     40167     40166     40168     40167     40168
     40169     40170     40169     40171     40170     40171     40172     40173
     40172     40174     40173     40174     40175     40176     40175     40177
     40176     40177     40178     40179     40178     40180     40179     40180
     40181     40182     40181     40183     40182     40183     40184     40185
     40184     40186     40185     40186     40187     40188     40187     40189
     40188     40189     40190     40191     40190     40192     40191     40192
     40193     40194     40193     40195     40194     40195     40196     40197
     40196     40198     40197     40198     40199     40200     40199     40201
     40200     40201     40202     40203     40202     40204     40203     40204
     40205     40206     40205     40207     40206     40207     40208     40209
     40208     40210     40209     40210     40211     40212     40211     40213
     40212     40213     40214     40215     40214     40216     40215     40216
     40217     40218     40217     40219     40218     40219     40220     40221
     40220     40222     40221     40222     40223     40224     40223     40225
     40224     40225     40226     40227     40226     40228     40227     40228
     40229     40230     40229     40231     40230     40231     40232     40233
     40232     40234     40233     40234     40235     40236     40235     40237
     40236     40237     40238     40239     40238     40240     40239     40240
     40241     40242     40241     40243     40242     40243     40244     40245
     40244     40246     40245     40246     40247     40248     40247     40249
     40248     40249     40250     40251     40250     40252     40251     40252
     40253     40254     40253     40255     40254     40255     40256     40257
     40256     40258     40257     40258     40259     40260     40259     40261
     40260     40261     40262     40263     40262     40264     40263     40264
     40265     40266     40265     40267     40266     40267     40268     40269
     40268     40270     40269     40270     40271     40272     40271     40273
     40272     40273     40274     40275     40274     40276     40275     40276
     40277     40278     40277     40279     40278     40279     40280     40281
     40280     40282     40281     40282     40283     40284     40283     40285
     40284     40285     40286     40287     40286     40288     40287     40288
     40289     40290     40289     40291     40290     40291     40292     40293
     40292     40294     40293     40294     40295     40296     40295     40297
     40296     40297     40298     40299     40298     40300     40299     40300
     40301     40302     40301     40303     40302     40303     40304     40305
     40304     40306     40305     40306     40307     40308     40307     40309
     40308     40309     40310     40311     40310     40312     40311     40312
     40313     40314     40313     40315     40314     40315     40316     40317
     40316     40318     40317     40318     40319     40320     40319     40321
     40320     40321     40322     40323     40322     40324     40323     40324
     40325     40326     40325     40327     40326     40327     40328     40329
     40328     40330     40329     40330     40331     40332     40331     40333
     40332     40333     40334     40335     40334     40336     40335     40336
     40337     40338     40337     40339     40338     40339     40340     40341
     40340     40342     40341     40342     40343     40344     40343     40345
     40344     40345     40346     40347     40346     40348     40347     40348
     40349     40350     40349     40351     40350     40351     40352     40353
     40352     40354     40353     40354     40355     40356     40355     40357
     40356     40357     40358     40359     40358     40360     40359     40360
     40361     40362     40361     40363     40362     40363     40364     40365
     40364     40366     40365     40366     40367     40368     40367     40369
     40368     40369     40370     40371     40370     40372     40371     40372
     40373     40374     40373     40375     40374     40375     40376     40377
     40376     40378     40377     40378     40379     40380     40379     40381
     40380     40381     40382     40383     40382     40384     40383     40384
     40385     40386     40385     40387     40386     40387     40388     40389
     40388     40390     40389     40390     40391     40392     40391     40393
     40392     40393     40394     40395     40394     40396     40395     40396
     40397     40398     40397     40399     40398     40399     40400     40401
     40400     40402     40401     40402     40403     40404     40403     40405
     40404     40405     40406     40407     40406     40408     40407     40408
     40409     40410     40409     40411     40410     40411     40412     40413
     40412     40414     40413     40414     40415     40416     40415     40417
     40416     40417     40418     40419     40418     40420     40419     40420
     40421     40422     40421     40423     40422     40423     40424     40425
     40424     40426     40425     40426     40427     40428     40427     40429
     40428     40429     40430     40431     40430     40432     40431     40432
     40433     40434     40433     40435     40434     40435     40436     40437
     40436     40438     40437     40438     40439     40440     40439     40441
     40440     40441     40442     40443     40442     40444     40443     40444
     40445     40446     40445     40447     40446     40447     40448     40449
     40448     40450     40449     40450     40451     40452     40451     40453
     40452     40453     40454     40455     40454     40456     40455     40456
     40457     40458     40457     40459     40458     40459     40460     40461
     40460     40462     40461     40462     40463     40464     40463     40465
     40464     40465     40466     40467     40466     40468     40467     40468
     40469     40470     40469     40471     40470     40471     40472     40473
     40472     40474     40473     40474     40475     40476     40475     40477
     40476     40477     40478     40479     40478     40480     40479     40480
     40481     40482     40481     40483     40482     40483     40484     40485
     40484     40486     40485     40486     40487     40488     40487     40489
     40488     40489     40490     40491     40490     40492     40491     40492
     40493     40494     40493     40495     40494     40495     40496     40497
     40496     40498     40497     40498     40499     40500     40499     40501
     40500     40501     40502     40503     40502     40504     40503     40504
     40505     40506     40505     40507     40506     40507     40508     40509
     40508     40510     40509     40510     40511     40512     40511     40513
     40512     40513     40514     40515     40514     40516     40515     40516
     40517     40518     40517     40519     40518     40519     40520     40521
     40520     40522     40521     40522     40523     40524     40523     40525
     40524     40525     40526     40527     40526     40528     40527     40528
     40529     40530     40529     40531     40530     40531     40532     40533
     40532     40534     40533     40534     40535     40536     40535     40537
     40536     40537     40538     40539     40538     40540     40539     40540
     40541     40542     40541     40543     40542     40543     40544     40545
     40544     40546     40545     40546     40547     40548     40547     40549
     40548     40549     40550     40551     40550     40552     40551     40552
     40553     40554     40553     40555     40554     40555     40556     40557
     40556     40558     40557     40558     40559     40560     40559     40561
     40560     40561     40562     40563     40562     40564     40563     40564
     40565     40566     40565     40567     40566     40567     40568     40569
     40568     40570     40569     40570     40571     40572     40571     40573
     40572     40573     40574     40575     40574     40576     40575     40576
     40577     40578     40577     40579     40578     40579     40580     40581
     40580     40582     40581     40582     40583     40584     40583     40585
     40584     40585     40586     40587     40586     40588     40587     40588
     40589     40590     40589     40591     40590     40591     40592     40593
     40592     40594     40593     40594     40595     40596     40595     40597
     40596     40597     40598     40599     40598     40600     40599     40600
     40601     40602     40601     40603     40602     40603     40604     40605
     40604     40606     40605     40606     40607     40608     40607     40609
     40608     40609     40610     40611     40610     40612     40611     40612
     40613     40614     40613     40615     40614     40615     40616     40617
     40616     40618     40617     40618     40619     40620     40619     40621
     40620     40621     40622     40623     40622     40624     40623     40624
     40625     40626     40625     40627     40626     40627     40628     40629
     40628     40630     40629     40630     40631     40632     40631     40633
     40632     40633     40634     40635     40634     40636     40635     40636
     40637     40638     40637     40639     40638     40639     40640     40641
     40640     40642     40641     40642     40643     40644     40643     40645
     40644     40645     40646     40647     40646     40648     40647     40648
     40649     40650     40649     40651     40650     40651     40652     40653
     40652     40654     40653     40654     40655     40656     40655     40657
     40656     40657     40658     40659     40658     40660     40659     40660
     40661     40662     40661     40663     40662     40663     40664     40665
     40664     40666     40665     40666     40667     40668     40667     40669
     40668     40669     40670     40671     40670     40672     40671     40672
     40673     40674     40673     40675     40674     40675     40676     40677
     40676     40678     40677     40678     40679     40680     40679     40681
     40680     40681     40682     40683     40682     40684     40683     40684
     40685     40686     40685     40687     40686     40687     40688     40689
     40688     40690     40689     40690     40691     40692     40691     40693
     40692     40693     40694     40695     40694     40696     40695     40696
     40697     40698     40697     40699     40698     40699     40700     40701
     40700     40702     40701     40702     40703     40704     40703     40705
     40704     40705     40706     40707     40706     40708     40707     40708
     40709     40710     40709     40711     40710     40711     40712     40713
     40712     40714     40713     40714     40715     40716     40715     40717
     40716     40717     40718     40719     40718     40720     40719     40720
     40721     40722     40721     40723     40722     40723     40724     40725
     40724     40726     40725     40726     40727     40728     40727     40729
     40728     40729     40730     40731     40730     40732     40731     40732
     40733     40734     40733     40735     40734     40735     40736     40737
     40736     40738     40737     40738     40739     40740     40739     40741
     40740     40741     40742     40743     40742     40744     40743     40744
     40745     40746     40745     40747     40746     40747     40748     40749
     40748     40750     40749     40750     40751     40752     40751     40753
     40752     40753     40754     40755     40754     40756     40755     40756
     40757     40758     40757     40759     40758     40759     40760     40761
     40760     40762     40761     40762     40763     40764     40763     40765
     40764     40765     40766     40767     40766     40768     40767     40768
     40769     40770     40769     40771     40770     40771     40772     40773
     40772     40774     40773     40774     40775     40776     40775     40777
     40776     40777     40778     40779     40778     40780     40779     40780
     40781     40782     40781     40783     40782     40783     40784     40785
     40784     40786     40785     40786     40787     40788     40787     40789
     40788     40789     40790     40791     40790     40792     40791     40792
     40793     40794     40793     40795     40794     40795     40796     40797
     40796     40798     40797     40798     40799     40800     40799     40801
     40800     40801     40802     40803     40802     40804     40803     40804
     40805     40806     40805     40807     40806     40807     40808     40809
     40808     40810     40809     40810     40811     40812     40811     40813
     40812     40813     40814     40815     40814     40816     40815     40816
     40817     40818     40817     40819     40818     40819     40820     40821
     40820     40822     40821     40822     40823     40824     40823     40825
     40824     40825     40826     40827     40826     40828     40827     40828
     40829     40830     40829     40831     40830     40831     40832     40833
     40832     40834     40833     40834     40835     40836     40835     40837
     40836     40837     40838     40839     40838     40840     40839     40840
     40841     40842     40841     40843     40842     40843     40844     40845
     40844     40846     40845     40846     40847     40848     40847     40849
     40848     40849     40850     40851     40850     40852     40851     40852
     40853     40854     40853     40855     40854     40855     40856     40857
     40856     40858     40857     40858     40859     40860     40859     40861
     40860     40861     40862     40863     40862     40864     40863     40864
     40865     40866     40865     40867     40866     40867     40868     40869
     40868     40870     40869     40870     40871     40872     40871     40873
     40872     40873     40874     40875     40874     40876     40875     40876
     40877     40878     40877     40879     40878     40879     40880     40881
     40880     40882     40881     40882     40883     40884     40883     40885
     40884     40885     40886     40887     40886     40888     40887     40888
     40889     40890     40889     40891     40890     40891     40892     40893
     40892     40894     40893     40894     40895     40896     40895     40897
     40896     40897     40898     40899     40898     40900     40899     40900
     40901     40902     40901     40903     40902     40903     40904     40905
     40904     40906     40905     40906     40907     40908     40907     40909
     40908     40909     40910     40911     40910     40912     40911     40912
     40913     40914     40913     40915     40914     40915     40916     40917
     40916     40918     40917     40918     40919     40920     40919     40921
     40920     40921     40922     40923     40922     40924     40923     40924
     40925     40926     40925     40927     40926     40927     40928     40929
     40928     40930     40929     40930     40931     40932     40931     40933
     40932     40933     40934     40935     40934     40936     40935     40936
     40937     40938     40937     40939     40938     40939     40940     40941
     40940     40942     40941     40942     40943     40944     40943     40945
     40944     40945     40946     40947     40946     40948     40947     40948
     40949     40950     40949     40951     40950     40951     40952     40953
     40952     40954     40953     40954     40955     40956     40955     40957
     40956     40957     40958     40959     40958     40960     40959     40960
     40961     40962     40961     40963     40962     40963     40964     40965
     40964     40966     40965     40966     40967     40968     40967     40969
     40968     40969     40970     40971     40970     40972     40971     40972
     40973     40974     40973     40975     40974     40975     40976     40977
     40976     40978     40977     40978     40979     40980     40979     40981
     40980     40981     40982     40983     40982     40984     40983     40984
     40985     40986     40985     40987     40986     40987     40988     40989
     40988     40990     40989     40990     40991     40992     40991     40993
     40992     40993     40994     40995     40994     40996     40995     40996
     40997     40998     40997     40999     40998     40999     41000     41001
     41000     41002     41001     41002     41003     41004     41003     41005
     41004     41005     41006     41007     41006     41008     41007     41008
     41009     41010     41009     41011     41010     41011     41012     41013
     41012     41014     41013     41014     41015     41016     41015     41017
     41016     41017     41018     41019     41018     41020     41019     41020
     41021     41022     41021     41023     41022     41023     41024     41025
     41024     41026     41025     41026     41027     41028     41027     41029
     41028     41029     41030     41031     41030     41032     41031     41032
     41033     41034     41033     41035     41034     41035     41036     41037
     41036     41038     41037     41038     41039     41040     41039     41041
     41040     41041     41042     41043     41042     41044     41043     41044
     41045     41046     41045     41047     41046     41047     41048     41049
     41048     41050     41049     41050     41051     41052     41051     41053
     41052     41053     41054     41055     41054     41056     41055     41056
     41057     41058     41057     41059     41058     41059     41060     41061
     41060     41062     41061     41062     41063     41064     41063     41065
     41064     41065     41066     41067     41066     41068     41067     41068
     41069     41070     41069     41071     41070     41071     41072     41073
     41072     41074     41073     41074     41075     41076     41075     41077
     41076     41077     41078     41079     41078     41080     41079     41080
     41081     41082     41081     41083     41082     41083     41084     41085
     41084     41086     41085     41086     41087     41088     41087     41089
     41088     41089     41090     41091     41090     41092     41091     41092
     41093     41094     41093     41095     41094     41095     41096     41097
     41096     41098     41097     41098     41099     41100     41099     41101
     41100     41101     41102     41103     41102     41104     41103     41104
     41105     41106     41105     41107     41106     41107     41108     41109
     41108     41110     41109     41110     41111     41112     41111     41113
     41112     41113     41114     41115     41114     41116     41115     41116
     41117     41118     41117     41119     41118     41119     41120     41121
     41120     41122     41121     41122     41123     41124     41123     41125
     41124     41125     41126     41127     41126     41128     41127     41128
     41129     41130     41129     41131     41130     41131     41132     41133
     41132     41134     41133     41134     41135     41136     41135     41137
     41136     41137     41138     41139     41138     41140     41139     41140
     41141     41142     41141     41143     41142     41143     41144     41145
     41144     41146     41145     41146     41147     41148     41147     41149
     41148     41149     41150     41151     41150     41152     41151     41152
     41153     41154     41153     41155     41154     41155     41156     41157
     41156     41158     41157     41158     41159     41160     41159     41161
     41160     41161     41162     41163     41162     41164     41163     41164
     41165     41166     41165     41167     41166     41167     41168     41169
     41168     41170     41169     41170     41171     41172     41171     41173
     41172     41173     41174     41175     41174     41176     41175     41176
     41177     41178     41177     41179     41178     41179     41180     41181
     41180     41182     41181     41182     41183     41184     41183     41185
     41184     41185     41186     41187     41186     41188     41187     41188
     41189     41190     41189     41191     41190     41191     41192     41193
     41192     41194     41193     41194     41195     41196     41195     41197
     41196     41197     41198     41199     41198     41200     41199     41200
     41201     41202     41201     41203     41202     41203     41204     41205
     41204     41206     41205     41206     41207     41208     41207     41209
     41208     41209     41210     41211     41210     41212     41211     41212
     41213     41214     41213     41215     41214     41215     41216     41217
     41216     41218     41217     41218     41219     41220     41219     41221
     41220     41221     41222     41223     41222     41224     41223     41224
     41225     41226     41225     41227     41226     41227     41228     41229
     41228     41230     41229     41230     41231     41232     41231     41233
     41232     41233     41234     41235     41234     41236     41235     41236
     41237     41238     41237     41239     41238     41239     41240     41241
     41240     41242     41241     41242     41243     41244     41243     41245
     41244     41245     41246     41247     41246     41248     41247     41248
     41249     41250     41249     41251     41250     41251     41252     41253
     41252     41254     41253     41254     41255     41256     41255     41257
     41256     41257     41258     41259     41258     41260     41259     41260
     41261     41262     41261     41263     41262     41263     41264     41265
     41264     41266     41265     41266     41267     41268     41267     41269
     41268     41269     41270     41271     41270     41272     41271     41272
     41273     41274     41273     41275     41274     41275     41276     41277
     41276     41278     41277     41278     41279     41280     41279     41281
     41280     41281     41282     41283     41282     41284     41283     41284
     41285     41286     41285     41287     41286     41287     41288     41289
     41288     41290     41289     41290     41291     41292     41291     41293
     41292     41293     41294     41295     41294     41296     41295     41296
     41297     41298     41297     41299     41298     41299     41300     41301
     41300     41302     41301     41302     41303     41304     41303     41305
     41304     41305     41306     41307     41306     41308     41307     41308
     41309     41310     41309     41311     41310     41311     41312     41313
     41312     41314     41313     41314     41315     41316     41315     41317
     41316     41317     41318     41319     41318     41320     41319     41320
     41321     41322     41321     41323     41322     41323     41324     41325
     41324     41326     41325     41326     41327     41328     41327     41329
     41328     41329     41330     41331     41330     41332     41331     41332
     41333     41334     41333     41335     41334     41335     41336     41337
     41336     41338     41337     41338     41339     41340     41339     41341
     41340     41341     41342     41343     41342     41344     41343     41344
     41345     41346     41345     41347     41346     41347     41348     41349
     41348     41350     41349     41350     41351     41352     41351     41353
     41352     41353     41354     41355     41354     41356     41355     41356
     41357     41358     41357     41359     41358     41359     41360     41361
     41360     41362     41361     41362     41363     41364     41363     41365
     41364     41365     41366     41367     41366     41368     41367     41368
     41369     41370     41369     41371     41370     41371     41372     41373
     41372     41374     41373     41374     41375     41376     41375     41377
     41376     41377     41378     41379     41378     41380     41379     41380
     41381     41382     41381     41383     41382     41383     41384     41385
     41384     41386     41385     41386     41387     41388     41387     41389
     41388     41389     41390     41391     41390     41392     41391     41392
     41393     41394     41393     41395     41394     41395     41396     41397
     41396     41398     41397     41398     41399     41400     41399     41401
     41400     41401     41402     41403     41402     41404     41403     41404
     41405     41406     41405     41407     41406     41407     41408     41409
     41408     41410     41409     41410     41411     41412     41411     41413
     41412     41413     41414     41415     41414     41416     41415     41416
     41417     41418     41417     41419     41418     41419     41420     41421
     41420     41422     41421     41422     41423     41424     41423     41425
     41424     41425     41426     41427     41426     41428     41427     41428
     41429     41430     41429     41431     41430     41431     41432     41433
     41432     41434     41433     41434     41435     41436     41435     41437
     41436     41437     41438     41439     41438     41440     41439     41440
     41441     41442     41441     41443     41442     41443     41444     41445
     41444     41446     41445     41446     41447     41448     41447     41449
     41448     41449     41450     41451     41450     41452     41451     41452
     41453     41454     41453     41455     41454     41455     41456     41457
     41456     41458     41457     41458     41459     41460     41459     41461
     41460     41461     41462     41463     41462     41464     41463     41464
     41465     41466     41465     41467     41466     41467     41468     41469
     41468     41470     41469     41470     41471     41472     41471     41473
     41472     41473     41474     41475     41474     41476     41475     41476
     41477     41478     41477     41479     41478     41479     41480     41481
     41480     41482     41481     41482     41483     41484     41483     41485
     41484     41485     41486     41487     41486     41488     41487     41488
     41489     41490     41489     41491     41490     41491     41492     41493
     41492     41494     41493     41494     41495     41496     41495     41497
     41496     41497     41498     41499     41498     41500     41499     41500
     41501     41502     41501     41503     41502     41503     41504     41505
     41504     41506     41505     41506     41507     41508     41507     41509
     41508     41509     41510     41511     41510     41512     41511     41512
     41513     41514     41513     41515     41514     41515     41516     41517
     41516     41518     41517     41518     41519     41520     41519     41521
     41520     41521     41522     41523     41522     41524     41523     41524
     41525     41526     41525     41527     41526     41527     41528     41529
     41528     41530     41529     41530     41531     41532     41531     41533
     41532     41533     41534     41535     41534     41536     41535     41536
     41537     41538     41537     41539     41538     41539     41540     41541
     41540     41542     41541     41542     41543     41544     41543     41545
     41544     41545     41546     41547     41546     41548     41547     41548
     41549     41550     41549     41551     41550     41551     41552     41553
     41552     41554     41553     41554     41555     41556     41555     41557
     41556     41557     41558     41559     41558     41560     41559     41560
     41561     41562     41561     41563     41562     41563     41564     41565
     41564     41566     41565     41566     41567     41568     41567     41569
     41568     41569     41570     41571     41570     41572     41571     41572
     41573     41574     41573     41575     41574     41575     41576     41577
     41576     41578     41577     41578     41579     41580     41579     41581
     41580     41581     41582     41583     41582     41584     41583     41584
     41585     41586     41585     41587     41586     41587     41588     41589
     41588     41590     41589     41590     41591     41592     41591     41593
     41592     41593     41594     41595     41594     41596     41595     41596
     41597     41598     41597     41599     41598     41599     41600     41601
     41600     41602     41601     41602     41603     41604     41603     41605
     41604     41605     41606     41607     41606     41608     41607     41608
     41609     41610     41609     41611     41610     41611     41612     41613
     41612     41614     41613     41614     41615     41616     41615     41617
     41616     41617     41618     41619     41618     41620     41619     41620
     41621     41622     41621     41623     41622     41623     41624     41625
     41624     41626     41625     41626     41627     41628     41627     41629
     41628     41629     41630     41631     41630     41632     41631     41632
     41633     41634     41633     41635     41634     41635     41636     41637
     41636     41638     41637     41638     41639     41640     41639     41641
     41640     41641     41642     41643     41642     41644     41643     41644
     41645     41646     41645     41647     41646     41647     41648     41649
     41648     41650     41649     41650     41651     41652     41651     41653
     41652     41653     41654     41655     41654     41656     41655     41656
     41657     41658     41657     41659     41658     41659     41660     41661
     41660     41662     41661     41662     41663     41664     41663     41665
     41664     41665     41666     41667     41666     41668     41667     41668
     41669     41670     41669     41671     41670     41671     41672     41673
     41672     41674     41673     41674     41675     41676     41675     41677
     41676     41677     41678     41679     41678     41680     41679     41680
     41681     41682     41681     41683     41682     41683     41684     41685
     41684     41686     41685     41686     41687     41688     41687     41689
     41688     41689     41690     41691     41690     41692     41691     41692
     41693     41694     41693     41695     41694     41695     41696     41697
     41696     41698     41697     41698     41699     41700     41699     41701
     41700     41701     41702     41703     41702     41704     41703     41704
     41705     41706     41705     41707     41706     41707     41708     41709
     41708     41710     41709     41710     41711     41712     41711     41713
     41712     41713     41714     41715     41714     41716     41715     41716
     41717     41718     41717     41719     41718     41719     41720     41721
     41720     41722     41721     41722     41723     41724     41723     41725
     41724     41725     41726     41727     41726     41728     41727     41728
     41729     41730     41729     41731     41730     41731     41732     41733
     41732     41734     41733     41734     41735     41736     41735     41737
     41736     41737     41738     41739     41738     41740     41739     41740
     41741     41742     41741     41743     41742     41743     41744     41745
     41744     41746     41745     41746     41747     41748     41747     41749
     41748     41749     41750     41751     41750     41752     41751     41752
     41753     41754     41753     41755     41754     41755     41756     41757
     41756     41758     41757     41758     41759     41760     41759     41761
     41760     41761     41762     41763     41762     41764     41763     41764
     41765     41766     41765     41767     41766     41767     41768     41769
     41768     41770     41769     41770     41771     41772     41771     41773
     41772     41773     41774     41775     41774     41776     41775     41776
     41777     41778     41777     41779     41778     41779     41780     41781
     41780     41782     41781     41782     41783     41784     41783     41785
     41784     41785     41786     41787     41786     41788     41787     41788
     41789     41790     41789     41791     41790     41791     41792     41793
     41792     41794     41793     41794     41795     41796     41795     41797
     41796     41797     41798     41799     41798     41800     41799     41800
     41801     41802     41801     41803     41802     41803     41804     41805
     41804     41806     41805     41806     41807     41808     41807     41809
     41808     41809     41810     41811     41810     41812     41811     41812
     41813     41814     41813     41815     41814     41815     41816     41817
     41816     41818     41817     41818     41819     41820     41819     41821
     41820     41821     41822     41823     41822     41824     41823     41824
     41825     41826     41825     41827     41826     41827     41828     41829
     41828     41830     41829     41830     41831     41832     41831     41833
     41832     41833     41834     41835     41834     41836     41835     41836
     41837     41838     41837     41839     41838     41839     41840     41841
     41840     41842     41841     41842     41843     41844     41843     41845
     41844     41845     41846     41847     41846     41848     41847     41848
     41849     41850     41849     41851     41850     41851     41852     41853
     41852     41854     41853     41854     41855     41856     41855     41857
     41856     41857     41858     41859     41858     41860     41859     41860
     41861     41862     41861     41863     41862     41863     41864     41865
     41864     41866     41865     41866     41867     41868     41867     41869
     41868     41869     41870     41871     41870     41872     41871     41872
     41873     41874     41873     41875     41874     41875     41876     41877
     41876     41878     41877     41878     41879     41880     41879     41881
     41880     41881     41882     41883     41882     41884     41883     41884
     41885     41886     41885     41887     41886     41887     41888     41889
     41888     41890     41889     41890     41891     41892     41891     41893
     41892     41893     41894     41895     41894     41896     41895     41896
     41897     41898     41897     41899     41898     41899     41900     41901
     41900     41902     41901     41902     41903     41904     41903     41905
     41904     41905     41906     41907     41906     41908     41907     41908
     41909     41910     41909     41911     41910     41911     41912     41913
     41912     41914     41913     41914     41915     41916     41915     41917
     41916     41917     41918     41919     41918     41920     41919     41920
     41921     41922     41921     41923     41922     41923     41924     41925
     41924     41926     41925     41926     41927     41928     41927     41929
     41928     41929     41930     41931     41930     41932     41931     41932
     41933     41934     41933     41935     41934     41935     41936     41937
     41936     41938     41937     41938     41939     41940     41939     41941
     41940     41941     41942     41943     41942     41944     41943     41944
     41945     41946     41945     41947     41946     41947     41948     41949
     41948     41950     41949     41950     41951     41952     41951     41953
     41952     41953     41954     41955     41954     41956     41955     41956
     41957     41958     41957     41959     41958     41959     41960     41961
     41960     41962     41961     41962     41963     41964     41963     41965
     41964     41965     41966     41967     41966     41968     41967     41968
     41969     41970     41969     41971     41970     41971     41972     41973
     41972     41974     41973     41974     41975     41976     41975     41977
     41976     41977     41978     41979     41978     41980     41979     41980
     41981     41982     41981     41983     41982     41983     41984     41985
     41984     41986     41985     41986     41987     41988     41987     41989
     41988     41989     41990     41991     41990     41992     41991     41992
     41993     41994     41993     41995     41994     41995     41996     41997
     41996     41998     41997     41998     41999     42000     41999     42001
     42000     42001     42002     42003     42002     42004     42003     42004
     42005     42006     42005     42007     42006     42007     42008     42009
     42008     42010     42009     42010     42011     42012     42011     42013
     42012     42013     42014     42015     42014     42016     42015     42016
     42017     42018     42017     42019     42018     42019     42020     42021
     42020     42022     42021     42022     42023     42024     42023     42025
     42024     42025     42026     42027     42026     42028     42027     42028
     42029     42030     42029     42031     42030     42031     42032     42033
     42032     42034     42033     42034     42035     42036     42035     42037
     42036     42037     42038     42039     42038     42040     42039     42040
     42041     42042     42041     42043     42042     42043     42044     42045
     42044     42046     42045     42046     42047     42048     42047     42049
     42048     42049     42050     42051     42050     42052     42051     42052
     42053     42054     42053     42055     42054     42055     42056     42057
     42056     42058     42057     42058     42059     42060     42059     42061
     42060     42061     42062     42063     42062     42064     42063     42064
     42065     42066     42065     42067     42066     42067     42068     42069
     42068     42070     42069     42070     42071     42072     42071     42073
     42072     42073     42074     42075     42074     42076     42075     42076
     42077     42078     42077     42079     42078     42079     42080     42081
     42080     42082     42081     42082     42083     42084     42083     42085
     42084     42085     42086     42087     42086     42088     42087     42088
     42089     42090     42089     42091     42090     42091     42092     42093
     42092     42094     42093     42094     42095     42096     42095     42097
     42096     42097     42098     42099     42098     42100     42099     42100
     42101     42102     42101     42103     42102     42103     42104     42105
     42104     42106     42105     42106     42107     42108     42107     42109
     42108     42109     42110     42111     42110     42112     42111     42112
     42113     42114     42113     42115     42114     42115     42116     42117
     42116     42118     42117     42118     42119     42120     42119     42121
     42120     42121     42122     42123     42122     42124     42123     42124
     42125     42126     42125     42127     42126     42127     42128     42129
     42128     42130     42129     42130     42131     42132     42131     42133
     42132     42133     42134     42135     42134     42136     42135     42136
     42137     42138     42137     42139     42138     42139     42140     42141
     42140     42142     42141     42142     42143     42144     42143     42145
     42144     42145     42146     42147     42146     42148     42147     42148
     42149     42150     42149     42151     42150     42151     42152     42153
     42152     42154     42153     42154     42155     42156     42155     42157
     42156     42157     42158     42159     42158     42160     42159     42160
     42161     42162     42161     42163     42162     42163     42164     42165
     42164     42166     42165     42166     42167     42168     42167     42169
     42168     42169     42170     42171     42170     42172     42171     42172
     42173     42174     42173     42175     42174     42175     42176     42177
     42176     42178     42177     42178     42179     42180     42179     42181
     42180     42181     42182     42183     42182     42184     42183     42184
     42185     42186     42185     42187     42186     42187     42188     42189
     42188     42190     42189     42190     42191     42192     42191     42193
     42192     42193     42194     42195     42194     42196     42195     42196
     42197     42198     42197     42199     42198     42199     42200     42201
     42200     42202     42201     42202     42203     42204     42203     42205
     42204     42205     42206     42207     42206     42208     42207     42208
     42209     42210     42209     42211     42210     42211     42212     42213
     42212     42214     42213     42214     42215     42216     42215     42217
     42216     42217     42218     42219     42218     42220     42219     42220
     42221     42222     42221     42223     42222     42223     42224     42225
     42224     42226     42225     42226     42227     42228     42227     42229
     42228     42229     42230     42231     42230     42232     42231     42232
     42233     42234     42233     42235     42234     42235     42236     42237
     42236     42238     42237     42238     42239     42240     42239     42241
     42240     42241     42242     42243     42242     42244     42243     42244
     42245     42246     42245     42247     42246     42247     42248     42249
     42248     42250     42249     42250     42251     42252     42251     42253
     42252     42253     42254     42255     42254     42256     42255     42256
     42257     42258     42257     42259     42258     42259     42260     42261
     42260     42262     42261     42262     42263     42264     42263     42265
     42264     42265     42266     42267     42266     42268     42267     42268
     42269     42270     42269     42271     42270     42271     42272     42273
     42272     42274     42273     42274     42275     42276     42275     42277
     42276     42277     42278     42279     42278     42280     42279     42280
     42281     42282     42281     42283     42282     42283     42284     42285
     42284     42286     42285     42286     42287     42288     42287     42289
     42288     42289     42290     42291     42290     42292     42291     42292
     42293     42294     42293     42295     42294     42295     42296     42297
     42296     42298     42297     42298     42299     42300     42299     42301
     42300     42301     42302     42303     42302     42304     42303     42304
     42305     42306     42305     42307     42306     42307     42308     42309
     42308     42310     42309     42310     42311     42312     42311     42313
     42312     42313     42314     42315     42314     42316     42315     42316
     42317     42318     42317     42319     42318     42319     42320     42321
     42320     42322     42321     42322     42323     42324     42323     42325
     42324     42325     42326     42327     42326     42328     42327     42328
     42329     42330     42329     42331     42330     42331     42332     42333
     42332     42334     42333     42334     42335     42336     42335     42337
     42336     42337     42338     42339     42338     42340     42339     42340
     42341     42342     42341     42343     42342     42343     42344     42345
     42344     42346     42345     42346     42347     42348     42347     42349
     42348     42349     42350     42351     42350     42352     42351     42352
     42353     42354     42353     42355     42354     42355     42356     42357
     42356     42358     42357     42358     42359     42360     42359     42361
     42360     42361     42362     42363     42362     42364     42363     42364
     42365     42366     42365     42367     42366     42367     42368     42369
     42368     42370     42369     42370     42371     42372     42371     42373
     42372     42373     42374     42375     42374     42376     42375     42376
     42377     42378     42377     42379     42378     42379     42380     42381
     42380     42382     42381     42382     42383     42384     42383     42385
     42384     42385     42386     42387     42386     42388     42387     42388
     42389     42390     42389     42391     42390     42391     42392     42393
     42392     42394     42393     42394     42395     42396     42395     42397
     42396     42397     42398     42399     42398     42400     42399     42400
     42401     42402     42401     42403     42402     42403     42404     42405
     42404     42406     42405     42406     42407     42408     42407     42409
     42408     42409     42410     42411     42410     42412     42411     42412
     42413     42414     42413     42415     42414     42415     42416     42417
     42416     42418     42417     42418     42419     42420     42419     42421
     42420     42421     42422     42423     42422     42424     42423     42424
     42425     42426     42425     42427     42426     42427     42428     42429
     42428     42430     42429     42430     42431     42432     42431     42433
     42432     42433     42434     42435     42434     42436     42435     42436
     42437     42438     42437     42439     42438     42439     42440     42441
     42440     42442     42441     42442     42443     42444     42443     42445
     42444     42445     42446     42447     42446     42448     42447     42448
     42449     42450     42449     42451     42450     42451     42452     42453
     42452     42454     42453     42454     42455     42456     42455     42457
     42456     42457     42458     42459     42458     42460     42459     42460
     42461     42462     42461     42463     42462     42463     42464     42465
     42464     42466     42465     42466     42467     42468     42467     42469
     42468     42469     42470     42471     42470     42472     42471     42472
     42473     42474     42473     42475     42474     42475     42476     42477
     42476     42478     42477     42478     42479     42480     42479     42481
     42480     42481     42482     42483     42482     42484     42483     42484
     42485     42486     42485     42487     42486     42487     42488     42489
     42488     42490     42489     42490     42491     42492     42491     42493
     42492     42493     42494     42495     42494     42496     42495     42496
     42497     42498     42497     42499     42498     42499     42500     42501
     42500     42502     42501     42502     42503     42504     42503     42505
     42504     42505     42506     42507     42506     42508     42507     42508
     42509     42510     42509     42511     42510     42511     42512     42513
     42512     42514     42513     42514     42515     42516     42515     42517
     42516     42517     42518     42519     42518     42520     42519     42520
     42521     42522     42521     42523     42522     42523     42524     42525
     42524     42526     42525     42526     42527     42528     42527     42529
     42528     42529     42530     42531     42530     42532     42531     42532
     42533     42534     42533     42535     42534     42535     42536     42537
     42536     42538     42537     42538     42539     42540     42539     42541
     42540     42541     42542     42543     42542     42544     42543     42544
     42545     42546     42545     42547     42546     42547     42548     42549
     42548     42550     42549     42550     42551     42552     42551     42553
     42552     42553     42554     42555     42554     42556     42555     42556
     42557     42558     42557     42559     42558     42559     42560     42561
     42560     42562     42561     42562     42563     42564     42563     42565
     42564     42565     42566     42567     42566     42568     42567     42568
     42569     42570     42569     42571     42570     42571     42572     42573
     42572     42574     42573     42574     42575     42576     42575     42577
     42576     42577     42578     42579     42578     42580     42579     42580
     42581     42582     42581     42583     42582     42583     42584     42585
     42584     42586     42585     42586     42587     42588     42587     42589
     42588     42589     42590     42591     42590     42592     42591     42592
     42593     42594     42593     42595     42594     42595     42596     42597
     42596     42598     42597     42598     42599     42600     42599     42601
     42600     42601     42602     42603     42602     42604     42603     42604
     42605     42606     42605     42607     42606     42607     42608     42609
     42608     42610     42609     42610     42611     42612     42611     42613
     42612     42613     42614     42615     42614     42616     42615     42616
     42617     42618     42617     42619     42618     42619     42620     42621
     42620     42622     42621     42622     42623     42624     42623     42625
     42624     42625     42626     42627     42626     42628     42627     42628
     42629     42630     42629     42631     42630     42631     42632     42633
     42632     42634     42633     42634     42635     42636     42635     42637
     42636     42637     42638     42639     42638     42640     42639     42640
     42641     42642     42641     42643     42642     42643     42644     42645
     42644     42646     42645     42646     42647     42648     42647     42649
     42648     42649     42650     42651     42650     42652     42651     42652
     42653     42654     42653     42655     42654     42655     42656     42657
     42656     42658     42657     42658     42659     42660     42659     42661
     42660     42661     42662     42663     42662     42664     42663     42664
     42665     42666     42665     42667     42666     42667     42668     42669
     42668     42670     42669     42670     42671     42672     42671     42673
     42672     42673     42674     42675     42674     42676     42675     42676
     42677     42678     42677     42679     42678     42679     42680     42681
     42680     42682     42681     42682     42683     42684     42683     42685
     42684     42685     42686     42687     42686     42688     42687     42688
     42689     42690     42689     42691     42690     42691     42692     42693
     42692     42694     42693     42694     42695     42696     42695     42697
     42696     42697     42698     42699     42698     42700     42699     42700
     42701     42702     42701     42703     42702     42703     42704     42705
     42704     42706     42705     42706     42707     42708     42707     42709
     42708     42709     42710     42711     42710     42712     42711     42712
     42713     42714     42713     42715     42714     42715     42716     42717
     42716     42718     42717     42718     42719     42720     42719     42721
     42720     42721     42722     42723     42722     42724     42723     42724
     42725     42726     42725     42727     42726     42727     42728     42729
     42728     42730     42729     42730     42731     42732     42731     42733
     42732     42733     42734     42735     42734     42736     42735     42736
     42737     42738     42737     42739     42738     42739     42740     42741
     42740     42742     42741     42742     42743     42744     42743     42745
     42744     42745     42746     42747     42746     42748     42747     42748
     42749     42750     42749     42751     42750     42751     42752     42753
     42752     42754     42753     42754     42755     42756     42755     42757
     42756     42757     42758     42759     42758     42760     42759     42760
     42761     42762     42761     42763     42762     42763     42764     42765
     42764     42766     42765     42766     42767     42768     42767     42769
     42768     42769     42770     42771     42770     42772     42771     42772
     42773     42774     42773     42775     42774     42775     42776     42777
     42776     42778     42777     42778     42779     42780     42779     42781
     42780     42781     42782     42783     42782     42784     42783     42784
     42785     42786     42785     42787     42786     42787     42788     42789
     42788     42790     42789     42790     42791     42792     42791     42793
     42792     42793     42794     42795     42794     42796     42795     42796
     42797     42798     42797     42799     42798     42799     42800     42801
     42800     42802     42801     42802     42803     42804     42803     42805
     42804     42805     42806     42807     42806     42808     42807     42808
     42809     42810     42809     42811     42810     42811     42812     42813
     42812     42814     42813     42814     42815     42816     42815     42817
     42816     42817     42818     42819     42818     42820     42819     42820
     42821     42822     42821     42823     42822     42823     42824     42825
     42824     42826     42825     42826     42827     42828     42827     42829
     42828     42829     42830     42831     42830     42832     42831     42832
     42833     42834     42833     42835     42834     42835     42836     42837
     42836     42838     42837     42838     42839     42840     42839     42841
     42840     42841     42842     42843     42842     42844     42843     42844
     42845     42846     42845     42847     42846     42847     42848     42849
     42848     42850     42849     42850     42851     42852     42851     42853
     42852     42853     42854     42855     42854     42856     42855     42856
     42857     42858     42857     42859     42858     42859     42860     42861
     42860     42862     42861     42862     42863     42864     42863     42865
     42864     42865     42866     42867     42866     42868     42867     42868
     42869     42870     42869     42871     42870     42871     42872     42873
     42872     42874     42873     42874     42875     42876     42875     42877
     42876     42877     42878     42879     42878     42880     42879     42880
     42881     42882     42881     42883     42882     42883     42884     42885
     42884     42886     42885     42886     42887     42888     42887     42889
     42888     42889     42890     42891     42890     42892     42891     42892
     42893     42894     42893     42895     42894     42895     42896     42897
     42896     42898     42897     42898     42899     42900     42899     42901
     42900     42901     42902     42903     42902     42904     42903     42904
     42905     42906     42905     42907     42906     42907     42908     42909
     42908     42910     42909     42910     42911     42912     42911     42913
     42912     42913     42914     42915     42914     42916     42915     42916
     42917     42918     42917     42919     42918     42919     42920     42921
     42920     42922     42921     42922     42923     42924     42923     42925
     42924     42925     42926     42927     42926     42928     42927     42928
     42929     42930     42929     42931     42930     42931     42932     42933
     42932     42934     42933     42934     42935     42936     42935     42937
     42936     42937     42938     42939     42938     42940     42939     42940
     42941     42942     42941     42943     42942     42943     42944     42945
     42944     42946     42945     42946     42947     42948     42947     42949
     42948     42949     42950     42951     42950     42952     42951     42952
     42953     42954     42953     42955     42954     42955     42956     42957
     42956     42958     42957     42958     42959     42960     42959     42961
     42960     42961     42962     42963     42962     42964     42963     42964
     42965     42966     42965     42967     42966     42967     42968     42969
     42968     42970     42969     42970     42971     42972     42971     42973
     42972     42973     42974     42975     42974     42976     42975     42976
     42977     42978     42977     42979     42978     42979     42980     42981
     42980     42982     42981     42982     42983     42984     42983     42985
     42984     42985     42986     42987     42986     42988     42987     42988
     42989     42990     42989     42991     42990     42991     42992     42993
     42992     42994     42993     42994     42995     42996     42995     42997
     42996     42997     42998     42999     42998     43000     42999     43000
     43001     43002     43001     43003     43002     43003     43004     43005
     43004     43006     43005     43006     43007     43008     43007     43009
     43008     43009     43010     43011     43010     43012     43011     43012
     43013     43014     43013     43015     43014     43015     43016     43017
     43016     43018     43017     43018     43019     43020     43019     43021
     43020     43021     43022     43023     43022     43024     43023     43024
     43025     43026     43025     43027     43026     43027     43028     43029
     43028     43030     43029     43030     43031     43032     43031     43033
     43032     43033     43034     43035     43034     43036     43035     43036
     43037     43038     43037     43039     43038     43039     43040     43041
     43040     43042     43041     43042     43043     43044     43043     43045
     43044     43045     43046     43047     43046     43048     43047     43048
     43049     43050     43049     43051     43050     43051     43052     43053
     43052     43054     43053     43054     43055     43056     43055     43057
     43056     43057     43058     43059     43058     43060     43059     43060
     43061     43062     43061     43063     43062     43063     43064     43065
     43064     43066     43065     43066     43067     43068     43067     43069
     43068     43069     43070     43071     43070     43072     43071     43072
     43073     43074     43073     43075     43074     43075     43076     43077
     43076     43078     43077     43078     43079     43080     43079     43081
     43080     43081     43082     43083     43082     43084     43083     43084
     43085     43086     43085     43087     43086     43087     43088     43089
     43088     43090     43089     43090     43091     43092     43091     43093
     43092     43093     43094     43095     43094     43096     43095     43096
     43097     43098     43097     43099     43098     43099     43100     43101
     43100     43102     43101     43102     43103     43104     43103     43105
     43104     43105     43106     43107     43106     43108     43107     43108
     43109     43110     43109     43111     43110     43111     43112     43113
     43112     43114     43113     43114     43115     43116     43115     43117
     43116     43117     43118     43119     43118     43120     43119     43120
     43121     43122     43121     43123     43122     43123     43124     43125
     43124     43126     43125     43126     43127     43128     43127     43129
     43128     43129     43130     43131     43130     43132     43131     43132
     43133     43134     43133     43135     43134     43135     43136     43137
     43136     43138     43137     43138     43139     43140     43139     43141
     43140     43141     43142     43143     43142     43144     43143     43144
     43145     43146     43145     43147     43146     43147     43148     43149
     43148     43150     43149     43150     43151     43152     43151     43153
     43152     43153     43154     43155     43154     43156     43155     43156
     43157     43158     43157     43159     43158     43159     43160     43161
     43160     43162     43161     43162     43163     43164     43163     43165
     43164     43165     43166     43167     43166     43168     43167     43168
     43169     43170     43169     43171     43170     43171     43172     43173
     43172     43174     43173     43174     43175     43176     43175     43177
     43176     43177     43178     43179     43178     43180     43179     43180
     43181     43182     43181     43183     43182     43183     43184     43185
     43184     43186     43185     43186     43187     43188     43187     43189
     43188     43189     43190     43191     43190     43192     43191     43192
     43193     43194     43193     43195     43194     43195     43196     43197
     43196     43198     43197     43198     43199     43200     43199     43201
     43200     43201     43202     43203     43202     43204     43203     43204
     43205     43206     43205     43207     43206     43207     43208     43209
     43208     43210     43209     43210     43211     43212     43211     43213
     43212     43213     43214     43215     43214     43216     43215     43216
     43217     43218     43217     43219     43218     43219     43220     43221
     43220     43222     43221     43222     43223     43224     43223     43225
     43224     43225     43226     43227     43226     43228     43227     43228
     43229     43230     43229     43231     43230     43231     43232     43233
     43232     43234     43233     43234     43235     43236     43235     43237
     43236     43237     43238     43239     43238     43240     43239     43240
     43241     43242     43241     43243     43242     43243     43244     43245
     43244     43246     43245     43246     43247     43248     43247     43249
     43248     43249     43250     43251     43250     43252     43251     43252
     43253     43254     43253     43255     43254     43255     43256     43257
     43256     43258     43257     43258     43259     43260     43259     43261
     43260     43261     43262     43263     43262     43264     43263     43264
     43265     43266     43265     43267     43266     43267     43268     43269
     43268     43270     43269     43270     43271     43272     43271     43273
     43272     43273     43274     43275     43274     43276     43275     43276
     43277     43278     43277     43279     43278     43279     43280     43281
     43280     43282     43281     43282     43283     43284     43283     43285
     43284     43285     43286     43287     43286     43288     43287     43288
     43289     43290     43289     43291     43290     43291     43292     43293
     43292     43294     43293     43294     43295     43296     43295     43297
     43296     43297     43298     43299     43298     43300     43299     43300
     43301     43302     43301     43303     43302     43303     43304     43305
     43304     43306     43305     43306     43307     43308     43307     43309
     43308     43309     43310     43311     43310     43312     43311     43312
     43313     43314     43313     43315     43314     43315     43316     43317
     43316     43318     43317     43318     43319     43320     43319     43321
     43320     43321     43322     43323     43322     43324     43323     43324
     43325     43326     43325     43327     43326     43327     43328     43329
     43328     43330     43329     43330     43331     43332     43331     43333
     43332     43333     43334     43335     43334     43336     43335     43336
     43337     43338     43337     43339     43338     43339     43340     43341
     43340     43342     43341     43342     43343     43344     43343     43345
     43344     43345     43346     43347     43346     43348     43347     43348
     43349     43350     43349     43351     43350     43351     43352     43353
     43352     43354     43353     43354     43355     43356     43355     43357
     43356     43357     43358     43359     43358     43360     43359     43360
     43361     43362     43361     43363     43362     43363     43364     43365
     43364     43366     43365     43366     43367     43368     43367     43369
     43368     43369     43370     43371     43370     43372     43371     43372
     43373     43374     43373     43375     43374     43375     43376     43377
     43376     43378     43377     43378     43379     43380     43379     43381
     43380     43381     43382     43383     43382     43384     43383     43384
     43385     43386     43385     43387     43386     43387     43388     43389
     43388     43390     43389     43390     43391     43392     43391     43393
     43392     43393     43394     43395     43394     43396     43395     43396
     43397     43398     43397     43399     43398     43399     43400     43401
     43400     43402     43401     43402     43403     43404     43403     43405
     43404     43405     43406     43407     43406     43408     43407     43408
     43409     43410     43409     43411     43410     43411     43412     43413
     43412     43414     43413     43414     43415     43416     43415     43417
     43416     43417     43418     43419     43418     43420     43419     43420
     43421     43422     43421     43423     43422     43423     43424     43425
     43424     43426     43425     43426     43427     43428     43427     43429
     43428     43429     43430     43431     43430     43432     43431     43432
     43433     43434     43433     43435     43434     43435     43436     43437
     43436     43438     43437     43438     43439     43440     43439     43441
     43440     43441     43442     43443     43442     43444     43443     43444
     43445     43446     43445     43447     43446     43447     43448     43449
     43448     43450     43449     43450     43451     43452     43451     43453
     43452     43453     43454     43455     43454     43456     43455     43456
     43457     43458     43457     43459     43458     43459     43460     43461
     43460     43462     43461     43462     43463     43464     43463     43465
     43464     43465     43466     43467     43466     43468     43467     43468
     43469     43470     43469     43471     43470     43471     43472     43473
     43472     43474     43473     43474     43475     43476     43475     43477
     43476     43477     43478     43479     43478     43480     43479     43480
     43481     43482     43481     43483     43482     43483     43484     43485
     43484     43486     43485     43486     43487     43488     43487     43489
     43488     43489     43490     43491     43490     43492     43491     43492
     43493     43494     43493     43495     43494     43495     43496     43497
     43496     43498     43497     43498     43499     43500     43499     43501
     43500     43501     43502     43503     43502     43504     43503     43504
     43505     43506     43505     43507     43506     43507     43508     43509
     43508     43510     43509     43510     43511     43512     43511     43513
     43512     43513     43514     43515     43514     43516     43515     43516
     43517     43518     43517     43519     43518     43519     43520     43521
     43520     43522     43521     43522     43523     43524     43523     43525
     43524     43525     43526     43527     43526     43528     43527     43528
     43529     43530     43529     43531     43530     43531     43532     43533
     43532     43534     43533     43534     43535     43536     43535     43537
     43536     43537     43538     43539     43538     43540     43539     43540
     43541     43542     43541     43543     43542     43543     43544     43545
     43544     43546     43545     43546     43547     43548     43547     43549
     43548     43549     43550     43551     43550     43552     43551     43552
     43553     43554     43553     43555     43554     43555     43556     43557
     43556     43558     43557     43558     43559     43560     43559     43561
     43560     43561     43562     43563     43562     43564     43563     43564
     43565     43566     43565     43567     43566     43567     43568     43569
     43568     43570     43569     43570     43571     43572     43571     43573
     43572     43573     43574     43575     43574     43576     43575     43576
     43577     43578     43577     43579     43578     43579     43580     43581
     43580     43582     43581     43582     43583     43584     43583     43585
     43584     43585     43586     43587     43586     43588     43587     43588
     43589     43590     43589     43591     43590     43591     43592     43593
     43592     43594     43593     43594     43595     43596     43595     43597
     43596     43597     43598     43599     43598     43600     43599     43600
     43601     43602     43601     43603     43602     43603     43604     43605
     43604     43606     43605     43606     43607     43608     43607     43609
     43608     43609     43610     43611     43610     43612     43611     43612
     43613     43614     43613     43615     43614     43615     43616     43617
     43616     43618     43617     43618     43619     43620     43619     43621
     43620     43621     43622     43623     43622     43624     43623     43624
     43625     43626     43625     43627     43626     43627     43628     43629
     43628     43630     43629     43630     43631     43632     43631     43633
     43632     43633     43634     43635     43634     43636     43635     43636
     43637     43638     43637     43639     43638     43639     43640     43641
     43640     43642     43641     43642     43643     43644     43643     43645
     43644     43645     43646     43647     43646     43648     43647     43648
     43649     43650     43649     43651     43650     43651     43652     43653
     43652     43654     43653     43654     43655     43656     43655     43657
     43656     43657     43658     43659     43658     43660     43659     43660
     43661     43662     43661     43663     43662     43663     43664     43665
     43664     43666     43665     43666     43667     43668     43667     43669
     43668     43669     43670     43671     43670     43672     43671     43672
     43673     43674     43673     43675     43674     43675     43676     43677
     43676     43678     43677     43678     43679     43680     43679     43681
     43680     43681     43682     43683     43682     43684     43683     43684
     43685     43686     43685     43687     43686     43687     43688     43689
     43688     43690     43689     43690     43691     43692     43691     43693
     43692     43693     43694     43695     43694     43696     43695     43696
     43697     43698     43697     43699     43698     43699     43700     43701
     43700     43702     43701     43702     43703     43704     43703     43705
     43704     43705     43706     43707     43706     43708     43707     43708
     43709     43710     43709     43711     43710     43711     43712     43713
     43712     43714     43713     43714     43715     43716     43715     43717
     43716     43717     43718     43719     43718     43720     43719     43720
     43721     43722     43721     43723     43722     43723     43724     43725
     43724     43726     43725     43726     43727     43728     43727     43729
     43728     43729     43730     43731     43730     43732     43731     43732
     43733     43734     43733     43735     43734     43735     43736     43737
     43736     43738     43737     43738     43739     43740     43739     43741
     43740     43741     43742     43743     43742     43744     43743     43744
     43745     43746     43745     43747     43746     43747     43748     43749
     43748     43750     43749     43750     43751     43752     43751     43753
     43752     43753     43754     43755     43754     43756     43755     43756
     43757     43758     43757     43759     43758     43759     43760     43761
     43760     43762     43761     43762     43763     43764     43763     43765
     43764     43765     43766     43767     43766     43768     43767     43768
     43769     43770     43769     43771     43770     43771     43772     43773
     43772     43774     43773     43774     43775     43776     43775     43777
     43776     43777     43778     43779     43778     43780     43779     43780
     43781     43782     43781     43783     43782     43783     43784     43785
     43784     43786     43785     43786     43787     43788     43787     43789
     43788     43789     43790     43791     43790     43792     43791     43792
     43793     43794     43793     43795     43794     43795     43796     43797
     43796     43798     43797     43798     43799     43800     43799     43801
     43800     43801     43802     43803     43802     43804     43803     43804
     43805     43806     43805     43807     43806     43807     43808     43809
     43808     43810     43809     43810     43811     43812     43811     43813
     43812     43813     43814     43815     43814     43816     43815     43816
     43817     43818     43817     43819     43818     43819     43820     43821
     43820     43822     43821     43822     43823     43824     43823     43825
     43824     43825     43826     43827     43826     43828     43827     43828
     43829     43830     43829     43831     43830     43831     43832     43833
     43832     43834     43833     43834     43835     43836     43835     43837
     43836     43837     43838     43839     43838     43840     43839     43840
     43841     43842     43841     43843     43842     43843     43844     43845
     43844     43846     43845     43846     43847     43848     43847     43849
     43848     43849     43850     43851     43850     43852     43851     43852
     43853     43854     43853     43855     43854     43855     43856     43857
     43856     43858     43857     43858     43859     43860     43859     43861
     43860     43861     43862     43863     43862     43864     43863     43864
     43865     43866     43865     43867     43866     43867     43868     43869
     43868     43870     43869     43870     43871     43872     43871     43873
     43872     43873     43874     43875     43874     43876     43875     43876
     43877     43878     43877     43879     43878     43879     43880     43881
     43880     43882     43881     43882     43883     43884     43883     43885
     43884     43885     43886     43887     43886     43888     43887     43888
     43889     43890     43889     43891     43890     43891     43892     43893
     43892     43894     43893     43894     43895     43896     43895     43897
     43896     43897     43898     43899     43898     43900     43899     43900
     43901     43902     43901     43903     43902     43903     43904     43905
     43904     43906     43905     43906     43907     43908     43907     43909
     43908     43909     43910     43911     43910     43912     43911     43912
     43913     43914     43913     43915     43914     43915     43916     43917
     43916     43918     43917     43918     43919     43920     43919     43921
     43920     43921     43922     43923     43922     43924     43923     43924
     43925     43926     43925     43927     43926     43927     43928     43929
     43928     43930     43929     43930     43931     43932     43931     43933
     43932     43933     43934     43935     43934     43936     43935     43936
     43937     43938     43937     43939     43938     43939     43940     43941
     43940     43942     43941     43942     43943     43944     43943     43945
     43944     43945     43946     43947     43946     43948     43947     43948
     43949     43950     43949     43951     43950     43951     43952     43953
     43952     43954     43953     43954     43955     43956     43955     43957
     43956     43957     43958     43959     43958     43960     43959     43960
     43961     43962     43961     43963     43962     43963     43964     43965
     43964     43966     43965     43966     43967     43968     43967     43969
     43968     43969     43970     43971     43970     43972     43971     43972
     43973     43974     43973     43975     43974     43975     43976     43977
     43976     43978     43977     43978     43979     43980     43979     43981
     43980     43981     43982     43983     43982     43984     43983     43984
     43985     43986     43985     43987     43986     43987     43988     43989
     43988     43990     43989     43990     43991     43992     43991     43993
     43992     43993     43994     43995     43994     43996     43995     43996
     43997     43998     43997     43999     43998     43999     44000     44001
     44000     44002     44001     44002     44003     44004     44003     44005
     44004     44005     44006     44007     44006     44008     44007     44008
     44009     44010     44009     44011     44010     44011     44012     44013
     44012     44014     44013     44014     44015     44016     44015     44017
     44016     44017     44018     44019     44018     44020     44019     44020
     44021     44022     44021     44023     44022     44023     44024     44025
     44024     44026     44025     44026     44027     44028     44027     44029
     44028     44029     44030     44031     44030     44032     44031     44032
     44033     44034     44033     44035     44034     44035     44036     44037
     44036     44038     44037     44038     44039     44040     44039     44041
     44040     44041     44042     44043     44042     44044     44043     44044
     44045     44046     44045     44047     44046     44047     44048     44049
     44048     44050     44049     44050     44051     44052     44051     44053
     44052     44053     44054     44055     44054     44056     44055     44056
     44057     44058     44057     44059     44058     44059     44060     44061
     44060     44062     44061     44062     44063     44064     44063     44065
     44064     44065     44066     44067     44066     44068     44067     44068
     44069     44070     44069     44071     44070     44071     44072     44073
     44072     44074     44073     44074     44075     44076     44075     44077
     44076     44077     44078     44079     44078     44080     44079     44080
     44081     44082     44081     44083     44082     44083     44084     44085
     44084     44086     44085     44086     44087     44088     44087     44089
     44088     44089     44090     44091     44090     44092     44091     44092
     44093     44094     44093     44095     44094     44095     44096     44097
     44096     44098     44097     44098     44099     44100     44099     44101
     44100     44101     44102     44103     44102     44104     44103     44104
     44105     44106     44105     44107     44106     44107     44108     44109
     44108     44110     44109     44110     44111     44112     44111     44113
     44112     44113     44114     44115     44114     44116     44115     44116
     44117     44118     44117     44119     44118     44119     44120     44121
     44120     44122     44121     44122     44123     44124     44123     44125
     44124     44125     44126     44127     44126     44128     44127     44128
     44129     44130     44129     44131     44130     44131     44132     44133
     44132     44134     44133     44134     44135     44136     44135     44137
     44136     44137     44138     44139     44138     44140     44139     44140
     44141     44142     44141     44143     44142     44143     44144     44145
     44144     44146     44145     44146     44147     44148     44147     44149
     44148     44149     44150     44151     44150     44152     44151     44152
     44153     44154     44153     44155     44154     44155     44156     44157
     44156     44158     44157     44158     44159     44160     44159     44161
     44160     44161     44162     44163     44162     44164     44163     44164
     44165     44166     44165     44167     44166     44167     44168     44169
     44168     44170     44169     44170     44171     44172     44171     44173
     44172     44173     44174     44175     44174     44176     44175     44176
     44177     44178     44177     44179     44178     44179     44180     44181
     44180     44182     44181     44182     44183     44184     44183     44185
     44184     44185     44186     44187     44186     44188     44187     44188
     44189     44190     44189     44191     44190     44191     44192     44193
     44192     44194     44193     44194     44195     44196     44195     44197
     44196     44197     44198     44199     44198     44200     44199     44200
     44201     44202     44201     44203     44202     44203     44204     44205
     44204     44206     44205     44206     44207     44208     44207     44209
     44208     44209     44210     44211     44210     44212     44211     44212
     44213     44214     44213     44215     44214     44215     44216     44217
     44216     44218     44217     44218     44219     44220     44219     44221
     44220     44221     44222     44223     44222     44224     44223     44224
     44225     44226     44225     44227     44226     44227     44228     44229
     44228     44230     44229     44230     44231     44232     44231     44233
     44232     44233     44234     44235     44234     44236     44235     44236
     44237     44238     44237     44239     44238     44239     44240     44241
     44240     44242     44241     44242     44243     44244     44243     44245
     44244     44245     44246     44247     44246     44248     44247     44248
     44249     44250     44249     44251     44250     44251     44252     44253
     44252     44254     44253     44254     44255     44256     44255     44257
     44256     44257     44258     44259     44258     44260     44259     44260
     44261     44262     44261     44263     44262     44263     44264     44265
     44264     44266     44265     44266     44267     44268     44267     44269
     44268     44269     44270     44271     44270     44272     44271     44272
     44273     44274     44273     44275     44274     44275     44276     44277
     44276     44278     44277     44278     44279     44280     44279     44281
     44280     44281     44282     44283     44282     44284     44283     44284
     44285     44286     44285     44287     44286     44287     44288     44289
     44288     44290     44289     44290     44291     44292     44291     44293
     44292     44293     44294     44295     44294     44296     44295     44296
     44297     44298     44297     44299     44298     44299     44300     44301
     44300     44302     44301     44302     44303     44304     44303     44305
     44304     44305     44306     44307     44306     44308     44307     44308
     44309     44310     44309     44311     44310     44311     44312     44313
     44312     44314     44313     44314     44315     44316     44315     44317
     44316     44317     44318     44319     44318     44320     44319     44320
     44321     44322     44321     44323     44322     44323     44324     44325
     44324     44326     44325     44326     44327     44328     44327     44329
     44328     44329     44330     44331     44330     44332     44331     44332
     44333     44334     44333     44335     44334     44335     44336     44337
     44336     44338     44337     44338     44339     44340     44339     44341
     44340     44341     44342     44343     44342     44344     44343     44344
     44345     44346     44345     44347     44346     44347     44348     44349
     44348     44350     44349     44350     44351     44352     44351     44353
     44352     44353     44354     44355     44354     44356     44355     44356
     44357     44358     44357     44359     44358     44359     44360     44361
     44360     44362     44361     44362     44363     44364     44363     44365
     44364     44365     44366     44367     44366     44368     44367     44368
     44369     44370     44369     44371     44370     44371     44372     44373
     44372     44374     44373     44374     44375     44376     44375     44377
     44376     44377     44378     44379     44378     44380     44379     44380
     44381     44382     44381     44383     44382     44383     44384     44385
     44384     44386     44385     44386     44387     44388     44387     44389
     44388     44389     44390     44391     44390     44392     44391     44392
     44393     44394     44393     44395     44394     44395     44396     44397
     44396     44398     44397     44398     44399     44400     44399     44401
     44400     44401     44402     44403     44402     44404     44403     44404
     44405     44406     44405     44407     44406     44407     44408     44409
     44408     44410     44409     44410     44411     44412     44411     44413
     44412     44413     44414     44415     44414     44416     44415     44416
     44417     44418     44417     44419     44418     44419     44420     44421
     44420     44422     44421     44422     44423     44424     44423     44425
     44424     44425     44426     44427     44426     44428     44427     44428
     44429     44430     44429     44431     44430     44431     44432     44433
     44432     44434     44433     44434     44435     44436     44435     44437
     44436     44437     44438     44439     44438     44440     44439     44440
     44441     44442     44441     44443     44442     44443     44444     44445
     44444     44446     44445     44446     44447     44448     44447     44449
     44448     44449     44450     44451     44450     44452     44451     44452
     44453     44454     44453     44455     44454     44455     44456     44457
     44456     44458     44457     44458     44459     44460     44459     44461
     44460     44461     44462     44463     44462     44464     44463     44464
     44465     44466     44465     44467     44466     44467     44468     44469
     44468     44470     44469     44470     44471     44472     44471     44473
     44472     44473     44474     44475     44474     44476     44475     44476
     44477     44478     44477     44479     44478     44479     44480     44481
     44480     44482     44481     44482     44483     44484     44483     44485
     44484     44485     44486     44487     44486     44488     44487     44488
     44489     44490     44489     44491     44490     44491     44492     44493
     44492     44494     44493     44494     44495     44496     44495     44497
     44496     44497     44498     44499     44498     44500     44499     44500
     44501     44502     44501     44503     44502     44503     44504     44505
     44504     44506     44505     44506     44507     44508     44507     44509
     44508     44509     44510     44511     44510     44512     44511     44512
     44513     44514     44513     44515     44514     44515     44516     44517
     44516     44518     44517     44518     44519     44520     44519     44521
     44520     44521     44522     44523     44522     44524     44523     44524
     44525     44526     44525     44527     44526     44527     44528     44529
     44528     44530     44529     44530     44531     44532     44531     44533
     44532     44533     44534     44535     44534     44536     44535     44536
     44537     44538     44537     44539     44538     44539     44540     44541
     44540     44542     44541     44542     44543     44544     44543     44545
     44544     44545     44546     44547     44546     44548     44547     44548
     44549     44550     44549     44551     44550     44551     44552     44553
     44552     44554     44553     44554     44555     44556     44555     44557
     44556     44557     44558     44559     44558     44560     44559     44560
     44561     44562     44561     44563     44562     44563     44564     44565
     44564     44566     44565     44566     44567     44568     44567     44569
     44568     44569     44570     44571     44570     44572     44571     44572
     44573     44574     44573     44575     44574     44575     44576     44577
     44576     44578     44577     44578     44579     44580     44579     44581
     44580     44581     44582     44583     44582     44584     44583     44584
     44585     44586     44585     44587     44586     44587     44588     44589
     44588     44590     44589     44590     44591     44592     44591     44593
     44592     44593     44594     44595     44594     44596     44595     44596
     44597     44598     44597     44599     44598     44599     44600     44601
     44600     44602     44601     44602     44603     44604     44603     44605
     44604     44605     44606     44607     44606     44608     44607     44608
     44609     44610     44609     44611     44610     44611     44612     44613
     44612     44614     44613     44614     44615     44616     44615     44617
     44616     44617     44618     44619     44618     44620     44619     44620
     44621     44622     44621     44623     44622     44623     44624     44625
     44624     44626     44625     44626     44627     44628     44627     44629
     44628     44629     44630     44631     44630     44632     44631     44632
     44633     44634     44633     44635     44634     44635     44636     44637
     44636     44638     44637     44638     44639     44640     44639     44641
     44640     44641     44642     44643     44642     44644     44643     44644
     44645     44646     44645     44647     44646     44647     44648     44649
     44648     44650     44649     44650     44651     44652     44651     44653
     44652     44653     44654     44655     44654     44656     44655     44656
     44657     44658     44657     44659     44658     44659     44660     44661
     44660     44662     44661     44662     44663     44664     44663     44665
     44664     44665     44666     44667     44666     44668     44667     44668
     44669     44670     44669     44671     44670     44671     44672     44673
     44672     44674     44673     44674     44675     44676     44675     44677
     44676     44677     44678     44679     44678     44680     44679     44680
     44681     44682     44681     44683     44682     44683     44684     44685
     44684     44686     44685     44686     44687     44688     44687     44689
     44688     44689     44690     44691     44690     44692     44691     44692
     44693     44694     44693     44695     44694     44695     44696     44697
     44696     44698     44697     44698     44699     44700     44699     44701
     44700     44701     44702     44703     44702     44704     44703     44704
     44705     44706     44705     44707     44706     44707     44708     44709
     44708     44710     44709     44710     44711     44712     44711     44713
     44712     44713     44714     44715     44714     44716     44715     44716
     44717     44718     44717     44719     44718     44719     44720     44721
     44720     44722     44721     44722     44723     44724     44723     44725
     44724     44725     44726     44727     44726     44728     44727     44728
     44729     44730     44729     44731     44730     44731     44732     44733
     44732     44734     44733     44734     44735     44736     44735     44737
     44736     44737     44738     44739     44738     44740     44739     44740
     44741     44742     44741     44743     44742     44743     44744     44745
     44744     44746     44745     44746     44747     44748     44747     44749
     44748     44749     44750     44751     44750     44752     44751     44752
     44753     44754     44753     44755     44754     44755     44756     44757
     44756     44758     44757     44758     44759     44760     44759     44761
     44760     44761     44762     44763     44762     44764     44763     44764
     44765     44766     44765     44767     44766     44767     44768     44769
     44768     44770     44769     44770     44771     44772     44771     44773
     44772     44773     44774     44775     44774     44776     44775     44776
     44777     44778     44777     44779     44778     44779     44780     44781
     44780     44782     44781     44782     44783     44784     44783     44785
     44784     44785     44786     44787     44786     44788     44787     44788
     44789     44790     44789     44791     44790     44791     44792     44793
     44792     44794     44793     44794     44795     44796     44795     44797
     44796     44797     44798     44799     44798     44800     44799     44800
     44801     44802     44801     44803     44802     44803     44804     44805
     44804     44806     44805     44806     44807     44808     44807     44809
     44808     44809     44810     44811     44810     44812     44811     44812
     44813     44814     44813     44815     44814     44815     44816     44817
     44816     44818     44817     44818     44819     44820     44819     44821
     44820     44821     44822     44823     44822     44824     44823     44824
     44825     44826     44825     44827     44826     44827     44828     44829
     44828     44830     44829     44830     44831     44832     44831     44833
     44832     44833     44834     44835     44834     44836     44835     44836
     44837     44838     44837     44839     44838     44839     44840     44841
     44840     44842     44841     44842     44843     44844     44843     44845
     44844     44845     44846     44847     44846     44848     44847     44848
     44849     44850     44849     44851     44850     44851     44852     44853
     44852     44854     44853     44854     44855     44856     44855     44857
     44856     44857     44858     44859     44858     44860     44859     44860
     44861     44862     44861     44863     44862     44863     44864     44865
     44864     44866     44865     44866     44867     44868     44867     44869
     44868     44869     44870     44871     44870     44872     44871     44872
     44873     44874     44873     44875     44874     44875     44876     44877
     44876     44878     44877     44878     44879     44880     44879     44881
     44880     44881     44882     44883     44882     44884     44883     44884
     44885     44886     44885     44887     44886     44887     44888     44889
     44888     44890     44889     44890     44891     44892     44891     44893
     44892     44893     44894     44895     44894     44896     44895     44896
     44897     44898     44897     44899     44898     44899     44900     44901
     44900     44902     44901     44902     44903     44904     44903     44905
     44904     44905     44906     44907     44906     44908     44907     44908
     44909     44910     44909     44911     44910     44911     44912     44913
     44912     44914     44913     44914     44915     44916     44915     44917
     44916     44917     44918     44919     44918     44920     44919     44920
     44921     44922     44921     44923     44922     44923     44924     44925
     44924     44926     44925     44926     44927     44928     44927     44929
     44928     44929     44930     44931     44930     44932     44931     44932
     44933     44934     44933     44935     44934     44935     44936     44937
     44936     44938     44937     44938     44939     44940     44939     44941
     44940     44941     44942     44943     44942     44944     44943     44944
     44945     44946     44945     44947     44946     44947     44948     44949
     44948     44950     44949     44950     44951     44952     44951     44953
     44952     44953     44954     44955     44954     44956     44955     44956
     44957     44958     44957     44959     44958     44959     44960     44961
     44960     44962     44961     44962     44963     44964     44963     44965
     44964     44965     44966     44967     44966     44968     44967     44968
     44969     44970     44969     44971     44970     44971     44972     44973
     44972     44974     44973     44974     44975     44976     44975     44977
     44976     44977     44978     44979     44978     44980     44979     44980
     44981     44982     44981     44983     44982     44983     44984     44985
     44984     44986     44985     44986     44987     44988     44987     44989
     44988     44989     44990     44991     44990     44992     44991     44992
     44993     44994     44993     44995     44994     44995     44996     44997
     44996     44998     44997     44998     44999     45000     44999     45001
     45000     45001     45002     45003     45002     45004     45003     45004
     45005     45006     45005     45007     45006     45007     45008     45009
     45008     45010     45009     45010     45011     45012     45011     45013
     45012     45013     45014     45015     45014     45016     45015     45016
     45017     45018     45017     45019     45018     45019     45020     45021
     45020     45022     45021     45022     45023     45024     45023     45025
     45024     45025     45026     45027     45026     45028     45027     45028
     45029     45030     45029     45031     45030     45031     45032     45033
     45032     45034     45033     45034     45035     45036     45035     45037
     45036     45037     45038     45039     45038     45040     45039     45040
     45041     45042     45041     45043     45042     45043     45044     45045
     45044     45046     45045     45046     45047     45048     45047     45049
     45048     45049     45050     45051     45050     45052     45051     45052
     45053     45054     45053     45055     45054     45055     45056     45057
     45056     45058     45057     45058     45059     45060     45059     45061
     45060     45061     45062     45063     45062     45064     45063     45064
     45065     45066     45065     45067     45066     45067     45068     45069
     45068     45070     45069     45070     45071     45072     45071     45073
     45072     45073     45074     45075     45074     45076     45075     45076
     45077     45078     45077     45079     45078     45079     45080     45081
     45080     45082     45081     45082     45083     45084     45083     45085
     45084     45085     45086     45087     45086     45088     45087     45088
     45089     45090     45089     45091     45090     45091     45092     45093
     45092     45094     45093     45094     45095     45096     45095     45097
     45096     45097     45098     45099     45098     45100     45099     45100
     45101     45102     45101     45103     45102     45103     45104     45105
     45104     45106     45105     45106     45107     45108     45107     45109
     45108     45109     45110     45111     45110     45112     45111     45112
     45113     45114     45113     45115     45114     45115     45116     45117
     45116     45118     45117     45118     45119     45120     45119     45121
     45120     45121     45122     45123     45122     45124     45123     45124
     45125     45126     45125     45127     45126     45127     45128     45129
     45128     45130     45129     45130     45131     45132     45131     45133
     45132     45133     45134     45135     45134     45136     45135     45136
     45137     45138     45137     45139     45138     45139     45140     45141
     45140     45142     45141     45142     45143     45144     45143     45145
     45144     45145     45146     45147     45146     45148     45147     45148
     45149     45150     45149     45151     45150     45151     45152     45153
     45152     45154     45153     45154     45155     45156     45155     45157
     45156     45157     45158     45159     45158     45160     45159     45160
     45161     45162     45161     45163     45162     45163     45164     45165
     45164     45166     45165     45166     45167     45168     45167     45169
     45168     45169     45170     45171     45170     45172     45171     45172
     45173     45174     45173     45175     45174     45175     45176     45177
     45176     45178     45177     45178     45179     45180     45179     45181
     45180     45181     45182     45183     45182     45184     45183     45184
     45185     45186     45185     45187     45186     45187     45188     45189
     45188     45190     45189     45190     45191     45192     45191     45193
     45192     45193     45194     45195     45194     45196     45195     45196
     45197     45198     45197     45199     45198     45199     45200     45201
     45200     45202     45201     45202     45203     45204     45203     45205
     45204     45205     45206     45207     45206     45208     45207     45208
     45209     45210     45209     45211     45210     45211     45212     45213
     45212     45214     45213     45214     45215     45216     45215     45217
     45216     45217     45218     45219     45218     45220     45219     45220
     45221     45222     45221     45223     45222     45223     45224     45225
     45224     45226     45225     45226     45227     45228     45227     45229
     45228     45229     45230     45231     45230     45232     45231     45232
     45233     45234     45233     45235     45234     45235     45236     45237
     45236     45238     45237     45238     45239     45240     45239     45241
     45240     45241     45242     45243     45242     45244     45243     45244
     45245     45246     45245     45247     45246     45247     45248     45249
     45248     45250     45249     45250     45251     45252     45251     45253
     45252     45253     45254     45255     45254     45256     45255     45256
     45257     45258     45257     45259     45258     45259     45260     45261
     45260     45262     45261     45262     45263     45264     45263     45265
     45264     45265     45266     45267     45266     45268     45267     45268
     45269     45270     45269     45271     45270     45271     45272     45273
     45272     45274     45273     45274     45275     45276     45275     45277
     45276     45277     45278     45279     45278     45280     45279     45280
     45281     45282     45281     45283     45282     45283     45284     45285
     45284     45286     45285     45286     45287     45288     45287     45289
     45288     45289     45290     45291     45290     45292     45291     45292
     45293     45294     45293     45295     45294     45295     45296     45297
     45296     45298     45297     45298     45299     45300     45299     45301
     45300     45301     45302     45303     45302     45304     45303     45304
     45305     45306     45305     45307     45306     45307     45308     45309
     45308     45310     45309     45310     45311     45312     45311     45313
     45312     45313     45314     45315     45314     45316     45315     45316
     45317     45318     45317     45319     45318     45319     45320     45321
     45320     45322     45321     45322     45323     45324     45323     45325
     45324     45325     45326     45327     45326     45328     45327     45328
     45329     45330     45329     45331     45330     45331     45332     45333
     45332     45334     45333     45334     45335     45336     45335     45337
     45336     45337     45338     45339     45338     45340     45339     45340
     45341     45342     45341     45343     45342     45343     45344     45345
     45344     45346     45345     45346     45347     45348     45347     45349
     45348     45349     45350     45351     45350     45352     45351     45352
     45353     45354     45353     45355     45354     45355     45356     45357
     45356     45358     45357     45358     45359     45360     45359     45361
     45360     45361     45362     45363     45362     45364     45363     45364
     45365     45366     45365     45367     45366     45367     45368     45369
     45368     45370     45369     45370     45371     45372     45371     45373
     45372     45373     45374     45375     45374     45376     45375     45376
     45377     45378     45377     45379     45378     45379     45380     45381
     45380     45382     45381     45382     45383     45384     45383     45385
     45384     45385     45386     45387     45386     45388     45387     45388
     45389     45390     45389     45391     45390     45391     45392     45393
     45392     45394     45393     45394     45395     45396     45395     45397
     45396     45397     45398     45399     45398     45400     45399     45400
     45401     45402     45401     45403     45402     45403     45404     45405
     45404     45406     45405     45406     45407     45408     45407     45409
     45408     45409     45410     45411     45410     45412     45411     45412
     45413     45414     45413     45415     45414     45415     45416     45417
     45416     45418     45417     45418     45419     45420     45419     45421
     45420     45421     45422     45423     45422     45424     45423     45424
     45425     45426     45425     45427     45426     45427     45428     45429
     45428     45430     45429     45430     45431     45432     45431     45433
     45432     45433     45434     45435     45434     45436     45435     45436
     45437     45438     45437     45439     45438     45439     45440     45441
     45440     45442     45441     45442     45443     45444     45443     45445
     45444     45445     45446     45447     45446     45448     45447     45448
     45449     45450     45449     45451     45450     45451     45452     45453
     45452     45454     45453     45454     45455     45456     45455     45457
     45456     45457     45458     45459     45458     45460     45459     45460
     45461     45462     45461     45463     45462     45463     45464     45465
     45464     45466     45465     45466     45467     45468     45467     45469
     45468     45469     45470     45471     45470     45472     45471     45472
     45473     45474     45473     45475     45474     45475     45476     45477
     45476     45478     45477     45478     45479     45480     45479     45481
     45480     45481     45482     45483     45482     45484     45483     45484
     45485     45486     45485     45487     45486     45487     45488     45489
     45488     45490     45489     45490     45491     45492     45491     45493
     45492     45493     45494     45495     45494     45496     45495     45496
     45497     45498     45497     45499     45498     45499     45500     45501
     45500     45502     45501     45502     45503     45504     45503     45505
     45504     45505     45506     45507     45506     45508     45507     45508
     45509     45510     45509     45511     45510     45511     45512     45513
     45512     45514     45513     45514     45515     45516     45515     45517
     45516     45517     45518     45519     45518     45520     45519     45520
     45521     45522     45521     45523     45522     45523     45524     45525
     45524     45526     45525     45526     45527     45528     45527     45529
     45528     45529     45530     45531     45530     45532     45531     45532
     45533     45534     45533     45535     45534     45535     45536     45537
     45536     45538     45537     45538     45539     45540     45539     45541
     45540     45541     45542     45543     45542     45544     45543     45544
     45545     45546     45545     45547     45546     45547     45548     45549
     45548     45550     45549     45550     45551     45552     45551     45553
     45552     45553     45554     45555     45554     45556     45555     45556
     45557     45558     45557     45559     45558     45559     45560     45561
     45560     45562     45561     45562     45563     45564     45563     45565
     45564     45565     45566     45567     45566     45568     45567     45568
     45569     45570     45569     45571     45570     45571     45572     45573
     45572     45574     45573     45574     45575     45576     45575     45577
     45576     45577     45578     45579     45578     45580     45579     45580
     45581     45582     45581     45583     45582     45583     45584     45585
     45584     45586     45585     45586     45587     45588     45587     45589
     45588     45589     45590     45591     45590     45592     45591     45592
     45593     45594     45593     45595     45594     45595     45596     45597
     45596     45598     45597     45598     45599     45600     45599     45601
     45600     45601     45602     45603     45602     45604     45603     45604
     45605     45606     45605     45607     45606     45607     45608     45609
     45608     45610     45609     45610     45611     45612     45611     45613
     45612     45613     45614     45615     45614     45616     45615     45616
     45617     45618     45617     45619     45618     45619     45620     45621
     45620     45622     45621     45622     45623     45624     45623     45625
     45624     45625     45626     45627     45626     45628     45627     45628
     45629     45630     45629     45631     45630     45631     45632     45633
     45632     45634     45633     45634     45635     45636     45635     45637
     45636     45637     45638     45639     45638     45640     45639     45640
     45641     45642     45641     45643     45642     45643     45644     45645
     45644     45646     45645     45646     45647     45648     45647     45649
     45648     45649     45650     45651     45650     45652     45651     45652
     45653     45654     45653     45655     45654     45655     45656     45657
     45656     45658     45657     45658     45659     45660     45659     45661
     45660     45661     45662     45663     45662     45664     45663     45664
     45665     45666     45665     45667     45666     45667     45668     45669
     45668     45670     45669     45670     45671     45672     45671     45673
     45672     45673     45674     45675     45674     45676     45675     45676
     45677     45678     45677     45679     45678     45679     45680     45681
     45680     45682     45681     45682     45683     45684     45683     45685
     45684     45685     45686     45687     45686     45688     45687     45688
     45689     45690     45689     45691     45690     45691     45692     45693
     45692     45694     45693     45694     45695     45696     45695     45697
     45696     45697     45698     45699     45698     45700     45699     45700
     45701     45702     45701     45703     45702     45703     45704     45705
     45704     45706     45705     45706     45707     45708     45707     45709
     45708     45709     45710     45711     45710     45712     45711     45712
     45713     45714     45713     45715     45714     45715     45716     45717
     45716     45718     45717     45718     45719     45720     45719     45721
     45720     45721     45722     45723     45722     45724     45723     45724
     45725     45726     45725     45727     45726     45727     45728     45729
     45728     45730     45729     45730     45731     45732     45731     45733
     45732     45733     45734     45735     45734     45736     45735     45736
     45737     45738     45737     45739     45738     45739     45740     45741
     45740     45742     45741     45742     45743     45744     45743     45745
     45744     45745     45746     45747     45746     45748     45747     45748
     45749     45750     45749     45751     45750     45751     45752     45753
     45752     45754     45753     45754     45755     45756     45755     45757
     45756     45757     45758     45759     45758     45760     45759     45760
     45761     45762     45761     45763     45762     45763     45764     45765
     45764     45766     45765     45766     45767     45768     45767     45769
     45768     45769     45770     45771     45770     45772     45771     45772
     45773     45774     45773     45775     45774     45775     45776     45777
     45776     45778     45777     45778     45779     45780     45779     45781
     45780     45781     45782     45783     45782     45784     45783     45784
     45785     45786     45785     45787     45786     45787     45788     45789
     45788     45790     45789     45790     45791     45792     45791     45793
     45792     45793     45794     45795     45794     45796     45795     45796
     45797     45798     45797     45799     45798     45799     45800     45801
     45800     45802     45801     45802     45803     45804     45803     45805
     45804     45805     45806     45807     45806     45808     45807     45808
     45809     45810     45809     45811     45810     45811     45812     45813
     45812     45814     45813     45814     45815     45816     45815     45817
     45816     45817     45818     45819     45818     45820     45819     45820
     45821     45822     45821     45823     45822     45823     45824     45825
     45824     45826     45825     45826     45827     45828     45827     45829
     45828     45829     45830     45831     45830     45832     45831     45832
     45833     45834     45833     45835     45834     45835     45836     45837
     45836     45838     45837     45838     45839     45840     45839     45841
     45840     45841     45842     45843     45842     45844     45843     45844
     45845     45846     45845     45847     45846     45847     45848     45849
     45848     45850     45849     45850     45851     45852     45851     45853
     45852     45853     45854     45855     45854     45856     45855     45856
     45857     45858     45857     45859     45858     45859     45860     45861
     45860     45862     45861     45862     45863     45864     45863     45865
     45864     45865     45866     45867     45866     45868     45867     45868
     45869     45870     45869     45871     45870     45871     45872     45873
     45872     45874     45873     45874     45875     45876     45875     45877
     45876     45877     45878     45879     45878     45880     45879     45880
     45881     45882     45881     45883     45882     45883     45884     45885
     45884     45886     45885     45886     45887     45888     45887     45889
     45888     45889     45890     45891     45890     45892     45891     45892
     45893     45894     45893     45895     45894     45895     45896     45897
     45896     45898     45897     45898     45899     45900     45899     45901
     45900     45901     45902     45903     45902     45904     45903     45904
     45905     45906     45905     45907     45906     45907     45908     45909
     45908     45910     45909     45910     45911     45912     45911     45913
     45912     45913     45914     45915     45914     45916     45915     45916
     45917     45918     45917     45919     45918     45919     45920     45921
     45920     45922     45921     45922     45923     45924     45923     45925
     45924     45925     45926     45927     45926     45928     45927     45928
     45929     45930     45929     45931     45930     45931     45932     45933
     45932     45934     45933     45934     45935     45936     45935     45937
     45936     45937     45938     45939     45938     45940     45939     45940
     45941     45942     45941     45943     45942     45943     45944     45945
     45944     45946     45945     45946     45947     45948     45947     45949
     45948     45949     45950     45951     45950     45952     45951     45952
     45953     45954     45953     45955     45954     45955     45956     45957
     45956     45958     45957     45958     45959     45960     45959     45961
     45960     45961     45962     45963     45962     45964     45963     45964
     45965     45966     45965     45967     45966     45967     45968     45969
     45968     45970     45969     45970     45971     45972     45971     45973
     45972     45973     45974     45975     45974     45976     45975     45976
     45977     45978     45977     45979     45978     45979     45980     45981
     45980     45982     45981     45982     45983     45984     45983     45985
     45984     45985     45986     45987     45986     45988     45987     45988
     45989     45990     45989     45991     45990     45991     45992     45993
     45992     45994     45993     45994     45995     45996     45995     45997
     45996     45997     45998     45999     45998     46000     45999     46000
     46001     46002     46001     46003     46002     46003     46004     46005
     46004     46006     46005     46006     46007     46008     46007     46009
     46008     46009     46010     46011     46010     46012     46011     46012
     46013     46014     46013     46015     46014     46015     46016     46017
     46016     46018     46017     46018     46019     46020     46019     46021
     46020     46021     46022     46023     46022     46024     46023     46024
     46025     46026     46025     46027     46026     46027     46028     46029
     46028     46030     46029     46030     46031     46032     46031     46033
     46032     46033     46034     46035     46034     46036     46035     46036
     46037     46038     46037     46039     46038     46039     46040     46041
     46040     46042     46041     46042     46043     46044     46043     46045
     46044     46045     46046     46047     46046     46048     46047     46048
     46049     46050     46049     46051     46050     46051     46052     46053
     46052     46054     46053     46054     46055     46056     46055     46057
     46056     46057     46058     46059     46058     46060     46059     46060
     46061     46062     46061     46063     46062     46063     46064     46065
     46064     46066     46065     46066     46067     46068     46067     46069
     46068     46069     46070     46071     46070     46072     46071     46072
     46073     46074     46073     46075     46074     46075     46076     46077
     46076     46078     46077     46078     46079     46080     46079     46081
     46080     46081     46082     46083     46082     46084     46083     46084
     46085     46086     46085     46087     46086     46087     46088     46089
     46088     46090     46089     46090     46091     46092     46091     46093
     46092     46093     46094     46095     46094     46096     46095     46096
     46097     46098     46097     46099     46098     46099     46100     46101
     46100     46102     46101     46102     46103     46104     46103     46105
     46104     46105     46106     46107     46106     46108     46107     46108
     46109     46110     46109     46111     46110     46111     46112     46113
     46112     46114     46113     46114     46115     46116     46115     46117
     46116     46117     46118     46119     46118     46120     46119     46120
     46121     46122     46121     46123     46122     46123     46124     46125
     46124     46126     46125     46126     46127     46128     46127     46129
     46128     46129     46130     46131     46130     46132     46131     46132
     46133     46134     46133     46135     46134     46135     46136     46137
     46136     46138     46137     46138     46139     46140     46139     46141
     46140     46141     46142     46143     46142     46144     46143     46144
     46145     46146     46145     46147     46146     46147     46148     46149
     46148     46150     46149     46150     46151     46152     46151     46153
     46152     46153     46154     46155     46154     46156     46155     46156
     46157     46158     46157     46159     46158     46159     46160     46161
     46160     46162     46161     46162     46163     46164     46163     46165
     46164     46165     46166     46167     46166     46168     46167     46168
     46169     46170     46169     46171     46170     46171     46172     46173
     46172     46174     46173     46174     46175     46176     46175     46177
     46176     46177     46178     46179     46178     46180     46179     46180
     46181     46182     46181     46183     46182     46183     46184     46185
     46184     46186     46185     46186     46187     46188     46187     46189
     46188     46189     46190     46191     46190     46192     46191     46192
     46193     46194     46193     46195     46194     46195     46196     46197
     46196     46198     46197     46198     46199     46200     46199     46201
     46200     46201     46202     46203     46202     46204     46203     46204
     46205     46206     46205     46207     46206     46207     46208     46209
     46208     46210     46209     46210     46211     46212     46211     46213
     46212     46213     46214     46215     46214     46216     46215     46216
     46217     46218     46217     46219     46218     46219     46220     46221
     46220     46222     46221     46222     46223     46224     46223     46225
     46224     46225     46226     46227     46226     46228     46227     46228
     46229     46230     46229     46231     46230     46231     46232     46233
     46232     46234     46233     46234     46235     46236     46235     46237
     46236     46237     46238     46239     46238     46240     46239     46240
     46241     46242     46241     46243     46242     46243     46244     46245
     46244     46246     46245     46246     46247     46248     46247     46249
     46248     46249     46250     46251     46250     46252     46251     46252
     46253     46254     46253     46255     46254     46255     46256     46257
     46256     46258     46257     46258     46259     46260     46259     46261
     46260     46261     46262     46263     46262     46264     46263     46264
     46265     46266     46265     46267     46266     46267     46268     46269
     46268     46270     46269     46270     46271     46272     46271     46273
     46272     46273     46274     46275     46274     46276     46275     46276
     46277     46278     46277     46279     46278     46279     46280     46281
     46280     46282     46281     46282     46283     46284     46283     46285
     46284     46285     46286     46287     46286     46288     46287     46288
     46289     46290     46289     46291     46290     46291     46292     46293
     46292     46294     46293     46294     46295     46296     46295     46297
     46296     46297     46298     46299     46298     46300     46299     46300
     46301     46302     46301     46303     46302     46303     46304     46305
     46304     46306     46305     46306     46307     46308     46307     46309
     46308     46309     46310     46311     46310     46312     46311     46312
     46313     46314     46313     46315     46314     46315     46316     46317
     46316     46318     46317     46318     46319     46320     46319     46321
     46320     46321     46322     46323     46322     46324     46323     46324
     46325     46326     46325     46327     46326     46327     46328     46329
     46328     46330     46329     46330     46331     46332     46331     46333
     46332     46333     46334     46335     46334     46336     46335     46336
     46337     46338     46337     46339     46338     46339     46340     46341
     46340     46342     46341     46342     46343     46344     46343     46345
     46344     46345     46346     46347     46346     46348     46347     46348
     46349     46350     46349     46351     46350     46351     46352     46353
     46352     46354     46353     46354     46355     46356     46355     46357
     46356     46357     46358     46359     46358     46360     46359     46360
     46361     46362     46361     46363     46362     46363     46364     46365
     46364     46366     46365     46366     46367     46368     46367     46369
     46368     46369     46370     46371     46370     46372     46371     46372
     46373     46374     46373     46375     46374     46375     46376     46377
     46376     46378     46377     46378     46379     46380     46379     46381
     46380     46381     46382     46383     46382     46384     46383     46384
     46385     46386     46385     46387     46386     46387     46388     46389
     46388     46390     46389     46390     46391     46392     46391     46393
     46392     46393     46394     46395     46394     46396     46395     46396
     46397     46398     46397     46399     46398     46399     46400     46401
     46400     46402     46401     46402     46403     46404     46403     46405
     46404     46405     46406     46407     46406     46408     46407     46408
     46409     46410     46409     46411     46410     46411     46412     46413
     46412     46414     46413     46414     46415     46416     46415     46417
     46416     46417     46418     46419     46418     46420     46419     46420
     46421     46422     46421     46423     46422     46423     46424     46425
     46424     46426     46425     46426     46427     46428     46427     46429
     46428     46429     46430     46431     46430     46432     46431     46432
     46433     46434     46433     46435     46434     46435     46436     46437
     46436     46438     46437     46438     46439     46440     46439     46441
     46440     46441     46442     46443     46442     46444     46443     46444
     46445     46446     46445     46447     46446     46447     46448     46449
     46448     46450     46449     46450     46451     46452     46451     46453
     46452     46453     46454     46455     46454     46456     46455     46456
     46457     46458     46457     46459     46458     46459     46460     46461
     46460     46462     46461     46462     46463     46464     46463     46465
     46464     46465     46466     46467     46466     46468     46467     46468
     46469     46470     46469     46471     46470     46471     46472     46473
     46472     46474     46473     46474     46475     46476     46475     46477
     46476     46477     46478     46479     46478     46480     46479     46480
     46481     46482     46481     46483     46482     46483     46484     46485
     46484     46486     46485     46486     46487     46488     46487     46489
     46488     46489     46490     46491     46490     46492     46491     46492
     46493     46494     46493     46495     46494     46495     46496     46497
     46496     46498     46497     46498     46499     46500     46499     46501
     46500     46501     46502     46503     46502     46504     46503     46504
     46505     46506     46505     46507     46506     46507     46508     46509
     46508     46510     46509     46510     46511     46512     46511     46513
     46512     46513     46514     46515     46514     46516     46515     46516
     46517     46518     46517     46519     46518     46519     46520     46521
     46520     46522     46521     46522     46523     46524     46523     46525
     46524     46525     46526     46527     46526     46528     46527     46528
     46529     46530     46529     46531     46530     46531     46532     46533
     46532     46534     46533     46534     46535     46536     46535     46537
     46536     46537     46538     46539     46538     46540     46539     46540
     46541     46542     46541     46543     46542     46543     46544     46545
     46544     46546     46545     46546     46547     46548     46547     46549
     46548     46549     46550     46551     46550     46552     46551     46552
     46553     46554     46553     46555     46554     46555     46556     46557
     46556     46558     46557     46558     46559     46560     46559     46561
     46560     46561     46562     46563     46562     46564     46563     46564
     46565     46566     46565     46567     46566     46567     46568     46569
     46568     46570     46569     46570     46571     46572     46571     46573
     46572     46573     46574     46575     46574     46576     46575     46576
     46577     46578     46577     46579     46578     46579     46580     46581
     46580     46582     46581     46582     46583     46584     46583     46585
     46584     46585     46586     46587     46586     46588     46587     46588
     46589     46590     46589     46591     46590     46591     46592     46593
     46592     46594     46593     46594     46595     46596     46595     46597
     46596     46597     46598     46599     46598     46600     46599     46600
     46601     46602     46601     46603     46602     46603     46604     46605
     46604     46606     46605     46606     46607     46608     46607     46609
     46608     46609     46610     46611     46610     46612     46611     46612
     46613     46614     46613     46615     46614     46615     46616     46617
     46616     46618     46617     46618     46619     46620     46619     46621
     46620     46621     46622     46623     46622     46624     46623     46624
     46625     46626     46625     46627     46626     46627     46628     46629
     46628     46630     46629     46630     46631     46632     46631     46633
     46632     46633     46634     46635     46634     46636     46635     46636
     46637     46638     46637     46639     46638     46639     46640     46641
     46640     46642     46641     46642     46643     46644     46643     46645
     46644     46645     46646     46647     46646     46648     46647     46648
     46649     46650     46649     46651     46650     46651     46652     46653
     46652     46654     46653     46654     46655     46656     46655     46657
     46656     46657     46658     46659     46658     46660     46659     46660
     46661     46662     46661     46663     46662     46663     46664     46665
     46664     46666     46665     46666     46667     46668     46667     46669
     46668     46669     46670     46671     46670     46672     46671     46672
     46673     46674     46673     46675     46674     46675     46676     46677
     46676     46678     46677     46678     46679     46680     46679     46681
     46680     46681     46682     46683     46682     46684     46683     46684
     46685     46686     46685     46687     46686     46687     46688     46689
     46688     46690     46689     46690     46691     46692     46691     46693
     46692     46693     46694     46695     46694     46696     46695     46696
     46697     46698     46697     46699     46698     46699     46700     46701
     46700     46702     46701     46702     46703     46704     46703     46705
     46704     46705     46706     46707     46706     46708     46707     46708
     46709     46710     46709     46711     46710     46711     46712     46713
     46712     46714     46713     46714     46715     46716     46715     46717
     46716     46717     46718     46719     46718     46720     46719     46720
     46721     46722     46721     46723     46722     46723     46724     46725
     46724     46726     46725     46726     46727     46728     46727     46729
     46728     46729     46730     46731     46730     46732     46731     46732
     46733     46734     46733     46735     46734     46735     46736     46737
     46736     46738     46737     46738     46739     46740     46739     46741
     46740     46741     46742     46743     46742     46744     46743     46744
     46745     46746     46745     46747     46746     46747     46748     46749
     46748     46750     46749     46750     46751     46752     46751     46753
     46752     46753     46754     46755     46754     46756     46755     46756
     46757     46758     46757     46759     46758     46759     46760     46761
     46760     46762     46761     46762     46763     46764     46763     46765
     46764     46765     46766     46767     46766     46768     46767     46768
     46769     46770     46769     46771     46770     46771     46772     46773
     46772     46774     46773     46774     46775     46776     46775     46777
     46776     46777     46778     46779     46778     46780     46779     46780
     46781     46782     46781     46783     46782     46783     46784     46785
     46784     46786     46785     46786     46787     46788     46787     46789
     46788     46789     46790     46791     46790     46792     46791     46792
     46793     46794     46793     46795     46794     46795     46796     46797
     46796     46798     46797     46798     46799     46800     46799     46801
     46800     46801     46802     46803     46802     46804     46803     46804
     46805     46806     46805     46807     46806     46807     46808     46809
     46808     46810     46809     46810     46811     46812     46811     46813
     46812     46813     46814     46815     46814     46816     46815     46816
     46817     46818     46817     46819     46818     46819     46820     46821
     46820     46822     46821     46822     46823     46824     46823     46825
     46824     46825     46826     46827     46826     46828     46827     46828
     46829     46830     46829     46831     46830     46831     46832     46833
     46832     46834     46833     46834     46835     46836     46835     46837
     46836     46837     46838     46839     46838     46840     46839     46840
     46841     46842     46841     46843     46842     46843     46844     46845
     46844     46846     46845     46846     46847     46848     46847     46849
     46848     46849     46850     46851     46850     46852     46851     46852
     46853     46854     46853     46855     46854     46855     46856     46857
     46856     46858     46857     46858     46859     46860     46859     46861
     46860     46861     46862     46863     46862     46864     46863     46864
     46865     46866     46865     46867     46866     46867     46868     46869
     46868     46870     46869     46870     46871     46872     46871     46873
     46872     46873     46874     46875     46874     46876     46875     46876
     46877     46878     46877     46879     46878     46879     46880     46881
     46880     46882     46881     46882     46883     46884     46883     46885
     46884     46885     46886     46887     46886     46888     46887     46888
     46889     46890     46889     46891     46890     46891     46892     46893
     46892     46894     46893     46894     46895     46896     46895     46897
     46896     46897     46898     46899     46898     46900     46899     46900
     46901     46902     46901     46903     46902     46903     46904     46905
     46904     46906     46905     46906     46907     46908     46907     46909
     46908     46909     46910     46911     46910     46912     46911     46912
     46913     46914     46913     46915     46914     46915     46916     46917
     46916     46918     46917     46918     46919     46920     46919     46921
     46920     46921     46922     46923     46922     46924     46923     46924
     46925     46926     46925     46927     46926     46927     46928     46929
     46928     46930     46929     46930     46931     46932     46931     46933
     46932     46933     46934     46935     46934     46936     46935     46936
     46937     46938     46937     46939     46938     46939     46940     46941
     46940     46942     46941     46942     46943     46944     46943     46945
     46944     46945     46946     46947     46946     46948     46947     46948
     46949     46950     46949     46951     46950     46951     46952     46953
     46952     46954     46953     46954     46955     46956     46955     46957
     46956     46957     46958     46959     46958     46960     46959     46960
     46961     46962     46961     46963     46962     46963     46964     46965
     46964     46966     46965     46966     46967     46968     46967     46969
     46968     46969     46970     46971     46970     46972     46971     46972
     46973     46974     46973     46975     46974     46975     46976     46977
     46976     46978     46977     46978     46979     46980     46979     46981
     46980     46981     46982     46983     46982     46984     46983     46984
     46985     46986     46985     46987     46986     46987     46988     46989
     46988     46990     46989     46990     46991     46992     46991     46993
     46992     46993     46994     46995     46994     46996     46995     46996
     46997     46998     46997     46999     46998     46999     47000     47001
     47000     47002     47001     47002     47003     47004     47003     47005
     47004     47005     47006     47007     47006     47008     47007     47008
     47009     47010     47009     47011     47010     47011     47012     47013
     47012     47014     47013     47014     47015     47016     47015     47017
     47016     47017     47018     47019     47018     47020     47019     47020
     47021     47022     47021     47023     47022     47023     47024     47025
     47024     47026     47025     47026     47027     47028     47027     47029
     47028     47029     47030     47031     47030     47032     47031     47032
     47033     47034     47033     47035     47034     47035     47036     47037
     47036     47038     47037     47038     47039     47040     47039     47041
     47040     47041     47042     47043     47042     47044     47043     47044
     47045     47046     47045     47047     47046     47047     47048     47049
     47048     47050     47049     47050     47051     47052     47051     47053
     47052     47053     47054     47055     47054     47056     47055     47056
     47057     47058     47057     47059     47058     47059     47060     47061
     47060     47062     47061     47062     47063     47064     47063     47065
     47064     47065     47066     47067     47066     47068     47067     47068
     47069     47070     47069     47071     47070     47071     47072     47073
     47072     47074     47073     47074     47075     47076     47075     47077
     47076     47077     47078     47079     47078     47080     47079     47080
     47081     47082     47081     47083     47082     47083     47084     47085
     47084     47086     47085     47086     47087     47088     47087     47089
     47088     47089     47090     47091     47090     47092     47091     47092
     47093     47094     47093     47095     47094     47095     47096     47097
     47096     47098     47097     47098     47099     47100     47099     47101
     47100     47101     47102     47103     47102     47104     47103     47104
     47105     47106     47105     47107     47106     47107     47108     47109
     47108     47110     47109     47110     47111     47112     47111     47113
     47112     47113     47114     47115     47114     47116     47115     47116
     47117     47118     47117     47119     47118     47119     47120     47121
     47120     47122     47121     47122     47123     47124     47123     47125
     47124     47125     47126     47127     47126     47128     47127     47128
     47129     47130     47129     47131     47130     47131     47132     47133
     47132     47134     47133     47134     47135     47136     47135     47137
     47136     47137     47138     47139     47138     47140     47139     47140
     47141     47142     47141     47143     47142     47143     47144     47145
     47144     47146     47145     47146     47147     47148     47147     47149
     47148     47149     47150     47151     47150     47152     47151     47152
     47153     47154     47153     47155     47154     47155     47156     47157
     47156     47158     47157     47158     47159     47160     47159     47161
     47160     47161     47162     47163     47162     47164     47163     47164
     47165     47166     47165     47167     47166     47167     47168     47169
     47168     47170     47169     47170     47171     47172     47171     47173
     47172     47173     47174     47175     47174     47176     47175     47176
     47177     47178     47177     47179     47178     47179     47180     47181
     47180     47182     47181     47182     47183     47184     47183     47185
     47184     47185     47186     47187     47186     47188     47187     47188
     47189     47190     47189     47191     47190     47191     47192     47193
     47192     47194     47193     47194     47195     47196     47195     47197
     47196     47197     47198     47199     47198     47200     47199     47200
     47201     47202     47201     47203     47202     47203     47204     47205
     47204     47206     47205     47206     47207     47208     47207     47209
     47208     47209     47210     47211     47210     47212     47211     47212
     47213     47214     47213     47215     47214     47215     47216     47217
     47216     47218     47217     47218     47219     47220     47219     47221
     47220     47221     47222     47223     47222     47224     47223     47224
     47225     47226     47225     47227     47226     47227     47228     47229
     47228     47230     47229     47230     47231     47232     47231     47233
     47232     47233     47234     47235     47234     47236     47235     47236
     47237     47238     47237     47239     47238     47239     47240     47241
     47240     47242     47241     47242     47243     47244     47243     47245
     47244     47245     47246     47247     47246     47248     47247     47248
     47249     47250     47249     47251     47250     47251     47252     47253
     47252     47254     47253     47254     47255     47256     47255     47257
     47256     47257     47258     47259     47258     47260     47259     47260
     47261     47262     47261     47263     47262     47263     47264     47265
     47264     47266     47265     47266     47267     47268     47267     47269
     47268     47269     47270     47271     47270     47272     47271     47272
     47273     47274     47273     47275     47274     47275     47276     47277
     47276     47278     47277     47278     47279     47280     47279     47281
     47280     47281     47282     47283     47282     47284     47283     47284
     47285     47286     47285     47287     47286     47287     47288     47289
     47288     47290     47289     47290     47291     47292     47291     47293
     47292     47293     47294     47295     47294     47296     47295     47296
     47297     47298     47297     47299     47298     47299     47300     47301
     47300     47302     47301     47302     47303     47304     47303     47305
     47304     47305     47306     47307     47306     47308     47307     47308
     47309     47310     47309     47311     47310     47311     47312     47313
     47312     47314     47313     47314     47315     47316     47315     47317
     47316     47317     47318     47319     47318     47320     47319     47320
     47321     47322     47321     47323     47322     47323     47324     47325
     47324     47326     47325     47326     47327     47328     47327     47329
     47328     47329     47330     47331     47330     47332     47331     47332
     47333     47334     47333     47335     47334     47335     47336     47337
     47336     47338     47337     47338     47339     47340     47339     47341
     47340     47341     47342     47343     47342     47344     47343     47344
     47345     47346     47345     47347     47346     47347     47348     47349
     47348     47350     47349     47350     47351     47352     47351     47353
     47352     47353     47354     47355     47354     47356     47355     47356
     47357     47358     47357     47359     47358     47359     47360     47361
     47360     47362     47361     47362     47363     47364     47363     47365
     47364     47365     47366     47367     47366     47368     47367     47368
     47369     47370     47369     47371     47370     47371     47372     47373
     47372     47374     47373     47374     47375     47376     47375     47377
     47376     47377     47378     47379     47378     47380     47379     47380
     47381     47382     47381     47383     47382     47383     47384     47385
     47384     47386     47385     47386     47387     47388     47387     47389
     47388     47389     47390     47391     47390     47392     47391     47392
     47393     47394     47393     47395     47394     47395     47396     47397
     47396     47398     47397     47398     47399     47400     47399     47401
     47400     47401     47402     47403     47402     47404     47403     47404
     47405     47406     47405     47407     47406     47407     47408     47409
     47408     47410     47409     47410     47411     47412     47411     47413
     47412     47413     47414     47415     47414     47416     47415     47416
     47417     47418     47417     47419     47418     47419     47420     47421
     47420     47422     47421     47422     47423     47424     47423     47425
     47424     47425     47426     47427     47426     47428     47427     47428
     47429     47430     47429     47431     47430     47431     47432     47433
     47432     47434     47433     47434     47435     47436     47435     47437
     47436     47437     47438     47439     47438     47440     47439     47440
     47441     47442     47441     47443     47442     47443     47444     47445
     47444     47446     47445     47446     47447     47448     47447     47449
     47448     47449     47450     47451     47450     47452     47451     47452
     47453     47454     47453     47455     47454     47455     47456     47457
     47456     47458     47457     47458     47459     47460     47459     47461
     47460     47461     47462     47463     47462     47464     47463     47464
     47465     47466     47465     47467     47466     47467     47468     47469
     47468     47470     47469     47470     47471     47472     47471     47473
     47472     47473     47474     47475     47474     47476     47475     47476
     47477     47478     47477     47479     47478     47479     47480     47481
     47480     47482     47481     47482     47483     47484     47483     47485
     47484     47485     47486     47487     47486     47488     47487     47488
     47489     47490     47489     47491     47490     47491     47492     47493
     47492     47494     47493     47494     47495     47496     47495     47497
     47496     47497     47498     47499     47498     47500     47499     47500
     47501     47502     47501     47503     47502     47503     47504     47505
     47504     47506     47505     47506     47507     47508     47507     47509
     47508     47509     47510     47511     47510     47512     47511     47512
     47513     47514     47513     47515     47514     47515     47516     47517
     47516     47518     47517     47518     47519     47520     47519     47521
     47520     47521     47522     47523     47522     47524     47523     47524
     47525     47526     47525     47527     47526     47527     47528     47529
     47528     47530     47529     47530     47531     47532     47531     47533
     47532     47533     47534     47535     47534     47536     47535     47536
     47537     47538     47537     47539     47538     47539     47540     47541
     47540     47542     47541     47542     47543     47544     47543     47545
     47544     47545     47546     47547     47546     47548     47547     47548
     47549     47550     47549     47551     47550     47551     47552     47553
     47552     47554     47553     47554     47555     47556     47555     47557
     47556     47557     47558     47559     47558     47560     47559     47560
     47561     47562     47561     47563     47562     47563     47564     47565
     47564     47566     47565     47566     47567     47568     47567     47569
     47568     47569     47570     47571     47570     47572     47571     47572
     47573     47574     47573     47575     47574     47575     47576     47577
     47576     47578     47577     47578     47579     47580     47579     47581
     47580     47581     47582     47583     47582     47584     47583     47584
     47585     47586     47585     47587     47586     47587     47588     47589
     47588     47590     47589     47590     47591     47592     47591     47593
     47592     47593     47594     47595     47594     47596     47595     47596
     47597     47598     47597     47599     47598     47599     47600     47601
     47600     47602     47601     47602     47603     47604     47603     47605
     47604     47605     47606     47607     47606     47608     47607     47608
     47609     47610     47609     47611     47610     47611     47612     47613
     47612     47614     47613     47614     47615     47616     47615     47617
     47616     47617     47618     47619     47618     47620     47619     47620
     47621     47622     47621     47623     47622     47623     47624     47625
     47624     47626     47625     47626     47627     47628     47627     47629
     47628     47629     47630     47631     47630     47632     47631     47632
     47633     47634     47633     47635     47634     47635     47636     47637
     47636     47638     47637     47638     47639     47640     47639     47641
     47640     47641     47642     47643     47642     47644     47643     47644
     47645     47646     47645     47647     47646     47647     47648     47649
     47648     47650     47649     47650     47651     47652     47651     47653
     47652     47653     47654     47655     47654     47656     47655     47656
     47657     47658     47657     47659     47658     47659     47660     47661
     47660     47662     47661     47662     47663     47664     47663     47665
     47664     47665     47666     47667     47666     47668     47667     47668
     47669     47670     47669     47671     47670     47671     47672     47673
     47672     47674     47673     47674     47675     47676     47675     47677
     47676     47677     47678     47679     47678     47680     47679     47680
     47681     47682     47681     47683     47682     47683     47684     47685
     47684     47686     47685     47686     47687     47688     47687     47689
     47688     47689     47690     47691     47690     47692     47691     47692
     47693     47694     47693     47695     47694     47695     47696     47697
     47696     47698     47697     47698     47699     47700     47699     47701
     47700     47701     47702     47703     47702     47704     47703     47704
     47705     47706     47705     47707     47706     47707     47708     47709
     47708     47710     47709     47710     47711     47712     47711     47713
     47712     47713     47714     47715     47714     47716     47715     47716
     47717     47718     47717     47719     47718     47719     47720     47721
     47720     47722     47721     47722     47723     47724     47723     47725
     47724     47725     47726     47727     47726     47728     47727     47728
     47729     47730     47729     47731     47730     47731     47732     47733
     47732     47734     47733     47734     47735     47736     47735     47737
     47736     47737     47738     47739     47738     47740     47739     47740
     47741     47742     47741     47743     47742     47743     47744     47745
     47744     47746     47745     47746     47747     47748     47747     47749
     47748     47749     47750     47751     47750     47752     47751     47752
     47753     47754     47753     47755     47754     47755     47756     47757
     47756     47758     47757     47758     47759     47760     47759     47761
     47760     47761     47762     47763     47762     47764     47763     47764
     47765     47766     47765     47767     47766     47767     47768     47769
     47768     47770     47769     47770     47771     47772     47771     47773
     47772     47773     47774     47775     47774     47776     47775     47776
     47777     47778     47777     47779     47778     47779     47780     47781
     47780     47782     47781     47782     47783     47784     47783     47785
     47784     47785     47786     47787     47786     47788     47787     47788
     47789     47790     47789     47791     47790     47791     47792     47793
     47792     47794     47793     47794     47795     47796     47795     47797
     47796     47797     47798     47799     47798     47800     47799     47800
     47801     47802     47801     47803     47802     47803     47804     47805
     47804     47806     47805     47806     47807     47808     47807     47809
     47808     47809     47810     47811     47810     47812     47811     47812
     47813     47814     47813     47815     47814     47815     47816     47817
     47816     47818     47817     47818     47819     47820     47819     47821
     47820     47821     47822     47823     47822     47824     47823     47824
     47825     47826     47825     47827     47826     47827     47828     47829
     47828     47830     47829     47830     47831     47832     47831     47833
     47832     47833     47834     47835     47834     47836     47835     47836
     47837     47838     47837     47839     47838     47839     47840     47841
     47840     47842     47841     47842     47843     47844     47843     47845
     47844     47845     47846     47847     47846     47848     47847     47848
     47849     47850     47849     47851     47850     47851     47852     47853
     47852     47854     47853     47854     47855     47856     47855     47857
     47856     47857     47858     47859     47858     47860     47859     47860
     47861     47862     47861     47863     47862     47863     47864     47865
     47864     47866     47865     47866     47867     47868     47867     47869
     47868     47869     47870     47871     47870     47872     47871     47872
     47873     47874     47873     47875     47874     47875     47876     47877
     47876     47878     47877     47878     47879     47880     47879     47881
     47880     47881     47882     47883     47882     47884     47883     47884
     47885     47886     47885     47887     47886     47887     47888     47889
     47888     47890     47889     47890     47891     47892     47891     47893
     47892     47893     47894     47895     47894     47896     47895     47896
     47897     47898     47897     47899     47898     47899     47900     47901
     47900     47902     47901     47902     47903     47904     47903     47905
     47904     47905     47906     47907     47906     47908     47907     47908
     47909     47910     47909     47911     47910     47911     47912     47913
     47912     47914     47913     47914     47915     47916     47915     47917
     47916     47917     47918     47919     47918     47920     47919     47920
     47921     47922     47921     47923     47922     47923     47924     47925
     47924     47926     47925     47926     47927     47928     47927     47929
     47928     47929     47930     47931     47930     47932     47931     47932
     47933     47934     47933     47935     47934     47935     47936     47937
     47936     47938     47937     47938     47939     47940     47939     47941
     47940     47941     47942     47943     47942     47944     47943     47944
     47945     47946     47945     47947     47946     47947     47948     47949
     47948     47950     47949     47950     47951     47952     47951     47953
     47952     47953     47954     47955     47954     47956     47955     47956
     47957     47958     47957     47959     47958     47959     47960     47961
     47960     47962     47961     47962     47963     47964     47963     47965
     47964     47965     47966     47967     47966     47968     47967     47968
     47969     47970     47969     47971     47970     47971     47972     47973
     47972     47974     47973     47974     47975     47976     47975     47977
     47976     47977     47978     47979     47978     47980     47979     47980
     47981     47982     47981     47983     47982     47983     47984     47985
     47984     47986     47985     47986     47987     47988     47987     47989
     47988     47989     47990     47991     47990     47992     47991     47992
     47993     47994     47993     47995     47994     47995     47996     47997
     47996     47998     47997     47998     47999     48000     47999     48001
     48000     48001     48002     48003     48002     48004     48003     48004
     48005     48006     48005     48007     48006     48007     48008     48009
     48008     48010     48009     48010     48011     48012     48011     48013
     48012     48013     48014     48015     48014     48016     48015     48016
     48017     48018     48017     48019     48018     48019     48020     48021
     48020     48022     48021     48022     48023     48024     48023     48025
     48024     48025     48026     48027     48026     48028     48027     48028
     48029     48030     48029     48031     48030     48031     48032     48033
     48032     48034     48033     48034     48035     48036     48035     48037
     48036     48037     48038     48039     48038     48040     48039     48040
     48041     48042     48041     48043     48042     48043     48044     48045
     48044     48046     48045     48046     48047     48048     48047     48049
     48048     48049     48050     48051     48050     48052     48051     48052
     48053     48054     48053     48055     48054     48055     48056     48057
     48056     48058     48057     48058     48059     48060     48059     48061
     48060     48061     48062     48063     48062     48064     48063     48064
     48065     48066     48065     48067     48066     48067     48068     48069
     48068     48070     48069     48070     48071     48072     48071     48073
     48072     48073     48074     48075     48074     48076     48075     48076
     48077     48078     48077     48079     48078     48079     48080     48081
     48080     48082     48081     48082     48083     48084     48083     48085
     48084     48085     48086     48087     48086     48088     48087     48088
     48089     48090     48089     48091     48090     48091     48092     48093
     48092     48094     48093     48094     48095     48096     48095     48097
     48096     48097     48098     48099     48098     48100     48099     48100
     48101     48102     48101     48103     48102     48103     48104     48105
     48104     48106     48105     48106     48107     48108     48107     48109
     48108     48109     48110     48111     48110     48112     48111     48112
     48113     48114     48113     48115     48114     48115     48116     48117
     48116     48118     48117     48118     48119     48120     48119     48121
     48120     48121     48122     48123     48122     48124     48123     48124
     48125     48126     48125     48127     48126     48127     48128     48129
     48128     48130     48129     48130     48131     48132     48131     48133
     48132     48133     48134     48135     48134     48136     48135     48136
     48137     48138     48137     48139     48138     48139     48140     48141
     48140     48142     48141     48142     48143     48144     48143     48145
     48144     48145     48146     48147     48146     48148     48147     48148
     48149     48150     48149     48151     48150     48151     48152     48153
     48152     48154     48153     48154     48155     48156     48155     48157
     48156     48157     48158     48159     48158     48160     48159     48160
     48161     48162     48161     48163     48162     48163     48164     48165
     48164     48166     48165     48166     48167     48168     48167     48169
     48168     48169     48170     48171     48170     48172     48171     48172
     48173     48174     48173     48175     48174     48175     48176     48177
     48176     48178     48177     48178     48179     48180     48179     48181
     48180     48181     48182     48183     48182     48184     48183     48184
     48185     48186     48185     48187     48186     48187     48188     48189
     48188     48190     48189     48190     48191     48192     48191     48193
     48192     48193     48194     48195     48194     48196     48195     48196
     48197     48198     48197     48199     48198     48199     48200     48201
     48200     48202     48201     48202     48203     48204     48203     48205
     48204     48205     48206     48207     48206     48208     48207     48208
     48209     48210     48209     48211     48210     48211     48212     48213
     48212     48214     48213     48214     48215     48216     48215     48217
     48216     48217     48218     48219     48218     48220     48219     48220
     48221     48222     48221     48223     48222     48223     48224     48225
     48224     48226     48225     48226     48227     48228     48227     48229
     48228     48229     48230     48231     48230     48232     48231     48232
     48233     48234     48233     48235     48234     48235     48236     48237
     48236     48238     48237     48238     48239     48240     48239     48241
     48240     48241     48242     48243     48242     48244     48243     48244
     48245     48246     48245     48247     48246     48247     48248     48249
     48248     48250     48249     48250     48251     48252     48251     48253
     48252     48253     48254     48255     48254     48256     48255     48256
     48257     48258     48257     48259     48258     48259     48260     48261
     48260     48262     48261     48262     48263     48264     48263     48265
     48264     48265     48266     48267     48266     48268     48267     48268
     48269     48270     48269     48271     48270     48271     48272     48273
     48272     48274     48273     48274     48275     48276     48275     48277
     48276     48277     48278     48279     48278     48280     48279     48280
     48281     48282     48281     48283     48282     48283     48284     48285
     48284     48286     48285     48286     48287     48288     48287     48289
     48288     48289     48290     48291     48290     48292     48291     48292
     48293     48294     48293     48295     48294     48295     48296     48297
     48296     48298     48297     48298     48299     48300     48299     48301
     48300     48301     48302     48303     48302     48304     48303     48304
     48305     48306     48305     48307     48306     48307     48308     48309
     48308     48310     48309     48310     48311     48312     48311     48313
     48312     48313     48314     48315     48314     48316     48315     48316
     48317     48318     48317     48319     48318     48319     48320     48321
     48320     48322     48321     48322     48323     48324     48323     48325
     48324     48325     48326     48327     48326     48328     48327     48328
     48329     48330     48329     48331     48330     48331     48332     48333
     48332     48334     48333     48334     48335     48336     48335     48337
     48336     48337     48338     48339     48338     48340     48339     48340
     48341     48342     48341     48343     48342     48343     48344     48345
     48344     48346     48345     48346     48347     48348     48347     48349
     48348     48349     48350     48351     48350     48352     48351     48352
     48353     48354     48353     48355     48354     48355     48356     48357
     48356     48358     48357     48358     48359     48360     48359     48361
     48360     48361     48362     48363     48362     48364     48363     48364
     48365     48366     48365     48367     48366     48367     48368     48369
     48368     48370     48369     48370     48371     48372     48371     48373
     48372     48373     48374     48375     48374     48376     48375     48376
     48377     48378     48377     48379     48378     48379     48380     48381
     48380     48382     48381     48382     48383     48384     48383     48385
     48384     48385     48386     48387     48386     48388     48387     48388
     48389     48390     48389     48391     48390     48391     48392     48393
     48392     48394     48393     48394     48395     48396     48395     48397
     48396     48397     48398     48399     48398     48400     48399     48400
     48401     48402     48401     48403     48402     48403     48404     48405
     48404     48406     48405     48406     48407     48408     48407     48409
     48408     48409     48410     48411     48410     48412     48411     48412
     48413     48414     48413     48415     48414     48415     48416     48417
     48416     48418     48417     48418     48419     48420     48419     48421
     48420     48421     48422     48423     48422     48424     48423     48424
     48425     48426     48425     48427     48426     48427     48428     48429
     48428     48430     48429     48430     48431     48432     48431     48433
     48432     48433     48434     48435     48434     48436     48435     48436
     48437     48438     48437     48439     48438     48439     48440     48441
     48440     48442     48441     48442     48443     48444     48443     48445
     48444     48445     48446     48447     48446     48448     48447     48448
     48449     48450     48449     48451     48450     48451     48452     48453
     48452     48454     48453     48454     48455     48456     48455     48457
     48456     48457     48458     48459     48458     48460     48459     48460
     48461     48462     48461     48463     48462     48463     48464     48465
     48464     48466     48465     48466     48467     48468     48467     48469
     48468     48469     48470     48471     48470     48472     48471     48472
     48473     48474     48473     48475     48474     48475     48476     48477
     48476     48478     48477     48478     48479     48480     48479     48481
     48480     48481     48482     48483     48482     48484     48483     48484
     48485     48486     48485     48487     48486     48487     48488     48489
     48488     48490     48489     48490     48491     48492     48491     48493
     48492     48493     48494     48495     48494     48496     48495     48496
     48497     48498     48497     48499     48498     48499     48500     48501
     48500     48502     48501     48502     48503     48504     48503     48505
     48504     48505     48506     48507     48506     48508     48507     48508
     48509     48510     48509     48511     48510     48511     48512     48513
     48512     48514     48513     48514     48515     48516     48515     48517
     48516     48517     48518     48519     48518     48520     48519     48520
     48521     48522     48521     48523     48522     48523     48524     48525
     48524     48526     48525     48526     48527     48528     48527     48529
     48528     48529     48530     48531     48530     48532     48531     48532
     48533     48534     48533     48535     48534     48535     48536     48537
     48536     48538     48537     48538     48539     48540     48539     48541
     48540     48541     48542     48543     48542     48544     48543     48544
     48545     48546     48545     48547     48546     48547     48548     48549
     48548     48550     48549     48550     48551     48552     48551     48553
     48552     48553     48554     48555     48554     48556     48555     48556
     48557     48558     48557     48559     48558     48559     48560     48561
     48560     48562     48561     48562     48563     48564     48563     48565
     48564     48565     48566     48567     48566     48568     48567     48568
     48569     48570     48569     48571     48570     48571     48572     48573
     48572     48574     48573     48574     48575     48576     48575     48577
     48576     48577     48578     48579     48578     48580     48579     48580
     48581     48582     48581     48583     48582     48583     48584     48585
     48584     48586     48585     48586     48587     48588     48587     48589
     48588     48589     48590     48591     48590     48592     48591     48592
     48593     48594     48593     48595     48594     48595     48596     48597
     48596     48598     48597     48598     48599     48600     48599     48601
     48600     48601     48602     48603     48602     48604     48603     48604
     48605     48606     48605     48607     48606     48607     48608     48609
     48608     48610     48609     48610     48611     48612     48611     48613
     48612     48613     48614     48615     48614     48616     48615     48616
     48617     48618     48617     48619     48618     48619     48620     48621
     48620     48622     48621     48622     48623     48624     48623     48625
     48624     48625     48626     48627     48626     48628     48627     48628
     48629     48630     48629     48631     48630     48631     48632     48633
     48632     48634     48633     48634     48635     48636     48635     48637
     48636     48637     48638     48639     48638     48640     48639     48640
     48641     48642     48641     48643     48642     48643     48644     48645
     48644     48646     48645     48646     48647     48648     48647     48649
     48648     48649     48650     48651     48650     48652     48651     48652
     48653     48654     48653     48655     48654     48655     48656     48657
     48656     48658     48657     48658     48659     48660     48659     48661
     48660     48661     48662     48663     48662     48664     48663     48664
     48665     48666     48665     48667     48666     48667     48668     48669
     48668     48670     48669     48670     48671     48672     48671     48673
     48672     48673     48674     48675     48674     48676     48675     48676
     48677     48678     48677     48679     48678     48679     48680     48681
     48680     48682     48681     48682     48683     48684     48683     48685
     48684     48685     48686     48687     48686     48688     48687     48688
     48689     48690     48689     48691     48690     48691     48692     48693
     48692     48694     48693     48694     48695     48696     48695     48697
     48696     48697     48698     48699     48698     48700     48699     48700
     48701     48702     48701     48703     48702     48703     48704     48705
     48704     48706     48705     48706     48707     48708     48707     48709
     48708     48709     48710     48711     48710     48712     48711     48712
     48713     48714     48713     48715     48714     48715     48716     48717
     48716     48718     48717     48718     48719     48720     48719     48721
     48720     48721     48722     48723     48722     48724     48723     48724
     48725     48726     48725     48727     48726     48727     48728     48729
     48728     48730     48729     48730     48731     48732     48731     48733
     48732     48733     48734     48735     48734     48736     48735     48736
     48737     48738     48737     48739     48738     48739     48740     48741
     48740     48742     48741     48742     48743     48744     48743     48745
     48744     48745     48746     48747     48746     48748     48747     48748
     48749     48750     48749     48751     48750     48751     48752     48753
     48752     48754     48753     48754     48755     48756     48755     48757
     48756     48757     48758     48759     48758     48760     48759     48760
     48761     48762     48761     48763     48762     48763     48764     48765
     48764     48766     48765     48766     48767     48768     48767     48769
     48768     48769     48770     48771     48770     48772     48771     48772
     48773     48774     48773     48775     48774     48775     48776     48777
     48776     48778     48777     48778     48779     48780     48779     48781
     48780     48781     48782     48783     48782     48784     48783     48784
     48785     48786     48785     48787     48786     48787     48788     48789
     48788     48790     48789     48790     48791     48792     48791     48793
     48792     48793     48794     48795     48794     48796     48795     48796
     48797     48798     48797     48799     48798     48799     48800     48801
     48800     48802     48801     48802     48803     48804     48803     48805
     48804     48805     48806     48807     48806     48808     48807     48808
     48809     48810     48809     48811     48810     48811     48812     48813
     48812     48814     48813     48814     48815     48816     48815     48817
     48816     48817     48818     48819     48818     48820     48819     48820
     48821     48822     48821     48823     48822     48823     48824     48825
     48824     48826     48825     48826     48827     48828     48827     48829
     48828     48829     48830     48831     48830     48832     48831     48832
     48833     48834     48833     48835     48834     48835     48836     48837
     48836     48838     48837     48838     48839     48840     48839     48841
     48840     48841     48842     48843     48842     48844     48843     48844
     48845     48846     48845     48847     48846     48847     48848     48849
     48848     48850     48849     48850     48851     48852     48851     48853
     48852     48853     48854     48855     48854     48856     48855     48856
     48857     48858     48857     48859     48858     48859     48860     48861
     48860     48862     48861     48862     48863     48864     48863     48865
     48864     48865     48866     48867     48866     48868     48867     48868
     48869     48870     48869     48871     48870     48871     48872     48873
     48872     48874     48873     48874     48875     48876     48875     48877
     48876     48877     48878     48879     48878     48880     48879     48880
     48881     48882     48881     48883     48882     48883     48884     48885
     48884     48886     48885     48886     48887     48888     48887     48889
     48888     48889     48890     48891     48890     48892     48891     48892
     48893     48894     48893     48895     48894     48895     48896     48897
     48896     48898     48897     48898     48899     48900     48899     48901
     48900     48901     48902     48903     48902     48904     48903     48904
     48905     48906     48905     48907     48906     48907     48908     48909
     48908     48910     48909     48910     48911     48912     48911     48913
     48912     48913     48914     48915     48914     48916     48915     48916
     48917     48918     48917     48919     48918     48919     48920     48921
     48920     48922     48921     48922     48923     48924     48923     48925
     48924     48925     48926     48927     48926     48928     48927     48928
     48929     48930     48929     48931     48930     48931     48932     48933
     48932     48934     48933     48934     48935     48936     48935     48937
     48936     48937     48938     48939     48938     48940     48939     48940
     48941     48942     48941     48943     48942     48943     48944     48945
     48944     48946     48945     48946     48947     48948     48947     48949
     48948     48949     48950     48951     48950     48952     48951     48952
     48953     48954     48953     48955     48954     48955     48956     48957
     48956     48958     48957     48958     48959     48960     48959     48961
     48960     48961     48962     48963     48962     48964     48963     48964
     48965     48966     48965     48967     48966     48967     48968     48969
     48968     48970     48969     48970     48971     48972     48971     48973
     48972     48973     48974     48975     48974     48976     48975     48976
     48977     48978     48977     48979     48978     48979     48980     48981
     48980     48982     48981     48982     48983     48984     48983     48985
     48984     48985     48986     48987     48986     48988     48987     48988
     48989     48990     48989     48991     48990     48991     48992     48993
     48992     48994     48993     48994     48995     48996     48995     48997
     48996     48997     48998     48999     48998     49000     48999     49000
     49001     49002     49001     49003     49002     49003     49004     49005
     49004     49006     49005     49006     49007     49008     49007     49009
     49008     49009     49010     49011     49010     49012     49011     49012
     49013     49014     49013     49015     49014     49015     49016     49017
     49016     49018     49017     49018     49019     49020     49019     49021
     49020     49021     49022     49023     49022     49024     49023     49024
     49025     49026     49025     49027     49026     49027     49028     49029
     49028     49030     49029     49030     49031     49032     49031     49033
     49032     49033     49034     49035     49034     49036     49035     49036
     49037     49038     49037     49039     49038     49039     49040     49041
     49040     49042     49041     49042     49043     49044     49043     49045
     49044     49045     49046     49047     49046     49048     49047     49048
     49049     49050     49049     49051     49050     49051     49052     49053
     49052     49054     49053     49054     49055     49056     49055     49057
     49056     49057     49058     49059     49058     49060     49059     49060
     49061     49062     49061     49063     49062     49063     49064     49065
     49064     49066     49065     49066     49067     49068     49067     49069
     49068     49069     49070     49071     49070     49072     49071     49072
     49073     49074     49073     49075     49074     49075     49076     49077
     49076     49078     49077     49078     49079     49080     49079     49081
     49080     49081     49082     49083     49082     49084     49083     49084
     49085     49086     49085     49087     49086     49087     49088     49089
     49088     49090     49089     49090     49091     49092     49091     49093
     49092     49093     49094     49095     49094     49096     49095     49096
     49097     49098     49097     49099     49098     49099     49100     49101
     49100     49102     49101     49102     49103     49104     49103     49105
     49104     49105     49106     49107     49106     49108     49107     49108
     49109     49110     49109     49111     49110     49111     49112     49113
     49112     49114     49113     49114     49115     49116     49115     49117
     49116     49117     49118     49119     49118     49120     49119     49120
     49121     49122     49121     49123     49122     49123     49124     49125
     49124     49126     49125     49126     49127     49128     49127     49129
     49128     49129     49130     49131     49130     49132     49131     49132
     49133     49134     49133     49135     49134     49135     49136     49137
     49136     49138     49137     49138     49139     49140     49139     49141
     49140     49141     49142     49143     49142     49144     49143     49144
     49145     49146     49145     49147     49146     49147     49148     49149
     49148     49150     49149     49150     49151     49152     49151     49153
     49152     49153     49154     49155     49154     49156     49155     49156
     49157     49158     49157     49159     49158     49159     49160     49161
     49160     49162     49161     49162     49163     49164     49163     49165
     49164     49165     49166     49167     49166     49168     49167     49168
     49169     49170     49169     49171     49170     49171     49172     49173
     49172     49174     49173     49174     49175     49176     49175     49177
     49176     49177     49178     49179     49178     49180     49179     49180
     49181     49182     49181     49183     49182     49183     49184     49185
     49184     49186     49185     49186     49187     49188     49187     49189
     49188     49189     49190     49191     49190     49192     49191     49192
     49193     49194     49193     49195     49194     49195     49196     49197
     49196     49198     49197     49198     49199     49200     49199     49201
     49200     49201     49202     49203     49202     49204     49203     49204
     49205     49206     49205     49207     49206     49207     49208     49209
     49208     49210     49209     49210     49211     49212     49211     49213
     49212     49213     49214     49215     49214     49216     49215     49216
     49217     49218     49217     49219     49218     49219     49220     49221
     49220     49222     49221     49222     49223     49224     49223     49225
     49224     49225     49226     49227     49226     49228     49227     49228
     49229     49230     49229     49231     49230     49231     49232     49233
     49232     49234     49233     49234     49235     49236     49235     49237
     49236     49237     49238     49239     49238     49240     49239     49240
     49241     49242     49241     49243     49242     49243     49244     49245
     49244     49246     49245     49246     49247     49248     49247     49249
     49248     49249     49250     49251     49250     49252     49251     49252
     49253     49254     49253     49255     49254     49255     49256     49257
     49256     49258     49257     49258     49259     49260     49259     49261
     49260     49261     49262     49263     49262     49264     49263     49264
     49265     49266     49265     49267     49266     49267     49268     49269
     49268     49270     49269     49270     49271     49272     49271     49273
     49272     49273     49274     49275     49274     49276     49275     49276
     49277     49278     49277     49279     49278     49279     49280     49281
     49280     49282     49281     49282     49283     49284     49283     49285
     49284     49285     49286     49287     49286     49288     49287     49288
     49289     49290     49289     49291     49290     49291     49292     49293
     49292     49294     49293     49294     49295     49296     49295     49297
     49296     49297     49298     49299     49298     49300     49299     49300
     49301     49302     49301     49303     49302     49303     49304     49305
     49304     49306     49305     49306     49307     49308     49307     49309
     49308     49309     49310     49311     49310     49312     49311     49312
     49313     49314     49313     49315     49314     49315     49316     49317
     49316     49318     49317     49318     49319     49320     49319     49321
     49320     49321     49322     49323     49322     49324     49323     49324
     49325     49326     49325     49327     49326     49327     49328     49329
     49328     49330     49329     49330     49331     49332     49331     49333
     49332     49333     49334     49335     49334     49336     49335     49336
     49337     49338     49337     49339     49338     49339     49340     49341
     49340     49342     49341     49342     49343     49344     49343     49345
     49344     49345     49346     49347     49346     49348     49347     49348
     49349     49350     49349     49351     49350     49351     49352     49353
     49352     49354     49353     49354     49355     49356     49355     49357
     49356     49357     49358     49359     49358     49360     49359     49360
     49361     49362     49361     49363     49362     49363     49364     49365
     49364     49366     49365     49366     49367     49368     49367     49369
     49368     49369     49370     49371     49370     49372     49371     49372
     49373     49374     49373     49375     49374     49375     49376     49377
     49376     49378     49377     49378     49379     49380     49379     49381
     49380     49381     49382     49383     49382     49384     49383     49384
     49385     49386     49385     49387     49386     49387     49388     49389
     49388     49390     49389     49390     49391     49392     49391     49393
     49392     49393     49394     49395     49394     49396     49395     49396
     49397     49398     49397     49399     49398     49399     49400     49401
     49400     49402     49401     49402     49403     49404     49403     49405
     49404     49405     49406     49407     49406     49408     49407     49408
     49409     49410     49409     49411     49410     49411     49412     49413
     49412     49414     49413     49414     49415     49416     49415     49417
     49416     49417     49418     49419     49418     49420     49419     49420
     49421     49422     49421     49423     49422     49423     49424     49425
     49424     49426     49425     49426     49427     49428     49427     49429
     49428     49429     49430     49431     49430     49432     49431     49432
     49433     49434     49433     49435     49434     49435     49436     49437
     49436     49438     49437     49438     49439     49440     49439     49441
     49440     49441     49442     49443     49442     49444     49443     49444
     49445     49446     49445     49447     49446     49447     49448     49449
     49448     49450     49449     49450     49451     49452     49451     49453
     49452     49453     49454     49455     49454     49456     49455     49456
     49457     49458     49457     49459     49458     49459     49460     49461
     49460     49462     49461     49462     49463     49464     49463     49465
     49464     49465     49466     49467     49466     49468     49467     49468
     49469     49470     49469     49471     49470     49471     49472     49473
     49472     49474     49473     49474     49475     49476     49475     49477
     49476     49477     49478     49479     49478     49480     49479     49480
     49481     49482     49481     49483     49482     49483     49484     49485
     49484     49486     49485     49486     49487     49488     49487     49489
     49488     49489     49490     49491     49490     49492     49491     49492
     49493     49494     49493     49495     49494     49495     49496     49497
     49496     49498     49497     49498     49499     49500     49499     49501
     49500     49501     49502     49503     49502     49504     49503     49504
     49505     49506     49505     49507     49506     49507     49508     49509
     49508     49510     49509     49510     49511     49512     49511     49513
     49512     49513     49514     49515     49514     49516     49515     49516
     49517     49518     49517     49519     49518     49519     49520     49521
     49520     49522     49521     49522     49523     49524     49523     49525
     49524     49525     49526     49527     49526     49528     49527     49528
     49529     49530     49529     49531     49530     49531     49532     49533
     49532     49534     49533     49534     49535     49536     49535     49537
     49536     49537     49538     49539     49538     49540     49539     49540
     49541     49542     49541     49543     49542     49543     49544     49545
     49544     49546     49545     49546     49547     49548     49547     49549
     49548     49549     49550     49551     49550     49552     49551     49552
     49553     49554     49553     49555     49554     49555     49556     49557
     49556     49558     49557     49558     49559     49560     49559     49561
     49560     49561     49562     49563     49562     49564     49563     49564
     49565     49566     49565     49567     49566     49567     49568     49569
     49568     49570     49569     49570     49571     49572     49571     49573
     49572     49573     49574     49575     49574     49576     49575     49576
     49577     49578     49577     49579     49578     49579     49580     49581
     49580     49582     49581     49582     49583     49584     49583     49585
     49584     49585     49586     49587     49586     49588     49587     49588
     49589     49590     49589     49591     49590     49591     49592     49593
     49592     49594     49593     49594     49595     49596     49595     49597
     49596     49597     49598     49599     49598     49600     49599     49600
     49601     49602     49601     49603     49602     49603     49604     49605
     49604     49606     49605     49606     49607     49608     49607     49609
     49608     49609     49610     49611     49610     49612     49611     49612
     49613     49614     49613     49615     49614     49615     49616     49617
     49616     49618     49617     49618     49619     49620     49619     49621
     49620     49621     49622     49623     49622     49624     49623     49624
     49625     49626     49625     49627     49626     49627     49628     49629
     49628     49630     49629     49630     49631     49632     49631     49633
     49632     49633     49634     49635     49634     49636     49635     49636
     49637     49638     49637     49639     49638     49639     49640     49641
     49640     49642     49641     49642     49643     49644     49643     49645
     49644     49645     49646     49647     49646     49648     49647     49648
     49649     49650     49649     49651     49650     49651     49652     49653
     49652     49654     49653     49654     49655     49656     49655     49657
     49656     49657     49658     49659     49658     49660     49659     49660
     49661     49662     49661     49663     49662     49663     49664     49665
     49664     49666     49665     49666     49667     49668     49667     49669
     49668     49669     49670     49671     49670     49672     49671     49672
     49673     49674     49673     49675     49674     49675     49676     49677
     49676     49678     49677     49678     49679     49680     49679     49681
     49680     49681     49682     49683     49682     49684     49683     49684
     49685     49686     49685     49687     49686     49687     49688     49689
     49688     49690     49689     49690     49691     49692     49691     49693
     49692     49693     49694     49695     49694     49696     49695     49696
     49697     49698     49697     49699     49698     49699     49700     49701
     49700     49702     49701     49702     49703     49704     49703     49705
     49704     49705     49706     49707     49706     49708     49707     49708
     49709     49710     49709     49711     49710     49711     49712     49713
     49712     49714     49713     49714     49715     49716     49715     49717
     49716     49717     49718     49719     49718     49720     49719     49720
     49721     49722     49721     49723     49722     49723     49724     49725
     49724     49726     49725     49726     49727     49728     49727     49729
     49728     49729     49730     49731     49730     49732     49731     49732
     49733     49734     49733     49735     49734     49735     49736     49737
     49736     49738     49737     49738     49739     49740     49739     49741
     49740     49741     49742     49743     49742     49744     49743     49744
     49745     49746     49745     49747     49746     49747     49748     49749
     49748     49750     49749     49750     49751     49752     49751     49753
     49752     49753     49754     49755     49754     49756     49755     49756
     49757     49758     49757     49759     49758     49759     49760     49761
     49760     49762     49761     49762     49763     49764     49763     49765
     49764     49765     49766     49767     49766     49768     49767     49768
     49769     49770     49769     49771     49770     49771     49772     49773
     49772     49774     49773     49774     49775     49776     49775     49777
     49776     49777     49778     49779     49778     49780     49779     49780
     49781     49782     49781     49783     49782     49783     49784     49785
     49784     49786     49785     49786     49787     49788     49787     49789
     49788     49789     49790     49791     49790     49792     49791     49792
     49793     49794     49793     49795     49794     49795     49796     49797
     49796     49798     49797     49798     49799     49800     49799     49801
     49800     49801     49802     49803     49802     49804     49803     49804
     49805     49806     49805     49807     49806     49807     49808     49809
     49808     49810     49809     49810     49811     49812     49811     49813
     49812     49813     49814     49815     49814     49816     49815     49816
     49817     49818     49817     49819     49818     49819     49820     49821
     49820     49822     49821     49822     49823     49824     49823     49825
     49824     49825     49826     49827     49826     49828     49827     49828
     49829     49830     49829     49831     49830     49831     49832     49833
     49832     49834     49833     49834     49835     49836     49835     49837
     49836     49837     49838     49839     49838     49840     49839     49840
     49841     49842     49841     49843     49842     49843     49844     49845
     49844     49846     49845     49846     49847     49848     49847     49849
     49848     49849     49850     49851     49850     49852     49851     49852
     49853     49854     49853     49855     49854     49855     49856     49857
     49856     49858     49857     49858     49859     49860     49859     49861
     49860     49861     49862     49863     49862     49864     49863     49864
     49865     49866     49865     49867     49866     49867     49868     49869
     49868     49870     49869     49870     49871     49872     49871     49873
     49872     49873     49874     49875     49874     49876     49875     49876
     49877     49878     49877     49879     49878     49879     49880     49881
     49880     49882     49881     49882     49883     49884     49883     49885
     49884     49885     49886     49887     49886     49888     49887     49888
     49889     49890     49889     49891     49890     49891     49892     49893
     49892     49894     49893     49894     49895     49896     49895     49897
     49896     49897     49898     49899     49898     49900     49899     49900
     49901     49902     49901     49903     49902     49903     49904     49905
     49904     49906     49905     49906     49907     49908     49907     49909
     49908     49909     49910     49911     49910     49912     49911     49912
     49913     49914     49913     49915     49914     49915     49916     49917
     49916     49918     49917     49918     49919     49920     49919     49921
     49920     49921     49922     49923     49922     49924     49923     49924
     49925     49926     49925     49927     49926     49927     49928     49929
     49928     49930     49929     49930     49931     49932     49931     49933
     49932     49933     49934     49935     49934     49936     49935     49936
     49937     49938     49937     49939     49938     49939     49940     49941
     49940     49942     49941     49942     49943     49944     49943     49945
     49944     49945     49946     49947     49946     49948     49947     49948
     49949     49950     49949     49951     49950     49951     49952     49953
     49952     49954     49953     49954     49955     49956     49955     49957
     49956     49957     49958     49959     49958     49960     49959     49960
     49961     49962     49961     49963     49962     49963     49964     49965
     49964     49966     49965     49966     49967     49968     49967     49969
     49968     49969     49970     49971     49970     49972     49971     49972
     49973     49974     49973     49975     49974     49975     49976     49977
     49976     49978     49977     49978     49979     49980     49979     49981
     49980     49981     49982     49983     49982     49984     49983     49984
     49985     49986     49985     49987     49986     49987     49988     49989
     49988     49990     49989     49990     49991     49992     49991     49993
     49992     49993     49994     49995     49994     49996     49995     49996
     49997     49998     49997     49999     49998     49999     50000     50001
     50000     50002     50001     50002     50003     50004     50003     50005
     50004     50005     50006     50007     50006     50008     50007     50008
     50009     50010     50009     50011     50010     50011     50012     50013
     50012     50014     50013     50014     50015     50016     50015     50017
     50016     50017     50018     50019     50018     50020     50019     50020
     50021     50022     50021     50023     50022     50023     50024     50025
     50024     50026     50025     50026     50027     50028     50027     50029
     50028     50029     50030     50031     50030     50032     50031     50032
     50033     50034     50033     50035     50034     50035     50036     50037
     50036     50038     50037     50038     50039     50040     50039     50041
     50040     50041     50042     50043     50042     50044     50043     50044
     50045     50046     50045     50047     50046     50047     50048     50049
     50048     50050     50049     50050     50051     50052     50051     50053
     50052     50053     50054     50055     50054     50056     50055     50056
     50057     50058     50057     50059     50058     50059     50060     50061
     50060     50062     50061     50062     50063     50064     50063     50065
     50064     50065     50066     50067     50066     50068     50067     50068
     50069     50070     50069     50071     50070     50071     50072     50073
     50072     50074     50073     50074     50075     50076     50075     50077
     50076     50077     50078     50079     50078     50080     50079     50080
     50081     50082     50081     50083     50082     50083     50084     50085
     50084     50086     50085     50086     50087     50088     50087     50089
     50088     50089     50090     50091     50090     50092     50091     50092
     50093     50094     50093     50095     50094     50095     50096     50097
     50096     50098     50097     50098     50099     50100     50099     50101
     50100     50101     50102     50103     50102     50104     50103     50104
     50105     50106     50105     50107     50106     50107     50108     50109
     50108     50110     50109     50110     50111     50112     50111     50113
     50112     50113     50114     50115     50114     50116     50115     50116
     50117     50118     50117     50119     50118     50119     50120     50121
     50120     50122     50121     50122     50123     50124     50123     50125
     50124     50125     50126     50127     50126     50128     50127     50128
     50129     50130     50129     50131     50130     50131     50132     50133
     50132     50134     50133     50134     50135     50136     50135     50137
     50136     50137     50138     50139     50138     50140     50139     50140
     50141     50142     50141     50143     50142     50143     50144     50145
     50144     50146     50145     50146     50147     50148     50147     50149
     50148     50149     50150     50151     50150     50152     50151     50152
     50153     50154     50153     50155     50154     50155     50156     50157
     50156     50158     50157     50158     50159     50160     50159     50161
     50160     50161     50162     50163     50162     50164     50163     50164
     50165     50166     50165     50167     50166     50167     50168     50169
     50168     50170     50169     50170     50171     50172     50171     50173
     50172     50173     50174     50175     50174     50176     50175     50176
     50177     50178     50177     50179     50178     50179     50180     50181
     50180     50182     50181     50182     50183     50184     50183     50185
     50184     50185     50186     50187     50186     50188     50187     50188
     50189     50190     50189     50191     50190     50191     50192     50193
     50192     50194     50193     50194     50195     50196     50195     50197
     50196     50197     50198     50199     50198     50200     50199     50200
     50201     50202     50201     50203     50202     50203     50204     50205
     50204     50206     50205     50206     50207     50208     50207     50209
     50208     50209     50210     50211     50210     50212     50211     50212
     50213     50214     50213     50215     50214     50215     50216     50217
     50216     50218     50217     50218     50219     50220     50219     50221
     50220     50221     50222     50223     50222     50224     50223     50224
     50225     50226     50225     50227     50226     50227     50228     50229
     50228     50230     50229     50230     50231     50232     50231     50233
     50232     50233     50234     50235     50234     50236     50235     50236
     50237     50238     50237     50239     50238     50239     50240     50241
     50240     50242     50241     50242     50243     50244     50243     50245
     50244     50245     50246     50247     50246     50248     50247     50248
     50249     50250     50249     50251     50250     50251     50252     50253
     50252     50254     50253     50254     50255     50256     50255     50257
     50256     50257     50258     50259     50258     50260     50259     50260
     50261     50262     50261     50263     50262     50263     50264     50265
     50264     50266     50265     50266     50267     50268     50267     50269
     50268     50269     50270     50271     50270     50272     50271     50272
     50273     50274     50273     50275     50274     50275     50276     50277
     50276     50278     50277     50278     50279     50280     50279     50281
     50280     50281     50282     50283     50282     50284     50283     50284
     50285     50286     50285     50287     50286     50287     50288     50289
     50288     50290     50289     50290     50291     50292     50291     50293
     50292     50293     50294     50295     50294     50296     50295     50296
     50297     50298     50297     50299     50298     50299     50300     50301
     50300     50302     50301     50302     50303     50304     50303     50305
     50304     50305     50306     50307     50306     50308     50307     50308
     50309     50310     50309     50311     50310     50311     50312     50313
     50312     50314     50313     50314     50315     50316     50315     50317
     50316     50317     50318     50319     50318     50320     50319     50320
     50321     50322     50321     50323     50322     50323     50324     50325
     50324     50326     50325     50326     50327     50328     50327     50329
     50328     50329     50330     50331     50330     50332     50331     50332
     50333     50334     50333     50335     50334     50335     50336     50337
     50336     50338     50337     50338     50339     50340     50339     50341
     50340     50341     50342     50343     50342     50344     50343     50344
     50345     50346     50345     50347     50346     50347     50348     50349
     50348     50350     50349     50350     50351     50352     50351     50353
     50352     50353     50354     50355     50354     50356     50355     50356
     50357     50358     50357     50359     50358     50359     50360     50361
     50360     50362     50361     50362     50363     50364     50363     50365
     50364     50365     50366     50367     50366     50368     50367     50368
     50369     50370     50369     50371     50370     50371     50372     50373
     50372     50374     50373     50374     50375     50376     50375     50377
     50376     50377     50378     50379     50378     50380     50379     50380
     50381     50382     50381     50383     50382     50383     50384     50385
     50384     50386     50385     50386     50387     50388     50387     50389
     50388     50389     50390     50391     50390     50392     50391     50392
     50393     50394     50393     50395     50394     50395     50396     50397
     50396     50398     50397     50398     50399     50400     50399     50401
     50400     50401     50402     50403     50402     50404     50403     50404
     50405     50406     50405     50407     50406     50407     50408     50409
     50408     50410     50409     50410     50411     50412     50411     50413
     50412     50413     50414     50415     50414     50416     50415     50416
     50417     50418     50417     50419     50418     50419     50420     50421
     50420     50422     50421     50422     50423     50424     50423     50425
     50424     50425     50426     50427     50426     50428     50427     50428
     50429     50430     50429     50431     50430     50431     50432     50433
     50432     50434     50433     50434     50435     50436     50435     50437
     50436     50437     50438     50439     50438     50440     50439     50440
     50441     50442     50441     50443     50442     50443     50444     50445
     50444     50446     50445     50446     50447     50448     50447     50449
     50448     50449     50450     50451     50450     50452     50451     50452
     50453     50454     50453     50455     50454     50455     50456     50457
     50456     50458     50457     50458     50459     50460     50459     50461
     50460     50461     50462     50463     50462     50464     50463     50464
     50465     50466     50465     50467     50466     50467     50468     50469
     50468     50470     50469     50470     50471     50472     50471     50473
     50472     50473     50474     50475     50474     50476     50475     50476
     50477     50478     50477     50479     50478     50479     50480     50481
     50480     50482     50481     50482     50483     50484     50483     50485
     50484     50485     50486     50487     50486     50488     50487     50488
     50489     50490     50489     50491     50490     50491     50492     50493
     50492     50494     50493     50494     50495     50496     50495     50497
     50496     50497     50498     50499     50498     50500     50499     50500
     50501     50502     50501     50503     50502     50503     50504     50505
     50504     50506     50505     50506     50507     50508     50507     50509
     50508     50509     50510     50511     50510     50512     50511     50512
     50513     50514     50513     50515     50514     50515     50516     50517
     50516     50518     50517     50518     50519     50520     50519     50521
     50520     50521     50522     50523     50522     50524     50523     50524
     50525     50526     50525     50527     50526     50527     50528     50529
     50528     50530     50529     50530     50531     50532     50531     50533
     50532     50533     50534     50535     50534     50536     50535     50536
     50537     50538     50537     50539     50538     50539     50540     50541
     50540     50542     50541     50542     50543     50544     50543     50545
     50544     50545     50546     50547     50546     50548     50547     50548
     50549     50550     50549     50551     50550     50551     50552     50553
     50552     50554     50553     50554     50555     50556     50555     50557
     50556     50557     50558     50559     50558     50560     50559     50560
     50561     50562     50561     50563     50562     50563     50564     50565
     50564     50566     50565     50566     50567     50568     50567     50569
     50568     50569     50570     50571     50570     50572     50571     50572
     50573     50574     50573     50575     50574     50575     50576     50577
     50576     50578     50577     50578     50579     50580     50579     50581
     50580     50581     50582     50583     50582     50584     50583     50584
     50585     50586     50585     50587     50586     50587     50588     50589
     50588     50590     50589     50590     50591     50592     50591     50593
     50592     50593     50594     50595     50594     50596     50595     50596
     50597     50598     50597     50599     50598     50599     50600     50601
     50600     50602     50601     50602     50603     50604     50603     50605
     50604     50605     50606     50607     50606     50608     50607     50608
     50609     50610     50609     50611     50610     50611     50612     50613
     50612     50614     50613     50614     50615     50616     50615     50617
     50616     50617     50618     50619     50618     50620     50619     50620
     50621     50622     50621     50623     50622     50623     50624     50625
     50624     50626     50625     50626     50627     50628     50627     50629
     50628     50629     50630     50631     50630     50632     50631     50632
     50633     50634     50633     50635     50634     50635     50636     50637
     50636     50638     50637     50638     50639     50640     50639     50641
     50640     50641     50642     50643     50642     50644     50643     50644
     50645     50646     50645     50647     50646     50647     50648     50649
     50648     50650     50649     50650     50651     50652     50651     50653
     50652     50653     50654     50655     50654     50656     50655     50656
     50657     50658     50657     50659     50658     50659     50660     50661
     50660     50662     50661     50662     50663     50664     50663     50665
     50664     50665     50666     50667     50666     50668     50667     50668
     50669     50670     50669     50671     50670     50671     50672     50673
     50672     50674     50673     50674     50675     50676     50675     50677
     50676     50677     50678     50679     50678     50680     50679     50680
     50681     50682     50681     50683     50682     50683     50684     50685
     50684     50686     50685     50686     50687     50688     50687     50689
     50688     50689     50690     50691     50690     50692     50691     50692
     50693     50694     50693     50695     50694     50695     50696     50697
     50696     50698     50697     50698     50699     50700     50699     50701
     50700     50701     50702     50703     50702     50704     50703     50704
     50705     50706     50705     50707     50706     50707     50708     50709
     50708     50710     50709     50710     50711     50712     50711     50713
     50712     50713     50714     50715     50714     50716     50715     50716
     50717     50718     50717     50719     50718     50719     50720     50721
     50720     50722     50721     50722     50723     50724     50723     50725
     50724     50725     50726     50727     50726     50728     50727     50728
     50729     50730     50729     50731     50730     50731     50732     50733
     50732     50734     50733     50734     50735     50736     50735     50737
     50736     50737     50738     50739     50738     50740     50739     50740
     50741     50742     50741     50743     50742     50743     50744     50745
     50744     50746     50745     50746     50747     50748     50747     50749
     50748     50749     50750     50751     50750     50752     50751     50752
     50753     50754     50753     50755     50754     50755     50756     50757
     50756     50758     50757     50758     50759     50760     50759     50761
     50760     50761     50762     50763     50762     50764     50763     50764
     50765     50766     50765     50767     50766     50767     50768     50769
     50768     50770     50769     50770     50771     50772     50771     50773
     50772     50773     50774     50775     50774     50776     50775     50776
     50777     50778     50777     50779     50778     50779     50780     50781
     50780     50782     50781     50782     50783     50784     50783     50785
     50784     50785     50786     50787     50786     50788     50787     50788
     50789     50790     50789     50791     50790     50791     50792     50793
     50792     50794     50793     50794     50795     50796     50795     50797
     50796     50797     50798     50799     50798     50800     50799     50800
     50801     50802     50801     50803     50802     50803     50804     50805
     50804     50806     50805     50806     50807     50808     50807     50809
     50808     50809     50810     50811     50810     50812     50811     50812
     50813     50814     50813     50815     50814     50815     50816     50817
     50816     50818     50817     50818     50819     50820     50819     50821
     50820     50821     50822     50823     50822     50824     50823     50824
     50825     50826     50825     50827     50826     50827     50828     50829
     50828     50830     50829     50830     50831     50832     50831     50833
     50832     50833     50834     50835     50834     50836     50835     50836
     50837     50838     50837     50839     50838     50839     50840     50841
     50840     50842     50841     50842     50843     50844     50843     50845
     50844     50845     50846     50847     50846     50848     50847     50848
     50849     50850     50849     50851     50850     50851     50852     50853
     50852     50854     50853     50854     50855     50856     50855     50857
     50856     50857     50858     50859     50858     50860     50859     50860
     50861     50862     50861     50863     50862     50863     50864     50865
     50864     50866     50865     50866     50867     50868     50867     50869
     50868     50869     50870     50871     50870     50872     50871     50872
     50873     50874     50873     50875     50874     50875     50876     50877
     50876     50878     50877     50878     50879     50880     50879     50881
     50880     50881     50882     50883     50882     50884     50883     50884
     50885     50886     50885     50887     50886     50887     50888     50889
     50888     50890     50889     50890     50891     50892     50891     50893
     50892     50893     50894     50895     50894     50896     50895     50896
     50897     50898     50897     50899     50898     50899     50900     50901
     50900     50902     50901     50902     50903     50904     50903     50905
     50904     50905     50906     50907     50906     50908     50907     50908
     50909     50910     50909     50911     50910     50911     50912     50913
     50912     50914     50913     50914     50915     50916     50915     50917
     50916     50917     50918     50919     50918     50920     50919     50920
     50921     50922     50921     50923     50922     50923     50924     50925
     50924     50926     50925     50926     50927     50928     50927     50929
     50928     50929     50930     50931     50930     50932     50931     50932
     50933     50934     50933     50935     50934     50935     50936     50937
     50936     50938     50937     50938     50939     50940     50939     50941
     50940     50941     50942     50943     50942     50944     50943     50944
     50945     50946     50945     50947     50946     50947     50948     50949
     50948     50950     50949     50950     50951     50952     50951     50953
     50952     50953     50954     50955     50954     50956     50955     50956
     50957     50958     50957     50959     50958     50959     50960     50961
     50960     50962     50961     50962     50963     50964     50963     50965
     50964     50965     50966     50967     50966     50968     50967     50968
     50969     50970     50969     50971     50970     50971     50972     50973
     50972     50974     50973     50974     50975     50976     50975     50977
     50976     50977     50978     50979     50978     50980     50979     50980
     50981     50982     50981     50983     50982     50983     50984     50985
     50984     50986     50985     50986     50987     50988     50987     50989
     50988     50989     50990     50991     50990     50992     50991     50992
     50993     50994     50993     50995     50994     50995     50996     50997
     50996     50998     50997     50998     50999     51000     50999     51001
     51000     51001     51002     51003     51002     51004     51003     51004
     51005     51006     51005     51007     51006     51007     51008     51009
     51008     51010     51009     51010     51011     51012     51011     51013
     51012     51013     51014     51015     51014     51016     51015     51016
     51017     51018     51017     51019     51018     51019     51020     51021
     51020     51022     51021     51022     51023     51024     51023     51025
     51024     51025     51026     51027     51026     51028     51027     51028
     51029     51030     51029     51031     51030     51031     51032     51033
     51032     51034     51033     51034     51035     51036     51035     51037
     51036     51037     51038     51039     51038     51040     51039     51040
     51041     51042     51041     51043     51042     51043     51044     51045
     51044     51046     51045     51046     51047     51048     51047     51049
     51048     51049     51050     51051     51050     51052     51051     51052
     51053     51054     51053     51055     51054     51055     51056     51057
     51056     51058     51057     51058     51059     51060     51059     51061
     51060     51061     51062     51063     51062     51064     51063     51064
     51065     51066     51065     51067     51066     51067     51068     51069
     51068     51070     51069     51070     51071     51072     51071     51073
     51072     51073     51074     51075     51074     51076     51075     51076
     51077     51078     51077     51079     51078     51079     51080     51081
     51080     51082     51081     51082     51083     51084     51083     51085
     51084     51085     51086     51087     51086     51088     51087     51088
     51089     51090     51089     51091     51090     51091     51092     51093
     51092     51094     51093     51094     51095     51096     51095     51097
     51096     51097     51098     51099     51098     51100     51099     51100
     51101     51102     51101     51103     51102     51103     51104     51105
     51104     51106     51105     51106     51107     51108     51107     51109
     51108     51109     51110     51111     51110     51112     51111     51112
     51113     51114     51113     51115     51114     51115     51116     51117
     51116     51118     51117     51118     51119     51120     51119     51121
     51120     51121     51122     51123     51122     51124     51123     51124
     51125     51126     51125     51127     51126     51127     51128     51129
     51128     51130     51129     51130     51131     51132     51131     51133
     51132     51133     51134     51135     51134     51136     51135     51136
     51137     51138     51137     51139     51138     51139     51140     51141
     51140     51142     51141     51142     51143     51144     51143     51145
     51144     51145     51146     51147     51146     51148     51147     51148
     51149     51150     51149     51151     51150     51151     51152     51153
     51152     51154     51153     51154     51155     51156     51155     51157
     51156     51157     51158     51159     51158     51160     51159     51160
     51161     51162     51161     51163     51162     51163     51164     51165
     51164     51166     51165     51166     51167     51168     51167     51169
     51168     51169     51170     51171     51170     51172     51171     51172
     51173     51174     51173     51175     51174     51175     51176     51177
     51176     51178     51177     51178     51179     51180     51179     51181
     51180     51181     51182     51183     51182     51184     51183     51184
     51185     51186     51185     51187     51186     51187     51188     51189
     51188     51190     51189     51190     51191     51192     51191     51193
     51192     51193     51194     51195     51194     51196     51195     51196
     51197     51198     51197     51199     51198     51199     51200     51201
     51200     51202     51201     51202     51203     51204     51203     51205
     51204     51205     51206     51207     51206     51208     51207     51208
     51209     51210     51209     51211     51210     51211     51212     51213
     51212     51214     51213     51214     51215     51216     51215     51217
     51216     51217     51218     51219     51218     51220     51219     51220
     51221     51222     51221     51223     51222     51223     51224     51225
     51224     51226     51225     51226     51227     51228     51227     51229
     51228     51229     51230     51231     51230     51232     51231     51232
     51233     51234     51233     51235     51234     51235     51236     51237
     51236     51238     51237     51238     51239     51240     51239     51241
     51240     51241     51242     51243     51242     51244     51243     51244
     51245     51246     51245     51247     51246     51247     51248     51249
     51248     51250     51249     51250     51251     51252     51251     51253
     51252     51253     51254     51255     51254     51256     51255     51256
     51257     51258     51257     51259     51258     51259     51260     51261
     51260     51262     51261     51262     51263     51264     51263     51265
     51264     51265     51266     51267     51266     51268     51267     51268
     51269     51270     51269     51271     51270     51271     51272     51273
     51272     51274     51273     51274     51275     51276     51275     51277
     51276     51277     51278     51279     51278     51280     51279     51280
     51281     51282     51281     51283     51282     51283     51284     51285
     51284     51286     51285     51286     51287     51288     51287     51289
     51288     51289     51290     51291     51290     51292     51291     51292
     51293     51294     51293     51295     51294     51295     51296     51297
     51296     51298     51297     51298     51299     51300     51299     51301
     51300     51301     51302     51303     51302     51304     51303     51304
     51305     51306     51305     51307     51306     51307     51308     51309
     51308     51310     51309     51310     51311     51312     51311     51313
     51312     51313     51314     51315     51314     51316     51315     51316
     51317     51318     51317     51319     51318     51319     51320     51321
     51320     51322     51321     51322     51323     51324     51323     51325
     51324     51325     51326     51327     51326     51328     51327     51328
     51329     51330     51329     51331     51330     51331     51332     51333
     51332     51334     51333     51334     51335     51336     51335     51337
     51336     51337     51338     51339     51338     51340     51339     51340
     51341     51342     51341     51343     51342     51343     51344     51345
     51344     51346     51345     51346     51347     51348     51347     51349
     51348     51349     51350     51351     51350     51352     51351     51352
     51353     51354     51353     51355     51354     51355     51356     51357
     51356     51358     51357     51358     51359     51360     51359     51361
     51360     51361     51362     51363     51362     51364     51363     51364
     51365     51366     51365     51367     51366     51367     51368     51369
     51368     51370     51369     51370     51371     51372     51371     51373
     51372     51373     51374     51375     51374     51376     51375     51376
     51377     51378     51377     51379     51378     51379     51380     51381
     51380     51382     51381     51382     51383     51384     51383     51385
     51384     51385     51386     51387     51386     51388     51387     51388
     51389     51390     51389     51391     51390     51391     51392     51393
     51392     51394     51393     51394     51395     51396     51395     51397
     51396     51397     51398     51399     51398     51400     51399     51400
     51401     51402     51401     51403     51402     51403     51404     51405
     51404     51406     51405     51406     51407     51408     51407     51409
     51408     51409     51410     51411     51410     51412     51411     51412
     51413     51414     51413     51415     51414     51415     51416     51417
     51416     51418     51417     51418     51419     51420     51419     51421
     51420     51421     51422     51423     51422     51424     51423     51424
     51425     51426     51425     51427     51426     51427     51428     51429
     51428     51430     51429     51430     51431     51432     51431     51433
     51432     51433     51434     51435     51434     51436     51435     51436
     51437     51438     51437     51439     51438     51439     51440     51441
     51440     51442     51441     51442     51443     51444     51443     51445
     51444     51445     51446     51447     51446     51448     51447     51448
     51449     51450     51449     51451     51450     51451     51452     51453
     51452     51454     51453     51454     51455     51456     51455     51457
     51456     51457     51458     51459     51458     51460     51459     51460
     51461     51462     51461     51463     51462     51463     51464     51465
     51464     51466     51465     51466     51467     51468     51467     51469
     51468     51469     51470     51471     51470     51472     51471     51472
     51473     51474     51473     51475     51474     51475     51476     51477
     51476     51478     51477     51478     51479     51480     51479     51481
     51480     51481     51482     51483     51482     51484     51483     51484
     51485     51486     51485     51487     51486     51487     51488     51489
     51488     51490     51489     51490     51491     51492     51491     51493
     51492     51493     51494     51495     51494     51496     51495     51496
     51497     51498     51497     51499     51498     51499     51500     51501
     51500     51502     51501     51502     51503     51504     51503     51505
     51504     51505     51506     51507     51506     51508     51507     51508
     51509     51510     51509     51511     51510     51511     51512     51513
     51512     51514     51513     51514     51515     51516     51515     51517
     51516     51517     51518     51519     51518     51520     51519     51520
     51521     51522     51521     51523     51522     51523     51524     51525
     51524     51526     51525     51526     51527     51528     51527     51529
     51528     51529     51530     51531     51530     51532     51531     51532
     51533     51534     51533     51535     51534     51535     51536     51537
     51536     51538     51537     51538     51539     51540     51539     51541
     51540     51541     51542     51543     51542     51544     51543     51544
     51545     51546     51545     51547     51546     51547     51548     51549
     51548     51550     51549     51550     51551     51552     51551     51553
     51552     51553     51554     51555     51554     51556     51555     51556
     51557     51558     51557     51559     51558     51559     51560     51561
     51560     51562     51561     51562     51563     51564     51563     51565
     51564     51565     51566     51567     51566     51568     51567     51568
     51569     51570     51569     51571     51570     51571     51572     51573
     51572     51574     51573     51574     51575     51576     51575     51577
     51576     51577     51578     51579     51578     51580     51579     51580
     51581     51582     51581     51583     51582     51583     51584     51585
     51584     51586     51585     51586     51587     51588     51587     51589
     51588     51589     51590     51591     51590     51592     51591     51592
     51593     51594     51593     51595     51594     51595     51596     51597
     51596     51598     51597     51598     51599     51600     51599     51601
     51600     51601     51602     51603     51602     51604     51603     51604
     51605     51606     51605     51607     51606     51607     51608     51609
     51608     51610     51609     51610     51611     51612     51611     51613
     51612     51613     51614     51615     51614     51616     51615     51616
     51617     51618     51617     51619     51618     51619     51620     51621
     51620     51622     51621     51622     51623     51624     51623     51625
     51624     51625     51626     51627     51626     51628     51627     51628
     51629     51630     51629     51631     51630     51631     51632     51633
     51632     51634     51633     51634     51635     51636     51635     51637
     51636     51637     51638     51639     51638     51640     51639     51640
     51641     51642     51641     51643     51642     51643     51644     51645
     51644     51646     51645     51646     51647     51648     51647     51649
     51648     51649     51650     51651     51650     51652     51651     51652
     51653     51654     51653     51655     51654     51655     51656     51657
     51656     51658     51657     51658     51659     51660     51659     51661
     51660     51661     51662     51663     51662     51664     51663     51664
     51665     51666     51665     51667     51666     51667     51668     51669
     51668     51670     51669     51670     51671     51672     51671     51673
     51672     51673     51674     51675     51674     51676     51675     51676
     51677     51678     51677     51679     51678     51679     51680     51681
     51680     51682     51681     51682     51683     51684     51683     51685
     51684     51685     51686     51687     51686     51688     51687     51688
     51689     51690     51689     51691     51690     51691     51692     51693
     51692     51694     51693     51694     51695     51696     51695     51697
     51696     51697     51698     51699     51698     51700     51699     51700
     51701     51702     51701     51703     51702     51703     51704     51705
     51704     51706     51705     51706     51707     51708     51707     51709
     51708     51709     51710     51711     51710     51712     51711     51712
     51713     51714     51713     51715     51714     51715     51716     51717
     51716     51718     51717     51718     51719     51720     51719     51721
     51720     51721     51722     51723     51722     51724     51723     51724
     51725     51726     51725     51727     51726     51727     51728     51729
     51728     51730     51729     51730     51731     51732     51731     51733
     51732     51733     51734     51735     51734     51736     51735     51736
     51737     51738     51737     51739     51738     51739     51740     51741
     51740     51742     51741     51742     51743     51744     51743     51745
     51744     51745     51746     51747     51746     51748     51747     51748
     51749     51750     51749     51751     51750     51751     51752     51753
     51752     51754     51753     51754     51755     51756     51755     51757
     51756     51757     51758     51759     51758     51760     51759     51760
     51761     51762     51761     51763     51762     51763     51764     51765
     51764     51766     51765     51766     51767     51768     51767     51769
     51768     51769     51770     51771     51770     51772     51771     51772
     51773     51774     51773     51775     51774     51775     51776     51777
     51776     51778     51777     51778     51779     51780     51779     51781
     51780     51781     51782     51783     51782     51784     51783     51784
     51785     51786     51785     51787     51786     51787     51788     51789
     51788     51790     51789     51790     51791     51792     51791     51793
     51792     51793     51794     51795     51794     51796     51795     51796
     51797     51798     51797     51799     51798     51799     51800     51801
     51800     51802     51801     51802     51803     51804     51803     51805
     51804     51805     51806     51807     51806     51808     51807     51808
     51809     51810     51809     51811     51810     51811     51812     51813
     51812     51814     51813     51814     51815     51816     51815     51817
     51816     51817     51818     51819     51818     51820     51819     51820
     51821     51822     51821     51823     51822     51823     51824     51825
     51824     51826     51825     51826     51827     51828     51827     51829
     51828     51829     51830     51831     51830     51832     51831     51832
     51833     51834     51833     51835     51834     51835     51836     51837
     51836     51838     51837     51838     51839     51840     51839     51841
     51840     51841     51842     51843     51842     51844     51843     51844
     51845     51846     51845     51847     51846     51847     51848     51849
     51848     51850     51849     51850     51851     51852     51851     51853
     51852     51853     51854     51855     51854     51856     51855     51856
     51857     51858     51857     51859     51858     51859     51860     51861
     51860     51862     51861     51862     51863     51864     51863     51865
     51864     51865     51866     51867     51866     51868     51867     51868
     51869     51870     51869     51871     51870     51871     51872     51873
     51872     51874     51873     51874     51875     51876     51875     51877
     51876     51877     51878     51879     51878     51880     51879     51880
     51881     51882     51881     51883     51882     51883     51884     51885
     51884     51886     51885     51886     51887     51888     51887     51889
     51888     51889     51890     51891     51890     51892     51891     51892
     51893     51894     51893     51895     51894     51895     51896     51897
     51896     51898     51897     51898     51899     51900     51899     51901
     51900     51901     51902     51903     51902     51904     51903     51904
     51905     51906     51905     51907     51906     51907     51908     51909
     51908     51910     51909     51910     51911     51912     51911     51913
     51912     51913     51914     51915     51914     51916     51915     51916
     51917     51918     51917     51919     51918     51919     51920     51921
     51920     51922     51921     51922     51923     51924     51923     51925
     51924     51925     51926     51927     51926     51928     51927     51928
     51929     51930     51929     51931     51930     51931     51932     51933
     51932     51934     51933     51934     51935     51936     51935     51937
     51936     51937     51938     51939     51938     51940     51939     51940
     51941     51942     51941     51943     51942     51943     51944     51945
     51944     51946     51945     51946     51947     51948     51947     51949
     51948     51949     51950     51951     51950     51952     51951     51952
     51953     51954     51953     51955     51954     51955     51956     51957
     51956     51958     51957     51958     51959     51960     51959     51961
     51960     51961     51962     51963     51962     51964     51963     51964
     51965     51966     51965     51967     51966     51967     51968     51969
     51968     51970     51969     51970     51971     51972     51971     51973
     51972     51973     51974     51975     51974     51976     51975     51976
     51977     51978     51977     51979     51978     51979     51980     51981
     51980     51982     51981     51982     51983     51984     51983     51985
     51984     51985     51986     51987     51986     51988     51987     51988
     51989     51990     51989     51991     51990     51991     51992     51993
     51992     51994     51993     51994     51995     51996     51995     51997
     51996     51997     51998     51999     51998     52000     51999     52000
     52001     52002     52001     52003     52002     52003     52004     52005
     52004     52006     52005     52006     52007     52008     52007     52009
     52008     52009     52010     52011     52010     52012     52011     52012
     52013     52014     52013     52015     52014     52015     52016     52017
     52016     52018     52017     52018     52019     52020     52019     52021
     52020     52021     52022     52023     52022     52024     52023     52024
     52025     52026     52025     52027     52026     52027     52028     52029
     52028     52030     52029     52030     52031     52032     52031     52033
     52032     52033     52034     52035     52034     52036     52035     52036
     52037     52038     52037     52039     52038     52039     52040     52041
     52040     52042     52041     52042     52043     52044     52043     52045
     52044     52045     52046     52047     52046     52048     52047     52048
     52049     52050     52049     52051     52050     52051     52052     52053
     52052     52054     52053     52054     52055     52056     52055     52057
     52056     52057     52058     52059     52058     52060     52059     52060
     52061     52062     52061     52063     52062     52063     52064     52065
     52064     52066     52065     52066     52067     52068     52067     52069
     52068     52069     52070     52071     52070     52072     52071     52072
     52073     52074     52073     52075     52074     52075     52076     52077
     52076     52078     52077     52078     52079     52080     52079     52081
     52080     52081     52082     52083     52082     52084     52083     52084
     52085     52086     52085     52087     52086     52087     52088     52089
     52088     52090     52089     52090     52091     52092     52091     52093
     52092     52093     52094     52095     52094     52096     52095     52096
     52097     52098     52097     52099     52098     52099     52100     52101
     52100     52102     52101     52102     52103     52104     52103     52105
     52104     52105     52106     52107     52106     52108     52107     52108
     52109     52110     52109     52111     52110     52111     52112     52113
     52112     52114     52113     52114     52115     52116     52115     52117
     52116     52117     52118     52119     52118     52120     52119     52120
     52121     52122     52121     52123     52122     52123     52124     52125
     52124     52126     52125     52126     52127     52128     52127     52129
     52128     52129     52130     52131     52130     52132     52131     52132
     52133     52134     52133     52135     52134     52135     52136     52137
     52136     52138     52137     52138     52139     52140     52139     52141
     52140     52141     52142     52143     52142     52144     52143     52144
     52145     52146     52145     52147     52146     52147     52148     52149
     52148     52150     52149     52150     52151     52152     52151     52153
     52152     52153     52154     52155     52154     52156     52155     52156
     52157     52158     52157     52159     52158     52159     52160     52161
     52160     52162     52161     52162     52163     52164     52163     52165
     52164     52165     52166     52167     52166     52168     52167     52168
     52169     52170     52169     52171     52170     52171     52172     52173
     52172     52174     52173     52174     52175     52176     52175     52177
     52176     52177     52178     52179     52178     52180     52179     52180
     52181     52182     52181     52183     52182     52183     52184     52185
     52184     52186     52185     52186     52187     52188     52187     52189
     52188     52189     52190     52191     52190     52192     52191     52192
     52193     52194     52193     52195     52194     52195     52196     52197
     52196     52198     52197     52198     52199     52200     52199     52201
     52200     52201     52202     52203     52202     52204     52203     52204
     52205     52206     52205     52207     52206     52207     52208     52209
     52208     52210     52209     52210     52211     52212     52211     52213
     52212     52213     52214     52215     52214     52216     52215     52216
     52217     52218     52217     52219     52218     52219     52220     52221
     52220     52222     52221     52222     52223     52224     52223     52225
     52224     52225     52226     52227     52226     52228     52227     52228
     52229     52230     52229     52231     52230     52231     52232     52233
     52232     52234     52233     52234     52235     52236     52235     52237
     52236     52237     52238     52239     52238     52240     52239     52240
     52241     52242     52241     52243     52242     52243     52244     52245
     52244     52246     52245     52246     52247     52248     52247     52249
     52248     52249     52250     52251     52250     52252     52251     52252
     52253     52254     52253     52255     52254     52255     52256     52257
     52256     52258     52257     52258     52259     52260     52259     52261
     52260     52261     52262     52263     52262     52264     52263     52264
     52265     52266     52265     52267     52266     52267     52268     52269
     52268     52270     52269     52270     52271     52272     52271     52273
     52272     52273     52274     52275     52274     52276     52275     52276
     52277     52278     52277     52279     52278     52279     52280     52281
     52280     52282     52281     52282     52283     52284     52283     52285
     52284     52285     52286     52287     52286     52288     52287     52288
     52289     52290     52289     52291     52290     52291     52292     52293
     52292     52294     52293     52294     52295     52296     52295     52297
     52296     52297     52298     52299     52298     52300     52299     52300
     52301     52302     52301     52303     52302     52303     52304     52305
     52304     52306     52305     52306     52307     52308     52307     52309
     52308     52309     52310     52311     52310     52312     52311     52312
     52313     52314     52313     52315     52314     52315     52316     52317
     52316     52318     52317     52318     52319     52320     52319     52321
     52320     52321     52322     52323     52322     52324     52323     52324
     52325     52326     52325     52327     52326     52327     52328     52329
     52328     52330     52329     52330     52331     52332     52331     52333
     52332     52333     52334     52335     52334     52336     52335     52336
     52337     52338     52337     52339     52338     52339     52340     52341
     52340     52342     52341     52342     52343     52344     52343     52345
     52344     52345     52346     52347     52346     52348     52347     52348
     52349     52350     52349     52351     52350     52351     52352     52353
     52352     52354     52353     52354     52355     52356     52355     52357
     52356     52357     52358     52359     52358     52360     52359     52360
     52361     52362     52361     52363     52362     52363     52364     52365
     52364     52366     52365     52366     52367     52368     52367     52369
     52368     52369     52370     52371     52370     52372     52371     52372
     52373     52374     52373     52375     52374     52375     52376     52377
     52376     52378     52377     52378     52379     52380     52379     52381
     52380     52381     52382     52383     52382     52384     52383     52384
     52385     52386     52385     52387     52386     52387     52388     52389
     52388     52390     52389     52390     52391     52392     52391     52393
     52392     52393     52394     52395     52394     52396     52395     52396
     52397     52398     52397     52399     52398     52399     52400     52401
     52400     52402     52401     52402     52403     52404     52403     52405
     52404     52405     52406     52407     52406     52408     52407     52408
     52409     52410     52409     52411     52410     52411     52412     52413
     52412     52414     52413     52414     52415     52416     52415     52417
     52416     52417     52418     52419     52418     52420     52419     52420
     52421     52422     52421     52423     52422     52423     52424     52425
     52424     52426     52425     52426     52427     52428     52427     52429
     52428     52429     52430     52431     52430     52432     52431     52432
     52433     52434     52433     52435     52434     52435     52436     52437
     52436     52438     52437     52438     52439     52440     52439     52441
     52440     52441     52442     52443     52442     52444     52443     52444
     52445     52446     52445     52447     52446     52447     52448     52449
     52448     52450     52449     52450     52451     52452     52451     52453
     52452     52453     52454     52455     52454     52456     52455     52456
     52457     52458     52457     52459     52458     52459     52460     52461
     52460     52462     52461     52462     52463     52464     52463     52465
     52464     52465     52466     52467     52466     52468     52467     52468
     52469     52470     52469     52471     52470     52471     52472     52473
     52472     52474     52473     52474     52475     52476     52475     52477
     52476     52477     52478     52479     52478     52480     52479     52480
     52481     52482     52481     52483     52482     52483     52484     52485
     52484     52486     52485     52486     52487     52488     52487     52489
     52488     52489     52490     52491     52490     52492     52491     52492
     52493     52494     52493     52495     52494     52495     52496     52497
     52496     52498     52497     52498     52499     52500     52499     52501
     52500     52501     52502     52503     52502     52504     52503     52504
     52505     52506     52505     52507     52506     52507     52508     52509
     52508     52510     52509     52510     52511     52512     52511     52513
     52512     52513     52514     52515     52514     52516     52515     52516
     52517     52518     52517     52519     52518     52519     52520     52521
     52520     52522     52521     52522     52523     52524     52523     52525
     52524     52525     52526     52527     52526     52528     52527     52528
     52529     52530     52529     52531     52530     52531     52532     52533
     52532     52534     52533     52534     52535     52536     52535     52537
     52536     52537     52538     52539     52538     52540     52539     52540
     52541     52542     52541     52543     52542     52543     52544     52545
     52544     52546     52545     52546     52547     52548     52547     52549
     52548     52549     52550     52551     52550     52552     52551     52552
     52553     52554     52553     52555     52554     52555     52556     52557
     52556     52558     52557     52558     52559     52560     52559     52561
     52560     52561     52562     52563     52562     52564     52563     52564
     52565     52566     52565     52567     52566     52567     52568     52569
     52568     52570     52569     52570     52571     52572     52571     52573
     52572     52573     52574     52575     52574     52576     52575     52576
     52577     52578     52577     52579     52578     52579     52580     52581
     52580     52582     52581     52582     52583     52584     52583     52585
     52584     52585     52586     52587     52586     52588     52587     52588
     52589     52590     52589     52591     52590     52591     52592     52593
     52592     52594     52593     52594     52595     52596     52595     52597
     52596     52597     52598     52599     52598     52600     52599     52600
     52601     52602     52601     52603     52602     52603     52604     52605
     52604     52606     52605     52606     52607     52608     52607     52609
     52608     52609     52610     52611     52610     52612     52611     52612
     52613     52614     52613     52615     52614     52615     52616     52617
     52616     52618     52617     52618     52619     52620     52619     52621
     52620     52621     52622     52623     52622     52624     52623     52624
     52625     52626     52625     52627     52626     52627     52628     52629
     52628     52630     52629     52630     52631     52632     52631     52633
     52632     52633     52634     52635     52634     52636     52635     52636
     52637     52638     52637     52639     52638     52639     52640     52641
     52640     52642     52641     52642     52643     52644     52643     52645
     52644     52645     52646     52647     52646     52648     52647     52648
     52649     52650     52649     52651     52650     52651     52652     52653
     52652     52654     52653     52654     52655     52656     52655     52657
     52656     52657     52658     52659     52658     52660     52659     52660
     52661     52662     52661     52663     52662     52663     52664     52665
     52664     52666     52665     52666     52667     52668     52667     52669
     52668     52669     52670     52671     52670     52672     52671     52672
     52673     52674     52673     52675     52674     52675     52676     52677
     52676     52678     52677     52678     52679     52680     52679     52681
     52680     52681     52682     52683     52682     52684     52683     52684
     52685     52686     52685     52687     52686     52687     52688     52689
     52688     52690     52689     52690     52691     52692     52691     52693
     52692     52693     52694     52695     52694     52696     52695     52696
     52697     52698     52697     52699     52698     52699     52700     52701
     52700     52702     52701     52702     52703     52704     52703     52705
     52704     52705     52706     52707     52706     52708     52707     52708
     52709     52710     52709     52711     52710     52711     52712     52713
     52712     52714     52713     52714     52715     52716     52715     52717
     52716     52717     52718     52719     52718     52720     52719     52720
     52721     52722     52721     52723     52722     52723     52724     52725
     52724     52726     52725     52726     52727     52728     52727     52729
     52728     52729     52730     52731     52730     52732     52731     52732
     52733     52734     52733     52735     52734     52735     52736     52737
     52736     52738     52737     52738     52739     52740     52739     52741
     52740     52741     52742     52743     52742     52744     52743     52744
     52745     52746     52745     52747     52746     52747     52748     52749
     52748     52750     52749     52750     52751     52752     52751     52753
     52752     52753     52754     52755     52754     52756     52755     52756
     52757     52758     52757     52759     52758     52759     52760     52761
     52760     52762     52761     52762     52763     52764     52763     52765
     52764     52765     52766     52767     52766     52768     52767     52768
     52769     52770     52769     52771     52770     52771     52772     52773
     52772     52774     52773     52774     52775     52776     52775     52777
     52776     52777     52778     52779     52778     52780     52779     52780
     52781     52782     52781     52783     52782     52783     52784     52785
     52784     52786     52785     52786     52787     52788     52787     52789
     52788     52789     52790     52791     52790     52792     52791     52792
     52793     52794     52793     52795     52794     52795     52796     52797
     52796     52798     52797     52798     52799     52800     52799     52801
     52800     52801     52802     52803     52802     52804     52803     52804
     52805     52806     52805     52807     52806     52807     52808     52809
     52808     52810     52809     52810     52811     52812     52811     52813
     52812     52813     52814     52815     52814     52816     52815     52816
     52817     52818     52817     52819     52818     52819     52820     52821
     52820     52822     52821     52822     52823     52824     52823     52825
     52824     52825     52826     52827     52826     52828     52827     52828
     52829     52830     52829     52831     52830     52831     52832     52833
     52832     52834     52833     52834     52835     52836     52835     52837
     52836     52837     52838     52839     52838     52840     52839     52840
     52841     52842     52841     52843     52842     52843     52844     52845
     52844     52846     52845     52846     52847     52848     52847     52849
     52848     52849     52850     52851     52850     52852     52851     52852
     52853     52854     52853     52855     52854     52855     52856     52857
     52856     52858     52857     52858     52859     52860     52859     52861
     52860     52861     52862     52863     52862     52864     52863     52864
     52865     52866     52865     52867     52866     52867     52868     52869
     52868     52870     52869     52870     52871     52872     52871     52873
     52872     52873     52874     52875     52874     52876     52875     52876
     52877     52878     52877     52879     52878     52879     52880     52881
     52880     52882     52881     52882     52883     52884     52883     52885
     52884     52885     52886     52887     52886     52888     52887     52888
     52889     52890     52889     52891     52890     52891     52892     52893
     52892     52894     52893     52894     52895     52896     52895     52897
     52896     52897     52898     52899     52898     52900     52899     52900
     52901     52902     52901     52903     52902     52903     52904     52905
     52904     52906     52905     52906     52907     52908     52907     52909
     52908     52909     52910     52911     52910     52912     52911     52912
     52913     52914     52913     52915     52914     52915     52916     52917
     52916     52918     52917     52918     52919     52920     52919     52921
     52920     52921     52922     52923     52922     52924     52923     52924
     52925     52926     52925     52927     52926     52927     52928     52929
     52928     52930     52929     52930     52931     52932     52931     52933
     52932     52933     52934     52935     52934     52936     52935     52936
     52937     52938     52937     52939     52938     52939     52940     52941
     52940     52942     52941     52942     52943     52944     52943     52945
     52944     52945     52946     52947     52946     52948     52947     52948
     52949     52950     52949     52951     52950     52951     52952     52953
     52952     52954     52953     52954     52955     52956     52955     52957
     52956     52957     52958     52959     52958     52960     52959     52960
     52961     52962     52961     52963     52962     52963     52964     52965
     52964     52966     52965     52966     52967     52968     52967     52969
     52968     52969     52970     52971     52970     52972     52971     52972
     52973     52974     52973     52975     52974     52975     52976     52977
     52976     52978     52977     52978     52979     52980     52979     52981
     52980     52981     52982     52983     52982     52984     52983     52984
     52985     52986     52985     52987     52986     52987     52988     52989
     52988     52990     52989     52990     52991     52992     52991     52993
     52992     52993     52994     52995     52994     52996     52995     52996
     52997     52998     52997     52999     52998     52999     53000     53001
     53000     53002     53001     53002     53003     53004     53003     53005
     53004     53005     53006     53007     53006     53008     53007     53008
     53009     53010     53009     53011     53010     53011     53012     53013
     53012     53014     53013     53014     53015     53016     53015     53017
     53016     53017     53018     53019     53018     53020     53019     53020
     53021     53022     53021     53023     53022     53023     53024     53025
     53024     53026     53025     53026     53027     53028     53027     53029
     53028     53029     53030     53031     53030     53032     53031     53032
     53033     53034     53033     53035     53034     53035     53036     53037
     53036     53038     53037     53038     53039     53040     53039     53041
     53040     53041     53042     53043     53042     53044     53043     53044
     53045     53046     53045     53047     53046     53047     53048     53049
     53048     53050     53049     53050     53051     53052     53051     53053
     53052     53053     53054     53055     53054     53056     53055     53056
     53057     53058     53057     53059     53058     53059     53060     53061
     53060     53062     53061     53062     53063     53064     53063     53065
     53064     53065     53066     53067     53066     53068     53067     53068
     53069     53070     53069     53071     53070     53071     53072     53073
     53072     53074     53073     53074     53075     53076     53075     53077
     53076     53077     53078     53079     53078     53080     53079     53080
     53081     53082     53081     53083     53082     53083     53084     53085
     53084     53086     53085     53086     53087     53088     53087     53089
     53088     53089     53090     53091     53090     53092     53091     53092
     53093     53094     53093     53095     53094     53095     53096     53097
     53096     53098     53097     53098     53099     53100     53099     53101
     53100     53101     53102     53103     53102     53104     53103     53104
     53105     53106     53105     53107     53106     53107     53108     53109
     53108     53110     53109     53110     53111     53112     53111     53113
     53112     53113     53114     53115     53114     53116     53115     53116
     53117     53118     53117     53119     53118     53119     53120     53121
     53120     53122     53121     53122     53123     53124     53123     53125
     53124     53125     53126     53127     53126     53128     53127     53128
     53129     53130     53129     53131     53130     53131     53132     53133
     53132     53134     53133     53134     53135     53136     53135     53137
     53136     53137     53138     53139     53138     53140     53139     53140
     53141     53142     53141     53143     53142     53143     53144     53145
     53144     53146     53145     53146     53147     53148     53147     53149
     53148     53149     53150     53151     53150     53152     53151     53152
     53153     53154     53153     53155     53154     53155     53156     53157
     53156     53158     53157     53158     53159     53160     53159     53161
     53160     53161     53162     53163     53162     53164     53163     53164
     53165     53166     53165     53167     53166     53167     53168     53169
     53168     53170     53169     53170     53171     53172     53171     53173
     53172     53173     53174     53175     53174     53176     53175     53176
     53177     53178     53177     53179     53178     53179     53180     53181
     53180     53182     53181     53182     53183     53184     53183     53185
     53184     53185     53186     53187     53186     53188     53187     53188
     53189     53190     53189     53191     53190     53191     53192     53193
     53192     53194     53193     53194     53195     53196     53195     53197
     53196     53197     53198     53199     53198     53200     53199     53200
     53201     53202     53201     53203     53202     53203     53204     53205
     53204     53206     53205     53206     53207     53208     53207     53209
     53208     53209     53210     53211     53210     53212     53211     53212
     53213     53214     53213     53215     53214     53215     53216     53217
     53216     53218     53217     53218     53219     53220     53219     53221
     53220     53221     53222     53223     53222     53224     53223     53224
     53225     53226     53225     53227     53226     53227     53228     53229
     53228     53230     53229     53230     53231     53232     53231     53233
     53232     53233     53234     53235     53234     53236     53235     53236
     53237     53238     53237     53239     53238     53239     53240     53241
     53240     53242     53241     53242     53243     53244     53243     53245
     53244     53245     53246     53247     53246     53248     53247     53248
     53249     53250     53249     53251     53250     53251     53252     53253
     53252     53254     53253     53254     53255     53256     53255     53257
     53256     53257     53258     53259     53258     53260     53259     53260
     53261     53262     53261     53263     53262     53263     53264     53265
     53264     53266     53265     53266     53267     53268     53267     53269
     53268     53269     53270     53271     53270     53272     53271     53272
     53273     53274     53273     53275     53274     53275     53276     53277
     53276     53278     53277     53278     53279     53280     53279     53281
     53280     53281     53282     53283     53282     53284     53283     53284
     53285     53286     53285     53287     53286     53287     53288     53289
     53288     53290     53289     53290     53291     53292     53291     53293
     53292     53293     53294     53295     53294     53296     53295     53296
     53297     53298     53297     53299     53298     53299     53300     53301
     53300     53302     53301     53302     53303     53304     53303     53305
     53304     53305     53306     53307     53306     53308     53307     53308
     53309     53310     53309     53311     53310     53311     53312     53313
     53312     53314     53313     53314     53315     53316     53315     53317
     53316     53317     53318     53319     53318     53320     53319     53320
     53321     53322     53321     53323     53322     53323     53324     53325
     53324     53326     53325     53326     53327     53328     53327     53329
     53328     53329     53330     53331     53330     53332     53331     53332
     53333     53334     53333     53335     53334     53335     53336     53337
     53336     53338     53337     53338     53339     53340     53339     53341
     53340     53341     53342     53343     53342     53344     53343     53344
     53345     53346     53345     53347     53346     53347     53348     53349
     53348     53350     53349     53350     53351     53352     53351     53353
     53352     53353     53354     53355     53354     53356     53355     53356
     53357     53358     53357     53359     53358     53359     53360     53361
     53360     53362     53361     53362     53363     53364     53363     53365
     53364     53365     53366     53367     53366     53368     53367     53368
     53369     53370     53369     53371     53370     53371     53372     53373
     53372     53374     53373     53374     53375     53376     53375     53377
     53376     53377     53378     53379     53378     53380     53379     53380
     53381     53382     53381     53383     53382     53383     53384     53385
     53384     53386     53385     53386     53387     53388     53387     53389
     53388     53389     53390     53391     53390     53392     53391     53392
     53393     53394     53393     53395     53394     53395     53396     53397
     53396     53398     53397     53398     53399     53400     53399     53401
     53400     53401     53402     53403     53402     53404     53403     53404
     53405     53406     53405     53407     53406     53407     53408     53409
     53408     53410     53409     53410     53411     53412     53411     53413
     53412     53413     53414     53415     53414     53416     53415     53416
     53417     53418     53417     53419     53418     53419     53420     53421
     53420     53422     53421     53422     53423     53424     53423     53425
     53424     53425     53426     53427     53426     53428     53427     53428
     53429     53430     53429     53431     53430     53431     53432     53433
     53432     53434     53433     53434     53435     53436     53435     53437
     53436     53437     53438     53439     53438     53440     53439     53440
     53441     53442     53441     53443     53442     53443     53444     53445
     53444     53446     53445     53446     53447     53448     53447     53449
     53448     53449     53450     53451     53450     53452     53451     53452
     53453     53454     53453     53455     53454     53455     53456     53457
     53456     53458     53457     53458     53459     53460     53459     53461
     53460     53461     53462     53463     53462     53464     53463     53464
     53465     53466     53465     53467     53466     53467     53468     53469
     53468     53470     53469     53470     53471     53472     53471     53473
     53472     53473     53474     53475     53474     53476     53475     53476
     53477     53478     53477     53479     53478     53479     53480     53481
     53480     53482     53481     53482     53483     53484     53483     53485
     53484     53485     53486     53487     53486     53488     53487     53488
     53489     53490     53489     53491     53490     53491     53492     53493
     53492     53494     53493     53494     53495     53496     53495     53497
     53496     53497     53498     53499     53498     53500     53499     53500
     53501     53502     53501     53503     53502     53503     53504     53505
     53504     53506     53505     53506     53507     53508     53507     53509
     53508     53509     53510     53511     53510     53512     53511     53512
     53513     53514     53513     53515     53514     53515     53516     53517
     53516     53518     53517     53518     53519     53520     53519     53521
     53520     53521     53522     53523     53522     53524     53523     53524
     53525     53526     53525     53527     53526     53527     53528     53529
     53528     53530     53529     53530     53531     53532     53531     53533
     53532     53533     53534     53535     53534     53536     53535     53536
     53537     53538     53537     53539     53538     53539     53540     53541
     53540     53542     53541     53542     53543     53544     53543     53545
     53544     53545     53546     53547     53546     53548     53547     53548
     53549     53550     53549     53551     53550     53551     53552     53553
     53552     53554     53553     53554     53555     53556     53555     53557
     53556     53557     53558     53559     53558     53560     53559     53560
     53561     53562     53561     53563     53562     53563     53564     53565
     53564     53566     53565     53566     53567     53568     53567     53569
     53568     53569     53570     53571     53570     53572     53571     53572
     53573     53574     53573     53575     53574     53575     53576     53577
     53576     53578     53577     53578     53579     53580     53579     53581
     53580     53581     53582     53583     53582     53584     53583     53584
     53585     53586     53585     53587     53586     53587     53588     53589
     53588     53590     53589     53590     53591     53592     53591     53593
     53592     53593     53594     53595     53594     53596     53595     53596
     53597     53598     53597     53599     53598     53599     53600     53601
     53600     53602     53601     53602     53603     53604     53603     53605
     53604     53605     53606     53607     53606     53608     53607     53608
     53609     53610     53609     53611     53610     53611     53612     53613
     53612     53614     53613     53614     53615     53616     53615     53617
     53616     53617     53618     53619     53618     53620     53619     53620
     53621     53622     53621     53623     53622     53623     53624     53625
     53624     53626     53625     53626     53627     53628     53627     53629
     53628     53629     53630     53631     53630     53632     53631     53632
     53633     53634     53633     53635     53634     53635     53636     53637
     53636     53638     53637     53638     53639     53640     53639     53641
     53640     53641     53642     53643     53642     53644     53643     53644
     53645     53646     53645     53647     53646     53647     53648     53649
     53648     53650     53649     53650     53651     53652     53651     53653
     53652     53653     53654     53655     53654     53656     53655     53656
     53657     53658     53657     53659     53658     53659     53660     53661
     53660     53662     53661     53662     53663     53664     53663     53665
     53664     53665     53666     53667     53666     53668     53667     53668
     53669     53670     53669     53671     53670     53671     53672     53673
     53672     53674     53673     53674     53675     53676     53675     53677
     53676     53677     53678     53679     53678     53680     53679     53680
     53681     53682     53681     53683     53682     53683     53684     53685
     53684     53686     53685     53686     53687     53688     53687     53689
     53688     53689     53690     53691     53690     53692     53691     53692
     53693     53694     53693     53695     53694     53695     53696     53697
     53696     53698     53697     53698     53699     53700     53699     53701
     53700     53701     53702     53703     53702     53704     53703     53704
     53705     53706     53705     53707     53706     53707     53708     53709
     53708     53710     53709     53710     53711     53712     53711     53713
     53712     53713     53714     53715     53714     53716     53715     53716
     53717     53718     53717     53719     53718     53719     53720     53721
     53720     53722     53721     53722     53723     53724     53723     53725
     53724     53725     53726     53727     53726     53728     53727     53728
     53729     53730     53729     53731     53730     53731     53732     53733
     53732     53734     53733     53734     53735     53736     53735     53737
     53736     53737     53738     53739     53738     53740     53739     53740
     53741     53742     53741     53743     53742     53743     53744     53745
     53744     53746     53745     53746     53747     53748     53747     53749
     53748     53749     53750     53751     53750     53752     53751     53752
     53753     53754     53753     53755     53754     53755     53756     53757
     53756     53758     53757     53758     53759     53760     53759     53761
     53760     53761     53762     53763     53762     53764     53763     53764
     53765     53766     53765     53767     53766     53767     53768     53769
     53768     53770     53769     53770     53771     53772     53771     53773
     53772     53773     53774     53775     53774     53776     53775     53776
     53777     53778     53777     53779     53778     53779     53780     53781
     53780     53782     53781     53782     53783     53784     53783     53785
     53784     53785     53786     53787     53786     53788     53787     53788
     53789     53790     53789     53791     53790     53791     53792     53793
     53792     53794     53793     53794     53795     53796     53795     53797
     53796     53797     53798     53799     53798     53800     53799     53800
     53801     53802     53801     53803     53802     53803     53804     53805
     53804     53806     53805     53806     53807     53808     53807     53809
     53808     53809     53810     53811     53810     53812     53811     53812
     53813     53814     53813     53815     53814     53815     53816     53817
     53816     53818     53817     53818     53819     53820     53819     53821
     53820     53821     53822     53823     53822     53824     53823     53824
     53825     53826     53825     53827     53826     53827     53828     53829
     53828     53830     53829     53830     53831     53832     53831     53833
     53832     53833     53834     53835     53834     53836     53835     53836
     53837     53838     53837     53839     53838     53839     53840     53841
     53840     53842     53841     53842     53843     53844     53843     53845
     53844     53845     53846     53847     53846     53848     53847     53848
     53849     53850     53849     53851     53850     53851     53852     53853
     53852     53854     53853     53854     53855     53856     53855     53857
     53856     53857     53858     53859     53858     53860     53859     53860
     53861     53862     53861     53863     53862     53863     53864     53865
     53864     53866     53865     53866     53867     53868     53867     53869
     53868     53869     53870     53871     53870     53872     53871     53872
     53873     53874     53873     53875     53874     53875     53876     53877
     53876     53878     53877     53878     53879     53880     53879     53881
     53880     53881     53882     53883     53882     53884     53883     53884
     53885     53886     53885     53887     53886     53887     53888     53889
     53888     53890     53889     53890     53891     53892     53891     53893
     53892     53893     53894     53895     53894     53896     53895     53896
     53897     53898     53897     53899     53898     53899     53900     53901
     53900     53902     53901     53902     53903     53904     53903     53905
     53904     53905     53906     53907     53906     53908     53907     53908
     53909     53910     53909     53911     53910     53911     53912     53913
     53912     53914     53913     53914     53915     53916     53915     53917
     53916     53917     53918     53919     53918     53920     53919     53920
     53921     53922     53921     53923     53922     53923     53924     53925
     53924     53926     53925     53926     53927     53928     53927     53929
     53928     53929     53930     53931     53930     53932     53931     53932
     53933     53934     53933     53935     53934     53935     53936     53937
     53936     53938     53937     53938     53939     53940     53939     53941
     53940     53941     53942     53943     53942     53944     53943     53944
     53945     53946     53945     53947     53946     53947     53948     53949
     53948     53950     53949     53950     53951     53952     53951     53953
     53952     53953     53954     53955     53954     53956     53955     53956
     53957     53958     53957     53959     53958     53959     53960     53961
     53960     53962     53961     53962     53963     53964     53963     53965
     53964     53965     53966     53967     53966     53968     53967     53968
     53969     53970     53969     53971     53970     53971     53972     53973
     53972     53974     53973     53974     53975     53976     53975     53977
     53976     53977     53978     53979     53978     53980     53979     53980
     53981     53982     53981     53983     53982     53983     53984     53985
     53984     53986     53985     53986     53987     53988     53987     53989
     53988     53989     53990     53991     53990     53992     53991     53992
     53993     53994     53993     53995     53994     53995     53996     53997
     53996     53998     53997     53998     53999     54000     53999     54001
     54000     54001     54002     54003     54002     54004     54003     54004
     54005     54006     54005     54007     54006     54007     54008     54009
     54008     54010     54009     54010     54011     54012     54011     54013
     54012     54013     54014     54015     54014     54016     54015     54016
     54017     54018     54017     54019     54018     54019     54020     54021
     54020     54022     54021     54022     54023     54024     54023     54025
     54024     54025     54026     54027     54026     54028     54027     54028
     54029     54030     54029     54031     54030     54031     54032     54033
     54032     54034     54033     54034     54035     54036     54035     54037
     54036     54037     54038     54039     54038     54040     54039     54040
     54041     54042     54041     54043     54042     54043     54044     54045
     54044     54046     54045     54046     54047     54048     54047     54049
     54048     54049     54050     54051     54050     54052     54051     54052
     54053     54054     54053     54055     54054     54055     54056     54057
     54056     54058     54057     54058     54059     54060     54059     54061
     54060     54061     54062     54063     54062     54064     54063     54064
     54065     54066     54065     54067     54066     54067     54068     54069
     54068     54070     54069     54070     54071     54072     54071     54073
     54072     54073     54074     54075     54074     54076     54075     54076
     54077     54078     54077     54079     54078     54079     54080     54081
     54080     54082     54081     54082     54083     54084     54083     54085
     54084     54085     54086     54087     54086     54088     54087     54088
     54089     54090     54089     54091     54090     54091     54092     54093
     54092     54094     54093     54094     54095     54096     54095     54097
     54096     54097     54098     54099     54098     54100     54099     54100
     54101     54102     54101     54103     54102     54103     54104     54105
     54104     54106     54105     54106     54107     54108     54107     54109
     54108     54109     54110     54111     54110     54112     54111     54112
     54113     54114     54113     54115     54114     54115     54116     54117
     54116     54118     54117     54118     54119     54120     54119     54121
     54120     54121     54122     54123     54122     54124     54123     54124
     54125     54126     54125     54127     54126     54127     54128     54129
     54128     54130     54129     54130     54131     54132     54131     54133
     54132     54133     54134     54135     54134     54136     54135     54136
     54137     54138     54137     54139     54138     54139     54140     54141
     54140     54142     54141     54142     54143     54144     54143     54145
     54144     54145     54146     54147     54146     54148     54147     54148
     54149     54150     54149     54151     54150     54151     54152     54153
     54152     54154     54153     54154     54155     54156     54155     54157
     54156     54157     54158     54159     54158     54160     54159     54160
     54161     54162     54161     54163     54162     54163     54164     54165
     54164     54166     54165     54166     54167     54168     54167     54169
     54168     54169     54170     54171     54170     54172     54171     54172
     54173     54174     54173     54175     54174     54175     54176     54177
     54176     54178     54177     54178     54179     54180     54179     54181
     54180     54181     54182     54183     54182     54184     54183     54184
     54185     54186     54185     54187     54186     54187     54188     54189
     54188     54190     54189     54190     54191     54192     54191     54193
     54192     54193     54194     54195     54194     54196     54195     54196
     54197     54198     54197     54199     54198     54199     54200     54201
     54200     54202     54201     54202     54203     54204     54203     54205
     54204     54205     54206     54207     54206     54208     54207     54208
     54209     54210     54209     54211     54210     54211     54212     54213
     54212     54214     54213     54214     54215     54216     54215     54217
     54216     54217     54218     54219     54218     54220     54219     54220
     54221     54222     54221     54223     54222     54223     54224     54225
     54224     54226     54225     54226     54227     54228     54227     54229
     54228     54229     54230     54231     54230     54232     54231     54232
     54233     54234     54233     54235     54234     54235     54236     54237
     54236     54238     54237     54238     54239     54240     54239     54241
     54240     54241     54242     54243     54242     54244     54243     54244
     54245     54246     54245     54247     54246     54247     54248     54249
     54248     54250     54249     54250     54251     54252     54251     54253
     54252     54253     54254     54255     54254     54256     54255     54256
     54257     54258     54257     54259     54258     54259     54260     54261
     54260     54262     54261     54262     54263     54264     54263     54265
     54264     54265     54266     54267     54266     54268     54267     54268
     54269     54270     54269     54271     54270     54271     54272     54273
     54272     54274     54273     54274     54275     54276     54275     54277
     54276     54277     54278     54279     54278     54280     54279     54280
     54281     54282     54281     54283     54282     54283     54284     54285
     54284     54286     54285     54286     54287     54288     54287     54289
     54288     54289     54290     54291     54290     54292     54291     54292
     54293     54294     54293     54295     54294     54295     54296     54297
     54296     54298     54297     54298     54299     54300     54299     54301
     54300     54301     54302     54303     54302     54304     54303     54304
     54305     54306     54305     54307     54306     54307     54308     54309
     54308     54310     54309     54310     54311     54312     54311     54313
     54312     54313     54314     54315     54314     54316     54315     54316
     54317     54318     54317     54319     54318     54319     54320     54321
     54320     54322     54321     54322     54323     54324     54323     54325
     54324     54325     54326     54327     54326     54328     54327     54328
     54329     54330     54329     54331     54330     54331     54332     54333
     54332     54334     54333     54334     54335     54336     54335     54337
     54336     54337     54338     54339     54338     54340     54339     54340
     54341     54342     54341     54343     54342     54343     54344     54345
     54344     54346     54345     54346     54347     54348     54347     54349
     54348     54349     54350     54351     54350     54352     54351     54352
     54353     54354     54353     54355     54354     54355     54356     54357
     54356     54358     54357     54358     54359     54360     54359     54361
     54360     54361     54362     54363     54362     54364     54363     54364
     54365     54366     54365     54367     54366     54367     54368     54369
     54368     54370     54369     54370     54371     54372     54371     54373
     54372     54373     54374     54375     54374     54376     54375     54376
     54377     54378     54377     54379     54378     54379     54380     54381
     54380     54382     54381     54382     54383     54384     54383     54385
     54384     54385     54386     54387     54386     54388     54387     54388
     54389     54390     54389     54391     54390     54391     54392     54393
     54392     54394     54393     54394     54395     54396     54395     54397
     54396     54397     54398     54399     54398     54400     54399     54400
     54401     54402     54401     54403     54402     54403     54404     54405
     54404     54406     54405     54406     54407     54408     54407     54409
     54408     54409     54410     54411     54410     54412     54411     54412
     54413     54414     54413     54415     54414     54415     54416     54417
     54416     54418     54417     54418     54419     54420     54419     54421
     54420     54421     54422     54423     54422     54424     54423     54424
     54425     54426     54425     54427     54426     54427     54428     54429
     54428     54430     54429     54430     54431     54432     54431     54433
     54432     54433     54434     54435     54434     54436     54435     54436
     54437     54438     54437     54439     54438     54439     54440     54441
     54440     54442     54441     54442     54443     54444     54443     54445
     54444     54445     54446     54447     54446     54448     54447     54448
     54449     54450     54449     54451     54450     54451     54452     54453
     54452     54454     54453     54454     54455     54456     54455     54457
     54456     54457     54458     54459     54458     54460     54459     54460
     54461     54462     54461     54463     54462     54463     54464     54465
     54464     54466     54465     54466     54467     54468     54467     54469
     54468     54469     54470     54471     54470     54472     54471     54472
     54473     54474     54473     54475     54474     54475     54476     54477
     54476     54478     54477     54478     54479     54480     54479     54481
     54480     54481     54482     54483     54482     54484     54483     54484
     54485     54486     54485     54487     54486     54487     54488     54489
     54488     54490     54489     54490     54491     54492     54491     54493
     54492     54493     54494     54495     54494     54496     54495     54496
     54497     54498     54497     54499     54498     54499     54500     54501
     54500     54502     54501     54502     54503     54504     54503     54505
     54504     54505     54506     54507     54506     54508     54507     54508
     54509     54510     54509     54511     54510     54511     54512     54513
     54512     54514     54513     54514     54515     54516     54515     54517
     54516     54517     54518     54519     54518     54520     54519     54520
     54521     54522     54521     54523     54522     54523     54524     54525
     54524     54526     54525     54526     54527     54528     54527     54529
     54528     54529     54530     54531     54530     54532     54531     54532
     54533     54534     54533     54535     54534     54535     54536     54537
     54536     54538     54537     54538     54539     54540     54539     54541
     54540     54541     54542     54543     54542     54544     54543     54544
     54545     54546     54545     54547     54546     54547     54548     54549
     54548     54550     54549     54550     54551     54552     54551     54553
     54552     54553     54554     54555     54554     54556     54555     54556
     54557     54558     54557     54559     54558     54559     54560     54561
     54560     54562     54561     54562     54563     54564     54563     54565
     54564     54565     54566     54567     54566     54568     54567     54568
     54569     54570     54569     54571     54570     54571     54572     54573
     54572     54574     54573     54574     54575     54576     54575     54577
     54576     54577     54578     54579     54578     54580     54579     54580
     54581     54582     54581     54583     54582     54583     54584     54585
     54584     54586     54585     54586     54587     54588     54587     54589
     54588     54589     54590     54591     54590     54592     54591     54592
     54593     54594     54593     54595     54594     54595     54596     54597
     54596     54598     54597     54598     54599     54600     54599     54601
     54600     54601     54602     54603     54602     54604     54603     54604
     54605     54606     54605     54607     54606     54607     54608     54609
     54608     54610     54609     54610     54611     54612     54611     54613
     54612     54613     54614     54615     54614     54616     54615     54616
     54617     54618     54617     54619     54618     54619     54620     54621
     54620     54622     54621     54622     54623     54624     54623     54625
     54624     54625     54626     54627     54626     54628     54627     54628
     54629     54630     54629     54631     54630     54631     54632     54633
     54632     54634     54633     54634     54635     54636     54635     54637
     54636     54637     54638     54639     54638     54640     54639     54640
     54641     54642     54641     54643     54642     54643     54644     54645
     54644     54646     54645     54646     54647     54648     54647     54649
     54648     54649     54650     54651     54650     54652     54651     54652
     54653     54654     54653     54655     54654     54655     54656     54657
     54656     54658     54657     54658     54659     54660     54659     54661
     54660     54661     54662     54663     54662     54664     54663     54664
     54665     54666     54665     54667     54666     54667     54668     54669
     54668     54670     54669     54670     54671     54672     54671     54673
     54672     54673     54674     54675     54674     54676     54675     54676
     54677     54678     54677     54679     54678     54679     54680     54681
     54680     54682     54681     54682     54683     54684     54683     54685
     54684     54685     54686     54687     54686     54688     54687     54688
     54689     54690     54689     54691     54690     54691     54692     54693
     54692     54694     54693     54694     54695     54696     54695     54697
     54696     54697     54698     54699     54698     54700     54699     54700
     54701     54702     54701     54703     54702     54703     54704     54705
     54704     54706     54705     54706     54707     54708     54707     54709
     54708     54709     54710     54711     54710     54712     54711     54712
     54713     54714     54713     54715     54714     54715     54716     54717
     54716     54718     54717     54718     54719     54720     54719     54721
     54720     54721     54722     54723     54722     54724     54723     54724
     54725     54726     54725     54727     54726     54727     54728     54729
     54728     54730     54729     54730     54731     54732     54731     54733
     54732     54733     54734     54735     54734     54736     54735     54736
     54737     54738     54737     54739     54738     54739     54740     54741
     54740     54742     54741     54742     54743     54744     54743     54745
     54744     54745     54746     54747     54746     54748     54747     54748
     54749     54750     54749     54751     54750     54751     54752     54753
     54752     54754     54753     54754     54755     54756     54755     54757
     54756     54757     54758     54759     54758     54760     54759     54760
     54761     54762     54761     54763     54762     54763     54764     54765
     54764     54766     54765     54766     54767     54768     54767     54769
     54768     54769     54770     54771     54770     54772     54771     54772
     54773     54774     54773     54775     54774     54775     54776     54777
     54776     54778     54777     54778     54779     54780     54779     54781
     54780     54781     54782     54783     54782     54784     54783     54784
     54785     54786     54785     54787     54786     54787     54788     54789
     54788     54790     54789     54790     54791     54792     54791     54793
     54792     54793     54794     54795     54794     54796     54795     54796
     54797     54798     54797     54799     54798     54799     54800     54801
     54800     54802     54801     54802     54803     54804     54803     54805
     54804     54805     54806     54807     54806     54808     54807     54808
     54809     54810     54809     54811     54810     54811     54812     54813
     54812     54814     54813     54814     54815     54816     54815     54817
     54816     54817     54818     54819     54818     54820     54819     54820
     54821     54822     54821     54823     54822     54823     54824     54825
     54824     54826     54825     54826     54827     54828     54827     54829
     54828     54829     54830     54831     54830     54832     54831     54832
     54833     54834     54833     54835     54834     54835     54836     54837
     54836     54838     54837     54838     54839     54840     54839     54841
     54840     54841     54842     54843     54842     54844     54843     54844
     54845     54846     54845     54847     54846     54847     54848     54849
     54848     54850     54849     54850     54851     54852     54851     54853
     54852     54853     54854     54855     54854     54856     54855     54856
     54857     54858     54857     54859     54858     54859     54860     54861
     54860     54862     54861     54862     54863     54864     54863     54865
     54864     54865     54866     54867     54866     54868     54867     54868
     54869     54870     54869     54871     54870     54871     54872     54873
     54872     54874     54873     54874     54875     54876     54875     54877
     54876     54877     54878     54879     54878     54880     54879     54880
     54881     54882     54881     54883     54882     54883     54884     54885
     54884     54886     54885     54886     54887     54888     54887     54889
     54888     54889     54890     54891     54890     54892     54891     54892
     54893     54894     54893     54895     54894     54895     54896     54897
     54896     54898     54897     54898     54899     54900     54899     54901
     54900     54901     54902     54903     54902     54904     54903     54904
     54905     54906     54905     54907     54906     54907     54908     54909
     54908     54910     54909     54910     54911     54912     54911     54913
     54912     54913     54914     54915     54914     54916     54915     54916
     54917     54918     54917     54919     54918     54919     54920     54921
     54920     54922     54921     54922     54923     54924     54923     54925
     54924     54925     54926     54927     54926     54928     54927     54928
     54929     54930     54929     54931     54930     54931     54932     54933
     54932     54934     54933     54934     54935     54936     54935     54937
     54936     54937     54938     54939     54938     54940     54939     54940
     54941     54942     54941     54943     54942     54943     54944     54945
     54944     54946     54945     54946     54947     54948     54947     54949
     54948     54949     54950     54951     54950     54952     54951     54952
     54953     54954     54953     54955     54954     54955     54956     54957
     54956     54958     54957     54958     54959     54960     54959     54961
     54960     54961     54962     54963     54962     54964     54963     54964
     54965     54966     54965     54967     54966     54967     54968     54969
     54968     54970     54969     54970     54971     54972     54971     54973
     54972     54973     54974     54975     54974     54976     54975     54976
     54977     54978     54977     54979     54978     54979     54980     54981
     54980     54982     54981     54982     54983     54984     54983     54985
     54984     54985     54986     54987     54986     54988     54987     54988
     54989     54990     54989     54991     54990     54991     54992     54993
     54992     54994     54993     54994     54995     54996     54995     54997
     54996     54997     54998     54999     54998     55000     54999     55000
     55001     55002     55001     55003     55002     55003     55004     55005
     55004     55006     55005     55006     55007     55008     55007     55009
     55008     55009     55010     55011     55010     55012     55011     55012
     55013     55014     55013     55015     55014     55015     55016     55017
     55016     55018     55017     55018     55019     55020     55019     55021
     55020     55021     55022     55023     55022     55024     55023     55024
     55025     55026     55025     55027     55026     55027     55028     55029
     55028     55030     55029     55030     55031     55032     55031     55033
     55032     55033     55034     55035     55034     55036     55035     55036
     55037     55038     55037     55039     55038     55039     55040     55041
     55040     55042     55041     55042     55043     55044     55043     55045
     55044     55045     55046     55047     55046     55048     55047     55048
     55049     55050     55049     55051     55050     55051     55052     55053
     55052     55054     55053     55054     55055     55056     55055     55057
     55056     55057     55058     55059     55058     55060     55059     55060
     55061     55062     55061     55063     55062     55063     55064     55065
     55064     55066     55065     55066     55067     55068     55067     55069
     55068     55069     55070     55071     55070     55072     55071     55072
     55073     55074     55073     55075     55074     55075     55076     55077
     55076     55078     55077     55078     55079     55080     55079     55081
     55080     55081     55082     55083     55082     55084     55083     55084
     55085     55086     55085     55087     55086     55087     55088     55089
     55088     55090     55089     55090     55091     55092     55091     55093
     55092     55093     55094     55095     55094     55096     55095     55096
     55097     55098     55097     55099     55098     55099     55100     55101
     55100     55102     55101     55102     55103     55104     55103     55105
     55104     55105     55106     55107     55106     55108     55107     55108
     55109     55110     55109     55111     55110     55111     55112     55113
     55112     55114     55113     55114     55115     55116     55115     55117
     55116     55117     55118     55119     55118     55120     55119     55120
     55121     55122     55121     55123     55122     55123     55124     55125
     55124     55126     55125     55126     55127     55128     55127     55129
     55128     55129     55130     55131     55130     55132     55131     55132
     55133     55134     55133     55135     55134     55135     55136     55137
     55136     55138     55137     55138     55139     55140     55139     55141
     55140     55141     55142     55143     55142     55144     55143     55144
     55145     55146     55145     55147     55146     55147     55148     55149
     55148     55150     55149     55150     55151     55152     55151     55153
     55152     55153     55154     55155     55154     55156     55155     55156
     55157     55158     55157     55159     55158     55159     55160     55161
     55160     55162     55161     55162     55163     55164     55163     55165
     55164     55165     55166     55167     55166     55168     55167     55168
     55169     55170     55169     55171     55170     55171     55172     55173
     55172     55174     55173     55174     55175     55176     55175     55177
     55176     55177     55178     55179     55178     55180     55179     55180
     55181     55182     55181     55183     55182     55183     55184     55185
     55184     55186     55185     55186     55187     55188     55187     55189
     55188     55189     55190     55191     55190     55192     55191     55192
     55193     55194     55193     55195     55194     55195     55196     55197
     55196     55198     55197     55198     55199     55200     55199     55201
     55200     55201     55202     55203     55202     55204     55203     55204
     55205     55206     55205     55207     55206     55207     55208     55209
     55208     55210     55209     55210     55211     55212     55211     55213
     55212     55213     55214     55215     55214     55216     55215     55216
     55217     55218     55217     55219     55218     55219     55220     55221
     55220     55222     55221     55222     55223     55224     55223     55225
     55224     55225     55226     55227     55226     55228     55227     55228
     55229     55230     55229     55231     55230     55231     55232     55233
     55232     55234     55233     55234     55235     55236     55235     55237
     55236     55237     55238     55239     55238     55240     55239     55240
     55241     55242     55241     55243     55242     55243     55244     55245
     55244     55246     55245     55246     55247     55248     55247     55249
     55248     55249     55250     55251     55250     55252     55251     55252
     55253     55254     55253     55255     55254     55255     55256     55257
     55256     55258     55257     55258     55259     55260     55259     55261
     55260     55261     55262     55263     55262     55264     55263     55264
     55265     55266     55265     55267     55266     55267     55268     55269
     55268     55270     55269     55270     55271     55272     55271     55273
     55272     55273     55274     55275     55274     55276     55275     55276
     55277     55278     55277     55279     55278     55279     55280     55281
     55280     55282     55281     55282     55283     55284     55283     55285
     55284     55285     55286     55287     55286     55288     55287     55288
     55289     55290     55289     55291     55290     55291     55292     55293
     55292     55294     55293     55294     55295     55296     55295     55297
     55296     55297     55298     55299     55298     55300     55299     55300
     55301     55302     55301     55303     55302     55303     55304     55305
     55304     55306     55305     55306     55307     55308     55307     55309
     55308     55309     55310     55311     55310     55312     55311     55312
     55313     55314     55313     55315     55314     55315     55316     55317
     55316     55318     55317     55318     55319     55320     55319     55321
     55320     55321     55322     55323     55322     55324     55323     55324
     55325     55326     55325     55327     55326     55327     55328     55329
     55328     55330     55329     55330     55331     55332     55331     55333
     55332     55333     55334     55335     55334     55336     55335     55336
     55337     55338     55337     55339     55338     55339     55340     55341
     55340     55342     55341     55342     55343     55344     55343     55345
     55344     55345     55346     55347     55346     55348     55347     55348
     55349     55350     55349     55351     55350     55351     55352     55353
     55352     55354     55353     55354     55355     55356     55355     55357
     55356     55357     55358     55359     55358     55360     55359     55360
     55361     55362     55361     55363     55362     55363     55364     55365
     55364     55366     55365     55366     55367     55368     55367     55369
     55368     55369     55370     55371     55370     55372     55371     55372
     55373     55374     55373     55375     55374     55375     55376     55377
     55376     55378     55377     55378     55379     55380     55379     55381
     55380     55381     55382     55383     55382     55384     55383     55384
     55385     55386     55385     55387     55386     55387     55388     55389
     55388     55390     55389     55390     55391     55392     55391     55393
     55392     55393     55394     55395     55394     55396     55395     55396
     55397     55398     55397     55399     55398     55399     55400     55401
     55400     55402     55401     55402     55403     55404     55403     55405
     55404     55405     55406     55407     55406     55408     55407     55408
     55409     55410     55409     55411     55410     55411     55412     55413
     55412     55414     55413     55414     55415     55416     55415     55417
     55416     55417     55418     55419     55418     55420     55419     55420
     55421     55422     55421     55423     55422     55423     55424     55425
     55424     55426     55425     55426     55427     55428     55427     55429
     55428     55429     55430     55431     55430     55432     55431     55432
     55433     55434     55433     55435     55434     55435     55436     55437
     55436     55438     55437     55438     55439     55440     55439     55441
     55440     55441     55442     55443     55442     55444     55443     55444
     55445     55446     55445     55447     55446     55447     55448     55449
     55448     55450     55449     55450     55451     55452     55451     55453
     55452     55453     55454     55455     55454     55456     55455     55456
     55457     55458     55457     55459     55458     55459     55460     55461
     55460     55462     55461     55462     55463     55464     55463     55465
     55464     55465     55466     55467     55466     55468     55467     55468
     55469     55470     55469     55471     55470     55471     55472     55473
     55472     55474     55473     55474     55475     55476     55475     55477
     55476     55477     55478     55479     55478     55480     55479     55480
     55481     55482     55481     55483     55482     55483     55484     55485
     55484     55486     55485     55486     55487     55488     55487     55489
     55488     55489     55490     55491     55490     55492     55491     55492
     55493     55494     55493     55495     55494     55495     55496     55497
     55496     55498     55497     55498     55499     55500     55499     55501
     55500     55501     55502     55503     55502     55504     55503     55504
     55505     55506     55505     55507     55506     55507     55508     55509
     55508     55510     55509     55510     55511     55512     55511     55513
     55512     55513     55514     55515     55514     55516     55515     55516
     55517     55518     55517     55519     55518     55519     55520     55521
     55520     55522     55521     55522     55523     55524     55523     55525
     55524     55525     55526     55527     55526     55528     55527     55528
     55529     55530     55529     55531     55530     55531     55532     55533
     55532     55534     55533     55534     55535     55536     55535     55537
     55536     55537     55538     55539     55538     55540     55539     55540
     55541     55542     55541     55543     55542     55543     55544     55545
     55544     55546     55545     55546     55547     55548     55547     55549
     55548     55549     55550     55551     55550     55552     55551     55552
     55553     55554     55553     55555     55554     55555     55556     55557
     55556     55558     55557     55558     55559     55560     55559     55561
     55560     55561     55562     55563     55562     55564     55563     55564
     55565     55566     55565     55567     55566     55567     55568     55569
     55568     55570     55569     55570     55571     55572     55571     55573
     55572     55573     55574     55575     55574     55576     55575     55576
     55577     55578     55577     55579     55578     55579     55580     55581
     55580     55582     55581     55582     55583     55584     55583     55585
     55584     55585     55586     55587     55586     55588     55587     55588
     55589     55590     55589     55591     55590     55591     55592     55593
     55592     55594     55593     55594     55595     55596     55595     55597
     55596     55597     55598     55599     55598     55600     55599     55600
     55601     55602     55601     55603     55602     55603     55604     55605
     55604     55606     55605     55606     55607     55608     55607     55609
     55608     55609     55610     55611     55610     55612     55611     55612
     55613     55614     55613     55615     55614     55615     55616     55617
     55616     55618     55617     55618     55619     55620     55619     55621
     55620     55621     55622     55623     55622     55624     55623     55624
     55625     55626     55625     55627     55626     55627     55628     55629
     55628     55630     55629     55630     55631     55632     55631     55633
     55632     55633     55634     55635     55634     55636     55635     55636
     55637     55638     55637     55639     55638     55639     55640     55641
     55640     55642     55641     55642     55643     55644     55643     55645
     55644     55645     55646     55647     55646     55648     55647     55648
     55649     55650     55649     55651     55650     55651     55652     55653
     55652     55654     55653     55654     55655     55656     55655     55657
     55656     55657     55658     55659     55658     55660     55659     55660
     55661     55662     55661     55663     55662     55663     55664     55665
     55664     55666     55665     55666     55667     55668     55667     55669
     55668     55669     55670     55671     55670     55672     55671     55672
     55673     55674     55673     55675     55674     55675     55676     55677
     55676     55678     55677     55678     55679     55680     55679     55681
     55680     55681     55682     55683     55682     55684     55683     55684
     55685     55686     55685     55687     55686     55687     55688     55689
     55688     55690     55689     55690     55691     55692     55691     55693
     55692     55693     55694     55695     55694     55696     55695     55696
     55697     55698     55697     55699     55698     55699     55700     55701
     55700     55702     55701     55702     55703     55704     55703     55705
     55704     55705     55706     55707     55706     55708     55707     55708
     55709     55710     55709     55711     55710     55711     55712     55713
     55712     55714     55713     55714     55715     55716     55715     55717
     55716     55717     55718     55719     55718     55720     55719     55720
     55721     55722     55721     55723     55722     55723     55724     55725
     55724     55726     55725     55726     55727     55728     55727     55729
     55728     55729     55730     55731     55730     55732     55731     55732
     55733     55734     55733     55735     55734     55735     55736     55737
     55736     55738     55737     55738     55739     55740     55739     55741
     55740     55741     55742     55743     55742     55744     55743     55744
     55745     55746     55745     55747     55746     55747     55748     55749
     55748     55750     55749     55750     55751     55752     55751     55753
     55752     55753     55754     55755     55754     55756     55755     55756
     55757     55758     55757     55759     55758     55759     55760     55761
     55760     55762     55761     55762     55763     55764     55763     55765
     55764     55765     55766     55767     55766     55768     55767     55768
     55769     55770     55769     55771     55770     55771     55772     55773
     55772     55774     55773     55774     55775     55776     55775     55777
     55776     55777     55778     55779     55778     55780     55779     55780
     55781     55782     55781     55783     55782     55783     55784     55785
     55784     55786     55785     55786     55787     55788     55787     55789
     55788     55789     55790     55791     55790     55792     55791     55792
     55793     55794     55793     55795     55794     55795     55796     55797
     55796     55798     55797     55798     55799     55800     55799     55801
     55800     55801     55802     55803     55802     55804     55803     55804
     55805     55806     55805     55807     55806     55807     55808     55809
     55808     55810     55809     55810     55811     55812     55811     55813
     55812     55813     55814     55815     55814     55816     55815     55816
     55817     55818     55817     55819     55818     55819     55820     55821
     55820     55822     55821     55822     55823     55824     55823     55825
     55824     55825     55826     55827     55826     55828     55827     55828
     55829     55830     55829     55831     55830     55831     55832     55833
     55832     55834     55833     55834     55835     55836     55835     55837
     55836     55837     55838     55839     55838     55840     55839     55840
     55841     55842     55841     55843     55842     55843     55844     55845
     55844     55846     55845     55846     55847     55848     55847     55849
     55848     55849     55850     55851     55850     55852     55851     55852
     55853     55854     55853     55855     55854     55855     55856     55857
     55856     55858     55857     55858     55859     55860     55859     55861
     55860     55861     55862     55863     55862     55864     55863     55864
     55865     55866     55865     55867     55866     55867     55868     55869
     55868     55870     55869     55870     55871     55872     55871     55873
     55872     55873     55874     55875     55874     55876     55875     55876
     55877     55878     55877     55879     55878     55879     55880     55881
     55880     55882     55881     55882     55883     55884     55883     55885
     55884     55885     55886     55887     55886     55888     55887     55888
     55889     55890     55889     55891     55890     55891     55892     55893
     55892     55894     55893     55894     55895     55896     55895     55897
     55896     55897     55898     55899     55898     55900     55899     55900
     55901     55902     55901     55903     55902     55903     55904     55905
     55904     55906     55905     55906     55907     55908     55907     55909
     55908     55909     55910     55911     55910     55912     55911     55912
     55913     55914     55913     55915     55914     55915     55916     55917
     55916     55918     55917     55918     55919     55920     55919     55921
     55920     55921     55922     55923     55922     55924     55923     55924
     55925     55926     55925     55927     55926     55927     55928     55929
     55928     55930     55929     55930     55931     55932     55931     55933
     55932     55933     55934     55935     55934     55936     55935     55936
     55937     55938     55937     55939     55938     55939     55940     55941
     55940     55942     55941     55942     55943     55944     55943     55945
     55944     55945     55946     55947     55946     55948     55947     55948
     55949     55950     55949     55951     55950     55951     55952     55953
     55952     55954     55953     55954     55955     55956     55955     55957
     55956     55957     55958     55959     55958     55960     55959     55960
     55961     55962     55961     55963     55962     55963     55964     55965
     55964     55966     55965     55966     55967     55968     55967     55969
     55968     55969     55970     55971     55970     55972     55971     55972
     55973     55974     55973     55975     55974     55975     55976     55977
     55976     55978     55977     55978     55979     55980     55979     55981
     55980     55981     55982     55983     55982     55984     55983     55984
     55985     55986     55985     55987     55986     55987     55988     55989
     55988     55990     55989     55990     55991     55992     55991     55993
     55992     55993     55994     55995     55994     55996     55995     55996
     55997     55998     55997     55999     55998     55999     56000     56001
     56000     56002     56001     56002     56003     56004     56003     56005
     56004     56005     56006     56007     56006     56008     56007     56008
     56009     56010     56009     56011     56010     56011     56012     56013
     56012     56014     56013     56014     56015     56016     56015     56017
     56016     56017     56018     56019     56018     56020     56019     56020
     56021     56022     56021     56023     56022     56023     56024     56025
     56024     56026     56025     56026     56027     56028     56027     56029
     56028     56029     56030     56031     56030     56032     56031     56032
     56033     56034     56033     56035     56034     56035     56036     56037
     56036     56038     56037     56038     56039     56040     56039     56041
     56040     56041     56042     56043     56042     56044     56043     56044
     56045     56046     56045     56047     56046     56047     56048     56049
     56048     56050     56049     56050     56051     56052     56051     56053
     56052     56053     56054     56055     56054     56056     56055     56056
     56057     56058     56057     56059     56058     56059     56060     56061
     56060     56062     56061     56062     56063     56064     56063     56065
     56064     56065     56066     56067     56066     56068     56067     56068
     56069     56070     56069     56071     56070     56071     56072     56073
     56072     56074     56073     56074     56075     56076     56075     56077
     56076     56077     56078     56079     56078     56080     56079     56080
     56081     56082     56081     56083     56082     56083     56084     56085
     56084     56086     56085     56086     56087     56088     56087     56089
     56088     56089     56090     56091     56090     56092     56091     56092
     56093     56094     56093     56095     56094     56095     56096     56097
     56096     56098     56097     56098     56099     56100     56099     56101
     56100     56101     56102     56103     56102     56104     56103     56104
     56105     56106     56105     56107     56106     56107     56108     56109
     56108     56110     56109     56110     56111     56112     56111     56113
     56112     56113     56114     56115     56114     56116     56115     56116
     56117     56118     56117     56119     56118     56119     56120     56121
     56120     56122     56121     56122     56123     56124     56123     56125
     56124     56125     56126     56127     56126     56128     56127     56128
     56129     56130     56129     56131     56130     56131     56132     56133
     56132     56134     56133     56134     56135     56136     56135     56137
     56136     56137     56138     56139     56138     56140     56139     56140
     56141     56142     56141     56143     56142     56143     56144     56145
     56144     56146     56145     56146     56147     56148     56147     56149
     56148     56149     56150     56151     56150     56152     56151     56152
     56153     56154     56153     56155     56154     56155     56156     56157
     56156     56158     56157     56158     56159     56160     56159     56161
     56160     56161     56162     56163     56162     56164     56163     56164
     56165     56166     56165     56167     56166     56167     56168     56169
     56168     56170     56169     56170     56171     56172     56171     56173
     56172     56173     56174     56175     56174     56176     56175     56176
     56177     56178     56177     56179     56178     56179     56180     56181
     56180     56182     56181     56182     56183     56184     56183     56185
     56184     56185     56186     56187     56186     56188     56187     56188
     56189     56190     56189     56191     56190     56191     56192     56193
     56192     56194     56193     56194     56195     56196     56195     56197
     56196     56197     56198     56199     56198     56200     56199     56200
     56201     56202     56201     56203     56202     56203     56204     56205
     56204     56206     56205     56206     56207     56208     56207     56209
     56208     56209     56210     56211     56210     56212     56211     56212
     56213     56214     56213     56215     56214     56215     56216     56217
     56216     56218     56217     56218     56219     56220     56219     56221
     56220     56221     56222     56223     56222     56224     56223     56224
     56225     56226     56225     56227     56226     56227     56228     56229
     56228     56230     56229     56230     56231     56232     56231     56233
     56232     56233     56234     56235     56234     56236     56235     56236
     56237     56238     56237     56239     56238     56239     56240     56241
     56240     56242     56241     56242     56243     56244     56243     56245
     56244     56245     56246     56247     56246     56248     56247     56248
     56249     56250     56249     56251     56250     56251     56252     56253
     56252     56254     56253     56254     56255     56256     56255     56257
     56256     56257     56258     56259     56258     56260     56259     56260
     56261     56262     56261     56263     56262     56263     56264     56265
     56264     56266     56265     56266     56267     56268     56267     56269
     56268     56269     56270     56271     56270     56272     56271     56272
     56273     56274     56273     56275     56274     56275     56276     56277
     56276     56278     56277     56278     56279     56280     56279     56281
     56280     56281     56282     56283     56282     56284     56283     56284
     56285     56286     56285     56287     56286     56287     56288     56289
     56288     56290     56289     56290     56291     56292     56291     56293
     56292     56293     56294     56295     56294     56296     56295     56296
     56297     56298     56297     56299     56298     56299     56300     56301
     56300     56302     56301     56302     56303     56304     56303     56305
     56304     56305     56306     56307     56306     56308     56307     56308
     56309     56310     56309     56311     56310     56311     56312     56313
     56312     56314     56313     56314     56315     56316     56315     56317
     56316     56317     56318     56319     56318     56320     56319     56320
     56321     56322     56321     56323     56322     56323     56324     56325
     56324     56326     56325     56326     56327     56328     56327     56329
     56328     56329     56330     56331     56330     56332     56331     56332
     56333     56334     56333     56335     56334     56335     56336     56337
     56336     56338     56337     56338     56339     56340     56339     56341
     56340     56341     56342     56343     56342     56344     56343     56344
     56345     56346     56345     56347     56346     56347     56348     56349
     56348     56350     56349     56350     56351     56352     56351     56353
     56352     56353     56354     56355     56354     56356     56355     56356
     56357     56358     56357     56359     56358     56359     56360     56361
     56360     56362     56361     56362     56363     56364     56363     56365
     56364     56365     56366     56367     56366     56368     56367     56368
     56369     56370     56369     56371     56370     56371     56372     56373
     56372     56374     56373     56374     56375     56376     56375     56377
     56376     56377     56378     56379     56378     56380     56379     56380
     56381     56382     56381     56383     56382     56383     56384     56385
     56384     56386     56385     56386     56387     56388     56387     56389
     56388     56389     56390     56391     56390     56392     56391     56392
     56393     56394     56393     56395     56394     56395     56396     56397
     56396     56398     56397     56398     56399     56400     56399     56401
     56400     56401     56402     56403     56402     56404     56403     56404
     56405     56406     56405     56407     56406     56407     56408     56409
     56408     56410     56409     56410     56411     56412     56411     56413
     56412     56413     56414     56415     56414     56416     56415     56416
     56417     56418     56417     56419     56418     56419     56420     56421
     56420     56422     56421     56422     56423     56424     56423     56425
     56424     56425     56426     56427     56426     56428     56427     56428
     56429     56430     56429     56431     56430     56431     56432     56433
     56432     56434     56433     56434     56435     56436     56435     56437
     56436     56437     56438     56439     56438     56440     56439     56440
     56441     56442     56441     56443     56442     56443     56444     56445
     56444     56446     56445     56446     56447     56448     56447     56449
     56448     56449     56450     56451     56450     56452     56451     56452
     56453     56454     56453     56455     56454     56455     56456     56457
     56456     56458     56457     56458     56459     56460     56459     56461
     56460     56461     56462     56463     56462     56464     56463     56464
     56465     56466     56465     56467     56466     56467     56468     56469
     56468     56470     56469     56470     56471     56472     56471     56473
     56472     56473     56474     56475     56474     56476     56475     56476
     56477     56478     56477     56479     56478     56479     56480     56481
     56480     56482     56481     56482     56483     56484     56483     56485
     56484     56485     56486     56487     56486     56488     56487     56488
     56489     56490     56489     56491     56490     56491     56492     56493
     56492     56494     56493     56494     56495     56496     56495     56497
     56496     56497     56498     56499     56498     56500     56499     56500
     56501     56502     56501     56503     56502     56503     56504     56505
     56504     56506     56505     56506     56507     56508     56507     56509
     56508     56509     56510     56511     56510     56512     56511     56512
     56513     56514     56513     56515     56514     56515     56516     56517
     56516     56518     56517     56518     56519     56520     56519     56521
     56520     56521     56522     56523     56522     56524     56523     56524
     56525     56526     56525     56527     56526     56527     56528     56529
     56528     56530     56529     56530     56531     56532     56531     56533
     56532     56533     56534     56535     56534     56536     56535     56536
     56537     56538     56537     56539     56538     56539     56540     56541
     56540     56542     56541     56542     56543     56544     56543     56545
     56544     56545     56546     56547     56546     56548     56547     56548
     56549     56550     56549     56551     56550     56551     56552     56553
     56552     56554     56553     56554     56555     56556     56555     56557
     56556     56557     56558     56559     56558     56560     56559     56560
     56561     56562     56561     56563     56562     56563     56564     56565
     56564     56566     56565     56566     56567     56568     56567     56569
     56568     56569     56570     56571     56570     56572     56571     56572
     56573     56574     56573     56575     56574     56575     56576     56577
     56576     56578     56577     56578     56579     56580     56579     56581
     56580     56581     56582     56583     56582     56584     56583     56584
     56585     56586     56585     56587     56586     56587     56588     56589
     56588     56590     56589     56590     56591     56592     56591     56593
     56592     56593     56594     56595     56594     56596     56595     56596
     56597     56598     56597     56599     56598     56599     56600     56601
     56600     56602     56601     56602     56603     56604     56603     56605
     56604     56605     56606     56607     56606     56608     56607     56608
     56609     56610     56609     56611     56610     56611     56612     56613
     56612     56614     56613     56614     56615     56616     56615     56617
     56616     56617     56618     56619     56618     56620     56619     56620
     56621     56622     56621     56623     56622     56623     56624     56625
     56624     56626     56625     56626     56627     56628     56627     56629
     56628     56629     56630     56631     56630     56632     56631     56632
     56633     56634     56633     56635     56634     56635     56636     56637
     56636     56638     56637     56638     56639     56640     56639     56641
     56640     56641     56642     56643     56642     56644     56643     56644
     56645     56646     56645     56647     56646     56647     56648     56649
     56648     56650     56649     56650     56651     56652     56651     56653
     56652     56653     56654     56655     56654     56656     56655     56656
     56657     56658     56657     56659     56658     56659     56660     56661
     56660     56662     56661     56662     56663     56664     56663     56665
     56664     56665     56666     56667     56666     56668     56667     56668
     56669     56670     56669     56671     56670     56671     56672     56673
     56672     56674     56673     56674     56675     56676     56675     56677
     56676     56677     56678     56679     56678     56680     56679     56680
     56681     56682     56681     56683     56682     56683     56684     56685
     56684     56686     56685     56686     56687     56688     56687     56689
     56688     56689     56690     56691     56690     56692     56691     56692
     56693     56694     56693     56695     56694     56695     56696     56697
     56696     56698     56697     56698     56699     56700     56699     56701
     56700     56701     56702     56703     56702     56704     56703     56704
     56705     56706     56705     56707     56706     56707     56708     56709
     56708     56710     56709     56710     56711     56712     56711     56713
     56712     56713     56714     56715     56714     56716     56715     56716
     56717     56718     56717     56719     56718     56719     56720     56721
     56720     56722     56721     56722     56723     56724     56723     56725
     56724     56725     56726     56727     56726     56728     56727     56728
     56729     56730     56729     56731     56730     56731     56732     56733
     56732     56734     56733     56734     56735     56736     56735     56737
     56736     56737     56738     56739     56738     56740     56739     56740
     56741     56742     56741     56743     56742     56743     56744     56745
     56744     56746     56745     56746     56747     56748     56747     56749
     56748     56749     56750     56751     56750     56752     56751     56752
     56753     56754     56753     56755     56754     56755     56756     56757
     56756     56758     56757     56758     56759     56760     56759     56761
     56760     56761     56762     56763     56762     56764     56763     56764
     56765     56766     56765     56767     56766     56767     56768     56769
     56768     56770     56769     56770     56771     56772     56771     56773
     56772     56773     56774     56775     56774     56776     56775     56776
     56777     56778     56777     56779     56778     56779     56780     56781
     56780     56782     56781     56782     56783     56784     56783     56785
     56784     56785     56786     56787     56786     56788     56787     56788
     56789     56790     56789     56791     56790     56791     56792     56793
     56792     56794     56793     56794     56795     56796     56795     56797
     56796     56797     56798     56799     56798     56800     56799     56800
     56801     56802     56801     56803     56802     56803     56804     56805
     56804     56806     56805     56806     56807     56808     56807     56809
     56808     56809     56810     56811     56810     56812     56811     56812
     56813     56814     56813     56815     56814     56815     56816     56817
     56816     56818     56817     56818     56819     56820     56819     56821
     56820     56821     56822     56823     56822     56824     56823     56824
     56825     56826     56825     56827     56826     56827     56828     56829
     56828     56830     56829     56830     56831     56832     56831     56833
     56832     56833     56834     56835     56834     56836     56835     56836
     56837     56838     56837     56839     56838     56839     56840     56841
     56840     56842     56841     56842     56843     56844     56843     56845
     56844     56845     56846     56847     56846     56848     56847     56848
     56849     56850     56849     56851     56850     56851     56852     56853
     56852     56854     56853     56854     56855     56856     56855     56857
     56856     56857     56858     56859     56858     56860     56859     56860
     56861     56862     56861     56863     56862     56863     56864     56865
     56864     56866     56865     56866     56867     56868     56867     56869
     56868     56869     56870     56871     56870     56872     56871     56872
     56873     56874     56873     56875     56874     56875     56876     56877
     56876     56878     56877     56878     56879     56880     56879     56881
     56880     56881     56882     56883     56882     56884     56883     56884
     56885     56886     56885     56887     56886     56887     56888     56889
     56888     56890     56889     56890     56891     56892     56891     56893
     56892     56893     56894     56895     56894     56896     56895     56896
     56897     56898     56897     56899     56898     56899     56900     56901
     56900     56902     56901     56902     56903     56904     56903     56905
     56904     56905     56906     56907     56906     56908     56907     56908
     56909     56910     56909     56911     56910     56911     56912     56913
     56912     56914     56913     56914     56915     56916     56915     56917
     56916     56917     56918     56919     56918     56920     56919     56920
     56921     56922     56921     56923     56922     56923     56924     56925
     56924     56926     56925     56926     56927     56928     56927     56929
     56928     56929     56930     56931     56930     56932     56931     56932
     56933     56934     56933     56935     56934     56935     56936     56937
     56936     56938     56937     56938     56939     56940     56939     56941
     56940     56941     56942     56943     56942     56944     56943     56944
     56945     56946     56945     56947     56946     56947     56948     56949
     56948     56950     56949     56950     56951     56952     56951     56953
     56952     56953     56954     56955     56954     56956     56955     56956
     56957     56958     56957     56959     56958     56959     56960     56961
     56960     56962     56961     56962     56963     56964     56963     56965
     56964     56965     56966     56967     56966     56968     56967     56968
     56969     56970     56969     56971     56970     56971     56972     56973
     56972     56974     56973     56974     56975     56976     56975     56977
     56976     56977     56978     56979     56978     56980     56979     56980
     56981     56982     56981     56983     56982     56983     56984     56985
     56984     56986     56985     56986     56987     56988     56987     56989
     56988     56989     56990     56991     56990     56992     56991     56992
     56993     56994     56993     56995     56994     56995     56996     56997
     56996     56998     56997     56998     56999     57000     56999     57001
     57000     57001     57002     57003     57002     57004     57003     57004
     57005     57006     57005     57007     57006     57007     57008     57009
     57008     57010     57009     57010     57011     57012     57011     57013
     57012     57013     57014     57015     57014     57016     57015     57016
     57017     57018     57017     57019     57018     57019     57020     57021
     57020     57022     57021     57022     57023     57024     57023     57025
     57024     57025     57026     57027     57026     57028     57027     57028
     57029     57030     57029     57031     57030     57031     57032     57033
     57032     57034     57033     57034     57035     57036     57035     57037
     57036     57037     57038     57039     57038     57040     57039     57040
     57041     57042     57041     57043     57042     57043     57044     57045
     57044     57046     57045     57046     57047     57048     57047     57049
     57048     57049     57050     57051     57050     57052     57051     57052
     57053     57054     57053     57055     57054     57055     57056     57057
     57056     57058     57057     57058     57059     57060     57059     57061
     57060     57061     57062     57063     57062     57064     57063     57064
     57065     57066     57065     57067     57066     57067     57068     57069
     57068     57070     57069     57070     57071     57072     57071     57073
     57072     57073     57074     57075     57074     57076     57075     57076
     57077     57078     57077     57079     57078     57079     57080     57081
     57080     57082     57081     57082     57083     57084     57083     57085
     57084     57085     57086     57087     57086     57088     57087     57088
     57089     57090     57089     57091     57090     57091     57092     57093
     57092     57094     57093     57094     57095     57096     57095     57097
     57096     57097     57098     57099     57098     57100     57099     57100
     57101     57102     57101     57103     57102     57103     57104     57105
     57104     57106     57105     57106     57107     57108     57107     57109
     57108     57109     57110     57111     57110     57112     57111     57112
     57113     57114     57113     57115     57114     57115     57116     57117
     57116     57118     57117     57118     57119     57120     57119     57121
     57120     57121     57122     57123     57122     57124     57123     57124
     57125     57126     57125     57127     57126     57127     57128     57129
     57128     57130     57129     57130     57131     57132     57131     57133
     57132     57133     57134     57135     57134     57136     57135     57136
     57137     57138     57137     57139     57138     57139     57140     57141
     57140     57142     57141     57142     57143     57144     57143     57145
     57144     57145     57146     57147     57146     57148     57147     57148
     57149     57150     57149     57151     57150     57151     57152     57153
     57152     57154     57153     57154     57155     57156     57155     57157
     57156     57157     57158     57159     57158     57160     57159     57160
     57161     57162     57161     57163     57162     57163     57164     57165
     57164     57166     57165     57166     57167     57168     57167     57169
     57168     57169     57170     57171     57170     57172     57171     57172
     57173     57174     57173     57175     57174     57175     57176     57177
     57176     57178     57177     57178     57179     57180     57179     57181
     57180     57181     57182     57183     57182     57184     57183     57184
     57185     57186     57185     57187     57186     57187     57188     57189
     57188     57190     57189     57190     57191     57192     57191     57193
     57192     57193     57194     57195     57194     57196     57195     57196
     57197     57198     57197     57199     57198     57199     57200     57201
     57200     57202     57201     57202     57203     57204     57203     57205
     57204     57205     57206     57207     57206     57208     57207     57208
     57209     57210     57209     57211     57210     57211     57212     57213
     57212     57214     57213     57214     57215     57216     57215     57217
     57216     57217     57218     57219     57218     57220     57219     57220
     57221     57222     57221     57223     57222     57223     57224     57225
     57224     57226     57225     57226     57227     57228     57227     57229
     57228     57229     57230     57231     57230     57232     57231     57232
     57233     57234     57233     57235     57234     57235     57236     57237
     57236     57238     57237     57238     57239     57240     57239     57241
     57240     57241     57242     57243     57242     57244     57243     57244
     57245     57246     57245     57247     57246     57247     57248     57249
     57248     57250     57249     57250     57251     57252     57251     57253
     57252     57253     57254     57255     57254     57256     57255     57256
     57257     57258     57257     57259     57258     57259     57260     57261
     57260     57262     57261     57262     57263     57264     57263     57265
     57264     57265     57266     57267     57266     57268     57267     57268
     57269     57270     57269     57271     57270     57271     57272     57273
     57272     57274     57273     57274     57275     57276     57275     57277
     57276     57277     57278     57279     57278     57280     57279     57280
     57281     57282     57281     57283     57282     57283     57284     57285
     57284     57286     57285     57286     57287     57288     57287     57289
     57288     57289     57290     57291     57290     57292     57291     57292
     57293     57294     57293     57295     57294     57295     57296     57297
     57296     57298     57297     57298     57299     57300     57299     57301
     57300     57301     57302     57303     57302     57304     57303     57304
     57305     57306     57305     57307     57306     57307     57308     57309
     57308     57310     57309     57310     57311     57312     57311     57313
     57312     57313     57314     57315     57314     57316     57315     57316
     57317     57318     57317     57319     57318     57319     57320     57321
     57320     57322     57321     57322     57323     57324     57323     57325
     57324     57325     57326     57327     57326     57328     57327     57328
     57329     57330     57329     57331     57330     57331     57332     57333
     57332     57334     57333     57334     57335     57336     57335     57337
     57336     57337     57338     57339     57338     57340     57339     57340
     57341     57342     57341     57343     57342     57343     57344     57345
     57344     57346     57345     57346     57347     57348     57347     57349
     57348     57349     57350     57351     57350     57352     57351     57352
     57353     57354     57353     57355     57354     57355     57356     57357
     57356     57358     57357     57358     57359     57360     57359     57361
     57360     57361     57362     57363     57362     57364     57363     57364
     57365     57366     57365     57367     57366     57367     57368     57369
     57368     57370     57369     57370     57371     57372     57371     57373
     57372     57373     57374     57375     57374     57376     57375     57376
     57377     57378     57377     57379     57378     57379     57380     57381
     57380     57382     57381     57382     57383     57384     57383     57385
     57384     57385     57386     57387     57386     57388     57387     57388
     57389     57390     57389     57391     57390     57391     57392     57393
     57392     57394     57393     57394     57395     57396     57395     57397
     57396     57397     57398     57399     57398     57400     57399     57400
     57401     57402     57401     57403     57402     57403     57404     57405
     57404     57406     57405     57406     57407     57408     57407     57409
     57408     57409     57410     57411     57410     57412     57411     57412
     57413     57414     57413     57415     57414     57415     57416     57417
     57416     57418     57417     57418     57419     57420     57419     57421
     57420     57421     57422     57423     57422     57424     57423     57424
     57425     57426     57425     57427     57426     57427     57428     57429
     57428     57430     57429     57430     57431     57432     57431     57433
     57432     57433     57434     57435     57434     57436     57435     57436
     57437     57438     57437     57439     57438     57439     57440     57441
     57440     57442     57441     57442     57443     57444     57443     57445
     57444     57445     57446     57447     57446     57448     57447     57448
     57449     57450     57449     57451     57450     57451     57452     57453
     57452     57454     57453     57454     57455     57456     57455     57457
     57456     57457     57458     57459     57458     57460     57459     57460
     57461     57462     57461     57463     57462     57463     57464     57465
     57464     57466     57465     57466     57467     57468     57467     57469
     57468     57469     57470     57471     57470     57472     57471     57472
     57473     57474     57473     57475     57474     57475     57476     57477
     57476     57478     57477     57478     57479     57480     57479     57481
     57480     57481     57482     57483     57482     57484     57483     57484
     57485     57486     57485     57487     57486     57487     57488     57489
     57488     57490     57489     57490     57491     57492     57491     57493
     57492     57493     57494     57495     57494     57496     57495     57496
     57497     57498     57497     57499     57498     57499     57500     57501
     57500     57502     57501     57502     57503     57504     57503     57505
     57504     57505     57506     57507     57506     57508     57507     57508
     57509     57510     57509     57511     57510     57511     57512     57513
     57512     57514     57513     57514     57515     57516     57515     57517
     57516     57517     57518     57519     57518     57520     57519     57520
     57521     57522     57521     57523     57522     57523     57524     57525
     57524     57526     57525     57526     57527     57528     57527     57529
     57528     57529     57530     57531     57530     57532     57531     57532
     57533     57534     57533     57535     57534     57535     57536     57537
     57536     57538     57537     57538     57539     57540     57539     57541
     57540     57541     57542     57543     57542     57544     57543     57544
     57545     57546     57545     57547     57546     57547     57548     57549
     57548     57550     57549     57550     57551     57552     57551     57553
     57552     57553     57554     57555     57554     57556     57555     57556
     57557     57558     57557     57559     57558     57559     57560     57561
     57560     57562     57561     57562     57563     57564     57563     57565
     57564     57565     57566     57567     57566     57568     57567     57568
     57569     57570     57569     57571     57570     57571     57572     57573
     57572     57574     57573     57574     57575     57576     57575     57577
     57576     57577     57578     57579     57578     57580     57579     57580
     57581     57582     57581     57583     57582     57583     57584     57585
     57584     57586     57585     57586     57587     57588     57587     57589
     57588     57589     57590     57591     57590     57592     57591     57592
     57593     57594     57593     57595     57594     57595     57596     57597
     57596     57598     57597     57598     57599     57600     57599     57601
     57600     57601     57602     57603     57602     57604     57603     57604
     57605     57606     57605     57607     57606     57607     57608     57609
     57608     57610     57609     57610     57611     57612     57611     57613
     57612     57613     57614     57615     57614     57616     57615     57616
     57617     57618     57617     57619     57618     57619     57620     57621
     57620     57622     57621     57622     57623     57624     57623     57625
     57624     57625     57626     57627     57626     57628     57627     57628
     57629     57630     57629     57631     57630     57631     57632     57633
     57632     57634     57633     57634     57635     57636     57635     57637
     57636     57637     57638     57639     57638     57640     57639     57640
     57641     57642     57641     57643     57642     57643     57644     57645
     57644     57646     57645     57646     57647     57648     57647     57649
     57648     57649     57650     57651     57650     57652     57651     57652
     57653     57654     57653     57655     57654     57655     57656     57657
     57656     57658     57657     57658     57659     57660     57659     57661
     57660     57661     57662     57663     57662     57664     57663     57664
     57665     57666     57665     57667     57666     57667     57668     57669
     57668     57670     57669     57670     57671     57672     57671     57673
     57672     57673     57674     57675     57674     57676     57675     57676
     57677     57678     57677     57679     57678     57679     57680     57681
     57680     57682     57681     57682     57683     57684     57683     57685
     57684     57685     57686     57687     57686     57688     57687     57688
     57689     57690     57689     57691     57690     57691     57692     57693
     57692     57694     57693     57694     57695     57696     57695     57697
     57696     57697     57698     57699     57698     57700     57699     57700
     57701     57702     57701     57703     57702     57703     57704     57705
     57704     57706     57705     57706     57707     57708     57707     57709
     57708     57709     57710     57711     57710     57712     57711     57712
     57713     57714     57713     57715     57714     57715     57716     57717
     57716     57718     57717     57718     57719     57720     57719     57721
     57720     57721     57722     57723     57722     57724     57723     57724
     57725     57726     57725     57727     57726     57727     57728     57729
     57728     57730     57729     57730     57731     57732     57731     57733
     57732     57733     57734     57735     57734     57736     57735     57736
     57737     57738     57737     57739     57738     57739     57740     57741
     57740     57742     57741     57742     57743     57744     57743     57745
     57744     57745     57746     57747     57746     57748     57747     57748
     57749     57750     57749     57751     57750     57751     57752     57753
     57752     57754     57753     57754     57755     57756     57755     57757
     57756     57757     57758     57759     57758     57760     57759     57760
     57761     57762     57761     57763     57762     57763     57764     57765
     57764     57766     57765     57766     57767     57768     57767     57769
     57768     57769     57770     57771     57770     57772     57771     57772
     57773     57774     57773     57775     57774     57775     57776     57777
     57776     57778     57777     57778     57779     57780     57779     57781
     57780     57781     57782     57783     57782     57784     57783     57784
     57785     57786     57785     57787     57786     57787     57788     57789
     57788     57790     57789     57790     57791     57792     57791     57793
     57792     57793     57794     57795     57794     57796     57795     57796
     57797     57798     57797     57799     57798     57799     57800     57801
     57800     57802     57801     57802     57803     57804     57803     57805
     57804     57805     57806     57807     57806     57808     57807     57808
     57809     57810     57809     57811     57810     57811     57812     57813
     57812     57814     57813     57814     57815     57816     57815     57817
     57816     57817     57818     57819     57818     57820     57819     57820
     57821     57822     57821     57823     57822     57823     57824     57825
     57824     57826     57825     57826     57827     57828     57827     57829
     57828     57829     57830     57831     57830     57832     57831     57832
     57833     57834     57833     57835     57834     57835     57836     57837
     57836     57838     57837     57838     57839     57840     57839     57841
     57840     57841     57842     57843     57842     57844     57843     57844
     57845     57846     57845     57847     57846     57847     57848     57849
     57848     57850     57849     57850     57851     57852     57851     57853
     57852     57853     57854     57855     57854     57856     57855     57856
     57857     57858     57857     57859     57858     57859     57860     57861
     57860     57862     57861     57862     57863     57864     57863     57865
     57864     57865     57866     57867     57866     57868     57867     57868
     57869     57870     57869     57871     57870     57871     57872     57873
     57872     57874     57873     57874     57875     57876     57875     57877
     57876     57877     57878     57879     57878     57880     57879     57880
     57881     57882     57881     57883     57882     57883     57884     57885
     57884     57886     57885     57886     57887     57888     57887     57889
     57888     57889     57890     57891     57890     57892     57891     57892
     57893     57894     57893     57895     57894     57895     57896     57897
     57896     57898     57897     57898     57899     57900     57899     57901
     57900     57901     57902     57903     57902     57904     57903     57904
     57905     57906     57905     57907     57906     57907     57908     57909
     57908     57910     57909     57910     57911     57912     57911     57913
     57912     57913     57914     57915     57914     57916     57915     57916
     57917     57918     57917     57919     57918     57919     57920     57921
     57920     57922     57921     57922     57923     57924     57923     57925
     57924     57925     57926     57927     57926     57928     57927     57928
     57929     57930     57929     57931     57930     57931     57932     57933
     57932     57934     57933     57934     57935     57936     57935     57937
     57936     57937     57938     57939     57938     57940     57939     57940
     57941     57942     57941     57943     57942     57943     57944     57945
     57944     57946     57945     57946     57947     57948     57947     57949
     57948     57949     57950     57951     57950     57952     57951     57952
     57953     57954     57953     57955     57954     57955     57956     57957
     57956     57958     57957     57958     57959     57960     57959     57961
     57960     57961     57962     57963     57962     57964     57963     57964
     57965     57966     57965     57967     57966     57967     57968     57969
     57968     57970     57969     57970     57971     57972     57971     57973
     57972     57973     57974     57975     57974     57976     57975     57976
     57977     57978     57977     57979     57978     57979     57980     57981
     57980     57982     57981     57982     57983     57984     57983     57985
     57984     57985     57986     57987     57986     57988     57987     57988
     57989     57990     57989     57991     57990     57991     57992     57993
     57992     57994     57993     57994     57995     57996     57995     57997
     57996     57997     57998     57999     57998     58000     57999     58000
     58001     58002     58001     58003     58002     58003     58004     58005
     58004     58006     58005     58006     58007     58008     58007     58009
     58008     58009     58010     58011     58010     58012     58011     58012
     58013     58014     58013     58015     58014     58015     58016     58017
     58016     58018     58017     58018     58019     58020     58019     58021
     58020     58021     58022     58023     58022     58024     58023     58024
     58025     58026     58025     58027     58026     58027     58028     58029
     58028     58030     58029     58030     58031     58032     58031     58033
     58032     58033     58034     58035     58034     58036     58035     58036
     58037     58038     58037     58039     58038     58039     58040     58041
     58040     58042     58041     58042     58043     58044     58043     58045
     58044     58045     58046     58047     58046     58048     58047     58048
     58049     58050     58049     58051     58050     58051     58052     58053
     58052     58054     58053     58054     58055     58056     58055     58057
     58056     58057     58058     58059     58058     58060     58059     58060
     58061     58062     58061     58063     58062     58063     58064     58065
     58064     58066     58065     58066     58067     58068     58067     58069
     58068     58069     58070     58071     58070     58072     58071     58072
     58073     58074     58073     58075     58074     58075     58076     58077
     58076     58078     58077     58078     58079     58080     58079     58081
     58080     58081     58082     58083     58082     58084     58083     58084
     58085     58086     58085     58087     58086     58087     58088     58089
     58088     58090     58089     58090     58091     58092     58091     58093
     58092     58093     58094     58095     58094     58096     58095     58096
     58097     58098     58097     58099     58098     58099     58100     58101
     58100     58102     58101     58102     58103     58104     58103     58105
     58104     58105     58106     58107     58106     58108     58107     58108
     58109     58110     58109     58111     58110     58111     58112     58113
     58112     58114     58113     58114     58115     58116     58115     58117
     58116     58117     58118     58119     58118     58120     58119     58120
     58121     58122     58121     58123     58122     58123     58124     58125
     58124     58126     58125     58126     58127     58128     58127     58129
     58128     58129     58130     58131     58130     58132     58131     58132
     58133     58134     58133     58135     58134     58135     58136     58137
     58136     58138     58137     58138     58139     58140     58139     58141
     58140     58141     58142     58143     58142     58144     58143     58144
     58145     58146     58145     58147     58146     58147     58148     58149
     58148     58150     58149     58150     58151     58152     58151     58153
     58152     58153     58154     58155     58154     58156     58155     58156
     58157     58158     58157     58159     58158     58159     58160     58161
     58160     58162     58161     58162     58163     58164     58163     58165
     58164     58165     58166     58167     58166     58168     58167     58168
     58169     58170     58169     58171     58170     58171     58172     58173
     58172     58174     58173     58174     58175     58176     58175     58177
     58176     58177     58178     58179     58178     58180     58179     58180
     58181     58182     58181     58183     58182     58183     58184     58185
     58184     58186     58185     58186     58187     58188     58187     58189
     58188     58189     58190     58191     58190     58192     58191     58192
     58193     58194     58193     58195     58194     58195     58196     58197
     58196     58198     58197     58198     58199     58200     58199     58201
     58200     58201     58202     58203     58202     58204     58203     58204
     58205     58206     58205     58207     58206     58207     58208     58209
     58208     58210     58209     58210     58211     58212     58211     58213
     58212     58213     58214     58215     58214     58216     58215     58216
     58217     58218     58217     58219     58218     58219     58220     58221
     58220     58222     58221     58222     58223     58224     58223     58225
     58224     58225     58226     58227     58226     58228     58227     58228
     58229     58230     58229     58231     58230     58231     58232     58233
     58232     58234     58233     58234     58235     58236     58235     58237
     58236     58237     58238     58239     58238     58240     58239     58240
     58241     58242     58241     58243     58242     58243     58244     58245
     58244     58246     58245     58246     58247     58248     58247     58249
     58248     58249     58250     58251     58250     58252     58251     58252
     58253     58254     58253     58255     58254     58255     58256     58257
     58256     58258     58257     58258     58259     58260     58259     58261
     58260     58261     58262     58263     58262     58264     58263     58264
     58265     58266     58265     58267     58266     58267     58268     58269
     58268     58270     58269     58270     58271     58272     58271     58273
     58272     58273     58274     58275     58274     58276     58275     58276
     58277     58278     58277     58279     58278     58279     58280     58281
     58280     58282     58281     58282     58283     58284     58283     58285
     58284     58285     58286     58287     58286     58288     58287     58288
     58289     58290     58289     58291     58290     58291     58292     58293
     58292     58294     58293     58294     58295     58296     58295     58297
     58296     58297     58298     58299     58298     58300     58299     58300
     58301     58302     58301     58303     58302     58303     58304     58305
     58304     58306     58305     58306     58307     58308     58307     58309
     58308     58309     58310     58311     58310     58312     58311     58312
     58313     58314     58313     58315     58314     58315     58316     58317
     58316     58318     58317     58318     58319     58320     58319     58321
     58320     58321     58322     58323     58322     58324     58323     58324
     58325     58326     58325     58327     58326     58327     58328     58329
     58328     58330     58329     58330     58331     58332     58331     58333
     58332     58333     58334     58335     58334     58336     58335     58336
     58337     58338     58337     58339     58338     58339     58340     58341
     58340     58342     58341     58342     58343     58344     58343     58345
     58344     58345     58346     58347     58346     58348     58347     58348
     58349     58350     58349     58351     58350     58351     58352     58353
     58352     58354     58353     58354     58355     58356     58355     58357
     58356     58357     58358     58359     58358     58360     58359     58360
     58361     58362     58361     58363     58362     58363     58364     58365
     58364     58366     58365     58366     58367     58368     58367     58369
     58368     58369     58370     58371     58370     58372     58371     58372
     58373     58374     58373     58375     58374     58375     58376     58377
     58376     58378     58377     58378     58379     58380     58379     58381
     58380     58381     58382     58383     58382     58384     58383     58384
     58385     58386     58385     58387     58386     58387     58388     58389
     58388     58390     58389     58390     58391     58392     58391     58393
     58392     58393     58394     58395     58394     58396     58395     58396
     58397     58398     58397     58399     58398     58399     58400     58401
     58400     58402     58401     58402     58403     58404     58403     58405
     58404     58405     58406     58407     58406     58408     58407     58408
     58409     58410     58409     58411     58410     58411     58412     58413
     58412     58414     58413     58414     58415     58416     58415     58417
     58416     58417     58418     58419     58418     58420     58419     58420
     58421     58422     58421     58423     58422     58423     58424     58425
     58424     58426     58425     58426     58427     58428     58427     58429
     58428     58429     58430     58431     58430     58432     58431     58432
     58433     58434     58433     58435     58434     58435     58436     58437
     58436     58438     58437     58438     58439     58440     58439     58441
     58440     58441     58442     58443     58442     58444     58443     58444
     58445     58446     58445     58447     58446     58447     58448     58449
     58448     58450     58449     58450     58451     58452     58451     58453
     58452     58453     58454     58455     58454     58456     58455     58456
     58457     58458     58457     58459     58458     58459     58460     58461
     58460     58462     58461     58462     58463     58464     58463     58465
     58464     58465     58466     58467     58466     58468     58467     58468
     58469     58470     58469     58471     58470     58471     58472     58473
     58472     58474     58473     58474     58475     58476     58475     58477
     58476     58477     58478     58479     58478     58480     58479     58480
     58481     58482     58481     58483     58482     58483     58484     58485
     58484     58486     58485     58486     58487     58488     58487     58489
     58488     58489     58490     58491     58490     58492     58491     58492
     58493     58494     58493     58495     58494     58495     58496     58497
     58496     58498     58497     58498     58499     58500     58499     58501
     58500     58501     58502     58503     58502     58504     58503     58504
     58505     58506     58505     58507     58506     58507     58508     58509
     58508     58510     58509     58510     58511     58512     58511     58513
     58512     58513     58514     58515     58514     58516     58515     58516
     58517     58518     58517     58519     58518     58519     58520     58521
     58520     58522     58521     58522     58523     58524     58523     58525
     58524     58525     58526     58527     58526     58528     58527     58528
     58529     58530     58529     58531     58530     58531     58532     58533
     58532     58534     58533     58534     58535     58536     58535     58537
     58536     58537     58538     58539     58538     58540     58539     58540
     58541     58542     58541     58543     58542     58543     58544     58545
     58544     58546     58545     58546     58547     58548     58547     58549
     58548     58549     58550     58551     58550     58552     58551     58552
     58553     58554     58553     58555     58554     58555     58556     58557
     58556     58558     58557     58558     58559     58560     58559     58561
     58560     58561     58562     58563     58562     58564     58563     58564
     58565     58566     58565     58567     58566     58567     58568     58569
     58568     58570     58569     58570     58571     58572     58571     58573
     58572     58573     58574     58575     58574     58576     58575     58576
     58577     58578     58577     58579     58578     58579     58580     58581
     58580     58582     58581     58582     58583     58584     58583     58585
     58584     58585     58586     58587     58586     58588     58587     58588
     58589     58590     58589     58591     58590     58591     58592     58593
     58592     58594     58593     58594     58595     58596     58595     58597
     58596     58597     58598     58599     58598     58600     58599     58600
     58601     58602     58601     58603     58602     58603     58604     58605
     58604     58606     58605     58606     58607     58608     58607     58609
     58608     58609     58610     58611     58610     58612     58611     58612
     58613     58614     58613     58615     58614     58615     58616     58617
     58616     58618     58617     58618     58619     58620     58619     58621
     58620     58621     58622     58623     58622     58624     58623     58624
     58625     58626     58625     58627     58626     58627     58628     58629
     58628     58630     58629     58630     58631     58632     58631     58633
     58632     58633     58634     58635     58634     58636     58635     58636
     58637     58638     58637     58639     58638     58639     58640     58641
     58640     58642     58641     58642     58643     58644     58643     58645
     58644     58645     58646     58647     58646     58648     58647     58648
     58649     58650     58649     58651     58650     58651     58652     58653
     58652     58654     58653     58654     58655     58656     58655     58657
     58656     58657     58658     58659     58658     58660     58659     58660
     58661     58662     58661     58663     58662     58663     58664     58665
     58664     58666     58665     58666     58667     58668     58667     58669
     58668     58669     58670     58671     58670     58672     58671     58672
     58673     58674     58673     58675     58674     58675     58676     58677
     58676     58678     58677     58678     58679     58680     58679     58681
     58680     58681     58682     58683     58682     58684     58683     58684
     58685     58686     58685     58687     58686     58687     58688     58689
     58688     58690     58689     58690     58691     58692     58691     58693
     58692     58693     58694     58695     58694     58696     58695     58696
     58697     58698     58697     58699     58698     58699     58700     58701
     58700     58702     58701     58702     58703     58704     58703     58705
     58704     58705     58706     58707     58706     58708     58707     58708
     58709     58710     58709     58711     58710     58711     58712     58713
     58712     58714     58713     58714     58715     58716     58715     58717
     58716     58717     58718     58719     58718     58720     58719     58720
     58721     58722     58721     58723     58722     58723     58724     58725
     58724     58726     58725     58726     58727     58728     58727     58729
     58728     58729     58730     58731     58730     58732     58731     58732
     58733     58734     58733     58735     58734     58735     58736     58737
     58736     58738     58737     58738     58739     58740     58739     58741
     58740     58741     58742     58743     58742     58744     58743     58744
     58745     58746     58745     58747     58746     58747     58748     58749
     58748     58750     58749     58750     58751     58752     58751     58753
     58752     58753     58754     58755     58754     58756     58755     58756
     58757     58758     58757     58759     58758     58759     58760     58761
     58760     58762     58761     58762     58763     58764     58763     58765
     58764     58765     58766     58767     58766     58768     58767     58768
     58769     58770     58769     58771     58770     58771     58772     58773
     58772     58774     58773     58774     58775     58776     58775     58777
     58776     58777     58778     58779     58778     58780     58779     58780
     58781     58782     58781     58783     58782     58783     58784     58785
     58784     58786     58785     58786     58787     58788     58787     58789
     58788     58789     58790     58791     58790     58792     58791     58792
     58793     58794     58793     58795     58794     58795     58796     58797
     58796     58798     58797     58798     58799     58800     58799     58801
     58800     58801     58802     58803     58802     58804     58803     58804
     58805     58806     58805     58807     58806     58807     58808     58809
     58808     58810     58809     58810     58811     58812     58811     58813
     58812     58813     58814     58815     58814     58816     58815     58816
     58817     58818     58817     58819     58818     58819     58820     58821
     58820     58822     58821     58822     58823     58824     58823     58825
     58824     58825     58826     58827     58826     58828     58827     58828
     58829     58830     58829     58831     58830     58831     58832     58833
     58832     58834     58833     58834     58835     58836     58835     58837
     58836     58837     58838     58839     58838     58840     58839     58840
     58841     58842     58841     58843     58842     58843     58844     58845
     58844     58846     58845     58846     58847     58848     58847     58849
     58848     58849     58850     58851     58850     58852     58851     58852
     58853     58854     58853     58855     58854     58855     58856     58857
     58856     58858     58857     58858     58859     58860     58859     58861
     58860     58861     58862     58863     58862     58864     58863     58864
     58865     58866     58865     58867     58866     58867     58868     58869
     58868     58870     58869     58870     58871     58872     58871     58873
     58872     58873     58874     58875     58874     58876     58875     58876
     58877     58878     58877     58879     58878     58879     58880     58881
     58880     58882     58881     58882     58883     58884     58883     58885
     58884     58885     58886     58887     58886     58888     58887     58888
     58889     58890     58889     58891     58890     58891     58892     58893
     58892     58894     58893     58894     58895     58896     58895     58897
     58896     58897     58898     58899     58898     58900     58899     58900
     58901     58902     58901     58903     58902     58903     58904     58905
     58904     58906     58905     58906     58907     58908     58907     58909
     58908     58909     58910     58911     58910     58912     58911     58912
     58913     58914     58913     58915     58914     58915     58916     58917
     58916     58918     58917     58918     58919     58920     58919     58921
     58920     58921     58922     58923     58922     58924     58923     58924
     58925     58926     58925     58927     58926     58927     58928     58929
     58928     58930     58929     58930     58931     58932     58931     58933
     58932     58933     58934     58935     58934     58936     58935     58936
     58937     58938     58937     58939     58938     58939     58940     58941
     58940     58942     58941     58942     58943     58944     58943     58945
     58944     58945     58946     58947     58946     58948     58947     58948
     58949     58950     58949     58951     58950     58951     58952     58953
     58952     58954     58953     58954     58955     58956     58955     58957
     58956     58957     58958     58959     58958     58960     58959     58960
     58961     58962     58961     58963     58962     58963     58964     58965
     58964     58966     58965     58966     58967     58968     58967     58969
     58968     58969     58970     58971     58970     58972     58971     58972
     58973     58974     58973     58975     58974     58975     58976     58977
     58976     58978     58977     58978     58979     58980     58979     58981
     58980     58981     58982     58983     58982     58984     58983     58984
     58985     58986     58985     58987     58986     58987     58988     58989
     58988     58990     58989     58990     58991     58992     58991     58993
     58992     58993     58994     58995     58994     58996     58995     58996
     58997     58998     58997     58999     58998     58999     59000     59001
     59000     59002     59001     59002     59003     59004     59003     59005
     59004     59005     59006     59007     59006     59008     59007     59008
     59009     59010     59009     59011     59010     59011     59012     59013
     59012     59014     59013     59014     59015     59016     59015     59017
     59016     59017     59018     59019     59018     59020     59019     59020
     59021     59022     59021     59023     59022     59023     59024     59025
     59024     59026     59025     59026     59027     59028     59027     59029
     59028     59029     59030     59031     59030     59032     59031     59032
     59033     59034     59033     59035     59034     59035     59036     59037
     59036     59038     59037     59038     59039     59040     59039     59041
     59040     59041     59042     59043     59042     59044     59043     59044
     59045     59046     59045     59047     59046     59047     59048     59049
     59048     59050     59049     59050     59051     59052     59051     59053
     59052     59053     59054     59055     59054     59056     59055     59056
     59057     59058     59057     59059     59058     59059     59060     59061
     59060     59062     59061     59062     59063     59064     59063     59065
     59064     59065     59066     59067     59066     59068     59067     59068
     59069     59070     59069     59071     59070     59071     59072     59073
     59072     59074     59073     59074     59075     59076     59075     59077
     59076     59077     59078     59079     59078     59080     59079     59080
     59081     59082     59081     59083     59082     59083     59084     59085
     59084     59086     59085     59086     59087     59088     59087     59089
     59088     59089     59090     59091     59090     59092     59091     59092
     59093     59094     59093     59095     59094     59095     59096     59097
     59096     59098     59097     59098     59099     59100     59099     59101
     59100     59101     59102     59103     59102     59104     59103     59104
     59105     59106     59105     59107     59106     59107     59108     59109
     59108     59110     59109     59110     59111     59112     59111     59113
     59112     59113     59114     59115     59114     59116     59115     59116
     59117     59118     59117     59119     59118     59119     59120     59121
     59120     59122     59121     59122     59123     59124     59123     59125
     59124     59125     59126     59127     59126     59128     59127     59128
     59129     59130     59129     59131     59130     59131     59132     59133
     59132     59134     59133     59134     59135     59136     59135     59137
     59136     59137     59138     59139     59138     59140     59139     59140
     59141     59142     59141     59143     59142     59143     59144     59145
     59144     59146     59145     59146     59147     59148     59147     59149
     59148     59149     59150     59151     59150     59152     59151     59152
     59153     59154     59153     59155     59154     59155     59156     59157
     59156     59158     59157     59158     59159     59160     59159     59161
     59160     59161     59162     59163     59162     59164     59163     59164
     59165     59166     59165     59167     59166     59167     59168     59169
     59168     59170     59169     59170     59171     59172     59171     59173
     59172     59173     59174     59175     59174     59176     59175     59176
     59177     59178     59177     59179     59178     59179     59180     59181
     59180     59182     59181     59182     59183     59184     59183     59185
     59184     59185     59186     59187     59186     59188     59187     59188
     59189     59190     59189     59191     59190     59191     59192     59193
     59192     59194     59193     59194     59195     59196     59195     59197
     59196     59197     59198     59199     59198     59200     59199     59200
     59201     59202     59201     59203     59202     59203     59204     59205
     59204     59206     59205     59206     59207     59208     59207     59209
     59208     59209     59210     59211     59210     59212     59211     59212
     59213     59214     59213     59215     59214     59215     59216     59217
     59216     59218     59217     59218     59219     59220     59219     59221
     59220     59221     59222     59223     59222     59224     59223     59224
     59225     59226     59225     59227     59226     59227     59228     59229
     59228     59230     59229     59230     59231     59232     59231     59233
     59232     59233     59234     59235     59234     59236     59235     59236
     59237     59238     59237     59239     59238     59239     59240     59241
     59240     59242     59241     59242     59243     59244     59243     59245
     59244     59245     59246     59247     59246     59248     59247     59248
     59249     59250     59249     59251     59250     59251     59252     59253
     59252     59254     59253     59254     59255     59256     59255     59257
     59256     59257     59258     59259     59258     59260     59259     59260
     59261     59262     59261     59263     59262     59263     59264     59265
     59264     59266     59265     59266     59267     59268     59267     59269
     59268     59269     59270     59271     59270     59272     59271     59272
     59273     59274     59273     59275     59274     59275     59276     59277
     59276     59278     59277     59278     59279     59280     59279     59281
     59280     59281     59282     59283     59282     59284     59283     59284
     59285     59286     59285     59287     59286     59287     59288     59289
     59288     59290     59289     59290     59291     59292     59291     59293
     59292     59293     59294     59295     59294     59296     59295     59296
     59297     59298     59297     59299     59298     59299     59300     59301
     59300     59302     59301     59302     59303     59304     59303     59305
     59304     59305     59306     59307     59306     59308     59307     59308
     59309     59310     59309     59311     59310     59311     59312     59313
     59312     59314     59313     59314     59315     59316     59315     59317
     59316     59317     59318     59319     59318     59320     59319     59320
     59321     59322     59321     59323     59322     59323     59324     59325
     59324     59326     59325     59326     59327     59328     59327     59329
     59328     59329     59330     59331     59330     59332     59331     59332
     59333     59334     59333     59335     59334     59335     59336     59337
     59336     59338     59337     59338     59339     59340     59339     59341
     59340     59341     59342     59343     59342     59344     59343     59344
     59345     59346     59345     59347     59346     59347     59348     59349
     59348     59350     59349     59350     59351     59352     59351     59353
     59352     59353     59354     59355     59354     59356     59355     59356
     59357     59358     59357     59359     59358     59359     59360     59361
     59360     59362     59361     59362     59363     59364     59363     59365
     59364     59365     59366     59367     59366     59368     59367     59368
     59369     59370     59369     59371     59370     59371     59372     59373
     59372     59374     59373     59374     59375     59376     59375     59377
     59376     59377     59378     59379     59378     59380     59379     59380
     59381     59382     59381     59383     59382     59383     59384     59385
     59384     59386     59385     59386     59387     59388     59387     59389
     59388     59389     59390     59391     59390     59392     59391     59392
     59393     59394     59393     59395     59394     59395     59396     59397
     59396     59398     59397     59398     59399     59400     59399     59401
     59400     59401     59402     59403     59402     59404     59403     59404
     59405     59406     59405     59407     59406     59407     59408     59409
     59408     59410     59409     59410     59411     59412     59411     59413
     59412     59413     59414     59415     59414     59416     59415     59416
     59417     59418     59417     59419     59418     59419     59420     59421
     59420     59422     59421     59422     59423     59424     59423     59425
     59424     59425     59426     59427     59426     59428     59427     59428
     59429     59430     59429     59431     59430     59431     59432     59433
     59432     59434     59433     59434     59435     59436     59435     59437
     59436     59437     59438     59439     59438     59440     59439     59440
     59441     59442     59441     59443     59442     59443     59444     59445
     59444     59446     59445     59446     59447     59448     59447     59449
     59448     59449     59450     59451     59450     59452     59451     59452
     59453     59454     59453     59455     59454     59455     59456     59457
     59456     59458     59457     59458     59459     59460     59459     59461
     59460     59461     59462     59463     59462     59464     59463     59464
     59465     59466     59465     59467     59466     59467     59468     59469
     59468     59470     59469     59470     59471     59472     59471     59473
     59472     59473     59474     59475     59474     59476     59475     59476
     59477     59478     59477     59479     59478     59479     59480     59481
     59480     59482     59481     59482     59483     59484     59483     59485
     59484     59485     59486     59487     59486     59488     59487     59488
     59489     59490     59489     59491     59490     59491     59492     59493
     59492     59494     59493     59494     59495     59496     59495     59497
     59496     59497     59498     59499     59498     59500     59499     59500
     59501     59502     59501     59503     59502     59503     59504     59505
     59504     59506     59505     59506     59507     59508     59507     59509
     59508     59509     59510     59511     59510     59512     59511     59512
     59513     59514     59513     59515     59514     59515     59516     59517
     59516     59518     59517     59518     59519     59520     59519     59521
     59520     59521     59522     59523     59522     59524     59523     59524
     59525     59526     59525     59527     59526     59527     59528     59529
     59528     59530     59529     59530     59531     59532     59531     59533
     59532     59533     59534     59535     59534     59536     59535     59536
     59537     59538     59537     59539     59538     59539     59540     59541
     59540     59542     59541     59542     59543     59544     59543     59545
     59544     59545     59546     59547     59546     59548     59547     59548
     59549     59550     59549     59551     59550     59551     59552     59553
     59552     59554     59553     59554     59555     59556     59555     59557
     59556     59557     59558     59559     59558     59560     59559     59560
     59561     59562     59561     59563     59562     59563     59564     59565
     59564     59566     59565     59566

     59654 !NTHETA: angles
         2         1         3         2         1         4         2         1         5
         3         1         4         3         1         5         4         1         5
         1         5         6         1         5         7         1         5         8
         6         5         7         6         5         8         7         5         8
         5         8         9         5         8        10         5         8        15
         9         8        10         9         8        15        10         8        15
        12        11        13        12        11        14        12        11        15
        13        11        14        13        11        15        14        11        15
        11        14        16         8        15        11        14        16        17
        14        16        18        14        16        19        17        16        18
        17        16        19        18        16        19        16        19        20
        16        19        21        16        19        27        20        19        21
        20        19        27        21        19        27        19        21        22
        21        22        23        21        22        24        23        22        24
        22        24        25        22        24        26        22        24        36
        25        24        26        25        24        36        26        24        36
        19        27        28        19        27        29        19        27        30
        28        27        29        28        27        30        29        27        30
        27        30        31        30        31        32        30        31        33
        32        31        33        31        33        34        31        33        35
        31        33        80        34        33        35        34        33        80
        35        33        80        24        36        37        24        36        38
        24        36        39        37        36        38        37        36        39
        38        36        39        36        39        40        36        39        41
        36        39        42        40        39        41        40        39        42
        41        39        42        39        42        43        39        42        44
        39        42        45        43        42        44        43        42        45
        44        42        45        42        45        46        42        45        47
        42        45        48        46        45        47        46        45        48
        47        45        48        45        48        49        45        48        50
        45        48        51        49        48        50        49        48        51
        50        48        51        48        51        52        48        51        53
        48        51        54        52        51        53        52        51        54
        53        51        54        51        54        55        51        54        56
        51        54        59        55        54        56        55        54        59
        56        54        59        54        56        57        54        56        58
        54        56        59        57        56        58        57        56        59
        58        56        59        54        59        56        54        59        60
        54        59        61        56        59        60        56        59        61
        60        59        61        59        61        62        59        61        63
        59        61        64        62        61        63        62        61        64
        63        61        64        61        64        65        61        64        66
        61        64        67        65        64        66        65        64        67
        66        64        67        64        67        68        64        67        69
        64        67        70        68        67        69        68        67        70
        69        67        70        67        70        71        67        70        72
        67        70        73        71        70        72        71        70        73
        72        70        73        70        73        74        70        73        75
        70        73        76        74        73        75        74        73        76
        75        73        76        73        76        77        73        76        78
        73        76        79        77        76        78        77        76        79
        78        76        79        33        80        81        33        80        82
        33        80        83        81        80        82        81        80        83
        82        80        83        80        83        84        80        83        85
        80        83        86        84        83        85        84        83        86
        85        83        86        83        86        87        83        86        88
        83        86        89        87        86        88        87        86        89
        88        86        89        86        89        90        86        89        91
        86        89        92        90        89        91        90        89        92
        91        89        92        89        92        93        89        92        94
        89        92        95        93        92        94        93        92        95
        94        92        95        92        95        96        92        95        97
        92        95        98        96        95        97        96        95        98
        97        95        98        95        98        99        95        98       100
        95        98       101        99        98       100        99        98       101
       100        98       101        98       101       102        98       101       103
        98       101       104       102       101       103       102       101       104
       103       101       104       101       104       105       101       104       106
       101       104       107       105       104       106       105       104       107
       106       104       107       104       107       108       104       107       109
       104       107       110       108       107       109       108       107       110
       109       107       110       107       110       111       107       110       112
       107       110       113       111       110       112       111       110       113
       112       110       113       110       113       114       110       113       115
       110       113       116       114       113       115       114       113       116
       115       113       116       113       116       117       113       116       118
       113       116       119       117       116       118       117       116       119
       118       116       119       121       120       122       121       120       123
       121       120       124       122       120       123       122       120       124
       123       120       124       120       124       125       120       124       126
       120       124       127       125       124       126       125       124       127
       126       124       127       124       127       128       124       127       129
       124       127       134       128       127       129       128       127       134
       129       127       134       131       130       132       131       130       133
       131       130       134       132       130       133       132       130       134
       133       130       134       130       133       135       127       134       130
       133       135       136       133       135       137       133       135       138
       136       135       137       136       135       138       137       135       138
       135       138       139       135       138       140       135       138       146
       139       138       140       139       138       146       140       138       146
       138       140       141       140       141       142       140       141       143
       142       141       143       141       143       144       141       143       145
       141       143       155       144       143       145       144       143       155
       145       143       155       138       146       147       138       146       148
       138       146       149       147       146       148       147       146       149
       148       146       149       146       149       150       149       150       151
       149       150       152       151       150       152       150       152       153
       150       152       154       150       152       199       153       152       154
       153       152       199       154       152       199       143       155       156
       143       155       157       143       155       158       156       155       157
       156       155       158       157       155       158       155       158       159
       155       158       160       155       158       161       159       158       160
       159       158       161       160       158       161       158       161       162
       158       161       163       158       161       164       162       161       163
       162       161       164       163       161       164       161       164       165
       161       164       166       161       164       167       165       164       166
       165       164       167       166       164       167       164       167       168
       164       167       169       164       167       170       168       167       169
       168       167       170       169       167       170       167       170       171
       167       170       172       167       170       173       171       170       172
       171       170       173       172       170       173       170       173       174
       170       173       175       170       173       178       174       173       175
       174       173       178       175       173       178       173       175       176
       173       175       177       173       175       178       176       175       177
       176       175       178       177       175       178       173       178       175
       173       178       179       173       178       180       175       178       179
       175       178       180       179       178       180       178       180       181
       178       180       182       178       180       183       181       180       182
       181       180       183       182       180       183       180       183       184
       180       183       185       180       183       186       184       183       185
       184       183       186       185       183       186       183       186       187
       183       186       188       183       186       189       187       186       188
       187       186       189       188       186       189       186       189       190
       186       189       191       186       189       192       190       189       191
       190       189       192       191       189       192       189       192       193
       189       192       194       189       192       195       193       192       194
       193       192       195       194       192       195       192       195       196
       192       195       197       192       195       198       196       195       197
       196       195       198       197       195       198       152       199       200
       152       199       201       152       199       202       200       199       201
       200       199       202       201       199       202       199       202       203
       199       202       204       199       202       205       203       202       204
       203       202       205       204       202       205       202       205       206
       202       205       207       202       205       208       206       205       207
       206       205       208       207       205       208       205       208       209
       205       208       210       205       208       211       209       208       210
       209       208       211       210       208       211       208       211       212
       208       211       213       208       211       214       212       211       213
       212       211       214       213       211       214       211       214       215
       211       214       216       211       214       217       215       214       216
       215       214       217       216       214       217       214       217       218
       214       217       219       214       217       220       218       217       219
       218       217       220       219       217       220       217       220       221
       217       220       222       217       220       223       221       220       222
       221       220       223       222       220       223       220       223       224
       220       223       225       220       223       226       224       223       225
       224       223       226       225       223       226       223       226       227
       223       226       228       223       226       229       227       226       228
       227       226       229       228       226       229       226       229       230
       226       229       231       226       229       232       230       229       231
       230       229       232       231       229       232       229       232       233
       229       232       234       229       232       235       233       232       234
       233       232       235       234       232       235       232       235       236
       232       235       237       232       235       238       236       235       237
       236       235       238       237       235       238       235       238       239
       235       238       240       235       238       241       239       238       240
       239       238       241       240       238       241       243       242       244
       243       242       245       243       242       247       244       242       245
       244       242       247       245       242       247       242       245       246
       242       247       248       242       247       249       242       247       251
       248       247       249       248       247       251       249       247       251
       247       249       250       247       251       252       247       251       253
       247       251       258       252       251       253       252       251       258
       253       251       258       255       254       256       255       254       257
       255       254       258       256       254       257       256       254       258
       257       254       258       254       257       259       251       258       254
       257       259       260       257       259       261       257       259       262
       260       259       261       260       259       262       261       259       262
       259       262       263       259       262       264       259       262       270
       263       262       264       263       262       270       264       262       270
       262       264       265       264       265       266       264       265       267
       266       265       267       265       267       268       265       267       269
       265       267       279       268       267       269       268       267       279
       269       267       279       262       270       271       262       270       272
       262       270       273       271       270       272       271       270       273
       272       270       273       270       273       274       273       274       275
       273       274       276       275       274       276       274       276       277
       274       276       278       274       276       320       277       276       278
       277       276       320       278       276       320       267       279       280
       267       279       281       267       279       282       280       279       281
       280       279       282       281       279       282       279       282       283
       279       282       284       279       282       285       283       282       284
       283       282       285       284       282       285       282       285       286
       282       285       287       282       285       288       286       285       287
       286       285       288       287       285       288       285       288       289
       285       288       290       285       288       291       289       288       290
       289       288       291       290       288       291       288       291       292
       288       291       293       288       291       294       292       291       293
       292       291       294       293       291       294       291       294       295
       291       294       296       291       294       297       295       294       296
       295       294       297       296       294       297       294       297       298
       294       297       299       298       297       299       297       299       300
       297       299       301       300       299       301       299       301       302
       299       301       303       299       301       304       302       301       303
       302       301       304       303       301       304       301       304       305
       301       304       306       301       304       307       305       304       306
       305       304       307       306       304       307       304       307       308
       304       307       309       304       307       310       308       307       309
       308       307       310       309       307       310       307       310       311
       307       310       312       307       310       313       311       310       312
       311       310       313       312       310       313       310       313       314
       310       313       315       310       313       316       314       313       315
       314       313       316       315       313       316       313       316       317
       313       316       318       313       316       319       317       316       318
       317       316       319       318       316       319       276       320       321
       276       320       322       276       320       323       321       320       322
       321       320       323       322       320       323       320       323       324
       320       323       325       320       323       326       324       323       325
       324       323       326       325       323       326       323       326       327
       323       326       328       323       326       329       327       326       328
       327       326       329       328       326       329       326       329       330
       326       329       331       326       329       332       330       329       331
       330       329       332       331       329       332       329       332       333
       329       332       334       329       332       335       333       332       334
       333       332       335       334       332       335       332       335       336
       332       335       337       332       335       338       336       335       337
       336       335       338       337       335       338       335       338       339
       335       338       340       335       338       341       339       338       340
       339       338       341       340       338       341       338       341       342
       338       341       343       338       341       344       342       341       343
       342       341       344       343       341       344       341       344       345
       341       344       346       341       344       347       345       344       346
       345       344       347       346       344       347       344       347       348
       344       347       349       344       347       350       348       347       349
       348       347       350       349       347       350       347       350       351
       347       350       352       347       350       353       351       350       352
       351       350       353       352       350       353       350       353       354
       350       353       355       350       353       356       354       353       355
       354       353       356       355       353       356       353       356       357
       353       356       358       353       356       359       357       356       358
       357       356       359       358       356       359       356       359       360
       356       359       361       356       359       362       360       359       361
       360       359       362       361       359       362       364       363       365
       364       363       366       364       363       368       365       363       366
       365       363       368       366       363       368       363       366       367
       363       368       369       363       368       370       363       368       372
       369       368       370       369       368       372       370       368       372
       368       370       371       368       372       373       368       372       374
       368       372       379       373       372       374       373       372       379
       374       372       379       376       375       377       376       375       378
       376       375       379       377       375       378       377       375       379
       378       375       379       375       378       380       372       379       375
       378       380       381       378       380       382       378       380       383
       381       380       382       381       380       383       382       380       383
       380       383       384       380       383       385       380       383       391
       384       383       385       384       383       391       385       383       391
       383       385       386       385       386       387       385       386       388
       387       386       388       386       388       389       386       388       390
       386       388       400       389       388       390       389       388       400
       390       388       400       383       391       392       383       391       393
       383       391       394       392       391       393       392       391       394
       393       391       394       391       394       395       394       395       396
       394       395       397       396       395       397       395       397       398
       395       397       399       395       397       444       398       397       399
       398       397       444       399       397       444       388       400       401
       388       400       402       388       400       403       401       400       402
       401       400       403       402       400       403       400       403       404
       400       403       405       400       403       406       404       403       405
       404       403       406       405       403       406       403       406       407
       403       406       408       403       406       409       407       406       408
       407       406       409       408       406       409       406       409       410
       406       409       411       406       409       412       410       409       411
       410       409       412       411       409       412       409       412       413
       409       412       414       409       412       415       413       412       414
       413       412       415       414       412       415       412       415       416
       412       415       417       412       415       418       416       415       417
       416       415       418       417       415       418       415       418       419
       415       418       420       415       418       423       419       418       420
       419       418       423       420       418       423       418       420       421
       418       420       422       418       420       423       421       420       422
       421       420       423       422       420       423       418       423       420
       418       423       424       418       423       425       420       423       424
       420       423       425       424       423       425       423       425       426
       423       425       427       423       425       428       426       425       427
       426       425       428       427       425       428       425       428       429
       425       428       430       425       428       431       429       428       430
       429       428       431       430       428       431       428       431       432
       428       431       433       428       431       434       432       431       433
       432       431       434       433       431       434       431       434       435
       431       434       436       431       434       437       435       434       436
       435       434       437       436       434       437       434       437       438
       434       437       439       434       437       440       438       437       439
       438       437       440       439       437       440       437       440       441
       437       440       442       437       440       443       441       440       442
       441       440       443       442       440       443       397       444       445
       397       444       446       397       444       447       445       444       446
       445       444       447       446       444       447       444       447       448
       444       447       449       444       447       450       448       447       449
       448       447       450       449       447       450       447       450       451
       447       450       452       447       450       453       451       450       452
       451       450       453       452       450       453       450       453       454
       450       453       455       450       453       456       454       453       455
       454       453       456       455       453       456       453       456       457
       453       456       458       453       456       459       457       456       458
       457       456       459       458       456       459       456       459       460
       456       459       461       456       459       462       460       459       461
       460       459       462       461       459       462       459       462       463
       459       462       464       459       462       465       463       462       464
       463       462       465       464       462       465       462       465       466
       462       465       467       462       465       468       466       465       467
       466       465       468       467       465       468       465       468       469
       465       468       470       465       468       471       469       468       470
       469       468       471       470       468       471       468       471       472
       468       471       473       468       471       474       472       471       473
       472       471       474       473       471       474       471       474       475
       471       474       476       471       474       477       475       474       476
       475       474       477       476       474       477       474       477       478
       474       477       479       474       477       480       478       477       479
       478       477       480       479       477       480       477       480       481
       477       480       482       477       480       483       481       480       482
       481       480       483       482       480       483       480       483       484
       480       483       485       480       483       486       484       483       485
       484       483       486       485       483       486       488       487       489
       488       487       490       488       487       491       489       487       490
       489       487       491       490       487       491       487       491       492
       487       491       493       487       491       494       492       491       493
       492       491       494       493       491       494       491       494       495
       491       494       496       491       494       501       495       494       496
       495       494       501       496       494       501       498       497       499
       498       497       500       498       497       501       499       497       500
       499       497       501       500       497       501       497       500       502
       494       501       497       500       502       503       500       502       504
       500       502       505       503       502       504       503       502       505
       504       502       505       502       505       506       502       505       507
       502       505       513       506       505       507       506       505       513
       507       505       513       505       507       508       507       508       509
       507       508       510       509       508       510       508       510       511
       508       510       512       508       510       522       511       510       512
       511       510       522       512       510       522       505       513       514
       505       513       515       505       513       516       514       513       515
       514       513       516       515       513       516       513       516       517
       516       517       518       516       517       519       518       517       519
       517       519       520       517       519       521       517       519       566
       520       519       521       520       519       566       521       519       566
       510       522       523       510       522       524       510       522       525
       523       522       524       523       522       525       524       522       525
       522       525       526       522       525       527       522       525       528
       526       525       527       526       525       528       527       525       528
       525       528       529       525       528       530       525       528       531
       529       528       530       529       528       531       530       528       531
       528       531       532       528       531       533       528       531       534
       532       531       533       532       531       534       533       531       534
       531       534       535       531       534       536       531       534       537
       535       534       536       535       534       537       536       534       537
       534       537       538       534       537       539       534       537       540
       538       537       539       538       537       540       539       537       540
       537       540       541       537       540       542       537       540       545
       541       540       542       541       540       545       542       540       545
       540       542       543       540       542       544       540       542       545
       543       542       544       543       542       545       544       542       545
       540       545       542       540       545       546       540       545       547
       542       545       546       542       545       547       546       545       547
       545       547       548       545       547       549       545       547       550
       548       547       549       548       547       550       549       547       550
       547       550       551       547       550       552       547       550       553
       551       550       552       551       550       553       552       550       553
       550       553       554       550       553       555       550       553       556
       554       553       555       554       553       556       555       553       556
       553       556       557       553       556       558       553       556       559
       557       556       558       557       556       559       558       556       559
       556       559       560       556       559       561       556       559       562
       560       559       561       560       559       562       561       559       562
       559       562       563       559       562       564       559       562       565
       563       562       564       563       562       565       564       562       565
       519       566       567       519       566       568       519       566       569
       567       566       568       567       566       569       568       566       569
       566       569       570       566       569       571       566       569       572
       570       569       571       570       569       572       571       569       572
       569       572       573       569       572       574       569       572       575
       573       572       574       573       572       575       574       572       575
       572       575       576       572       575       577       572       575       578
       576       575       577       576       575       578       577       575       578
       575       578       579       575       578       580       575       578       581
       579       578       580       579       578       581       580       578       581
       578       581       582       578       581       583       578       581       584
       582       581       583       582       581       584       583       581       584
       581       584       585       581       584       586       581       584       587
       585       584       586       585       584       587       586       584       587
       584       587       588       584       587       589       584       587       590
       588       587       589       588       587       590       589       587       590
       587       590       591       587       590       592       587       590       593
       591       590       592       591       590       593       592       590       593
       590       593       594       590       593       595       590       593       596
       594       593       595       594       593       596       595       593       596
       593       596       597       593       596       598       593       596       599
       597       596       598       597       596       599       598       596       599
       596       599       600       596       599       601       596       599       602
       600       599       601       600       599       602       601       599       602
       599       602       603       599       602       604       599       602       605
       603       602       604       603       602       605       604       602       605
       607       606       608       607       606       609       607       606       610
       608       606       609       608       606       610       609       606       610
       606       610       611       606       610       612       606       610       613
       611       610       612       611       610       613       612       610       613
       610       613       614       610       613       615       610       613       620
       614       613       615       614       613       620       615       613       620
       617       616       618       617       616       619       617       616       620
       618       616       619       618       616       620       619       616       620
       616       619       621       613       620       616       619       621       622
       619       621       623       619       621       624       622       621       623
       622       621       624       623       621       624       621       624       625
       621       624       626       621       624       632       625       624       626
       625       624       632       626       624       632       624       626       627
       626       627       628       626       627       629       628       627       629
       627       629       630       627       629       631       627       629       641
       630       629       631       630       629       641       631       629       641
       624       632       633       624       632       634       624       632       635
       633       632       634       633       632       635       634       632       635
       632       635       636       635       636       637       635       636       638
       637       636       638       636       638       639       636       638       640
       636       638       685       639       638       640       639       638       685
       640       638       685       629       641       642       629       641       643
       629       641       644       642       641       643       642       641       644
       643       641       644       641       644       645       641       644       646
       641       644       647       645       644       646       645       644       647
       646       644       647       644       647       648       644       647       649
       644       647       650       648       647       649       648       647       650
       649       647       650       647       650       651       647       650       652
       647       650       653       651       650       652       651       650       653
       652       650       653       650       653       654       650       653       655
       650       653       656       654       653       655       654       653       656
       655       653       656       653       656       657       653       656       658
       653       656       659       657       656       658       657       656       659
       658       656       659       656       659       660       656       659       661
       656       659       664       660       659       661       660       659       664
       661       659       664       659       661       662       659       661       663
       659       661       664       662       661       663       662       661       664
       663       661       664       659       664       661       659       664       665
       659       664       666       661       664       665       661       664       666
       665       664       666       664       666       667       664       666       668
       664       666       669       667       666       668       667       666       669
       668       666       669       666       669       670       666       669       671
       666       669       672       670       669       671       670       669       672
       671       669       672       669       672       673       669       672       674
       669       672       675       673       672       674       673       672       675
       674       672       675       672       675       676       672       675       677
       672       675       678       676       675       677       676       675       678
       677       675       678       675       678       679       675       678       680
       675       678       681       679       678       680       679       678       681
       680       678       681       678       681       682       678       681       683
       678       681       684       682       681       683       682       681       684
       683       681       684       638       685       686       638       685       687
       638       685       688       686       685       687       686       685       688
       687       685       688       685       688       689       685       688       690
       685       688       691       689       688       690       689       688       691
       690       688       691       688       691       692       688       691       693
       688       691       694       692       691       693       692       691       694
       693       691       694       691       694       695       691       694       696
       691       694       697       695       694       696       695       694       697
       696       694       697       694       697       698       694       697       699
       694       697       700       698       697       699       698       697       700
       699       697       700       697       700       701       697       700       702
       697       700       703       701       700       702       701       700       703
       702       700       703       700       703       704       700       703       705
       700       703       706       704       703       705       704       703       706
       705       703       706       703       706       707       703       706       708
       703       706       709       707       706       708       707       706       709
       708       706       709       706       709       710       706       709       711
       706       709       712       710       709       711       710       709       712
       711       709       712       709       712       713       709       712       714
       709       712       715       713       712       714       713       712       715
       714       712       715       712       715       716       712       715       717
       712       715       718       716       715       717       716       715       718
       717       715       718       715       718       719       715       718       720
       715       718       721       719       718       720       719       718       721
       720       718       721       718       721       722       718       721       723
       718       721       724       722       721       723       722       721       724
       723       721       724       721       724       725       721       724       726
       721       724       727       725       724       726       725       724       727
       726       724       727       729       728       730       729       728       731
       729       728       733       730       728       731       730       728       733
       731       728       733       728       731       732       728       733       734
       728       733       735       728       733       737       734       733       735
       734       733       737       735       733       737       733       735       736
       733       737       738       733       737       739       733       737       744
       738       737       739       738       737       744       739       737       744
       741       740       742       741       740       743       741       740       744
       742       740       743       742       740       744       743       740       744
       740       743       745       737       744       740       743       745       746
       743       745       747       743       745       748       746       745       747
       746       745       748       747       745       748       745       748       749
       745       748       750       745       748       756       749       748       750
       749       748       756       750       748       756       748       750       751
       750       751       752       750       751       753       752       751       753
       751       753       754       751       753       755       751       753       765
       754       753       755       754       753       765       755       753       765
       748       756       757       748       756       758       748       756       759
       757       756       758       757       756       759       758       756       759
       756       759       760       759       760       761       759       760       762
       761       760       762       760       762       763       760       762       764
       760       762       809       763       762       764       763       762       809
       764       762       809       753       765       766       753       765       767
       753       765       768       766       765       767       766       765       768
       767       765       768       765       768       769       765       768       770
       765       768       771       769       768       770       769       768       771
       770       768       771       768       771       772       768       771       773
       768       771       774       772       771       773       772       771       774
       773       771       774       771       774       775       771       774       776
       771       774       777       775       774       776       775       774       777
       776       774       777       774       777       778       774       777       779
       774       777       780       778       777       779       778       777       780
       779       777       780       777       780       781       777       780       782
       777       780       783       781       780       782       781       780       783
       782       780       783       780       783       784       780       783       785
       780       783       788       784       783       785       784       783       788
       785       783       788       783       785       786       783       785       787
       783       785       788       786       785       787       786       785       788
       787       785       788       783       788       785       783       788       789
       783       788       790       785       788       789       785       788       790
       789       788       790       788       790       791       788       790       792
       788       790       793       791       790       792       791       790       793
       792       790       793       790       793       794       790       793       795
       790       793       796       794       793       795       794       793       796
       795       793       796       793       796       797       793       796       798
       793       796       799       797       796       798       797       796       799
       798       796       799       796       799       800       796       799       801
       796       799       802       800       799       801       800       799       802
       801       799       802       799       802       803       799       802       804
       799       802       805       803       802       804       803       802       805
       804       802       805       802       805       806       802       805       807
       802       805       808       806       805       807       806       805       808
       807       805       808       762       809       810       762       809       811
       762       809       812       810       809       811       810       809       812
       811       809       812       809       812       813       809       812       814
       809       812       815       813       812       814       813       812       815
       814       812       815       812       815       816       812       815       817
       812       815       818       816       815       817       816       815       818
       817       815       818       815       818       819       815       818       820
       815       818       821       819       818       820       819       818       821
       820       818       821       818       821       822       818       821       823
       818       821       824       822       821       823       822       821       824
       823       821       824       821       824       825       821       824       826
       821       824       827       825       824       826       825       824       827
       826       824       827       824       827       828       824       827       829
       824       827       830       828       827       829       828       827       830
       829       827       830       827       830       831       827       830       832
       827       830       833       831       830       832       831       830       833
       832       830       833       830       833       834       830       833       835
       830       833       836       834       833       835       834       833       836
       835       833       836       833       836       837       833       836       838
       833       836       839       837       836       838       837       836       839
       838       836       839       836       839       840       836       839       841
       836       839       842       840       839       841       840       839       842
       841       839       842       839       842       843       839       842       844
       839       842       845       843       842       844       843       842       845
       844       842       845       842       845       846       842       845       847
       842       845       848       846       845       847       846       845       848
       847       845       848       845       848       849       845       848       850
       845       848       851       849       848       850       849       848       851
       850       848       851       853       852       854       853       852       855
       853       852       857       854       852       855       854       852       857
       855       852       857       852       855       856       852       857       858
       852       857       859       852       857       861       858       857       859
       858       857       861       859       857       861       857       859       860
       857       861       862       857       861       863       857       861       868
       862       861       863       862       861       868       863       861       868
       865       864       866       865       864       867       865       864       868
       866       864       867       866       864       868       867       864       868
       864       867       869       861       868       864       867       869       870
       867       869       871       867       869       872       870       869       871
       870       869       872       871       869       872       869       872       873
       869       872       874       869       872       880       873       872       874
       873       872       880       874       872       880       872       874       875
       874       875       876       874       875       877       876       875       877
       875       877       878       875       877       879       875       877       889
       878       877       879       878       877       889       879       877       889
       872       880       881       872       880       882       872       880       883
       881       880       882       881       880       883       882       880       883
       880       883       884       883       884       885       883       884       886
       885       884       886       884       886       887       884       886       888
       884       886       930       887       886       888       887       886       930
       888       886       930       877       889       890       877       889       891
       877       889       892       890       889       891       890       889       892
       891       889       892       889       892       893       889       892       894
       889       892       895       893       892       894       893       892       895
       894       892       895       892       895       896       892       895       897
       892       895       898       896       895       897       896       895       898
       897       895       898       895       898       899       895       898       900
       895       898       901       899       898       900       899       898       901
       900       898       901       898       901       902       898       901       903
       898       901       904       902       901       903       902       901       904
       903       901       904       901       904       905       901       904       906
       901       904       907       905       904       906       905       904       907
       906       904       907       904       907       908       904       907       909
       908       907       909       907       909       910       907       909       911
       910       909       911       909       911       912       909       911       913
       909       911       914       912       911       913       912       911       914
       913       911       914       911       914       915       911       914       916
       911       914       917       915       914       916       915       914       917
       916       914       917       914       917       918       914       917       919
       914       917       920       918       917       919       918       917       920
       919       917       920       917       920       921       917       920       922
       917       920       923       921       920       922       921       920       923
       922       920       923       920       923       924       920       923       925
       920       923       926       924       923       925       924       923       926
       925       923       926       923       926       927       923       926       928
       923       926       929       927       926       928       927       926       929
       928       926       929       886       930       931       886       930       932
       886       930       933       931       930       932       931       930       933
       932       930       933       930       933       934       930       933       935
       930       933       936       934       933       935       934       933       936
       935       933       936       933       936       937       933       936       938
       933       936       939       937       936       938       937       936       939
       938       936       939       936       939       940       936       939       941
       936       939       942       940       939       941       940       939       942
       941       939       942       939       942       943       939       942       944
       939       942       945       943       942       944       943       942       945
       944       942       945       942       945       946       942       945       947
       942       945       948       946       945       947       946       945       948
       947       945       948       945       948       949       945       948       950
       945       948       951       949       948       950       949       948       951
       950       948       951       948       951       952       948       951       953
       948       951       954       952       951       953       952       951       954
       953       951       954       951       954       955       951       954       956
       951       954       957       955       954       956       955       954       957
       956       954       957       954       957       958       954       957       959
       954       957       960       958       957       959       958       957       960
       959       957       960       957       960       961       957       960       962
       957       960       963       961       960       962       961       960       963
       962       960       963       960       963       964       960       963       965
       960       963       966       964       963       965       964       963       966
       965       963       966       963       966       967       963       966       968
       963       966       969       967       966       968       967       966       969
       968       966       969       966       969       970       966       969       971
       966       969       972       970       969       971       970       969       972
       971       969       972       974       973       975       974       973       976
       974       973       977       975       973       976       975       973       977
       976       973       977       973       977       978       973       977       979
       973       977       980       978       977       979       978       977       980
       979       977       980       977       980       981       977       980       982
       977       980       987       981       980       982       981       980       987
       982       980       987       984       983       985       984       983       986
       984       983       987       985       983       986       985       983       987
       986       983       987       983       986       988       980       987       983
       986       988       989       986       988       990       986       988       991
       989       988       990       989       988       991       990       988       991
       988       991       992       988       991       993       988       991       999
       992       991       993       992       991       999       993       991       999
       991       993       994       993       994       995       993       994       996
       995       994       996       994       996       997       994       996       998
       994       996      1008       997       996       998       997       996      1008
       998       996      1008       991       999      1000       991       999      1001
       991       999      1002      1000       999      1001      1000       999      1002
      1001       999      1002       999      1002      1003      1002      1003      1004
      1002      1003      1005      1004      1003      1005      1003      1005      1006
      1003      1005      1007      1003      1005      1052      1006      1005      1007
      1006      1005      1052      1007      1005      1052       996      1008      1009
       996      1008      1010       996      1008      1011      1009      1008      1010
      1009      1008      1011      1010      1008      1011      1008      1011      1012
      1008      1011      1013      1008      1011      1014      1012      1011      1013
      1012      1011      1014      1013      1011      1014      1011      1014      1015
      1011      1014      1016      1011      1014      1017      1015      1014      1016
      1015      1014      1017      1016      1014      1017      1014      1017      1018
      1014      1017      1019      1014      1017      1020      1018      1017      1019
      1018      1017      1020      1019      1017      1020      1017      1020      1021
      1017      1020      1022      1017      1020      1023      1021      1020      1022
      1021      1020      1023      1022      1020      1023      1020      1023      1024
      1020      1023      1025      1020      1023      1026      1024      1023      1025
      1024      1023      1026      1025      1023      1026      1023      1026      1027
      1023      1026      1028      1023      1026      1031      1027      1026      1028
      1027      1026      1031      1028      1026      1031      1026      1028      1029
      1026      1028      1030      1026      1028      1031      1029      1028      1030
      1029      1028      1031      1030      1028      1031      1026      1031      1028
      1026      1031      1032      1026      1031      1033      1028      1031      1032
      1028      1031      1033      1032      1031      1033      1031      1033      1034
      1031      1033      1035      1031      1033      1036      1034      1033      1035
      1034      1033      1036      1035      1033      1036      1033      1036      1037
      1033      1036      1038      1033      1036      1039      1037      1036      1038
      1037      1036      1039      1038      1036      1039      1036      1039      1040
      1036      1039      1041      1036      1039      1042      1040      1039      1041
      1040      1039      1042      1041      1039      1042      1039      1042      1043
      1039      1042      1044      1039      1042      1045      1043      1042      1044
      1043      1042      1045      1044      1042      1045      1042      1045      1046
      1042      1045      1047      1042      1045      1048      1046      1045      1047
      1046      1045      1048      1047      1045      1048      1045      1048      1049
      1045      1048      1050      1045      1048      1051      1049      1048      1050
      1049      1048      1051      1050      1048      1051      1005      1052      1053
      1005      1052      1054      1005      1052      1055      1053      1052      1054
      1053      1052      1055      1054      1052      1055      1052      1055      1056
      1052      1055      1057      1052      1055      1058      1056      1055      1057
      1056      1055      1058      1057      1055      1058      1055      1058      1059
      1055      1058      1060      1055      1058      1061      1059      1058      1060
      1059      1058      1061      1060      1058      1061      1058      1061      1062
      1058      1061      1063      1058      1061      1064      1062      1061      1063
      1062      1061      1064      1063      1061      1064      1061      1064      1065
      1061      1064      1066      1061      1064      1067      1065      1064      1066
      1065      1064      1067      1066      1064      1067      1064      1067      1068
      1064      1067      1069      1064      1067      1070      1068      1067      1069
      1068      1067      1070      1069      1067      1070      1067      1070      1071
      1067      1070      1072      1067      1070      1073      1071      1070      1072
      1071      1070      1073      1072      1070      1073      1070      1073      1074
      1070      1073      1075      1070      1073      1076      1074      1073      1075
      1074      1073      1076      1075      1073      1076      1073      1076      1077
      1073      1076      1078      1073      1076      1079      1077      1076      1078
      1077      1076      1079      1078      1076      1079      1076      1079      1080
      1076      1079      1081      1076      1079      1082      1080      1079      1081
      1080      1079      1082      1081      1079      1082      1079      1082      1083
      1079      1082      1084      1079      1082      1085      1083      1082      1084
      1083      1082      1085      1084      1082      1085      1082      1085      1086
      1082      1085      1087      1082      1085      1088      1086      1085      1087
      1086      1085      1088      1087      1085      1088      1085      1088      1089
      1085      1088      1090      1085      1088      1091      1089      1088      1090
      1089      1088      1091      1090      1088      1091      1088      1091      1092
      1088      1091      1093      1088      1091      1094      1092      1091      1093
      1092      1091      1094      1093      1091      1094      1096      1095      1097
      1096      1095      1098      1096      1095      1099      1097      1095      1098
      1097      1095      1099      1098      1095      1099      1095      1099      1100
      1095      1099      1101      1095      1099      1102      1100      1099      1101
      1100      1099      1102      1101      1099      1102      1099      1102      1103
      1099      1102      1104      1099      1102      1109      1103      1102      1104
      1103      1102      1109      1104      1102      1109      1106      1105      1107
      1106      1105      1108      1106      1105      1109      1107      1105      1108
      1107      1105      1109      1108      1105      1109      1105      1108      1110
      1102      1109      1105      1108      1110      1111      1108      1110      1112
      1108      1110      1113      1111      1110      1112      1111      1110      1113
      1112      1110      1113      1110      1113      1114      1110      1113      1115
      1110      1113      1121      1114      1113      1115      1114      1113      1121
      1115      1113      1121      1113      1115      1116      1115      1116      1117
      1115      1116      1118      1117      1116      1118      1116      1118      1119
      1116      1118      1120      1116      1118      1130      1119      1118      1120
      1119      1118      1130      1120      1118      1130      1113      1121      1122
      1113      1121      1123      1113      1121      1124      1122      1121      1123
      1122      1121      1124      1123      1121      1124      1121      1124      1125
      1124      1125      1126      1124      1125      1127      1126      1125      1127
      1125      1127      1128      1125      1127      1129      1125      1127      1177
      1128      1127      1129      1128      1127      1177      1129      1127      1177
      1118      1130      1131      1118      1130      1132      1118      1130      1133
      1131      1130      1132      1131      1130      1133      1132      1130      1133
      1130      1133      1134      1130      1133      1135      1130      1133      1136
      1134      1133      1135      1134      1133      1136      1135      1133      1136
      1133      1136      1137      1133      1136      1138      1133      1136      1139
      1137      1136      1138      1137      1136      1139      1138      1136      1139
      1136      1139      1140      1136      1139      1141      1136      1139      1142
      1140      1139      1141      1140      1139      1142      1141      1139      1142
      1139      1142      1143      1139      1142      1144      1139      1142      1145
      1143      1142      1144      1143      1142      1145      1144      1142      1145
      1142      1145      1146      1142      1145      1147      1142      1145      1148
      1146      1145      1147      1146      1145      1148      1147      1145      1148
      1145      1148      1149      1145      1148      1150      1149      1148      1150
      1148      1150      1151      1148      1150      1152      1151      1150      1152
      1150      1152      1153      1150      1152      1154      1150      1152      1155
      1153      1152      1154      1153      1152      1155      1154      1152      1155
      1152      1155      1156      1152      1155      1157      1152      1155      1158
      1156      1155      1157      1156      1155      1158      1157      1155      1158
      1155      1158      1159      1155      1158      1160      1155      1158      1161
      1159      1158      1160      1159      1158      1161      1160      1158      1161
      1158      1161      1162      1158      1161      1163      1158      1161      1164
      1162      1161      1163      1162      1161      1164      1163      1161      1164
      1161      1164      1165      1161      1164      1166      1161      1164      1167
      1165      1164      1166      1165      1164      1167      1166      1164      1167
      1164      1167      1168      1164      1167      1169      1164      1167      1170
      1168      1167      1169      1168      1167      1170      1169      1167      1170
      1167      1170      1171      1167      1170      1172      1167      1170      1173
      1171      1170      1172      1171      1170      1173      1172      1170      1173
      1170      1173      1174      1170      1173      1175      1170      1173      1176
      1174      1173      1175      1174      1173      1176      1175      1173      1176
      1127      1177      1178      1127      1177      1179      1127      1177      1180
      1178      1177      1179      1178      1177      1180      1179      1177      1180
      1177      1180      1181      1177      1180      1182      1177      1180      1183
      1181      1180      1182      1181      1180      1183      1182      1180      1183
      1180      1183      1184      1180      1183      1185      1180      1183      1186
      1184      1183      1185      1184      1183      1186      1185      1183      1186
      1183      1186      1187      1183      1186      1188      1183      1186      1189
      1187      1186      1188      1187      1186      1189      1188      1186      1189
      1186      1189      1190      1186      1189      1191      1186      1189      1192
      1190      1189      1191      1190      1189      1192      1191      1189      1192
      1189      1192      1193      1189      1192      1194      1189      1192      1195
      1193      1192      1194      1193      1192      1195      1194      1192      1195
      1192      1195      1196      1192      1195      1197      1192      1195      1198
      1196      1195      1197      1196      1195      1198      1197      1195      1198
      1195      1198      1199      1195      1198      1200      1195      1198      1201
      1199      1198      1200      1199      1198      1201      1200      1198      1201
      1198      1201      1202      1198      1201      1203      1198      1201      1204
      1202      1201      1203      1202      1201      1204      1203      1201      1204
      1201      1204      1205      1201      1204      1206      1201      1204      1207
      1205      1204      1206      1205      1204      1207      1206      1204      1207
      1204      1207      1208      1204      1207      1209      1204      1207      1210
      1208      1207      1209      1208      1207      1210      1209      1207      1210
      1207      1210      1211      1207      1210      1212      1207      1210      1213
      1211      1210      1212      1211      1210      1213      1212      1210      1213
      1210      1213      1214      1210      1213      1215      1210      1213      1216
      1214      1213      1215      1214      1213      1216      1215      1213      1216
      1213      1216      1217      1213      1216      1218      1213      1216      1219
      1217      1216      1218      1217      1216      1219      1218      1216      1219
      1221      1220      1222      1221      1220      1223      1221      1220      1224
      1222      1220      1223      1222      1220      1224      1223      1220      1224
      1220      1224      1225      1220      1224      1226      1220      1224      1227
      1225      1224      1226      1225      1224      1227      1226      1224      1227
      1224      1227      1228      1224      1227      1229      1224      1227      1234
      1228      1227      1229      1228      1227      1234      1229      1227      1234
      1231      1230      1232      1231      1230      1233      1231      1230      1234
      1232      1230      1233      1232      1230      1234      1233      1230      1234
      1230      1233      1235      1227      1234      1230      1233      1235      1236
      1233      1235      1237      1233      1235      1238      1236      1235      1237
      1236      1235      1238      1237      1235      1238      1235      1238      1239
      1235      1238      1240      1235      1238      1246      1239      1238      1240
      1239      1238      1246      1240      1238      1246      1238      1240      1241
      1240      1241      1242      1240      1241      1243      1242      1241      1243
      1241      1243      1244      1241      1243      1245      1241      1243      1255
      1244      1243      1245      1244      1243      1255      1245      1243      1255
      1238      1246      1247      1238      1246      1248      1238      1246      1249
      1247      1246      1248      1247      1246      1249      1248      1246      1249
      1246      1249      1250      1249      1250      1251      1249      1250      1252
      1251      1250      1252      1250      1252      1253      1250      1252      1254
      1250      1252      1299      1253      1252      1254      1253      1252      1299
      1254      1252      1299      1243      1255      1256      1243      1255      1257
      1243      1255      1258      1256      1255      1257      1256      1255      1258
      1257      1255      1258      1255      1258      1259      1255      1258      1260
      1255      1258      1261      1259      1258      1260      1259      1258      1261
      1260      1258      1261      1258      1261      1262      1258      1261      1263
      1258      1261      1264      1262      1261      1263      1262      1261      1264
      1263      1261      1264      1261      1264      1265      1261      1264      1266
      1261      1264      1267      1265      1264      1266      1265      1264      1267
      1266      1264      1267      1264      1267      1268      1264      1267      1269
      1264      1267      1270      1268      1267      1269      1268      1267      1270
      1269      1267      1270      1267      1270      1271      1267      1270      1272
      1267      1270      1273      1271      1270      1272      1271      1270      1273
      1272      1270      1273      1270      1273      1274      1270      1273      1275
      1270      1273      1278      1274      1273      1275      1274      1273      1278
      1275      1273      1278      1273      1275      1276      1273      1275      1277
      1273      1275      1278      1276      1275      1277      1276      1275      1278
      1277      1275      1278      1273      1278      1275      1273      1278      1279
      1273      1278      1280      1275      1278      1279      1275      1278      1280
      1279      1278      1280      1278      1280      1281      1278      1280      1282
      1278      1280      1283      1281      1280      1282      1281      1280      1283
      1282      1280      1283      1280      1283      1284      1280      1283      1285
      1280      1283      1286      1284      1283      1285      1284      1283      1286
      1285      1283      1286      1283      1286      1287      1283      1286      1288
      1283      1286      1289      1287      1286      1288      1287      1286      1289
      1288      1286      1289      1286      1289      1290      1286      1289      1291
      1286      1289      1292      1290      1289      1291      1290      1289      1292
      1291      1289      1292      1289      1292      1293      1289      1292      1294
      1289      1292      1295      1293      1292      1294      1293      1292      1295
      1294      1292      1295      1292      1295      1296      1292      1295      1297
      1292      1295      1298      1296      1295      1297      1296      1295      1298
      1297      1295      1298      1252      1299      1300      1252      1299      1301
      1252      1299      1302      1300      1299      1301      1300      1299      1302
      1301      1299      1302      1299      1302      1303      1299      1302      1304
      1299      1302      1305      1303      1302      1304      1303      1302      1305
      1304      1302      1305      1302      1305      1306      1302      1305      1307
      1302      1305      1308      1306      1305      1307      1306      1305      1308
      1307      1305      1308      1305      1308      1309      1305      1308      1310
      1305      1308      1311      1309      1308      1310      1309      1308      1311
      1310      1308      1311      1308      1311      1312      1308      1311      1313
      1308      1311      1314      1312      1311      1313      1312      1311      1314
      1313      1311      1314      1311      1314      1315      1311      1314      1316
      1311      1314      1317      1315      1314      1316      1315      1314      1317
      1316      1314      1317      1314      1317      1318      1314      1317      1319
      1314      1317      1320      1318      1317      1319      1318      1317      1320
      1319      1317      1320      1317      1320      1321      1317      1320      1322
      1317      1320      1323      1321      1320      1322      1321      1320      1323
      1322      1320      1323      1320      1323      1324      1320      1323      1325
      1320      1323      1326      1324      1323      1325      1324      1323      1326
      1325      1323      1326      1323      1326      1327      1323      1326      1328
      1323      1326      1329      1327      1326      1328      1327      1326      1329
      1328      1326      1329      1326      1329      1330      1326      1329      1331
      1326      1329      1332      1330      1329      1331      1330      1329      1332
      1331      1329      1332      1329      1332      1333      1329      1332      1334
      1329      1332      1335      1333      1332      1334      1333      1332      1335
      1334      1332      1335      1332      1335      1336      1332      1335      1337
      1332      1335      1338      1336      1335      1337      1336      1335      1338
      1337      1335      1338      1335      1338      1339      1335      1338      1340
      1335      1338      1341      1339      1338      1340      1339      1338      1341
      1340      1338      1341      1343      1342      1344      1343      1342      1345
      1343      1342      1346      1344      1342      1345      1344      1342      1346
      1345      1342      1346      1342      1346      1347      1342      1346      1348
      1342      1346      1349      1347      1346      1348      1347      1346      1349
      1348      1346      1349      1346      1349      1350      1346      1349      1351
      1346      1349      1356      1350      1349      1351      1350      1349      1356
      1351      1349      1356      1353      1352      1354      1353      1352      1355
      1353      1352      1356      1354      1352      1355      1354      1352      1356
      1355      1352      1356      1352      1355      1357      1349      1356      1352
      1355      1357      1358      1355      1357      1359      1355      1357      1360
      1358      1357      1359      1358      1357      1360      1359      1357      1360
      1357      1360      1361      1357      1360      1362      1357      1360      1368
      1361      1360      1362      1361      1360      1368      1362      1360      1368
      1360      1362      1363      1362      1363      1364      1362      1363      1365
      1364      1363      1365      1363      1365      1366      1363      1365      1367
      1363      1365      1377      1366      1365      1367      1366      1365      1377
      1367      1365      1377      1360      1368      1369      1360      1368      1370
      1360      1368      1371      1369      1368      1370      1369      1368      1371
      1370      1368      1371      1368      1371      1372      1371      1372      1373
      1371      1372      1374      1373      1372      1374      1372      1374      1375
      1372      1374      1376      1372      1374      1421      1375      1374      1376
      1375      1374      1421      1376      1374      1421      1365      1377      1378
      1365      1377      1379      1365      1377      1380      1378      1377      1379
      1378      1377      1380      1379      1377      1380      1377      1380      1381
      1377      1380      1382      1377      1380      1383      1381      1380      1382
      1381      1380      1383      1382      1380      1383      1380      1383      1384
      1380      1383      1385      1380      1383      1386      1384      1383      1385
      1384      1383      1386      1385      1383      1386      1383      1386      1387
      1383      1386      1388      1383      1386      1389      1387      1386      1388
      1387      1386      1389      1388      1386      1389      1386      1389      1390
      1386      1389      1391      1386      1389      1392      1390      1389      1391
      1390      1389      1392      1391      1389      1392      1389      1392      1393
      1389      1392      1394      1389      1392      1395      1393      1392      1394
      1393      1392      1395      1394      1392      1395      1392      1395      1396
      1392      1395      1397      1392      1395      1400      1396      1395      1397
      1396      1395      1400      1397      1395      1400      1395      1397      1398
      1395      1397      1399      1395      1397      1400      1398      1397      1399
      1398      1397      1400      1399      1397      1400      1395      1400      1397
      1395      1400      1401      1395      1400      1402      1397      1400      1401
      1397      1400      1402      1401      1400      1402      1400      1402      1403
      1400      1402      1404      1400      1402      1405      1403      1402      1404
      1403      1402      1405      1404      1402      1405      1402      1405      1406
      1402      1405      1407      1402      1405      1408      1406      1405      1407
      1406      1405      1408      1407      1405      1408      1405      1408      1409
      1405      1408      1410      1405      1408      1411      1409      1408      1410
      1409      1408      1411      1410      1408      1411      1408      1411      1412
      1408      1411      1413      1408      1411      1414      1412      1411      1413
      1412      1411      1414      1413      1411      1414      1411      1414      1415
      1411      1414      1416      1411      1414      1417      1415      1414      1416
      1415      1414      1417      1416      1414      1417      1414      1417      1418
      1414      1417      1419      1414      1417      1420      1418      1417      1419
      1418      1417      1420      1419      1417      1420      1374      1421      1422
      1374      1421      1423      1374      1421      1424      1422      1421      1423
      1422      1421      1424      1423      1421      1424      1421      1424      1425
      1421      1424      1426      1421      1424      1427      1425      1424      1426
      1425      1424      1427      1426      1424      1427      1424      1427      1428
      1424      1427      1429      1424      1427      1430      1428      1427      1429
      1428      1427      1430      1429      1427      1430      1427      1430      1431
      1427      1430      1432      1427      1430      1433      1431      1430      1432
      1431      1430      1433      1432      1430      1433      1430      1433      1434
      1430      1433      1435      1430      1433      1436      1434      1433      1435
      1434      1433      1436      1435      1433      1436      1433      1436      1437
      1433      1436      1438      1433      1436      1439      1437      1436      1438
      1437      1436      1439      1438      1436      1439      1436      1439      1440
      1436      1439      1441      1436      1439      1442      1440      1439      1441
      1440      1439      1442      1441      1439      1442      1439      1442      1443
      1439      1442      1444      1439      1442      1445      1443      1442      1444
      1443      1442      1445      1444      1442      1445      1442      1445      1446
      1442      1445      1447      1442      1445      1448      1446      1445      1447
      1446      1445      1448      1447      1445      1448      1445      1448      1449
      1445      1448      1450      1445      1448      1451      1449      1448      1450
      1449      1448      1451      1450      1448      1451      1448      1451      1452
      1448      1451      1453      1448      1451      1454      1452      1451      1453
      1452      1451      1454      1453      1451      1454      1451      1454      1455
      1451      1454      1456      1451      1454      1457      1455      1454      1456
      1455      1454      1457      1456      1454      1457      1454      1457      1458
      1454      1457      1459      1454      1457      1460      1458      1457      1459
      1458      1457      1460      1459      1457      1460      1457      1460      1461
      1457      1460      1462      1457      1460      1463      1461      1460      1462
      1461      1460      1463      1462      1460      1463      1465      1464      1466
      1465      1464      1467      1465      1464      1468      1466      1464      1467
      1466      1464      1468      1467      1464      1468      1464      1468      1469
      1464      1468      1470      1464      1468      1471      1469      1468      1470
      1469      1468      1471      1470      1468      1471      1468      1471      1472
      1468      1471      1473      1468      1471      1478      1472      1471      1473
      1472      1471      1478      1473      1471      1478      1475      1474      1476
      1475      1474      1477      1475      1474      1478      1476      1474      1477
      1476      1474      1478      1477      1474      1478      1474      1477      1479
      1471      1478      1474      1477      1479      1480      1477      1479      1481
      1477      1479      1482      1480      1479      1481      1480      1479      1482
      1481      1479      1482      1479      1482      1483      1479      1482      1484
      1479      1482      1490      1483      1482      1484      1483      1482      1490
      1484      1482      1490      1482      1484      1485      1484      1485      1486
      1484      1485      1487      1486      1485      1487      1485      1487      1488
      1485      1487      1489      1485      1487      1499      1488      1487      1489
      1488      1487      1499      1489      1487      1499      1482      1490      1491
      1482      1490      1492      1482      1490      1493      1491      1490      1492
      1491      1490      1493      1492      1490      1493      1490      1493      1494
      1493      1494      1495      1493      1494      1496      1495      1494      1496
      1494      1496      1497      1494      1496      1498      1494      1496      1546
      1497      1496      1498      1497      1496      1546      1498      1496      1546
      1487      1499      1500      1487      1499      1501      1487      1499      1502
      1500      1499      1501      1500      1499      1502      1501      1499      1502
      1499      1502      1503      1499      1502      1504      1499      1502      1505
      1503      1502      1504      1503      1502      1505      1504      1502      1505
      1502      1505      1506      1502      1505      1507      1502      1505      1508
      1506      1505      1507      1506      1505      1508      1507      1505      1508
      1505      1508      1509      1505      1508      1510      1505      1508      1511
      1509      1508      1510      1509      1508      1511      1510      1508      1511
      1508      1511      1512      1508      1511      1513      1508      1511      1514
      1512      1511      1513      1512      1511      1514      1513      1511      1514
      1511      1514      1515      1511      1514      1516      1511      1514      1517
      1515      1514      1516      1515      1514      1517      1516      1514      1517
      1514      1517      1518      1514      1517      1519      1518      1517      1519
      1517      1519      1520      1517      1519      1521      1520      1519      1521
      1519      1521      1522      1519      1521      1523      1519      1521      1524
      1522      1521      1523      1522      1521      1524      1523      1521      1524
      1521      1524      1525      1521      1524      1526      1521      1524      1527
      1525      1524      1526      1525      1524      1527      1526      1524      1527
      1524      1527      1528      1524      1527      1529      1524      1527      1530
      1528      1527      1529      1528      1527      1530      1529      1527      1530
      1527      1530      1531      1527      1530      1532      1527      1530      1533
      1531      1530      1532      1531      1530      1533      1532      1530      1533
      1530      1533      1534      1530      1533      1535      1530      1533      1536
      1534      1533      1535      1534      1533      1536      1535      1533      1536
      1533      1536      1537      1533      1536      1538      1533      1536      1539
      1537      1536      1538      1537      1536      1539      1538      1536      1539
      1536      1539      1540      1536      1539      1541      1536      1539      1542
      1540      1539      1541      1540      1539      1542      1541      1539      1542
      1539      1542      1543      1539      1542      1544      1539      1542      1545
      1543      1542      1544      1543      1542      1545      1544      1542      1545
      1496      1546      1547      1496      1546      1548      1496      1546      1549
      1547      1546      1548      1547      1546      1549      1548      1546      1549
      1546      1549      1550      1546      1549      1551      1546      1549      1552
      1550      1549      1551      1550      1549      1552      1551      1549      1552
      1549      1552      1553      1549      1552      1554      1549      1552      1555
      1553      1552      1554      1553      1552      1555      1554      1552      1555
      1552      1555      1556      1552      1555      1557      1552      1555      1558
      1556      1555      1557      1556      1555      1558      1557      1555      1558
      1555      1558      1559      1555      1558      1560      1555      1558      1561
      1559      1558      1560      1559      1558      1561      1560      1558      1561
      1558      1561      1562      1558      1561      1563      1558      1561      1564
      1562      1561      1563      1562      1561      1564      1563      1561      1564
      1561      1564      1565      1561      1564      1566      1561      1564      1567
      1565      1564      1566      1565      1564      1567      1566      1564      1567
      1564      1567      1568      1564      1567      1569      1564      1567      1570
      1568      1567      1569      1568      1567      1570      1569      1567      1570
      1567      1570      1571      1567      1570      1572      1567      1570      1573
      1571      1570      1572      1571      1570      1573      1572      1570      1573
      1570      1573      1574      1570      1573      1575      1570      1573      1576
      1574      1573      1575      1574      1573      1576      1575      1573      1576
      1573      1576      1577      1573      1576      1578      1573      1576      1579
      1577      1576      1578      1577      1576      1579      1578      1576      1579
      1576      1579      1580      1576      1579      1581      1576      1579      1582
      1580      1579      1581      1580      1579      1582      1581      1579      1582
      1579      1582      1583      1579      1582      1584      1579      1582      1585
      1583      1582      1584      1583      1582      1585      1584      1582      1585
      1582      1585      1586      1582      1585      1587      1582      1585      1588
      1586      1585      1587      1586      1585      1588      1587      1585      1588
      1590      1589      1591      1590      1589      1592      1590      1589      1593
      1591      1589      1592      1591      1589      1593      1592      1589      1593
      1589      1593      1594      1589      1593      1595      1589      1593      1596
      1594      1593      1595      1594      1593      1596      1595      1593      1596
      1593      1596      1597      1593      1596      1598      1593      1596      1603
      1597      1596      1598      1597      1596      1603      1598      1596      1603
      1600      1599      1601      1600      1599      1602      1600      1599      1603
      1601      1599      1602      1601      1599      1603      1602      1599      1603
      1599      1602      1604      1596      1603      1599      1602      1604      1605
      1602      1604      1606      1602      1604      1607      1605      1604      1606
      1605      1604      1607      1606      1604      1607      1604      1607      1608
      1604      1607      1609      1604      1607      1615      1608      1607      1609
      1608      1607      1615      1609      1607      1615      1607      1609      1610
      1609      1610      1611      1609      1610      1612      1611      1610      1612
      1610      1612      1613      1610      1612      1614      1610      1612      1624
      1613      1612      1614      1613      1612      1624      1614      1612      1624
      1607      1615      1616      1607      1615      1617      1607      1615      1618
      1616      1615      1617      1616      1615      1618      1617      1615      1618
      1615      1618      1619      1618      1619      1620      1618      1619      1621
      1620      1619      1621      1619      1621      1622      1619      1621      1623
      1619      1621      1668      1622      1621      1623      1622      1621      1668
      1623      1621      1668      1612      1624      1625      1612      1624      1626
      1612      1624      1627      1625      1624      1626      1625      1624      1627
      1626      1624      1627      1624      1627      1628      1624      1627      1629
      1624      1627      1630      1628      1627      1629      1628      1627      1630
      1629      1627      1630      1627      1630      1631      1627      1630      1632
      1627      1630      1633      1631      1630      1632      1631      1630      1633
      1632      1630      1633      1630      1633      1634      1630      1633      1635
      1630      1633      1636      1634      1633      1635      1634      1633      1636
      1635      1633      1636      1633      1636      1637      1633      1636      1638
      1633      1636      1639      1637      1636      1638      1637      1636      1639
      1638      1636      1639      1636      1639      1640      1636      1639      1641
      1636      1639      1642      1640      1639      1641      1640      1639      1642
      1641      1639      1642      1639      1642      1643      1639      1642      1644
      1639      1642      1647      1643      1642      1644      1643      1642      1647
      1644      1642      1647      1642      1644      1645      1642      1644      1646
      1642      1644      1647      1645      1644      1646      1645      1644      1647
      1646      1644      1647      1642      1647      1644      1642      1647      1648
      1642      1647      1649      1644      1647      1648      1644      1647      1649
      1648      1647      1649      1647      1649      1650      1647      1649      1651
      1647      1649      1652      1650      1649      1651      1650      1649      1652
      1651      1649      1652      1649      1652      1653      1649      1652      1654
      1649      1652      1655      1653      1652      1654      1653      1652      1655
      1654      1652      1655      1652      1655      1656      1652      1655      1657
      1652      1655      1658      1656      1655      1657      1656      1655      1658
      1657      1655      1658      1655      1658      1659      1655      1658      1660
      1655      1658      1661      1659      1658      1660      1659      1658      1661
      1660      1658      1661      1658      1661      1662      1658      1661      1663
      1658      1661      1664      1662      1661      1663      1662      1661      1664
      1663      1661      1664      1661      1664      1665      1661      1664      1666
      1661      1664      1667      1665      1664      1666      1665      1664      1667
      1666      1664      1667      1621      1668      1669      1621      1668      1670
      1621      1668      1671      1669      1668      1670      1669      1668      1671
      1670      1668      1671      1668      1671      1672      1668      1671      1673
      1668      1671      1674      1672      1671      1673      1672      1671      1674
      1673      1671      1674      1671      1674      1675      1671      1674      1676
      1671      1674      1677      1675      1674      1676      1675      1674      1677
      1676      1674      1677      1674      1677      1678      1674      1677      1679
      1674      1677      1680      1678      1677      1679      1678      1677      1680
      1679      1677      1680      1677      1680      1681      1677      1680      1682
      1677      1680      1683      1681      1680      1682      1681      1680      1683
      1682      1680      1683      1680      1683      1684      1680      1683      1685
      1680      1683      1686      1684      1683      1685      1684      1683      1686
      1685      1683      1686      1683      1686      1687      1683      1686      1688
      1683      1686      1689      1687      1686      1688      1687      1686      1689
      1688      1686      1689      1686      1689      1690      1686      1689      1691
      1686      1689      1692      1690      1689      1691      1690      1689      1692
      1691      1689      1692      1689      1692      1693      1689      1692      1694
      1689      1692      1695      1693      1692      1694      1693      1692      1695
      1694      1692      1695      1692      1695      1696      1692      1695      1697
      1692      1695      1698      1696      1695      1697      1696      1695      1698
      1697      1695      1698      1695      1698      1699      1695      1698      1700
      1695      1698      1701      1699      1698      1700      1699      1698      1701
      1700      1698      1701      1698      1701      1702      1698      1701      1703
      1698      1701      1704      1702      1701      1703      1702      1701      1704
      1703      1701      1704      1701      1704      1705      1701      1704      1706
      1701      1704      1707      1705      1704      1706      1705      1704      1707
      1706      1704      1707      1704      1707      1708      1704      1707      1709
      1704      1707      1710      1708      1707      1709      1708      1707      1710
      1709      1707      1710      1712      1711      1713      1712      1711      1714
      1712      1711      1715      1713      1711      1714      1713      1711      1715
      1714      1711      1715      1711      1715      1716      1711      1715      1717
      1711      1715      1718      1716      1715      1717      1716      1715      1718
      1717      1715      1718      1715      1718      1719      1715      1718      1720
      1715      1718      1725      1719      1718      1720      1719      1718      1725
      1720      1718      1725      1722      1721      1723      1722      1721      1724
      1722      1721      1725      1723      1721      1724      1723      1721      1725
      1724      1721      1725      1721      1724      1726      1718      1725      1721
      1724      1726      1727      1724      1726      1728      1724      1726      1729
      1727      1726      1728      1727      1726      1729      1728      1726      1729
      1726      1729      1730      1726      1729      1731      1726      1729      1737
      1730      1729      1731      1730      1729      1737      1731      1729      1737
      1729      1731      1732      1731      1732      1733      1731      1732      1734
      1733      1732      1734      1732      1734      1735      1732      1734      1736
      1732      1734      1746      1735      1734      1736      1735      1734      1746
      1736      1734      1746      1729      1737      1738      1729      1737      1739
      1729      1737      1740      1738      1737      1739      1738      1737      1740
      1739      1737      1740      1737      1740      1741      1740      1741      1742
      1740      1741      1743      1742      1741      1743      1741      1743      1744
      1741      1743      1745      1741      1743      1787      1744      1743      1745
      1744      1743      1787      1745      1743      1787      1734      1746      1747
      1734      1746      1748      1734      1746      1749      1747      1746      1748
      1747      1746      1749      1748      1746      1749      1746      1749      1750
      1746      1749      1751      1746      1749      1752      1750      1749      1751
      1750      1749      1752      1751      1749      1752      1749      1752      1753
      1749      1752      1754      1749      1752      1755      1753      1752      1754
      1753      1752      1755      1754      1752      1755      1752      1755      1756
      1752      1755      1757      1752      1755      1758      1756      1755      1757
      1756      1755      1758      1757      1755      1758      1755      1758      1759
      1755      1758      1760      1755      1758      1761      1759      1758      1760
      1759      1758      1761      1760      1758      1761      1758      1761      1762
      1758      1761      1763      1758      1761      1764      1762      1761      1763
      1762      1761      1764      1763      1761      1764      1761      1764      1765
      1761      1764      1766      1765      1764      1766      1764      1766      1767
      1764      1766      1768      1767      1766      1768      1766      1768      1769
      1766      1768      1770      1766      1768      1771      1769      1768      1770
      1769      1768      1771      1770      1768      1771      1768      1771      1772
      1768      1771      1773      1768      1771      1774      1772      1771      1773
      1772      1771      1774      1773      1771      1774      1771      1774      1775
      1771      1774      1776      1771      1774      1777      1775      1774      1776
      1775      1774      1777      1776      1774      1777      1774      1777      1778
      1774      1777      1779      1774      1777      1780      1778      1777      1779
      1778      1777      1780      1779      1777      1780      1777      1780      1781
      1777      1780      1782      1777      1780      1783      1781      1780      1782
      1781      1780      1783      1782      1780      1783      1780      1783      1784
      1780      1783      1785      1780      1783      1786      1784      1783      1785
      1784      1783      1786      1785      1783      1786      1743      1787      1788
      1743      1787      1789      1743      1787      1790      1788      1787      1789
      1788      1787      1790      1789      1787      1790      1787      1790      1791
      1787      1790      1792      1787      1790      1793      1791      1790      1792
      1791      1790      1793      1792      1790      1793      1790      1793      1794
      1790      1793      1795      1790      1793      1796      1794      1793      1795
      1794      1793      1796      1795      1793      1796      1793      1796      1797
      1793      1796      1798      1793      1796      1799      1797      1796      1798
      1797      1796      1799      1798      1796      1799      1796      1799      1800
      1796      1799      1801      1796      1799      1802      1800      1799      1801
      1800      1799      1802      1801      1799      1802      1799      1802      1803
      1799      1802      1804      1799      1802      1805      1803      1802      1804
      1803      1802      1805      1804      1802      1805      1802      1805      1806
      1802      1805      1807      1806      1805      1807      1805      1807      1808
      1805      1807      1809      1808      1807      1809      1807      1809      1810
      1807      1809      1811      1807      1809      1812      1810      1809      1811
      1810      1809      1812      1811      1809      1812      1809      1812      1813
      1809      1812      1814      1809      1812      1815      1813      1812      1814
      1813      1812      1815      1814      1812      1815      1812      1815      1816
      1812      1815      1817      1812      1815      1818      1816      1815      1817
      1816      1815      1818      1817      1815      1818      1815      1818      1819
      1815      1818      1820      1815      1818      1821      1819      1818      1820
      1819      1818      1821      1820      1818      1821      1818      1821      1822
      1818      1821      1823      1818      1821      1824      1822      1821      1823
      1822      1821      1824      1823      1821      1824      1821      1824      1825
      1821      1824      1826      1821      1824      1827      1825      1824      1826
      1825      1824      1827      1826      1824      1827      1824      1827      1828
      1824      1827      1829      1824      1827      1830      1828      1827      1829
      1828      1827      1830      1829      1827      1830      1827      1830      1831
      1827      1830      1832      1827      1830      1833      1831      1830      1832
      1831      1830      1833      1832      1830      1833      1835      1834      1836
      1835      1834      1837      1835      1834      1839      1836      1834      1837
      1836      1834      1839      1837      1834      1839      1834      1837      1838
      1834      1839      1840      1834      1839      1841      1834      1839      1843
      1840      1839      1841      1840      1839      1843      1841      1839      1843
      1839      1841      1842      1839      1843      1844      1839      1843      1845
      1839      1843      1850      1844      1843      1845      1844      1843      1850
      1845      1843      1850      1847      1846      1848      1847      1846      1849
      1847      1846      1850      1848      1846      1849      1848      1846      1850
      1849      1846      1850      1846      1849      1851      1843      1850      1846
      1849      1851      1852      1849      1851      1853      1849      1851      1854
      1852      1851      1853      1852      1851      1854      1853      1851      1854
      1851      1854      1855      1851      1854      1856      1851      1854      1862
      1855      1854      1856      1855      1854      1862      1856      1854      1862
      1854      1856      1857      1856      1857      1858      1856      1857      1859
      1858      1857      1859      1857      1859      1860      1857      1859      1861
      1857      1859      1871      1860      1859      1861      1860      1859      1871
      1861      1859      1871      1854      1862      1863      1854      1862      1864
      1854      1862      1865      1863      1862      1864      1863      1862      1865
      1864      1862      1865      1862      1865      1866      1865      1866      1867
      1865      1866      1868      1867      1866      1868      1866      1868      1869
      1866      1868      1870      1866      1868      1912      1869      1868      1870
      1869      1868      1912      1870      1868      1912      1859      1871      1872
      1859      1871      1873      1859      1871      1874      1872      1871      1873
      1872      1871      1874      1873      1871      1874      1871      1874      1875
      1871      1874      1876      1871      1874      1877      1875      1874      1876
      1875      1874      1877      1876      1874      1877      1874      1877      1878
      1874      1877      1879      1874      1877      1880      1878      1877      1879
      1878      1877      1880      1879      1877      1880      1877      1880      1881
      1877      1880      1882      1877      1880      1883      1881      1880      1882
      1881      1880      1883      1882      1880      1883      1880      1883      1884
      1880      1883      1885      1880      1883      1886      1884      1883      1885
      1884      1883      1886      1885      1883      1886      1883      1886      1887
      1883      1886      1888      1883      1886      1889      1887      1886      1888
      1887      1886      1889      1888      1886      1889      1886      1889      1890
      1886      1889      1891      1890      1889      1891      1889      1891      1892
      1889      1891      1893      1892      1891      1893      1891      1893      1894
      1891      1893      1895      1891      1893      1896      1894      1893      1895
      1894      1893      1896      1895      1893      1896      1893      1896      1897
      1893      1896      1898      1893      1896      1899      1897      1896      1898
      1897      1896      1899      1898      1896      1899      1896      1899      1900
      1896      1899      1901      1896      1899      1902      1900      1899      1901
      1900      1899      1902      1901      1899      1902      1899      1902      1903
      1899      1902      1904      1899      1902      1905      1903      1902      1904
      1903      1902      1905      1904      1902      1905      1902      1905      1906
      1902      1905      1907      1902      1905      1908      1906      1905      1907
      1906      1905      1908      1907      1905      1908      1905      1908      1909
      1905      1908      1910      1905      1908      1911      1909      1908      1910
      1909      1908      1911      1910      1908      1911      1868      1912      1913
      1868      1912      1914      1868      1912      1915      1913      1912      1914
      1913      1912      1915      1914      1912      1915      1912      1915      1916
      1912      1915      1917      1912      1915      1918      1916      1915      1917
      1916      1915      1918      1917      1915      1918      1915      1918      1919
      1915      1918      1920      1915      1918      1921      1919      1918      1920
      1919      1918      1921      1920      1918      1921      1918      1921      1922
      1918      1921      1923      1918      1921      1924      1922      1921      1923
      1922      1921      1924      1923      1921      1924      1921      1924      1925
      1921      1924      1926      1921      1924      1927      1925      1924      1926
      1925      1924      1927      1926      1924      1927      1924      1927      1928
      1924      1927      1929      1924      1927      1930      1928      1927      1929
      1928      1927      1930      1929      1927      1930      1927      1930      1931
      1927      1930      1932      1927      1930      1933      1931      1930      1932
      1931      1930      1933      1932      1930      1933      1930      1933      1934
      1930      1933      1935      1930      1933      1936      1934      1933      1935
      1934      1933      1936      1935      1933      1936      1933      1936      1937
      1933      1936      1938      1933      1936      1939      1937      1936      1938
      1937      1936      1939      1938      1936      1939      1936      1939      1940
      1936      1939      1941      1936      1939      1942      1940      1939      1941
      1940      1939      1942      1941      1939      1942      1939      1942      1943
      1939      1942      1944      1939      1942      1945      1943      1942      1944
      1943      1942      1945      1944      1942      1945      1942      1945      1946
      1942      1945      1947      1942      1945      1948      1946      1945      1947
      1946      1945      1948      1947      1945      1948      1945      1948      1949
      1945      1948      1950      1945      1948      1951      1949      1948      1950
      1949      1948      1951      1950      1948      1951      1948      1951      1952
      1948      1951      1953      1948      1951      1954      1952      1951      1953
      1952      1951      1954      1953      1951      1954      1956      1955      1957
      1956      1955      1958      1956      1955      1959      1957      1955      1958
      1957      1955      1959      1958      1955      1959      1955      1959      1960
      1955      1959      1961      1955      1959      1962      1960      1959      1961
      1960      1959      1962      1961      1959      1962      1959      1962      1963
      1959      1962      1964      1959      1962      1969      1963      1962      1964
      1963      1962      1969      1964      1962      1969      1966      1965      1967
      1966      1965      1968      1966      1965      1969      1967      1965      1968
      1967      1965      1969      1968      1965      1969      1965      1968      1970
      1962      1969      1965      1968      1970      1971      1968      1970      1972
      1968      1970      1973      1971      1970      1972      1971      1970      1973
      1972      1970      1973      1970      1973      1974      1970      1973      1975
      1970      1973      1981      1974      1973      1975      1974      1973      1981
      1975      1973      1981      1973      1975      1976      1975      1976      1977
      1975      1976      1978      1977      1976      1978      1976      1978      1979
      1976      1978      1980      1976      1978      1990      1979      1978      1980
      1979      1978      1990      1980      1978      1990      1973      1981      1982
      1973      1981      1983      1973      1981      1984      1982      1981      1983
      1982      1981      1984      1983      1981      1984      1981      1984      1985
      1984      1985      1986      1984      1985      1987      1986      1985      1987
      1985      1987      1988      1985      1987      1989      1985      1987      2034
      1988      1987      1989      1988      1987      2034      1989      1987      2034
      1978      1990      1991      1978      1990      1992      1978      1990      1993
      1991      1990      1992      1991      1990      1993      1992      1990      1993
      1990      1993      1994      1990      1993      1995      1990      1993      1996
      1994      1993      1995      1994      1993      1996      1995      1993      1996
      1993      1996      1997      1993      1996      1998      1993      1996      1999
      1997      1996      1998      1997      1996      1999      1998      1996      1999
      1996      1999      2000      1996      1999      2001      1996      1999      2002
      2000      1999      2001      2000      1999      2002      2001      1999      2002
      1999      2002      2003      1999      2002      2004      1999      2002      2005
      2003      2002      2004      2003      2002      2005      2004      2002      2005
      2002      2005      2006      2002      2005      2007      2002      2005      2008
      2006      2005      2007      2006      2005      2008      2007      2005      2008
      2005      2008      2009      2005      2008      2010      2005      2008      2013
      2009      2008      2010      2009      2008      2013      2010      2008      2013
      2008      2010      2011      2008      2010      2012      2008      2010      2013
      2011      2010      2012      2011      2010      2013      2012      2010      2013
      2008      2013      2010      2008      2013      2014      2008      2013      2015
      2010      2013      2014      2010      2013      2015      2014      2013      2015
      2013      2015      2016      2013      2015      2017      2013      2015      2018
      2016      2015      2017      2016      2015      2018      2017      2015      2018
      2015      2018      2019      2015      2018      2020      2015      2018      2021
      2019      2018      2020      2019      2018      2021      2020      2018      2021
      2018      2021      2022      2018      2021      2023      2018      2021      2024
      2022      2021      2023      2022      2021      2024      2023      2021      2024
      2021      2024      2025      2021      2024      2026      2021      2024      2027
      2025      2024      2026      2025      2024      2027      2026      2024      2027
      2024      2027      2028      2024      2027      2029      2024      2027      2030
      2028      2027      2029      2028      2027      2030      2029      2027      2030
      2027      2030      2031      2027      2030      2032      2027      2030      2033
      2031      2030      2032      2031      2030      2033      2032      2030      2033
      1987      2034      2035      1987      2034      2036      1987      2034      2037
      2035      2034      2036      2035      2034      2037      2036      2034      2037
      2034      2037      2038      2034      2037      2039      2034      2037      2040
      2038      2037      2039      2038      2037      2040      2039      2037      2040
      2037      2040      2041      2037      2040      2042      2037      2040      2043
      2041      2040      2042      2041      2040      2043      2042      2040      2043
      2040      2043      2044      2040      2043      2045      2040      2043      2046
      2044      2043      2045      2044      2043      2046      2045      2043      2046
      2043      2046      2047      2043      2046      2048      2043      2046      2049
      2047      2046      2048      2047      2046      2049      2048      2046      2049
      2046      2049      2050      2046      2049      2051      2046      2049      2052
      2050      2049      2051      2050      2049      2052      2051      2049      2052
      2049      2052      2053      2049      2052      2054      2049      2052      2055
      2053      2052      2054      2053      2052      2055      2054      2052      2055
      2052      2055      2056      2052      2055      2057      2052      2055      2058
      2056      2055      2057      2056      2055      2058      2057      2055      2058
      2055      2058      2059      2055      2058      2060      2055      2058      2061
      2059      2058      2060      2059      2058      2061      2060      2058      2061
      2058      2061      2062      2058      2061      2063      2058      2061      2064
      2062      2061      2063      2062      2061      2064      2063      2061      2064
      2061      2064      2065      2061      2064      2066      2061      2064      2067
      2065      2064      2066      2065      2064      2067      2066      2064      2067
      2064      2067      2068      2064      2067      2069      2064      2067      2070
      2068      2067      2069      2068      2067      2070      2069      2067      2070
      2067      2070      2071      2067      2070      2072      2067      2070      2073
      2071      2070      2072      2071      2070      2073      2072      2070      2073
      2070      2073      2074      2070      2073      2075      2070      2073      2076
      2074      2073      2075      2074      2073      2076      2075      2073      2076
      2078      2077      2079      2078      2077      2080      2078      2077      2081
      2079      2077      2080      2079      2077      2081      2080      2077      2081
      2077      2081      2082      2077      2081      2083      2077      2081      2084
      2082      2081      2083      2082      2081      2084      2083      2081      2084
      2081      2084      2085      2081      2084      2086      2081      2084      2091
      2085      2084      2086      2085      2084      2091      2086      2084      2091
      2088      2087      2089      2088      2087      2090      2088      2087      2091
      2089      2087      2090      2089      2087      2091      2090      2087      2091
      2087      2090      2092      2084      2091      2087      2090      2092      2093
      2090      2092      2094      2090      2092      2095      2093      2092      2094
      2093      2092      2095      2094      2092      2095      2092      2095      2096
      2092      2095      2097      2092      2095      2103      2096      2095      2097
      2096      2095      2103      2097      2095      2103      2095      2097      2098
      2097      2098      2099      2097      2098      2100      2099      2098      2100
      2098      2100      2101      2098      2100      2102      2098      2100      2112
      2101      2100      2102      2101      2100      2112      2102      2100      2112
      2095      2103      2104      2095      2103      2105      2095      2103      2106
      2104      2103      2105      2104      2103      2106      2105      2103      2106
      2103      2106      2107      2106      2107      2108      2106      2107      2109
      2108      2107      2109      2107      2109      2110      2107      2109      2111
      2107      2109      2156      2110      2109      2111      2110      2109      2156
      2111      2109      2156      2100      2112      2113      2100      2112      2114
      2100      2112      2115      2113      2112      2114      2113      2112      2115
      2114      2112      2115      2112      2115      2116      2112      2115      2117
      2112      2115      2118      2116      2115      2117      2116      2115      2118
      2117      2115      2118      2115      2118      2119      2115      2118      2120
      2115      2118      2121      2119      2118      2120      2119      2118      2121
      2120      2118      2121      2118      2121      2122      2118      2121      2123
      2118      2121      2124      2122      2121      2123      2122      2121      2124
      2123      2121      2124      2121      2124      2125      2121      2124      2126
      2121      2124      2127      2125      2124      2126      2125      2124      2127
      2126      2124      2127      2124      2127      2128      2124      2127      2129
      2124      2127      2130      2128      2127      2129      2128      2127      2130
      2129      2127      2130      2127      2130      2131      2127      2130      2132
      2127      2130      2135      2131      2130      2132      2131      2130      2135
      2132      2130      2135      2130      2132      2133      2130      2132      2134
      2130      2132      2135      2133      2132      2134      2133      2132      2135
      2134      2132      2135      2130      2135      2132      2130      2135      2136
      2130      2135      2137      2132      2135      2136      2132      2135      2137
      2136      2135      2137      2135      2137      2138      2135      2137      2139
      2135      2137      2140      2138      2137      2139      2138      2137      2140
      2139      2137      2140      2137      2140      2141      2137      2140      2142
      2137      2140      2143      2141      2140      2142      2141      2140      2143
      2142      2140      2143      2140      2143      2144      2140      2143      2145
      2140      2143      2146      2144      2143      2145      2144      2143      2146
      2145      2143      2146      2143      2146      2147      2143      2146      2148
      2143      2146      2149      2147      2146      2148      2147      2146      2149
      2148      2146      2149      2146      2149      2150      2146      2149      2151
      2146      2149      2152      2150      2149      2151      2150      2149      2152
      2151      2149      2152      2149      2152      2153      2149      2152      2154
      2149      2152      2155      2153      2152      2154      2153      2152      2155
      2154      2152      2155      2109      2156      2157      2109      2156      2158
      2109      2156      2159      2157      2156      2158      2157      2156      2159
      2158      2156      2159      2156      2159      2160      2156      2159      2161
      2156      2159      2162      2160      2159      2161      2160      2159      2162
      2161      2159      2162      2159      2162      2163      2159      2162      2164
      2159      2162      2165      2163      2162      2164      2163      2162      2165
      2164      2162      2165      2162      2165      2166      2162      2165      2167
      2162      2165      2168      2166      2165      2167      2166      2165      2168
      2167      2165      2168      2165      2168      2169      2165      2168      2170
      2165      2168      2171      2169      2168      2170      2169      2168      2171
      2170      2168      2171      2168      2171      2172      2168      2171      2173
      2168      2171      2174      2172      2171      2173      2172      2171      2174
      2173      2171      2174      2171      2174      2175      2171      2174      2176
      2171      2174      2177      2175      2174      2176      2175      2174      2177
      2176      2174      2177      2174      2177      2178      2174      2177      2179
      2174      2177      2180      2178      2177      2179      2178      2177      2180
      2179      2177      2180      2177      2180      2181      2177      2180      2182
      2177      2180      2183      2181      2180      2182      2181      2180      2183
      2182      2180      2183      2180      2183      2184      2180      2183      2185
      2180      2183      2186      2184      2183      2185      2184      2183      2186
      2185      2183      2186      2183      2186      2187      2183      2186      2188
      2183      2186      2189      2187      2186      2188      2187      2186      2189
      2188      2186      2189      2186      2189      2190      2186      2189      2191
      2186      2189      2192      2190      2189      2191      2190      2189      2192
      2191      2189      2192      2189      2192      2193      2189      2192      2194
      2189      2192      2195      2193      2192      2194      2193      2192      2195
      2194      2192      2195      2197      2196      2198      2197      2196      2199
      2197      2196      2200      2198      2196      2199      2198      2196      2200
      2199      2196      2200      2196      2200      2201      2196      2200      2202
      2196      2200      2203      2201      2200      2202      2201      2200      2203
      2202      2200      2203      2200      2203      2204      2200      2203      2205
      2200      2203      2210      2204      2203      2205      2204      2203      2210
      2205      2203      2210      2207      2206      2208      2207      2206      2209
      2207      2206      2210      2208      2206      2209      2208      2206      2210
      2209      2206      2210      2206      2209      2211      2203      2210      2206
      2209      2211      2212      2209      2211      2213      2209      2211      2214
      2212      2211      2213      2212      2211      2214      2213      2211      2214
      2211      2214      2215      2211      2214      2216      2211      2214      2222
      2215      2214      2216      2215      2214      2222      2216      2214      2222
      2214      2216      2217      2216      2217      2218      2216      2217      2219
      2218      2217      2219      2217      2219      2220      2217      2219      2221
      2217      2219      2231      2220      2219      2221      2220      2219      2231
      2221      2219      2231      2214      2222      2223      2214      2222      2224
      2214      2222      2225      2223      2222      2224      2223      2222      2225
      2224      2222      2225      2222      2225      2226      2225      2226      2227
      2225      2226      2228      2227      2226      2228      2226      2228      2229
      2226      2228      2230      2226      2228      2272      2229      2228      2230
      2229      2228      2272      2230      2228      2272      2219      2231      2232
      2219      2231      2233      2219      2231      2234      2232      2231      2233
      2232      2231      2234      2233      2231      2234      2231      2234      2235
      2231      2234      2236      2231      2234      2237      2235      2234      2236
      2235      2234      2237      2236      2234      2237      2234      2237      2238
      2234      2237      2239      2234      2237      2240      2238      2237      2239
      2238      2237      2240      2239      2237      2240      2237      2240      2241
      2237      2240      2242      2237      2240      2243      2241      2240      2242
      2241      2240      2243      2242      2240      2243      2240      2243      2244
      2240      2243      2245      2240      2243      2246      2244      2243      2245
      2244      2243      2246      2245      2243      2246      2243      2246      2247
      2243      2246      2248      2243      2246      2249      2247      2246      2248
      2247      2246      2249      2248      2246      2249      2246      2249      2250
      2246      2249      2251      2250      2249      2251      2249      2251      2252
      2249      2251      2253      2252      2251      2253      2251      2253      2254
      2251      2253      2255      2251      2253      2256      2254      2253      2255
      2254      2253      2256      2255      2253      2256      2253      2256      2257
      2253      2256      2258      2253      2256      2259      2257      2256      2258
      2257      2256      2259      2258      2256      2259      2256      2259      2260
      2256      2259      2261      2256      2259      2262      2260      2259      2261
      2260      2259      2262      2261      2259      2262      2259      2262      2263
      2259      2262      2264      2259      2262      2265      2263      2262      2264
      2263      2262      2265      2264      2262      2265      2262      2265      2266
      2262      2265      2267      2262      2265      2268      2266      2265      2267
      2266      2265      2268      2267      2265      2268      2265      2268      2269
      2265      2268      2270      2265      2268      2271      2269      2268      2270
      2269      2268      2271      2270      2268      2271      2228      2272      2273
      2228      2272      2274      2228      2272      2275      2273      2272      2274
      2273      2272      2275      2274      2272      2275      2272      2275      2276
      2272      2275      2277      2272      2275      2278      2276      2275      2277
      2276      2275      2278      2277      2275      2278      2275      2278      2279
      2275      2278      2280      2275      2278      2281      2279      2278      2280
      2279      2278      2281      2280      2278      2281      2278      2281      2282
      2278      2281      2283      2278      2281      2284      2282      2281      2283
      2282      2281      2284      2283      2281      2284      2281      2284      2285
      2281      2284      2286      2281      2284      2287      2285      2284      2286
      2285      2284      2287      2286      2284      2287      2284      2287      2288
      2284      2287      2289      2284      2287      2290      2288      2287      2289
      2288      2287      2290      2289      2287      2290      2287      2290      2291
      2287      2290      2292      2291      2290      2292      2290      2292      2293
      2290      2292      2294      2293      2292      2294      2292      2294      2295
      2292      2294      2296      2292      2294      2297      2295      2294      2296
      2295      2294      2297      2296      2294      2297      2294      2297      2298
      2294      2297      2299      2294      2297      2300      2298      2297      2299
      2298      2297      2300      2299      2297      2300      2297      2300      2301
      2297      2300      2302      2297      2300      2303      2301      2300      2302
      2301      2300      2303      2302      2300      2303      2300      2303      2304
      2300      2303      2305      2300      2303      2306      2304      2303      2305
      2304      2303      2306      2305      2303      2306      2303      2306      2307
      2303      2306      2308      2303      2306      2309      2307      2306      2308
      2307      2306      2309      2308      2306      2309      2306      2309      2310
      2306      2309      2311      2306      2309      2312      2310      2309      2311
      2310      2309      2312      2311      2309      2312      2309      2312      2313
      2309      2312      2314      2309      2312      2315      2313      2312      2314
      2313      2312      2315      2314      2312      2315      2312      2315      2316
      2312      2315      2317      2312      2315      2318      2316      2315      2317
      2316      2315      2318      2317      2315      2318      2320      2319      2321
      2320      2319      2322      2320      2319      2323      2321      2319      2322
      2321      2319      2323      2322      2319      2323      2319      2323      2324
      2319      2323      2325      2319      2323      2326      2324      2323      2325
      2324      2323      2326      2325      2323      2326      2323      2326      2327
      2323      2326      2328      2323      2326      2333      2327      2326      2328
      2327      2326      2333      2328      2326      2333      2330      2329      2331
      2330      2329      2332      2330      2329      2333      2331      2329      2332
      2331      2329      2333      2332      2329      2333      2329      2332      2334
      2326      2333      2329      2332      2334      2335      2332      2334      2336
      2332      2334      2337      2335      2334      2336      2335      2334      2337
      2336      2334      2337      2334      2337      2338      2334      2337      2339
      2334      2337      2345      2338      2337      2339      2338      2337      2345
      2339      2337      2345      2337      2339      2340      2339      2340      2341
      2339      2340      2342      2341      2340      2342      2340      2342      2343
      2340      2342      2344      2340      2342      2354      2343      2342      2344
      2343      2342      2354      2344      2342      2354      2337      2345      2346
      2337      2345      2347      2337      2345      2348      2346      2345      2347
      2346      2345      2348      2347      2345      2348      2345      2348      2349
      2348      2349      2350      2348      2349      2351      2350      2349      2351
      2349      2351      2352      2349      2351      2353      2349      2351      2401
      2352      2351      2353      2352      2351      2401      2353      2351      2401
      2342      2354      2355      2342      2354      2356      2342      2354      2357
      2355      2354      2356      2355      2354      2357      2356      2354      2357
      2354      2357      2358      2354      2357      2359      2354      2357      2360
      2358      2357      2359      2358      2357      2360      2359      2357      2360
      2357      2360      2361      2357      2360      2362      2357      2360      2363
      2361      2360      2362      2361      2360      2363      2362      2360      2363
      2360      2363      2364      2360      2363      2365      2360      2363      2366
      2364      2363      2365      2364      2363      2366      2365      2363      2366
      2363      2366      2367      2363      2366      2368      2363      2366      2369
      2367      2366      2368      2367      2366      2369      2368      2366      2369
      2366      2369      2370      2366      2369      2371      2366      2369      2372
      2370      2369      2371      2370      2369      2372      2371      2369      2372
      2369      2372      2373      2369      2372      2374      2373      2372      2374
      2372      2374      2375      2372      2374      2376      2375      2374      2376
      2374      2376      2377      2374      2376      2378      2374      2376      2379
      2377      2376      2378      2377      2376      2379      2378      2376      2379
      2376      2379      2380      2376      2379      2381      2376      2379      2382
      2380      2379      2381      2380      2379      2382      2381      2379      2382
      2379      2382      2383      2379      2382      2384      2379      2382      2385
      2383      2382      2384      2383      2382      2385      2384      2382      2385
      2382      2385      2386      2382      2385      2387      2382      2385      2388
      2386      2385      2387      2386      2385      2388      2387      2385      2388
      2385      2388      2389      2385      2388      2390      2385      2388      2391
      2389      2388      2390      2389      2388      2391      2390      2388      2391
      2388      2391      2392      2388      2391      2393      2388      2391      2394
      2392      2391      2393      2392      2391      2394      2393      2391      2394
      2391      2394      2395      2391      2394      2396      2391      2394      2397
      2395      2394      2396      2395      2394      2397      2396      2394      2397
      2394      2397      2398      2394      2397      2399      2394      2397      2400
      2398      2397      2399      2398      2397      2400      2399      2397      2400
      2351      2401      2402      2351      2401      2403      2351      2401      2404
      2402      2401      2403      2402      2401      2404      2403      2401      2404
      2401      2404      2405      2401      2404      2406      2401      2404      2407
      2405      2404      2406      2405      2404      2407      2406      2404      2407
      2404      2407      2408      2404      2407      2409      2404      2407      2410
      2408      2407      2409      2408      2407      2410      2409      2407      2410
      2407      2410      2411      2407      2410      2412      2407      2410      2413
      2411      2410      2412      2411      2410      2413      2412      2410      2413
      2410      2413      2414      2410      2413      2415      2410      2413      2416
      2414      2413      2415      2414      2413      2416      2415      2413      2416
      2413      2416      2417      2413      2416      2418      2413      2416      2419
      2417      2416      2418      2417      2416      2419      2418      2416      2419
      2416      2419      2420      2416      2419      2421      2416      2419      2422
      2420      2419      2421      2420      2419      2422      2421      2419      2422
      2419      2422      2423      2419      2422      2424      2419      2422      2425
      2423      2422      2424      2423      2422      2425      2424      2422      2425
      2422      2425      2426      2422      2425      2427      2422      2425      2428
      2426      2425      2427      2426      2425      2428      2427      2425      2428
      2425      2428      2429      2425      2428      2430      2425      2428      2431
      2429      2428      2430      2429      2428      2431      2430      2428      2431
      2428      2431      2432      2428      2431      2433      2428      2431      2434
      2432      2431      2433      2432      2431      2434      2433      2431      2434
      2431      2434      2435      2431      2434      2436      2431      2434      2437
      2435      2434      2436      2435      2434      2437      2436      2434      2437
      2434      2437      2438      2434      2437      2439      2434      2437      2440
      2438      2437      2439      2438      2437      2440      2439      2437      2440
      2437      2440      2441      2437      2440      2442      2437      2440      2443
      2441      2440      2442      2441      2440      2443      2442      2440      2443
      2445      2444      2446      2445      2444      2447      2445      2444      2448
      2446      2444      2447      2446      2444      2448      2447      2444      2448
      2444      2448      2449      2444      2448      2450      2444      2448      2451
      2449      2448      2450      2449      2448      2451      2450      2448      2451
      2448      2451      2452      2448      2451      2453      2448      2451      2458
      2452      2451      2453      2452      2451      2458      2453      2451      2458
      2455      2454      2456      2455      2454      2457      2455      2454      2458
      2456      2454      2457      2456      2454      2458      2457      2454      2458
      2454      2457      2459      2451      2458      2454      2457      2459      2460
      2457      2459      2461      2457      2459      2462      2460      2459      2461
      2460      2459      2462      2461      2459      2462      2459      2462      2463
      2459      2462      2464      2459      2462      2470      2463      2462      2464
      2463      2462      2470      2464      2462      2470      2462      2464      2465
      2464      2465      2466      2464      2465      2467      2466      2465      2467
      2465      2467      2468      2465      2467      2469      2465      2467      2479
      2468      2467      2469      2468      2467      2479      2469      2467      2479
      2462      2470      2471      2462      2470      2472      2462      2470      2473
      2471      2470      2472      2471      2470      2473      2472      2470      2473
      2470      2473      2474      2473      2474      2475      2473      2474      2476
      2475      2474      2476      2474      2476      2477      2474      2476      2478
      2474      2476      2520      2477      2476      2478      2477      2476      2520
      2478      2476      2520      2467      2479      2480      2467      2479      2481
      2467      2479      2482      2480      2479      2481      2480      2479      2482
      2481      2479      2482      2479      2482      2483      2479      2482      2484
      2479      2482      2485      2483      2482      2484      2483      2482      2485
      2484      2482      2485      2482      2485      2486      2482      2485      2487
      2482      2485      2488      2486      2485      2487      2486      2485      2488
      2487      2485      2488      2485      2488      2489      2485      2488      2490
      2485      2488      2491      2489      2488      2490      2489      2488      2491
      2490      2488      2491      2488      2491      2492      2488      2491      2493
      2488      2491      2494      2492      2491      2493      2492      2491      2494
      2493      2491      2494      2491      2494      2495      2491      2494      2496
      2491      2494      2497      2495      2494      2496      2495      2494      2497
      2496      2494      2497      2494      2497      2498      2494      2497      2499
      2498      2497      2499      2497      2499      2500      2497      2499      2501
      2500      2499      2501      2499      2501      2502      2499      2501      2503
      2499      2501      2504      2502      2501      2503      2502      2501      2504
      2503      2501      2504      2501      2504      2505      2501      2504      2506
      2501      2504      2507      2505      2504      2506      2505      2504      2507
      2506      2504      2507      2504      2507      2508      2504      2507      2509
      2504      2507      2510      2508      2507      2509      2508      2507      2510
      2509      2507      2510      2507      2510      2511      2507      2510      2512
      2507      2510      2513      2511      2510      2512      2511      2510      2513
      2512      2510      2513      2510      2513      2514      2510      2513      2515
      2510      2513      2516      2514      2513      2515      2514      2513      2516
      2515      2513      2516      2513      2516      2517      2513      2516      2518
      2513      2516      2519      2517      2516      2518      2517      2516      2519
      2518      2516      2519      2476      2520      2521      2476      2520      2522
      2476      2520      2523      2521      2520      2522      2521      2520      2523
      2522      2520      2523      2520      2523      2524      2520      2523      2525
      2520      2523      2526      2524      2523      2525      2524      2523      2526
      2525      2523      2526      2523      2526      2527      2523      2526      2528
      2523      2526      2529      2527      2526      2528      2527      2526      2529
      2528      2526      2529      2526      2529      2530      2526      2529      2531
      2526      2529      2532      2530      2529      2531      2530      2529      2532
      2531      2529      2532      2529      2532      2533      2529      2532      2534
      2529      2532      2535      2533      2532      2534      2533      2532      2535
      2534      2532      2535      2532      2535      2536      2532      2535      2537
      2532      2535      2538      2536      2535      2537      2536      2535      2538
      2537      2535      2538      2535      2538      2539      2535      2538      2540
      2539      2538      2540      2538      2540      2541      2538      2540      2542
      2541      2540      2542      2540      2542      2543      2540      2542      2544
      2540      2542      2545      2543      2542      2544      2543      2542      2545
      2544      2542      2545      2542      2545      2546      2542      2545      2547
      2542      2545      2548      2546      2545      2547      2546      2545      2548
      2547      2545      2548      2545      2548      2549      2545      2548      2550
      2545      2548      2551      2549      2548      2550      2549      2548      2551
      2550      2548      2551      2548      2551      2552      2548      2551      2553
      2548      2551      2554      2552      2551      2553      2552      2551      2554
      2553      2551      2554      2551      2554      2555      2551      2554      2556
      2551      2554      2557      2555      2554      2556      2555      2554      2557
      2556      2554      2557      2554      2557      2558      2554      2557      2559
      2554      2557      2560      2558      2557      2559      2558      2557      2560
      2559      2557      2560      2557      2560      2561      2557      2560      2562
      2557      2560      2563      2561      2560      2562      2561      2560      2563
      2562      2560      2563      2560      2563      2564      2560      2563      2565
      2560      2563      2566      2564      2563      2565      2564      2563      2566
      2565      2563      2566      2568      2567      2569      2568      2567      2570
      2568      2567      2571      2569      2567      2570      2569      2567      2571
      2570      2567      2571      2567      2571      2572      2567      2571      2573
      2567      2571      2574      2572      2571      2573      2572      2571      2574
      2573      2571      2574      2571      2574      2575      2571      2574      2576
      2571      2574      2581      2575      2574      2576      2575      2574      2581
      2576      2574      2581      2578      2577      2579      2578      2577      2580
      2578      2577      2581      2579      2577      2580      2579      2577      2581
      2580      2577      2581      2577      2580      2582      2574      2581      2577
      2580      2582      2583      2580      2582      2584      2580      2582      2585
      2583      2582      2584      2583      2582      2585      2584      2582      2585
      2582      2585      2586      2582      2585      2587      2582      2585      2593
      2586      2585      2587      2586      2585      2593      2587      2585      2593
      2585      2587      2588      2587      2588      2589      2587      2588      2590
      2589      2588      2590      2588      2590      2591      2588      2590      2592
      2588      2590      2602      2591      2590      2592      2591      2590      2602
      2592      2590      2602      2585      2593      2594      2585      2593      2595
      2585      2593      2596      2594      2593      2595      2594      2593      2596
      2595      2593      2596      2593      2596      2597      2596      2597      2598
      2596      2597      2599      2598      2597      2599      2597      2599      2600
      2597      2599      2601      2597      2599      2646      2600      2599      2601
      2600      2599      2646      2601      2599      2646      2590      2602      2603
      2590      2602      2604      2590      2602      2605      2603      2602      2604
      2603      2602      2605      2604      2602      2605      2602      2605      2606
      2602      2605      2607      2602      2605      2608      2606      2605      2607
      2606      2605      2608      2607      2605      2608      2605      2608      2609
      2605      2608      2610      2605      2608      2611      2609      2608      2610
      2609      2608      2611      2610      2608      2611      2608      2611      2612
      2608      2611      2613      2608      2611      2614      2612      2611      2613
      2612      2611      2614      2613      2611      2614      2611      2614      2615
      2611      2614      2616      2611      2614      2617      2615      2614      2616
      2615      2614      2617      2616      2614      2617      2614      2617      2618
      2614      2617      2619      2614      2617      2620      2618      2617      2619
      2618      2617      2620      2619      2617      2620      2617      2620      2621
      2617      2620      2622      2617      2620      2625      2621      2620      2622
      2621      2620      2625      2622      2620      2625      2620      2622      2623
      2620      2622      2624      2620      2622      2625      2623      2622      2624
      2623      2622      2625      2624      2622      2625      2620      2625      2622
      2620      2625      2626      2620      2625      2627      2622      2625      2626
      2622      2625      2627      2626      2625      2627      2625      2627      2628
      2625      2627      2629      2625      2627      2630      2628      2627      2629
      2628      2627      2630      2629      2627      2630      2627      2630      2631
      2627      2630      2632      2627      2630      2633      2631      2630      2632
      2631      2630      2633      2632      2630      2633      2630      2633      2634
      2630      2633      2635      2630      2633      2636      2634      2633      2635
      2634      2633      2636      2635      2633      2636      2633      2636      2637
      2633      2636      2638      2633      2636      2639      2637      2636      2638
      2637      2636      2639      2638      2636      2639      2636      2639      2640
      2636      2639      2641      2636      2639      2642      2640      2639      2641
      2640      2639      2642      2641      2639      2642      2639      2642      2643
      2639      2642      2644      2639      2642      2645      2643      2642      2644
      2643      2642      2645      2644      2642      2645      2599      2646      2647
      2599      2646      2648      2599      2646      2649      2647      2646      2648
      2647      2646      2649      2648      2646      2649      2646      2649      2650
      2646      2649      2651      2646      2649      2652      2650      2649      2651
      2650      2649      2652      2651      2649      2652      2649      2652      2653
      2649      2652      2654      2649      2652      2655      2653      2652      2654
      2653      2652      2655      2654      2652      2655      2652      2655      2656
      2652      2655      2657      2652      2655      2658      2656      2655      2657
      2656      2655      2658      2657      2655      2658      2655      2658      2659
      2655      2658      2660      2655      2658      2661      2659      2658      2660
      2659      2658      2661      2660      2658      2661      2658      2661      2662
      2658      2661      2663      2658      2661      2664      2662      2661      2663
      2662      2661      2664      2663      2661      2664      2661      2664      2665
      2661      2664      2666      2661      2664      2667      2665      2664      2666
      2665      2664      2667      2666      2664      2667      2664      2667      2668
      2664      2667      2669      2664      2667      2670      2668      2667      2669
      2668      2667      2670      2669      2667      2670      2667      2670      2671
      2667      2670      2672      2667      2670      2673      2671      2670      2672
      2671      2670      2673      2672      2670      2673      2670      2673      2674
      2670      2673      2675      2670      2673      2676      2674      2673      2675
      2674      2673      2676      2675      2673      2676      2673      2676      2677
      2673      2676      2678      2673      2676      2679      2677      2676      2678
      2677      2676      2679      2678      2676      2679      2676      2679      2680
      2676      2679      2681      2676      2679      2682      2680      2679      2681
      2680      2679      2682      2681      2679      2682      2679      2682      2683
      2679      2682      2684      2679      2682      2685      2683      2682      2684
      2683      2682      2685      2684      2682      2685      2682      2685      2686
      2682      2685      2687      2682      2685      2688      2686      2685      2687
      2686      2685      2688      2687      2685      2688      2690      2689      2691
      2690      2689      2692      2690      2689      2694      2691      2689      2692
      2691      2689      2694      2692      2689      2694      2689      2692      2693
      2689      2694      2695      2689      2694      2696      2689      2694      2698
      2695      2694      2696      2695      2694      2698      2696      2694      2698
      2694      2696      2697      2694      2698      2699      2694      2698      2700
      2694      2698      2705      2699      2698      2700      2699      2698      2705
      2700      2698      2705      2702      2701      2703      2702      2701      2704
      2702      2701      2705      2703      2701      2704      2703      2701      2705
      2704      2701      2705      2701      2704      2706      2698      2705      2701
      2704      2706      2707      2704      2706      2708      2704      2706      2709
      2707      2706      2708      2707      2706      2709      2708      2706      2709
      2706      2709      2710      2706      2709      2711      2706      2709      2717
      2710      2709      2711      2710      2709      2717      2711      2709      2717
      2709      2711      2712      2711      2712      2713      2711      2712      2714
      2713      2712      2714      2712      2714      2715      2712      2714      2716
      2712      2714      2726      2715      2714      2716      2715      2714      2726
      2716      2714      2726      2709      2717      2718      2709      2717      2719
      2709      2717      2720      2718      2717      2719      2718      2717      2720
      2719      2717      2720      2717      2720      2721      2720      2721      2722
      2720      2721      2723      2722      2721      2723      2721      2723      2724
      2721      2723      2725      2721      2723      2767      2724      2723      2725
      2724      2723      2767      2725      2723      2767      2714      2726      2727
      2714      2726      2728      2714      2726      2729      2727      2726      2728
      2727      2726      2729      2728      2726      2729      2726      2729      2730
      2726      2729      2731      2726      2729      2732      2730      2729      2731
      2730      2729      2732      2731      2729      2732      2729      2732      2733
      2729      2732      2734      2729      2732      2735      2733      2732      2734
      2733      2732      2735      2734      2732      2735      2732      2735      2736
      2732      2735      2737      2732      2735      2738      2736      2735      2737
      2736      2735      2738      2737      2735      2738      2735      2738      2739
      2735      2738      2740      2735      2738      2741      2739      2738      2740
      2739      2738      2741      2740      2738      2741      2738      2741      2742
      2738      2741      2743      2738      2741      2744      2742      2741      2743
      2742      2741      2744      2743      2741      2744      2741      2744      2745
      2741      2744      2746      2745      2744      2746      2744      2746      2747
      2744      2746      2748      2747      2746      2748      2746      2748      2749
      2746      2748      2750      2746      2748      2751      2749      2748      2750
      2749      2748      2751      2750      2748      2751      2748      2751      2752
      2748      2751      2753      2748      2751      2754      2752      2751      2753
      2752      2751      2754      2753      2751      2754      2751      2754      2755
      2751      2754      2756      2751      2754      2757      2755      2754      2756
      2755      2754      2757      2756      2754      2757      2754      2757      2758
      2754      2757      2759      2754      2757      2760      2758      2757      2759
      2758      2757      2760      2759      2757      2760      2757      2760      2761
      2757      2760      2762      2757      2760      2763      2761      2760      2762
      2761      2760      2763      2762      2760      2763      2760      2763      2764
      2760      2763      2765      2760      2763      2766      2764      2763      2765
      2764      2763      2766      2765      2763      2766      2723      2767      2768
      2723      2767      2769      2723      2767      2770      2768      2767      2769
      2768      2767      2770      2769      2767      2770      2767      2770      2771
      2767      2770      2772      2767      2770      2773      2771      2770      2772
      2771      2770      2773      2772      2770      2773      2770      2773      2774
      2770      2773      2775      2770      2773      2776      2774      2773      2775
      2774      2773      2776      2775      2773      2776      2773      2776      2777
      2773      2776      2778      2773      2776      2779      2777      2776      2778
      2777      2776      2779      2778      2776      2779      2776      2779      2780
      2776      2779      2781      2776      2779      2782      2780      2779      2781
      2780      2779      2782      2781      2779      2782      2779      2782      2783
      2779      2782      2784      2779      2782      2785      2783      2782      2784
      2783      2782      2785      2784      2782      2785      2782      2785      2786
      2782      2785      2787      2782      2785      2788      2786      2785      2787
      2786      2785      2788      2787      2785      2788      2785      2788      2789
      2785      2788      2790      2785      2788      2791      2789      2788      2790
      2789      2788      2791      2790      2788      2791      2788      2791      2792
      2788      2791      2793      2788      2791      2794      2792      2791      2793
      2792      2791      2794      2793      2791      2794      2791      2794      2795
      2791      2794      2796      2791      2794      2797      2795      2794      2796
      2795      2794      2797      2796      2794      2797      2794      2797      2798
      2794      2797      2799      2794      2797      2800      2798      2797      2799
      2798      2797      2800      2799      2797      2800      2797      2800      2801
      2797      2800      2802      2797      2800      2803      2801      2800      2802
      2801      2800      2803      2802      2800      2803      2800      2803      2804
      2800      2803      2805      2800      2803      2806      2804      2803      2805
      2804      2803      2806      2805      2803      2806      2803      2806      2807
      2803      2806      2808      2803      2806      2809      2807      2806      2808
      2807      2806      2809      2808      2806      2809      2811      2810      2812
      2811      2810      2813      2811      2810      2814      2812      2810      2813
      2812      2810      2814      2813      2810      2814      2810      2814      2815
      2810      2814      2816      2810      2814      2817      2815      2814      2816
      2815      2814      2817      2816      2814      2817      2814      2817      2818
      2814      2817      2819      2814      2817      2824      2818      2817      2819
      2818      2817      2824      2819      2817      2824      2821      2820      2822
      2821      2820      2823      2821      2820      2824      2822      2820      2823
      2822      2820      2824      2823      2820      2824      2820      2823      2825
      2817      2824      2820      2823      2825      2826      2823      2825      2827
      2823      2825      2828      2826      2825      2827      2826      2825      2828
      2827      2825      2828      2825      2828      2829      2825      2828      2830
      2825      2828      2836      2829      2828      2830      2829      2828      2836
      2830      2828      2836      2828      2830      2831      2830      2831      2832
      2830      2831      2833      2832      2831      2833      2831      2833      2834
      2831      2833      2835      2831      2833      2845      2834      2833      2835
      2834      2833      2845      2835      2833      2845      2828      2836      2837
      2828      2836      2838      2828      2836      2839      2837      2836      2838
      2837      2836      2839      2838      2836      2839      2836      2839      2840
      2839      2840      2841      2839      2840      2842      2841      2840      2842
      2840      2842      2843      2840      2842      2844      2840      2842      2889
      2843      2842      2844      2843      2842      2889      2844      2842      2889
      2833      2845      2846      2833      2845      2847      2833      2845      2848
      2846      2845      2847      2846      2845      2848      2847      2845      2848
      2845      2848      2849      2845      2848      2850      2845      2848      2851
      2849      2848      2850      2849      2848      2851      2850      2848      2851
      2848      2851      2852      2848      2851      2853      2848      2851      2854
      2852      2851      2853      2852      2851      2854      2853      2851      2854
      2851      2854      2855      2851      2854      2856      2851      2854      2857
      2855      2854      2856      2855      2854      2857      2856      2854      2857
      2854      2857      2858      2854      2857      2859      2854      2857      2860
      2858      2857      2859      2858      2857      2860      2859      2857      2860
      2857      2860      2861      2857      2860      2862      2857      2860      2863
      2861      2860      2862      2861      2860      2863      2862      2860      2863
      2860      2863      2864      2860      2863      2865      2860      2863      2868
      2864      2863      2865      2864      2863      2868      2865      2863      2868
      2863      2865      2866      2863      2865      2867      2863      2865      2868
      2866      2865      2867      2866      2865      2868      2867      2865      2868
      2863      2868      2865      2863      2868      2869      2863      2868      2870
      2865      2868      2869      2865      2868      2870      2869      2868      2870
      2868      2870      2871      2868      2870      2872      2868      2870      2873
      2871      2870      2872      2871      2870      2873      2872      2870      2873
      2870      2873      2874      2870      2873      2875      2870      2873      2876
      2874      2873      2875      2874      2873      2876      2875      2873      2876
      2873      2876      2877      2873      2876      2878      2873      2876      2879
      2877      2876      2878      2877      2876      2879      2878      2876      2879
      2876      2879      2880      2876      2879      2881      2876      2879      2882
      2880      2879      2881      2880      2879      2882      2881      2879      2882
      2879      2882      2883      2879      2882      2884      2879      2882      2885
      2883      2882      2884      2883      2882      2885      2884      2882      2885
      2882      2885      2886      2882      2885      2887      2882      2885      2888
      2886      2885      2887      2886      2885      2888      2887      2885      2888
      2842      2889      2890      2842      2889      2891      2842      2889      2892
      2890      2889      2891      2890      2889      2892      2891      2889      2892
      2889      2892      2893      2889      2892      2894      2889      2892      2895
      2893      2892      2894      2893      2892      2895      2894      2892      2895
      2892      2895      2896      2892      2895      2897      2892      2895      2898
      2896      2895      2897      2896      2895      2898      2897      2895      2898
      2895      2898      2899      2895      2898      2900      2895      2898      2901
      2899      2898      2900      2899      2898      2901      2900      2898      2901
      2898      2901      2902      2898      2901      2903      2898      2901      2904
      2902      2901      2903      2902      2901      2904      2903      2901      2904
      2901      2904      2905      2901      2904      2906      2901      2904      2907
      2905      2904      2906      2905      2904      2907      2906      2904      2907
      2904      2907      2908      2904      2907      2909      2904      2907      2910
      2908      2907      2909      2908      2907      2910      2909      2907      2910
      2907      2910      2911      2907      2910      2912      2907      2910      2913
      2911      2910      2912      2911      2910      2913      2912      2910      2913
      2910      2913      2914      2910      2913      2915      2910      2913      2916
      2914      2913      2915      2914      2913      2916      2915      2913      2916
      2913      2916      2917      2913      2916      2918      2913      2916      2919
      2917      2916      2918      2917      2916      2919      2918      2916      2919
      2916      2919      2920      2916      2919      2921      2916      2919      2922
      2920      2919      2921      2920      2919      2922      2921      2919      2922
      2919      2922      2923      2919      2922      2924      2919      2922      2925
      2923      2922      2924      2923      2922      2925      2924      2922      2925
      2922      2925      2926      2922      2925      2927      2922      2925      2928
      2926      2925      2927      2926      2925      2928      2927      2925      2928
      2925      2928      2929      2925      2928      2930      2925      2928      2931
      2929      2928      2930      2929      2928      2931      2930      2928      2931
      2933      2932      2934      2933      2932      2935      2933      2932      2936
      2934      2932      2935      2934      2932      2936      2935      2932      2936
      2932      2936      2937      2932      2936      2938      2932      2936      2939
      2937      2936      2938      2937      2936      2939      2938      2936      2939
      2936      2939      2940      2936      2939      2941      2936      2939      2946
      2940      2939      2941      2940      2939      2946      2941      2939      2946
      2943      2942      2944      2943      2942      2945      2943      2942      2946
      2944      2942      2945      2944      2942      2946      2945      2942      2946
      2942      2945      2947      2939      2946      2942      2945      2947      2948
      2945      2947      2949      2945      2947      2950      2948      2947      2949
      2948      2947      2950      2949      2947      2950      2947      2950      2951
      2947      2950      2952      2947      2950      2958      2951      2950      2952
      2951      2950      2958      2952      2950      2958      2950      2952      2953
      2952      2953      2954      2952      2953      2955      2954      2953      2955
      2953      2955      2956      2953      2955      2957      2953      2955      2967
      2956      2955      2957      2956      2955      2967      2957      2955      2967
      2950      2958      2959      2950      2958      2960      2950      2958      2961
      2959      2958      2960      2959      2958      2961      2960      2958      2961
      2958      2961      2962      2961      2962      2963      2961      2962      2964
      2963      2962      2964      2962      2964      2965      2962      2964      2966
      2962      2964      3011      2965      2964      2966      2965      2964      3011
      2966      2964      3011      2955      2967      2968      2955      2967      2969
      2955      2967      2970      2968      2967      2969      2968      2967      2970
      2969      2967      2970      2967      2970      2971      2967      2970      2972
      2967      2970      2973      2971      2970      2972      2971      2970      2973
      2972      2970      2973      2970      2973      2974      2970      2973      2975
      2970      2973      2976      2974      2973      2975      2974      2973      2976
      2975      2973      2976      2973      2976      2977      2973      2976      2978
      2973      2976      2979      2977      2976      2978      2977      2976      2979
      2978      2976      2979      2976      2979      2980      2976      2979      2981
      2976      2979      2982      2980      2979      2981      2980      2979      2982
      2981      2979      2982      2979      2982      2983      2979      2982      2984
      2979      2982      2985      2983      2982      2984      2983      2982      2985
      2984      2982      2985      2982      2985      2986      2982      2985      2987
      2982      2985      2990      2986      2985      2987      2986      2985      2990
      2987      2985      2990      2985      2987      2988      2985      2987      2989
      2985      2987      2990      2988      2987      2989      2988      2987      2990
      2989      2987      2990      2985      2990      2987      2985      2990      2991
      2985      2990      2992      2987      2990      2991      2987      2990      2992
      2991      2990      2992      2990      2992      2993      2990      2992      2994
      2990      2992      2995      2993      2992      2994      2993      2992      2995
      2994      2992      2995      2992      2995      2996      2992      2995      2997
      2992      2995      2998      2996      2995      2997      2996      2995      2998
      2997      2995      2998      2995      2998      2999      2995      2998      3000
      2995      2998      3001      2999      2998      3000      2999      2998      3001
      3000      2998      3001      2998      3001      3002      2998      3001      3003
      2998      3001      3004      3002      3001      3003      3002      3001      3004
      3003      3001      3004      3001      3004      3005      3001      3004      3006
      3001      3004      3007      3005      3004      3006      3005      3004      3007
      3006      3004      3007      3004      3007      3008      3004      3007      3009
      3004      3007      3010      3008      3007      3009      3008      3007      3010
      3009      3007      3010      2964      3011      3012      2964      3011      3013
      2964      3011      3014      3012      3011      3013      3012      3011      3014
      3013      3011      3014      3011      3014      3015      3011      3014      3016
      3011      3014      3017      3015      3014      3016      3015      3014      3017
      3016      3014      3017      3014      3017      3018      3014      3017      3019
      3014      3017      3020      3018      3017      3019      3018      3017      3020
      3019      3017      3020      3017      3020      3021      3017      3020      3022
      3017      3020      3023      3021      3020      3022      3021      3020      3023
      3022      3020      3023      3020      3023      3024      3020      3023      3025
      3020      3023      3026      3024      3023      3025      3024      3023      3026
      3025      3023      3026      3023      3026      3027      3023      3026      3028
      3023      3026      3029      3027      3026      3028      3027      3026      3029
      3028      3026      3029      3026      3029      3030      3026      3029      3031
      3026      3029      3032      3030      3029      3031      3030      3029      3032
      3031      3029      3032      3029      3032      3033      3029      3032      3034
      3029      3032      3035      3033      3032      3034      3033      3032      3035
      3034      3032      3035      3032      3035      3036      3032      3035      3037
      3032      3035      3038      3036      3035      3037      3036      3035      3038
      3037      3035      3038      3035      3038      3039      3035      3038      3040
      3035      3038      3041      3039      3038      3040      3039      3038      3041
      3040      3038      3041      3038      3041      3042      3038      3041      3043
      3038      3041      3044      3042      3041      3043      3042      3041      3044
      3043      3041      3044      3041      3044      3045      3041      3044      3046
      3041      3044      3047      3045      3044      3046      3045      3044      3047
      3046      3044      3047      3044      3047      3048      3044      3047      3049
      3044      3047      3050      3048      3047      3049      3048      3047      3050
      3049      3047      3050      3047      3050      3051      3047      3050      3052
      3047      3050      3053      3051      3050      3052      3051      3050      3053
      3052      3050      3053      3055      3054      3056      3055      3054      3057
      3055      3054      3058      3056      3054      3057      3056      3054      3058
      3057      3054      3058      3054      3058      3059      3054      3058      3060
      3054      3058      3061      3059      3058      3060      3059      3058      3061
      3060      3058      3061      3058      3061      3062      3058      3061      3063
      3058      3061      3068      3062      3061      3063      3062      3061      3068
      3063      3061      3068      3065      3064      3066      3065      3064      3067
      3065      3064      3068      3066      3064      3067      3066      3064      3068
      3067      3064      3068      3064      3067      3069      3061      3068      3064
      3067      3069      3070      3067      3069      3071      3067      3069      3072
      3070      3069      3071      3070      3069      3072      3071      3069      3072
      3069      3072      3073      3069      3072      3074      3069      3072      3080
      3073      3072      3074      3073      3072      3080      3074      3072      3080
      3072      3074      3075      3074      3075      3076      3074      3075      3077
      3076      3075      3077      3075      3077      3078      3075      3077      3079
      3075      3077      3089      3078      3077      3079      3078      3077      3089
      3079      3077      3089      3072      3080      3081      3072      3080      3082
      3072      3080      3083      3081      3080      3082      3081      3080      3083
      3082      3080      3083      3080      3083      3084      3083      3084      3085
      3083      3084      3086      3085      3084      3086      3084      3086      3087
      3084      3086      3088      3084      3086      3133      3087      3086      3088
      3087      3086      3133      3088      3086      3133      3077      3089      3090
      3077      3089      3091      3077      3089      3092      3090      3089      3091
      3090      3089      3092      3091      3089      3092      3089      3092      3093
      3089      3092      3094      3089      3092      3095      3093      3092      3094
      3093      3092      3095      3094      3092      3095      3092      3095      3096
      3092      3095      3097      3092      3095      3098      3096      3095      3097
      3096      3095      3098      3097      3095      3098      3095      3098      3099
      3095      3098      3100      3095      3098      3101      3099      3098      3100
      3099      3098      3101      3100      3098      3101      3098      3101      3102
      3098      3101      3103      3098      3101      3104      3102      3101      3103
      3102      3101      3104      3103      3101      3104      3101      3104      3105
      3101      3104      3106      3101      3104      3107      3105      3104      3106
      3105      3104      3107      3106      3104      3107      3104      3107      3108
      3104      3107      3109      3104      3107      3112      3108      3107      3109
      3108      3107      3112      3109      3107      3112      3107      3109      3110
      3107      3109      3111      3107      3109      3112      3110      3109      3111
      3110      3109      3112      3111      3109      3112      3107      3112      3109
      3107      3112      3113      3107      3112      3114      3109      3112      3113
      3109      3112      3114      3113      3112      3114      3112      3114      3115
      3112      3114      3116      3112      3114      3117      3115      3114      3116
      3115      3114      3117      3116      3114      3117      3114      3117      3118
      3114      3117      3119      3114      3117      3120      3118      3117      3119
      3118      3117      3120      3119      3117      3120      3117      3120      3121
      3117      3120      3122      3117      3120      3123      3121      3120      3122
      3121      3120      3123      3122      3120      3123      3120      3123      3124
      3120      3123      3125      3120      3123      3126      3124      3123      3125
      3124      3123      3126      3125      3123      3126      3123      3126      3127
      3123      3126      3128      3123      3126      3129      3127      3126      3128
      3127      3126      3129      3128      3126      3129      3126      3129      3130
      3126      3129      3131      3126      3129      3132      3130      3129      3131
      3130      3129      3132      3131      3129      3132      3086      3133      3134
      3086      3133      3135      3086      3133      3136      3134      3133      3135
      3134      3133      3136      3135      3133      3136      3133      3136      3137
      3133      3136      3138      3133      3136      3139      3137      3136      3138
      3137      3136      3139      3138      3136      3139      3136      3139      3140
      3136      3139      3141      3136      3139      3142      3140      3139      3141
      3140      3139      3142      3141      3139      3142      3139      3142      3143
      3139      3142      3144      3139      3142      3145      3143      3142      3144
      3143      3142      3145      3144      3142      3145      3142      3145      3146
      3142      3145      3147      3142      3145      3148      3146      3145      3147
      3146      3145      3148      3147      3145      3148      3145      3148      3149
      3145      3148      3150      3145      3148      3151      3149      3148      3150
      3149      3148      3151      3150      3148      3151      3148      3151      3152
      3148      3151      3153      3148      3151      3154      3152      3151      3153
      3152      3151      3154      3153      3151      3154      3151      3154      3155
      3151      3154      3156      3151      3154      3157      3155      3154      3156
      3155      3154      3157      3156      3154      3157      3154      3157      3158
      3154      3157      3159      3154      3157      3160      3158      3157      3159
      3158      3157      3160      3159      3157      3160      3157      3160      3161
      3157      3160      3162      3157      3160      3163      3161      3160      3162
      3161      3160      3163      3162      3160      3163      3160      3163      3164
      3160      3163      3165      3160      3163      3166      3164      3163      3165
      3164      3163      3166      3165      3163      3166      3163      3166      3167
      3163      3166      3168      3163      3166      3169      3167      3166      3168
      3167      3166      3169      3168      3166      3169      3166      3169      3170
      3166      3169      3171      3166      3169      3172      3170      3169      3171
      3170      3169      3172      3171      3169      3172      3169      3172      3173
      3169      3172      3174      3169      3172      3175      3173      3172      3174
      3173      3172      3175      3174      3172      3175      3177      3176      3178
      3177      3176      3179      3177      3176      3180      3178      3176      3179
      3178      3176      3180      3179      3176      3180      3176      3180      3181
      3176      3180      3182      3176      3180      3183      3181      3180      3182
      3181      3180      3183      3182      3180      3183      3180      3183      3184
      3180      3183      3185      3180      3183      3190      3184      3183      3185
      3184      3183      3190      3185      3183      3190      3187      3186      3188
      3187      3186      3189      3187      3186      3190      3188      3186      3189
      3188      3186      3190      3189      3186      3190      3186      3189      3191
      3183      3190      3186      3189      3191      3192      3189      3191      3193
      3189      3191      3194      3192      3191      3193      3192      3191      3194
      3193      3191      3194      3191      3194      3195      3191      3194      3196
      3191      3194      3202      3195      3194      3196      3195      3194      3202
      3196      3194      3202      3194      3196      3197      3196      3197      3198
      3196      3197      3199      3198      3197      3199      3197      3199      3200
      3197      3199      3201      3197      3199      3211      3200      3199      3201
      3200      3199      3211      3201      3199      3211      3194      3202      3203
      3194      3202      3204      3194      3202      3205      3203      3202      3204
      3203      3202      3205      3204      3202      3205      3202      3205      3206
      3205      3206      3207      3205      3206      3208      3207      3206      3208
      3206      3208      3209      3206      3208      3210      3206      3208      3255
      3209      3208      3210      3209      3208      3255      3210      3208      3255
      3199      3211      3212      3199      3211      3213      3199      3211      3214
      3212      3211      3213      3212      3211      3214      3213      3211      3214
      3211      3214      3215      3211      3214      3216      3211      3214      3217
      3215      3214      3216      3215      3214      3217      3216      3214      3217
      3214      3217      3218      3214      3217      3219      3214      3217      3220
      3218      3217      3219      3218      3217      3220      3219      3217      3220
      3217      3220      3221      3217      3220      3222      3217      3220      3223
      3221      3220      3222      3221      3220      3223      3222      3220      3223
      3220      3223      3224      3220      3223      3225      3220      3223      3226
      3224      3223      3225      3224      3223      3226      3225      3223      3226
      3223      3226      3227      3223      3226      3228      3223      3226      3229
      3227      3226      3228      3227      3226      3229      3228      3226      3229
      3226      3229      3230      3226      3229      3231      3226      3229      3234
      3230      3229      3231      3230      3229      3234      3231      3229      3234
      3229      3231      3232      3229      3231      3233      3229      3231      3234
      3232      3231      3233      3232      3231      3234      3233      3231      3234
      3229      3234      3231      3229      3234      3235      3229      3234      3236
      3231      3234      3235      3231      3234      3236      3235      3234      3236
      3234      3236      3237      3234      3236      3238      3234      3236      3239
      3237      3236      3238      3237      3236      3239      3238      3236      3239
      3236      3239      3240      3236      3239      3241      3236      3239      3242
      3240      3239      3241      3240      3239      3242      3241      3239      3242
      3239      3242      3243      3239      3242      3244      3239      3242      3245
      3243      3242      3244      3243      3242      3245      3244      3242      3245
      3242      3245      3246      3242      3245      3247      3242      3245      3248
      3246      3245      3247      3246      3245      3248      3247      3245      3248
      3245      3248      3249      3245      3248      3250      3245      3248      3251
      3249      3248      3250      3249      3248      3251      3250      3248      3251
      3248      3251      3252      3248      3251      3253      3248      3251      3254
      3252      3251      3253      3252      3251      3254      3253      3251      3254
      3208      3255      3256      3208      3255      3257      3208      3255      3258
      3256      3255      3257      3256      3255      3258      3257      3255      3258
      3255      3258      3259      3255      3258      3260      3255      3258      3261
      3259      3258      3260      3259      3258      3261      3260      3258      3261
      3258      3261      3262      3258      3261      3263      3258      3261      3264
      3262      3261      3263      3262      3261      3264      3263      3261      3264
      3261      3264      3265      3261      3264      3266      3261      3264      3267
      3265      3264      3266      3265      3264      3267      3266      3264      3267
      3264      3267      3268      3264      3267      3269      3264      3267      3270
      3268      3267      3269      3268      3267      3270      3269      3267      3270
      3267      3270      3271      3267      3270      3272      3267      3270      3273
      3271      3270      3272      3271      3270      3273      3272      3270      3273
      3270      3273      3274      3270      3273      3275      3270      3273      3276
      3274      3273      3275      3274      3273      3276      3275      3273      3276
      3273      3276      3277      3273      3276      3278      3273      3276      3279
      3277      3276      3278      3277      3276      3279      3278      3276      3279
      3276      3279      3280      3276      3279      3281      3276      3279      3282
      3280      3279      3281      3280      3279      3282      3281      3279      3282
      3279      3282      3283      3279      3282      3284      3279      3282      3285
      3283      3282      3284      3283      3282      3285      3284      3282      3285
      3282      3285      3286      3282      3285      3287      3282      3285      3288
      3286      3285      3287      3286      3285      3288      3287      3285      3288
      3285      3288      3289      3285      3288      3290      3285      3288      3291
      3289      3288      3290      3289      3288      3291      3290      3288      3291
      3288      3291      3292      3288      3291      3293      3288      3291      3294
      3292      3291      3293      3292      3291      3294      3293      3291      3294
      3291      3294      3295      3291      3294      3296      3291      3294      3297
      3295      3294      3296      3295      3294      3297      3296      3294      3297
      3299      3298      3300      3299      3298      3301      3299      3298      3302
      3300      3298      3301      3300      3298      3302      3301      3298      3302
      3298      3302      3303      3298      3302      3304      3298      3302      3305
      3303      3302      3304      3303      3302      3305      3304      3302      3305
      3302      3305      3306      3302      3305      3307      3302      3305      3312
      3306      3305      3307      3306      3305      3312      3307      3305      3312
      3309      3308      3310      3309      3308      3311      3309      3308      3312
      3310      3308      3311      3310      3308      3312      3311      3308      3312
      3308      3311      3313      3305      3312      3308      3311      3313      3314
      3311      3313      3315      3311      3313      3316      3314      3313      3315
      3314      3313      3316      3315      3313      3316      3313      3316      3317
      3313      3316      3318      3313      3316      3324      3317      3316      3318
      3317      3316      3324      3318      3316      3324      3316      3318      3319
      3318      3319      3320      3318      3319      3321      3320      3319      3321
      3319      3321      3322      3319      3321      3323      3319      3321      3333
      3322      3321      3323      3322      3321      3333      3323      3321      3333
      3316      3324      3325      3316      3324      3326      3316      3324      3327
      3325      3324      3326      3325      3324      3327      3326      3324      3327
      3324      3327      3328      3327      3328      3329      3327      3328      3330
      3329      3328      3330      3328      3330      3331      3328      3330      3332
      3328      3330      3377      3331      3330      3332      3331      3330      3377
      3332      3330      3377      3321      3333      3334      3321      3333      3335
      3321      3333      3336      3334      3333      3335      3334      3333      3336
      3335      3333      3336      3333      3336      3337      3333      3336      3338
      3333      3336      3339      3337      3336      3338      3337      3336      3339
      3338      3336      3339      3336      3339      3340      3336      3339      3341
      3336      3339      3342      3340      3339      3341      3340      3339      3342
      3341      3339      3342      3339      3342      3343      3339      3342      3344
      3339      3342      3345      3343      3342      3344      3343      3342      3345
      3344      3342      3345      3342      3345      3346      3342      3345      3347
      3342      3345      3348      3346      3345      3347      3346      3345      3348
      3347      3345      3348      3345      3348      3349      3345      3348      3350
      3345      3348      3351      3349      3348      3350      3349      3348      3351
      3350      3348      3351      3348      3351      3352      3348      3351      3353
      3348      3351      3356      3352      3351      3353      3352      3351      3356
      3353      3351      3356      3351      3353      3354      3351      3353      3355
      3351      3353      3356      3354      3353      3355      3354      3353      3356
      3355      3353      3356      3351      3356      3353      3351      3356      3357
      3351      3356      3358      3353      3356      3357      3353      3356      3358
      3357      3356      3358      3356      3358      3359      3356      3358      3360
      3356      3358      3361      3359      3358      3360      3359      3358      3361
      3360      3358      3361      3358      3361      3362      3358      3361      3363
      3358      3361      3364      3362      3361      3363      3362      3361      3364
      3363      3361      3364      3361      3364      3365      3361      3364      3366
      3361      3364      3367      3365      3364      3366      3365      3364      3367
      3366      3364      3367      3364      3367      3368      3364      3367      3369
      3364      3367      3370      3368      3367      3369      3368      3367      3370
      3369      3367      3370      3367      3370      3371      3367      3370      3372
      3367      3370      3373      3371      3370      3372      3371      3370      3373
      3372      3370      3373      3370      3373      3374      3370      3373      3375
      3370      3373      3376      3374      3373      3375      3374      3373      3376
      3375      3373      3376      3330      3377      3378      3330      3377      3379
      3330      3377      3380      3378      3377      3379      3378      3377      3380
      3379      3377      3380      3377      3380      3381      3377      3380      3382
      3377      3380      3383      3381      3380      3382      3381      3380      3383
      3382      3380      3383      3380      3383      3384      3380      3383      3385
      3380      3383      3386      3384      3383      3385      3384      3383      3386
      3385      3383      3386      3383      3386      3387      3383      3386      3388
      3383      3386      3389      3387      3386      3388      3387      3386      3389
      3388      3386      3389      3386      3389      3390      3386      3389      3391
      3386      3389      3392      3390      3389      3391      3390      3389      3392
      3391      3389      3392      3389      3392      3393      3389      3392      3394
      3389      3392      3395      3393      3392      3394      3393      3392      3395
      3394      3392      3395      3392      3395      3396      3392      3395      3397
      3392      3395      3398      3396      3395      3397      3396      3395      3398
      3397      3395      3398      3395      3398      3399      3395      3398      3400
      3395      3398      3401      3399      3398      3400      3399      3398      3401
      3400      3398      3401      3398      3401      3402      3398      3401      3403
      3398      3401      3404      3402      3401      3403      3402      3401      3404
      3403      3401      3404      3401      3404      3405      3401      3404      3406
      3401      3404      3407      3405      3404      3406      3405      3404      3407
      3406      3404      3407      3404      3407      3408      3404      3407      3409
      3404      3407      3410      3408      3407      3409      3408      3407      3410
      3409      3407      3410      3407      3410      3411      3407      3410      3412
      3407      3410      3413      3411      3410      3412      3411      3410      3413
      3412      3410      3413      3410      3413      3414      3410      3413      3415
      3410      3413      3416      3414      3413      3415      3414      3413      3416
      3415      3413      3416      3413      3416      3417      3413      3416      3418
      3413      3416      3419      3417      3416      3418      3417      3416      3419
      3418      3416      3419      3421      3420      3422      3421      3420      3423
      3421      3420      3425      3422      3420      3423      3422      3420      3425
      3423      3420      3425      3420      3423      3424      3420      3425      3426
      3420      3425      3427      3420      3425      3429      3426      3425      3427
      3426      3425      3429      3427      3425      3429      3425      3427      3428
      3425      3429      3430      3425      3429      3431      3425      3429      3436
      3430      3429      3431      3430      3429      3436      3431      3429      3436
      3433      3432      3434      3433      3432      3435      3433      3432      3436
      3434      3432      3435      3434      3432      3436      3435      3432      3436
      3432      3435      3437      3429      3436      3432      3435      3437      3438
      3435      3437      3439      3435      3437      3440      3438      3437      3439
      3438      3437      3440      3439      3437      3440      3437      3440      3441
      3437      3440      3442      3437      3440      3448      3441      3440      3442
      3441      3440      3448      3442      3440      3448      3440      3442      3443
      3442      3443      3444      3442      3443      3445      3444      3443      3445
      3443      3445      3446      3443      3445      3447      3443      3445      3457
      3446      3445      3447      3446      3445      3457      3447      3445      3457
      3440      3448      3449      3440      3448      3450      3440      3448      3451
      3449      3448      3450      3449      3448      3451      3450      3448      3451
      3448      3451      3452      3451      3452      3453      3451      3452      3454
      3453      3452      3454      3452      3454      3455      3452      3454      3456
      3452      3454      3501      3455      3454      3456      3455      3454      3501
      3456      3454      3501      3445      3457      3458      3445      3457      3459
      3445      3457      3460      3458      3457      3459      3458      3457      3460
      3459      3457      3460      3457      3460      3461      3457      3460      3462
      3457      3460      3463      3461      3460      3462      3461      3460      3463
      3462      3460      3463      3460      3463      3464      3460      3463      3465
      3460      3463      3466      3464      3463      3465      3464      3463      3466
      3465      3463      3466      3463      3466      3467      3463      3466      3468
      3463      3466      3469      3467      3466      3468      3467      3466      3469
      3468      3466      3469      3466      3469      3470      3466      3469      3471
      3466      3469      3472      3470      3469      3471      3470      3469      3472
      3471      3469      3472      3469      3472      3473      3469      3472      3474
      3469      3472      3475      3473      3472      3474      3473      3472      3475
      3474      3472      3475      3472      3475      3476      3472      3475      3477
      3472      3475      3480      3476      3475      3477      3476      3475      3480
      3477      3475      3480      3475      3477      3478      3475      3477      3479
      3475      3477      3480      3478      3477      3479      3478      3477      3480
      3479      3477      3480      3475      3480      3477      3475      3480      3481
      3475      3480      3482      3477      3480      3481      3477      3480      3482
      3481      3480      3482      3480      3482      3483      3480      3482      3484
      3480      3482      3485      3483      3482      3484      3483      3482      3485
      3484      3482      3485      3482      3485      3486      3482      3485      3487
      3482      3485      3488      3486      3485      3487      3486      3485      3488
      3487      3485      3488      3485      3488      3489      3485      3488      3490
      3485      3488      3491      3489      3488      3490      3489      3488      3491
      3490      3488      3491      3488      3491      3492      3488      3491      3493
      3488      3491      3494      3492      3491      3493      3492      3491      3494
      3493      3491      3494      3491      3494      3495      3491      3494      3496
      3491      3494      3497      3495      3494      3496      3495      3494      3497
      3496      3494      3497      3494      3497      3498      3494      3497      3499
      3494      3497      3500      3498      3497      3499      3498      3497      3500
      3499      3497      3500      3454      3501      3502      3454      3501      3503
      3454      3501      3504      3502      3501      3503      3502      3501      3504
      3503      3501      3504      3501      3504      3505      3501      3504      3506
      3501      3504      3507      3505      3504      3506      3505      3504      3507
      3506      3504      3507      3504      3507      3508      3504      3507      3509
      3504      3507      3510      3508      3507      3509      3508      3507      3510
      3509      3507      3510      3507      3510      3511      3507      3510      3512
      3507      3510      3513      3511      3510      3512      3511      3510      3513
      3512      3510      3513      3510      3513      3514      3510      3513      3515
      3510      3513      3516      3514      3513      3515      3514      3513      3516
      3515      3513      3516      3513      3516      3517      3513      3516      3518
      3513      3516      3519      3517      3516      3518      3517      3516      3519
      3518      3516      3519      3516      3519      3520      3516      3519      3521
      3516      3519      3522      3520      3519      3521      3520      3519      3522
      3521      3519      3522      3519      3522      3523      3519      3522      3524
      3519      3522      3525      3523      3522      3524      3523      3522      3525
      3524      3522      3525      3522      3525      3526      3522      3525      3527
      3522      3525      3528      3526      3525      3527      3526      3525      3528
      3527      3525      3528      3525      3528      3529      3525      3528      3530
      3525      3528      3531      3529      3528      3530      3529      3528      3531
      3530      3528      3531      3528      3531      3532      3528      3531      3533
      3528      3531      3534      3532      3531      3533      3532      3531      3534
      3533      3531      3534      3531      3534      3535      3531      3534      3536
      3531      3534      3537      3535      3534      3536      3535      3534      3537
      3536      3534      3537      3534      3537      3538      3534      3537      3539
      3534      3537      3540      3538      3537      3539      3538      3537      3540
      3539      3537      3540      3537      3540      3541      3537      3540      3542
      3537      3540      3543      3541      3540      3542      3541      3540      3543
      3542      3540      3543      3545      3544      3546      3545      3544      3547
      3545      3544      3548      3546      3544      3547      3546      3544      3548
      3547      3544      3548      3544      3548      3549      3544      3548      3550
      3544      3548      3551      3549      3548      3550      3549      3548      3551
      3550      3548      3551      3548      3551      3552      3548      3551      3553
      3548      3551      3558      3552      3551      3553      3552      3551      3558
      3553      3551      3558      3555      3554      3556      3555      3554      3557
      3555      3554      3558      3556      3554      3557      3556      3554      3558
      3557      3554      3558      3554      3557      3559      3551      3558      3554
      3557      3559      3560      3557      3559      3561      3557      3559      3562
      3560      3559      3561      3560      3559      3562      3561      3559      3562
      3559      3562      3563      3559      3562      3564      3559      3562      3570
      3563      3562      3564      3563      3562      3570      3564      3562      3570
      3562      3564      3565      3564      3565      3566      3564      3565      3567
      3566      3565      3567      3565      3567      3568      3565      3567      3569
      3565      3567      3579      3568      3567      3569      3568      3567      3579
      3569      3567      3579      3562      3570      3571      3562      3570      3572
      3562      3570      3573      3571      3570      3572      3571      3570      3573
      3572      3570      3573      3570      3573      3574      3573      3574      3575
      3573      3574      3576      3575      3574      3576      3574      3576      3577
      3574      3576      3578      3574      3576      3623      3577      3576      3578
      3577      3576      3623      3578      3576      3623      3567      3579      3580
      3567      3579      3581      3567      3579      3582      3580      3579      3581
      3580      3579      3582      3581      3579      3582      3579      3582      3583
      3579      3582      3584      3579      3582      3585      3583      3582      3584
      3583      3582      3585      3584      3582      3585      3582      3585      3586
      3582      3585      3587      3582      3585      3588      3586      3585      3587
      3586      3585      3588      3587      3585      3588      3585      3588      3589
      3585      3588      3590      3585      3588      3591      3589      3588      3590
      3589      3588      3591      3590      3588      3591      3588      3591      3592
      3588      3591      3593      3588      3591      3594      3592      3591      3593
      3592      3591      3594      3593      3591      3594      3591      3594      3595
      3591      3594      3596      3591      3594      3597      3595      3594      3596
      3595      3594      3597      3596      3594      3597      3594      3597      3598
      3594      3597      3599      3594      3597      3602      3598      3597      3599
      3598      3597      3602      3599      3597      3602      3597      3599      3600
      3597      3599      3601      3597      3599      3602      3600      3599      3601
      3600      3599      3602      3601      3599      3602      3597      3602      3599
      3597      3602      3603      3597      3602      3604      3599      3602      3603
      3599      3602      3604      3603      3602      3604      3602      3604      3605
      3602      3604      3606      3602      3604      3607      3605      3604      3606
      3605      3604      3607      3606      3604      3607      3604      3607      3608
      3604      3607      3609      3604      3607      3610      3608      3607      3609
      3608      3607      3610      3609      3607      3610      3607      3610      3611
      3607      3610      3612      3607      3610      3613      3611      3610      3612
      3611      3610      3613      3612      3610      3613      3610      3613      3614
      3610      3613      3615      3610      3613      3616      3614      3613      3615
      3614      3613      3616      3615      3613      3616      3613      3616      3617
      3613      3616      3618      3613      3616      3619      3617      3616      3618
      3617      3616      3619      3618      3616      3619      3616      3619      3620
      3616      3619      3621      3616      3619      3622      3620      3619      3621
      3620      3619      3622      3621      3619      3622      3576      3623      3624
      3576      3623      3625      3576      3623      3626      3624      3623      3625
      3624      3623      3626      3625      3623      3626      3623      3626      3627
      3623      3626      3628      3623      3626      3629      3627      3626      3628
      3627      3626      3629      3628      3626      3629      3626      3629      3630
      3626      3629      3631      3626      3629      3632      3630      3629      3631
      3630      3629      3632      3631      3629      3632      3629      3632      3633
      3629      3632      3634      3629      3632      3635      3633      3632      3634
      3633      3632      3635      3634      3632      3635      3632      3635      3636
      3632      3635      3637      3632      3635      3638      3636      3635      3637
      3636      3635      3638      3637      3635      3638      3635      3638      3639
      3635      3638      3640      3635      3638      3641      3639      3638      3640
      3639      3638      3641      3640      3638      3641      3638      3641      3642
      3638      3641      3643      3638      3641      3644      3642      3641      3643
      3642      3641      3644      3643      3641      3644      3641      3644      3645
      3641      3644      3646      3641      3644      3647      3645      3644      3646
      3645      3644      3647      3646      3644      3647      3644      3647      3648
      3644      3647      3649      3644      3647      3650      3648      3647      3649
      3648      3647      3650      3649      3647      3650      3647      3650      3651
      3647      3650      3652      3647      3650      3653      3651      3650      3652
      3651      3650      3653      3652      3650      3653      3650      3653      3654
      3650      3653      3655      3650      3653      3656      3654      3653      3655
      3654      3653      3656      3655      3653      3656      3653      3656      3657
      3653      3656      3658      3653      3656      3659      3657      3656      3658
      3657      3656      3659      3658      3656      3659      3656      3659      3660
      3656      3659      3661      3656      3659      3662      3660      3659      3661
      3660      3659      3662      3661      3659      3662      3659      3662      3663
      3659      3662      3664      3659      3662      3665      3663      3662      3664
      3663      3662      3665      3664      3662      3665      3667      3666      3668
      3667      3666      3669      3667      3666      3671      3668      3666      3669
      3668      3666      3671      3669      3666      3671      3666      3669      3670
      3666      3671      3672      3666      3671      3673      3666      3671      3675
      3672      3671      3673      3672      3671      3675      3673      3671      3675
      3671      3673      3674      3671      3675      3676      3671      3675      3677
      3671      3675      3682      3676      3675      3677      3676      3675      3682
      3677      3675      3682      3679      3678      3680      3679      3678      3681
      3679      3678      3682      3680      3678      3681      3680      3678      3682
      3681      3678      3682      3678      3681      3683      3675      3682      3678
      3681      3683      3684      3681      3683      3685      3681      3683      3686
      3684      3683      3685      3684      3683      3686      3685      3683      3686
      3683      3686      3687      3683      3686      3688      3683      3686      3694
      3687      3686      3688      3687      3686      3694      3688      3686      3694
      3686      3688      3689      3688      3689      3690      3688      3689      3691
      3690      3689      3691      3689      3691      3692      3689      3691      3693
      3689      3691      3703      3692      3691      3693      3692      3691      3703
      3693      3691      3703      3686      3694      3695      3686      3694      3696
      3686      3694      3697      3695      3694      3696      3695      3694      3697
      3696      3694      3697      3694      3697      3698      3697      3698      3699
      3697      3698      3700      3699      3698      3700      3698      3700      3701
      3698      3700      3702      3698      3700      3744      3701      3700      3702
      3701      3700      3744      3702      3700      3744      3691      3703      3704
      3691      3703      3705      3691      3703      3706      3704      3703      3705
      3704      3703      3706      3705      3703      3706      3703      3706      3707
      3703      3706      3708      3703      3706      3709      3707      3706      3708
      3707      3706      3709      3708      3706      3709      3706      3709      3710
      3706      3709      3711      3706      3709      3712      3710      3709      3711
      3710      3709      3712      3711      3709      3712      3709      3712      3713
      3709      3712      3714      3709      3712      3715      3713      3712      3714
      3713      3712      3715      3714      3712      3715      3712      3715      3716
      3712      3715      3717      3712      3715      3718      3716      3715      3717
      3716      3715      3718      3717      3715      3718      3715      3718      3719
      3715      3718      3720      3715      3718      3721      3719      3718      3720
      3719      3718      3721      3720      3718      3721      3718      3721      3722
      3718      3721      3723      3722      3721      3723      3721      3723      3724
      3721      3723      3725      3724      3723      3725      3723      3725      3726
      3723      3725      3727      3723      3725      3728      3726      3725      3727
      3726      3725      3728      3727      3725      3728      3725      3728      3729
      3725      3728      3730      3725      3728      3731      3729      3728      3730
      3729      3728      3731      3730      3728      3731      3728      3731      3732
      3728      3731      3733      3728      3731      3734      3732      3731      3733
      3732      3731      3734      3733      3731      3734      3731      3734      3735
      3731      3734      3736      3731      3734      3737      3735      3734      3736
      3735      3734      3737      3736      3734      3737      3734      3737      3738
      3734      3737      3739      3734      3737      3740      3738      3737      3739
      3738      3737      3740      3739      3737      3740      3737      3740      3741
      3737      3740      3742      3737      3740      3743      3741      3740      3742
      3741      3740      3743      3742      3740      3743      3700      3744      3745
      3700      3744      3746      3700      3744      3747      3745      3744      3746
      3745      3744      3747      3746      3744      3747      3744      3747      3748
      3744      3747      3749      3744      3747      3750      3748      3747      3749
      3748      3747      3750      3749      3747      3750      3747      3750      3751
      3747      3750      3752      3747      3750      3753      3751      3750      3752
      3751      3750      3753      3752      3750      3753      3750      3753      3754
      3750      3753      3755      3750      3753      3756      3754      3753      3755
      3754      3753      3756      3755      3753      3756      3753      3756      3757
      3753      3756      3758      3753      3756      3759      3757      3756      3758
      3757      3756      3759      3758      3756      3759      3756      3759      3760
      3756      3759      3761      3756      3759      3762      3760      3759      3761
      3760      3759      3762      3761      3759      3762      3759      3762      3763
      3759      3762      3764      3759      3762      3765      3763      3762      3764
      3763      3762      3765      3764      3762      3765      3762      3765      3766
      3762      3765      3767      3762      3765      3768      3766      3765      3767
      3766      3765      3768      3767      3765      3768      3765      3768      3769
      3765      3768      3770      3765      3768      3771      3769      3768      3770
      3769      3768      3771      3770      3768      3771      3768      3771      3772
      3768      3771      3773      3768      3771      3774      3772      3771      3773
      3772      3771      3774      3773      3771      3774      3771      3774      3775
      3771      3774      3776      3771      3774      3777      3775      3774      3776
      3775      3774      3777      3776      3774      3777      3774      3777      3778
      3774      3777      3779      3774      3777      3780      3778      3777      3779
      3778      3777      3780      3779      3777      3780      3777      3780      3781
      3777      3780      3782      3777      3780      3783      3781      3780      3782
      3781      3780      3783      3782      3780      3783      3780      3783      3784
      3780      3783      3785      3780      3783      3786      3784      3783      3785
      3784      3783      3786      3785      3783      3786      3788      3787      3789
      3788      3787      3790      3788      3787      3791      3789      3787      3790
      3789      3787      3791      3790      3787      3791      3787      3791      3792
      3787      3791      3793      3787      3791      3794      3792      3791      3793
      3792      3791      3794      3793      3791      3794      3791      3794      3795
      3791      3794      3796      3791      3794      3801      3795      3794      3796
      3795      3794      3801      3796      3794      3801      3798      3797      3799
      3798      3797      3800      3798      3797      3801      3799      3797      3800
      3799      3797      3801      3800      3797      3801      3797      3800      3802
      3794      3801      3797      3800      3802      3803      3800      3802      3804
      3800      3802      3805      3803      3802      3804      3803      3802      3805
      3804      3802      3805      3802      3805      3806      3802      3805      3807
      3802      3805      3813      3806      3805      3807      3806      3805      3813
      3807      3805      3813      3805      3807      3808      3807      3808      3809
      3807      3808      3810      3809      3808      3810      3808      3810      3811
      3808      3810      3812      3808      3810      3822      3811      3810      3812
      3811      3810      3822      3812      3810      3822      3805      3813      3814
      3805      3813      3815      3805      3813      3816      3814      3813      3815
      3814      3813      3816      3815      3813      3816      3813      3816      3817
      3816      3817      3818      3816      3817      3819      3818      3817      3819
      3817      3819      3820      3817      3819      3821      3817      3819      3863
      3820      3819      3821      3820      3819      3863      3821      3819      3863
      3810      3822      3823      3810      3822      3824      3810      3822      3825
      3823      3822      3824      3823      3822      3825      3824      3822      3825
      3822      3825      3826      3822      3825      3827      3822      3825      3828
      3826      3825      3827      3826      3825      3828      3827      3825      3828
      3825      3828      3829      3825      3828      3830      3825      3828      3831
      3829      3828      3830      3829      3828      3831      3830      3828      3831
      3828      3831      3832      3828      3831      3833      3828      3831      3834
      3832      3831      3833      3832      3831      3834      3833      3831      3834
      3831      3834      3835      3831      3834      3836      3831      3834      3837
      3835      3834      3836      3835      3834      3837      3836      3834      3837
      3834      3837      3838      3834      3837      3839      3834      3837      3840
      3838      3837      3839      3838      3837      3840      3839      3837      3840
      3837      3840      3841      3837      3840      3842      3841      3840      3842
      3840      3842      3843      3840      3842      3844      3843      3842      3844
      3842      3844      3845      3842      3844      3846      3842      3844      3847
      3845      3844      3846      3845      3844      3847      3846      3844      3847
      3844      3847      3848      3844      3847      3849      3844      3847      3850
      3848      3847      3849      3848      3847      3850      3849      3847      3850
      3847      3850      3851      3847      3850      3852      3847      3850      3853
      3851      3850      3852      3851      3850      3853      3852      3850      3853
      3850      3853      3854      3850      3853      3855      3850      3853      3856
      3854      3853      3855      3854      3853      3856      3855      3853      3856
      3853      3856      3857      3853      3856      3858      3853      3856      3859
      3857      3856      3858      3857      3856      3859      3858      3856      3859
      3856      3859      3860      3856      3859      3861      3856      3859      3862
      3860      3859      3861      3860      3859      3862      3861      3859      3862
      3819      3863      3864      3819      3863      3865      3819      3863      3866
      3864      3863      3865      3864      3863      3866      3865      3863      3866
      3863      3866      3867      3863      3866      3868      3863      3866      3869
      3867      3866      3868      3867      3866      3869      3868      3866      3869
      3866      3869      3870      3866      3869      3871      3866      3869      3872
      3870      3869      3871      3870      3869      3872      3871      3869      3872
      3869      3872      3873      3869      3872      3874      3869      3872      3875
      3873      3872      3874      3873      3872      3875      3874      3872      3875
      3872      3875      3876      3872      3875      3877      3872      3875      3878
      3876      3875      3877      3876      3875      3878      3877      3875      3878
      3875      3878      3879      3875      3878      3880      3875      3878      3881
      3879      3878      3880      3879      3878      3881      3880      3878      3881
      3878      3881      3882      3878      3881      3883      3882      3881      3883
      3881      3883      3884      3881      3883      3885      3884      3883      3885
      3883      3885      3886      3883      3885      3887      3883      3885      3888
      3886      3885      3887      3886      3885      3888      3887      3885      3888
      3885      3888      3889      3885      3888      3890      3885      3888      3891
      3889      3888      3890      3889      3888      3891      3890      3888      3891
      3888      3891      3892      3888      3891      3893      3888      3891      3894
      3892      3891      3893      3892      3891      3894      3893      3891      3894
      3891      3894      3895      3891      3894      3896      3891      3894      3897
      3895      3894      3896      3895      3894      3897      3896      3894      3897
      3894      3897      3898      3894      3897      3899      3894      3897      3900
      3898      3897      3899      3898      3897      3900      3899      3897      3900
      3897      3900      3901      3897      3900      3902      3897      3900      3903
      3901      3900      3902      3901      3900      3903      3902      3900      3903
      3900      3903      3904      3900      3903      3905      3900      3903      3906
      3904      3903      3905      3904      3903      3906      3905      3903      3906
      3903      3906      3907      3903      3906      3908      3903      3906      3909
      3907      3906      3908      3907      3906      3909      3908      3906      3909
      3911      3910      3912      3911      3910      3913      3911      3910      3914
      3912      3910      3913      3912      3910      3914      3913      3910      3914
      3910      3914      3915      3910      3914      3916      3910      3914      3917
      3915      3914      3916      3915      3914      3917      3916      3914      3917
      3914      3917      3918      3914      3917      3919      3914      3917      3924
      3918      3917      3919      3918      3917      3924      3919      3917      3924
      3921      3920      3922      3921      3920      3923      3921      3920      3924
      3922      3920      3923      3922      3920      3924      3923      3920      3924
      3920      3923      3925      3917      3924      3920      3923      3925      3926
      3923      3925      3927      3923      3925      3928      3926      3925      3927
      3926      3925      3928      3927      3925      3928      3925      3928      3929
      3925      3928      3930      3925      3928      3936      3929      3928      3930
      3929      3928      3936      3930      3928      3936      3928      3930      3931
      3930      3931      3932      3930      3931      3933      3932      3931      3933
      3931      3933      3934      3931      3933      3935      3931      3933      3945
      3934      3933      3935      3934      3933      3945      3935      3933      3945
      3928      3936      3937      3928      3936      3938      3928      3936      3939
      3937      3936      3938      3937      3936      3939      3938      3936      3939
      3936      3939      3940      3939      3940      3941      3939      3940      3942
      3941      3940      3942      3940      3942      3943      3940      3942      3944
      3940      3942      3986      3943      3942      3944      3943      3942      3986
      3944      3942      3986      3933      3945      3946      3933      3945      3947
      3933      3945      3948      3946      3945      3947      3946      3945      3948
      3947      3945      3948      3945      3948      3949      3945      3948      3950
      3945      3948      3951      3949      3948      3950      3949      3948      3951
      3950      3948      3951      3948      3951      3952      3948      3951      3953
      3948      3951      3954      3952      3951      3953      3952      3951      3954
      3953      3951      3954      3951      3954      3955      3951      3954      3956
      3951      3954      3957      3955      3954      3956      3955      3954      3957
      3956      3954      3957      3954      3957      3958      3954      3957      3959
      3954      3957      3960      3958      3957      3959      3958      3957      3960
      3959      3957      3960      3957      3960      3961      3957      3960      3962
      3957      3960      3963      3961      3960      3962      3961      3960      3963
      3962      3960      3963      3960      3963      3964      3960      3963      3965
      3964      3963      3965      3963      3965      3966      3963      3965      3967
      3966      3965      3967      3965      3967      3968      3965      3967      3969
      3965      3967      3970      3968      3967      3969      3968      3967      3970
      3969      3967      3970      3967      3970      3971      3967      3970      3972
      3967      3970      3973      3971      3970      3972      3971      3970      3973
      3972      3970      3973      3970      3973      3974      3970      3973      3975
      3970      3973      3976      3974      3973      3975      3974      3973      3976
      3975      3973      3976      3973      3976      3977      3973      3976      3978
      3973      3976      3979      3977      3976      3978      3977      3976      3979
      3978      3976      3979      3976      3979      3980      3976      3979      3981
      3976      3979      3982      3980      3979      3981      3980      3979      3982
      3981      3979      3982      3979      3982      3983      3979      3982      3984
      3979      3982      3985      3983      3982      3984      3983      3982      3985
      3984      3982      3985      3942      3986      3987      3942      3986      3988
      3942      3986      3989      3987      3986      3988      3987      3986      3989
      3988      3986      3989      3986      3989      3990      3986      3989      3991
      3986      3989      3992      3990      3989      3991      3990      3989      3992
      3991      3989      3992      3989      3992      3993      3989      3992      3994
      3989      3992      3995      3993      3992      3994      3993      3992      3995
      3994      3992      3995      3992      3995      3996      3992      3995      3997
      3992      3995      3998      3996      3995      3997      3996      3995      3998
      3997      3995      3998      3995      3998      3999      3995      3998      4000
      3995      3998      4001      3999      3998      4000      3999      3998      4001
      4000      3998      4001      3998      4001      4002      3998      4001      4003
      3998      4001      4004      4002      4001      4003      4002      4001      4004
      4003      4001      4004      4001      4004      4005      4001      4004      4006
      4005      4004      4006      4004      4006      4007      4004      4006      4008
      4007      4006      4008      4006      4008      4009      4006      4008      4010
      4006      4008      4011      4009      4008      4010      4009      4008      4011
      4010      4008      4011      4008      4011      4012      4008      4011      4013
      4008      4011      4014      4012      4011      4013      4012      4011      4014
      4013      4011      4014      4011      4014      4015      4011      4014      4016
      4011      4014      4017      4015      4014      4016      4015      4014      4017
      4016      4014      4017      4014      4017      4018      4014      4017      4019
      4014      4017      4020      4018      4017      4019      4018      4017      4020
      4019      4017      4020      4017      4020      4021      4017      4020      4022
      4017      4020      4023      4021      4020      4022      4021      4020      4023
      4022      4020      4023      4020      4023      4024      4020      4023      4025
      4020      4023      4026      4024      4023      4025      4024      4023      4026
      4025      4023      4026      4023      4026      4027      4023      4026      4028
      4023      4026      4029      4027      4026      4028      4027      4026      4029
      4028      4026      4029      4026      4029      4030      4026      4029      4031
      4026      4029      4032      4030      4029      4031      4030      4029      4032
      4031      4029      4032      4034      4033      4035      4034      4033      4036
      4034      4033      4038      4035      4033      4036      4035      4033      4038
      4036      4033      4038      4033      4036      4037      4033      4038      4039
      4033      4038      4040      4033      4038      4042      4039      4038      4040
      4039      4038      4042      4040      4038      4042      4038      4040      4041
      4038      4042      4043      4038      4042      4044      4038      4042      4049
      4043      4042      4044      4043      4042      4049      4044      4042      4049
      4046      4045      4047      4046      4045      4048      4046      4045      4049
      4047      4045      4048      4047      4045      4049      4048      4045      4049
      4045      4048      4050      4042      4049      4045      4048      4050      4051
      4048      4050      4052      4048      4050      4053      4051      4050      4052
      4051      4050      4053      4052      4050      4053      4050      4053      4054
      4050      4053      4055      4050      4053      4061      4054      4053      4055
      4054      4053      4061      4055      4053      4061      4053      4055      4056
      4055      4056      4057      4055      4056      4058      4057      4056      4058
      4056      4058      4059      4056      4058      4060      4056      4058      4070
      4059      4058      4060      4059      4058      4070      4060      4058      4070
      4053      4061      4062      4053      4061      4063      4053      4061      4064
      4062      4061      4063      4062      4061      4064      4063      4061      4064
      4061      4064      4065      4064      4065      4066      4064      4065      4067
      4066      4065      4067      4065      4067      4068      4065      4067      4069
      4065      4067      4114      4068      4067      4069      4068      4067      4114
      4069      4067      4114      4058      4070      4071      4058      4070      4072
      4058      4070      4073      4071      4070      4072      4071      4070      4073
      4072      4070      4073      4070      4073      4074      4070      4073      4075
      4070      4073      4076      4074      4073      4075      4074      4073      4076
      4075      4073      4076      4073      4076      4077      4073      4076      4078
      4073      4076      4079      4077      4076      4078      4077      4076      4079
      4078      4076      4079      4076      4079      4080      4076      4079      4081
      4076      4079      4082      4080      4079      4081      4080      4079      4082
      4081      4079      4082      4079      4082      4083      4079      4082      4084
      4079      4082      4085      4083      4082      4084      4083      4082      4085
      4084      4082      4085      4082      4085      4086      4082      4085      4087
      4082      4085      4088      4086      4085      4087      4086      4085      4088
      4087      4085      4088      4085      4088      4089      4085      4088      4090
      4085      4088      4093      4089      4088      4090      4089      4088      4093
      4090      4088      4093      4088      4090      4091      4088      4090      4092
      4088      4090      4093      4091      4090      4092      4091      4090      4093
      4092      4090      4093      4088      4093      4090      4088      4093      4094
      4088      4093      4095      4090      4093      4094      4090      4093      4095
      4094      4093      4095      4093      4095      4096      4093      4095      4097
      4093      4095      4098      4096      4095      4097      4096      4095      4098
      4097      4095      4098      4095      4098      4099      4095      4098      4100
      4095      4098      4101      4099      4098      4100      4099      4098      4101
      4100      4098      4101      4098      4101      4102      4098      4101      4103
      4098      4101      4104      4102      4101      4103      4102      4101      4104
      4103      4101      4104      4101      4104      4105      4101      4104      4106
      4101      4104      4107      4105      4104      4106      4105      4104      4107
      4106      4104      4107      4104      4107      4108      4104      4107      4109
      4104      4107      4110      4108      4107      4109      4108      4107      4110
      4109      4107      4110      4107      4110      4111      4107      4110      4112
      4107      4110      4113      4111      4110      4112      4111      4110      4113
      4112      4110      4113      4067      4114      4115      4067      4114      4116
      4067      4114      4117      4115      4114      4116      4115      4114      4117
      4116      4114      4117      4114      4117      4118      4114      4117      4119
      4114      4117      4120      4118      4117      4119      4118      4117      4120
      4119      4117      4120      4117      4120      4121      4117      4120      4122
      4117      4120      4123      4121      4120      4122      4121      4120      4123
      4122      4120      4123      4120      4123      4124      4120      4123      4125
      4120      4123      4126      4124      4123      4125      4124      4123      4126
      4125      4123      4126      4123      4126      4127      4123      4126      4128
      4123      4126      4129      4127      4126      4128      4127      4126      4129
      4128      4126      4129      4126      4129      4130      4126      4129      4131
      4126      4129      4132      4130      4129      4131      4130      4129      4132
      4131      4129      4132      4129      4132      4133      4129      4132      4134
      4129      4132      4135      4133      4132      4134      4133      4132      4135
      4134      4132      4135      4132      4135      4136      4132      4135      4137
      4132      4135      4138      4136      4135      4137      4136      4135      4138
      4137      4135      4138      4135      4138      4139      4135      4138      4140
      4135      4138      4141      4139      4138      4140      4139      4138      4141
      4140      4138      4141      4138      4141      4142      4138      4141      4143
      4138      4141      4144      4142      4141      4143      4142      4141      4144
      4143      4141      4144      4141      4144      4145      4141      4144      4146
      4141      4144      4147      4145      4144      4146      4145      4144      4147
      4146      4144      4147      4144      4147      4148      4144      4147      4149
      4144      4147      4150      4148      4147      4149      4148      4147      4150
      4149      4147      4150      4147      4150      4151      4147      4150      4152
      4147      4150      4153      4151      4150      4152      4151      4150      4153
      4152      4150      4153      4150      4153      4154      4150      4153      4155
      4150      4153      4156      4154      4153      4155      4154      4153      4156
      4155      4153      4156      4158      4157      4159      4158      4157      4160
      4158      4157      4161      4159      4157      4160      4159      4157      4161
      4160      4157      4161      4157      4161      4162      4157      4161      4163
      4157      4161      4164      4162      4161      4163      4162      4161      4164
      4163      4161      4164      4161      4164      4165      4161      4164      4166
      4161      4164      4171      4165      4164      4166      4165      4164      4171
      4166      4164      4171      4168      4167      4169      4168      4167      4170
      4168      4167      4171      4169      4167      4170      4169      4167      4171
      4170      4167      4171      4167      4170      4172      4164      4171      4167
      4170      4172      4173      4170      4172      4174      4170      4172      4175
      4173      4172      4174      4173      4172      4175      4174      4172      4175
      4172      4175      4176      4172      4175      4177      4172      4175      4183
      4176      4175      4177      4176      4175      4183      4177      4175      4183
      4175      4177      4178      4177      4178      4179      4177      4178      4180
      4179      4178      4180      4178      4180      4181      4178      4180      4182
      4178      4180      4192      4181      4180      4182      4181      4180      4192
      4182      4180      4192      4175      4183      4184      4175      4183      4185
      4175      4183      4186      4184      4183      4185      4184      4183      4186
      4185      4183      4186      4183      4186      4187      4186      4187      4188
      4186      4187      4189      4188      4187      4189      4187      4189      4190
      4187      4189      4191      4187      4189      4236      4190      4189      4191
      4190      4189      4236      4191      4189      4236      4180      4192      4193
      4180      4192      4194      4180      4192      4195      4193      4192      4194
      4193      4192      4195      4194      4192      4195      4192      4195      4196
      4192      4195      4197      4192      4195      4198      4196      4195      4197
      4196      4195      4198      4197      4195      4198      4195      4198      4199
      4195      4198      4200      4195      4198      4201      4199      4198      4200
      4199      4198      4201      4200      4198      4201      4198      4201      4202
      4198      4201      4203      4198      4201      4204      4202      4201      4203
      4202      4201      4204      4203      4201      4204      4201      4204      4205
      4201      4204      4206      4201      4204      4207      4205      4204      4206
      4205      4204      4207      4206      4204      4207      4204      4207      4208
      4204      4207      4209      4204      4207      4210      4208      4207      4209
      4208      4207      4210      4209      4207      4210      4207      4210      4211
      4207      4210      4212      4207      4210      4215      4211      4210      4212
      4211      4210      4215      4212      4210      4215      4210      4212      4213
      4210      4212      4214      4210      4212      4215      4213      4212      4214
      4213      4212      4215      4214      4212      4215      4210      4215      4212
      4210      4215      4216      4210      4215      4217      4212      4215      4216
      4212      4215      4217      4216      4215      4217      4215      4217      4218
      4215      4217      4219      4215      4217      4220      4218      4217      4219
      4218      4217      4220      4219      4217      4220      4217      4220      4221
      4217      4220      4222      4217      4220      4223      4221      4220      4222
      4221      4220      4223      4222      4220      4223      4220      4223      4224
      4220      4223      4225      4220      4223      4226      4224      4223      4225
      4224      4223      4226      4225      4223      4226      4223      4226      4227
      4223      4226      4228      4223      4226      4229      4227      4226      4228
      4227      4226      4229      4228      4226      4229      4226      4229      4230
      4226      4229      4231      4226      4229      4232      4230      4229      4231
      4230      4229      4232      4231      4229      4232      4229      4232      4233
      4229      4232      4234      4229      4232      4235      4233      4232      4234
      4233      4232      4235      4234      4232      4235      4189      4236      4237
      4189      4236      4238      4189      4236      4239      4237      4236      4238
      4237      4236      4239      4238      4236      4239      4236      4239      4240
      4236      4239      4241      4236      4239      4242      4240      4239      4241
      4240      4239      4242      4241      4239      4242      4239      4242      4243
      4239      4242      4244      4239      4242      4245      4243      4242      4244
      4243      4242      4245      4244      4242      4245      4242      4245      4246
      4242      4245      4247      4242      4245      4248      4246      4245      4247
      4246      4245      4248      4247      4245      4248      4245      4248      4249
      4245      4248      4250      4245      4248      4251      4249      4248      4250
      4249      4248      4251      4250      4248      4251      4248      4251      4252
      4248      4251      4253      4248      4251      4254      4252      4251      4253
      4252      4251      4254      4253      4251      4254      4251      4254      4255
      4251      4254      4256      4251      4254      4257      4255      4254      4256
      4255      4254      4257      4256      4254      4257      4254      4257      4258
      4254      4257      4259      4254      4257      4260      4258      4257      4259
      4258      4257      4260      4259      4257      4260      4257      4260      4261
      4257      4260      4262      4257      4260      4263      4261      4260      4262
      4261      4260      4263      4262      4260      4263      4260      4263      4264
      4260      4263      4265      4260      4263      4266      4264      4263      4265
      4264      4263      4266      4265      4263      4266      4263      4266      4267
      4263      4266      4268      4263      4266      4269      4267      4266      4268
      4267      4266      4269      4268      4266      4269      4266      4269      4270
      4266      4269      4271      4266      4269      4272      4270      4269      4271
      4270      4269      4272      4271      4269      4272      4269      4272      4273
      4269      4272      4274      4269      4272      4275      4273      4272      4274
      4273      4272      4275      4274      4272      4275      4272      4275      4276
      4272      4275      4277      4272      4275      4278      4276      4275      4277
      4276      4275      4278      4277      4275      4278      4280      4279      4281
      4280      4279      4282      4280      4279      4283      4281      4279      4282
      4281      4279      4283      4282      4279      4283      4279      4283      4284
      4279      4283      4285      4279      4283      4286      4284      4283      4285
      4284      4283      4286      4285      4283      4286      4283      4286      4287
      4283      4286      4288      4283      4286      4293      4287      4286      4288
      4287      4286      4293      4288      4286      4293      4290      4289      4291
      4290      4289      4292      4290      4289      4293      4291      4289      4292
      4291      4289      4293      4292      4289      4293      4289      4292      4294
      4286      4293      4289      4292      4294      4295      4292      4294      4296
      4292      4294      4297      4295      4294      4296      4295      4294      4297
      4296      4294      4297      4294      4297      4298      4294      4297      4299
      4294      4297      4305      4298      4297      4299      4298      4297      4305
      4299      4297      4305      4297      4299      4300      4299      4300      4301
      4299      4300      4302      4301      4300      4302      4300      4302      4303
      4300      4302      4304      4300      4302      4314      4303      4302      4304
      4303      4302      4314      4304      4302      4314      4297      4305      4306
      4297      4305      4307      4297      4305      4308      4306      4305      4307
      4306      4305      4308      4307      4305      4308      4305      4308      4309
      4308      4309      4310      4308      4309      4311      4310      4309      4311
      4309      4311      4312      4309      4311      4313      4309      4311      4361
      4312      4311      4313      4312      4311      4361      4313      4311      4361
      4302      4314      4315      4302      4314      4316      4302      4314      4317
      4315      4314      4316      4315      4314      4317      4316      4314      4317
      4314      4317      4318      4314      4317      4319      4314      4317      4320
      4318      4317      4319      4318      4317      4320      4319      4317      4320
      4317      4320      4321      4317      4320      4322      4317      4320      4323
      4321      4320      4322      4321      4320      4323      4322      4320      4323
      4320      4323      4324      4320      4323      4325      4320      4323      4326
      4324      4323      4325      4324      4323      4326      4325      4323      4326
      4323      4326      4327      4323      4326      4328      4323      4326      4329
      4327      4326      4328      4327      4326      4329      4328      4326      4329
      4326      4329      4330      4326      4329      4331      4326      4329      4332
      4330      4329      4331      4330      4329      4332      4331      4329      4332
      4329      4332      4333      4329      4332      4334      4333      4332      4334
      4332      4334      4335      4332      4334      4336      4335      4334      4336
      4334      4336      4337      4334      4336      4338      4334      4336      4339
      4337      4336      4338      4337      4336      4339      4338      4336      4339
      4336      4339      4340      4336      4339      4341      4336      4339      4342
      4340      4339      4341      4340      4339      4342      4341      4339      4342
      4339      4342      4343      4339      4342      4344      4339      4342      4345
      4343      4342      4344      4343      4342      4345      4344      4342      4345
      4342      4345      4346      4342      4345      4347      4342      4345      4348
      4346      4345      4347      4346      4345      4348      4347      4345      4348
      4345      4348      4349      4345      4348      4350      4345      4348      4351
      4349      4348      4350      4349      4348      4351      4350      4348      4351
      4348      4351      4352      4348      4351      4353      4348      4351      4354
      4352      4351      4353      4352      4351      4354      4353      4351      4354
      4351      4354      4355      4351      4354      4356      4351      4354      4357
      4355      4354      4356      4355      4354      4357      4356      4354      4357
      4354      4357      4358      4354      4357      4359      4354      4357      4360
      4358      4357      4359      4358      4357      4360      4359      4357      4360
      4311      4361      4362      4311      4361      4363      4311      4361      4364
      4362      4361      4363      4362      4361      4364      4363      4361      4364
      4361      4364      4365      4361      4364      4366      4361      4364      4367
      4365      4364      4366      4365      4364      4367      4366      4364      4367
      4364      4367      4368      4364      4367      4369      4364      4367      4370
      4368      4367      4369      4368      4367      4370      4369      4367      4370
      4367      4370      4371      4367      4370      4372      4367      4370      4373
      4371      4370      4372      4371      4370      4373      4372      4370      4373
      4370      4373      4374      4370      4373      4375      4370      4373      4376
      4374      4373      4375      4374      4373      4376      4375      4373      4376
      4373      4376      4377      4373      4376      4378      4373      4376      4379
      4377      4376      4378      4377      4376      4379      4378      4376      4379
      4376      4379      4380      4376      4379      4381      4376      4379      4382
      4380      4379      4381      4380      4379      4382      4381      4379      4382
      4379      4382      4383      4379      4382      4384      4379      4382      4385
      4383      4382      4384      4383      4382      4385      4384      4382      4385
      4382      4385      4386      4382      4385      4387      4382      4385      4388
      4386      4385      4387      4386      4385      4388      4387      4385      4388
      4385      4388      4389      4385      4388      4390      4385      4388      4391
      4389      4388      4390      4389      4388      4391      4390      4388      4391
      4388      4391      4392      4388      4391      4393      4388      4391      4394
      4392      4391      4393      4392      4391      4394      4393      4391      4394
      4391      4394      4395      4391      4394      4396      4391      4394      4397
      4395      4394      4396      4395      4394      4397      4396      4394      4397
      4394      4397      4398      4394      4397      4399      4394      4397      4400
      4398      4397      4399      4398      4397      4400      4399      4397      4400
      4397      4400      4401      4397      4400      4402      4397      4400      4403
      4401      4400      4402      4401      4400      4403      4402      4400      4403
      4405      4404      4406      4405      4404      4407      4405      4404      4408
      4406      4404      4407      4406      4404      4408      4407      4404      4408
      4404      4408      4409      4404      4408      4410      4404      4408      4411
      4409      4408      4410      4409      4408      4411      4410      4408      4411
      4408      4411      4412      4408      4411      4413      4408      4411      4418
      4412      4411      4413      4412      4411      4418      4413      4411      4418
      4415      4414      4416      4415      4414      4417      4415      4414      4418
      4416      4414      4417      4416      4414      4418      4417      4414      4418
      4414      4417      4419      4411      4418      4414      4417      4419      4420
      4417      4419      4421      4417      4419      4422      4420      4419      4421
      4420      4419      4422      4421      4419      4422      4419      4422      4423
      4419      4422      4424      4419      4422      4430      4423      4422      4424
      4423      4422      4430      4424      4422      4430      4422      4424      4425
      4424      4425      4426      4424      4425      4427      4426      4425      4427
      4425      4427      4428      4425      4427      4429      4425      4427      4439
      4428      4427      4429      4428      4427      4439      4429      4427      4439
      4422      4430      4431      4422      4430      4432      4422      4430      4433
      4431      4430      4432      4431      4430      4433      4432      4430      4433
      4430      4433      4434      4433      4434      4435      4433      4434      4436
      4435      4434      4436      4434      4436      4437      4434      4436      4438
      4434      4436      4480      4437      4436      4438      4437      4436      4480
      4438      4436      4480      4427      4439      4440      4427      4439      4441
      4427      4439      4442      4440      4439      4441      4440      4439      4442
      4441      4439      4442      4439      4442      4443      4439      4442      4444
      4439      4442      4445      4443      4442      4444      4443      4442      4445
      4444      4442      4445      4442      4445      4446      4442      4445      4447
      4442      4445      4448      4446      4445      4447      4446      4445      4448
      4447      4445      4448      4445      4448      4449      4445      4448      4450
      4445      4448      4451      4449      4448      4450      4449      4448      4451
      4450      4448      4451      4448      4451      4452      4448      4451      4453
      4448      4451      4454      4452      4451      4453      4452      4451      4454
      4453      4451      4454      4451      4454      4455      4451      4454      4456
      4451      4454      4457      4455      4454      4456      4455      4454      4457
      4456      4454      4457      4454      4457      4458      4454      4457      4459
      4458      4457      4459      4457      4459      4460      4457      4459      4461
      4460      4459      4461      4459      4461      4462      4459      4461      4463
      4459      4461      4464      4462      4461      4463      4462      4461      4464
      4463      4461      4464      4461      4464      4465      4461      4464      4466
      4461      4464      4467      4465      4464      4466      4465      4464      4467
      4466      4464      4467      4464      4467      4468      4464      4467      4469
      4464      4467      4470      4468      4467      4469      4468      4467      4470
      4469      4467      4470      4467      4470      4471      4467      4470      4472
      4467      4470      4473      4471      4470      4472      4471      4470      4473
      4472      4470      4473      4470      4473      4474      4470      4473      4475
      4470      4473      4476      4474      4473      4475      4474      4473      4476
      4475      4473      4476      4473      4476      4477      4473      4476      4478
      4473      4476      4479      4477      4476      4478      4477      4476      4479
      4478      4476      4479      4436      4480      4481      4436      4480      4482
      4436      4480      4483      4481      4480      4482      4481      4480      4483
      4482      4480      4483      4480      4483      4484      4480      4483      4485
      4480      4483      4486      4484      4483      4485      4484      4483      4486
      4485      4483      4486      4483      4486      4487      4483      4486      4488
      4483      4486      4489      4487      4486      4488      4487      4486      4489
      4488      4486      4489      4486      4489      4490      4486      4489      4491
      4486      4489      4492      4490      4489      4491      4490      4489      4492
      4491      4489      4492      4489      4492      4493      4489      4492      4494
      4489      4492      4495      4493      4492      4494      4493      4492      4495
      4494      4492      4495      4492      4495      4496      4492      4495      4497
      4492      4495      4498      4496      4495      4497      4496      4495      4498
      4497      4495      4498      4495      4498      4499      4495      4498      4500
      4499      4498      4500      4498      4500      4501      4498      4500      4502
      4501      4500      4502      4500      4502      4503      4500      4502      4504
      4500      4502      4505      4503      4502      4504      4503      4502      4505
      4504      4502      4505      4502      4505      4506      4502      4505      4507
      4502      4505      4508      4506      4505      4507      4506      4505      4508
      4507      4505      4508      4505      4508      4509      4505      4508      4510
      4505      4508      4511      4509      4508      4510      4509      4508      4511
      4510      4508      4511      4508      4511      4512      4508      4511      4513
      4508      4511      4514      4512      4511      4513      4512      4511      4514
      4513      4511      4514      4511      4514      4515      4511      4514      4516
      4511      4514      4517      4515      4514      4516      4515      4514      4517
      4516      4514      4517      4514      4517      4518      4514      4517      4519
      4514      4517      4520      4518      4517      4519      4518      4517      4520
      4519      4517      4520      4517      4520      4521      4517      4520      4522
      4517      4520      4523      4521      4520      4522      4521      4520      4523
      4522      4520      4523      4520      4523      4524      4520      4523      4525
      4520      4523      4526      4524      4523      4525      4524      4523      4526
      4525      4523      4526      4528      4527      4529      4528      4527      4530
      4528      4527      4531      4529      4527      4530      4529      4527      4531
      4530      4527      4531      4527      4531      4532      4527      4531      4533
      4527      4531      4534      4532      4531      4533      4532      4531      4534
      4533      4531      4534      4531      4534      4535      4531      4534      4536
      4531      4534      4541      4535      4534      4536      4535      4534      4541
      4536      4534      4541      4538      4537      4539      4538      4537      4540
      4538      4537      4541      4539      4537      4540      4539      4537      4541
      4540      4537      4541      4537      4540      4542      4534      4541      4537
      4540      4542      4543      4540      4542      4544      4540      4542      4545
      4543      4542      4544      4543      4542      4545      4544      4542      4545
      4542      4545      4546      4542      4545      4547      4542      4545      4553
      4546      4545      4547      4546      4545      4553      4547      4545      4553
      4545      4547      4548      4547      4548      4549      4547      4548      4550
      4549      4548      4550      4548      4550      4551      4548      4550      4552
      4548      4550      4562      4551      4550      4552      4551      4550      4562
      4552      4550      4562      4545      4553      4554      4545      4553      4555
      4545      4553      4556      4554      4553      4555      4554      4553      4556
      4555      4553      4556      4553      4556      4557      4556      4557      4558
      4556      4557      4559      4558      4557      4559      4557      4559      4560
      4557      4559      4561      4557      4559      4606      4560      4559      4561
      4560      4559      4606      4561      4559      4606      4550      4562      4563
      4550      4562      4564      4550      4562      4565      4563      4562      4564
      4563      4562      4565      4564      4562      4565      4562      4565      4566
      4562      4565      4567      4562      4565      4568      4566      4565      4567
      4566      4565      4568      4567      4565      4568      4565      4568      4569
      4565      4568      4570      4565      4568      4571      4569      4568      4570
      4569      4568      4571      4570      4568      4571      4568      4571      4572
      4568      4571      4573      4568      4571      4574      4572      4571      4573
      4572      4571      4574      4573      4571      4574      4571      4574      4575
      4571      4574      4576      4571      4574      4577      4575      4574      4576
      4575      4574      4577      4576      4574      4577      4574      4577      4578
      4574      4577      4579      4574      4577      4580      4578      4577      4579
      4578      4577      4580      4579      4577      4580      4577      4580      4581
      4577      4580      4582      4577      4580      4585      4581      4580      4582
      4581      4580      4585      4582      4580      4585      4580      4582      4583
      4580      4582      4584      4580      4582      4585      4583      4582      4584
      4583      4582      4585      4584      4582      4585      4580      4585      4582
      4580      4585      4586      4580      4585      4587      4582      4585      4586
      4582      4585      4587      4586      4585      4587      4585      4587      4588
      4585      4587      4589      4585      4587      4590      4588      4587      4589
      4588      4587      4590      4589      4587      4590      4587      4590      4591
      4587      4590      4592      4587      4590      4593      4591      4590      4592
      4591      4590      4593      4592      4590      4593      4590      4593      4594
      4590      4593      4595      4590      4593      4596      4594      4593      4595
      4594      4593      4596      4595      4593      4596      4593      4596      4597
      4593      4596      4598      4593      4596      4599      4597      4596      4598
      4597      4596      4599      4598      4596      4599      4596      4599      4600
      4596      4599      4601      4596      4599      4602      4600      4599      4601
      4600      4599      4602      4601      4599      4602      4599      4602      4603
      4599      4602      4604      4599      4602      4605      4603      4602      4604
      4603      4602      4605      4604      4602      4605      4559      4606      4607
      4559      4606      4608      4559      4606      4609      4607      4606      4608
      4607      4606      4609      4608      4606      4609      4606      4609      4610
      4606      4609      4611      4606      4609      4612      4610      4609      4611
      4610      4609      4612      4611      4609      4612      4609      4612      4613
      4609      4612      4614      4609      4612      4615      4613      4612      4614
      4613      4612      4615      4614      4612      4615      4612      4615      4616
      4612      4615      4617      4612      4615      4618      4616      4615      4617
      4616      4615      4618      4617      4615      4618      4615      4618      4619
      4615      4618      4620      4615      4618      4621      4619      4618      4620
      4619      4618      4621      4620      4618      4621      4618      4621      4622
      4618      4621      4623      4618      4621      4624      4622      4621      4623
      4622      4621      4624      4623      4621      4624      4621      4624      4625
      4621      4624      4626      4621      4624      4627      4625      4624      4626
      4625      4624      4627      4626      4624      4627      4624      4627      4628
      4624      4627      4629      4624      4627      4630      4628      4627      4629
      4628      4627      4630      4629      4627      4630      4627      4630      4631
      4627      4630      4632      4627      4630      4633      4631      4630      4632
      4631      4630      4633      4632      4630      4633      4630      4633      4634
      4630      4633      4635      4630      4633      4636      4634      4633      4635
      4634      4633      4636      4635      4633      4636      4633      4636      4637
      4633      4636      4638      4633      4636      4639      4637      4636      4638
      4637      4636      4639      4638      4636      4639      4636      4639      4640
      4636      4639      4641      4636      4639      4642      4640      4639      4641
      4640      4639      4642      4641      4639      4642      4639      4642      4643
      4639      4642      4644      4639      4642      4645      4643      4642      4644
      4643      4642      4645      4644      4642      4645      4642      4645      4646
      4642      4645      4647      4642      4645      4648      4646      4645      4647
      4646      4645      4648      4647      4645      4648      4650      4649      4651
      4650      4649      4652      4650      4649      4653      4651      4649      4652
      4651      4649      4653      4652      4649      4653      4649      4653      4654
      4649      4653      4655      4649      4653      4656      4654      4653      4655
      4654      4653      4656      4655      4653      4656      4653      4656      4657
      4653      4656      4658      4653      4656      4663      4657      4656      4658
      4657      4656      4663      4658      4656      4663      4660      4659      4661
      4660      4659      4662      4660      4659      4663      4661      4659      4662
      4661      4659      4663      4662      4659      4663      4659      4662      4664
      4656      4663      4659      4662      4664      4665      4662      4664      4666
      4662      4664      4667      4665      4664      4666      4665      4664      4667
      4666      4664      4667      4664      4667      4668      4664      4667      4669
      4664      4667      4675      4668      4667      4669      4668      4667      4675
      4669      4667      4675      4667      4669      4670      4669      4670      4671
      4669      4670      4672      4671      4670      4672      4670      4672      4673
      4670      4672      4674      4670      4672      4684      4673      4672      4674
      4673      4672      4684      4674      4672      4684      4667      4675      4676
      4667      4675      4677      4667      4675      4678      4676      4675      4677
      4676      4675      4678      4677      4675      4678      4675      4678      4679
      4678      4679      4680      4678      4679      4681      4680      4679      4681
      4679      4681      4682      4679      4681      4683      4679      4681      4728
      4682      4681      4683      4682      4681      4728      4683      4681      4728
      4672      4684      4685      4672      4684      4686      4672      4684      4687
      4685      4684      4686      4685      4684      4687      4686      4684      4687
      4684      4687      4688      4684      4687      4689      4684      4687      4690
      4688      4687      4689      4688      4687      4690      4689      4687      4690
      4687      4690      4691      4687      4690      4692      4687      4690      4693
      4691      4690      4692      4691      4690      4693      4692      4690      4693
      4690      4693      4694      4690      4693      4695      4690      4693      4696
      4694      4693      4695      4694      4693      4696      4695      4693      4696
      4693      4696      4697      4693      4696      4698      4693      4696      4699
      4697      4696      4698      4697      4696      4699      4698      4696      4699
      4696      4699      4700      4696      4699      4701      4696      4699      4702
      4700      4699      4701      4700      4699      4702      4701      4699      4702
      4699      4702      4703      4699      4702      4704      4699      4702      4707
      4703      4702      4704      4703      4702      4707      4704      4702      4707
      4702      4704      4705      4702      4704      4706      4702      4704      4707
      4705      4704      4706      4705      4704      4707      4706      4704      4707
      4702      4707      4704      4702      4707      4708      4702      4707      4709
      4704      4707      4708      4704      4707      4709      4708      4707      4709
      4707      4709      4710      4707      4709      4711      4707      4709      4712
      4710      4709      4711      4710      4709      4712      4711      4709      4712
      4709      4712      4713      4709      4712      4714      4709      4712      4715
      4713      4712      4714      4713      4712      4715      4714      4712      4715
      4712      4715      4716      4712      4715      4717      4712      4715      4718
      4716      4715      4717      4716      4715      4718      4717      4715      4718
      4715      4718      4719      4715      4718      4720      4715      4718      4721
      4719      4718      4720      4719      4718      4721      4720      4718      4721
      4718      4721      4722      4718      4721      4723      4718      4721      4724
      4722      4721      4723      4722      4721      4724      4723      4721      4724
      4721      4724      4725      4721      4724      4726      4721      4724      4727
      4725      4724      4726      4725      4724      4727      4726      4724      4727
      4681      4728      4729      4681      4728      4730      4681      4728      4731
      4729      4728      4730      4729      4728      4731      4730      4728      4731
      4728      4731      4732      4728      4731      4733      4728      4731      4734
      4732      4731      4733      4732      4731      4734      4733      4731      4734
      4731      4734      4735      4731      4734      4736      4731      4734      4737
      4735      4734      4736      4735      4734      4737      4736      4734      4737
      4734      4737      4738      4734      4737      4739      4734      4737      4740
      4738      4737      4739      4738      4737      4740      4739      4737      4740
      4737      4740      4741      4737      4740      4742      4737      4740      4743
      4741      4740      4742      4741      4740      4743      4742      4740      4743
      4740      4743      4744      4740      4743      4745      4740      4743      4746
      4744      4743      4745      4744      4743      4746      4745      4743      4746
      4743      4746      4747      4743      4746      4748      4743      4746      4749
      4747      4746      4748      4747      4746      4749      4748      4746      4749
      4746      4749      4750      4746      4749      4751      4746      4749      4752
      4750      4749      4751      4750      4749      4752      4751      4749      4752
      4749      4752      4753      4749      4752      4754      4749      4752      4755
      4753      4752      4754      4753      4752      4755      4754      4752      4755
      4752      4755      4756      4752      4755      4757      4752      4755      4758
      4756      4755      4757      4756      4755      4758      4757      4755      4758
      4755      4758      4759      4755      4758      4760      4755      4758      4761
      4759      4758      4760      4759      4758      4761      4760      4758      4761
      4758      4761      4762      4758      4761      4763      4758      4761      4764
      4762      4761      4763      4762      4761      4764      4763      4761      4764
      4761      4764      4765      4761      4764      4766      4761      4764      4767
      4765      4764      4766      4765      4764      4767      4766      4764      4767
      4764      4767      4768      4764      4767      4769      4764      4767      4770
      4768      4767      4769      4768      4767      4770      4769      4767      4770
      4772      4771      4773      4772      4771      4774      4772      4771      4776
      4773      4771      4774      4773      4771      4776      4774      4771      4776
      4771      4774      4775      4771      4776      4777      4771      4776      4778
      4771      4776      4780      4777      4776      4778      4777      4776      4780
      4778      4776      4780      4776      4778      4779      4776      4780      4781
      4776      4780      4782      4776      4780      4787      4781      4780      4782
      4781      4780      4787      4782      4780      4787      4784      4783      4785
      4784      4783      4786      4784      4783      4787      4785      4783      4786
      4785      4783      4787      4786      4783      4787      4783      4786      4788
      4780      4787      4783      4786      4788      4789      4786      4788      4790
      4786      4788      4791      4789      4788      4790      4789      4788      4791
      4790      4788      4791      4788      4791      4792      4788      4791      4793
      4788      4791      4799      4792      4791      4793      4792      4791      4799
      4793      4791      4799      4791      4793      4794      4793      4794      4795
      4793      4794      4796      4795      4794      4796      4794      4796      4797
      4794      4796      4798      4794      4796      4808      4797      4796      4798
      4797      4796      4808      4798      4796      4808      4791      4799      4800
      4791      4799      4801      4791      4799      4802      4800      4799      4801
      4800      4799      4802      4801      4799      4802      4799      4802      4803
      4802      4803      4804      4802      4803      4805      4804      4803      4805
      4803      4805      4806      4803      4805      4807      4803      4805      4852
      4806      4805      4807      4806      4805      4852      4807      4805      4852
      4796      4808      4809      4796      4808      4810      4796      4808      4811
      4809      4808      4810      4809      4808      4811      4810      4808      4811
      4808      4811      4812      4808      4811      4813      4808      4811      4814
      4812      4811      4813      4812      4811      4814      4813      4811      4814
      4811      4814      4815      4811      4814      4816      4811      4814      4817
      4815      4814      4816      4815      4814      4817      4816      4814      4817
      4814      4817      4818      4814      4817      4819      4814      4817      4820
      4818      4817      4819      4818      4817      4820      4819      4817      4820
      4817      4820      4821      4817      4820      4822      4817      4820      4823
      4821      4820      4822      4821      4820      4823      4822      4820      4823
      4820      4823      4824      4820      4823      4825      4820      4823      4826
      4824      4823      4825      4824      4823      4826      4825      4823      4826
      4823      4826      4827      4823      4826      4828      4823      4826      4831
      4827      4826      4828      4827      4826      4831      4828      4826      4831
      4826      4828      4829      4826      4828      4830      4826      4828      4831
      4829      4828      4830      4829      4828      4831      4830      4828      4831
      4826      4831      4828      4826      4831      4832      4826      4831      4833
      4828      4831      4832      4828      4831      4833      4832      4831      4833
      4831      4833      4834      4831      4833      4835      4831      4833      4836
      4834      4833      4835      4834      4833      4836      4835      4833      4836
      4833      4836      4837      4833      4836      4838      4833      4836      4839
      4837      4836      4838      4837      4836      4839      4838      4836      4839
      4836      4839      4840      4836      4839      4841      4836      4839      4842
      4840      4839      4841      4840      4839      4842      4841      4839      4842
      4839      4842      4843      4839      4842      4844      4839      4842      4845
      4843      4842      4844      4843      4842      4845      4844      4842      4845
      4842      4845      4846      4842      4845      4847      4842      4845      4848
      4846      4845      4847      4846      4845      4848      4847      4845      4848
      4845      4848      4849      4845      4848      4850      4845      4848      4851
      4849      4848      4850      4849      4848      4851      4850      4848      4851
      4805      4852      4853      4805      4852      4854      4805      4852      4855
      4853      4852      4854      4853      4852      4855      4854      4852      4855
      4852      4855      4856      4852      4855      4857      4852      4855      4858
      4856      4855      4857      4856      4855      4858      4857      4855      4858
      4855      4858      4859      4855      4858      4860      4855      4858      4861
      4859      4858      4860      4859      4858      4861      4860      4858      4861
      4858      4861      4862      4858      4861      4863      4858      4861      4864
      4862      4861      4863      4862      4861      4864      4863      4861      4864
      4861      4864      4865      4861      4864      4866      4861      4864      4867
      4865      4864      4866      4865      4864      4867      4866      4864      4867
      4864      4867      4868      4864      4867      4869      4864      4867      4870
      4868      4867      4869      4868      4867      4870      4869      4867      4870
      4867      4870      4871      4867      4870      4872      4867      4870      4873
      4871      4870      4872      4871      4870      4873      4872      4870      4873
      4870      4873      4874      4870      4873      4875      4870      4873      4876
      4874      4873      4875      4874      4873      4876      4875      4873      4876
      4873      4876      4877      4873      4876      4878      4873      4876      4879
      4877      4876      4878      4877      4876      4879      4878      4876      4879
      4876      4879      4880      4876      4879      4881      4876      4879      4882
      4880      4879      4881      4880      4879      4882      4881      4879      4882
      4879      4882      4883      4879      4882      4884      4879      4882      4885
      4883      4882      4884      4883      4882      4885      4884      4882      4885
      4882      4885      4886      4882      4885      4887      4882      4885      4888
      4886      4885      4887      4886      4885      4888      4887      4885      4888
      4885      4888      4889      4885      4888      4890      4885      4888      4891
      4889      4888      4890      4889      4888      4891      4890      4888      4891
      4888      4891      4892      4888      4891      4893      4888      4891      4894
      4892      4891      4893      4892      4891      4894      4893      4891      4894
      4896      4895      4897      4896      4895      4898      4896      4895      4899
      4897      4895      4898      4897      4895      4899      4898      4895      4899
      4895      4899      4900      4895      4899      4901      4895      4899      4902
      4900      4899      4901      4900      4899      4902      4901      4899      4902
      4899      4902      4903      4899      4902      4904      4899      4902      4909
      4903      4902      4904      4903      4902      4909      4904      4902      4909
      4906      4905      4907      4906      4905      4908      4906      4905      4909
      4907      4905      4908      4907      4905      4909      4908      4905      4909
      4905      4908      4910      4902      4909      4905      4908      4910      4911
      4908      4910      4912      4908      4910      4913      4911      4910      4912
      4911      4910      4913      4912      4910      4913      4910      4913      4914
      4910      4913      4915      4910      4913      4921      4914      4913      4915
      4914      4913      4921      4915      4913      4921      4913      4915      4916
      4915      4916      4917      4915      4916      4918      4917      4916      4918
      4916      4918      4919      4916      4918      4920      4916      4918      4930
      4919      4918      4920      4919      4918      4930      4920      4918      4930
      4913      4921      4922      4913      4921      4923      4913      4921      4924
      4922      4921      4923      4922      4921      4924      4923      4921      4924
      4921      4924      4925      4924      4925      4926      4924      4925      4927
      4926      4925      4927      4925      4927      4928      4925      4927      4929
      4925      4927      4974      4928      4927      4929      4928      4927      4974
      4929      4927      4974      4918      4930      4931      4918      4930      4932
      4918      4930      4933      4931      4930      4932      4931      4930      4933
      4932      4930      4933      4930      4933      4934      4930      4933      4935
      4930      4933      4936      4934      4933      4935      4934      4933      4936
      4935      4933      4936      4933      4936      4937      4933      4936      4938
      4933      4936      4939      4937      4936      4938      4937      4936      4939
      4938      4936      4939      4936      4939      4940      4936      4939      4941
      4936      4939      4942      4940      4939      4941      4940      4939      4942
      4941      4939      4942      4939      4942      4943      4939      4942      4944
      4939      4942      4945      4943      4942      4944      4943      4942      4945
      4944      4942      4945      4942      4945      4946      4942      4945      4947
      4942      4945      4948      4946      4945      4947      4946      4945      4948
      4947      4945      4948      4945      4948      4949      4945      4948      4950
      4945      4948      4953      4949      4948      4950      4949      4948      4953
      4950      4948      4953      4948      4950      4951      4948      4950      4952
      4948      4950      4953      4951      4950      4952      4951      4950      4953
      4952      4950      4953      4948      4953      4950      4948      4953      4954
      4948      4953      4955      4950      4953      4954      4950      4953      4955
      4954      4953      4955      4953      4955      4956      4953      4955      4957
      4953      4955      4958      4956      4955      4957      4956      4955      4958
      4957      4955      4958      4955      4958      4959      4955      4958      4960
      4955      4958      4961      4959      4958      4960      4959      4958      4961
      4960      4958      4961      4958      4961      4962      4958      4961      4963
      4958      4961      4964      4962      4961      4963      4962      4961      4964
      4963      4961      4964      4961      4964      4965      4961      4964      4966
      4961      4964      4967      4965      4964      4966      4965      4964      4967
      4966      4964      4967      4964      4967      4968      4964      4967      4969
      4964      4967      4970      4968      4967      4969      4968      4967      4970
      4969      4967      4970      4967      4970      4971      4967      4970      4972
      4967      4970      4973      4971      4970      4972      4971      4970      4973
      4972      4970      4973      4927      4974      4975      4927      4974      4976
      4927      4974      4977      4975      4974      4976      4975      4974      4977
      4976      4974      4977      4974      4977      4978      4974      4977      4979
      4974      4977      4980      4978      4977      4979      4978      4977      4980
      4979      4977      4980      4977      4980      4981      4977      4980      4982
      4977      4980      4983      4981      4980      4982      4981      4980      4983
      4982      4980      4983      4980      4983      4984      4980      4983      4985
      4980      4983      4986      4984      4983      4985      4984      4983      4986
      4985      4983      4986      4983      4986      4987      4983      4986      4988
      4983      4986      4989      4987      4986      4988      4987      4986      4989
      4988      4986      4989      4986      4989      4990      4986      4989      4991
      4986      4989      4992      4990      4989      4991      4990      4989      4992
      4991      4989      4992      4989      4992      4993      4989      4992      4994
      4989      4992      4995      4993      4992      4994      4993      4992      4995
      4994      4992      4995      4992      4995      4996      4992      4995      4997
      4992      4995      4998      4996      4995      4997      4996      4995      4998
      4997      4995      4998      4995      4998      4999      4995      4998      5000
      4995      4998      5001      4999      4998      5000      4999      4998      5001
      5000      4998      5001      4998      5001      5002      4998      5001      5003
      4998      5001      5004      5002      5001      5003      5002      5001      5004
      5003      5001      5004      5001      5004      5005      5001      5004      5006
      5001      5004      5007      5005      5004      5006      5005      5004      5007
      5006      5004      5007      5004      5007      5008      5004      5007      5009
      5004      5007      5010      5008      5007      5009      5008      5007      5010
      5009      5007      5010      5007      5010      5011      5007      5010      5012
      5007      5010      5013      5011      5010      5012      5011      5010      5013
      5012      5010      5013      5015      5014      5016      5015      5014      5017
      5015      5014      5018      5016      5014      5017      5016      5014      5018
      5017      5014      5018      5014      5018      5019      5014      5018      5020
      5014      5018      5021      5019      5018      5020      5019      5018      5021
      5020      5018      5021      5018      5021      5022      5018      5021      5023
      5018      5021      5028      5022      5021      5023      5022      5021      5028
      5023      5021      5028      5025      5024      5026      5025      5024      5027
      5025      5024      5028      5026      5024      5027      5026      5024      5028
      5027      5024      5028      5024      5027      5029      5021      5028      5024
      5027      5029      5030      5027      5029      5031      5027      5029      5032
      5030      5029      5031      5030      5029      5032      5031      5029      5032
      5029      5032      5033      5029      5032      5034      5029      5032      5040
      5033      5032      5034      5033      5032      5040      5034      5032      5040
      5032      5034      5035      5034      5035      5036      5034      5035      5037
      5036      5035      5037      5035      5037      5038      5035      5037      5039
      5035      5037      5049      5038      5037      5039      5038      5037      5049
      5039      5037      5049      5032      5040      5041      5032      5040      5042
      5032      5040      5043      5041      5040      5042      5041      5040      5043
      5042      5040      5043      5040      5043      5044      5043      5044      5045
      5043      5044      5046      5045      5044      5046      5044      5046      5047
      5044      5046      5048      5044      5046      5093      5047      5046      5048
      5047      5046      5093      5048      5046      5093      5037      5049      5050
      5037      5049      5051      5037      5049      5052      5050      5049      5051
      5050      5049      5052      5051      5049      5052      5049      5052      5053
      5049      5052      5054      5049      5052      5055      5053      5052      5054
      5053      5052      5055      5054      5052      5055      5052      5055      5056
      5052      5055      5057      5052      5055      5058      5056      5055      5057
      5056      5055      5058      5057      5055      5058      5055      5058      5059
      5055      5058      5060      5055      5058      5061      5059      5058      5060
      5059      5058      5061      5060      5058      5061      5058      5061      5062
      5058      5061      5063      5058      5061      5064      5062      5061      5063
      5062      5061      5064      5063      5061      5064      5061      5064      5065
      5061      5064      5066      5061      5064      5067      5065      5064      5066
      5065      5064      5067      5066      5064      5067      5064      5067      5068
      5064      5067      5069      5064      5067      5072      5068      5067      5069
      5068      5067      5072      5069      5067      5072      5067      5069      5070
      5067      5069      5071      5067      5069      5072      5070      5069      5071
      5070      5069      5072      5071      5069      5072      5067      5072      5069
      5067      5072      5073      5067      5072      5074      5069      5072      5073
      5069      5072      5074      5073      5072      5074      5072      5074      5075
      5072      5074      5076      5072      5074      5077      5075      5074      5076
      5075      5074      5077      5076      5074      5077      5074      5077      5078
      5074      5077      5079      5074      5077      5080      5078      5077      5079
      5078      5077      5080      5079      5077      5080      5077      5080      5081
      5077      5080      5082      5077      5080      5083      5081      5080      5082
      5081      5080      5083      5082      5080      5083      5080      5083      5084
      5080      5083      5085      5080      5083      5086      5084      5083      5085
      5084      5083      5086      5085      5083      5086      5083      5086      5087
      5083      5086      5088      5083      5086      5089      5087      5086      5088
      5087      5086      5089      5088      5086      5089      5086      5089      5090
      5086      5089      5091      5086      5089      5092      5090      5089      5091
      5090      5089      5092      5091      5089      5092      5046      5093      5094
      5046      5093      5095      5046      5093      5096      5094      5093      5095
      5094      5093      5096      5095      5093      5096      5093      5096      5097
      5093      5096      5098      5093      5096      5099      5097      5096      5098
      5097      5096      5099      5098      5096      5099      5096      5099      5100
      5096      5099      5101      5096      5099      5102      5100      5099      5101
      5100      5099      5102      5101      5099      5102      5099      5102      5103
      5099      5102      5104      5099      5102      5105      5103      5102      5104
      5103      5102      5105      5104      5102      5105      5102      5105      5106
      5102      5105      5107      5102      5105      5108      5106      5105      5107
      5106      5105      5108      5107      5105      5108      5105      5108      5109
      5105      5108      5110      5105      5108      5111      5109      5108      5110
      5109      5108      5111      5110      5108      5111      5108      5111      5112
      5108      5111      5113      5108      5111      5114      5112      5111      5113
      5112      5111      5114      5113      5111      5114      5111      5114      5115
      5111      5114      5116      5111      5114      5117      5115      5114      5116
      5115      5114      5117      5116      5114      5117      5114      5117      5118
      5114      5117      5119      5114      5117      5120      5118      5117      5119
      5118      5117      5120      5119      5117      5120      5117      5120      5121
      5117      5120      5122      5117      5120      5123      5121      5120      5122
      5121      5120      5123      5122      5120      5123      5120      5123      5124
      5120      5123      5125      5120      5123      5126      5124      5123      5125
      5124      5123      5126      5125      5123      5126      5123      5126      5127
      5123      5126      5128      5123      5126      5129      5127      5126      5128
      5127      5126      5129      5128      5126      5129      5126      5129      5130
      5126      5129      5131      5126      5129      5132      5130      5129      5131
      5130      5129      5132      5131      5129      5132      5129      5132      5133
      5129      5132      5134      5129      5132      5135      5133      5132      5134
      5133      5132      5135      5134      5132      5135      5137      5136      5138
      5137      5136      5139      5137      5136      5140      5138      5136      5139
      5138      5136      5140      5139      5136      5140      5136      5140      5141
      5136      5140      5142      5136      5140      5143      5141      5140      5142
      5141      5140      5143      5142      5140      5143      5140      5143      5144
      5140      5143      5145      5140      5143      5150      5144      5143      5145
      5144      5143      5150      5145      5143      5150      5147      5146      5148
      5147      5146      5149      5147      5146      5150      5148      5146      5149
      5148      5146      5150      5149      5146      5150      5146      5149      5151
      5143      5150      5146      5149      5151      5152      5149      5151      5153
      5149      5151      5154      5152      5151      5153      5152      5151      5154
      5153      5151      5154      5151      5154      5155      5151      5154      5156
      5151      5154      5162      5155      5154      5156      5155      5154      5162
      5156      5154      5162      5154      5156      5157      5156      5157      5158
      5156      5157      5159      5158      5157      5159      5157      5159      5160
      5157      5159      5161      5157      5159      5171      5160      5159      5161
      5160      5159      5171      5161      5159      5171      5154      5162      5163
      5154      5162      5164      5154      5162      5165      5163      5162      5164
      5163      5162      5165      5164      5162      5165      5162      5165      5166
      5165      5166      5167      5165      5166      5168      5167      5166      5168
      5166      5168      5169      5166      5168      5170      5166      5168      5215
      5169      5168      5170      5169      5168      5215      5170      5168      5215
      5159      5171      5172      5159      5171      5173      5159      5171      5174
      5172      5171      5173      5172      5171      5174      5173      5171      5174
      5171      5174      5175      5171      5174      5176      5171      5174      5177
      5175      5174      5176      5175      5174      5177      5176      5174      5177
      5174      5177      5178      5174      5177      5179      5174      5177      5180
      5178      5177      5179      5178      5177      5180      5179      5177      5180
      5177      5180      5181      5177      5180      5182      5177      5180      5183
      5181      5180      5182      5181      5180      5183      5182      5180      5183
      5180      5183      5184      5180      5183      5185      5180      5183      5186
      5184      5183      5185      5184      5183      5186      5185      5183      5186
      5183      5186      5187      5183      5186      5188      5183      5186      5189
      5187      5186      5188      5187      5186      5189      5188      5186      5189
      5186      5189      5190      5186      5189      5191      5186      5189      5194
      5190      5189      5191      5190      5189      5194      5191      5189      5194
      5189      5191      5192      5189      5191      5193      5189      5191      5194
      5192      5191      5193      5192      5191      5194      5193      5191      5194
      5189      5194      5191      5189      5194      5195      5189      5194      5196
      5191      5194      5195      5191      5194      5196      5195      5194      5196
      5194      5196      5197      5194      5196      5198      5194      5196      5199
      5197      5196      5198      5197      5196      5199      5198      5196      5199
      5196      5199      5200      5196      5199      5201      5196      5199      5202
      5200      5199      5201      5200      5199      5202      5201      5199      5202
      5199      5202      5203      5199      5202      5204      5199      5202      5205
      5203      5202      5204      5203      5202      5205      5204      5202      5205
      5202      5205      5206      5202      5205      5207      5202      5205      5208
      5206      5205      5207      5206      5205      5208      5207      5205      5208
      5205      5208      5209      5205      5208      5210      5205      5208      5211
      5209      5208      5210      5209      5208      5211      5210      5208      5211
      5208      5211      5212      5208      5211      5213      5208      5211      5214
      5212      5211      5213      5212      5211      5214      5213      5211      5214
      5168      5215      5216      5168      5215      5217      5168      5215      5218
      5216      5215      5217      5216      5215      5218      5217      5215      5218
      5215      5218      5219      5215      5218      5220      5215      5218      5221
      5219      5218      5220      5219      5218      5221      5220      5218      5221
      5218      5221      5222      5218      5221      5223      5218      5221      5224
      5222      5221      5223      5222      5221      5224      5223      5221      5224
      5221      5224      5225      5221      5224      5226      5221      5224      5227
      5225      5224      5226      5225      5224      5227      5226      5224      5227
      5224      5227      5228      5224      5227      5229      5224      5227      5230
      5228      5227      5229      5228      5227      5230      5229      5227      5230
      5227      5230      5231      5227      5230      5232      5227      5230      5233
      5231      5230      5232      5231      5230      5233      5232      5230      5233
      5230      5233      5234      5230      5233      5235      5230      5233      5236
      5234      5233      5235      5234      5233      5236      5235      5233      5236
      5233      5236      5237      5233      5236      5238      5233      5236      5239
      5237      5236      5238      5237      5236      5239      5238      5236      5239
      5236      5239      5240      5236      5239      5241      5236      5239      5242
      5240      5239      5241      5240      5239      5242      5241      5239      5242
      5239      5242      5243      5239      5242      5244      5239      5242      5245
      5243      5242      5244      5243      5242      5245      5244      5242      5245
      5242      5245      5246      5242      5245      5247      5242      5245      5248
      5246      5245      5247      5246      5245      5248      5247      5245      5248
      5245      5248      5249      5245      5248      5250      5245      5248      5251
      5249      5248      5250      5249      5248      5251      5250      5248      5251
      5248      5251      5252      5248      5251      5253      5248      5251      5254
      5252      5251      5253      5252      5251      5254      5253      5251      5254
      5256      5255      5257      5256      5255      5258      5256      5255      5259
      5257      5255      5258      5257      5255      5259      5258      5255      5259
      5255      5259      5260      5255      5259      5261      5255      5259      5262
      5260      5259      5261      5260      5259      5262      5261      5259      5262
      5259      5262      5263      5259      5262      5264      5259      5262      5269
      5263      5262      5264      5263      5262      5269      5264      5262      5269
      5266      5265      5267      5266      5265      5268      5266      5265      5269
      5267      5265      5268      5267      5265      5269      5268      5265      5269
      5265      5268      5270      5262      5269      5265      5268      5270      5271
      5268      5270      5272      5268      5270      5273      5271      5270      5272
      5271      5270      5273      5272      5270      5273      5270      5273      5274
      5270      5273      5275      5270      5273      5281      5274      5273      5275
      5274      5273      5281      5275      5273      5281      5273      5275      5276
      5275      5276      5277      5275      5276      5278      5277      5276      5278
      5276      5278      5279      5276      5278      5280      5276      5278      5290
      5279      5278      5280      5279      5278      5290      5280      5278      5290
      5273      5281      5282      5273      5281      5283      5273      5281      5284
      5282      5281      5283      5282      5281      5284      5283      5281      5284
      5281      5284      5285      5284      5285      5286      5284      5285      5287
      5286      5285      5287      5285      5287      5288      5285      5287      5289
      5285      5287      5334      5288      5287      5289      5288      5287      5334
      5289      5287      5334      5278      5290      5291      5278      5290      5292
      5278      5290      5293      5291      5290      5292      5291      5290      5293
      5292      5290      5293      5290      5293      5294      5290      5293      5295
      5290      5293      5296      5294      5293      5295      5294      5293      5296
      5295      5293      5296      5293      5296      5297      5293      5296      5298
      5293      5296      5299      5297      5296      5298      5297      5296      5299
      5298      5296      5299      5296      5299      5300      5296      5299      5301
      5296      5299      5302      5300      5299      5301      5300      5299      5302
      5301      5299      5302      5299      5302      5303      5299      5302      5304
      5299      5302      5305      5303      5302      5304      5303      5302      5305
      5304      5302      5305      5302      5305      5306      5302      5305      5307
      5302      5305      5308      5306      5305      5307      5306      5305      5308
      5307      5305      5308      5305      5308      5309      5305      5308      5310
      5305      5308      5313      5309      5308      5310      5309      5308      5313
      5310      5308      5313      5308      5310      5311      5308      5310      5312
      5308      5310      5313      5311      5310      5312      5311      5310      5313
      5312      5310      5313      5308      5313      5310      5308      5313      5314
      5308      5313      5315      5310      5313      5314      5310      5313      5315
      5314      5313      5315      5313      5315      5316      5313      5315      5317
      5313      5315      5318      5316      5315      5317      5316      5315      5318
      5317      5315      5318      5315      5318      5319      5315      5318      5320
      5315      5318      5321      5319      5318      5320      5319      5318      5321
      5320      5318      5321      5318      5321      5322      5318      5321      5323
      5318      5321      5324      5322      5321      5323      5322      5321      5324
      5323      5321      5324      5321      5324      5325      5321      5324      5326
      5321      5324      5327      5325      5324      5326      5325      5324      5327
      5326      5324      5327      5324      5327      5328      5324      5327      5329
      5324      5327      5330      5328      5327      5329      5328      5327      5330
      5329      5327      5330      5327      5330      5331      5327      5330      5332
      5327      5330      5333      5331      5330      5332      5331      5330      5333
      5332      5330      5333      5287      5334      5335      5287      5334      5336
      5287      5334      5337      5335      5334      5336      5335      5334      5337
      5336      5334      5337      5334      5337      5338      5334      5337      5339
      5334      5337      5340      5338      5337      5339      5338      5337      5340
      5339      5337      5340      5337      5340      5341      5337      5340      5342
      5337      5340      5343      5341      5340      5342      5341      5340      5343
      5342      5340      5343      5340      5343      5344      5340      5343      5345
      5340      5343      5346      5344      5343      5345      5344      5343      5346
      5345      5343      5346      5343      5346      5347      5343      5346      5348
      5343      5346      5349      5347      5346      5348      5347      5346      5349
      5348      5346      5349      5346      5349      5350      5346      5349      5351
      5346      5349      5352      5350      5349      5351      5350      5349      5352
      5351      5349      5352      5349      5352      5353      5349      5352      5354
      5349      5352      5355      5353      5352      5354      5353      5352      5355
      5354      5352      5355      5352      5355      5356      5352      5355      5357
      5352      5355      5358      5356      5355      5357      5356      5355      5358
      5357      5355      5358      5355      5358      5359      5355      5358      5360
      5355      5358      5361      5359      5358      5360      5359      5358      5361
      5360      5358      5361      5358      5361      5362      5358      5361      5363
      5358      5361      5364      5362      5361      5363      5362      5361      5364
      5363      5361      5364      5361      5364      5365      5361      5364      5366
      5361      5364      5367      5365      5364      5366      5365      5364      5367
      5366      5364      5367      5364      5367      5368      5364      5367      5369
      5364      5367      5370      5368      5367      5369      5368      5367      5370
      5369      5367      5370      5367      5370      5371      5367      5370      5372
      5367      5370      5373      5371      5370      5372      5371      5370      5373
      5372      5370      5373      5370      5373      5374      5370      5373      5375
      5370      5373      5376      5374      5373      5375      5374      5373      5376
      5375      5373      5376      5378      5377      5379      5378      5377      5380
      5378      5377      5381      5379      5377      5380      5379      5377      5381
      5380      5377      5381      5377      5381      5382      5377      5381      5383
      5377      5381      5384      5382      5381      5383      5382      5381      5384
      5383      5381      5384      5381      5384      5385      5381      5384      5386
      5381      5384      5391      5385      5384      5386      5385      5384      5391
      5386      5384      5391      5388      5387      5389      5388      5387      5390
      5388      5387      5391      5389      5387      5390      5389      5387      5391
      5390      5387      5391      5387      5390      5392      5384      5391      5387
      5390      5392      5393      5390      5392      5394      5390      5392      5395
      5393      5392      5394      5393      5392      5395      5394      5392      5395
      5392      5395      5396      5392      5395      5397      5392      5395      5403
      5396      5395      5397      5396      5395      5403      5397      5395      5403
      5395      5397      5398      5397      5398      5399      5397      5398      5400
      5399      5398      5400      5398      5400      5401      5398      5400      5402
      5398      5400      5412      5401      5400      5402      5401      5400      5412
      5402      5400      5412      5395      5403      5404      5395      5403      5405
      5395      5403      5406      5404      5403      5405      5404      5403      5406
      5405      5403      5406      5403      5406      5407      5406      5407      5408
      5406      5407      5409      5408      5407      5409      5407      5409      5410
      5407      5409      5411      5407      5409      5456      5410      5409      5411
      5410      5409      5456      5411      5409      5456      5400      5412      5413
      5400      5412      5414      5400      5412      5415      5413      5412      5414
      5413      5412      5415      5414      5412      5415      5412      5415      5416
      5412      5415      5417      5412      5415      5418      5416      5415      5417
      5416      5415      5418      5417      5415      5418      5415      5418      5419
      5415      5418      5420      5415      5418      5421      5419      5418      5420
      5419      5418      5421      5420      5418      5421      5418      5421      5422
      5418      5421      5423      5418      5421      5424      5422      5421      5423
      5422      5421      5424      5423      5421      5424      5421      5424      5425
      5421      5424      5426      5421      5424      5427      5425      5424      5426
      5425      5424      5427      5426      5424      5427      5424      5427      5428
      5424      5427      5429      5424      5427      5430      5428      5427      5429
      5428      5427      5430      5429      5427      5430      5427      5430      5431
      5427      5430      5432      5427      5430      5435      5431      5430      5432
      5431      5430      5435      5432      5430      5435      5430      5432      5433
      5430      5432      5434      5430      5432      5435      5433      5432      5434
      5433      5432      5435      5434      5432      5435      5430      5435      5432
      5430      5435      5436      5430      5435      5437      5432      5435      5436
      5432      5435      5437      5436      5435      5437      5435      5437      5438
      5435      5437      5439      5435      5437      5440      5438      5437      5439
      5438      5437      5440      5439      5437      5440      5437      5440      5441
      5437      5440      5442      5437      5440      5443      5441      5440      5442
      5441      5440      5443      5442      5440      5443      5440      5443      5444
      5440      5443      5445      5440      5443      5446      5444      5443      5445
      5444      5443      5446      5445      5443      5446      5443      5446      5447
      5443      5446      5448      5443      5446      5449      5447      5446      5448
      5447      5446      5449      5448      5446      5449      5446      5449      5450
      5446      5449      5451      5446      5449      5452      5450      5449      5451
      5450      5449      5452      5451      5449      5452      5449      5452      5453
      5449      5452      5454      5449      5452      5455      5453      5452      5454
      5453      5452      5455      5454      5452      5455      5409      5456      5457
      5409      5456      5458      5409      5456      5459      5457      5456      5458
      5457      5456      5459      5458      5456      5459      5456      5459      5460
      5456      5459      5461      5456      5459      5462      5460      5459      5461
      5460      5459      5462      5461      5459      5462      5459      5462      5463
      5459      5462      5464      5459      5462      5465      5463      5462      5464
      5463      5462      5465      5464      5462      5465      5462      5465      5466
      5462      5465      5467      5462      5465      5468      5466      5465      5467
      5466      5465      5468      5467      5465      5468      5465      5468      5469
      5465      5468      5470      5465      5468      5471      5469      5468      5470
      5469      5468      5471      5470      5468      5471      5468      5471      5472
      5468      5471      5473      5468      5471      5474      5472      5471      5473
      5472      5471      5474      5473      5471      5474      5471      5474      5475
      5471      5474      5476      5471      5474      5477      5475      5474      5476
      5475      5474      5477      5476      5474      5477      5474      5477      5478
      5474      5477      5479      5474      5477      5480      5478      5477      5479
      5478      5477      5480      5479      5477      5480      5477      5480      5481
      5477      5480      5482      5477      5480      5483      5481      5480      5482
      5481      5480      5483      5482      5480      5483      5480      5483      5484
      5480      5483      5485      5480      5483      5486      5484      5483      5485
      5484      5483      5486      5485      5483      5486      5483      5486      5487
      5483      5486      5488      5483      5486      5489      5487      5486      5488
      5487      5486      5489      5488      5486      5489      5486      5489      5490
      5486      5489      5491      5486      5489      5492      5490      5489      5491
      5490      5489      5492      5491      5489      5492      5489      5492      5493
      5489      5492      5494      5489      5492      5495      5493      5492      5494
      5493      5492      5495      5494      5492      5495      5492      5495      5496
      5492      5495      5497      5492      5495      5498      5496      5495      5497
      5496      5495      5498      5497      5495      5498      5500      5499      5501
      5500      5499      5502      5500      5499      5503      5501      5499      5502
      5501      5499      5503      5502      5499      5503      5499      5503      5504
      5499      5503      5505      5499      5503      5506      5504      5503      5505
      5504      5503      5506      5505      5503      5506      5503      5506      5507
      5503      5506      5508      5503      5506      5513      5507      5506      5508
      5507      5506      5513      5508      5506      5513      5510      5509      5511
      5510      5509      5512      5510      5509      5513      5511      5509      5512
      5511      5509      5513      5512      5509      5513      5509      5512      5514
      5506      5513      5509      5512      5514      5515      5512      5514      5516
      5512      5514      5517      5515      5514      5516      5515      5514      5517
      5516      5514      5517      5514      5517      5518      5514      5517      5519
      5514      5517      5525      5518      5517      5519      5518      5517      5525
      5519      5517      5525      5517      5519      5520      5519      5520      5521
      5519      5520      5522      5521      5520      5522      5520      5522      5523
      5520      5522      5524      5520      5522      5534      5523      5522      5524
      5523      5522      5534      5524      5522      5534      5517      5525      5526
      5517      5525      5527      5517      5525      5528      5526      5525      5527
      5526      5525      5528      5527      5525      5528      5525      5528      5529
      5528      5529      5530      5528      5529      5531      5530      5529      5531
      5529      5531      5532      5529      5531      5533      5529      5531      5578
      5532      5531      5533      5532      5531      5578      5533      5531      5578
      5522      5534      5535      5522      5534      5536      5522      5534      5537
      5535      5534      5536      5535      5534      5537      5536      5534      5537
      5534      5537      5538      5534      5537      5539      5534      5537      5540
      5538      5537      5539      5538      5537      5540      5539      5537      5540
      5537      5540      5541      5537      5540      5542      5537      5540      5543
      5541      5540      5542      5541      5540      5543      5542      5540      5543
      5540      5543      5544      5540      5543      5545      5540      5543      5546
      5544      5543      5545      5544      5543      5546      5545      5543      5546
      5543      5546      5547      5543      5546      5548      5543      5546      5549
      5547      5546      5548      5547      5546      5549      5548      5546      5549
      5546      5549      5550      5546      5549      5551      5546      5549      5552
      5550      5549      5551      5550      5549      5552      5551      5549      5552
      5549      5552      5553      5549      5552      5554      5549      5552      5557
      5553      5552      5554      5553      5552      5557      5554      5552      5557
      5552      5554      5555      5552      5554      5556      5552      5554      5557
      5555      5554      5556      5555      5554      5557      5556      5554      5557
      5552      5557      5554      5552      5557      5558      5552      5557      5559
      5554      5557      5558      5554      5557      5559      5558      5557      5559
      5557      5559      5560      5557      5559      5561      5557      5559      5562
      5560      5559      5561      5560      5559      5562      5561      5559      5562
      5559      5562      5563      5559      5562      5564      5559      5562      5565
      5563      5562      5564      5563      5562      5565      5564      5562      5565
      5562      5565      5566      5562      5565      5567      5562      5565      5568
      5566      5565      5567      5566      5565      5568      5567      5565      5568
      5565      5568      5569      5565      5568      5570      5565      5568      5571
      5569      5568      5570      5569      5568      5571      5570      5568      5571
      5568      5571      5572      5568      5571      5573      5568      5571      5574
      5572      5571      5573      5572      5571      5574      5573      5571      5574
      5571      5574      5575      5571      5574      5576      5571      5574      5577
      5575      5574      5576      5575      5574      5577      5576      5574      5577
      5531      5578      5579      5531      5578      5580      5531      5578      5581
      5579      5578      5580      5579      5578      5581      5580      5578      5581
      5578      5581      5582      5578      5581      5583      5578      5581      5584
      5582      5581      5583      5582      5581      5584      5583      5581      5584
      5581      5584      5585      5581      5584      5586      5581      5584      5587
      5585      5584      5586      5585      5584      5587      5586      5584      5587
      5584      5587      5588      5584      5587      5589      5584      5587      5590
      5588      5587      5589      5588      5587      5590      5589      5587      5590
      5587      5590      5591      5587      5590      5592      5587      5590      5593
      5591      5590      5592      5591      5590      5593      5592      5590      5593
      5590      5593      5594      5590      5593      5595      5590      5593      5596
      5594      5593      5595      5594      5593      5596      5595      5593      5596
      5593      5596      5597      5593      5596      5598      5593      5596      5599
      5597      5596      5598      5597      5596      5599      5598      5596      5599
      5596      5599      5600      5596      5599      5601      5596      5599      5602
      5600      5599      5601      5600      5599      5602      5601      5599      5602
      5599      5602      5603      5599      5602      5604      5599      5602      5605
      5603      5602      5604      5603      5602      5605      5604      5602      5605
      5602      5605      5606      5602      5605      5607      5602      5605      5608
      5606      5605      5607      5606      5605      5608      5607      5605      5608
      5605      5608      5609      5605      5608      5610      5605      5608      5611
      5609      5608      5610      5609      5608      5611      5610      5608      5611
      5608      5611      5612      5608      5611      5613      5608      5611      5614
      5612      5611      5613      5612      5611      5614      5613      5611      5614
      5611      5614      5615      5611      5614      5616      5611      5614      5617
      5615      5614      5616      5615      5614      5617      5616      5614      5617
      5614      5617      5618      5614      5617      5619      5614      5617      5620
      5618      5617      5619      5618      5617      5620      5619      5617      5620
      5622      5621      5623      5622      5621      5624      5622      5621      5626
      5623      5621      5624      5623      5621      5626      5624      5621      5626
      5621      5624      5625      5621      5626      5627      5621      5626      5628
      5621      5626      5630      5627      5626      5628      5627      5626      5630
      5628      5626      5630      5626      5628      5629      5626      5630      5631
      5626      5630      5632      5626      5630      5637      5631      5630      5632
      5631      5630      5637      5632      5630      5637      5634      5633      5635
      5634      5633      5636      5634      5633      5637      5635      5633      5636
      5635      5633      5637      5636      5633      5637      5633      5636      5638
      5630      5637      5633      5636      5638      5639      5636      5638      5640
      5636      5638      5641      5639      5638      5640      5639      5638      5641
      5640      5638      5641      5638      5641      5642      5638      5641      5643
      5638      5641      5649      5642      5641      5643      5642      5641      5649
      5643      5641      5649      5641      5643      5644      5643      5644      5645
      5643      5644      5646      5645      5644      5646      5644      5646      5647
      5644      5646      5648      5644      5646      5658      5647      5646      5648
      5647      5646      5658      5648      5646      5658      5641      5649      5650
      5641      5649      5651      5641      5649      5652      5650      5649      5651
      5650      5649      5652      5651      5649      5652      5649      5652      5653
      5652      5653      5654      5652      5653      5655      5654      5653      5655
      5653      5655      5656      5653      5655      5657      5653      5655      5702
      5656      5655      5657      5656      5655      5702      5657      5655      5702
      5646      5658      5659      5646      5658      5660      5646      5658      5661
      5659      5658      5660      5659      5658      5661      5660      5658      5661
      5658      5661      5662      5658      5661      5663      5658      5661      5664
      5662      5661      5663      5662      5661      5664      5663      5661      5664
      5661      5664      5665      5661      5664      5666      5661      5664      5667
      5665      5664      5666      5665      5664      5667      5666      5664      5667
      5664      5667      5668      5664      5667      5669      5664      5667      5670
      5668      5667      5669      5668      5667      5670      5669      5667      5670
      5667      5670      5671      5667      5670      5672      5667      5670      5673
      5671      5670      5672      5671      5670      5673      5672      5670      5673
      5670      5673      5674      5670      5673      5675      5670      5673      5676
      5674      5673      5675      5674      5673      5676      5675      5673      5676
      5673      5676      5677      5673      5676      5678      5673      5676      5681
      5677      5676      5678      5677      5676      5681      5678      5676      5681
      5676      5678      5679      5676      5678      5680      5676      5678      5681
      5679      5678      5680      5679      5678      5681      5680      5678      5681
      5676      5681      5678      5676      5681      5682      5676      5681      5683
      5678      5681      5682      5678      5681      5683      5682      5681      5683
      5681      5683      5684      5681      5683      5685      5681      5683      5686
      5684      5683      5685      5684      5683      5686      5685      5683      5686
      5683      5686      5687      5683      5686      5688      5683      5686      5689
      5687      5686      5688      5687      5686      5689      5688      5686      5689
      5686      5689      5690      5686      5689      5691      5686      5689      5692
      5690      5689      5691      5690      5689      5692      5691      5689      5692
      5689      5692      5693      5689      5692      5694      5689      5692      5695
      5693      5692      5694      5693      5692      5695      5694      5692      5695
      5692      5695      5696      5692      5695      5697      5692      5695      5698
      5696      5695      5697      5696      5695      5698      5697      5695      5698
      5695      5698      5699      5695      5698      5700      5695      5698      5701
      5699      5698      5700      5699      5698      5701      5700      5698      5701
      5655      5702      5703      5655      5702      5704      5655      5702      5705
      5703      5702      5704      5703      5702      5705      5704      5702      5705
      5702      5705      5706      5702      5705      5707      5702      5705      5708
      5706      5705      5707      5706      5705      5708      5707      5705      5708
      5705      5708      5709      5705      5708      5710      5705      5708      5711
      5709      5708      5710      5709      5708      5711      5710      5708      5711
      5708      5711      5712      5708      5711      5713      5708      5711      5714
      5712      5711      5713      5712      5711      5714      5713      5711      5714
      5711      5714      5715      5711      5714      5716      5711      5714      5717
      5715      5714      5716      5715      5714      5717      5716      5714      5717
      5714      5717      5718      5714      5717      5719      5714      5717      5720
      5718      5717      5719      5718      5717      5720      5719      5717      5720
      5717      5720      5721      5717      5720      5722      5717      5720      5723
      5721      5720      5722      5721      5720      5723      5722      5720      5723
      5720      5723      5724      5720      5723      5725      5720      5723      5726
      5724      5723      5725      5724      5723      5726      5725      5723      5726
      5723      5726      5727      5723      5726      5728      5723      5726      5729
      5727      5726      5728      5727      5726      5729      5728      5726      5729
      5726      5729      5730      5726      5729      5731      5726      5729      5732
      5730      5729      5731      5730      5729      5732      5731      5729      5732
      5729      5732      5733      5729      5732      5734      5729      5732      5735
      5733      5732      5734      5733      5732      5735      5734      5732      5735
      5732      5735      5736      5732      5735      5737      5732      5735      5738
      5736      5735      5737      5736      5735      5738      5737      5735      5738
      5735      5738      5739      5735      5738      5740      5735      5738      5741
      5739      5738      5740      5739      5738      5741      5740      5738      5741
      5738      5741      5742      5738      5741      5743      5738      5741      5744
      5742      5741      5743      5742      5741      5744      5743      5741      5744
      5746      5745      5747      5746      5745      5748      5746      5745      5750
      5747      5745      5748      5747      5745      5750      5748      5745      5750
      5745      5748      5749      5745      5750      5751      5745      5750      5752
      5745      5750      5754      5751      5750      5752      5751      5750      5754
      5752      5750      5754      5750      5752      5753      5750      5754      5755
      5750      5754      5756      5750      5754      5761      5755      5754      5756
      5755      5754      5761      5756      5754      5761      5758      5757      5759
      5758      5757      5760      5758      5757      5761      5759      5757      5760
      5759      5757      5761      5760      5757      5761      5757      5760      5762
      5754      5761      5757      5760      5762      5763      5760      5762      5764
      5760      5762      5765      5763      5762      5764      5763      5762      5765
      5764      5762      5765      5762      5765      5766      5762      5765      5767
      5762      5765      5773      5766      5765      5767      5766      5765      5773
      5767      5765      5773      5765      5767      5768      5767      5768      5769
      5767      5768      5770      5769      5768      5770      5768      5770      5771
      5768      5770      5772      5768      5770      5782      5771      5770      5772
      5771      5770      5782      5772      5770      5782      5765      5773      5774
      5765      5773      5775      5765      5773      5776      5774      5773      5775
      5774      5773      5776      5775      5773      5776      5773      5776      5777
      5776      5777      5778      5776      5777      5779      5778      5777      5779
      5777      5779      5780      5777      5779      5781      5777      5779      5823
      5780      5779      5781      5780      5779      5823      5781      5779      5823
      5770      5782      5783      5770      5782      5784      5770      5782      5785
      5783      5782      5784      5783      5782      5785      5784      5782      5785
      5782      5785      5786      5782      5785      5787      5782      5785      5788
      5786      5785      5787      5786      5785      5788      5787      5785      5788
      5785      5788      5789      5785      5788      5790      5785      5788      5791
      5789      5788      5790      5789      5788      5791      5790      5788      5791
      5788      5791      5792      5788      5791      5793      5788      5791      5794
      5792      5791      5793      5792      5791      5794      5793      5791      5794
      5791      5794      5795      5791      5794      5796      5791      5794      5797
      5795      5794      5796      5795      5794      5797      5796      5794      5797
      5794      5797      5798      5794      5797      5799      5794      5797      5800
      5798      5797      5799      5798      5797      5800      5799      5797      5800
      5797      5800      5801      5797      5800      5802      5801      5800      5802
      5800      5802      5803      5800      5802      5804      5803      5802      5804
      5802      5804      5805      5802      5804      5806      5802      5804      5807
      5805      5804      5806      5805      5804      5807      5806      5804      5807
      5804      5807      5808      5804      5807      5809      5804      5807      5810
      5808      5807      5809      5808      5807      5810      5809      5807      5810
      5807      5810      5811      5807      5810      5812      5807      5810      5813
      5811      5810      5812      5811      5810      5813      5812      5810      5813
      5810      5813      5814      5810      5813      5815      5810      5813      5816
      5814      5813      5815      5814      5813      5816      5815      5813      5816
      5813      5816      5817      5813      5816      5818      5813      5816      5819
      5817      5816      5818      5817      5816      5819      5818      5816      5819
      5816      5819      5820      5816      5819      5821      5816      5819      5822
      5820      5819      5821      5820      5819      5822      5821      5819      5822
      5779      5823      5824      5779      5823      5825      5779      5823      5826
      5824      5823      5825      5824      5823      5826      5825      5823      5826
      5823      5826      5827      5823      5826      5828      5823      5826      5829
      5827      5826      5828      5827      5826      5829      5828      5826      5829
      5826      5829      5830      5826      5829      5831      5826      5829      5832
      5830      5829      5831      5830      5829      5832      5831      5829      5832
      5829      5832      5833      5829      5832      5834      5829      5832      5835
      5833      5832      5834      5833      5832      5835      5834      5832      5835
      5832      5835      5836      5832      5835      5837      5832      5835      5838
      5836      5835      5837      5836      5835      5838      5837      5835      5838
      5835      5838      5839      5835      5838      5840      5835      5838      5841
      5839      5838      5840      5839      5838      5841      5840      5838      5841
      5838      5841      5842      5838      5841      5843      5838      5841      5844
      5842      5841      5843      5842      5841      5844      5843      5841      5844
      5841      5844      5845      5841      5844      5846      5841      5844      5847
      5845      5844      5846      5845      5844      5847      5846      5844      5847
      5844      5847      5848      5844      5847      5849      5844      5847      5850
      5848      5847      5849      5848      5847      5850      5849      5847      5850
      5847      5850      5851      5847      5850      5852      5847      5850      5853
      5851      5850      5852      5851      5850      5853      5852      5850      5853
      5850      5853      5854      5850      5853      5855      5850      5853      5856
      5854      5853      5855      5854      5853      5856      5855      5853      5856
      5853      5856      5857      5853      5856      5858      5853      5856      5859
      5857      5856      5858      5857      5856      5859      5858      5856      5859
      5856      5859      5860      5856      5859      5861      5856      5859      5862
      5860      5859      5861      5860      5859      5862      5861      5859      5862
      5859      5862      5863      5859      5862      5864      5859      5862      5865
      5863      5862      5864      5863      5862      5865      5864      5862      5865
      5867      5866      5868      5867      5866      5869      5867      5866      5871
      5868      5866      5869      5868      5866      5871      5869      5866      5871
      5866      5869      5870      5866      5871      5872      5866      5871      5873
      5866      5871      5875      5872      5871      5873      5872      5871      5875
      5873      5871      5875      5871      5873      5874      5871      5875      5876
      5871      5875      5877      5871      5875      5882      5876      5875      5877
      5876      5875      5882      5877      5875      5882      5879      5878      5880
      5879      5878      5881      5879      5878      5882      5880      5878      5881
      5880      5878      5882      5881      5878      5882      5878      5881      5883
      5875      5882      5878      5881      5883      5884      5881      5883      5885
      5881      5883      5886      5884      5883      5885      5884      5883      5886
      5885      5883      5886      5883      5886      5887      5883      5886      5888
      5883      5886      5894      5887      5886      5888      5887      5886      5894
      5888      5886      5894      5886      5888      5889      5888      5889      5890
      5888      5889      5891      5890      5889      5891      5889      5891      5892
      5889      5891      5893      5889      5891      5903      5892      5891      5893
      5892      5891      5903      5893      5891      5903      5886      5894      5895
      5886      5894      5896      5886      5894      5897      5895      5894      5896
      5895      5894      5897      5896      5894      5897      5894      5897      5898
      5897      5898      5899      5897      5898      5900      5899      5898      5900
      5898      5900      5901      5898      5900      5902      5898      5900      5947
      5901      5900      5902      5901      5900      5947      5902      5900      5947
      5891      5903      5904      5891      5903      5905      5891      5903      5906
      5904      5903      5905      5904      5903      5906      5905      5903      5906
      5903      5906      5907      5903      5906      5908      5903      5906      5909
      5907      5906      5908      5907      5906      5909      5908      5906      5909
      5906      5909      5910      5906      5909      5911      5906      5909      5912
      5910      5909      5911      5910      5909      5912      5911      5909      5912
      5909      5912      5913      5909      5912      5914      5909      5912      5915
      5913      5912      5914      5913      5912      5915      5914      5912      5915
      5912      5915      5916      5912      5915      5917      5912      5915      5918
      5916      5915      5917      5916      5915      5918      5917      5915      5918
      5915      5918      5919      5915      5918      5920      5915      5918      5921
      5919      5918      5920      5919      5918      5921      5920      5918      5921
      5918      5921      5922      5918      5921      5923      5918      5921      5926
      5922      5921      5923      5922      5921      5926      5923      5921      5926
      5921      5923      5924      5921      5923      5925      5921      5923      5926
      5924      5923      5925      5924      5923      5926      5925      5923      5926
      5921      5926      5923      5921      5926      5927      5921      5926      5928
      5923      5926      5927      5923      5926      5928      5927      5926      5928
      5926      5928      5929      5926      5928      5930      5926      5928      5931
      5929      5928      5930      5929      5928      5931      5930      5928      5931
      5928      5931      5932      5928      5931      5933      5928      5931      5934
      5932      5931      5933      5932      5931      5934      5933      5931      5934
      5931      5934      5935      5931      5934      5936      5931      5934      5937
      5935      5934      5936      5935      5934      5937      5936      5934      5937
      5934      5937      5938      5934      5937      5939      5934      5937      5940
      5938      5937      5939      5938      5937      5940      5939      5937      5940
      5937      5940      5941      5937      5940      5942      5937      5940      5943
      5941      5940      5942      5941      5940      5943      5942      5940      5943
      5940      5943      5944      5940      5943      5945      5940      5943      5946
      5944      5943      5945      5944      5943      5946      5945      5943      5946
      5900      5947      5948      5900      5947      5949      5900      5947      5950
      5948      5947      5949      5948      5947      5950      5949      5947      5950
      5947      5950      5951      5947      5950      5952      5947      5950      5953
      5951      5950      5952      5951      5950      5953      5952      5950      5953
      5950      5953      5954      5950      5953      5955      5950      5953      5956
      5954      5953      5955      5954      5953      5956      5955      5953      5956
      5953      5956      5957      5953      5956      5958      5953      5956      5959
      5957      5956      5958      5957      5956      5959      5958      5956      5959
      5956      5959      5960      5956      5959      5961      5956      5959      5962
      5960      5959      5961      5960      5959      5962      5961      5959      5962
      5959      5962      5963      5959      5962      5964      5959      5962      5965
      5963      5962      5964      5963      5962      5965      5964      5962      5965
      5962      5965      5966      5962      5965      5967      5962      5965      5968
      5966      5965      5967      5966      5965      5968      5967      5965      5968
      5965      5968      5969      5965      5968      5970      5965      5968      5971
      5969      5968      5970      5969      5968      5971      5970      5968      5971
      5968      5971      5972      5968      5971      5973      5968      5971      5974
      5972      5971      5973      5972      5971      5974      5973      5971      5974
      5971      5974      5975      5971      5974      5976      5971      5974      5977
      5975      5974      5976      5975      5974      5977      5976      5974      5977
      5974      5977      5978      5974      5977      5979      5974      5977      5980
      5978      5977      5979      5978      5977      5980      5979      5977      5980
      5977      5980      5981      5977      5980      5982      5977      5980      5983
      5981      5980      5982      5981      5980      5983      5982      5980      5983
      5980      5983      5984      5980      5983      5985      5980      5983      5986
      5984      5983      5985      5984      5983      5986      5985      5983      5986
      5983      5986      5987      5983      5986      5988      5983      5986      5989
      5987      5986      5988      5987      5986      5989      5988      5986      5989
      5991      5990      5992      5991      5990      5993      5991      5990      5994
      5992      5990      5993      5992      5990      5994      5993      5990      5994
      5990      5994      5995      5990      5994      5996      5990      5994      5997
      5995      5994      5996      5995      5994      5997      5996      5994      5997
      5994      5997      5998      5994      5997      5999      5994      5997      6004
      5998      5997      5999      5998      5997      6004      5999      5997      6004
      6001      6000      6002      6001      6000      6003      6001      6000      6004
      6002      6000      6003      6002      6000      6004      6003      6000      6004
      6000      6003      6005      5997      6004      6000      6003      6005      6006
      6003      6005      6007      6003      6005      6008      6006      6005      6007
      6006      6005      6008      6007      6005      6008      6005      6008      6009
      6005      6008      6010      6005      6008      6016      6009      6008      6010
      6009      6008      6016      6010      6008      6016      6008      6010      6011
      6010      6011      6012      6010      6011      6013      6012      6011      6013
      6011      6013      6014      6011      6013      6015      6011      6013      6025
      6014      6013      6015      6014      6013      6025      6015      6013      6025
      6008      6016      6017      6008      6016      6018      6008      6016      6019
      6017      6016      6018      6017      6016      6019      6018      6016      6019
      6016      6019      6020      6019      6020      6021      6019      6020      6022
      6021      6020      6022      6020      6022      6023      6020      6022      6024
      6020      6022      6069      6023      6022      6024      6023      6022      6069
      6024      6022      6069      6013      6025      6026      6013      6025      6027
      6013      6025      6028      6026      6025      6027      6026      6025      6028
      6027      6025      6028      6025      6028      6029      6025      6028      6030
      6025      6028      6031      6029      6028      6030      6029      6028      6031
      6030      6028      6031      6028      6031      6032      6028      6031      6033
      6028      6031      6034      6032      6031      6033      6032      6031      6034
      6033      6031      6034      6031      6034      6035      6031      6034      6036
      6031      6034      6037      6035      6034      6036      6035      6034      6037
      6036      6034      6037      6034      6037      6038      6034      6037      6039
      6034      6037      6040      6038      6037      6039      6038      6037      6040
      6039      6037      6040      6037      6040      6041      6037      6040      6042
      6037      6040      6043      6041      6040      6042      6041      6040      6043
      6042      6040      6043      6040      6043      6044      6040      6043      6045
      6040      6043      6048      6044      6043      6045      6044      6043      6048
      6045      6043      6048      6043      6045      6046      6043      6045      6047
      6043      6045      6048      6046      6045      6047      6046      6045      6048
      6047      6045      6048      6043      6048      6045      6043      6048      6049
      6043      6048      6050      6045      6048      6049      6045      6048      6050
      6049      6048      6050      6048      6050      6051      6048      6050      6052
      6048      6050      6053      6051      6050      6052      6051      6050      6053
      6052      6050      6053      6050      6053      6054      6050      6053      6055
      6050      6053      6056      6054      6053      6055      6054      6053      6056
      6055      6053      6056      6053      6056      6057      6053      6056      6058
      6053      6056      6059      6057      6056      6058      6057      6056      6059
      6058      6056      6059      6056      6059      6060      6056      6059      6061
      6056      6059      6062      6060      6059      6061      6060      6059      6062
      6061      6059      6062      6059      6062      6063      6059      6062      6064
      6059      6062      6065      6063      6062      6064      6063      6062      6065
      6064      6062      6065      6062      6065      6066      6062      6065      6067
      6062      6065      6068      6066      6065      6067      6066      6065      6068
      6067      6065      6068      6022      6069      6070      6022      6069      6071
      6022      6069      6072      6070      6069      6071      6070      6069      6072
      6071      6069      6072      6069      6072      6073      6069      6072      6074
      6069      6072      6075      6073      6072      6074      6073      6072      6075
      6074      6072      6075      6072      6075      6076      6072      6075      6077
      6072      6075      6078      6076      6075      6077      6076      6075      6078
      6077      6075      6078      6075      6078      6079      6075      6078      6080
      6075      6078      6081      6079      6078      6080      6079      6078      6081
      6080      6078      6081      6078      6081      6082      6078      6081      6083
      6078      6081      6084      6082      6081      6083      6082      6081      6084
      6083      6081      6084      6081      6084      6085      6081      6084      6086
      6081      6084      6087      6085      6084      6086      6085      6084      6087
      6086      6084      6087      6084      6087      6088      6084      6087      6089
      6084      6087      6090      6088      6087      6089      6088      6087      6090
      6089      6087      6090      6087      6090      6091      6087      6090      6092
      6087      6090      6093      6091      6090      6092      6091      6090      6093
      6092      6090      6093      6090      6093      6094      6090      6093      6095
      6090      6093      6096      6094      6093      6095      6094      6093      6096
      6095      6093      6096      6093      6096      6097      6093      6096      6098
      6093      6096      6099      6097      6096      6098      6097      6096      6099
      6098      6096      6099      6096      6099      6100      6096      6099      6101
      6096      6099      6102      6100      6099      6101      6100      6099      6102
      6101      6099      6102      6099      6102      6103      6099      6102      6104
      6099      6102      6105      6103      6102      6104      6103      6102      6105
      6104      6102      6105      6102      6105      6106      6102      6105      6107
      6102      6105      6108      6106      6105      6107      6106      6105      6108
      6107      6105      6108      6105      6108      6109      6105      6108      6110
      6105      6108      6111      6109      6108      6110      6109      6108      6111
      6110      6108      6111      6113      6112      6114      6113      6112      6115
      6113      6112      6116      6114      6112      6115      6114      6112      6116
      6115      6112      6116      6112      6116      6117      6112      6116      6118
      6112      6116      6119      6117      6116      6118      6117      6116      6119
      6118      6116      6119      6116      6119      6120      6116      6119      6121
      6116      6119      6126      6120      6119      6121      6120      6119      6126
      6121      6119      6126      6123      6122      6124      6123      6122      6125
      6123      6122      6126      6124      6122      6125      6124      6122      6126
      6125      6122      6126      6122      6125      6127      6119      6126      6122
      6125      6127      6128      6125      6127      6129      6125      6127      6130
      6128      6127      6129      6128      6127      6130      6129      6127      6130
      6127      6130      6131      6127      6130      6132      6127      6130      6138
      6131      6130      6132      6131      6130      6138      6132      6130      6138
      6130      6132      6133      6132      6133      6134      6132      6133      6135
      6134      6133      6135      6133      6135      6136      6133      6135      6137
      6133      6135      6147      6136      6135      6137      6136      6135      6147
      6137      6135      6147      6130      6138      6139      6130      6138      6140
      6130      6138      6141      6139      6138      6140      6139      6138      6141
      6140      6138      6141      6138      6141      6142      6141      6142      6143
      6141      6142      6144      6143      6142      6144      6142      6144      6145
      6142      6144      6146      6142      6144      6191      6145      6144      6146
      6145      6144      6191      6146      6144      6191      6135      6147      6148
      6135      6147      6149      6135      6147      6150      6148      6147      6149
      6148      6147      6150      6149      6147      6150      6147      6150      6151
      6147      6150      6152      6147      6150      6153      6151      6150      6152
      6151      6150      6153      6152      6150      6153      6150      6153      6154
      6150      6153      6155      6150      6153      6156      6154      6153      6155
      6154      6153      6156      6155      6153      6156      6153      6156      6157
      6153      6156      6158      6153      6156      6159      6157      6156      6158
      6157      6156      6159      6158      6156      6159      6156      6159      6160
      6156      6159      6161      6156      6159      6162      6160      6159      6161
      6160      6159      6162      6161      6159      6162      6159      6162      6163
      6159      6162      6164      6159      6162      6165      6163      6162      6164
      6163      6162      6165      6164      6162      6165      6162      6165      6166
      6162      6165      6167      6162      6165      6170      6166      6165      6167
      6166      6165      6170      6167      6165      6170      6165      6167      6168
      6165      6167      6169      6165      6167      6170      6168      6167      6169
      6168      6167      6170      6169      6167      6170      6165      6170      6167
      6165      6170      6171      6165      6170      6172      6167      6170      6171
      6167      6170      6172      6171      6170      6172      6170      6172      6173
      6170      6172      6174      6170      6172      6175      6173      6172      6174
      6173      6172      6175      6174      6172      6175      6172      6175      6176
      6172      6175      6177      6172      6175      6178      6176      6175      6177
      6176      6175      6178      6177      6175      6178      6175      6178      6179
      6175      6178      6180      6175      6178      6181      6179      6178      6180
      6179      6178      6181      6180      6178      6181      6178      6181      6182
      6178      6181      6183      6178      6181      6184      6182      6181      6183
      6182      6181      6184      6183      6181      6184      6181      6184      6185
      6181      6184      6186      6181      6184      6187      6185      6184      6186
      6185      6184      6187      6186      6184      6187      6184      6187      6188
      6184      6187      6189      6184      6187      6190      6188      6187      6189
      6188      6187      6190      6189      6187      6190      6144      6191      6192
      6144      6191      6193      6144      6191      6194      6192      6191      6193
      6192      6191      6194      6193      6191      6194      6191      6194      6195
      6191      6194      6196      6191      6194      6197      6195      6194      6196
      6195      6194      6197      6196      6194      6197      6194      6197      6198
      6194      6197      6199      6194      6197      6200      6198      6197      6199
      6198      6197      6200      6199      6197      6200      6197      6200      6201
      6197      6200      6202      6197      6200      6203      6201      6200      6202
      6201      6200      6203      6202      6200      6203      6200      6203      6204
      6200      6203      6205      6200      6203      6206      6204      6203      6205
      6204      6203      6206      6205      6203      6206      6203      6206      6207
      6203      6206      6208      6203      6206      6209      6207      6206      6208
      6207      6206      6209      6208      6206      6209      6206      6209      6210
      6206      6209      6211      6206      6209      6212      6210      6209      6211
      6210      6209      6212      6211      6209      6212      6209      6212      6213
      6209      6212      6214      6209      6212      6215      6213      6212      6214
      6213      6212      6215      6214      6212      6215      6212      6215      6216
      6212      6215      6217      6212      6215      6218      6216      6215      6217
      6216      6215      6218      6217      6215      6218      6215      6218      6219
      6215      6218      6220      6215      6218      6221      6219      6218      6220
      6219      6218      6221      6220      6218      6221      6218      6221      6222
      6218      6221      6223      6218      6221      6224      6222      6221      6223
      6222      6221      6224      6223      6221      6224      6221      6224      6225
      6221      6224      6226      6221      6224      6227      6225      6224      6226
      6225      6224      6227      6226      6224      6227      6224      6227      6228
      6224      6227      6229      6224      6227      6230      6228      6227      6229
      6228      6227      6230      6229      6227      6230      6227      6230      6231
      6227      6230      6232      6227      6230      6233      6231      6230      6232
      6231      6230      6233      6232      6230      6233      6235      6234      6236
      6235      6234      6237      6235      6234      6238      6236      6234      6237
      6236      6234      6238      6237      6234      6238      6234      6238      6239
      6234      6238      6240      6234      6238      6241      6239      6238      6240
      6239      6238      6241      6240      6238      6241      6238      6241      6242
      6238      6241      6243      6238      6241      6248      6242      6241      6243
      6242      6241      6248      6243      6241      6248      6245      6244      6246
      6245      6244      6247      6245      6244      6248      6246      6244      6247
      6246      6244      6248      6247      6244      6248      6244      6247      6249
      6241      6248      6244      6247      6249      6250      6247      6249      6251
      6247      6249      6252      6250      6249      6251      6250      6249      6252
      6251      6249      6252      6249      6252      6253      6249      6252      6254
      6249      6252      6260      6253      6252      6254      6253      6252      6260
      6254      6252      6260      6252      6254      6255      6254      6255      6256
      6254      6255      6257      6256      6255      6257      6255      6257      6258
      6255      6257      6259      6255      6257      6269      6258      6257      6259
      6258      6257      6269      6259      6257      6269      6252      6260      6261
      6252      6260      6262      6252      6260      6263      6261      6260      6262
      6261      6260      6263      6262      6260      6263      6260      6263      6264
      6263      6264      6265      6263      6264      6266      6265      6264      6266
      6264      6266      6267      6264      6266      6268      6264      6266      6313
      6267      6266      6268      6267      6266      6313      6268      6266      6313
      6257      6269      6270      6257      6269      6271      6257      6269      6272
      6270      6269      6271      6270      6269      6272      6271      6269      6272
      6269      6272      6273      6269      6272      6274      6269      6272      6275
      6273      6272      6274      6273      6272      6275      6274      6272      6275
      6272      6275      6276      6272      6275      6277      6272      6275      6278
      6276      6275      6277      6276      6275      6278      6277      6275      6278
      6275      6278      6279      6275      6278      6280      6275      6278      6281
      6279      6278      6280      6279      6278      6281      6280      6278      6281
      6278      6281      6282      6278      6281      6283      6278      6281      6284
      6282      6281      6283      6282      6281      6284      6283      6281      6284
      6281      6284      6285      6281      6284      6286      6281      6284      6287
      6285      6284      6286      6285      6284      6287      6286      6284      6287
      6284      6287      6288      6284      6287      6289      6284      6287      6292
      6288      6287      6289      6288      6287      6292      6289      6287      6292
      6287      6289      6290      6287      6289      6291      6287      6289      6292
      6290      6289      6291      6290      6289      6292      6291      6289      6292
      6287      6292      6289      6287      6292      6293      6287      6292      6294
      6289      6292      6293      6289      6292      6294      6293      6292      6294
      6292      6294      6295      6292      6294      6296      6292      6294      6297
      6295      6294      6296      6295      6294      6297      6296      6294      6297
      6294      6297      6298      6294      6297      6299      6294      6297      6300
      6298      6297      6299      6298      6297      6300      6299      6297      6300
      6297      6300      6301      6297      6300      6302      6297      6300      6303
      6301      6300      6302      6301      6300      6303      6302      6300      6303
      6300      6303      6304      6300      6303      6305      6300      6303      6306
      6304      6303      6305      6304      6303      6306      6305      6303      6306
      6303      6306      6307      6303      6306      6308      6303      6306      6309
      6307      6306      6308      6307      6306      6309      6308      6306      6309
      6306      6309      6310      6306      6309      6311      6306      6309      6312
      6310      6309      6311      6310      6309      6312      6311      6309      6312
      6266      6313      6314      6266      6313      6315      6266      6313      6316
      6314      6313      6315      6314      6313      6316      6315      6313      6316
      6313      6316      6317      6313      6316      6318      6313      6316      6319
      6317      6316      6318      6317      6316      6319      6318      6316      6319
      6316      6319      6320      6316      6319      6321      6316      6319      6322
      6320      6319      6321      6320      6319      6322      6321      6319      6322
      6319      6322      6323      6319      6322      6324      6319      6322      6325
      6323      6322      6324      6323      6322      6325      6324      6322      6325
      6322      6325      6326      6322      6325      6327      6322      6325      6328
      6326      6325      6327      6326      6325      6328      6327      6325      6328
      6325      6328      6329      6325      6328      6330      6325      6328      6331
      6329      6328      6330      6329      6328      6331      6330      6328      6331
      6328      6331      6332      6328      6331      6333      6328      6331      6334
      6332      6331      6333      6332      6331      6334      6333      6331      6334
      6331      6334      6335      6331      6334      6336      6331      6334      6337
      6335      6334      6336      6335      6334      6337      6336      6334      6337
      6334      6337      6338      6334      6337      6339      6334      6337      6340
      6338      6337      6339      6338      6337      6340      6339      6337      6340
      6337      6340      6341      6337      6340      6342      6337      6340      6343
      6341      6340      6342      6341      6340      6343      6342      6340      6343
      6340      6343      6344      6340      6343      6345      6340      6343      6346
      6344      6343      6345      6344      6343      6346      6345      6343      6346
      6343      6346      6347      6343      6346      6348      6343      6346      6349
      6347      6346      6348      6347      6346      6349      6348      6346      6349
      6346      6349      6350      6346      6349      6351      6346      6349      6352
      6350      6349      6351      6350      6349      6352      6351      6349      6352
      6349      6352      6353      6349      6352      6354      6349      6352      6355
      6353      6352      6354      6353      6352      6355      6354      6352      6355
      6357      6356      6358      6357      6356      6359      6357      6356      6360
      6358      6356      6359      6358      6356      6360      6359      6356      6360
      6356      6360      6361      6356      6360      6362      6356      6360      6363
      6361      6360      6362      6361      6360      6363      6362      6360      6363
      6360      6363      6364      6360      6363      6365      6360      6363      6370
      6364      6363      6365      6364      6363      6370      6365      6363      6370
      6367      6366      6368      6367      6366      6369      6367      6366      6370
      6368      6366      6369      6368      6366      6370      6369      6366      6370
      6366      6369      6371      6363      6370      6366      6369      6371      6372
      6369      6371      6373      6369      6371      6374      6372      6371      6373
      6372      6371      6374      6373      6371      6374      6371      6374      6375
      6371      6374      6376      6371      6374      6382      6375      6374      6376
      6375      6374      6382      6376      6374      6382      6374      6376      6377
      6376      6377      6378      6376      6377      6379      6378      6377      6379
      6377      6379      6380      6377      6379      6381      6377      6379      6391
      6380      6379      6381      6380      6379      6391      6381      6379      6391
      6374      6382      6383      6374      6382      6384      6374      6382      6385
      6383      6382      6384      6383      6382      6385      6384      6382      6385
      6382      6385      6386      6385      6386      6387      6385      6386      6388
      6387      6386      6388      6386      6388      6389      6386      6388      6390
      6386      6388      6435      6389      6388      6390      6389      6388      6435
      6390      6388      6435      6379      6391      6392      6379      6391      6393
      6379      6391      6394      6392      6391      6393      6392      6391      6394
      6393      6391      6394      6391      6394      6395      6391      6394      6396
      6391      6394      6397      6395      6394      6396      6395      6394      6397
      6396      6394      6397      6394      6397      6398      6394      6397      6399
      6394      6397      6400      6398      6397      6399      6398      6397      6400
      6399      6397      6400      6397      6400      6401      6397      6400      6402
      6397      6400      6403      6401      6400      6402      6401      6400      6403
      6402      6400      6403      6400      6403      6404      6400      6403      6405
      6400      6403      6406      6404      6403      6405      6404      6403      6406
      6405      6403      6406      6403      6406      6407      6403      6406      6408
      6403      6406      6409      6407      6406      6408      6407      6406      6409
      6408      6406      6409      6406      6409      6410      6406      6409      6411
      6406      6409      6414      6410      6409      6411      6410      6409      6414
      6411      6409      6414      6409      6411      6412      6409      6411      6413
      6409      6411      6414      6412      6411      6413      6412      6411      6414
      6413      6411      6414      6409      6414      6411      6409      6414      6415
      6409      6414      6416      6411      6414      6415      6411      6414      6416
      6415      6414      6416      6414      6416      6417      6414      6416      6418
      6414      6416      6419      6417      6416      6418      6417      6416      6419
      6418      6416      6419      6416      6419      6420      6416      6419      6421
      6416      6419      6422      6420      6419      6421      6420      6419      6422
      6421      6419      6422      6419      6422      6423      6419      6422      6424
      6419      6422      6425      6423      6422      6424      6423      6422      6425
      6424      6422      6425      6422      6425      6426      6422      6425      6427
      6422      6425      6428      6426      6425      6427      6426      6425      6428
      6427      6425      6428      6425      6428      6429      6425      6428      6430
      6425      6428      6431      6429      6428      6430      6429      6428      6431
      6430      6428      6431      6428      6431      6432      6428      6431      6433
      6428      6431      6434      6432      6431      6433      6432      6431      6434
      6433      6431      6434      6388      6435      6436      6388      6435      6437
      6388      6435      6438      6436      6435      6437      6436      6435      6438
      6437      6435      6438      6435      6438      6439      6435      6438      6440
      6435      6438      6441      6439      6438      6440      6439      6438      6441
      6440      6438      6441      6438      6441      6442      6438      6441      6443
      6438      6441      6444      6442      6441      6443      6442      6441      6444
      6443      6441      6444      6441      6444      6445      6441      6444      6446
      6441      6444      6447      6445      6444      6446      6445      6444      6447
      6446      6444      6447      6444      6447      6448      6444      6447      6449
      6444      6447      6450      6448      6447      6449      6448      6447      6450
      6449      6447      6450      6447      6450      6451      6447      6450      6452
      6447      6450      6453      6451      6450      6452      6451      6450      6453
      6452      6450      6453      6450      6453      6454      6450      6453      6455
      6450      6453      6456      6454      6453      6455      6454      6453      6456
      6455      6453      6456      6453      6456      6457      6453      6456      6458
      6453      6456      6459      6457      6456      6458      6457      6456      6459
      6458      6456      6459      6456      6459      6460      6456      6459      6461
      6456      6459      6462      6460      6459      6461      6460      6459      6462
      6461      6459      6462      6459      6462      6463      6459      6462      6464
      6459      6462      6465      6463      6462      6464      6463      6462      6465
      6464      6462      6465      6462      6465      6466      6462      6465      6467
      6462      6465      6468      6466      6465      6467      6466      6465      6468
      6467      6465      6468      6465      6468      6469      6465      6468      6470
      6465      6468      6471      6469      6468      6470      6469      6468      6471
      6470      6468      6471      6468      6471      6472      6468      6471      6473
      6468      6471      6474      6472      6471      6473      6472      6471      6474
      6473      6471      6474      6471      6474      6475      6471      6474      6476
      6471      6474      6477      6475      6474      6476      6475      6474      6477
      6476      6474      6477      6479      6478      6480      6479      6478      6481
      6479      6478      6483      6480      6478      6481      6480      6478      6483
      6481      6478      6483      6478      6481      6482      6478      6483      6484
      6478      6483      6485      6478      6483      6487      6484      6483      6485
      6484      6483      6487      6485      6483      6487      6483      6485      6486
      6483      6487      6488      6483      6487      6489      6483      6487      6494
      6488      6487      6489      6488      6487      6494      6489      6487      6494
      6491      6490      6492      6491      6490      6493      6491      6490      6494
      6492      6490      6493      6492      6490      6494      6493      6490      6494
      6490      6493      6495      6487      6494      6490      6493      6495      6496
      6493      6495      6497      6493      6495      6498      6496      6495      6497
      6496      6495      6498      6497      6495      6498      6495      6498      6499
      6495      6498      6500      6495      6498      6506      6499      6498      6500
      6499      6498      6506      6500      6498      6506      6498      6500      6501
      6500      6501      6502      6500      6501      6503      6502      6501      6503
      6501      6503      6504      6501      6503      6505      6501      6503      6515
      6504      6503      6505      6504      6503      6515      6505      6503      6515
      6498      6506      6507      6498      6506      6508      6498      6506      6509
      6507      6506      6508      6507      6506      6509      6508      6506      6509
      6506      6509      6510      6509      6510      6511      6509      6510      6512
      6511      6510      6512      6510      6512      6513      6510      6512      6514
      6510      6512      6559      6513      6512      6514      6513      6512      6559
      6514      6512      6559      6503      6515      6516      6503      6515      6517
      6503      6515      6518      6516      6515      6517      6516      6515      6518
      6517      6515      6518      6515      6518      6519      6515      6518      6520
      6515      6518      6521      6519      6518      6520      6519      6518      6521
      6520      6518      6521      6518      6521      6522      6518      6521      6523
      6518      6521      6524      6522      6521      6523      6522      6521      6524
      6523      6521      6524      6521      6524      6525      6521      6524      6526
      6521      6524      6527      6525      6524      6526      6525      6524      6527
      6526      6524      6527      6524      6527      6528      6524      6527      6529
      6524      6527      6530      6528      6527      6529      6528      6527      6530
      6529      6527      6530      6527      6530      6531      6527      6530      6532
      6527      6530      6533      6531      6530      6532      6531      6530      6533
      6532      6530      6533      6530      6533      6534      6530      6533      6535
      6530      6533      6538      6534      6533      6535      6534      6533      6538
      6535      6533      6538      6533      6535      6536      6533      6535      6537
      6533      6535      6538      6536      6535      6537      6536      6535      6538
      6537      6535      6538      6533      6538      6535      6533      6538      6539
      6533      6538      6540      6535      6538      6539      6535      6538      6540
      6539      6538      6540      6538      6540      6541      6538      6540      6542
      6538      6540      6543      6541      6540      6542      6541      6540      6543
      6542      6540      6543      6540      6543      6544      6540      6543      6545
      6540      6543      6546      6544      6543      6545      6544      6543      6546
      6545      6543      6546      6543      6546      6547      6543      6546      6548
      6543      6546      6549      6547      6546      6548      6547      6546      6549
      6548      6546      6549      6546      6549      6550      6546      6549      6551
      6546      6549      6552      6550      6549      6551      6550      6549      6552
      6551      6549      6552      6549      6552      6553      6549      6552      6554
      6549      6552      6555      6553      6552      6554      6553      6552      6555
      6554      6552      6555      6552      6555      6556      6552      6555      6557
      6552      6555      6558      6556      6555      6557      6556      6555      6558
      6557      6555      6558      6512      6559      6560      6512      6559      6561
      6512      6559      6562      6560      6559      6561      6560      6559      6562
      6561      6559      6562      6559      6562      6563      6559      6562      6564
      6559      6562      6565      6563      6562      6564      6563      6562      6565
      6564      6562      6565      6562      6565      6566      6562      6565      6567
      6562      6565      6568      6566      6565      6567      6566      6565      6568
      6567      6565      6568      6565      6568      6569      6565      6568      6570
      6565      6568      6571      6569      6568      6570      6569      6568      6571
      6570      6568      6571      6568      6571      6572      6568      6571      6573
      6568      6571      6574      6572      6571      6573      6572      6571      6574
      6573      6571      6574      6571      6574      6575      6571      6574      6576
      6571      6574      6577      6575      6574      6576      6575      6574      6577
      6576      6574      6577      6574      6577      6578      6574      6577      6579
      6574      6577      6580      6578      6577      6579      6578      6577      6580
      6579      6577      6580      6577      6580      6581      6577      6580      6582
      6577      6580      6583      6581      6580      6582      6581      6580      6583
      6582      6580      6583      6580      6583      6584      6580      6583      6585
      6580      6583      6586      6584      6583      6585      6584      6583      6586
      6585      6583      6586      6583      6586      6587      6583      6586      6588
      6583      6586      6589      6587      6586      6588      6587      6586      6589
      6588      6586      6589      6586      6589      6590      6586      6589      6591
      6586      6589      6592      6590      6589      6591      6590      6589      6592
      6591      6589      6592      6589      6592      6593      6589      6592      6594
      6589      6592      6595      6593      6592      6594      6593      6592      6595
      6594      6592      6595      6592      6595      6596      6592      6595      6597
      6592      6595      6598      6596      6595      6597      6596      6595      6598
      6597      6595      6598      6595      6598      6599      6595      6598      6600
      6595      6598      6601      6599      6598      6600      6599      6598      6601
      6600      6598      6601      6603      6602      6604      6603      6602      6605
      6603      6602      6607      6604      6602      6605      6604      6602      6607
      6605      6602      6607      6602      6605      6606      6602      6607      6608
      6602      6607      6609      6602      6607      6611      6608      6607      6609
      6608      6607      6611      6609      6607      6611      6607      6609      6610
      6607      6611      6612      6607      6611      6613      6607      6611      6618
      6612      6611      6613      6612      6611      6618      6613      6611      6618
      6615      6614      6616      6615      6614      6617      6615      6614      6618
      6616      6614      6617      6616      6614      6618      6617      6614      6618
      6614      6617      6619      6611      6618      6614      6617      6619      6620
      6617      6619      6621      6617      6619      6622      6620      6619      6621
      6620      6619      6622      6621      6619      6622      6619      6622      6623
      6619      6622      6624      6619      6622      6630      6623      6622      6624
      6623      6622      6630      6624      6622      6630      6622      6624      6625
      6624      6625      6626      6624      6625      6627      6626      6625      6627
      6625      6627      6628      6625      6627      6629      6625      6627      6639
      6628      6627      6629      6628      6627      6639      6629      6627      6639
      6622      6630      6631      6622      6630      6632      6622      6630      6633
      6631      6630      6632      6631      6630      6633      6632      6630      6633
      6630      6633      6634      6633      6634      6635      6633      6634      6636
      6635      6634      6636      6634      6636      6637      6634      6636      6638
      6634      6636      6683      6637      6636      6638      6637      6636      6683
      6638      6636      6683      6627      6639      6640      6627      6639      6641
      6627      6639      6642      6640      6639      6641      6640      6639      6642
      6641      6639      6642      6639      6642      6643      6639      6642      6644
      6639      6642      6645      6643      6642      6644      6643      6642      6645
      6644      6642      6645      6642      6645      6646      6642      6645      6647
      6642      6645      6648      6646      6645      6647      6646      6645      6648
      6647      6645      6648      6645      6648      6649      6645      6648      6650
      6645      6648      6651      6649      6648      6650      6649      6648      6651
      6650      6648      6651      6648      6651      6652      6648      6651      6653
      6648      6651      6654      6652      6651      6653      6652      6651      6654
      6653      6651      6654      6651      6654      6655      6651      6654      6656
      6651      6654      6657      6655      6654      6656      6655      6654      6657
      6656      6654      6657      6654      6657      6658      6654      6657      6659
      6654      6657      6662      6658      6657      6659      6658      6657      6662
      6659      6657      6662      6657      6659      6660      6657      6659      6661
      6657      6659      6662      6660      6659      6661      6660      6659      6662
      6661      6659      6662      6657      6662      6659      6657      6662      6663
      6657      6662      6664      6659      6662      6663      6659      6662      6664
      6663      6662      6664      6662      6664      6665      6662      6664      6666
      6662      6664      6667      6665      6664      6666      6665      6664      6667
      6666      6664      6667      6664      6667      6668      6664      6667      6669
      6664      6667      6670      6668      6667      6669      6668      6667      6670
      6669      6667      6670      6667      6670      6671      6667      6670      6672
      6667      6670      6673      6671      6670      6672      6671      6670      6673
      6672      6670      6673      6670      6673      6674      6670      6673      6675
      6670      6673      6676      6674      6673      6675      6674      6673      6676
      6675      6673      6676      6673      6676      6677      6673      6676      6678
      6673      6676      6679      6677      6676      6678      6677      6676      6679
      6678      6676      6679      6676      6679      6680      6676      6679      6681
      6676      6679      6682      6680      6679      6681      6680      6679      6682
      6681      6679      6682      6636      6683      6684      6636      6683      6685
      6636      6683      6686      6684      6683      6685      6684      6683      6686
      6685      6683      6686      6683      6686      6687      6683      6686      6688
      6683      6686      6689      6687      6686      6688      6687      6686      6689
      6688      6686      6689      6686      6689      6690      6686      6689      6691
      6686      6689      6692      6690      6689      6691      6690      6689      6692
      6691      6689      6692      6689      6692      6693      6689      6692      6694
      6689      6692      6695      6693      6692      6694      6693      6692      6695
      6694      6692      6695      6692      6695      6696      6692      6695      6697
      6692      6695      6698      6696      6695      6697      6696      6695      6698
      6697      6695      6698      6695      6698      6699      6695      6698      6700
      6695      6698      6701      6699      6698      6700      6699      6698      6701
      6700      6698      6701      6698      6701      6702      6698      6701      6703
      6698      6701      6704      6702      6701      6703      6702      6701      6704
      6703      6701      6704      6701      6704      6705      6701      6704      6706
      6701      6704      6707      6705      6704      6706      6705      6704      6707
      6706      6704      6707      6704      6707      6708      6704      6707      6709
      6704      6707      6710      6708      6707      6709      6708      6707      6710
      6709      6707      6710      6707      6710      6711      6707      6710      6712
      6707      6710      6713      6711      6710      6712      6711      6710      6713
      6712      6710      6713      6710      6713      6714      6710      6713      6715
      6710      6713      6716      6714      6713      6715      6714      6713      6716
      6715      6713      6716      6713      6716      6717      6713      6716      6718
      6713      6716      6719      6717      6716      6718      6717      6716      6719
      6718      6716      6719      6716      6719      6720      6716      6719      6721
      6716      6719      6722      6720      6719      6721      6720      6719      6722
      6721      6719      6722      6719      6722      6723      6719      6722      6724
      6719      6722      6725      6723      6722      6724      6723      6722      6725
      6724      6722      6725      6727      6726      6728      6727      6726      6729
      6727      6726      6730      6728      6726      6729      6728      6726      6730
      6729      6726      6730      6726      6730      6731      6726      6730      6732
      6726      6730      6733      6731      6730      6732      6731      6730      6733
      6732      6730      6733      6730      6733      6734      6730      6733      6735
      6730      6733      6740      6734      6733      6735      6734      6733      6740
      6735      6733      6740      6737      6736      6738      6737      6736      6739
      6737      6736      6740      6738      6736      6739      6738      6736      6740
      6739      6736      6740      6736      6739      6741      6733      6740      6736
      6739      6741      6742      6739      6741      6743      6739      6741      6744
      6742      6741      6743      6742      6741      6744      6743      6741      6744
      6741      6744      6745      6741      6744      6746      6741      6744      6752
      6745      6744      6746      6745      6744      6752      6746      6744      6752
      6744      6746      6747      6746      6747      6748      6746      6747      6749
      6748      6747      6749      6747      6749      6750      6747      6749      6751
      6747      6749      6761      6750      6749      6751      6750      6749      6761
      6751      6749      6761      6744      6752      6753      6744      6752      6754
      6744      6752      6755      6753      6752      6754      6753      6752      6755
      6754      6752      6755      6752      6755      6756      6755      6756      6757
      6755      6756      6758      6757      6756      6758      6756      6758      6759
      6756      6758      6760      6756      6758      6805      6759      6758      6760
      6759      6758      6805      6760      6758      6805      6749      6761      6762
      6749      6761      6763      6749      6761      6764      6762      6761      6763
      6762      6761      6764      6763      6761      6764      6761      6764      6765
      6761      6764      6766      6761      6764      6767      6765      6764      6766
      6765      6764      6767      6766      6764      6767      6764      6767      6768
      6764      6767      6769      6764      6767      6770      6768      6767      6769
      6768      6767      6770      6769      6767      6770      6767      6770      6771
      6767      6770      6772      6767      6770      6773      6771      6770      6772
      6771      6770      6773      6772      6770      6773      6770      6773      6774
      6770      6773      6775      6770      6773      6776      6774      6773      6775
      6774      6773      6776      6775      6773      6776      6773      6776      6777
      6773      6776      6778      6773      6776      6779      6777      6776      6778
      6777      6776      6779      6778      6776      6779      6776      6779      6780
      6776      6779      6781      6776      6779      6784      6780      6779      6781
      6780      6779      6784      6781      6779      6784      6779      6781      6782
      6779      6781      6783      6779      6781      6784      6782      6781      6783
      6782      6781      6784      6783      6781      6784      6779      6784      6781
      6779      6784      6785      6779      6784      6786      6781      6784      6785
      6781      6784      6786      6785      6784      6786      6784      6786      6787
      6784      6786      6788      6784      6786      6789      6787      6786      6788
      6787      6786      6789      6788      6786      6789      6786      6789      6790
      6786      6789      6791      6786      6789      6792      6790      6789      6791
      6790      6789      6792      6791      6789      6792      6789      6792      6793
      6789      6792      6794      6789      6792      6795      6793      6792      6794
      6793      6792      6795      6794      6792      6795      6792      6795      6796
      6792      6795      6797      6792      6795      6798      6796      6795      6797
      6796      6795      6798      6797      6795      6798      6795      6798      6799
      6795      6798      6800      6795      6798      6801      6799      6798      6800
      6799      6798      6801      6800      6798      6801      6798      6801      6802
      6798      6801      6803      6798      6801      6804      6802      6801      6803
      6802      6801      6804      6803      6801      6804      6758      6805      6806
      6758      6805      6807      6758      6805      6808      6806      6805      6807
      6806      6805      6808      6807      6805      6808      6805      6808      6809
      6805      6808      6810      6805      6808      6811      6809      6808      6810
      6809      6808      6811      6810      6808      6811      6808      6811      6812
      6808      6811      6813      6808      6811      6814      6812      6811      6813
      6812      6811      6814      6813      6811      6814      6811      6814      6815
      6811      6814      6816      6811      6814      6817      6815      6814      6816
      6815      6814      6817      6816      6814      6817      6814      6817      6818
      6814      6817      6819      6814      6817      6820      6818      6817      6819
      6818      6817      6820      6819      6817      6820      6817      6820      6821
      6817      6820      6822      6817      6820      6823      6821      6820      6822
      6821      6820      6823      6822      6820      6823      6820      6823      6824
      6820      6823      6825      6820      6823      6826      6824      6823      6825
      6824      6823      6826      6825      6823      6826      6823      6826      6827
      6823      6826      6828      6823      6826      6829      6827      6826      6828
      6827      6826      6829      6828      6826      6829      6826      6829      6830
      6826      6829      6831      6826      6829      6832      6830      6829      6831
      6830      6829      6832      6831      6829      6832      6829      6832      6833
      6829      6832      6834      6829      6832      6835      6833      6832      6834
      6833      6832      6835      6834      6832      6835      6832      6835      6836
      6832      6835      6837      6832      6835      6838      6836      6835      6837
      6836      6835      6838      6837      6835      6838      6835      6838      6839
      6835      6838      6840      6835      6838      6841      6839      6838      6840
      6839      6838      6841      6840      6838      6841      6838      6841      6842
      6838      6841      6843      6838      6841      6844      6842      6841      6843
      6842      6841      6844      6843      6841      6844      6846      6845      6847
      6846      6845      6848      6846      6845      6849      6847      6845      6848
      6847      6845      6849      6848      6845      6849      6845      6849      6850
      6845      6849      6851      6845      6849      6852      6850      6849      6851
      6850      6849      6852      6851      6849      6852      6849      6852      6853
      6849      6852      6854      6849      6852      6859      6853      6852      6854
      6853      6852      6859      6854      6852      6859      6856      6855      6857
      6856      6855      6858      6856      6855      6859      6857      6855      6858
      6857      6855      6859      6858      6855      6859      6855      6858      6860
      6852      6859      6855      6858      6860      6861      6858      6860      6862
      6858      6860      6863      6861      6860      6862      6861      6860      6863
      6862      6860      6863      6860      6863      6864      6860      6863      6865
      6860      6863      6871      6864      6863      6865      6864      6863      6871
      6865      6863      6871      6863      6865      6866      6865      6866      6867
      6865      6866      6868      6867      6866      6868      6866      6868      6869
      6866      6868      6870      6866      6868      6880      6869      6868      6870
      6869      6868      6880      6870      6868      6880      6863      6871      6872
      6863      6871      6873      6863      6871      6874      6872      6871      6873
      6872      6871      6874      6873      6871      6874      6871      6874      6875
      6874      6875      6876      6874      6875      6877      6876      6875      6877
      6875      6877      6878      6875      6877      6879      6875      6877      6924
      6878      6877      6879      6878      6877      6924      6879      6877      6924
      6868      6880      6881      6868      6880      6882      6868      6880      6883
      6881      6880      6882      6881      6880      6883      6882      6880      6883
      6880      6883      6884      6880      6883      6885      6880      6883      6886
      6884      6883      6885      6884      6883      6886      6885      6883      6886
      6883      6886      6887      6883      6886      6888      6883      6886      6889
      6887      6886      6888      6887      6886      6889      6888      6886      6889
      6886      6889      6890      6886      6889      6891      6886      6889      6892
      6890      6889      6891      6890      6889      6892      6891      6889      6892
      6889      6892      6893      6889      6892      6894      6889      6892      6895
      6893      6892      6894      6893      6892      6895      6894      6892      6895
      6892      6895      6896      6892      6895      6897      6892      6895      6898
      6896      6895      6897      6896      6895      6898      6897      6895      6898
      6895      6898      6899      6895      6898      6900      6895      6898      6903
      6899      6898      6900      6899      6898      6903      6900      6898      6903
      6898      6900      6901      6898      6900      6902      6898      6900      6903
      6901      6900      6902      6901      6900      6903      6902      6900      6903
      6898      6903      6900      6898      6903      6904      6898      6903      6905
      6900      6903      6904      6900      6903      6905      6904      6903      6905
      6903      6905      6906      6903      6905      6907      6903      6905      6908
      6906      6905      6907      6906      6905      6908      6907      6905      6908
      6905      6908      6909      6905      6908      6910      6905      6908      6911
      6909      6908      6910      6909      6908      6911      6910      6908      6911
      6908      6911      6912      6908      6911      6913      6908      6911      6914
      6912      6911      6913      6912      6911      6914      6913      6911      6914
      6911      6914      6915      6911      6914      6916      6911      6914      6917
      6915      6914      6916      6915      6914      6917      6916      6914      6917
      6914      6917      6918      6914      6917      6919      6914      6917      6920
      6918      6917      6919      6918      6917      6920      6919      6917      6920
      6917      6920      6921      6917      6920      6922      6917      6920      6923
      6921      6920      6922      6921      6920      6923      6922      6920      6923
      6877      6924      6925      6877      6924      6926      6877      6924      6927
      6925      6924      6926      6925      6924      6927      6926      6924      6927
      6924      6927      6928      6924      6927      6929      6924      6927      6930
      6928      6927      6929      6928      6927      6930      6929      6927      6930
      6927      6930      6931      6927      6930      6932      6927      6930      6933
      6931      6930      6932      6931      6930      6933      6932      6930      6933
      6930      6933      6934      6930      6933      6935      6930      6933      6936
      6934      6933      6935      6934      6933      6936      6935      6933      6936
      6933      6936      6937      6933      6936      6938      6933      6936      6939
      6937      6936      6938      6937      6936      6939      6938      6936      6939
      6936      6939      6940      6936      6939      6941      6936      6939      6942
      6940      6939      6941      6940      6939      6942      6941      6939      6942
      6939      6942      6943      6939      6942      6944      6939      6942      6945
      6943      6942      6944      6943      6942      6945      6944      6942      6945
      6942      6945      6946      6942      6945      6947      6942      6945      6948
      6946      6945      6947      6946      6945      6948      6947      6945      6948
      6945      6948      6949      6945      6948      6950      6945      6948      6951
      6949      6948      6950      6949      6948      6951      6950      6948      6951
      6948      6951      6952      6948      6951      6953      6948      6951      6954
      6952      6951      6953      6952      6951      6954      6953      6951      6954
      6951      6954      6955      6951      6954      6956      6951      6954      6957
      6955      6954      6956      6955      6954      6957      6956      6954      6957
      6954      6957      6958      6954      6957      6959      6954      6957      6960
      6958      6957      6959      6958      6957      6960      6959      6957      6960
      6957      6960      6961      6957      6960      6962      6957      6960      6963
      6961      6960      6962      6961      6960      6963      6962      6960      6963
      6960      6963      6964      6960      6963      6965      6960      6963      6966
      6964      6963      6965      6964      6963      6966      6965      6963      6966
      6968      6967      6969      6968      6967      6970      6968      6967      6971
      6969      6967      6970      6969      6967      6971      6970      6967      6971
      6967      6971      6972      6967      6971      6973      6967      6971      6974
      6972      6971      6973      6972      6971      6974      6973      6971      6974
      6971      6974      6975      6971      6974      6976      6971      6974      6981
      6975      6974      6976      6975      6974      6981      6976      6974      6981
      6978      6977      6979      6978      6977      6980      6978      6977      6981
      6979      6977      6980      6979      6977      6981      6980      6977      6981
      6977      6980      6982      6974      6981      6977      6980      6982      6983
      6980      6982      6984      6980      6982      6985      6983      6982      6984
      6983      6982      6985      6984      6982      6985      6982      6985      6986
      6982      6985      6987      6982      6985      6993      6986      6985      6987
      6986      6985      6993      6987      6985      6993      6985      6987      6988
      6987      6988      6989      6987      6988      6990      6989      6988      6990
      6988      6990      6991      6988      6990      6992      6988      6990      7002
      6991      6990      6992      6991      6990      7002      6992      6990      7002
      6985      6993      6994      6985      6993      6995      6985      6993      6996
      6994      6993      6995      6994      6993      6996      6995      6993      6996
      6993      6996      6997      6996      6997      6998      6996      6997      6999
      6998      6997      6999      6997      6999      7000      6997      6999      7001
      6997      6999      7046      7000      6999      7001      7000      6999      7046
      7001      6999      7046      6990      7002      7003      6990      7002      7004
      6990      7002      7005      7003      7002      7004      7003      7002      7005
      7004      7002      7005      7002      7005      7006      7002      7005      7007
      7002      7005      7008      7006      7005      7007      7006      7005      7008
      7007      7005      7008      7005      7008      7009      7005      7008      7010
      7005      7008      7011      7009      7008      7010      7009      7008      7011
      7010      7008      7011      7008      7011      7012      7008      7011      7013
      7008      7011      7014      7012      7011      7013      7012      7011      7014
      7013      7011      7014      7011      7014      7015      7011      7014      7016
      7011      7014      7017      7015      7014      7016      7015      7014      7017
      7016      7014      7017      7014      7017      7018      7014      7017      7019
      7014      7017      7020      7018      7017      7019      7018      7017      7020
      7019      7017      7020      7017      7020      7021      7017      7020      7022
      7017      7020      7025      7021      7020      7022      7021      7020      7025
      7022      7020      7025      7020      7022      7023      7020      7022      7024
      7020      7022      7025      7023      7022      7024      7023      7022      7025
      7024      7022      7025      7020      7025      7022      7020      7025      7026
      7020      7025      7027      7022      7025      7026      7022      7025      7027
      7026      7025      7027      7025      7027      7028      7025      7027      7029
      7025      7027      7030      7028      7027      7029      7028      7027      7030
      7029      7027      7030      7027      7030      7031      7027      7030      7032
      7027      7030      7033      7031      7030      7032      7031      7030      7033
      7032      7030      7033      7030      7033      7034      7030      7033      7035
      7030      7033      7036      7034      7033      7035      7034      7033      7036
      7035      7033      7036      7033      7036      7037      7033      7036      7038
      7033      7036      7039      7037      7036      7038      7037      7036      7039
      7038      7036      7039      7036      7039      7040      7036      7039      7041
      7036      7039      7042      7040      7039      7041      7040      7039      7042
      7041      7039      7042      7039      7042      7043      7039      7042      7044
      7039      7042      7045      7043      7042      7044      7043      7042      7045
      7044      7042      7045      6999      7046      7047      6999      7046      7048
      6999      7046      7049      7047      7046      7048      7047      7046      7049
      7048      7046      7049      7046      7049      7050      7046      7049      7051
      7046      7049      7052      7050      7049      7051      7050      7049      7052
      7051      7049      7052      7049      7052      7053      7049      7052      7054
      7049      7052      7055      7053      7052      7054      7053      7052      7055
      7054      7052      7055      7052      7055      7056      7052      7055      7057
      7052      7055      7058      7056      7055      7057      7056      7055      7058
      7057      7055      7058      7055      7058      7059      7055      7058      7060
      7055      7058      7061      7059      7058      7060      7059      7058      7061
      7060      7058      7061      7058      7061      7062      7058      7061      7063
      7058      7061      7064      7062      7061      7063      7062      7061      7064
      7063      7061      7064      7061      7064      7065      7061      7064      7066
      7061      7064      7067      7065      7064      7066      7065      7064      7067
      7066      7064      7067      7064      7067      7068      7064      7067      7069
      7064      7067      7070      7068      7067      7069      7068      7067      7070
      7069      7067      7070      7067      7070      7071      7067      7070      7072
      7067      7070      7073      7071      7070      7072      7071      7070      7073
      7072      7070      7073      7070      7073      7074      7070      7073      7075
      7070      7073      7076      7074      7073      7075      7074      7073      7076
      7075      7073      7076      7073      7076      7077      7073      7076      7078
      7073      7076      7079      7077      7076      7078      7077      7076      7079
      7078      7076      7079      7076      7079      7080      7076      7079      7081
      7076      7079      7082      7080      7079      7081      7080      7079      7082
      7081      7079      7082      7079      7082      7083      7079      7082      7084
      7079      7082      7085      7083      7082      7084      7083      7082      7085
      7084      7082      7085      7082      7085      7086      7082      7085      7087
      7082      7085      7088      7086      7085      7087      7086      7085      7088
      7087      7085      7088      7090      7089      7091      7090      7089      7092
      7090      7089      7093      7091      7089      7092      7091      7089      7093
      7092      7089      7093      7089      7093      7094      7089      7093      7095
      7089      7093      7096      7094      7093      7095      7094      7093      7096
      7095      7093      7096      7093      7096      7097      7093      7096      7098
      7093      7096      7103      7097      7096      7098      7097      7096      7103
      7098      7096      7103      7100      7099      7101      7100      7099      7102
      7100      7099      7103      7101      7099      7102      7101      7099      7103
      7102      7099      7103      7099      7102      7104      7096      7103      7099
      7102      7104      7105      7102      7104      7106      7102      7104      7107
      7105      7104      7106      7105      7104      7107      7106      7104      7107
      7104      7107      7108      7104      7107      7109      7104      7107      7115
      7108      7107      7109      7108      7107      7115      7109      7107      7115
      7107      7109      7110      7109      7110      7111      7109      7110      7112
      7111      7110      7112      7110      7112      7113      7110      7112      7114
      7110      7112      7124      7113      7112      7114      7113      7112      7124
      7114      7112      7124      7107      7115      7116      7107      7115      7117
      7107      7115      7118      7116      7115      7117      7116      7115      7118
      7117      7115      7118      7115      7118      7119      7118      7119      7120
      7118      7119      7121      7120      7119      7121      7119      7121      7122
      7119      7121      7123      7119      7121      7168      7122      7121      7123
      7122      7121      7168      7123      7121      7168      7112      7124      7125
      7112      7124      7126      7112      7124      7127      7125      7124      7126
      7125      7124      7127      7126      7124      7127      7124      7127      7128
      7124      7127      7129      7124      7127      7130      7128      7127      7129
      7128      7127      7130      7129      7127      7130      7127      7130      7131
      7127      7130      7132      7127      7130      7133      7131      7130      7132
      7131      7130      7133      7132      7130      7133      7130      7133      7134
      7130      7133      7135      7130      7133      7136      7134      7133      7135
      7134      7133      7136      7135      7133      7136      7133      7136      7137
      7133      7136      7138      7133      7136      7139      7137      7136      7138
      7137      7136      7139      7138      7136      7139      7136      7139      7140
      7136      7139      7141      7136      7139      7142      7140      7139      7141
      7140      7139      7142      7141      7139      7142      7139      7142      7143
      7139      7142      7144      7139      7142      7147      7143      7142      7144
      7143      7142      7147      7144      7142      7147      7142      7144      7145
      7142      7144      7146      7142      7144      7147      7145      7144      7146
      7145      7144      7147      7146      7144      7147      7142      7147      7144
      7142      7147      7148      7142      7147      7149      7144      7147      7148
      7144      7147      7149      7148      7147      7149      7147      7149      7150
      7147      7149      7151      7147      7149      7152      7150      7149      7151
      7150      7149      7152      7151      7149      7152      7149      7152      7153
      7149      7152      7154      7149      7152      7155      7153      7152      7154
      7153      7152      7155      7154      7152      7155      7152      7155      7156
      7152      7155      7157      7152      7155      7158      7156      7155      7157
      7156      7155      7158      7157      7155      7158      7155      7158      7159
      7155      7158      7160      7155      7158      7161      7159      7158      7160
      7159      7158      7161      7160      7158      7161      7158      7161      7162
      7158      7161      7163      7158      7161      7164      7162      7161      7163
      7162      7161      7164      7163      7161      7164      7161      7164      7165
      7161      7164      7166      7161      7164      7167      7165      7164      7166
      7165      7164      7167      7166      7164      7167      7121      7168      7169
      7121      7168      7170      7121      7168      7171      7169      7168      7170
      7169      7168      7171      7170      7168      7171      7168      7171      7172
      7168      7171      7173      7168      7171      7174      7172      7171      7173
      7172      7171      7174      7173      7171      7174      7171      7174      7175
      7171      7174      7176      7171      7174      7177      7175      7174      7176
      7175      7174      7177      7176      7174      7177      7174      7177      7178
      7174      7177      7179      7174      7177      7180      7178      7177      7179
      7178      7177      7180      7179      7177      7180      7177      7180      7181
      7177      7180      7182      7177      7180      7183      7181      7180      7182
      7181      7180      7183      7182      7180      7183      7180      7183      7184
      7180      7183      7185      7180      7183      7186      7184      7183      7185
      7184      7183      7186      7185      7183      7186      7183      7186      7187
      7183      7186      7188      7183      7186      7189      7187      7186      7188
      7187      7186      7189      7188      7186      7189      7186      7189      7190
      7186      7189      7191      7186      7189      7192      7190      7189      7191
      7190      7189      7192      7191      7189      7192      7189      7192      7193
      7189      7192      7194      7189      7192      7195      7193      7192      7194
      7193      7192      7195      7194      7192      7195      7192      7195      7196
      7192      7195      7197      7192      7195      7198      7196      7195      7197
      7196      7195      7198      7197      7195      7198      7195      7198      7199
      7195      7198      7200      7195      7198      7201      7199      7198      7200
      7199      7198      7201      7200      7198      7201      7198      7201      7202
      7198      7201      7203      7198      7201      7204      7202      7201      7203
      7202      7201      7204      7203      7201      7204      7201      7204      7205
      7201      7204      7206      7201      7204      7207      7205      7204      7206
      7205      7204      7207      7206      7204      7207      7204      7207      7208
      7204      7207      7209      7204      7207      7210      7208      7207      7209
      7208      7207      7210      7209      7207      7210      7212      7211      7213
      7212      7211      7214      7212      7211      7215      7213      7211      7214
      7213      7211      7215      7214      7211      7215      7211      7215      7216
      7211      7215      7217      7211      7215      7218      7216      7215      7217
      7216      7215      7218      7217      7215      7218      7215      7218      7219
      7215      7218      7220      7215      7218      7225      7219      7218      7220
      7219      7218      7225      7220      7218      7225      7222      7221      7223
      7222      7221      7224      7222      7221      7225      7223      7221      7224
      7223      7221      7225      7224      7221      7225      7221      7224      7226
      7218      7225      7221      7224      7226      7227      7224      7226      7228
      7224      7226      7229      7227      7226      7228      7227      7226      7229
      7228      7226      7229      7226      7229      7230      7226      7229      7231
      7226      7229      7237      7230      7229      7231      7230      7229      7237
      7231      7229      7237      7229      7231      7232      7231      7232      7233
      7231      7232      7234      7233      7232      7234      7232      7234      7235
      7232      7234      7236      7232      7234      7246      7235      7234      7236
      7235      7234      7246      7236      7234      7246      7229      7237      7238
      7229      7237      7239      7229      7237      7240      7238      7237      7239
      7238      7237      7240      7239      7237      7240      7237      7240      7241
      7240      7241      7242      7240      7241      7243      7242      7241      7243
      7241      7243      7244      7241      7243      7245      7241      7243      7290
      7244      7243      7245      7244      7243      7290      7245      7243      7290
      7234      7246      7247      7234      7246      7248      7234      7246      7249
      7247      7246      7248      7247      7246      7249      7248      7246      7249
      7246      7249      7250      7246      7249      7251      7246      7249      7252
      7250      7249      7251      7250      7249      7252      7251      7249      7252
      7249      7252      7253      7249      7252      7254      7249      7252      7255
      7253      7252      7254      7253      7252      7255      7254      7252      7255
      7252      7255      7256      7252      7255      7257      7252      7255      7258
      7256      7255      7257      7256      7255      7258      7257      7255      7258
      7255      7258      7259      7255      7258      7260      7255      7258      7261
      7259      7258      7260      7259      7258      7261      7260      7258      7261
      7258      7261      7262      7258      7261      7263      7258      7261      7264
      7262      7261      7263      7262      7261      7264      7263      7261      7264
      7261      7264      7265      7261      7264      7266      7261      7264      7269
      7265      7264      7266      7265      7264      7269      7266      7264      7269
      7264      7266      7267      7264      7266      7268      7264      7266      7269
      7267      7266      7268      7267      7266      7269      7268      7266      7269
      7264      7269      7266      7264      7269      7270      7264      7269      7271
      7266      7269      7270      7266      7269      7271      7270      7269      7271
      7269      7271      7272      7269      7271      7273      7269      7271      7274
      7272      7271      7273      7272      7271      7274      7273      7271      7274
      7271      7274      7275      7271      7274      7276      7271      7274      7277
      7275      7274      7276      7275      7274      7277      7276      7274      7277
      7274      7277      7278      7274      7277      7279      7274      7277      7280
      7278      7277      7279      7278      7277      7280      7279      7277      7280
      7277      7280      7281      7277      7280      7282      7277      7280      7283
      7281      7280      7282      7281      7280      7283      7282      7280      7283
      7280      7283      7284      7280      7283      7285      7280      7283      7286
      7284      7283      7285      7284      7283      7286      7285      7283      7286
      7283      7286      7287      7283      7286      7288      7283      7286      7289
      7287      7286      7288      7287      7286      7289      7288      7286      7289
      7243      7290      7291      7243      7290      7292      7243      7290      7293
      7291      7290      7292      7291      7290      7293      7292      7290      7293
      7290      7293      7294      7290      7293      7295      7290      7293      7296
      7294      7293      7295      7294      7293      7296      7295      7293      7296
      7293      7296      7297      7293      7296      7298      7293      7296      7299
      7297      7296      7298      7297      7296      7299      7298      7296      7299
      7296      7299      7300      7296      7299      7301      7296      7299      7302
      7300      7299      7301      7300      7299      7302      7301      7299      7302
      7299      7302      7303      7299      7302      7304      7299      7302      7305
      7303      7302      7304      7303      7302      7305      7304      7302      7305
      7302      7305      7306      7302      7305      7307      7302      7305      7308
      7306      7305      7307      7306      7305      7308      7307      7305      7308
      7305      7308      7309      7305      7308      7310      7305      7308      7311
      7309      7308      7310      7309      7308      7311      7310      7308      7311
      7308      7311      7312      7308      7311      7313      7308      7311      7314
      7312      7311      7313      7312      7311      7314      7313      7311      7314
      7311      7314      7315      7311      7314      7316      7311      7314      7317
      7315      7314      7316      7315      7314      7317      7316      7314      7317
      7314      7317      7318      7314      7317      7319      7314      7317      7320
      7318      7317      7319      7318      7317      7320      7319      7317      7320
      7317      7320      7321      7317      7320      7322      7317      7320      7323
      7321      7320      7322      7321      7320      7323      7322      7320      7323
      7320      7323      7324      7320      7323      7325      7320      7323      7326
      7324      7323      7325      7324      7323      7326      7325      7323      7326
      7323      7326      7327      7323      7326      7328      7323      7326      7329
      7327      7326      7328      7327      7326      7329      7328      7326      7329
      7326      7329      7330      7326      7329      7331      7326      7329      7332
      7330      7329      7331      7330      7329      7332      7331      7329      7332
      7334      7333      7335      7334      7333      7336      7334      7333      7337
      7335      7333      7336      7335      7333      7337      7336      7333      7337
      7333      7337      7338      7333      7337      7339      7333      7337      7340
      7338      7337      7339      7338      7337      7340      7339      7337      7340
      7337      7340      7341      7337      7340      7342      7337      7340      7347
      7341      7340      7342      7341      7340      7347      7342      7340      7347
      7344      7343      7345      7344      7343      7346      7344      7343      7347
      7345      7343      7346      7345      7343      7347      7346      7343      7347
      7343      7346      7348      7340      7347      7343      7346      7348      7349
      7346      7348      7350      7346      7348      7351      7349      7348      7350
      7349      7348      7351      7350      7348      7351      7348      7351      7352
      7348      7351      7353      7348      7351      7359      7352      7351      7353
      7352      7351      7359      7353      7351      7359      7351      7353      7354
      7353      7354      7355      7353      7354      7356      7355      7354      7356
      7354      7356      7357      7354      7356      7358      7354      7356      7368
      7357      7356      7358      7357      7356      7368      7358      7356      7368
      7351      7359      7360      7351      7359      7361      7351      7359      7362
      7360      7359      7361      7360      7359      7362      7361      7359      7362
      7359      7362      7363      7362      7363      7364      7362      7363      7365
      7364      7363      7365      7363      7365      7366      7363      7365      7367
      7363      7365      7412      7366      7365      7367      7366      7365      7412
      7367      7365      7412      7356      7368      7369      7356      7368      7370
      7356      7368      7371      7369      7368      7370      7369      7368      7371
      7370      7368      7371      7368      7371      7372      7368      7371      7373
      7368      7371      7374      7372      7371      7373      7372      7371      7374
      7373      7371      7374      7371      7374      7375      7371      7374      7376
      7371      7374      7377      7375      7374      7376      7375      7374      7377
      7376      7374      7377      7374      7377      7378      7374      7377      7379
      7374      7377      7380      7378      7377      7379      7378      7377      7380
      7379      7377      7380      7377      7380      7381      7377      7380      7382
      7377      7380      7383      7381      7380      7382      7381      7380      7383
      7382      7380      7383      7380      7383      7384      7380      7383      7385
      7380      7383      7386      7384      7383      7385      7384      7383      7386
      7385      7383      7386      7383      7386      7387      7383      7386      7388
      7383      7386      7391      7387      7386      7388      7387      7386      7391
      7388      7386      7391      7386      7388      7389      7386      7388      7390
      7386      7388      7391      7389      7388      7390      7389      7388      7391
      7390      7388      7391      7386      7391      7388      7386      7391      7392
      7386      7391      7393      7388      7391      7392      7388      7391      7393
      7392      7391      7393      7391      7393      7394      7391      7393      7395
      7391      7393      7396      7394      7393      7395      7394      7393      7396
      7395      7393      7396      7393      7396      7397      7393      7396      7398
      7393      7396      7399      7397      7396      7398      7397      7396      7399
      7398      7396      7399      7396      7399      7400      7396      7399      7401
      7396      7399      7402      7400      7399      7401      7400      7399      7402
      7401      7399      7402      7399      7402      7403      7399      7402      7404
      7399      7402      7405      7403      7402      7404      7403      7402      7405
      7404      7402      7405      7402      7405      7406      7402      7405      7407
      7402      7405      7408      7406      7405      7407      7406      7405      7408
      7407      7405      7408      7405      7408      7409      7405      7408      7410
      7405      7408      7411      7409      7408      7410      7409      7408      7411
      7410      7408      7411      7365      7412      7413      7365      7412      7414
      7365      7412      7415      7413      7412      7414      7413      7412      7415
      7414      7412      7415      7412      7415      7416      7412      7415      7417
      7412      7415      7418      7416      7415      7417      7416      7415      7418
      7417      7415      7418      7415      7418      7419      7415      7418      7420
      7415      7418      7421      7419      7418      7420      7419      7418      7421
      7420      7418      7421      7418      7421      7422      7418      7421      7423
      7418      7421      7424      7422      7421      7423      7422      7421      7424
      7423      7421      7424      7421      7424      7425      7421      7424      7426
      7421      7424      7427      7425      7424      7426      7425      7424      7427
      7426      7424      7427      7424      7427      7428      7424      7427      7429
      7424      7427      7430      7428      7427      7429      7428      7427      7430
      7429      7427      7430      7427      7430      7431      7427      7430      7432
      7427      7430      7433      7431      7430      7432      7431      7430      7433
      7432      7430      7433      7430      7433      7434      7430      7433      7435
      7430      7433      7436      7434      7433      7435      7434      7433      7436
      7435      7433      7436      7433      7436      7437      7433      7436      7438
      7433      7436      7439      7437      7436      7438      7437      7436      7439
      7438      7436      7439      7436      7439      7440      7436      7439      7441
      7436      7439      7442      7440      7439      7441      7440      7439      7442
      7441      7439      7442      7439      7442      7443      7439      7442      7444
      7439      7442      7445      7443      7442      7444      7443      7442      7445
      7444      7442      7445      7442      7445      7446      7442      7445      7447
      7442      7445      7448      7446      7445      7447      7446      7445      7448
      7447      7445      7448      7445      7448      7449      7445      7448      7450
      7445      7448      7451      7449      7448      7450      7449      7448      7451
      7450      7448      7451      7448      7451      7452      7448      7451      7453
      7448      7451      7454      7452      7451      7453      7452      7451      7454
      7453      7451      7454      7456      7455      7457      7456      7455      7458
      7456      7455      7460      7457      7455      7458      7457      7455      7460
      7458      7455      7460      7455      7458      7459      7455      7460      7461
      7455      7460      7462      7455      7460      7464      7461      7460      7462
      7461      7460      7464      7462      7460      7464      7460      7462      7463
      7460      7464      7465      7460      7464      7466      7460      7464      7471
      7465      7464      7466      7465      7464      7471      7466      7464      7471
      7468      7467      7469      7468      7467      7470      7468      7467      7471
      7469      7467      7470      7469      7467      7471      7470      7467      7471
      7467      7470      7472      7464      7471      7467      7470      7472      7473
      7470      7472      7474      7470      7472      7475      7473      7472      7474
      7473      7472      7475      7474      7472      7475      7472      7475      7476
      7472      7475      7477      7472      7475      7483      7476      7475      7477
      7476      7475      7483      7477      7475      7483      7475      7477      7478
      7477      7478      7479      7477      7478      7480      7479      7478      7480
      7478      7480      7481      7478      7480      7482      7478      7480      7492
      7481      7480      7482      7481      7480      7492      7482      7480      7492
      7475      7483      7484      7475      7483      7485      7475      7483      7486
      7484      7483      7485      7484      7483      7486      7485      7483      7486
      7483      7486      7487      7486      7487      7488      7486      7487      7489
      7488      7487      7489      7487      7489      7490      7487      7489      7491
      7487      7489      7536      7490      7489      7491      7490      7489      7536
      7491      7489      7536      7480      7492      7493      7480      7492      7494
      7480      7492      7495      7493      7492      7494      7493      7492      7495
      7494      7492      7495      7492      7495      7496      7492      7495      7497
      7492      7495      7498      7496      7495      7497      7496      7495      7498
      7497      7495      7498      7495      7498      7499      7495      7498      7500
      7495      7498      7501      7499      7498      7500      7499      7498      7501
      7500      7498      7501      7498      7501      7502      7498      7501      7503
      7498      7501      7504      7502      7501      7503      7502      7501      7504
      7503      7501      7504      7501      7504      7505      7501      7504      7506
      7501      7504      7507      7505      7504      7506      7505      7504      7507
      7506      7504      7507      7504      7507      7508      7504      7507      7509
      7504      7507      7510      7508      7507      7509      7508      7507      7510
      7509      7507      7510      7507      7510      7511      7507      7510      7512
      7507      7510      7515      7511      7510      7512      7511      7510      7515
      7512      7510      7515      7510      7512      7513      7510      7512      7514
      7510      7512      7515      7513      7512      7514      7513      7512      7515
      7514      7512      7515      7510      7515      7512      7510      7515      7516
      7510      7515      7517      7512      7515      7516      7512      7515      7517
      7516      7515      7517      7515      7517      7518      7515      7517      7519
      7515      7517      7520      7518      7517      7519      7518      7517      7520
      7519      7517      7520      7517      7520      7521      7517      7520      7522
      7517      7520      7523      7521      7520      7522      7521      7520      7523
      7522      7520      7523      7520      7523      7524      7520      7523      7525
      7520      7523      7526      7524      7523      7525      7524      7523      7526
      7525      7523      7526      7523      7526      7527      7523      7526      7528
      7523      7526      7529      7527      7526      7528      7527      7526      7529
      7528      7526      7529      7526      7529      7530      7526      7529      7531
      7526      7529      7532      7530      7529      7531      7530      7529      7532
      7531      7529      7532      7529      7532      7533      7529      7532      7534
      7529      7532      7535      7533      7532      7534      7533      7532      7535
      7534      7532      7535      7489      7536      7537      7489      7536      7538
      7489      7536      7539      7537      7536      7538      7537      7536      7539
      7538      7536      7539      7536      7539      7540      7536      7539      7541
      7536      7539      7542      7540      7539      7541      7540      7539      7542
      7541      7539      7542      7539      7542      7543      7539      7542      7544
      7539      7542      7545      7543      7542      7544      7543      7542      7545
      7544      7542      7545      7542      7545      7546      7542      7545      7547
      7542      7545      7548      7546      7545      7547      7546      7545      7548
      7547      7545      7548      7545      7548      7549      7545      7548      7550
      7545      7548      7551      7549      7548      7550      7549      7548      7551
      7550      7548      7551      7548      7551      7552      7548      7551      7553
      7548      7551      7554      7552      7551      7553      7552      7551      7554
      7553      7551      7554      7551      7554      7555      7551      7554      7556
      7551      7554      7557      7555      7554      7556      7555      7554      7557
      7556      7554      7557      7554      7557      7558      7554      7557      7559
      7554      7557      7560      7558      7557      7559      7558      7557      7560
      7559      7557      7560      7557      7560      7561      7557      7560      7562
      7557      7560      7563      7561      7560      7562      7561      7560      7563
      7562      7560      7563      7560      7563      7564      7560      7563      7565
      7560      7563      7566      7564      7563      7565      7564      7563      7566
      7565      7563      7566      7563      7566      7567      7563      7566      7568
      7563      7566      7569      7567      7566      7568      7567      7566      7569
      7568      7566      7569      7566      7569      7570      7566      7569      7571
      7566      7569      7572      7570      7569      7571      7570      7569      7572
      7571      7569      7572      7569      7572      7573      7569      7572      7574
      7569      7572      7575      7573      7572      7574      7573      7572      7575
      7574      7572      7575      7572      7575      7576      7572      7575      7577
      7572      7575      7578      7576      7575      7577      7576      7575      7578
      7577      7575      7578      7580      7579      7581      7580      7579      7582
      7580      7579      7583      7581      7579      7582      7581      7579      7583
      7582      7579      7583      7579      7583      7584      7579      7583      7585
      7579      7583      7586      7584      7583      7585      7584      7583      7586
      7585      7583      7586      7583      7586      7587      7583      7586      7588
      7583      7586      7593      7587      7586      7588      7587      7586      7593
      7588      7586      7593      7590      7589      7591      7590      7589      7592
      7590      7589      7593      7591      7589      7592      7591      7589      7593
      7592      7589      7593      7589      7592      7594      7586      7593      7589
      7592      7594      7595      7592      7594      7596      7592      7594      7597
      7595      7594      7596      7595      7594      7597      7596      7594      7597
      7594      7597      7598      7594      7597      7599      7594      7597      7605
      7598      7597      7599      7598      7597      7605      7599      7597      7605
      7597      7599      7600      7599      7600      7601      7599      7600      7602
      7601      7600      7602      7600      7602      7603      7600      7602      7604
      7600      7602      7614      7603      7602      7604      7603      7602      7614
      7604      7602      7614      7597      7605      7606      7597      7605      7607
      7597      7605      7608      7606      7605      7607      7606      7605      7608
      7607      7605      7608      7605      7608      7609      7608      7609      7610
      7608      7609      7611      7610      7609      7611      7609      7611      7612
      7609      7611      7613      7609      7611      7661      7612      7611      7613
      7612      7611      7661      7613      7611      7661      7602      7614      7615
      7602      7614      7616      7602      7614      7617      7615      7614      7616
      7615      7614      7617      7616      7614      7617      7614      7617      7618
      7614      7617      7619      7614      7617      7620      7618      7617      7619
      7618      7617      7620      7619      7617      7620      7617      7620      7621
      7617      7620      7622      7617      7620      7623      7621      7620      7622
      7621      7620      7623      7622      7620      7623      7620      7623      7624
      7620      7623      7625      7620      7623      7626      7624      7623      7625
      7624      7623      7626      7625      7623      7626      7623      7626      7627
      7623      7626      7628      7623      7626      7629      7627      7626      7628
      7627      7626      7629      7628      7626      7629      7626      7629      7630
      7626      7629      7631      7626      7629      7632      7630      7629      7631
      7630      7629      7632      7631      7629      7632      7629      7632      7633
      7629      7632      7634      7633      7632      7634      7632      7634      7635
      7632      7634      7636      7635      7634      7636      7634      7636      7637
      7634      7636      7638      7634      7636      7639      7637      7636      7638
      7637      7636      7639      7638      7636      7639      7636      7639      7640
      7636      7639      7641      7636      7639      7642      7640      7639      7641
      7640      7639      7642      7641      7639      7642      7639      7642      7643
      7639      7642      7644      7639      7642      7645      7643      7642      7644
      7643      7642      7645      7644      7642      7645      7642      7645      7646
      7642      7645      7647      7642      7645      7648      7646      7645      7647
      7646      7645      7648      7647      7645      7648      7645      7648      7649
      7645      7648      7650      7645      7648      7651      7649      7648      7650
      7649      7648      7651      7650      7648      7651      7648      7651      7652
      7648      7651      7653      7648      7651      7654      7652      7651      7653
      7652      7651      7654      7653      7651      7654      7651      7654      7655
      7651      7654      7656      7651      7654      7657      7655      7654      7656
      7655      7654      7657      7656      7654      7657      7654      7657      7658
      7654      7657      7659      7654      7657      7660      7658      7657      7659
      7658      7657      7660      7659      7657      7660      7611      7661      7662
      7611      7661      7663      7611      7661      7664      7662      7661      7663
      7662      7661      7664      7663      7661      7664      7661      7664      7665
      7661      7664      7666      7661      7664      7667      7665      7664      7666
      7665      7664      7667      7666      7664      7667      7664      7667      7668
      7664      7667      7669      7664      7667      7670      7668      7667      7669
      7668      7667      7670      7669      7667      7670      7667      7670      7671
      7667      7670      7672      7667      7670      7673      7671      7670      7672
      7671      7670      7673      7672      7670      7673      7670      7673      7674
      7670      7673      7675      7670      7673      7676      7674      7673      7675
      7674      7673      7676      7675      7673      7676      7673      7676      7677
      7673      7676      7678      7673      7676      7679      7677      7676      7678
      7677      7676      7679      7678      7676      7679      7676      7679      7680
      7676      7679      7681      7676      7679      7682      7680      7679      7681
      7680      7679      7682      7681      7679      7682      7679      7682      7683
      7679      7682      7684      7679      7682      7685      7683      7682      7684
      7683      7682      7685      7684      7682      7685      7682      7685      7686
      7682      7685      7687      7682      7685      7688      7686      7685      7687
      7686      7685      7688      7687      7685      7688      7685      7688      7689
      7685      7688      7690      7685      7688      7691      7689      7688      7690
      7689      7688      7691      7690      7688      7691      7688      7691      7692
      7688      7691      7693      7688      7691      7694      7692      7691      7693
      7692      7691      7694      7693      7691      7694      7691      7694      7695
      7691      7694      7696      7691      7694      7697      7695      7694      7696
      7695      7694      7697      7696      7694      7697      7694      7697      7698
      7694      7697      7699      7694      7697      7700      7698      7697      7699
      7698      7697      7700      7699      7697      7700      7697      7700      7701
      7697      7700      7702      7697      7700      7703      7701      7700      7702
      7701      7700      7703      7702      7700      7703      7705      7704      7706
      7705      7704      7710      7705      7704      7715      7706      7704      7710
      7706      7704      7715      7710      7704      7715      7708      7707      7709
      7708      7707      7710      7708      7707      7711      7709      7707      7710
      7709      7707      7711      7710      7707      7711      7704      7710      7707
      7707      7711      7712      7711      7712      7713      7711      7712      7714
      7711      7712      7747      7713      7712      7714      7713      7712      7747
      7714      7712      7747      7704      7715      7716      7704      7715      7717
      7704      7715      7719      7716      7715      7717      7716      7715      7719
      7717      7715      7719      7715      7717      7718      7715      7719      7720
      7715      7719      7721      7715      7719      7725      7720      7719      7721
      7720      7719      7725      7721      7719      7725      7723      7722      7724
      7723      7722      7725      7723      7722      7726      7724      7722      7725
      7724      7722      7726      7725      7722      7726      7719      7725      7722
      7722      7726      7727      7726      7727      7728      7726      7727      7729
      7726      7727      7730      7728      7727      7729      7728      7727      7730
      7729      7727      7730      7727      7730      7731      7727      7730      7732
      7727      7730      7738      7731      7730      7732      7731      7730      7738
      7732      7730      7738      7730      7732      7733      7732      7733      7734
      7732      7733      7735      7734      7733      7735      7733      7735      7736
      7733      7735      7737      7733      7735      7764      7736      7735      7737
      7736      7735      7764      7737      7735      7764      7730      7738      7739
      7730      7738      7740      7730      7738      7741      7739      7738      7740
      7739      7738      7741      7740      7738      7741      7738      7741      7742
      7741      7742      7743      7741      7742      7744      7743      7742      7744
      7742      7744      7745      7742      7744      7746      7742      7744      7811
      7745      7744      7746      7745      7744      7811      7746      7744      7811
      7712      7747      7748      7712      7747      7749      7712      7747      7755
      7748      7747      7749      7748      7747      7755      7749      7747      7755
      7747      7749      7750      7749      7750      7751      7749      7750      7752
      7751      7750      7752      7750      7752      7753      7750      7752      7754
      7750      7752      7854      7753      7752      7754      7753      7752      7854
      7754      7752      7854      7747      7755      7756      7747      7755      7757
      7747      7755      7758      7756      7755      7757      7756      7755      7758
      7757      7755      7758      7755      7758      7759      7758      7759      7760
      7758      7759      7761      7760      7759      7761      7759      7761      7762
      7759      7761      7763      7759      7761      7901      7762      7761      7763
      7762      7761      7901      7763      7761      7901      7735      7764      7765
      7735      7764      7766      7735      7764      7767      7765      7764      7766
      7765      7764      7767      7766      7764      7767      7764      7767      7768
      7764      7767      7769      7764      7767      7770      7768      7767      7769
      7768      7767      7770      7769      7767      7770      7767      7770      7771
      7767      7770      7772      7767      7770      7773      7771      7770      7772
      7771      7770      7773      7772      7770      7773      7770      7773      7774
      7770      7773      7775      7770      7773      7776      7774      7773      7775
      7774      7773      7776      7775      7773      7776      7773      7776      7777
      7773      7776      7778      7773      7776      7779      7777      7776      7778
      7777      7776      7779      7778      7776      7779      7776      7779      7780
      7776      7779      7781      7776      7779      7782      7780      7779      7781
      7780      7779      7782      7781      7779      7782      7779      7782      7783
      7779      7782      7784      7779      7782      7785      7783      7782      7784
      7783      7782      7785      7784      7782      7785      7782      7785      7786
      7782      7785      7787      7782      7785      7788      7786      7785      7787
      7786      7785      7788      7787      7785      7788      7785      7788      7789
      7785      7788      7790      7789      7788      7790      7788      7790      7791
      7788      7790      7792      7791      7790      7792      7790      7792      7793
      7790      7792      7794      7790      7792      7795      7793      7792      7794
      7793      7792      7795      7794      7792      7795      7792      7795      7796
      7792      7795      7797      7792      7795      7798      7796      7795      7797
      7796      7795      7798      7797      7795      7798      7795      7798      7799
      7795      7798      7800      7795      7798      7801      7799      7798      7800
      7799      7798      7801      7800      7798      7801      7798      7801      7802
      7798      7801      7803      7798      7801      7804      7802      7801      7803
      7802      7801      7804      7803      7801      7804      7801      7804      7805
      7801      7804      7806      7801      7804      7807      7805      7804      7806
      7805      7804      7807      7806      7804      7807      7804      7807      7808
      7804      7807      7809      7804      7807      7810      7808      7807      7809
      7808      7807      7810      7809      7807      7810      7744      7811      7812
      7744      7811      7813      7744      7811      7814      7812      7811      7813
      7812      7811      7814      7813      7811      7814      7811      7814      7815
      7811      7814      7816      7811      7814      7817      7815      7814      7816
      7815      7814      7817      7816      7814      7817      7814      7817      7818
      7814      7817      7819      7814      7817      7820      7818      7817      7819
      7818      7817      7820      7819      7817      7820      7817      7820      7821
      7817      7820      7822      7817      7820      7823      7821      7820      7822
      7821      7820      7823      7822      7820      7823      7820      7823      7824
      7820      7823      7825      7820      7823      7826      7824      7823      7825
      7824      7823      7826      7825      7823      7826      7823      7826      7827
      7823      7826      7828      7823      7826      7829      7827      7826      7828
      7827      7826      7829      7828      7826      7829      7826      7829      7830
      7826      7829      7831      7826      7829      7832      7830      7829      7831
      7830      7829      7832      7831      7829      7832      7829      7832      7833
      7829      7832      7834      7829      7832      7835      7833      7832      7834
      7833      7832      7835      7834      7832      7835      7832      7835      7836
      7832      7835      7837      7832      7835      7838      7836      7835      7837
      7836      7835      7838      7837      7835      7838      7835      7838      7839
      7835      7838      7840      7835      7838      7841      7839      7838      7840
      7839      7838      7841      7840      7838      7841      7838      7841      7842
      7838      7841      7843      7838      7841      7844      7842      7841      7843
      7842      7841      7844      7843      7841      7844      7841      7844      7845
      7841      7844      7846      7841      7844      7847      7845      7844      7846
      7845      7844      7847      7846      7844      7847      7844      7847      7848
      7844      7847      7849      7844      7847      7850      7848      7847      7849
      7848      7847      7850      7849      7847      7850      7847      7850      7851
      7847      7850      7852      7847      7850      7853      7851      7850      7852
      7851      7850      7853      7852      7850      7853      7752      7854      7855
      7752      7854      7856      7752      7854      7857      7855      7854      7856
      7855      7854      7857      7856      7854      7857      7854      7857      7858
      7854      7857      7859      7854      7857      7860      7858      7857      7859
      7858      7857      7860      7859      7857      7860      7857      7860      7861
      7857      7860      7862      7857      7860      7863      7861      7860      7862
      7861      7860      7863      7862      7860      7863      7860      7863      7864
      7860      7863      7865      7860      7863      7866      7864      7863      7865
      7864      7863      7866      7865      7863      7866      7863      7866      7867
      7863      7866      7868      7863      7866      7869      7867      7866      7868
      7867      7866      7869      7868      7866      7869      7866      7869      7870
      7866      7869      7871      7866      7869      7872      7870      7869      7871
      7870      7869      7872      7871      7869      7872      7869      7872      7873
      7869      7872      7874      7869      7872      7875      7873      7872      7874
      7873      7872      7875      7874      7872      7875      7872      7875      7876
      7872      7875      7877      7872      7875      7878      7876      7875      7877
      7876      7875      7878      7877      7875      7878      7875      7878      7879
      7875      7878      7880      7879      7878      7880      7878      7880      7881
      7878      7880      7882      7881      7880      7882      7880      7882      7883
      7880      7882      7884      7880      7882      7885      7883      7882      7884
      7883      7882      7885      7884      7882      7885      7882      7885      7886
      7882      7885      7887      7882      7885      7888      7886      7885      7887
      7886      7885      7888      7887      7885      7888      7885      7888      7889
      7885      7888      7890      7885      7888      7891      7889      7888      7890
      7889      7888      7891      7890      7888      7891      7888      7891      7892
      7888      7891      7893      7888      7891      7894      7892      7891      7893
      7892      7891      7894      7893      7891      7894      7891      7894      7895
      7891      7894      7896      7891      7894      7897      7895      7894      7896
      7895      7894      7897      7896      7894      7897      7894      7897      7898
      7894      7897      7899      7894      7897      7900      7898      7897      7899
      7898      7897      7900      7899      7897      7900      7761      7901      7902
      7761      7901      7903      7761      7901      7904      7902      7901      7903
      7902      7901      7904      7903      7901      7904      7901      7904      7905
      7901      7904      7906      7901      7904      7907      7905      7904      7906
      7905      7904      7907      7906      7904      7907      7904      7907      7908
      7904      7907      7909      7904      7907      7910      7908      7907      7909
      7908      7907      7910      7909      7907      7910      7907      7910      7911
      7907      7910      7912      7907      7910      7913      7911      7910      7912
      7911      7910      7913      7912      7910      7913      7910      7913      7914
      7910      7913      7915      7910      7913      7916      7914      7913      7915
      7914      7913      7916      7915      7913      7916      7913      7916      7917
      7913      7916      7918      7913      7916      7919      7917      7916      7918
      7917      7916      7919      7918      7916      7919      7916      7919      7920
      7916      7919      7921      7916      7919      7922      7920      7919      7921
      7920      7919      7922      7921      7919      7922      7919      7922      7923
      7919      7922      7924      7919      7922      7925      7923      7922      7924
      7923      7922      7925      7924      7922      7925      7922      7925      7926
      7922      7925      7927      7922      7925      7928      7926      7925      7927
      7926      7925      7928      7927      7925      7928      7925      7928      7929
      7925      7928      7930      7925      7928      7931      7929      7928      7930
      7929      7928      7931      7930      7928      7931      7928      7931      7932
      7928      7931      7933      7928      7931      7934      7932      7931      7933
      7932      7931      7934      7933      7931      7934      7931      7934      7935
      7931      7934      7936      7931      7934      7937      7935      7934      7936
      7935      7934      7937      7936      7934      7937      7934      7937      7938
      7934      7937      7939      7934      7937      7940      7938      7937      7939
      7938      7937      7940      7939      7937      7940      7937      7940      7941
      7937      7940      7942      7937      7940      7943      7941      7940      7942
      7941      7940      7943      7942      7940      7943      7945      7944      7946
      7945      7944      7947      7945      7944      7948      7946      7944      7947
      7946      7944      7948      7947      7944      7948      7944      7948      7949
      7944      7948      7950      7944      7948      7951      7949      7948      7950
      7949      7948      7951      7950      7948      7951      7948      7951      7952
      7948      7951      7953      7948      7951      7958      7952      7951      7953
      7952      7951      7958      7953      7951      7958      7955      7954      7956
      7955      7954      7957      7955      7954      7958      7956      7954      7957
      7956      7954      7958      7957      7954      7958      7954      7957      7959
      7951      7958      7954      7957      7959      7960      7957      7959      7961
      7957      7959      7962      7960      7959      7961      7960      7959      7962
      7961      7959      7962      7959      7962      7963      7959      7962      7964
      7959      7962      7970      7963      7962      7964      7963      7962      7970
      7964      7962      7970      7962      7964      7965      7964      7965      7966
      7964      7965      7967      7966      7965      7967      7965      7967      7968
      7965      7967      7969      7965      7967      7979      7968      7967      7969
      7968      7967      7979      7969      7967      7979      7962      7970      7971
      7962      7970      7972      7962      7970      7973      7971      7970      7972
      7971      7970      7973      7972      7970      7973      7970      7973      7974
      7973      7974      7975      7973      7974      7976      7975      7974      7976
      7974      7976      7977      7974      7976      7978      7974      7976      8026
      7977      7976      7978      7977      7976      8026      7978      7976      8026
      7967      7979      7980      7967      7979      7981      7967      7979      7982
      7980      7979      7981      7980      7979      7982      7981      7979      7982
      7979      7982      7983      7979      7982      7984      7979      7982      7985
      7983      7982      7984      7983      7982      7985      7984      7982      7985
      7982      7985      7986      7982      7985      7987      7982      7985      7988
      7986      7985      7987      7986      7985      7988      7987      7985      7988
      7985      7988      7989      7985      7988      7990      7985      7988      7991
      7989      7988      7990      7989      7988      7991      7990      7988      7991
      7988      7991      7992      7988      7991      7993      7988      7991      7994
      7992      7991      7993      7992      7991      7994      7993      7991      7994
      7991      7994      7995      7991      7994      7996      7991      7994      7997
      7995      7994      7996      7995      7994      7997      7996      7994      7997
      7994      7997      7998      7994      7997      7999      7998      7997      7999
      7997      7999      8000      7997      7999      8001      8000      7999      8001
      7999      8001      8002      7999      8001      8003      7999      8001      8004
      8002      8001      8003      8002      8001      8004      8003      8001      8004
      8001      8004      8005      8001      8004      8006      8001      8004      8007
      8005      8004      8006      8005      8004      8007      8006      8004      8007
      8004      8007      8008      8004      8007      8009      8004      8007      8010
      8008      8007      8009      8008      8007      8010      8009      8007      8010
      8007      8010      8011      8007      8010      8012      8007      8010      8013
      8011      8010      8012      8011      8010      8013      8012      8010      8013
      8010      8013      8014      8010      8013      8015      8010      8013      8016
      8014      8013      8015      8014      8013      8016      8015      8013      8016
      8013      8016      8017      8013      8016      8018      8013      8016      8019
      8017      8016      8018      8017      8016      8019      8018      8016      8019
      8016      8019      8020      8016      8019      8021      8016      8019      8022
      8020      8019      8021      8020      8019      8022      8021      8019      8022
      8019      8022      8023      8019      8022      8024      8019      8022      8025
      8023      8022      8024      8023      8022      8025      8024      8022      8025
      7976      8026      8027      7976      8026      8028      7976      8026      8029
      8027      8026      8028      8027      8026      8029      8028      8026      8029
      8026      8029      8030      8026      8029      8031      8026      8029      8032
      8030      8029      8031      8030      8029      8032      8031      8029      8032
      8029      8032      8033      8029      8032      8034      8029      8032      8035
      8033      8032      8034      8033      8032      8035      8034      8032      8035
      8032      8035      8036      8032      8035      8037      8032      8035      8038
      8036      8035      8037      8036      8035      8038      8037      8035      8038
      8035      8038      8039      8035      8038      8040      8035      8038      8041
      8039      8038      8040      8039      8038      8041      8040      8038      8041
      8038      8041      8042      8038      8041      8043      8038      8041      8044
      8042      8041      8043      8042      8041      8044      8043      8041      8044
      8041      8044      8045      8041      8044      8046      8041      8044      8047
      8045      8044      8046      8045      8044      8047      8046      8044      8047
      8044      8047      8048      8044      8047      8049      8044      8047      8050
      8048      8047      8049      8048      8047      8050      8049      8047      8050
      8047      8050      8051      8047      8050      8052      8047      8050      8053
      8051      8050      8052      8051      8050      8053      8052      8050      8053
      8050      8053      8054      8050      8053      8055      8050      8053      8056
      8054      8053      8055      8054      8053      8056      8055      8053      8056
      8053      8056      8057      8053      8056      8058      8053      8056      8059
      8057      8056      8058      8057      8056      8059      8058      8056      8059
      8056      8059      8060      8056      8059      8061      8056      8059      8062
      8060      8059      8061      8060      8059      8062      8061      8059      8062
      8059      8062      8063      8059      8062      8064      8059      8062      8065
      8063      8062      8064      8063      8062      8065      8064      8062      8065
      8062      8065      8066      8062      8065      8067      8062      8065      8068
      8066      8065      8067      8066      8065      8068      8067      8065      8068
      8070      8069      8071      8070      8069      8072      8070      8069      8073
      8071      8069      8072      8071      8069      8073      8072      8069      8073
      8069      8073      8074      8069      8073      8075      8069      8073      8076
      8074      8073      8075      8074      8073      8076      8075      8073      8076
      8073      8076      8077      8073      8076      8078      8073      8076      8083
      8077      8076      8078      8077      8076      8083      8078      8076      8083
      8080      8079      8081      8080      8079      8082      8080      8079      8083
      8081      8079      8082      8081      8079      8083      8082      8079      8083
      8079      8082      8084      8076      8083      8079      8082      8084      8085
      8082      8084      8086      8082      8084      8087      8085      8084      8086
      8085      8084      8087      8086      8084      8087      8084      8087      8088
      8084      8087      8089      8084      8087      8095      8088      8087      8089
      8088      8087      8095      8089      8087      8095      8087      8089      8090
      8089      8090      8091      8089      8090      8092      8091      8090      8092
      8090      8092      8093      8090      8092      8094      8090      8092      8104
      8093      8092      8094      8093      8092      8104      8094      8092      8104
      8087      8095      8096      8087      8095      8097      8087      8095      8098
      8096      8095      8097      8096      8095      8098      8097      8095      8098
      8095      8098      8099      8098      8099      8100      8098      8099      8101
      8100      8099      8101      8099      8101      8102      8099      8101      8103
      8099      8101      8145      8102      8101      8103      8102      8101      8145
      8103      8101      8145      8092      8104      8105      8092      8104      8106
      8092      8104      8107      8105      8104      8106      8105      8104      8107
      8106      8104      8107      8104      8107      8108      8104      8107      8109
      8104      8107      8110      8108      8107      8109      8108      8107      8110
      8109      8107      8110      8107      8110      8111      8107      8110      8112
      8107      8110      8113      8111      8110      8112      8111      8110      8113
      8112      8110      8113      8110      8113      8114      8110      8113      8115
      8110      8113      8116      8114      8113      8115      8114      8113      8116
      8115      8113      8116      8113      8116      8117      8113      8116      8118
      8113      8116      8119      8117      8116      8118      8117      8116      8119
      8118      8116      8119      8116      8119      8120      8116      8119      8121
      8116      8119      8122      8120      8119      8121      8120      8119      8122
      8121      8119      8122      8119      8122      8123      8119      8122      8124
      8123      8122      8124      8122      8124      8125      8122      8124      8126
      8125      8124      8126      8124      8126      8127      8124      8126      8128
      8124      8126      8129      8127      8126      8128      8127      8126      8129
      8128      8126      8129      8126      8129      8130      8126      8129      8131
      8126      8129      8132      8130      8129      8131      8130      8129      8132
      8131      8129      8132      8129      8132      8133      8129      8132      8134
      8129      8132      8135      8133      8132      8134      8133      8132      8135
      8134      8132      8135      8132      8135      8136      8132      8135      8137
      8132      8135      8138      8136      8135      8137      8136      8135      8138
      8137      8135      8138      8135      8138      8139      8135      8138      8140
      8135      8138      8141      8139      8138      8140      8139      8138      8141
      8140      8138      8141      8138      8141      8142      8138      8141      8143
      8138      8141      8144      8142      8141      8143      8142      8141      8144
      8143      8141      8144      8101      8145      8146      8101      8145      8147
      8101      8145      8148      8146      8145      8147      8146      8145      8148
      8147      8145      8148      8145      8148      8149      8145      8148      8150
      8145      8148      8151      8149      8148      8150      8149      8148      8151
      8150      8148      8151      8148      8151      8152      8148      8151      8153
      8148      8151      8154      8152      8151      8153      8152      8151      8154
      8153      8151      8154      8151      8154      8155      8151      8154      8156
      8151      8154      8157      8155      8154      8156      8155      8154      8157
      8156      8154      8157      8154      8157      8158      8154      8157      8159
      8154      8157      8160      8158      8157      8159      8158      8157      8160
      8159      8157      8160      8157      8160      8161      8157      8160      8162
      8157      8160      8163      8161      8160      8162      8161      8160      8163
      8162      8160      8163      8160      8163      8164      8160      8163      8165
      8164      8163      8165      8163      8165      8166      8163      8165      8167
      8166      8165      8167      8165      8167      8168      8165      8167      8169
      8165      8167      8170      8168      8167      8169      8168      8167      8170
      8169      8167      8170      8167      8170      8171      8167      8170      8172
      8167      8170      8173      8171      8170      8172      8171      8170      8173
      8172      8170      8173      8170      8173      8174      8170      8173      8175
      8170      8173      8176      8174      8173      8175      8174      8173      8176
      8175      8173      8176      8173      8176      8177      8173      8176      8178
      8173      8176      8179      8177      8176      8178      8177      8176      8179
      8178      8176      8179      8176      8179      8180      8176      8179      8181
      8176      8179      8182      8180      8179      8181      8180      8179      8182
      8181      8179      8182      8179      8182      8183      8179      8182      8184
      8179      8182      8185      8183      8182      8184      8183      8182      8185
      8184      8182      8185      8182      8185      8186      8182      8185      8187
      8182      8185      8188      8186      8185      8187      8186      8185      8188
      8187      8185      8188      8185      8188      8189      8185      8188      8190
      8185      8188      8191      8189      8188      8190      8189      8188      8191
      8190      8188      8191      8193      8192      8194      8193      8192      8195
      8193      8192      8196      8194      8192      8195      8194      8192      8196
      8195      8192      8196      8192      8196      8197      8192      8196      8198
      8192      8196      8199      8197      8196      8198      8197      8196      8199
      8198      8196      8199      8196      8199      8200      8196      8199      8201
      8196      8199      8206      8200      8199      8201      8200      8199      8206
      8201      8199      8206      8203      8202      8204      8203      8202      8205
      8203      8202      8206      8204      8202      8205      8204      8202      8206
      8205      8202      8206      8202      8205      8207      8199      8206      8202
      8205      8207      8208      8205      8207      8209      8205      8207      8210
      8208      8207      8209      8208      8207      8210      8209      8207      8210
      8207      8210      8211      8207      8210      8212      8207      8210      8218
      8211      8210      8212      8211      8210      8218      8212      8210      8218
      8210      8212      8213      8212      8213      8214      8212      8213      8215
      8214      8213      8215      8213      8215      8216      8213      8215      8217
      8213      8215      8227      8216      8215      8217      8216      8215      8227
      8217      8215      8227      8210      8218      8219      8210      8218      8220
      8210      8218      8221      8219      8218      8220      8219      8218      8221
      8220      8218      8221      8218      8221      8222      8221      8222      8223
      8221      8222      8224      8223      8222      8224      8222      8224      8225
      8222      8224      8226      8222      8224      8271      8225      8224      8226
      8225      8224      8271      8226      8224      8271      8215      8227      8228
      8215      8227      8229      8215      8227      8230      8228      8227      8229
      8228      8227      8230      8229      8227      8230      8227      8230      8231
      8227      8230      8232      8227      8230      8233      8231      8230      8232
      8231      8230      8233      8232      8230      8233      8230      8233      8234
      8230      8233      8235      8230      8233      8236      8234      8233      8235
      8234      8233      8236      8235      8233      8236      8233      8236      8237
      8233      8236      8238      8233      8236      8239      8237      8236      8238
      8237      8236      8239      8238      8236      8239      8236      8239      8240
      8236      8239      8241      8236      8239      8242      8240      8239      8241
      8240      8239      8242      8241      8239      8242      8239      8242      8243
      8239      8242      8244      8239      8242      8245      8243      8242      8244
      8243      8242      8245      8244      8242      8245      8242      8245      8246
      8242      8245      8247      8242      8245      8250      8246      8245      8247
      8246      8245      8250      8247      8245      8250      8245      8247      8248
      8245      8247      8249      8245      8247      8250      8248      8247      8249
      8248      8247      8250      8249      8247      8250      8245      8250      8247
      8245      8250      8251      8245      8250      8252      8247      8250      8251
      8247      8250      8252      8251      8250      8252      8250      8252      8253
      8250      8252      8254      8250      8252      8255      8253      8252      8254
      8253      8252      8255      8254      8252      8255      8252      8255      8256
      8252      8255      8257      8252      8255      8258      8256      8255      8257
      8256      8255      8258      8257      8255      8258      8255      8258      8259
      8255      8258      8260      8255      8258      8261      8259      8258      8260
      8259      8258      8261      8260      8258      8261      8258      8261      8262
      8258      8261      8263      8258      8261      8264      8262      8261      8263
      8262      8261      8264      8263      8261      8264      8261      8264      8265
      8261      8264      8266      8261      8264      8267      8265      8264      8266
      8265      8264      8267      8266      8264      8267      8264      8267      8268
      8264      8267      8269      8264      8267      8270      8268      8267      8269
      8268      8267      8270      8269      8267      8270      8224      8271      8272
      8224      8271      8273      8224      8271      8274      8272      8271      8273
      8272      8271      8274      8273      8271      8274      8271      8274      8275
      8271      8274      8276      8271      8274      8277      8275      8274      8276
      8275      8274      8277      8276      8274      8277      8274      8277      8278
      8274      8277      8279      8274      8277      8280      8278      8277      8279
      8278      8277      8280      8279      8277      8280      8277      8280      8281
      8277      8280      8282      8277      8280      8283      8281      8280      8282
      8281      8280      8283      8282      8280      8283      8280      8283      8284
      8280      8283      8285      8280      8283      8286      8284      8283      8285
      8284      8283      8286      8285      8283      8286      8283      8286      8287
      8283      8286      8288      8283      8286      8289      8287      8286      8288
      8287      8286      8289      8288      8286      8289      8286      8289      8290
      8286      8289      8291      8286      8289      8292      8290      8289      8291
      8290      8289      8292      8291      8289      8292      8289      8292      8293
      8289      8292      8294      8289      8292      8295      8293      8292      8294
      8293      8292      8295      8294      8292      8295      8292      8295      8296
      8292      8295      8297      8292      8295      8298      8296      8295      8297
      8296      8295      8298      8297      8295      8298      8295      8298      8299
      8295      8298      8300      8295      8298      8301      8299      8298      8300
      8299      8298      8301      8300      8298      8301      8298      8301      8302
      8298      8301      8303      8298      8301      8304      8302      8301      8303
      8302      8301      8304      8303      8301      8304      8301      8304      8305
      8301      8304      8306      8301      8304      8307      8305      8304      8306
      8305      8304      8307      8306      8304      8307      8304      8307      8308
      8304      8307      8309      8304      8307      8310      8308      8307      8309
      8308      8307      8310      8309      8307      8310      8307      8310      8311
      8307      8310      8312      8307      8310      8313      8311      8310      8312
      8311      8310      8313      8312      8310      8313      8315      8314      8316
      8315      8314      8317      8315      8314      8319      8316      8314      8317
      8316      8314      8319      8317      8314      8319      8314      8317      8318
      8314      8319      8320      8314      8319      8321      8314      8319      8323
      8320      8319      8321      8320      8319      8323      8321      8319      8323
      8319      8321      8322      8319      8323      8324      8319      8323      8325
      8319      8323      8330      8324      8323      8325      8324      8323      8330
      8325      8323      8330      8327      8326      8328      8327      8326      8329
      8327      8326      8330      8328      8326      8329      8328      8326      8330
      8329      8326      8330      8326      8329      8331      8323      8330      8326
      8329      8331      8332      8329      8331      8333      8329      8331      8334
      8332      8331      8333      8332      8331      8334      8333      8331      8334
      8331      8334      8335      8331      8334      8336      8331      8334      8342
      8335      8334      8336      8335      8334      8342      8336      8334      8342
      8334      8336      8337      8336      8337      8338      8336      8337      8339
      8338      8337      8339      8337      8339      8340      8337      8339      8341
      8337      8339      8351      8340      8339      8341      8340      8339      8351
      8341      8339      8351      8334      8342      8343      8334      8342      8344
      8334      8342      8345      8343      8342      8344      8343      8342      8345
      8344      8342      8345      8342      8345      8346      8345      8346      8347
      8345      8346      8348      8347      8346      8348      8346      8348      8349
      8346      8348      8350      8346      8348      8392      8349      8348      8350
      8349      8348      8392      8350      8348      8392      8339      8351      8352
      8339      8351      8353      8339      8351      8354      8352      8351      8353
      8352      8351      8354      8353      8351      8354      8351      8354      8355
      8351      8354      8356      8351      8354      8357      8355      8354      8356
      8355      8354      8357      8356      8354      8357      8354      8357      8358
      8354      8357      8359      8354      8357      8360      8358      8357      8359
      8358      8357      8360      8359      8357      8360      8357      8360      8361
      8357      8360      8362      8357      8360      8363      8361      8360      8362
      8361      8360      8363      8362      8360      8363      8360      8363      8364
      8360      8363      8365      8360      8363      8366      8364      8363      8365
      8364      8363      8366      8365      8363      8366      8363      8366      8367
      8363      8366      8368      8363      8366      8369      8367      8366      8368
      8367      8366      8369      8368      8366      8369      8366      8369      8370
      8366      8369      8371      8370      8369      8371      8369      8371      8372
      8369      8371      8373      8372      8371      8373      8371      8373      8374
      8371      8373      8375      8371      8373      8376      8374      8373      8375
      8374      8373      8376      8375      8373      8376      8373      8376      8377
      8373      8376      8378      8373      8376      8379      8377      8376      8378
      8377      8376      8379      8378      8376      8379      8376      8379      8380
      8376      8379      8381      8376      8379      8382      8380      8379      8381
      8380      8379      8382      8381      8379      8382      8379      8382      8383
      8379      8382      8384      8379      8382      8385      8383      8382      8384
      8383      8382      8385      8384      8382      8385      8382      8385      8386
      8382      8385      8387      8382      8385      8388      8386      8385      8387
      8386      8385      8388      8387      8385      8388      8385      8388      8389
      8385      8388      8390      8385      8388      8391      8389      8388      8390
      8389      8388      8391      8390      8388      8391      8348      8392      8393
      8348      8392      8394      8348      8392      8395      8393      8392      8394
      8393      8392      8395      8394      8392      8395      8392      8395      8396
      8392      8395      8397      8392      8395      8398      8396      8395      8397
      8396      8395      8398      8397      8395      8398      8395      8398      8399
      8395      8398      8400      8395      8398      8401      8399      8398      8400
      8399      8398      8401      8400      8398      8401      8398      8401      8402
      8398      8401      8403      8398      8401      8404      8402      8401      8403
      8402      8401      8404      8403      8401      8404      8401      8404      8405
      8401      8404      8406      8401      8404      8407      8405      8404      8406
      8405      8404      8407      8406      8404      8407      8404      8407      8408
      8404      8407      8409      8404      8407      8410      8408      8407      8409
      8408      8407      8410      8409      8407      8410      8407      8410      8411
      8407      8410      8412      8407      8410      8413      8411      8410      8412
      8411      8410      8413      8412      8410      8413      8410      8413      8414
      8410      8413      8415      8410      8413      8416      8414      8413      8415
      8414      8413      8416      8415      8413      8416      8413      8416      8417
      8413      8416      8418      8413      8416      8419      8417      8416      8418
      8417      8416      8419      8418      8416      8419      8416      8419      8420
      8416      8419      8421      8416      8419      8422      8420      8419      8421
      8420      8419      8422      8421      8419      8422      8419      8422      8423
      8419      8422      8424      8419      8422      8425      8423      8422      8424
      8423      8422      8425      8424      8422      8425      8422      8425      8426
      8422      8425      8427      8422      8425      8428      8426      8425      8427
      8426      8425      8428      8427      8425      8428      8425      8428      8429
      8425      8428      8430      8425      8428      8431      8429      8428      8430
      8429      8428      8431      8430      8428      8431      8428      8431      8432
      8428      8431      8433      8428      8431      8434      8432      8431      8433
      8432      8431      8434      8433      8431      8434      8436      8435      8437
      8436      8435      8438      8436      8435      8439      8437      8435      8438
      8437      8435      8439      8438      8435      8439      8435      8439      8440
      8435      8439      8441      8435      8439      8442      8440      8439      8441
      8440      8439      8442      8441      8439      8442      8439      8442      8443
      8439      8442      8444      8439      8442      8449      8443      8442      8444
      8443      8442      8449      8444      8442      8449      8446      8445      8447
      8446      8445      8448      8446      8445      8449      8447      8445      8448
      8447      8445      8449      8448      8445      8449      8445      8448      8450
      8442      8449      8445      8448      8450      8451      8448      8450      8452
      8448      8450      8453      8451      8450      8452      8451      8450      8453
      8452      8450      8453      8450      8453      8454      8450      8453      8455
      8450      8453      8461      8454      8453      8455      8454      8453      8461
      8455      8453      8461      8453      8455      8456      8455      8456      8457
      8455      8456      8458      8457      8456      8458      8456      8458      8459
      8456      8458      8460      8456      8458      8470      8459      8458      8460
      8459      8458      8470      8460      8458      8470      8453      8461      8462
      8453      8461      8463      8453      8461      8464      8462      8461      8463
      8462      8461      8464      8463      8461      8464      8461      8464      8465
      8464      8465      8466      8464      8465      8467      8466      8465      8467
      8465      8467      8468      8465      8467      8469      8465      8467      8514
      8468      8467      8469      8468      8467      8514      8469      8467      8514
      8458      8470      8471      8458      8470      8472      8458      8470      8473
      8471      8470      8472      8471      8470      8473      8472      8470      8473
      8470      8473      8474      8470      8473      8475      8470      8473      8476
      8474      8473      8475      8474      8473      8476      8475      8473      8476
      8473      8476      8477      8473      8476      8478      8473      8476      8479
      8477      8476      8478      8477      8476      8479      8478      8476      8479
      8476      8479      8480      8476      8479      8481      8476      8479      8482
      8480      8479      8481      8480      8479      8482      8481      8479      8482
      8479      8482      8483      8479      8482      8484      8479      8482      8485
      8483      8482      8484      8483      8482      8485      8484      8482      8485
      8482      8485      8486      8482      8485      8487      8482      8485      8488
      8486      8485      8487      8486      8485      8488      8487      8485      8488
      8485      8488      8489      8485      8488      8490      8485      8488      8493
      8489      8488      8490      8489      8488      8493      8490      8488      8493
      8488      8490      8491      8488      8490      8492      8488      8490      8493
      8491      8490      8492      8491      8490      8493      8492      8490      8493
      8488      8493      8490      8488      8493      8494      8488      8493      8495
      8490      8493      8494      8490      8493      8495      8494      8493      8495
      8493      8495      8496      8493      8495      8497      8493      8495      8498
      8496      8495      8497      8496      8495      8498      8497      8495      8498
      8495      8498      8499      8495      8498      8500      8495      8498      8501
      8499      8498      8500      8499      8498      8501      8500      8498      8501
      8498      8501      8502      8498      8501      8503      8498      8501      8504
      8502      8501      8503      8502      8501      8504      8503      8501      8504
      8501      8504      8505      8501      8504      8506      8501      8504      8507
      8505      8504      8506      8505      8504      8507      8506      8504      8507
      8504      8507      8508      8504      8507      8509      8504      8507      8510
      8508      8507      8509      8508      8507      8510      8509      8507      8510
      8507      8510      8511      8507      8510      8512      8507      8510      8513
      8511      8510      8512      8511      8510      8513      8512      8510      8513
      8467      8514      8515      8467      8514      8516      8467      8514      8517
      8515      8514      8516      8515      8514      8517      8516      8514      8517
      8514      8517      8518      8514      8517      8519      8514      8517      8520
      8518      8517      8519      8518      8517      8520      8519      8517      8520
      8517      8520      8521      8517      8520      8522      8517      8520      8523
      8521      8520      8522      8521      8520      8523      8522      8520      8523
      8520      8523      8524      8520      8523      8525      8520      8523      8526
      8524      8523      8525      8524      8523      8526      8525      8523      8526
      8523      8526      8527      8523      8526      8528      8523      8526      8529
      8527      8526      8528      8527      8526      8529      8528      8526      8529
      8526      8529      8530      8526      8529      8531      8526      8529      8532
      8530      8529      8531      8530      8529      8532      8531      8529      8532
      8529      8532      8533      8529      8532      8534      8529      8532      8535
      8533      8532      8534      8533      8532      8535      8534      8532      8535
      8532      8535      8536      8532      8535      8537      8532      8535      8538
      8536      8535      8537      8536      8535      8538      8537      8535      8538
      8535      8538      8539      8535      8538      8540      8535      8538      8541
      8539      8538      8540      8539      8538      8541      8540      8538      8541
      8538      8541      8542      8538      8541      8543      8538      8541      8544
      8542      8541      8543      8542      8541      8544      8543      8541      8544
      8541      8544      8545      8541      8544      8546      8541      8544      8547
      8545      8544      8546      8545      8544      8547      8546      8544      8547
      8544      8547      8548      8544      8547      8549      8544      8547      8550
      8548      8547      8549      8548      8547      8550      8549      8547      8550
      8547      8550      8551      8547      8550      8552      8547      8550      8553
      8551      8550      8552      8551      8550      8553      8552      8550      8553
      8550      8553      8554      8550      8553      8555      8550      8553      8556
      8554      8553      8555      8554      8553      8556      8555      8553      8556
      8558      8557      8559      8558      8557      8560      8558      8557      8561
      8559      8557      8560      8559      8557      8561      8560      8557      8561
      8557      8561      8562      8557      8561      8563      8557      8561      8564
      8562      8561      8563      8562      8561      8564      8563      8561      8564
      8561      8564      8565      8561      8564      8566      8561      8564      8571
      8565      8564      8566      8565      8564      8571      8566      8564      8571
      8568      8567      8569      8568      8567      8570      8568      8567      8571
      8569      8567      8570      8569      8567      8571      8570      8567      8571
      8567      8570      8572      8564      8571      8567      8570      8572      8573
      8570      8572      8574      8570      8572      8575      8573      8572      8574
      8573      8572      8575      8574      8572      8575      8572      8575      8576
      8572      8575      8577      8572      8575      8583      8576      8575      8577
      8576      8575      8583      8577      8575      8583      8575      8577      8578
      8577      8578      8579      8577      8578      8580      8579      8578      8580
      8578      8580      8581      8578      8580      8582      8578      8580      8592
      8581      8580      8582      8581      8580      8592      8582      8580      8592
      8575      8583      8584      8575      8583      8585      8575      8583      8586
      8584      8583      8585      8584      8583      8586      8585      8583      8586
      8583      8586      8587      8586      8587      8588      8586      8587      8589
      8588      8587      8589      8587      8589      8590      8587      8589      8591
      8587      8589      8636      8590      8589      8591      8590      8589      8636
      8591      8589      8636      8580      8592      8593      8580      8592      8594
      8580      8592      8595      8593      8592      8594      8593      8592      8595
      8594      8592      8595      8592      8595      8596      8592      8595      8597
      8592      8595      8598      8596      8595      8597      8596      8595      8598
      8597      8595      8598      8595      8598      8599      8595      8598      8600
      8595      8598      8601      8599      8598      8600      8599      8598      8601
      8600      8598      8601      8598      8601      8602      8598      8601      8603
      8598      8601      8604      8602      8601      8603      8602      8601      8604
      8603      8601      8604      8601      8604      8605      8601      8604      8606
      8601      8604      8607      8605      8604      8606      8605      8604      8607
      8606      8604      8607      8604      8607      8608      8604      8607      8609
      8604      8607      8610      8608      8607      8609      8608      8607      8610
      8609      8607      8610      8607      8610      8611      8607      8610      8612
      8607      8610      8615      8611      8610      8612      8611      8610      8615
      8612      8610      8615      8610      8612      8613      8610      8612      8614
      8610      8612      8615      8613      8612      8614      8613      8612      8615
      8614      8612      8615      8610      8615      8612      8610      8615      8616
      8610      8615      8617      8612      8615      8616      8612      8615      8617
      8616      8615      8617      8615      8617      8618      8615      8617      8619
      8615      8617      8620      8618      8617      8619      8618      8617      8620
      8619      8617      8620      8617      8620      8621      8617      8620      8622
      8617      8620      8623      8621      8620      8622      8621      8620      8623
      8622      8620      8623      8620      8623      8624      8620      8623      8625
      8620      8623      8626      8624      8623      8625      8624      8623      8626
      8625      8623      8626      8623      8626      8627      8623      8626      8628
      8623      8626      8629      8627      8626      8628      8627      8626      8629
      8628      8626      8629      8626      8629      8630      8626      8629      8631
      8626      8629      8632      8630      8629      8631      8630      8629      8632
      8631      8629      8632      8629      8632      8633      8629      8632      8634
      8629      8632      8635      8633      8632      8634      8633      8632      8635
      8634      8632      8635      8589      8636      8637      8589      8636      8638
      8589      8636      8639      8637      8636      8638      8637      8636      8639
      8638      8636      8639      8636      8639      8640      8636      8639      8641
      8636      8639      8642      8640      8639      8641      8640      8639      8642
      8641      8639      8642      8639      8642      8643      8639      8642      8644
      8639      8642      8645      8643      8642      8644      8643      8642      8645
      8644      8642      8645      8642      8645      8646      8642      8645      8647
      8642      8645      8648      8646      8645      8647      8646      8645      8648
      8647      8645      8648      8645      8648      8649      8645      8648      8650
      8645      8648      8651      8649      8648      8650      8649      8648      8651
      8650      8648      8651      8648      8651      8652      8648      8651      8653
      8648      8651      8654      8652      8651      8653      8652      8651      8654
      8653      8651      8654      8651      8654      8655      8651      8654      8656
      8651      8654      8657      8655      8654      8656      8655      8654      8657
      8656      8654      8657      8654      8657      8658      8654      8657      8659
      8654      8657      8660      8658      8657      8659      8658      8657      8660
      8659      8657      8660      8657      8660      8661      8657      8660      8662
      8657      8660      8663      8661      8660      8662      8661      8660      8663
      8662      8660      8663      8660      8663      8664      8660      8663      8665
      8660      8663      8666      8664      8663      8665      8664      8663      8666
      8665      8663      8666      8663      8666      8667      8663      8666      8668
      8663      8666      8669      8667      8666      8668      8667      8666      8669
      8668      8666      8669      8666      8669      8670      8666      8669      8671
      8666      8669      8672      8670      8669      8671      8670      8669      8672
      8671      8669      8672      8669      8672      8673      8669      8672      8674
      8669      8672      8675      8673      8672      8674      8673      8672      8675
      8674      8672      8675      8672      8675      8676      8672      8675      8677
      8672      8675      8678      8676      8675      8677      8676      8675      8678
      8677      8675      8678      8680      8679      8681      8680      8679      8682
      8680      8679      8683      8681      8679      8682      8681      8679      8683
      8682      8679      8683      8679      8683      8684      8679      8683      8685
      8679      8683      8686      8684      8683      8685      8684      8683      8686
      8685      8683      8686      8683      8686      8687      8683      8686      8688
      8683      8686      8693      8687      8686      8688      8687      8686      8693
      8688      8686      8693      8690      8689      8691      8690      8689      8692
      8690      8689      8693      8691      8689      8692      8691      8689      8693
      8692      8689      8693      8689      8692      8694      8686      8693      8689
      8692      8694      8695      8692      8694      8696      8692      8694      8697
      8695      8694      8696      8695      8694      8697      8696      8694      8697
      8694      8697      8698      8694      8697      8699      8694      8697      8705
      8698      8697      8699      8698      8697      8705      8699      8697      8705
      8697      8699      8700      8699      8700      8701      8699      8700      8702
      8701      8700      8702      8700      8702      8703      8700      8702      8704
      8700      8702      8714      8703      8702      8704      8703      8702      8714
      8704      8702      8714      8697      8705      8706      8697      8705      8707
      8697      8705      8708      8706      8705      8707      8706      8705      8708
      8707      8705      8708      8705      8708      8709      8708      8709      8710
      8708      8709      8711      8710      8709      8711      8709      8711      8712
      8709      8711      8713      8709      8711      8758      8712      8711      8713
      8712      8711      8758      8713      8711      8758      8702      8714      8715
      8702      8714      8716      8702      8714      8717      8715      8714      8716
      8715      8714      8717      8716      8714      8717      8714      8717      8718
      8714      8717      8719      8714      8717      8720      8718      8717      8719
      8718      8717      8720      8719      8717      8720      8717      8720      8721
      8717      8720      8722      8717      8720      8723      8721      8720      8722
      8721      8720      8723      8722      8720      8723      8720      8723      8724
      8720      8723      8725      8720      8723      8726      8724      8723      8725
      8724      8723      8726      8725      8723      8726      8723      8726      8727
      8723      8726      8728      8723      8726      8729      8727      8726      8728
      8727      8726      8729      8728      8726      8729      8726      8729      8730
      8726      8729      8731      8726      8729      8732      8730      8729      8731
      8730      8729      8732      8731      8729      8732      8729      8732      8733
      8729      8732      8734      8729      8732      8737      8733      8732      8734
      8733      8732      8737      8734      8732      8737      8732      8734      8735
      8732      8734      8736      8732      8734      8737      8735      8734      8736
      8735      8734      8737      8736      8734      8737      8732      8737      8734
      8732      8737      8738      8732      8737      8739      8734      8737      8738
      8734      8737      8739      8738      8737      8739      8737      8739      8740
      8737      8739      8741      8737      8739      8742      8740      8739      8741
      8740      8739      8742      8741      8739      8742      8739      8742      8743
      8739      8742      8744      8739      8742      8745      8743      8742      8744
      8743      8742      8745      8744      8742      8745      8742      8745      8746
      8742      8745      8747      8742      8745      8748      8746      8745      8747
      8746      8745      8748      8747      8745      8748      8745      8748      8749
      8745      8748      8750      8745      8748      8751      8749      8748      8750
      8749      8748      8751      8750      8748      8751      8748      8751      8752
      8748      8751      8753      8748      8751      8754      8752      8751      8753
      8752      8751      8754      8753      8751      8754      8751      8754      8755
      8751      8754      8756      8751      8754      8757      8755      8754      8756
      8755      8754      8757      8756      8754      8757      8711      8758      8759
      8711      8758      8760      8711      8758      8761      8759      8758      8760
      8759      8758      8761      8760      8758      8761      8758      8761      8762
      8758      8761      8763      8758      8761      8764      8762      8761      8763
      8762      8761      8764      8763      8761      8764      8761      8764      8765
      8761      8764      8766      8761      8764      8767      8765      8764      8766
      8765      8764      8767      8766      8764      8767      8764      8767      8768
      8764      8767      8769      8764      8767      8770      8768      8767      8769
      8768      8767      8770      8769      8767      8770      8767      8770      8771
      8767      8770      8772      8767      8770      8773      8771      8770      8772
      8771      8770      8773      8772      8770      8773      8770      8773      8774
      8770      8773      8775      8770      8773      8776      8774      8773      8775
      8774      8773      8776      8775      8773      8776      8773      8776      8777
      8773      8776      8778      8773      8776      8779      8777      8776      8778
      8777      8776      8779      8778      8776      8779      8776      8779      8780
      8776      8779      8781      8776      8779      8782      8780      8779      8781
      8780      8779      8782      8781      8779      8782      8779      8782      8783
      8779      8782      8784      8779      8782      8785      8783      8782      8784
      8783      8782      8785      8784      8782      8785      8782      8785      8786
      8782      8785      8787      8782      8785      8788      8786      8785      8787
      8786      8785      8788      8787      8785      8788      8785      8788      8789
      8785      8788      8790      8785      8788      8791      8789      8788      8790
      8789      8788      8791      8790      8788      8791      8788      8791      8792
      8788      8791      8793      8788      8791      8794      8792      8791      8793
      8792      8791      8794      8793      8791      8794      8791      8794      8795
      8791      8794      8796      8791      8794      8797      8795      8794      8796
      8795      8794      8797      8796      8794      8797      8794      8797      8798
      8794      8797      8799      8794      8797      8800      8798      8797      8799
      8798      8797      8800      8799      8797      8800      8802      8801      8803
      8802      8801      8804      8802      8801      8805      8803      8801      8804
      8803      8801      8805      8804      8801      8805      8801      8805      8806
      8801      8805      8807      8801      8805      8808      8806      8805      8807
      8806      8805      8808      8807      8805      8808      8805      8808      8809
      8805      8808      8810      8805      8808      8815      8809      8808      8810
      8809      8808      8815      8810      8808      8815      8812      8811      8813
      8812      8811      8814      8812      8811      8815      8813      8811      8814
      8813      8811      8815      8814      8811      8815      8811      8814      8816
      8808      8815      8811      8814      8816      8817      8814      8816      8818
      8814      8816      8819      8817      8816      8818      8817      8816      8819
      8818      8816      8819      8816      8819      8820      8816      8819      8821
      8816      8819      8827      8820      8819      8821      8820      8819      8827
      8821      8819      8827      8819      8821      8822      8821      8822      8823
      8821      8822      8824      8823      8822      8824      8822      8824      8825
      8822      8824      8826      8822      8824      8836      8825      8824      8826
      8825      8824      8836      8826      8824      8836      8819      8827      8828
      8819      8827      8829      8819      8827      8830      8828      8827      8829
      8828      8827      8830      8829      8827      8830      8827      8830      8831
      8830      8831      8832      8830      8831      8833      8832      8831      8833
      8831      8833      8834      8831      8833      8835      8831      8833      8880
      8834      8833      8835      8834      8833      8880      8835      8833      8880
      8824      8836      8837      8824      8836      8838      8824      8836      8839
      8837      8836      8838      8837      8836      8839      8838      8836      8839
      8836      8839      8840      8836      8839      8841      8836      8839      8842
      8840      8839      8841      8840      8839      8842      8841      8839      8842
      8839      8842      8843      8839      8842      8844      8839      8842      8845
      8843      8842      8844      8843      8842      8845      8844      8842      8845
      8842      8845      8846      8842      8845      8847      8842      8845      8848
      8846      8845      8847      8846      8845      8848      8847      8845      8848
      8845      8848      8849      8845      8848      8850      8845      8848      8851
      8849      8848      8850      8849      8848      8851      8850      8848      8851
      8848      8851      8852      8848      8851      8853      8848      8851      8854
      8852      8851      8853      8852      8851      8854      8853      8851      8854
      8851      8854      8855      8851      8854      8856      8851      8854      8859
      8855      8854      8856      8855      8854      8859      8856      8854      8859
      8854      8856      8857      8854      8856      8858      8854      8856      8859
      8857      8856      8858      8857      8856      8859      8858      8856      8859
      8854      8859      8856      8854      8859      8860      8854      8859      8861
      8856      8859      8860      8856      8859      8861      8860      8859      8861
      8859      8861      8862      8859      8861      8863      8859      8861      8864
      8862      8861      8863      8862      8861      8864      8863      8861      8864
      8861      8864      8865      8861      8864      8866      8861      8864      8867
      8865      8864      8866      8865      8864      8867      8866      8864      8867
      8864      8867      8868      8864      8867      8869      8864      8867      8870
      8868      8867      8869      8868      8867      8870      8869      8867      8870
      8867      8870      8871      8867      8870      8872      8867      8870      8873
      8871      8870      8872      8871      8870      8873      8872      8870      8873
      8870      8873      8874      8870      8873      8875      8870      8873      8876
      8874      8873      8875      8874      8873      8876      8875      8873      8876
      8873      8876      8877      8873      8876      8878      8873      8876      8879
      8877      8876      8878      8877      8876      8879      8878      8876      8879
      8833      8880      8881      8833      8880      8882      8833      8880      8883
      8881      8880      8882      8881      8880      8883      8882      8880      8883
      8880      8883      8884      8880      8883      8885      8880      8883      8886
      8884      8883      8885      8884      8883      8886      8885      8883      8886
      8883      8886      8887      8883      8886      8888      8883      8886      8889
      8887      8886      8888      8887      8886      8889      8888      8886      8889
      8886      8889      8890      8886      8889      8891      8886      8889      8892
      8890      8889      8891      8890      8889      8892      8891      8889      8892
      8889      8892      8893      8889      8892      8894      8889      8892      8895
      8893      8892      8894      8893      8892      8895      8894      8892      8895
      8892      8895      8896      8892      8895      8897      8892      8895      8898
      8896      8895      8897      8896      8895      8898      8897      8895      8898
      8895      8898      8899      8895      8898      8900      8895      8898      8901
      8899      8898      8900      8899      8898      8901      8900      8898      8901
      8898      8901      8902      8898      8901      8903      8898      8901      8904
      8902      8901      8903      8902      8901      8904      8903      8901      8904
      8901      8904      8905      8901      8904      8906      8901      8904      8907
      8905      8904      8906      8905      8904      8907      8906      8904      8907
      8904      8907      8908      8904      8907      8909      8904      8907      8910
      8908      8907      8909      8908      8907      8910      8909      8907      8910
      8907      8910      8911      8907      8910      8912      8907      8910      8913
      8911      8910      8912      8911      8910      8913      8912      8910      8913
      8910      8913      8914      8910      8913      8915      8910      8913      8916
      8914      8913      8915      8914      8913      8916      8915      8913      8916
      8913      8916      8917      8913      8916      8918      8913      8916      8919
      8917      8916      8918      8917      8916      8919      8918      8916      8919
      8916      8919      8920      8916      8919      8921      8916      8919      8922
      8920      8919      8921      8920      8919      8922      8921      8919      8922
      8924      8923      8925      8924      8923      8926      8924      8923      8927
      8925      8923      8926      8925      8923      8927      8926      8923      8927
      8923      8927      8928      8923      8927      8929      8923      8927      8930
      8928      8927      8929      8928      8927      8930      8929      8927      8930
      8927      8930      8931      8927      8930      8932      8927      8930      8937
      8931      8930      8932      8931      8930      8937      8932      8930      8937
      8934      8933      8935      8934      8933      8936      8934      8933      8937
      8935      8933      8936      8935      8933      8937      8936      8933      8937
      8933      8936      8938      8930      8937      8933      8936      8938      8939
      8936      8938      8940      8936      8938      8941      8939      8938      8940
      8939      8938      8941      8940      8938      8941      8938      8941      8942
      8938      8941      8943      8938      8941      8949      8942      8941      8943
      8942      8941      8949      8943      8941      8949      8941      8943      8944
      8943      8944      8945      8943      8944      8946      8945      8944      8946
      8944      8946      8947      8944      8946      8948      8944      8946      8958
      8947      8946      8948      8947      8946      8958      8948      8946      8958
      8941      8949      8950      8941      8949      8951      8941      8949      8952
      8950      8949      8951      8950      8949      8952      8951      8949      8952
      8949      8952      8953      8952      8953      8954      8952      8953      8955
      8954      8953      8955      8953      8955      8956      8953      8955      8957
      8953      8955      9002      8956      8955      8957      8956      8955      9002
      8957      8955      9002      8946      8958      8959      8946      8958      8960
      8946      8958      8961      8959      8958      8960      8959      8958      8961
      8960      8958      8961      8958      8961      8962      8958      8961      8963
      8958      8961      8964      8962      8961      8963      8962      8961      8964
      8963      8961      8964      8961      8964      8965      8961      8964      8966
      8961      8964      8967      8965      8964      8966      8965      8964      8967
      8966      8964      8967      8964      8967      8968      8964      8967      8969
      8964      8967      8970      8968      8967      8969      8968      8967      8970
      8969      8967      8970      8967      8970      8971      8967      8970      8972
      8967      8970      8973      8971      8970      8972      8971      8970      8973
      8972      8970      8973      8970      8973      8974      8970      8973      8975
      8970      8973      8976      8974      8973      8975      8974      8973      8976
      8975      8973      8976      8973      8976      8977      8973      8976      8978
      8973      8976      8981      8977      8976      8978      8977      8976      8981
      8978      8976      8981      8976      8978      8979      8976      8978      8980
      8976      8978      8981      8979      8978      8980      8979      8978      8981
      8980      8978      8981      8976      8981      8978      8976      8981      8982
      8976      8981      8983      8978      8981      8982      8978      8981      8983
      8982      8981      8983      8981      8983      8984      8981      8983      8985
      8981      8983      8986      8984      8983      8985      8984      8983      8986
      8985      8983      8986      8983      8986      8987      8983      8986      8988
      8983      8986      8989      8987      8986      8988      8987      8986      8989
      8988      8986      8989      8986      8989      8990      8986      8989      8991
      8986      8989      8992      8990      8989      8991      8990      8989      8992
      8991      8989      8992      8989      8992      8993      8989      8992      8994
      8989      8992      8995      8993      8992      8994      8993      8992      8995
      8994      8992      8995      8992      8995      8996      8992      8995      8997
      8992      8995      8998      8996      8995      8997      8996      8995      8998
      8997      8995      8998      8995      8998      8999      8995      8998      9000
      8995      8998      9001      8999      8998      9000      8999      8998      9001
      9000      8998      9001      8955      9002      9003      8955      9002      9004
      8955      9002      9005      9003      9002      9004      9003      9002      9005
      9004      9002      9005      9002      9005      9006      9002      9005      9007
      9002      9005      9008      9006      9005      9007      9006      9005      9008
      9007      9005      9008      9005      9008      9009      9005      9008      9010
      9005      9008      9011      9009      9008      9010      9009      9008      9011
      9010      9008      9011      9008      9011      9012      9008      9011      9013
      9008      9011      9014      9012      9011      9013      9012      9011      9014
      9013      9011      9014      9011      9014      9015      9011      9014      9016
      9011      9014      9017      9015      9014      9016      9015      9014      9017
      9016      9014      9017      9014      9017      9018      9014      9017      9019
      9014      9017      9020      9018      9017      9019      9018      9017      9020
      9019      9017      9020      9017      9020      9021      9017      9020      9022
      9017      9020      9023      9021      9020      9022      9021      9020      9023
      9022      9020      9023      9020      9023      9024      9020      9023      9025
      9020      9023      9026      9024      9023      9025      9024      9023      9026
      9025      9023      9026      9023      9026      9027      9023      9026      9028
      9023      9026      9029      9027      9026      9028      9027      9026      9029
      9028      9026      9029      9026      9029      9030      9026      9029      9031
      9026      9029      9032      9030      9029      9031      9030      9029      9032
      9031      9029      9032      9029      9032      9033      9029      9032      9034
      9029      9032      9035      9033      9032      9034      9033      9032      9035
      9034      9032      9035      9032      9035      9036      9032      9035      9037
      9032      9035      9038      9036      9035      9037      9036      9035      9038
      9037      9035      9038      9035      9038      9039      9035      9038      9040
      9035      9038      9041      9039      9038      9040      9039      9038      9041
      9040      9038      9041      9038      9041      9042      9038      9041      9043
      9038      9041      9044      9042      9041      9043      9042      9041      9044
      9043      9041      9044      9046      9045      9047      9046      9045      9048
      9046      9045      9050      9047      9045      9048      9047      9045      9050
      9048      9045      9050      9045      9048      9049      9045      9050      9051
      9045      9050      9052      9045      9050      9054      9051      9050      9052
      9051      9050      9054      9052      9050      9054      9050      9052      9053
      9050      9054      9055      9050      9054      9056      9050      9054      9061
      9055      9054      9056      9055      9054      9061      9056      9054      9061
      9058      9057      9059      9058      9057      9060      9058      9057      9061
      9059      9057      9060      9059      9057      9061      9060      9057      9061
      9057      9060      9062      9054      9061      9057      9060      9062      9063
      9060      9062      9064      9060      9062      9065      9063      9062      9064
      9063      9062      9065      9064      9062      9065      9062      9065      9066
      9062      9065      9067      9062      9065      9073      9066      9065      9067
      9066      9065      9073      9067      9065      9073      9065      9067      9068
      9067      9068      9069      9067      9068      9070      9069      9068      9070
      9068      9070      9071      9068      9070      9072      9068      9070      9082
      9071      9070      9072      9071      9070      9082      9072      9070      9082
      9065      9073      9074      9065      9073      9075      9065      9073      9076
      9074      9073      9075      9074      9073      9076      9075      9073      9076
      9073      9076      9077      9076      9077      9078      9076      9077      9079
      9078      9077      9079      9077      9079      9080      9077      9079      9081
      9077      9079      9123      9080      9079      9081      9080      9079      9123
      9081      9079      9123      9070      9082      9083      9070      9082      9084
      9070      9082      9085      9083      9082      9084      9083      9082      9085
      9084      9082      9085      9082      9085      9086      9082      9085      9087
      9082      9085      9088      9086      9085      9087      9086      9085      9088
      9087      9085      9088      9085      9088      9089      9085      9088      9090
      9085      9088      9091      9089      9088      9090      9089      9088      9091
      9090      9088      9091      9088      9091      9092      9088      9091      9093
      9088      9091      9094      9092      9091      9093      9092      9091      9094
      9093      9091      9094      9091      9094      9095      9091      9094      9096
      9091      9094      9097      9095      9094      9096      9095      9094      9097
      9096      9094      9097      9094      9097      9098      9094      9097      9099
      9094      9097      9100      9098      9097      9099      9098      9097      9100
      9099      9097      9100      9097      9100      9101      9097      9100      9102
      9101      9100      9102      9100      9102      9103      9100      9102      9104
      9103      9102      9104      9102      9104      9105      9102      9104      9106
      9102      9104      9107      9105      9104      9106      9105      9104      9107
      9106      9104      9107      9104      9107      9108      9104      9107      9109
      9104      9107      9110      9108      9107      9109      9108      9107      9110
      9109      9107      9110      9107      9110      9111      9107      9110      9112
      9107      9110      9113      9111      9110      9112      9111      9110      9113
      9112      9110      9113      9110      9113      9114      9110      9113      9115
      9110      9113      9116      9114      9113      9115      9114      9113      9116
      9115      9113      9116      9113      9116      9117      9113      9116      9118
      9113      9116      9119      9117      9116      9118      9117      9116      9119
      9118      9116      9119      9116      9119      9120      9116      9119      9121
      9116      9119      9122      9120      9119      9121      9120      9119      9122
      9121      9119      9122      9079      9123      9124      9079      9123      9125
      9079      9123      9126      9124      9123      9125      9124      9123      9126
      9125      9123      9126      9123      9126      9127      9123      9126      9128
      9123      9126      9129      9127      9126      9128      9127      9126      9129
      9128      9126      9129      9126      9129      9130      9126      9129      9131
      9126      9129      9132      9130      9129      9131      9130      9129      9132
      9131      9129      9132      9129      9132      9133      9129      9132      9134
      9129      9132      9135      9133      9132      9134      9133      9132      9135
      9134      9132      9135      9132      9135      9136      9132      9135      9137
      9132      9135      9138      9136      9135      9137      9136      9135      9138
      9137      9135      9138      9135      9138      9139      9135      9138      9140
      9135      9138      9141      9139      9138      9140      9139      9138      9141
      9140      9138      9141      9138      9141      9142      9138      9141      9143
      9138      9141      9144      9142      9141      9143      9142      9141      9144
      9143      9141      9144      9141      9144      9145      9141      9144      9146
      9141      9144      9147      9145      9144      9146      9145      9144      9147
      9146      9144      9147      9144      9147      9148      9144      9147      9149
      9144      9147      9150      9148      9147      9149      9148      9147      9150
      9149      9147      9150      9147      9150      9151      9147      9150      9152
      9147      9150      9153      9151      9150      9152      9151      9150      9153
      9152      9150      9153      9150      9153      9154      9150      9153      9155
      9150      9153      9156      9154      9153      9155      9154      9153      9156
      9155      9153      9156      9153      9156      9157      9153      9156      9158
      9153      9156      9159      9157      9156      9158      9157      9156      9159
      9158      9156      9159      9156      9159      9160      9156      9159      9161
      9156      9159      9162      9160      9159      9161      9160      9159      9162
      9161      9159      9162      9159      9162      9163      9159      9162      9164
      9159      9162      9165      9163      9162      9164      9163      9162      9165
      9164      9162      9165      9167      9166      9168      9167      9166      9169
      9167      9166      9170      9168      9166      9169      9168      9166      9170
      9169      9166      9170      9166      9170      9171      9166      9170      9172
      9166      9170      9173      9171      9170      9172      9171      9170      9173
      9172      9170      9173      9170      9173      9174      9170      9173      9175
      9170      9173      9180      9174      9173      9175      9174      9173      9180
      9175      9173      9180      9177      9176      9178      9177      9176      9179
      9177      9176      9180      9178      9176      9179      9178      9176      9180
      9179      9176      9180      9176      9179      9181      9173      9180      9176
      9179      9181      9182      9179      9181      9183      9179      9181      9184
      9182      9181      9183      9182      9181      9184      9183      9181      9184
      9181      9184      9185      9181      9184      9186      9181      9184      9192
      9185      9184      9186      9185      9184      9192      9186      9184      9192
      9184      9186      9187      9186      9187      9188      9186      9187      9189
      9188      9187      9189      9187      9189      9190      9187      9189      9191
      9187      9189      9201      9190      9189      9191      9190      9189      9201
      9191      9189      9201      9184      9192      9193      9184      9192      9194
      9184      9192      9195      9193      9192      9194      9193      9192      9195
      9194      9192      9195      9192      9195      9196      9195      9196      9197
      9195      9196      9198      9197      9196      9198      9196      9198      9199
      9196      9198      9200      9196      9198      9248      9199      9198      9200
      9199      9198      9248      9200      9198      9248      9189      9201      9202
      9189      9201      9203      9189      9201      9204      9202      9201      9203
      9202      9201      9204      9203      9201      9204      9201      9204      9205
      9201      9204      9206      9201      9204      9207      9205      9204      9206
      9205      9204      9207      9206      9204      9207      9204      9207      9208
      9204      9207      9209      9204      9207      9210      9208      9207      9209
      9208      9207      9210      9209      9207      9210      9207      9210      9211
      9207      9210      9212      9207      9210      9213      9211      9210      9212
      9211      9210      9213      9212      9210      9213      9210      9213      9214
      9210      9213      9215      9210      9213      9216      9214      9213      9215
      9214      9213      9216      9215      9213      9216      9213      9216      9217
      9213      9216      9218      9213      9216      9219      9217      9216      9218
      9217      9216      9219      9218      9216      9219      9216      9219      9220
      9216      9219      9221      9220      9219      9221      9219      9221      9222
      9219      9221      9223      9222      9221      9223      9221      9223      9224
      9221      9223      9225      9221      9223      9226      9224      9223      9225
      9224      9223      9226      9225      9223      9226      9223      9226      9227
      9223      9226      9228      9223      9226      9229      9227      9226      9228
      9227      9226      9229      9228      9226      9229      9226      9229      9230
      9226      9229      9231      9226      9229      9232      9230      9229      9231
      9230      9229      9232      9231      9229      9232      9229      9232      9233
      9229      9232      9234      9229      9232      9235      9233      9232      9234
      9233      9232      9235      9234      9232      9235      9232      9235      9236
      9232      9235      9237      9232      9235      9238      9236      9235      9237
      9236      9235      9238      9237      9235      9238      9235      9238      9239
      9235      9238      9240      9235      9238      9241      9239      9238      9240
      9239      9238      9241      9240      9238      9241      9238      9241      9242
      9238      9241      9243      9238      9241      9244      9242      9241      9243
      9242      9241      9244      9243      9241      9244      9241      9244      9245
      9241      9244      9246      9241      9244      9247      9245      9244      9246
      9245      9244      9247      9246      9244      9247      9198      9248      9249
      9198      9248      9250      9198      9248      9251      9249      9248      9250
      9249      9248      9251      9250      9248      9251      9248      9251      9252
      9248      9251      9253      9248      9251      9254      9252      9251      9253
      9252      9251      9254      9253      9251      9254      9251      9254      9255
      9251      9254      9256      9251      9254      9257      9255      9254      9256
      9255      9254      9257      9256      9254      9257      9254      9257      9258
      9254      9257      9259      9254      9257      9260      9258      9257      9259
      9258      9257      9260      9259      9257      9260      9257      9260      9261
      9257      9260      9262      9257      9260      9263      9261      9260      9262
      9261      9260      9263      9262      9260      9263      9260      9263      9264
      9260      9263      9265      9260      9263      9266      9264      9263      9265
      9264      9263      9266      9265      9263      9266      9263      9266      9267
      9263      9266      9268      9263      9266      9269      9267      9266      9268
      9267      9266      9269      9268      9266      9269      9266      9269      9270
      9266      9269      9271      9266      9269      9272      9270      9269      9271
      9270      9269      9272      9271      9269      9272      9269      9272      9273
      9269      9272      9274      9269      9272      9275      9273      9272      9274
      9273      9272      9275      9274      9272      9275      9272      9275      9276
      9272      9275      9277      9272      9275      9278      9276      9275      9277
      9276      9275      9278      9277      9275      9278      9275      9278      9279
      9275      9278      9280      9275      9278      9281      9279      9278      9280
      9279      9278      9281      9280      9278      9281      9278      9281      9282
      9278      9281      9283      9278      9281      9284      9282      9281      9283
      9282      9281      9284      9283      9281      9284      9281      9284      9285
      9281      9284      9286      9281      9284      9287      9285      9284      9286
      9285      9284      9287      9286      9284      9287      9284      9287      9288
      9284      9287      9289      9284      9287      9290      9288      9287      9289
      9288      9287      9290      9289      9287      9290      9292      9291      9293
      9292      9291      9294      9292      9291      9295      9293      9291      9294
      9293      9291      9295      9294      9291      9295      9291      9295      9296
      9291      9295      9297      9291      9295      9298      9296      9295      9297
      9296      9295      9298      9297      9295      9298      9295      9298      9299
      9295      9298      9300      9295      9298      9305      9299      9298      9300
      9299      9298      9305      9300      9298      9305      9302      9301      9303
      9302      9301      9304      9302      9301      9305      9303      9301      9304
      9303      9301      9305      9304      9301      9305      9301      9304      9306
      9298      9305      9301      9304      9306      9307      9304      9306      9308
      9304      9306      9309      9307      9306      9308      9307      9306      9309
      9308      9306      9309      9306      9309      9310      9306      9309      9311
      9306      9309      9317      9310      9309      9311      9310      9309      9317
      9311      9309      9317      9309      9311      9312      9311      9312      9313
      9311      9312      9314      9313      9312      9314      9312      9314      9315
      9312      9314      9316      9312      9314      9326      9315      9314      9316
      9315      9314      9326      9316      9314      9326      9309      9317      9318
      9309      9317      9319      9309      9317      9320      9318      9317      9319
      9318      9317      9320      9319      9317      9320      9317      9320      9321
      9320      9321      9322      9320      9321      9323      9322      9321      9323
      9321      9323      9324      9321      9323      9325      9321      9323      9370
      9324      9323      9325      9324      9323      9370      9325      9323      9370
      9314      9326      9327      9314      9326      9328      9314      9326      9329
      9327      9326      9328      9327      9326      9329      9328      9326      9329
      9326      9329      9330      9326      9329      9331      9326      9329      9332
      9330      9329      9331      9330      9329      9332      9331      9329      9332
      9329      9332      9333      9329      9332      9334      9329      9332      9335
      9333      9332      9334      9333      9332      9335      9334      9332      9335
      9332      9335      9336      9332      9335      9337      9332      9335      9338
      9336      9335      9337      9336      9335      9338      9337      9335      9338
      9335      9338      9339      9335      9338      9340      9335      9338      9341
      9339      9338      9340      9339      9338      9341      9340      9338      9341
      9338      9341      9342      9338      9341      9343      9338      9341      9344
      9342      9341      9343      9342      9341      9344      9343      9341      9344
      9341      9344      9345      9341      9344      9346      9341      9344      9349
      9345      9344      9346      9345      9344      9349      9346      9344      9349
      9344      9346      9347      9344      9346      9348      9344      9346      9349
      9347      9346      9348      9347      9346      9349      9348      9346      9349
      9344      9349      9346      9344      9349      9350      9344      9349      9351
      9346      9349      9350      9346      9349      9351      9350      9349      9351
      9349      9351      9352      9349      9351      9353      9349      9351      9354
      9352      9351      9353      9352      9351      9354      9353      9351      9354
      9351      9354      9355      9351      9354      9356      9351      9354      9357
      9355      9354      9356      9355      9354      9357      9356      9354      9357
      9354      9357      9358      9354      9357      9359      9354      9357      9360
      9358      9357      9359      9358      9357      9360      9359      9357      9360
      9357      9360      9361      9357      9360      9362      9357      9360      9363
      9361      9360      9362      9361      9360      9363      9362      9360      9363
      9360      9363      9364      9360      9363      9365      9360      9363      9366
      9364      9363      9365      9364      9363      9366      9365      9363      9366
      9363      9366      9367      9363      9366      9368      9363      9366      9369
      9367      9366      9368      9367      9366      9369      9368      9366      9369
      9323      9370      9371      9323      9370      9372      9323      9370      9373
      9371      9370      9372      9371      9370      9373      9372      9370      9373
      9370      9373      9374      9370      9373      9375      9370      9373      9376
      9374      9373      9375      9374      9373      9376      9375      9373      9376
      9373      9376      9377      9373      9376      9378      9373      9376      9379
      9377      9376      9378      9377      9376      9379      9378      9376      9379
      9376      9379      9380      9376      9379      9381      9376      9379      9382
      9380      9379      9381      9380      9379      9382      9381      9379      9382
      9379      9382      9383      9379      9382      9384      9379      9382      9385
      9383      9382      9384      9383      9382      9385      9384      9382      9385
      9382      9385      9386      9382      9385      9387      9382      9385      9388
      9386      9385      9387      9386      9385      9388      9387      9385      9388
      9385      9388      9389      9385      9388      9390      9385      9388      9391
      9389      9388      9390      9389      9388      9391      9390      9388      9391
      9388      9391      9392      9388      9391      9393      9388      9391      9394
      9392      9391      9393      9392      9391      9394      9393      9391      9394
      9391      9394      9395      9391      9394      9396      9391      9394      9397
      9395      9394      9396      9395      9394      9397      9396      9394      9397
      9394      9397      9398      9394      9397      9399      9394      9397      9400
      9398      9397      9399      9398      9397      9400      9399      9397      9400
      9397      9400      9401      9397      9400      9402      9397      9400      9403
      9401      9400      9402      9401      9400      9403      9402      9400      9403
      9400      9403      9404      9400      9403      9405      9400      9403      9406
      9404      9403      9405      9404      9403      9406      9405      9403      9406
      9403      9406      9407      9403      9406      9408      9403      9406      9409
      9407      9406      9408      9407      9406      9409      9408      9406      9409
      9411      9410      9412      9411      9410      9413      9411      9410      9414
      9412      9410      9413      9412      9410      9414      9413      9410      9414
      9410      9414      9415      9410      9414      9416      9410      9414      9417
      9415      9414      9416      9415      9414      9417      9416      9414      9417
      9414      9417      9418      9414      9417      9419      9414      9417      9424
      9418      9417      9419      9418      9417      9424      9419      9417      9424
      9421      9420      9422      9421      9420      9423      9421      9420      9424
      9422      9420      9423      9422      9420      9424      9423      9420      9424
      9420      9423      9425      9417      9424      9420      9423      9425      9426
      9423      9425      9427      9423      9425      9428      9426      9425      9427
      9426      9425      9428      9427      9425      9428      9425      9428      9429
      9425      9428      9430      9425      9428      9436      9429      9428      9430
      9429      9428      9436      9430      9428      9436      9428      9430      9431
      9430      9431      9432      9430      9431      9433      9432      9431      9433
      9431      9433      9434      9431      9433      9435      9431      9433      9445
      9434      9433      9435      9434      9433      9445      9435      9433      9445
      9428      9436      9437      9428      9436      9438      9428      9436      9439
      9437      9436      9438      9437      9436      9439      9438      9436      9439
      9436      9439      9440      9439      9440      9441      9439      9440      9442
      9441      9440      9442      9440      9442      9443      9440      9442      9444
      9440      9442      9489      9443      9442      9444      9443      9442      9489
      9444      9442      9489      9433      9445      9446      9433      9445      9447
      9433      9445      9448      9446      9445      9447      9446      9445      9448
      9447      9445      9448      9445      9448      9449      9445      9448      9450
      9445      9448      9451      9449      9448      9450      9449      9448      9451
      9450      9448      9451      9448      9451      9452      9448      9451      9453
      9448      9451      9454      9452      9451      9453      9452      9451      9454
      9453      9451      9454      9451      9454      9455      9451      9454      9456
      9451      9454      9457      9455      9454      9456      9455      9454      9457
      9456      9454      9457      9454      9457      9458      9454      9457      9459
      9454      9457      9460      9458      9457      9459      9458      9457      9460
      9459      9457      9460      9457      9460      9461      9457      9460      9462
      9457      9460      9463      9461      9460      9462      9461      9460      9463
      9462      9460      9463      9460      9463      9464      9460      9463      9465
      9460      9463      9468      9464      9463      9465      9464      9463      9468
      9465      9463      9468      9463      9465      9466      9463      9465      9467
      9463      9465      9468      9466      9465      9467      9466      9465      9468
      9467      9465      9468      9463      9468      9465      9463      9468      9469
      9463      9468      9470      9465      9468      9469      9465      9468      9470
      9469      9468      9470      9468      9470      9471      9468      9470      9472
      9468      9470      9473      9471      9470      9472      9471      9470      9473
      9472      9470      9473      9470      9473      9474      9470      9473      9475
      9470      9473      9476      9474      9473      9475      9474      9473      9476
      9475      9473      9476      9473      9476      9477      9473      9476      9478
      9473      9476      9479      9477      9476      9478      9477      9476      9479
      9478      9476      9479      9476      9479      9480      9476      9479      9481
      9476      9479      9482      9480      9479      9481      9480      9479      9482
      9481      9479      9482      9479      9482      9483      9479      9482      9484
      9479      9482      9485      9483      9482      9484      9483      9482      9485
      9484      9482      9485      9482      9485      9486      9482      9485      9487
      9482      9485      9488      9486      9485      9487      9486      9485      9488
      9487      9485      9488      9442      9489      9490      9442      9489      9491
      9442      9489      9492      9490      9489      9491      9490      9489      9492
      9491      9489      9492      9489      9492      9493      9489      9492      9494
      9489      9492      9495      9493      9492      9494      9493      9492      9495
      9494      9492      9495      9492      9495      9496      9492      9495      9497
      9492      9495      9498      9496      9495      9497      9496      9495      9498
      9497      9495      9498      9495      9498      9499      9495      9498      9500
      9495      9498      9501      9499      9498      9500      9499      9498      9501
      9500      9498      9501      9498      9501      9502      9498      9501      9503
      9498      9501      9504      9502      9501      9503      9502      9501      9504
      9503      9501      9504      9501      9504      9505      9501      9504      9506
      9501      9504      9507      9505      9504      9506      9505      9504      9507
      9506      9504      9507      9504      9507      9508      9504      9507      9509
      9504      9507      9510      9508      9507      9509      9508      9507      9510
      9509      9507      9510      9507      9510      9511      9507      9510      9512
      9507      9510      9513      9511      9510      9512      9511      9510      9513
      9512      9510      9513      9510      9513      9514      9510      9513      9515
      9510      9513      9516      9514      9513      9515      9514      9513      9516
      9515      9513      9516      9513      9516      9517      9513      9516      9518
      9513      9516      9519      9517      9516      9518      9517      9516      9519
      9518      9516      9519      9516      9519      9520      9516      9519      9521
      9516      9519      9522      9520      9519      9521      9520      9519      9522
      9521      9519      9522      9519      9522      9523      9519      9522      9524
      9519      9522      9525      9523      9522      9524      9523      9522      9525
      9524      9522      9525      9522      9525      9526      9522      9525      9527
      9522      9525      9528      9526      9525      9527      9526      9525      9528
      9527      9525      9528      9525      9528      9529      9525      9528      9530
      9525      9528      9531      9529      9528      9530      9529      9528      9531
      9530      9528      9531      9533      9532      9534      9533      9532      9535
      9533      9532      9536      9534      9532      9535      9534      9532      9536
      9535      9532      9536      9532      9536      9537      9532      9536      9538
      9532      9536      9539      9537      9536      9538      9537      9536      9539
      9538      9536      9539      9536      9539      9540      9536      9539      9541
      9536      9539      9546      9540      9539      9541      9540      9539      9546
      9541      9539      9546      9543      9542      9544      9543      9542      9545
      9543      9542      9546      9544      9542      9545      9544      9542      9546
      9545      9542      9546      9542      9545      9547      9539      9546      9542
      9545      9547      9548      9545      9547      9549      9545      9547      9550
      9548      9547      9549      9548      9547      9550      9549      9547      9550
      9547      9550      9551      9547      9550      9552      9547      9550      9558
      9551      9550      9552      9551      9550      9558      9552      9550      9558
      9550      9552      9553      9552      9553      9554      9552      9553      9555
      9554      9553      9555      9553      9555      9556      9553      9555      9557
      9553      9555      9567      9556      9555      9557      9556      9555      9567
      9557      9555      9567      9550      9558      9559      9550      9558      9560
      9550      9558      9561      9559      9558      9560      9559      9558      9561
      9560      9558      9561      9558      9561      9562      9561      9562      9563
      9561      9562      9564      9563      9562      9564      9562      9564      9565
      9562      9564      9566      9562      9564      9614      9565      9564      9566
      9565      9564      9614      9566      9564      9614      9555      9567      9568
      9555      9567      9569      9555      9567      9570      9568      9567      9569
      9568      9567      9570      9569      9567      9570      9567      9570      9571
      9567      9570      9572      9567      9570      9573      9571      9570      9572
      9571      9570      9573      9572      9570      9573      9570      9573      9574
      9570      9573      9575      9570      9573      9576      9574      9573      9575
      9574      9573      9576      9575      9573      9576      9573      9576      9577
      9573      9576      9578      9573      9576      9579      9577      9576      9578
      9577      9576      9579      9578      9576      9579      9576      9579      9580
      9576      9579      9581      9576      9579      9582      9580      9579      9581
      9580      9579      9582      9581      9579      9582      9579      9582      9583
      9579      9582      9584      9579      9582      9585      9583      9582      9584
      9583      9582      9585      9584      9582      9585      9582      9585      9586
      9582      9585      9587      9586      9585      9587      9585      9587      9588
      9585      9587      9589      9588      9587      9589      9587      9589      9590
      9587      9589      9591      9587      9589      9592      9590      9589      9591
      9590      9589      9592      9591      9589      9592      9589      9592      9593
      9589      9592      9594      9589      9592      9595      9593      9592      9594
      9593      9592      9595      9594      9592      9595      9592      9595      9596
      9592      9595      9597      9592      9595      9598      9596      9595      9597
      9596      9595      9598      9597      9595      9598      9595      9598      9599
      9595      9598      9600      9595      9598      9601      9599      9598      9600
      9599      9598      9601      9600      9598      9601      9598      9601      9602
      9598      9601      9603      9598      9601      9604      9602      9601      9603
      9602      9601      9604      9603      9601      9604      9601      9604      9605
      9601      9604      9606      9601      9604      9607      9605      9604      9606
      9605      9604      9607      9606      9604      9607      9604      9607      9608
      9604      9607      9609      9604      9607      9610      9608      9607      9609
      9608      9607      9610      9609      9607      9610      9607      9610      9611
      9607      9610      9612      9607      9610      9613      9611      9610      9612
      9611      9610      9613      9612      9610      9613      9564      9614      9615
      9564      9614      9616      9564      9614      9617      9615      9614      9616
      9615      9614      9617      9616      9614      9617      9614      9617      9618
      9614      9617      9619      9614      9617      9620      9618      9617      9619
      9618      9617      9620      9619      9617      9620      9617      9620      9621
      9617      9620      9622      9617      9620      9623      9621      9620      9622
      9621      9620      9623      9622      9620      9623      9620      9623      9624
      9620      9623      9625      9620      9623      9626      9624      9623      9625
      9624      9623      9626      9625      9623      9626      9623      9626      9627
      9623      9626      9628      9623      9626      9629      9627      9626      9628
      9627      9626      9629      9628      9626      9629      9626      9629      9630
      9626      9629      9631      9626      9629      9632      9630      9629      9631
      9630      9629      9632      9631      9629      9632      9629      9632      9633
      9629      9632      9634      9629      9632      9635      9633      9632      9634
      9633      9632      9635      9634      9632      9635      9632      9635      9636
      9632      9635      9637      9632      9635      9638      9636      9635      9637
      9636      9635      9638      9637      9635      9638      9635      9638      9639
      9635      9638      9640      9635      9638      9641      9639      9638      9640
      9639      9638      9641      9640      9638      9641      9638      9641      9642
      9638      9641      9643      9638      9641      9644      9642      9641      9643
      9642      9641      9644      9643      9641      9644      9641      9644      9645
      9641      9644      9646      9641      9644      9647      9645      9644      9646
      9645      9644      9647      9646      9644      9647      9644      9647      9648
      9644      9647      9649      9644      9647      9650      9648      9647      9649
      9648      9647      9650      9649      9647      9650      9647      9650      9651
      9647      9650      9652      9647      9650      9653      9651      9650      9652
      9651      9650      9653      9652      9650      9653      9650      9653      9654
      9650      9653      9655      9650      9653      9656      9654      9653      9655
      9654      9653      9656      9655      9653      9656      9658      9657      9659
      9658      9657      9660      9658      9657      9661      9659      9657      9660
      9659      9657      9661      9660      9657      9661      9657      9661      9662
      9657      9661      9663      9657      9661      9664      9662      9661      9663
      9662      9661      9664      9663      9661      9664      9661      9664      9665
      9661      9664      9666      9661      9664      9671      9665      9664      9666
      9665      9664      9671      9666      9664      9671      9668      9667      9669
      9668      9667      9670      9668      9667      9671      9669      9667      9670
      9669      9667      9671      9670      9667      9671      9667      9670      9672
      9664      9671      9667      9670      9672      9673      9670      9672      9674
      9670      9672      9675      9673      9672      9674      9673      9672      9675
      9674      9672      9675      9672      9675      9676      9672      9675      9677
      9672      9675      9683      9676      9675      9677      9676      9675      9683
      9677      9675      9683      9675      9677      9678      9677      9678      9679
      9677      9678      9680      9679      9678      9680      9678      9680      9681
      9678      9680      9682      9678      9680      9692      9681      9680      9682
      9681      9680      9692      9682      9680      9692      9675      9683      9684
      9675      9683      9685      9675      9683      9686      9684      9683      9685
      9684      9683      9686      9685      9683      9686      9683      9686      9687
      9686      9687      9688      9686      9687      9689      9688      9687      9689
      9687      9689      9690      9687      9689      9691      9687      9689      9736
      9690      9689      9691      9690      9689      9736      9691      9689      9736
      9680      9692      9693      9680      9692      9694      9680      9692      9695
      9693      9692      9694      9693      9692      9695      9694      9692      9695
      9692      9695      9696      9692      9695      9697      9692      9695      9698
      9696      9695      9697      9696      9695      9698      9697      9695      9698
      9695      9698      9699      9695      9698      9700      9695      9698      9701
      9699      9698      9700      9699      9698      9701      9700      9698      9701
      9698      9701      9702      9698      9701      9703      9698      9701      9704
      9702      9701      9703      9702      9701      9704      9703      9701      9704
      9701      9704      9705      9701      9704      9706      9701      9704      9707
      9705      9704      9706      9705      9704      9707      9706      9704      9707
      9704      9707      9708      9704      9707      9709      9704      9707      9710
      9708      9707      9709      9708      9707      9710      9709      9707      9710
      9707      9710      9711      9707      9710      9712      9707      9710      9715
      9711      9710      9712      9711      9710      9715      9712      9710      9715
      9710      9712      9713      9710      9712      9714      9710      9712      9715
      9713      9712      9714      9713      9712      9715      9714      9712      9715
      9710      9715      9712      9710      9715      9716      9710      9715      9717
      9712      9715      9716      9712      9715      9717      9716      9715      9717
      9715      9717      9718      9715      9717      9719      9715      9717      9720
      9718      9717      9719      9718      9717      9720      9719      9717      9720
      9717      9720      9721      9717      9720      9722      9717      9720      9723
      9721      9720      9722      9721      9720      9723      9722      9720      9723
      9720      9723      9724      9720      9723      9725      9720      9723      9726
      9724      9723      9725      9724      9723      9726      9725      9723      9726
      9723      9726      9727      9723      9726      9728      9723      9726      9729
      9727      9726      9728      9727      9726      9729      9728      9726      9729
      9726      9729      9730      9726      9729      9731      9726      9729      9732
      9730      9729      9731      9730      9729      9732      9731      9729      9732
      9729      9732      9733      9729      9732      9734      9729      9732      9735
      9733      9732      9734      9733      9732      9735      9734      9732      9735
      9689      9736      9737      9689      9736      9738      9689      9736      9739
      9737      9736      9738      9737      9736      9739      9738      9736      9739
      9736      9739      9740      9736      9739      9741      9736      9739      9742
      9740      9739      9741      9740      9739      9742      9741      9739      9742
      9739      9742      9743      9739      9742      9744      9739      9742      9745
      9743      9742      9744      9743      9742      9745      9744      9742      9745
      9742      9745      9746      9742      9745      9747      9742      9745      9748
      9746      9745      9747      9746      9745      9748      9747      9745      9748
      9745      9748      9749      9745      9748      9750      9745      9748      9751
      9749      9748      9750      9749      9748      9751      9750      9748      9751
      9748      9751      9752      9748      9751      9753      9748      9751      9754
      9752      9751      9753      9752      9751      9754      9753      9751      9754
      9751      9754      9755      9751      9754      9756      9751      9754      9757
      9755      9754      9756      9755      9754      9757      9756      9754      9757
      9754      9757      9758      9754      9757      9759      9754      9757      9760
      9758      9757      9759      9758      9757      9760      9759      9757      9760
      9757      9760      9761      9757      9760      9762      9757      9760      9763
      9761      9760      9762      9761      9760      9763      9762      9760      9763
      9760      9763      9764      9760      9763      9765      9760      9763      9766
      9764      9763      9765      9764      9763      9766      9765      9763      9766
      9763      9766      9767      9763      9766      9768      9763      9766      9769
      9767      9766      9768      9767      9766      9769      9768      9766      9769
      9766      9769      9770      9766      9769      9771      9766      9769      9772
      9770      9769      9771      9770      9769      9772      9771      9769      9772
      9769      9772      9773      9769      9772      9774      9769      9772      9775
      9773      9772      9774      9773      9772      9775      9774      9772      9775
      9777      9776      9778      9777      9776      9779      9777      9776      9780
      9778      9776      9779      9778      9776      9780      9779      9776      9780
      9776      9780      9781      9776      9780      9782      9776      9780      9783
      9781      9780      9782      9781      9780      9783      9782      9780      9783
      9780      9783      9784      9780      9783      9785      9780      9783      9790
      9784      9783      9785      9784      9783      9790      9785      9783      9790
      9787      9786      9788      9787      9786      9789      9787      9786      9790
      9788      9786      9789      9788      9786      9790      9789      9786      9790
      9786      9789      9791      9783      9790      9786      9789      9791      9792
      9789      9791      9793      9789      9791      9794      9792      9791      9793
      9792      9791      9794      9793      9791      9794      9791      9794      9795
      9791      9794      9796      9791      9794      9802      9795      9794      9796
      9795      9794      9802      9796      9794      9802      9794      9796      9797
      9796      9797      9798      9796      9797      9799      9798      9797      9799
      9797      9799      9800      9797      9799      9801      9797      9799      9811
      9800      9799      9801      9800      9799      9811      9801      9799      9811
      9794      9802      9803      9794      9802      9804      9794      9802      9805
      9803      9802      9804      9803      9802      9805      9804      9802      9805
      9802      9805      9806      9805      9806      9807      9805      9806      9808
      9807      9806      9808      9806      9808      9809      9806      9808      9810
      9806      9808      9855      9809      9808      9810      9809      9808      9855
      9810      9808      9855      9799      9811      9812      9799      9811      9813
      9799      9811      9814      9812      9811      9813      9812      9811      9814
      9813      9811      9814      9811      9814      9815      9811      9814      9816
      9811      9814      9817      9815      9814      9816      9815      9814      9817
      9816      9814      9817      9814      9817      9818      9814      9817      9819
      9814      9817      9820      9818      9817      9819      9818      9817      9820
      9819      9817      9820      9817      9820      9821      9817      9820      9822
      9817      9820      9823      9821      9820      9822      9821      9820      9823
      9822      9820      9823      9820      9823      9824      9820      9823      9825
      9820      9823      9826      9824      9823      9825      9824      9823      9826
      9825      9823      9826      9823      9826      9827      9823      9826      9828
      9823      9826      9829      9827      9826      9828      9827      9826      9829
      9828      9826      9829      9826      9829      9830      9826      9829      9831
      9826      9829      9834      9830      9829      9831      9830      9829      9834
      9831      9829      9834      9829      9831      9832      9829      9831      9833
      9829      9831      9834      9832      9831      9833      9832      9831      9834
      9833      9831      9834      9829      9834      9831      9829      9834      9835
      9829      9834      9836      9831      9834      9835      9831      9834      9836
      9835      9834      9836      9834      9836      9837      9834      9836      9838
      9834      9836      9839      9837      9836      9838      9837      9836      9839
      9838      9836      9839      9836      9839      9840      9836      9839      9841
      9836      9839      9842      9840      9839      9841      9840      9839      9842
      9841      9839      9842      9839      9842      9843      9839      9842      9844
      9839      9842      9845      9843      9842      9844      9843      9842      9845
      9844      9842      9845      9842      9845      9846      9842      9845      9847
      9842      9845      9848      9846      9845      9847      9846      9845      9848
      9847      9845      9848      9845      9848      9849      9845      9848      9850
      9845      9848      9851      9849      9848      9850      9849      9848      9851
      9850      9848      9851      9848      9851      9852      9848      9851      9853
      9848      9851      9854      9852      9851      9853      9852      9851      9854
      9853      9851      9854      9808      9855      9856      9808      9855      9857
      9808      9855      9858      9856      9855      9857      9856      9855      9858
      9857      9855      9858      9855      9858      9859      9855      9858      9860
      9855      9858      9861      9859      9858      9860      9859      9858      9861
      9860      9858      9861      9858      9861      9862      9858      9861      9863
      9858      9861      9864      9862      9861      9863      9862      9861      9864
      9863      9861      9864      9861      9864      9865      9861      9864      9866
      9861      9864      9867      9865      9864      9866      9865      9864      9867
      9866      9864      9867      9864      9867      9868      9864      9867      9869
      9864      9867      9870      9868      9867      9869      9868      9867      9870
      9869      9867      9870      9867      9870      9871      9867      9870      9872
      9867      9870      9873      9871      9870      9872      9871      9870      9873
      9872      9870      9873      9870      9873      9874      9870      9873      9875
      9870      9873      9876      9874      9873      9875      9874      9873      9876
      9875      9873      9876      9873      9876      9877      9873      9876      9878
      9873      9876      9879      9877      9876      9878      9877      9876      9879
      9878      9876      9879      9876      9879      9880      9876      9879      9881
      9876      9879      9882      9880      9879      9881      9880      9879      9882
      9881      9879      9882      9879      9882      9883      9879      9882      9884
      9879      9882      9885      9883      9882      9884      9883      9882      9885
      9884      9882      9885      9882      9885      9886      9882      9885      9887
      9882      9885      9888      9886      9885      9887      9886      9885      9888
      9887      9885      9888      9885      9888      9889      9885      9888      9890
      9885      9888      9891      9889      9888      9890      9889      9888      9891
      9890      9888      9891      9888      9891      9892      9888      9891      9893
      9888      9891      9894      9892      9891      9893      9892      9891      9894
      9893      9891      9894      9891      9894      9895      9891      9894      9896
      9891      9894      9897      9895      9894      9896      9895      9894      9897
      9896      9894      9897      9899      9898      9900      9899      9898      9901
      9899      9898      9902      9900      9898      9901      9900      9898      9902
      9901      9898      9902      9898      9902      9903      9898      9902      9904
      9898      9902      9905      9903      9902      9904      9903      9902      9905
      9904      9902      9905      9902      9905      9906      9902      9905      9907
      9902      9905      9912      9906      9905      9907      9906      9905      9912
      9907      9905      9912      9909      9908      9910      9909      9908      9911
      9909      9908      9912      9910      9908      9911      9910      9908      9912
      9911      9908      9912      9908      9911      9913      9905      9912      9908
      9911      9913      9914      9911      9913      9915      9911      9913      9916
      9914      9913      9915      9914      9913      9916      9915      9913      9916
      9913      9916      9917      9913      9916      9918      9913      9916      9924
      9917      9916      9918      9917      9916      9924      9918      9916      9924
      9916      9918      9919      9918      9919      9920      9918      9919      9921
      9920      9919      9921      9919      9921      9922      9919      9921      9923
      9919      9921      9933      9922      9921      9923      9922      9921      9933
      9923      9921      9933      9916      9924      9925      9916      9924      9926
      9916      9924      9927      9925      9924      9926      9925      9924      9927
      9926      9924      9927      9924      9927      9928      9927      9928      9929
      9927      9928      9930      9929      9928      9930      9928      9930      9931
      9928      9930      9932      9928      9930      9977      9931      9930      9932
      9931      9930      9977      9932      9930      9977      9921      9933      9934
      9921      9933      9935      9921      9933      9936      9934      9933      9935
      9934      9933      9936      9935      9933      9936      9933      9936      9937
      9933      9936      9938      9933      9936      9939      9937      9936      9938
      9937      9936      9939      9938      9936      9939      9936      9939      9940
      9936      9939      9941      9936      9939      9942      9940      9939      9941
      9940      9939      9942      9941      9939      9942      9939      9942      9943
      9939      9942      9944      9939      9942      9945      9943      9942      9944
      9943      9942      9945      9944      9942      9945      9942      9945      9946
      9942      9945      9947      9942      9945      9948      9946      9945      9947
      9946      9945      9948      9947      9945      9948      9945      9948      9949
      9945      9948      9950      9945      9948      9951      9949      9948      9950
      9949      9948      9951      9950      9948      9951      9948      9951      9952
      9948      9951      9953      9948      9951      9956      9952      9951      9953
      9952      9951      9956      9953      9951      9956      9951      9953      9954
      9951      9953      9955      9951      9953      9956      9954      9953      9955
      9954      9953      9956      9955      9953      9956      9951      9956      9953
      9951      9956      9957      9951      9956      9958      9953      9956      9957
      9953      9956      9958      9957      9956      9958      9956      9958      9959
      9956      9958      9960      9956      9958      9961      9959      9958      9960
      9959      9958      9961      9960      9958      9961      9958      9961      9962
      9958      9961      9963      9958      9961      9964      9962      9961      9963
      9962      9961      9964      9963      9961      9964      9961      9964      9965
      9961      9964      9966      9961      9964      9967      9965      9964      9966
      9965      9964      9967      9966      9964      9967      9964      9967      9968
      9964      9967      9969      9964      9967      9970      9968      9967      9969
      9968      9967      9970      9969      9967      9970      9967      9970      9971
      9967      9970      9972      9967      9970      9973      9971      9970      9972
      9971      9970      9973      9972      9970      9973      9970      9973      9974
      9970      9973      9975      9970      9973      9976      9974      9973      9975
      9974      9973      9976      9975      9973      9976      9930      9977      9978
      9930      9977      9979      9930      9977      9980      9978      9977      9979
      9978      9977      9980      9979      9977      9980      9977      9980      9981
      9977      9980      9982      9977      9980      9983      9981      9980      9982
      9981      9980      9983      9982      9980      9983      9980      9983      9984
      9980      9983      9985      9980      9983      9986      9984      9983      9985
      9984      9983      9986      9985      9983      9986      9983      9986      9987
      9983      9986      9988      9983      9986      9989      9987      9986      9988
      9987      9986      9989      9988      9986      9989      9986      9989      9990
      9986      9989      9991      9986      9989      9992      9990      9989      9991
      9990      9989      9992      9991      9989      9992      9989      9992      9993
      9989      9992      9994      9989      9992      9995      9993      9992      9994
      9993      9992      9995      9994      9992      9995      9992      9995      9996
      9992      9995      9997      9992      9995      9998      9996      9995      9997
      9996      9995      9998      9997      9995      9998      9995      9998      9999
      9995      9998     10000      9995      9998     10001      9999      9998     10000
      9999      9998     10001     10000      9998     10001      9998     10001     10002
      9998     10001     10003      9998     10001     10004     10002     10001     10003
     10002     10001     10004     10003     10001     10004     10001     10004     10005
     10001     10004     10006     10001     10004     10007     10005     10004     10006
     10005     10004     10007     10006     10004     10007     10004     10007     10008
     10004     10007     10009     10004     10007     10010     10008     10007     10009
     10008     10007     10010     10009     10007     10010     10007     10010     10011
     10007     10010     10012     10007     10010     10013     10011     10010     10012
     10011     10010     10013     10012     10010     10013     10010     10013     10014
     10010     10013     10015     10010     10013     10016     10014     10013     10015
     10014     10013     10016     10015     10013     10016     10018     10017     10019
     10018     10017     10020     10018     10017     10021     10019     10017     10020
     10019     10017     10021     10020     10017     10021     10017     10021     10022
     10017     10021     10023     10017     10021     10024     10022     10021     10023
     10022     10021     10024     10023     10021     10024     10021     10024     10025
     10021     10024     10026     10021     10024     10031     10025     10024     10026
     10025     10024     10031     10026     10024     10031     10028     10027     10029
     10028     10027     10030     10028     10027     10031     10029     10027     10030
     10029     10027     10031     10030     10027     10031     10027     10030     10032
     10024     10031     10027     10030     10032     10033     10030     10032     10034
     10030     10032     10035     10033     10032     10034     10033     10032     10035
     10034     10032     10035     10032     10035     10036     10032     10035     10037
     10032     10035     10043     10036     10035     10037     10036     10035     10043
     10037     10035     10043     10035     10037     10038     10037     10038     10039
     10037     10038     10040     10039     10038     10040     10038     10040     10041
     10038     10040     10042     10038     10040     10052     10041     10040     10042
     10041     10040     10052     10042     10040     10052     10035     10043     10044
     10035     10043     10045     10035     10043     10046     10044     10043     10045
     10044     10043     10046     10045     10043     10046     10043     10046     10047
     10046     10047     10048     10046     10047     10049     10048     10047     10049
     10047     10049     10050     10047     10049     10051     10047     10049     10096
     10050     10049     10051     10050     10049     10096     10051     10049     10096
     10040     10052     10053     10040     10052     10054     10040     10052     10055
     10053     10052     10054     10053     10052     10055     10054     10052     10055
     10052     10055     10056     10052     10055     10057     10052     10055     10058
     10056     10055     10057     10056     10055     10058     10057     10055     10058
     10055     10058     10059     10055     10058     10060     10055     10058     10061
     10059     10058     10060     10059     10058     10061     10060     10058     10061
     10058     10061     10062     10058     10061     10063     10058     10061     10064
     10062     10061     10063     10062     10061     10064     10063     10061     10064
     10061     10064     10065     10061     10064     10066     10061     10064     10067
     10065     10064     10066     10065     10064     10067     10066     10064     10067
     10064     10067     10068     10064     10067     10069     10064     10067     10070
     10068     10067     10069     10068     10067     10070     10069     10067     10070
     10067     10070     10071     10067     10070     10072     10067     10070     10075
     10071     10070     10072     10071     10070     10075     10072     10070     10075
     10070     10072     10073     10070     10072     10074     10070     10072     10075
     10073     10072     10074     10073     10072     10075     10074     10072     10075
     10070     10075     10072     10070     10075     10076     10070     10075     10077
     10072     10075     10076     10072     10075     10077     10076     10075     10077
     10075     10077     10078     10075     10077     10079     10075     10077     10080
     10078     10077     10079     10078     10077     10080     10079     10077     10080
     10077     10080     10081     10077     10080     10082     10077     10080     10083
     10081     10080     10082     10081     10080     10083     10082     10080     10083
     10080     10083     10084     10080     10083     10085     10080     10083     10086
     10084     10083     10085     10084     10083     10086     10085     10083     10086
     10083     10086     10087     10083     10086     10088     10083     10086     10089
     10087     10086     10088     10087     10086     10089     10088     10086     10089
     10086     10089     10090     10086     10089     10091     10086     10089     10092
     10090     10089     10091     10090     10089     10092     10091     10089     10092
     10089     10092     10093     10089     10092     10094     10089     10092     10095
     10093     10092     10094     10093     10092     10095     10094     10092     10095
     10049     10096     10097     10049     10096     10098     10049     10096     10099
     10097     10096     10098     10097     10096     10099     10098     10096     10099
     10096     10099     10100     10096     10099     10101     10096     10099     10102
     10100     10099     10101     10100     10099     10102     10101     10099     10102
     10099     10102     10103     10099     10102     10104     10099     10102     10105
     10103     10102     10104     10103     10102     10105     10104     10102     10105
     10102     10105     10106     10102     10105     10107     10102     10105     10108
     10106     10105     10107     10106     10105     10108     10107     10105     10108
     10105     10108     10109     10105     10108     10110     10105     10108     10111
     10109     10108     10110     10109     10108     10111     10110     10108     10111
     10108     10111     10112     10108     10111     10113     10108     10111     10114
     10112     10111     10113     10112     10111     10114     10113     10111     10114
     10111     10114     10115     10111     10114     10116     10111     10114     10117
     10115     10114     10116     10115     10114     10117     10116     10114     10117
     10114     10117     10118     10114     10117     10119     10114     10117     10120
     10118     10117     10119     10118     10117     10120     10119     10117     10120
     10117     10120     10121     10117     10120     10122     10117     10120     10123
     10121     10120     10122     10121     10120     10123     10122     10120     10123
     10120     10123     10124     10120     10123     10125     10120     10123     10126
     10124     10123     10125     10124     10123     10126     10125     10123     10126
     10123     10126     10127     10123     10126     10128     10123     10126     10129
     10127     10126     10128     10127     10126     10129     10128     10126     10129
     10126     10129     10130     10126     10129     10131     10126     10129     10132
     10130     10129     10131     10130     10129     10132     10131     10129     10132
     10129     10132     10133     10129     10132     10134     10129     10132     10135
     10133     10132     10134     10133     10132     10135     10134     10132     10135
     10132     10135     10136     10132     10135     10137     10132     10135     10138
     10136     10135     10137     10136     10135     10138     10137     10135     10138
     10140     10139     10141     10140     10139     10142     10140     10139     10143
     10141     10139     10142     10141     10139     10143     10142     10139     10143
     10139     10143     10144     10139     10143     10145     10139     10143     10146
     10144     10143     10145     10144     10143     10146     10145     10143     10146
     10143     10146     10147     10143     10146     10148     10143     10146     10153
     10147     10146     10148     10147     10146     10153     10148     10146     10153
     10150     10149     10151     10150     10149     10152     10150     10149     10153
     10151     10149     10152     10151     10149     10153     10152     10149     10153
     10149     10152     10154     10146     10153     10149     10152     10154     10155
     10152     10154     10156     10152     10154     10157     10155     10154     10156
     10155     10154     10157     10156     10154     10157     10154     10157     10158
     10154     10157     10159     10154     10157     10165     10158     10157     10159
     10158     10157     10165     10159     10157     10165     10157     10159     10160
     10159     10160     10161     10159     10160     10162     10161     10160     10162
     10160     10162     10163     10160     10162     10164     10160     10162     10174
     10163     10162     10164     10163     10162     10174     10164     10162     10174
     10157     10165     10166     10157     10165     10167     10157     10165     10168
     10166     10165     10167     10166     10165     10168     10167     10165     10168
     10165     10168     10169     10168     10169     10170     10168     10169     10171
     10170     10169     10171     10169     10171     10172     10169     10171     10173
     10169     10171     10218     10172     10171     10173     10172     10171     10218
     10173     10171     10218     10162     10174     10175     10162     10174     10176
     10162     10174     10177     10175     10174     10176     10175     10174     10177
     10176     10174     10177     10174     10177     10178     10174     10177     10179
     10174     10177     10180     10178     10177     10179     10178     10177     10180
     10179     10177     10180     10177     10180     10181     10177     10180     10182
     10177     10180     10183     10181     10180     10182     10181     10180     10183
     10182     10180     10183     10180     10183     10184     10180     10183     10185
     10180     10183     10186     10184     10183     10185     10184     10183     10186
     10185     10183     10186     10183     10186     10187     10183     10186     10188
     10183     10186     10189     10187     10186     10188     10187     10186     10189
     10188     10186     10189     10186     10189     10190     10186     10189     10191
     10186     10189     10192     10190     10189     10191     10190     10189     10192
     10191     10189     10192     10189     10192     10193     10189     10192     10194
     10189     10192     10197     10193     10192     10194     10193     10192     10197
     10194     10192     10197     10192     10194     10195     10192     10194     10196
     10192     10194     10197     10195     10194     10196     10195     10194     10197
     10196     10194     10197     10192     10197     10194     10192     10197     10198
     10192     10197     10199     10194     10197     10198     10194     10197     10199
     10198     10197     10199     10197     10199     10200     10197     10199     10201
     10197     10199     10202     10200     10199     10201     10200     10199     10202
     10201     10199     10202     10199     10202     10203     10199     10202     10204
     10199     10202     10205     10203     10202     10204     10203     10202     10205
     10204     10202     10205     10202     10205     10206     10202     10205     10207
     10202     10205     10208     10206     10205     10207     10206     10205     10208
     10207     10205     10208     10205     10208     10209     10205     10208     10210
     10205     10208     10211     10209     10208     10210     10209     10208     10211
     10210     10208     10211     10208     10211     10212     10208     10211     10213
     10208     10211     10214     10212     10211     10213     10212     10211     10214
     10213     10211     10214     10211     10214     10215     10211     10214     10216
     10211     10214     10217     10215     10214     10216     10215     10214     10217
     10216     10214     10217     10171     10218     10219     10171     10218     10220
     10171     10218     10221     10219     10218     10220     10219     10218     10221
     10220     10218     10221     10218     10221     10222     10218     10221     10223
     10218     10221     10224     10222     10221     10223     10222     10221     10224
     10223     10221     10224     10221     10224     10225     10221     10224     10226
     10221     10224     10227     10225     10224     10226     10225     10224     10227
     10226     10224     10227     10224     10227     10228     10224     10227     10229
     10224     10227     10230     10228     10227     10229     10228     10227     10230
     10229     10227     10230     10227     10230     10231     10227     10230     10232
     10227     10230     10233     10231     10230     10232     10231     10230     10233
     10232     10230     10233     10230     10233     10234     10230     10233     10235
     10230     10233     10236     10234     10233     10235     10234     10233     10236
     10235     10233     10236     10233     10236     10237     10233     10236     10238
     10233     10236     10239     10237     10236     10238     10237     10236     10239
     10238     10236     10239     10236     10239     10240     10236     10239     10241
     10236     10239     10242     10240     10239     10241     10240     10239     10242
     10241     10239     10242     10239     10242     10243     10239     10242     10244
     10239     10242     10245     10243     10242     10244     10243     10242     10245
     10244     10242     10245     10242     10245     10246     10242     10245     10247
     10242     10245     10248     10246     10245     10247     10246     10245     10248
     10247     10245     10248     10245     10248     10249     10245     10248     10250
     10245     10248     10251     10249     10248     10250     10249     10248     10251
     10250     10248     10251     10248     10251     10252     10248     10251     10253
     10248     10251     10254     10252     10251     10253     10252     10251     10254
     10253     10251     10254     10251     10254     10255     10251     10254     10256
     10251     10254     10257     10255     10254     10256     10255     10254     10257
     10256     10254     10257     10259     10258     10260     10259     10258     10261
     10259     10258     10262     10260     10258     10261     10260     10258     10262
     10261     10258     10262     10258     10262     10263     10258     10262     10264
     10258     10262     10265     10263     10262     10264     10263     10262     10265
     10264     10262     10265     10262     10265     10266     10262     10265     10267
     10262     10265     10272     10266     10265     10267     10266     10265     10272
     10267     10265     10272     10269     10268     10270     10269     10268     10271
     10269     10268     10272     10270     10268     10271     10270     10268     10272
     10271     10268     10272     10268     10271     10273     10265     10272     10268
     10271     10273     10274     10271     10273     10275     10271     10273     10276
     10274     10273     10275     10274     10273     10276     10275     10273     10276
     10273     10276     10277     10273     10276     10278     10273     10276     10284
     10277     10276     10278     10277     10276     10284     10278     10276     10284
     10276     10278     10279     10278     10279     10280     10278     10279     10281
     10280     10279     10281     10279     10281     10282     10279     10281     10283
     10279     10281     10293     10282     10281     10283     10282     10281     10293
     10283     10281     10293     10276     10284     10285     10276     10284     10286
     10276     10284     10287     10285     10284     10286     10285     10284     10287
     10286     10284     10287     10284     10287     10288     10287     10288     10289
     10287     10288     10290     10289     10288     10290     10288     10290     10291
     10288     10290     10292     10288     10290     10340     10291     10290     10292
     10291     10290     10340     10292     10290     10340     10281     10293     10294
     10281     10293     10295     10281     10293     10296     10294     10293     10295
     10294     10293     10296     10295     10293     10296     10293     10296     10297
     10293     10296     10298     10293     10296     10299     10297     10296     10298
     10297     10296     10299     10298     10296     10299     10296     10299     10300
     10296     10299     10301     10296     10299     10302     10300     10299     10301
     10300     10299     10302     10301     10299     10302     10299     10302     10303
     10299     10302     10304     10299     10302     10305     10303     10302     10304
     10303     10302     10305     10304     10302     10305     10302     10305     10306
     10302     10305     10307     10302     10305     10308     10306     10305     10307
     10306     10305     10308     10307     10305     10308     10305     10308     10309
     10305     10308     10310     10305     10308     10311     10309     10308     10310
     10309     10308     10311     10310     10308     10311     10308     10311     10312
     10308     10311     10313     10312     10311     10313     10311     10313     10314
     10311     10313     10315     10314     10313     10315     10313     10315     10316
     10313     10315     10317     10313     10315     10318     10316     10315     10317
     10316     10315     10318     10317     10315     10318     10315     10318     10319
     10315     10318     10320     10315     10318     10321     10319     10318     10320
     10319     10318     10321     10320     10318     10321     10318     10321     10322
     10318     10321     10323     10318     10321     10324     10322     10321     10323
     10322     10321     10324     10323     10321     10324     10321     10324     10325
     10321     10324     10326     10321     10324     10327     10325     10324     10326
     10325     10324     10327     10326     10324     10327     10324     10327     10328
     10324     10327     10329     10324     10327     10330     10328     10327     10329
     10328     10327     10330     10329     10327     10330     10327     10330     10331
     10327     10330     10332     10327     10330     10333     10331     10330     10332
     10331     10330     10333     10332     10330     10333     10330     10333     10334
     10330     10333     10335     10330     10333     10336     10334     10333     10335
     10334     10333     10336     10335     10333     10336     10333     10336     10337
     10333     10336     10338     10333     10336     10339     10337     10336     10338
     10337     10336     10339     10338     10336     10339     10290     10340     10341
     10290     10340     10342     10290     10340     10343     10341     10340     10342
     10341     10340     10343     10342     10340     10343     10340     10343     10344
     10340     10343     10345     10340     10343     10346     10344     10343     10345
     10344     10343     10346     10345     10343     10346     10343     10346     10347
     10343     10346     10348     10343     10346     10349     10347     10346     10348
     10347     10346     10349     10348     10346     10349     10346     10349     10350
     10346     10349     10351     10346     10349     10352     10350     10349     10351
     10350     10349     10352     10351     10349     10352     10349     10352     10353
     10349     10352     10354     10349     10352     10355     10353     10352     10354
     10353     10352     10355     10354     10352     10355     10352     10355     10356
     10352     10355     10357     10352     10355     10358     10356     10355     10357
     10356     10355     10358     10357     10355     10358     10355     10358     10359
     10355     10358     10360     10355     10358     10361     10359     10358     10360
     10359     10358     10361     10360     10358     10361     10358     10361     10362
     10358     10361     10363     10358     10361     10364     10362     10361     10363
     10362     10361     10364     10363     10361     10364     10361     10364     10365
     10361     10364     10366     10361     10364     10367     10365     10364     10366
     10365     10364     10367     10366     10364     10367     10364     10367     10368
     10364     10367     10369     10364     10367     10370     10368     10367     10369
     10368     10367     10370     10369     10367     10370     10367     10370     10371
     10367     10370     10372     10367     10370     10373     10371     10370     10372
     10371     10370     10373     10372     10370     10373     10370     10373     10374
     10370     10373     10375     10370     10373     10376     10374     10373     10375
     10374     10373     10376     10375     10373     10376     10373     10376     10377
     10373     10376     10378     10373     10376     10379     10377     10376     10378
     10377     10376     10379     10378     10376     10379     10376     10379     10380
     10376     10379     10381     10376     10379     10382     10380     10379     10381
     10380     10379     10382     10381     10379     10382     10384     10383     10385
     10384     10383     10386     10384     10383     10387     10385     10383     10386
     10385     10383     10387     10386     10383     10387     10383     10387     10388
     10383     10387     10389     10383     10387     10390     10388     10387     10389
     10388     10387     10390     10389     10387     10390     10387     10390     10391
     10387     10390     10392     10387     10390     10397     10391     10390     10392
     10391     10390     10397     10392     10390     10397     10394     10393     10395
     10394     10393     10396     10394     10393     10397     10395     10393     10396
     10395     10393     10397     10396     10393     10397     10393     10396     10398
     10390     10397     10393     10396     10398     10399     10396     10398     10400
     10396     10398     10401     10399     10398     10400     10399     10398     10401
     10400     10398     10401     10398     10401     10402     10398     10401     10403
     10398     10401     10409     10402     10401     10403     10402     10401     10409
     10403     10401     10409     10401     10403     10404     10403     10404     10405
     10403     10404     10406     10405     10404     10406     10404     10406     10407
     10404     10406     10408     10404     10406     10418     10407     10406     10408
     10407     10406     10418     10408     10406     10418     10401     10409     10410
     10401     10409     10411     10401     10409     10412     10410     10409     10411
     10410     10409     10412     10411     10409     10412     10409     10412     10413
     10412     10413     10414     10412     10413     10415     10414     10413     10415
     10413     10415     10416     10413     10415     10417     10413     10415     10465
     10416     10415     10417     10416     10415     10465     10417     10415     10465
     10406     10418     10419     10406     10418     10420     10406     10418     10421
     10419     10418     10420     10419     10418     10421     10420     10418     10421
     10418     10421     10422     10418     10421     10423     10418     10421     10424
     10422     10421     10423     10422     10421     10424     10423     10421     10424
     10421     10424     10425     10421     10424     10426     10421     10424     10427
     10425     10424     10426     10425     10424     10427     10426     10424     10427
     10424     10427     10428     10424     10427     10429     10424     10427     10430
     10428     10427     10429     10428     10427     10430     10429     10427     10430
     10427     10430     10431     10427     10430     10432     10427     10430     10433
     10431     10430     10432     10431     10430     10433     10432     10430     10433
     10430     10433     10434     10430     10433     10435     10430     10433     10436
     10434     10433     10435     10434     10433     10436     10435     10433     10436
     10433     10436     10437     10433     10436     10438     10437     10436     10438
     10436     10438     10439     10436     10438     10440     10439     10438     10440
     10438     10440     10441     10438     10440     10442     10438     10440     10443
     10441     10440     10442     10441     10440     10443     10442     10440     10443
     10440     10443     10444     10440     10443     10445     10440     10443     10446
     10444     10443     10445     10444     10443     10446     10445     10443     10446
     10443     10446     10447     10443     10446     10448     10443     10446     10449
     10447     10446     10448     10447     10446     10449     10448     10446     10449
     10446     10449     10450     10446     10449     10451     10446     10449     10452
     10450     10449     10451     10450     10449     10452     10451     10449     10452
     10449     10452     10453     10449     10452     10454     10449     10452     10455
     10453     10452     10454     10453     10452     10455     10454     10452     10455
     10452     10455     10456     10452     10455     10457     10452     10455     10458
     10456     10455     10457     10456     10455     10458     10457     10455     10458
     10455     10458     10459     10455     10458     10460     10455     10458     10461
     10459     10458     10460     10459     10458     10461     10460     10458     10461
     10458     10461     10462     10458     10461     10463     10458     10461     10464
     10462     10461     10463     10462     10461     10464     10463     10461     10464
     10415     10465     10466     10415     10465     10467     10415     10465     10468
     10466     10465     10467     10466     10465     10468     10467     10465     10468
     10465     10468     10469     10465     10468     10470     10465     10468     10471
     10469     10468     10470     10469     10468     10471     10470     10468     10471
     10468     10471     10472     10468     10471     10473     10468     10471     10474
     10472     10471     10473     10472     10471     10474     10473     10471     10474
     10471     10474     10475     10471     10474     10476     10471     10474     10477
     10475     10474     10476     10475     10474     10477     10476     10474     10477
     10474     10477     10478     10474     10477     10479     10474     10477     10480
     10478     10477     10479     10478     10477     10480     10479     10477     10480
     10477     10480     10481     10477     10480     10482     10477     10480     10483
     10481     10480     10482     10481     10480     10483     10482     10480     10483
     10480     10483     10484     10480     10483     10485     10480     10483     10486
     10484     10483     10485     10484     10483     10486     10485     10483     10486
     10483     10486     10487     10483     10486     10488     10483     10486     10489
     10487     10486     10488     10487     10486     10489     10488     10486     10489
     10486     10489     10490     10486     10489     10491     10486     10489     10492
     10490     10489     10491     10490     10489     10492     10491     10489     10492
     10489     10492     10493     10489     10492     10494     10489     10492     10495
     10493     10492     10494     10493     10492     10495     10494     10492     10495
     10492     10495     10496     10492     10495     10497     10492     10495     10498
     10496     10495     10497     10496     10495     10498     10497     10495     10498
     10495     10498     10499     10495     10498     10500     10495     10498     10501
     10499     10498     10500     10499     10498     10501     10500     10498     10501
     10498     10501     10502     10498     10501     10503     10498     10501     10504
     10502     10501     10503     10502     10501     10504     10503     10501     10504
     10501     10504     10505     10501     10504     10506     10501     10504     10507
     10505     10504     10506     10505     10504     10507     10506     10504     10507
     10509     10508     10510     10509     10508     10511     10509     10508     10512
     10510     10508     10511     10510     10508     10512     10511     10508     10512
     10508     10512     10513     10508     10512     10514     10508     10512     10515
     10513     10512     10514     10513     10512     10515     10514     10512     10515
     10512     10515     10516     10512     10515     10517     10512     10515     10522
     10516     10515     10517     10516     10515     10522     10517     10515     10522
     10519     10518     10520     10519     10518     10521     10519     10518     10522
     10520     10518     10521     10520     10518     10522     10521     10518     10522
     10518     10521     10523     10515     10522     10518     10521     10523     10524
     10521     10523     10525     10521     10523     10526     10524     10523     10525
     10524     10523     10526     10525     10523     10526     10523     10526     10527
     10523     10526     10528     10523     10526     10534     10527     10526     10528
     10527     10526     10534     10528     10526     10534     10526     10528     10529
     10528     10529     10530     10528     10529     10531     10530     10529     10531
     10529     10531     10532     10529     10531     10533     10529     10531     10543
     10532     10531     10533     10532     10531     10543     10533     10531     10543
     10526     10534     10535     10526     10534     10536     10526     10534     10537
     10535     10534     10536     10535     10534     10537     10536     10534     10537
     10534     10537     10538     10537     10538     10539     10537     10538     10540
     10539     10538     10540     10538     10540     10541     10538     10540     10542
     10538     10540     10587     10541     10540     10542     10541     10540     10587
     10542     10540     10587     10531     10543     10544     10531     10543     10545
     10531     10543     10546     10544     10543     10545     10544     10543     10546
     10545     10543     10546     10543     10546     10547     10543     10546     10548
     10543     10546     10549     10547     10546     10548     10547     10546     10549
     10548     10546     10549     10546     10549     10550     10546     10549     10551
     10546     10549     10552     10550     10549     10551     10550     10549     10552
     10551     10549     10552     10549     10552     10553     10549     10552     10554
     10549     10552     10555     10553     10552     10554     10553     10552     10555
     10554     10552     10555     10552     10555     10556     10552     10555     10557
     10552     10555     10558     10556     10555     10557     10556     10555     10558
     10557     10555     10558     10555     10558     10559     10555     10558     10560
     10555     10558     10561     10559     10558     10560     10559     10558     10561
     10560     10558     10561     10558     10561     10562     10558     10561     10563
     10558     10561     10566     10562     10561     10563     10562     10561     10566
     10563     10561     10566     10561     10563     10564     10561     10563     10565
     10561     10563     10566     10564     10563     10565     10564     10563     10566
     10565     10563     10566     10561     10566     10563     10561     10566     10567
     10561     10566     10568     10563     10566     10567     10563     10566     10568
     10567     10566     10568     10566     10568     10569     10566     10568     10570
     10566     10568     10571     10569     10568     10570     10569     10568     10571
     10570     10568     10571     10568     10571     10572     10568     10571     10573
     10568     10571     10574     10572     10571     10573     10572     10571     10574
     10573     10571     10574     10571     10574     10575     10571     10574     10576
     10571     10574     10577     10575     10574     10576     10575     10574     10577
     10576     10574     10577     10574     10577     10578     10574     10577     10579
     10574     10577     10580     10578     10577     10579     10578     10577     10580
     10579     10577     10580     10577     10580     10581     10577     10580     10582
     10577     10580     10583     10581     10580     10582     10581     10580     10583
     10582     10580     10583     10580     10583     10584     10580     10583     10585
     10580     10583     10586     10584     10583     10585     10584     10583     10586
     10585     10583     10586     10540     10587     10588     10540     10587     10589
     10540     10587     10590     10588     10587     10589     10588     10587     10590
     10589     10587     10590     10587     10590     10591     10587     10590     10592
     10587     10590     10593     10591     10590     10592     10591     10590     10593
     10592     10590     10593     10590     10593     10594     10590     10593     10595
     10590     10593     10596     10594     10593     10595     10594     10593     10596
     10595     10593     10596     10593     10596     10597     10593     10596     10598
     10593     10596     10599     10597     10596     10598     10597     10596     10599
     10598     10596     10599     10596     10599     10600     10596     10599     10601
     10596     10599     10602     10600     10599     10601     10600     10599     10602
     10601     10599     10602     10599     10602     10603     10599     10602     10604
     10599     10602     10605     10603     10602     10604     10603     10602     10605
     10604     10602     10605     10602     10605     10606     10602     10605     10607
     10602     10605     10608     10606     10605     10607     10606     10605     10608
     10607     10605     10608     10605     10608     10609     10605     10608     10610
     10605     10608     10611     10609     10608     10610     10609     10608     10611
     10610     10608     10611     10608     10611     10612     10608     10611     10613
     10608     10611     10614     10612     10611     10613     10612     10611     10614
     10613     10611     10614     10611     10614     10615     10611     10614     10616
     10611     10614     10617     10615     10614     10616     10615     10614     10617
     10616     10614     10617     10614     10617     10618     10614     10617     10619
     10614     10617     10620     10618     10617     10619     10618     10617     10620
     10619     10617     10620     10617     10620     10621     10617     10620     10622
     10617     10620     10623     10621     10620     10622     10621     10620     10623
     10622     10620     10623     10620     10623     10624     10620     10623     10625
     10620     10623     10626     10624     10623     10625     10624     10623     10626
     10625     10623     10626     10628     10627     10629     10628     10627     10630
     10628     10627     10631     10629     10627     10630     10629     10627     10631
     10630     10627     10631     10627     10631     10632     10627     10631     10633
     10627     10631     10634     10632     10631     10633     10632     10631     10634
     10633     10631     10634     10631     10634     10635     10631     10634     10636
     10631     10634     10641     10635     10634     10636     10635     10634     10641
     10636     10634     10641     10638     10637     10639     10638     10637     10640
     10638     10637     10641     10639     10637     10640     10639     10637     10641
     10640     10637     10641     10637     10640     10642     10634     10641     10637
     10640     10642     10643     10640     10642     10644     10640     10642     10645
     10643     10642     10644     10643     10642     10645     10644     10642     10645
     10642     10645     10646     10642     10645     10647     10642     10645     10653
     10646     10645     10647     10646     10645     10653     10647     10645     10653
     10645     10647     10648     10647     10648     10649     10647     10648     10650
     10649     10648     10650     10648     10650     10651     10648     10650     10652
     10648     10650     10662     10651     10650     10652     10651     10650     10662
     10652     10650     10662     10645     10653     10654     10645     10653     10655
     10645     10653     10656     10654     10653     10655     10654     10653     10656
     10655     10653     10656     10653     10656     10657     10656     10657     10658
     10656     10657     10659     10658     10657     10659     10657     10659     10660
     10657     10659     10661     10657     10659     10706     10660     10659     10661
     10660     10659     10706     10661     10659     10706     10650     10662     10663
     10650     10662     10664     10650     10662     10665     10663     10662     10664
     10663     10662     10665     10664     10662     10665     10662     10665     10666
     10662     10665     10667     10662     10665     10668     10666     10665     10667
     10666     10665     10668     10667     10665     10668     10665     10668     10669
     10665     10668     10670     10665     10668     10671     10669     10668     10670
     10669     10668     10671     10670     10668     10671     10668     10671     10672
     10668     10671     10673     10668     10671     10674     10672     10671     10673
     10672     10671     10674     10673     10671     10674     10671     10674     10675
     10671     10674     10676     10671     10674     10677     10675     10674     10676
     10675     10674     10677     10676     10674     10677     10674     10677     10678
     10674     10677     10679     10674     10677     10680     10678     10677     10679
     10678     10677     10680     10679     10677     10680     10677     10680     10681
     10677     10680     10682     10677     10680     10685     10681     10680     10682
     10681     10680     10685     10682     10680     10685     10680     10682     10683
     10680     10682     10684     10680     10682     10685     10683     10682     10684
     10683     10682     10685     10684     10682     10685     10680     10685     10682
     10680     10685     10686     10680     10685     10687     10682     10685     10686
     10682     10685     10687     10686     10685     10687     10685     10687     10688
     10685     10687     10689     10685     10687     10690     10688     10687     10689
     10688     10687     10690     10689     10687     10690     10687     10690     10691
     10687     10690     10692     10687     10690     10693     10691     10690     10692
     10691     10690     10693     10692     10690     10693     10690     10693     10694
     10690     10693     10695     10690     10693     10696     10694     10693     10695
     10694     10693     10696     10695     10693     10696     10693     10696     10697
     10693     10696     10698     10693     10696     10699     10697     10696     10698
     10697     10696     10699     10698     10696     10699     10696     10699     10700
     10696     10699     10701     10696     10699     10702     10700     10699     10701
     10700     10699     10702     10701     10699     10702     10699     10702     10703
     10699     10702     10704     10699     10702     10705     10703     10702     10704
     10703     10702     10705     10704     10702     10705     10659     10706     10707
     10659     10706     10708     10659     10706     10709     10707     10706     10708
     10707     10706     10709     10708     10706     10709     10706     10709     10710
     10706     10709     10711     10706     10709     10712     10710     10709     10711
     10710     10709     10712     10711     10709     10712     10709     10712     10713
     10709     10712     10714     10709     10712     10715     10713     10712     10714
     10713     10712     10715     10714     10712     10715     10712     10715     10716
     10712     10715     10717     10712     10715     10718     10716     10715     10717
     10716     10715     10718     10717     10715     10718     10715     10718     10719
     10715     10718     10720     10715     10718     10721     10719     10718     10720
     10719     10718     10721     10720     10718     10721     10718     10721     10722
     10718     10721     10723     10718     10721     10724     10722     10721     10723
     10722     10721     10724     10723     10721     10724     10721     10724     10725
     10721     10724     10726     10721     10724     10727     10725     10724     10726
     10725     10724     10727     10726     10724     10727     10724     10727     10728
     10724     10727     10729     10724     10727     10730     10728     10727     10729
     10728     10727     10730     10729     10727     10730     10727     10730     10731
     10727     10730     10732     10727     10730     10733     10731     10730     10732
     10731     10730     10733     10732     10730     10733     10730     10733     10734
     10730     10733     10735     10730     10733     10736     10734     10733     10735
     10734     10733     10736     10735     10733     10736     10733     10736     10737
     10733     10736     10738     10733     10736     10739     10737     10736     10738
     10737     10736     10739     10738     10736     10739     10736     10739     10740
     10736     10739     10741     10736     10739     10742     10740     10739     10741
     10740     10739     10742     10741     10739     10742     10739     10742     10743
     10739     10742     10744     10739     10742     10745     10743     10742     10744
     10743     10742     10745     10744     10742     10745     10742     10745     10746
     10742     10745     10747     10742     10745     10748     10746     10745     10747
     10746     10745     10748     10747     10745     10748     10750     10749     10751
     10750     10749     10752     10750     10749     10753     10751     10749     10752
     10751     10749     10753     10752     10749     10753     10749     10753     10754
     10749     10753     10755     10749     10753     10756     10754     10753     10755
     10754     10753     10756     10755     10753     10756     10753     10756     10757
     10753     10756     10758     10753     10756     10763     10757     10756     10758
     10757     10756     10763     10758     10756     10763     10760     10759     10761
     10760     10759     10762     10760     10759     10763     10761     10759     10762
     10761     10759     10763     10762     10759     10763     10759     10762     10764
     10756     10763     10759     10762     10764     10765     10762     10764     10766
     10762     10764     10767     10765     10764     10766     10765     10764     10767
     10766     10764     10767     10764     10767     10768     10764     10767     10769
     10764     10767     10775     10768     10767     10769     10768     10767     10775
     10769     10767     10775     10767     10769     10770     10769     10770     10771
     10769     10770     10772     10771     10770     10772     10770     10772     10773
     10770     10772     10774     10770     10772     10784     10773     10772     10774
     10773     10772     10784     10774     10772     10784     10767     10775     10776
     10767     10775     10777     10767     10775     10778     10776     10775     10777
     10776     10775     10778     10777     10775     10778     10775     10778     10779
     10778     10779     10780     10778     10779     10781     10780     10779     10781
     10779     10781     10782     10779     10781     10783     10779     10781     10828
     10782     10781     10783     10782     10781     10828     10783     10781     10828
     10772     10784     10785     10772     10784     10786     10772     10784     10787
     10785     10784     10786     10785     10784     10787     10786     10784     10787
     10784     10787     10788     10784     10787     10789     10784     10787     10790
     10788     10787     10789     10788     10787     10790     10789     10787     10790
     10787     10790     10791     10787     10790     10792     10787     10790     10793
     10791     10790     10792     10791     10790     10793     10792     10790     10793
     10790     10793     10794     10790     10793     10795     10790     10793     10796
     10794     10793     10795     10794     10793     10796     10795     10793     10796
     10793     10796     10797     10793     10796     10798     10793     10796     10799
     10797     10796     10798     10797     10796     10799     10798     10796     10799
     10796     10799     10800     10796     10799     10801     10796     10799     10802
     10800     10799     10801     10800     10799     10802     10801     10799     10802
     10799     10802     10803     10799     10802     10804     10799     10802     10807
     10803     10802     10804     10803     10802     10807     10804     10802     10807
     10802     10804     10805     10802     10804     10806     10802     10804     10807
     10805     10804     10806     10805     10804     10807     10806     10804     10807
     10802     10807     10804     10802     10807     10808     10802     10807     10809
     10804     10807     10808     10804     10807     10809     10808     10807     10809
     10807     10809     10810     10807     10809     10811     10807     10809     10812
     10810     10809     10811     10810     10809     10812     10811     10809     10812
     10809     10812     10813     10809     10812     10814     10809     10812     10815
     10813     10812     10814     10813     10812     10815     10814     10812     10815
     10812     10815     10816     10812     10815     10817     10812     10815     10818
     10816     10815     10817     10816     10815     10818     10817     10815     10818
     10815     10818     10819     10815     10818     10820     10815     10818     10821
     10819     10818     10820     10819     10818     10821     10820     10818     10821
     10818     10821     10822     10818     10821     10823     10818     10821     10824
     10822     10821     10823     10822     10821     10824     10823     10821     10824
     10821     10824     10825     10821     10824     10826     10821     10824     10827
     10825     10824     10826     10825     10824     10827     10826     10824     10827
     10781     10828     10829     10781     10828     10830     10781     10828     10831
     10829     10828     10830     10829     10828     10831     10830     10828     10831
     10828     10831     10832     10828     10831     10833     10828     10831     10834
     10832     10831     10833     10832     10831     10834     10833     10831     10834
     10831     10834     10835     10831     10834     10836     10831     10834     10837
     10835     10834     10836     10835     10834     10837     10836     10834     10837
     10834     10837     10838     10834     10837     10839     10834     10837     10840
     10838     10837     10839     10838     10837     10840     10839     10837     10840
     10837     10840     10841     10837     10840     10842     10837     10840     10843
     10841     10840     10842     10841     10840     10843     10842     10840     10843
     10840     10843     10844     10840     10843     10845     10840     10843     10846
     10844     10843     10845     10844     10843     10846     10845     10843     10846
     10843     10846     10847     10843     10846     10848     10843     10846     10849
     10847     10846     10848     10847     10846     10849     10848     10846     10849
     10846     10849     10850     10846     10849     10851     10846     10849     10852
     10850     10849     10851     10850     10849     10852     10851     10849     10852
     10849     10852     10853     10849     10852     10854     10849     10852     10855
     10853     10852     10854     10853     10852     10855     10854     10852     10855
     10852     10855     10856     10852     10855     10857     10852     10855     10858
     10856     10855     10857     10856     10855     10858     10857     10855     10858
     10855     10858     10859     10855     10858     10860     10855     10858     10861
     10859     10858     10860     10859     10858     10861     10860     10858     10861
     10858     10861     10862     10858     10861     10863     10858     10861     10864
     10862     10861     10863     10862     10861     10864     10863     10861     10864
     10861     10864     10865     10861     10864     10866     10861     10864     10867
     10865     10864     10866     10865     10864     10867     10866     10864     10867
     10864     10867     10868     10864     10867     10869     10864     10867     10870
     10868     10867     10869     10868     10867     10870     10869     10867     10870
     10872     10871     10873     10872     10871     10874     10872     10871     10875
     10873     10871     10874     10873     10871     10875     10874     10871     10875
     10871     10875     10876     10871     10875     10877     10871     10875     10878
     10876     10875     10877     10876     10875     10878     10877     10875     10878
     10875     10878     10879     10875     10878     10880     10875     10878     10885
     10879     10878     10880     10879     10878     10885     10880     10878     10885
     10882     10881     10883     10882     10881     10884     10882     10881     10885
     10883     10881     10884     10883     10881     10885     10884     10881     10885
     10881     10884     10886     10878     10885     10881     10884     10886     10887
     10884     10886     10888     10884     10886     10889     10887     10886     10888
     10887     10886     10889     10888     10886     10889     10886     10889     10890
     10886     10889     10891     10886     10889     10897     10890     10889     10891
     10890     10889     10897     10891     10889     10897     10889     10891     10892
     10891     10892     10893     10891     10892     10894     10893     10892     10894
     10892     10894     10895     10892     10894     10896     10892     10894     10906
     10895     10894     10896     10895     10894     10906     10896     10894     10906
     10889     10897     10898     10889     10897     10899     10889     10897     10900
     10898     10897     10899     10898     10897     10900     10899     10897     10900
     10897     10900     10901     10900     10901     10902     10900     10901     10903
     10902     10901     10903     10901     10903     10904     10901     10903     10905
     10901     10903     10950     10904     10903     10905     10904     10903     10950
     10905     10903     10950     10894     10906     10907     10894     10906     10908
     10894     10906     10909     10907     10906     10908     10907     10906     10909
     10908     10906     10909     10906     10909     10910     10906     10909     10911
     10906     10909     10912     10910     10909     10911     10910     10909     10912
     10911     10909     10912     10909     10912     10913     10909     10912     10914
     10909     10912     10915     10913     10912     10914     10913     10912     10915
     10914     10912     10915     10912     10915     10916     10912     10915     10917
     10912     10915     10918     10916     10915     10917     10916     10915     10918
     10917     10915     10918     10915     10918     10919     10915     10918     10920
     10915     10918     10921     10919     10918     10920     10919     10918     10921
     10920     10918     10921     10918     10921     10922     10918     10921     10923
     10918     10921     10924     10922     10921     10923     10922     10921     10924
     10923     10921     10924     10921     10924     10925     10921     10924     10926
     10921     10924     10929     10925     10924     10926     10925     10924     10929
     10926     10924     10929     10924     10926     10927     10924     10926     10928
     10924     10926     10929     10927     10926     10928     10927     10926     10929
     10928     10926     10929     10924     10929     10926     10924     10929     10930
     10924     10929     10931     10926     10929     10930     10926     10929     10931
     10930     10929     10931     10929     10931     10932     10929     10931     10933
     10929     10931     10934     10932     10931     10933     10932     10931     10934
     10933     10931     10934     10931     10934     10935     10931     10934     10936
     10931     10934     10937     10935     10934     10936     10935     10934     10937
     10936     10934     10937     10934     10937     10938     10934     10937     10939
     10934     10937     10940     10938     10937     10939     10938     10937     10940
     10939     10937     10940     10937     10940     10941     10937     10940     10942
     10937     10940     10943     10941     10940     10942     10941     10940     10943
     10942     10940     10943     10940     10943     10944     10940     10943     10945
     10940     10943     10946     10944     10943     10945     10944     10943     10946
     10945     10943     10946     10943     10946     10947     10943     10946     10948
     10943     10946     10949     10947     10946     10948     10947     10946     10949
     10948     10946     10949     10903     10950     10951     10903     10950     10952
     10903     10950     10953     10951     10950     10952     10951     10950     10953
     10952     10950     10953     10950     10953     10954     10950     10953     10955
     10950     10953     10956     10954     10953     10955     10954     10953     10956
     10955     10953     10956     10953     10956     10957     10953     10956     10958
     10953     10956     10959     10957     10956     10958     10957     10956     10959
     10958     10956     10959     10956     10959     10960     10956     10959     10961
     10956     10959     10962     10960     10959     10961     10960     10959     10962
     10961     10959     10962     10959     10962     10963     10959     10962     10964
     10959     10962     10965     10963     10962     10964     10963     10962     10965
     10964     10962     10965     10962     10965     10966     10962     10965     10967
     10962     10965     10968     10966     10965     10967     10966     10965     10968
     10967     10965     10968     10965     10968     10969     10965     10968     10970
     10965     10968     10971     10969     10968     10970     10969     10968     10971
     10970     10968     10971     10968     10971     10972     10968     10971     10973
     10968     10971     10974     10972     10971     10973     10972     10971     10974
     10973     10971     10974     10971     10974     10975     10971     10974     10976
     10971     10974     10977     10975     10974     10976     10975     10974     10977
     10976     10974     10977     10974     10977     10978     10974     10977     10979
     10974     10977     10980     10978     10977     10979     10978     10977     10980
     10979     10977     10980     10977     10980     10981     10977     10980     10982
     10977     10980     10983     10981     10980     10982     10981     10980     10983
     10982     10980     10983     10980     10983     10984     10980     10983     10985
     10980     10983     10986     10984     10983     10985     10984     10983     10986
     10985     10983     10986     10983     10986     10987     10983     10986     10988
     10983     10986     10989     10987     10986     10988     10987     10986     10989
     10988     10986     10989     10986     10989     10990     10986     10989     10991
     10986     10989     10992     10990     10989     10991     10990     10989     10992
     10991     10989     10992     10994     10993     10995     10994     10993     10999
     10994     10993     11004     10995     10993     10999     10995     10993     11004
     10999     10993     11004     10997     10996     10998     10997     10996     10999
     10997     10996     11000     10998     10996     10999     10998     10996     11000
     10999     10996     11000     10993     10999     10996     10996     11000     11001
     11000     11001     11002     11000     11001     11003     11000     11001     11036
     11002     11001     11003     11002     11001     11036     11003     11001     11036
     10993     11004     11005     10993     11004     11006     10993     11004     11008
     11005     11004     11006     11005     11004     11008     11006     11004     11008
     11004     11006     11007     11004     11008     11009     11004     11008     11010
     11004     11008     11014     11009     11008     11010     11009     11008     11014
     11010     11008     11014     11012     11011     11013     11012     11011     11014
     11012     11011     11015     11013     11011     11014     11013     11011     11015
     11014     11011     11015     11008     11014     11011     11011     11015     11016
     11015     11016     11017     11015     11016     11018     11015     11016     11019
     11017     11016     11018     11017     11016     11019     11018     11016     11019
     11016     11019     11020     11016     11019     11021     11016     11019     11027
     11020     11019     11021     11020     11019     11027     11021     11019     11027
     11019     11021     11022     11021     11022     11023     11021     11022     11024
     11023     11022     11024     11022     11024     11025     11022     11024     11026
     11022     11024     11053     11025     11024     11026     11025     11024     11053
     11026     11024     11053     11019     11027     11028     11019     11027     11029
     11019     11027     11030     11028     11027     11029     11028     11027     11030
     11029     11027     11030     11027     11030     11031     11030     11031     11032
     11030     11031     11033     11032     11031     11033     11031     11033     11034
     11031     11033     11035     11031     11033     11100     11034     11033     11035
     11034     11033     11100     11035     11033     11100     11001     11036     11037
     11001     11036     11038     11001     11036     11044     11037     11036     11038
     11037     11036     11044     11038     11036     11044     11036     11038     11039
     11038     11039     11040     11038     11039     11041     11040     11039     11041
     11039     11041     11042     11039     11041     11043     11039     11041     11143
     11042     11041     11043     11042     11041     11143     11043     11041     11143
     11036     11044     11045     11036     11044     11046     11036     11044     11047
     11045     11044     11046     11045     11044     11047     11046     11044     11047
     11044     11047     11048     11047     11048     11049     11047     11048     11050
     11049     11048     11050     11048     11050     11051     11048     11050     11052
     11048     11050     11190     11051     11050     11052     11051     11050     11190
     11052     11050     11190     11024     11053     11054     11024     11053     11055
     11024     11053     11056     11054     11053     11055     11054     11053     11056
     11055     11053     11056     11053     11056     11057     11053     11056     11058
     11053     11056     11059     11057     11056     11058     11057     11056     11059
     11058     11056     11059     11056     11059     11060     11056     11059     11061
     11056     11059     11062     11060     11059     11061     11060     11059     11062
     11061     11059     11062     11059     11062     11063     11059     11062     11064
     11059     11062     11065     11063     11062     11064     11063     11062     11065
     11064     11062     11065     11062     11065     11066     11062     11065     11067
     11062     11065     11068     11066     11065     11067     11066     11065     11068
     11067     11065     11068     11065     11068     11069     11065     11068     11070
     11065     11068     11071     11069     11068     11070     11069     11068     11071
     11070     11068     11071     11068     11071     11072     11068     11071     11073
     11068     11071     11074     11072     11071     11073     11072     11071     11074
     11073     11071     11074     11071     11074     11075     11071     11074     11076
     11071     11074     11077     11075     11074     11076     11075     11074     11077
     11076     11074     11077     11074     11077     11078     11074     11077     11079
     11078     11077     11079     11077     11079     11080     11077     11079     11081
     11080     11079     11081     11079     11081     11082     11079     11081     11083
     11079     11081     11084     11082     11081     11083     11082     11081     11084
     11083     11081     11084     11081     11084     11085     11081     11084     11086
     11081     11084     11087     11085     11084     11086     11085     11084     11087
     11086     11084     11087     11084     11087     11088     11084     11087     11089
     11084     11087     11090     11088     11087     11089     11088     11087     11090
     11089     11087     11090     11087     11090     11091     11087     11090     11092
     11087     11090     11093     11091     11090     11092     11091     11090     11093
     11092     11090     11093     11090     11093     11094     11090     11093     11095
     11090     11093     11096     11094     11093     11095     11094     11093     11096
     11095     11093     11096     11093     11096     11097     11093     11096     11098
     11093     11096     11099     11097     11096     11098     11097     11096     11099
     11098     11096     11099     11033     11100     11101     11033     11100     11102
     11033     11100     11103     11101     11100     11102     11101     11100     11103
     11102     11100     11103     11100     11103     11104     11100     11103     11105
     11100     11103     11106     11104     11103     11105     11104     11103     11106
     11105     11103     11106     11103     11106     11107     11103     11106     11108
     11103     11106     11109     11107     11106     11108     11107     11106     11109
     11108     11106     11109     11106     11109     11110     11106     11109     11111
     11106     11109     11112     11110     11109     11111     11110     11109     11112
     11111     11109     11112     11109     11112     11113     11109     11112     11114
     11109     11112     11115     11113     11112     11114     11113     11112     11115
     11114     11112     11115     11112     11115     11116     11112     11115     11117
     11112     11115     11118     11116     11115     11117     11116     11115     11118
     11117     11115     11118     11115     11118     11119     11115     11118     11120
     11115     11118     11121     11119     11118     11120     11119     11118     11121
     11120     11118     11121     11118     11121     11122     11118     11121     11123
     11118     11121     11124     11122     11121     11123     11122     11121     11124
     11123     11121     11124     11121     11124     11125     11121     11124     11126
     11121     11124     11127     11125     11124     11126     11125     11124     11127
     11126     11124     11127     11124     11127     11128     11124     11127     11129
     11124     11127     11130     11128     11127     11129     11128     11127     11130
     11129     11127     11130     11127     11130     11131     11127     11130     11132
     11127     11130     11133     11131     11130     11132     11131     11130     11133
     11132     11130     11133     11130     11133     11134     11130     11133     11135
     11130     11133     11136     11134     11133     11135     11134     11133     11136
     11135     11133     11136     11133     11136     11137     11133     11136     11138
     11133     11136     11139     11137     11136     11138     11137     11136     11139
     11138     11136     11139     11136     11139     11140     11136     11139     11141
     11136     11139     11142     11140     11139     11141     11140     11139     11142
     11141     11139     11142     11041     11143     11144     11041     11143     11145
     11041     11143     11146     11144     11143     11145     11144     11143     11146
     11145     11143     11146     11143     11146     11147     11143     11146     11148
     11143     11146     11149     11147     11146     11148     11147     11146     11149
     11148     11146     11149     11146     11149     11150     11146     11149     11151
     11146     11149     11152     11150     11149     11151     11150     11149     11152
     11151     11149     11152     11149     11152     11153     11149     11152     11154
     11149     11152     11155     11153     11152     11154     11153     11152     11155
     11154     11152     11155     11152     11155     11156     11152     11155     11157
     11152     11155     11158     11156     11155     11157     11156     11155     11158
     11157     11155     11158     11155     11158     11159     11155     11158     11160
     11155     11158     11161     11159     11158     11160     11159     11158     11161
     11160     11158     11161     11158     11161     11162     11158     11161     11163
     11158     11161     11164     11162     11161     11163     11162     11161     11164
     11163     11161     11164     11161     11164     11165     11161     11164     11166
     11161     11164     11167     11165     11164     11166     11165     11164     11167
     11166     11164     11167     11164     11167     11168     11164     11167     11169
     11168     11167     11169     11167     11169     11170     11167     11169     11171
     11170     11169     11171     11169     11171     11172     11169     11171     11173
     11169     11171     11174     11172     11171     11173     11172     11171     11174
     11173     11171     11174     11171     11174     11175     11171     11174     11176
     11171     11174     11177     11175     11174     11176     11175     11174     11177
     11176     11174     11177     11174     11177     11178     11174     11177     11179
     11174     11177     11180     11178     11177     11179     11178     11177     11180
     11179     11177     11180     11177     11180     11181     11177     11180     11182
     11177     11180     11183     11181     11180     11182     11181     11180     11183
     11182     11180     11183     11180     11183     11184     11180     11183     11185
     11180     11183     11186     11184     11183     11185     11184     11183     11186
     11185     11183     11186     11183     11186     11187     11183     11186     11188
     11183     11186     11189     11187     11186     11188     11187     11186     11189
     11188     11186     11189     11050     11190     11191     11050     11190     11192
     11050     11190     11193     11191     11190     11192     11191     11190     11193
     11192     11190     11193     11190     11193     11194     11190     11193     11195
     11190     11193     11196     11194     11193     11195     11194     11193     11196
     11195     11193     11196     11193     11196     11197     11193     11196     11198
     11193     11196     11199     11197     11196     11198     11197     11196     11199
     11198     11196     11199     11196     11199     11200     11196     11199     11201
     11196     11199     11202     11200     11199     11201     11200     11199     11202
     11201     11199     11202     11199     11202     11203     11199     11202     11204
     11199     11202     11205     11203     11202     11204     11203     11202     11205
     11204     11202     11205     11202     11205     11206     11202     11205     11207
     11202     11205     11208     11206     11205     11207     11206     11205     11208
     11207     11205     11208     11205     11208     11209     11205     11208     11210
     11205     11208     11211     11209     11208     11210     11209     11208     11211
     11210     11208     11211     11208     11211     11212     11208     11211     11213
     11208     11211     11214     11212     11211     11213     11212     11211     11214
     11213     11211     11214     11211     11214     11215     11211     11214     11216
     11211     11214     11217     11215     11214     11216     11215     11214     11217
     11216     11214     11217     11214     11217     11218     11214     11217     11219
     11214     11217     11220     11218     11217     11219     11218     11217     11220
     11219     11217     11220     11217     11220     11221     11217     11220     11222
     11217     11220     11223     11221     11220     11222     11221     11220     11223
     11222     11220     11223     11220     11223     11224     11220     11223     11225
     11220     11223     11226     11224     11223     11225     11224     11223     11226
     11225     11223     11226     11223     11226     11227     11223     11226     11228
     11223     11226     11229     11227     11226     11228     11227     11226     11229
     11228     11226     11229     11226     11229     11230     11226     11229     11231
     11226     11229     11232     11230     11229     11231     11230     11229     11232
     11231     11229     11232     11234     11233     11235     11234     11233     11236
     11234     11233     11237     11235     11233     11236     11235     11233     11237
     11236     11233     11237     11233     11237     11238     11233     11237     11239
     11233     11237     11240     11238     11237     11239     11238     11237     11240
     11239     11237     11240     11237     11240     11241     11237     11240     11242
     11237     11240     11247     11241     11240     11242     11241     11240     11247
     11242     11240     11247     11244     11243     11245     11244     11243     11246
     11244     11243     11247     11245     11243     11246     11245     11243     11247
     11246     11243     11247     11243     11246     11248     11240     11247     11243
     11246     11248     11249     11246     11248     11250     11246     11248     11251
     11249     11248     11250     11249     11248     11251     11250     11248     11251
     11248     11251     11252     11248     11251     11253     11248     11251     11259
     11252     11251     11253     11252     11251     11259     11253     11251     11259
     11251     11253     11254     11253     11254     11255     11253     11254     11256
     11255     11254     11256     11254     11256     11257     11254     11256     11258
     11254     11256     11268     11257     11256     11258     11257     11256     11268
     11258     11256     11268     11251     11259     11260     11251     11259     11261
     11251     11259     11262     11260     11259     11261     11260     11259     11262
     11261     11259     11262     11259     11262     11263     11262     11263     11264
     11262     11263     11265     11264     11263     11265     11263     11265     11266
     11263     11265     11267     11263     11265     11312     11266     11265     11267
     11266     11265     11312     11267     11265     11312     11256     11268     11269
     11256     11268     11270     11256     11268     11271     11269     11268     11270
     11269     11268     11271     11270     11268     11271     11268     11271     11272
     11268     11271     11273     11268     11271     11274     11272     11271     11273
     11272     11271     11274     11273     11271     11274     11271     11274     11275
     11271     11274     11276     11271     11274     11277     11275     11274     11276
     11275     11274     11277     11276     11274     11277     11274     11277     11278
     11274     11277     11279     11274     11277     11280     11278     11277     11279
     11278     11277     11280     11279     11277     11280     11277     11280     11281
     11277     11280     11282     11277     11280     11283     11281     11280     11282
     11281     11280     11283     11282     11280     11283     11280     11283     11284
     11280     11283     11285     11280     11283     11286     11284     11283     11285
     11284     11283     11286     11285     11283     11286     11283     11286     11287
     11283     11286     11288     11283     11286     11291     11287     11286     11288
     11287     11286     11291     11288     11286     11291     11286     11288     11289
     11286     11288     11290     11286     11288     11291     11289     11288     11290
     11289     11288     11291     11290     11288     11291     11286     11291     11288
     11286     11291     11292     11286     11291     11293     11288     11291     11292
     11288     11291     11293     11292     11291     11293     11291     11293     11294
     11291     11293     11295     11291     11293     11296     11294     11293     11295
     11294     11293     11296     11295     11293     11296     11293     11296     11297
     11293     11296     11298     11293     11296     11299     11297     11296     11298
     11297     11296     11299     11298     11296     11299     11296     11299     11300
     11296     11299     11301     11296     11299     11302     11300     11299     11301
     11300     11299     11302     11301     11299     11302     11299     11302     11303
     11299     11302     11304     11299     11302     11305     11303     11302     11304
     11303     11302     11305     11304     11302     11305     11302     11305     11306
     11302     11305     11307     11302     11305     11308     11306     11305     11307
     11306     11305     11308     11307     11305     11308     11305     11308     11309
     11305     11308     11310     11305     11308     11311     11309     11308     11310
     11309     11308     11311     11310     11308     11311     11265     11312     11313
     11265     11312     11314     11265     11312     11315     11313     11312     11314
     11313     11312     11315     11314     11312     11315     11312     11315     11316
     11312     11315     11317     11312     11315     11318     11316     11315     11317
     11316     11315     11318     11317     11315     11318     11315     11318     11319
     11315     11318     11320     11315     11318     11321     11319     11318     11320
     11319     11318     11321     11320     11318     11321     11318     11321     11322
     11318     11321     11323     11318     11321     11324     11322     11321     11323
     11322     11321     11324     11323     11321     11324     11321     11324     11325
     11321     11324     11326     11321     11324     11327     11325     11324     11326
     11325     11324     11327     11326     11324     11327     11324     11327     11328
     11324     11327     11329     11324     11327     11330     11328     11327     11329
     11328     11327     11330     11329     11327     11330     11327     11330     11331
     11327     11330     11332     11327     11330     11333     11331     11330     11332
     11331     11330     11333     11332     11330     11333     11330     11333     11334
     11330     11333     11335     11330     11333     11336     11334     11333     11335
     11334     11333     11336     11335     11333     11336     11333     11336     11337
     11333     11336     11338     11333     11336     11339     11337     11336     11338
     11337     11336     11339     11338     11336     11339     11336     11339     11340
     11336     11339     11341     11336     11339     11342     11340     11339     11341
     11340     11339     11342     11341     11339     11342     11339     11342     11343
     11339     11342     11344     11339     11342     11345     11343     11342     11344
     11343     11342     11345     11344     11342     11345     11342     11345     11346
     11342     11345     11347     11342     11345     11348     11346     11345     11347
     11346     11345     11348     11347     11345     11348     11345     11348     11349
     11345     11348     11350     11345     11348     11351     11349     11348     11350
     11349     11348     11351     11350     11348     11351     11348     11351     11352
     11348     11351     11353     11348     11351     11354     11352     11351     11353
     11352     11351     11354     11353     11351     11354     11356     11355     11357
     11356     11355     11358     11356     11355     11359     11357     11355     11358
     11357     11355     11359     11358     11355     11359     11355     11359     11360
     11355     11359     11361     11355     11359     11362     11360     11359     11361
     11360     11359     11362     11361     11359     11362     11359     11362     11363
     11359     11362     11364     11359     11362     11369     11363     11362     11364
     11363     11362     11369     11364     11362     11369     11366     11365     11367
     11366     11365     11368     11366     11365     11369     11367     11365     11368
     11367     11365     11369     11368     11365     11369     11365     11368     11370
     11362     11369     11365     11368     11370     11371     11368     11370     11372
     11368     11370     11373     11371     11370     11372     11371     11370     11373
     11372     11370     11373     11370     11373     11374     11370     11373     11375
     11370     11373     11381     11374     11373     11375     11374     11373     11381
     11375     11373     11381     11373     11375     11376     11375     11376     11377
     11375     11376     11378     11377     11376     11378     11376     11378     11379
     11376     11378     11380     11376     11378     11390     11379     11378     11380
     11379     11378     11390     11380     11378     11390     11373     11381     11382
     11373     11381     11383     11373     11381     11384     11382     11381     11383
     11382     11381     11384     11383     11381     11384     11381     11384     11385
     11384     11385     11386     11384     11385     11387     11386     11385     11387
     11385     11387     11388     11385     11387     11389     11385     11387     11434
     11388     11387     11389     11388     11387     11434     11389     11387     11434
     11378     11390     11391     11378     11390     11392     11378     11390     11393
     11391     11390     11392     11391     11390     11393     11392     11390     11393
     11390     11393     11394     11390     11393     11395     11390     11393     11396
     11394     11393     11395     11394     11393     11396     11395     11393     11396
     11393     11396     11397     11393     11396     11398     11393     11396     11399
     11397     11396     11398     11397     11396     11399     11398     11396     11399
     11396     11399     11400     11396     11399     11401     11396     11399     11402
     11400     11399     11401     11400     11399     11402     11401     11399     11402
     11399     11402     11403     11399     11402     11404     11399     11402     11405
     11403     11402     11404     11403     11402     11405     11404     11402     11405
     11402     11405     11406     11402     11405     11407     11402     11405     11408
     11406     11405     11407     11406     11405     11408     11407     11405     11408
     11405     11408     11409     11405     11408     11410     11405     11408     11413
     11409     11408     11410     11409     11408     11413     11410     11408     11413
     11408     11410     11411     11408     11410     11412     11408     11410     11413
     11411     11410     11412     11411     11410     11413     11412     11410     11413
     11408     11413     11410     11408     11413     11414     11408     11413     11415
     11410     11413     11414     11410     11413     11415     11414     11413     11415
     11413     11415     11416     11413     11415     11417     11413     11415     11418
     11416     11415     11417     11416     11415     11418     11417     11415     11418
     11415     11418     11419     11415     11418     11420     11415     11418     11421
     11419     11418     11420     11419     11418     11421     11420     11418     11421
     11418     11421     11422     11418     11421     11423     11418     11421     11424
     11422     11421     11423     11422     11421     11424     11423     11421     11424
     11421     11424     11425     11421     11424     11426     11421     11424     11427
     11425     11424     11426     11425     11424     11427     11426     11424     11427
     11424     11427     11428     11424     11427     11429     11424     11427     11430
     11428     11427     11429     11428     11427     11430     11429     11427     11430
     11427     11430     11431     11427     11430     11432     11427     11430     11433
     11431     11430     11432     11431     11430     11433     11432     11430     11433
     11387     11434     11435     11387     11434     11436     11387     11434     11437
     11435     11434     11436     11435     11434     11437     11436     11434     11437
     11434     11437     11438     11434     11437     11439     11434     11437     11440
     11438     11437     11439     11438     11437     11440     11439     11437     11440
     11437     11440     11441     11437     11440     11442     11437     11440     11443
     11441     11440     11442     11441     11440     11443     11442     11440     11443
     11440     11443     11444     11440     11443     11445     11440     11443     11446
     11444     11443     11445     11444     11443     11446     11445     11443     11446
     11443     11446     11447     11443     11446     11448     11443     11446     11449
     11447     11446     11448     11447     11446     11449     11448     11446     11449
     11446     11449     11450     11446     11449     11451     11446     11449     11452
     11450     11449     11451     11450     11449     11452     11451     11449     11452
     11449     11452     11453     11449     11452     11454     11449     11452     11455
     11453     11452     11454     11453     11452     11455     11454     11452     11455
     11452     11455     11456     11452     11455     11457     11452     11455     11458
     11456     11455     11457     11456     11455     11458     11457     11455     11458
     11455     11458     11459     11455     11458     11460     11455     11458     11461
     11459     11458     11460     11459     11458     11461     11460     11458     11461
     11458     11461     11462     11458     11461     11463     11458     11461     11464
     11462     11461     11463     11462     11461     11464     11463     11461     11464
     11461     11464     11465     11461     11464     11466     11461     11464     11467
     11465     11464     11466     11465     11464     11467     11466     11464     11467
     11464     11467     11468     11464     11467     11469     11464     11467     11470
     11468     11467     11469     11468     11467     11470     11469     11467     11470
     11467     11470     11471     11467     11470     11472     11467     11470     11473
     11471     11470     11472     11471     11470     11473     11472     11470     11473
     11470     11473     11474     11470     11473     11475     11470     11473     11476
     11474     11473     11475     11474     11473     11476     11475     11473     11476
     11478     11477     11479     11478     11477     11480     11478     11477     11481
     11479     11477     11480     11479     11477     11481     11480     11477     11481
     11477     11481     11482     11477     11481     11483     11477     11481     11484
     11482     11481     11483     11482     11481     11484     11483     11481     11484
     11481     11484     11485     11481     11484     11486     11481     11484     11491
     11485     11484     11486     11485     11484     11491     11486     11484     11491
     11488     11487     11489     11488     11487     11490     11488     11487     11491
     11489     11487     11490     11489     11487     11491     11490     11487     11491
     11487     11490     11492     11484     11491     11487     11490     11492     11493
     11490     11492     11494     11490     11492     11495     11493     11492     11494
     11493     11492     11495     11494     11492     11495     11492     11495     11496
     11492     11495     11497     11492     11495     11503     11496     11495     11497
     11496     11495     11503     11497     11495     11503     11495     11497     11498
     11497     11498     11499     11497     11498     11500     11499     11498     11500
     11498     11500     11501     11498     11500     11502     11498     11500     11512
     11501     11500     11502     11501     11500     11512     11502     11500     11512
     11495     11503     11504     11495     11503     11505     11495     11503     11506
     11504     11503     11505     11504     11503     11506     11505     11503     11506
     11503     11506     11507     11506     11507     11508     11506     11507     11509
     11508     11507     11509     11507     11509     11510     11507     11509     11511
     11507     11509     11556     11510     11509     11511     11510     11509     11556
     11511     11509     11556     11500     11512     11513     11500     11512     11514
     11500     11512     11515     11513     11512     11514     11513     11512     11515
     11514     11512     11515     11512     11515     11516     11512     11515     11517
     11512     11515     11518     11516     11515     11517     11516     11515     11518
     11517     11515     11518     11515     11518     11519     11515     11518     11520
     11515     11518     11521     11519     11518     11520     11519     11518     11521
     11520     11518     11521     11518     11521     11522     11518     11521     11523
     11518     11521     11524     11522     11521     11523     11522     11521     11524
     11523     11521     11524     11521     11524     11525     11521     11524     11526
     11521     11524     11527     11525     11524     11526     11525     11524     11527
     11526     11524     11527     11524     11527     11528     11524     11527     11529
     11524     11527     11530     11528     11527     11529     11528     11527     11530
     11529     11527     11530     11527     11530     11531     11527     11530     11532
     11527     11530     11535     11531     11530     11532     11531     11530     11535
     11532     11530     11535     11530     11532     11533     11530     11532     11534
     11530     11532     11535     11533     11532     11534     11533     11532     11535
     11534     11532     11535     11530     11535     11532     11530     11535     11536
     11530     11535     11537     11532     11535     11536     11532     11535     11537
     11536     11535     11537     11535     11537     11538     11535     11537     11539
     11535     11537     11540     11538     11537     11539     11538     11537     11540
     11539     11537     11540     11537     11540     11541     11537     11540     11542
     11537     11540     11543     11541     11540     11542     11541     11540     11543
     11542     11540     11543     11540     11543     11544     11540     11543     11545
     11540     11543     11546     11544     11543     11545     11544     11543     11546
     11545     11543     11546     11543     11546     11547     11543     11546     11548
     11543     11546     11549     11547     11546     11548     11547     11546     11549
     11548     11546     11549     11546     11549     11550     11546     11549     11551
     11546     11549     11552     11550     11549     11551     11550     11549     11552
     11551     11549     11552     11549     11552     11553     11549     11552     11554
     11549     11552     11555     11553     11552     11554     11553     11552     11555
     11554     11552     11555     11509     11556     11557     11509     11556     11558
     11509     11556     11559     11557     11556     11558     11557     11556     11559
     11558     11556     11559     11556     11559     11560     11556     11559     11561
     11556     11559     11562     11560     11559     11561     11560     11559     11562
     11561     11559     11562     11559     11562     11563     11559     11562     11564
     11559     11562     11565     11563     11562     11564     11563     11562     11565
     11564     11562     11565     11562     11565     11566     11562     11565     11567
     11562     11565     11568     11566     11565     11567     11566     11565     11568
     11567     11565     11568     11565     11568     11569     11565     11568     11570
     11565     11568     11571     11569     11568     11570     11569     11568     11571
     11570     11568     11571     11568     11571     11572     11568     11571     11573
     11568     11571     11574     11572     11571     11573     11572     11571     11574
     11573     11571     11574     11571     11574     11575     11571     11574     11576
     11571     11574     11577     11575     11574     11576     11575     11574     11577
     11576     11574     11577     11574     11577     11578     11574     11577     11579
     11574     11577     11580     11578     11577     11579     11578     11577     11580
     11579     11577     11580     11577     11580     11581     11577     11580     11582
     11577     11580     11583     11581     11580     11582     11581     11580     11583
     11582     11580     11583     11580     11583     11584     11580     11583     11585
     11580     11583     11586     11584     11583     11585     11584     11583     11586
     11585     11583     11586     11583     11586     11587     11583     11586     11588
     11583     11586     11589     11587     11586     11588     11587     11586     11589
     11588     11586     11589     11586     11589     11590     11586     11589     11591
     11586     11589     11592     11590     11589     11591     11590     11589     11592
     11591     11589     11592     11589     11592     11593     11589     11592     11594
     11589     11592     11595     11593     11592     11594     11593     11592     11595
     11594     11592     11595     11592     11595     11596     11592     11595     11597
     11592     11595     11598     11596     11595     11597     11596     11595     11598
     11597     11595     11598     11600     11599     11601     11600     11599     11602
     11600     11599     11603     11601     11599     11602     11601     11599     11603
     11602     11599     11603     11599     11603     11604     11599     11603     11605
     11599     11603     11606     11604     11603     11605     11604     11603     11606
     11605     11603     11606     11603     11606     11607     11603     11606     11608
     11603     11606     11613     11607     11606     11608     11607     11606     11613
     11608     11606     11613     11610     11609     11611     11610     11609     11612
     11610     11609     11613     11611     11609     11612     11611     11609     11613
     11612     11609     11613     11609     11612     11614     11606     11613     11609
     11612     11614     11615     11612     11614     11616     11612     11614     11617
     11615     11614     11616     11615     11614     11617     11616     11614     11617
     11614     11617     11618     11614     11617     11619     11614     11617     11625
     11618     11617     11619     11618     11617     11625     11619     11617     11625
     11617     11619     11620     11619     11620     11621     11619     11620     11622
     11621     11620     11622     11620     11622     11623     11620     11622     11624
     11620     11622     11634     11623     11622     11624     11623     11622     11634
     11624     11622     11634     11617     11625     11626     11617     11625     11627
     11617     11625     11628     11626     11625     11627     11626     11625     11628
     11627     11625     11628     11625     11628     11629     11628     11629     11630
     11628     11629     11631     11630     11629     11631     11629     11631     11632
     11629     11631     11633     11629     11631     11681     11632     11631     11633
     11632     11631     11681     11633     11631     11681     11622     11634     11635
     11622     11634     11636     11622     11634     11637     11635     11634     11636
     11635     11634     11637     11636     11634     11637     11634     11637     11638
     11634     11637     11639     11634     11637     11640     11638     11637     11639
     11638     11637     11640     11639     11637     11640     11637     11640     11641
     11637     11640     11642     11637     11640     11643     11641     11640     11642
     11641     11640     11643     11642     11640     11643     11640     11643     11644
     11640     11643     11645     11640     11643     11646     11644     11643     11645
     11644     11643     11646     11645     11643     11646     11643     11646     11647
     11643     11646     11648     11643     11646     11649     11647     11646     11648
     11647     11646     11649     11648     11646     11649     11646     11649     11650
     11646     11649     11651     11646     11649     11652     11650     11649     11651
     11650     11649     11652     11651     11649     11652     11649     11652     11653
     11649     11652     11654     11653     11652     11654     11652     11654     11655
     11652     11654     11656     11655     11654     11656     11654     11656     11657
     11654     11656     11658     11654     11656     11659     11657     11656     11658
     11657     11656     11659     11658     11656     11659     11656     11659     11660
     11656     11659     11661     11656     11659     11662     11660     11659     11661
     11660     11659     11662     11661     11659     11662     11659     11662     11663
     11659     11662     11664     11659     11662     11665     11663     11662     11664
     11663     11662     11665     11664     11662     11665     11662     11665     11666
     11662     11665     11667     11662     11665     11668     11666     11665     11667
     11666     11665     11668     11667     11665     11668     11665     11668     11669
     11665     11668     11670     11665     11668     11671     11669     11668     11670
     11669     11668     11671     11670     11668     11671     11668     11671     11672
     11668     11671     11673     11668     11671     11674     11672     11671     11673
     11672     11671     11674     11673     11671     11674     11671     11674     11675
     11671     11674     11676     11671     11674     11677     11675     11674     11676
     11675     11674     11677     11676     11674     11677     11674     11677     11678
     11674     11677     11679     11674     11677     11680     11678     11677     11679
     11678     11677     11680     11679     11677     11680     11631     11681     11682
     11631     11681     11683     11631     11681     11684     11682     11681     11683
     11682     11681     11684     11683     11681     11684     11681     11684     11685
     11681     11684     11686     11681     11684     11687     11685     11684     11686
     11685     11684     11687     11686     11684     11687     11684     11687     11688
     11684     11687     11689     11684     11687     11690     11688     11687     11689
     11688     11687     11690     11689     11687     11690     11687     11690     11691
     11687     11690     11692     11687     11690     11693     11691     11690     11692
     11691     11690     11693     11692     11690     11693     11690     11693     11694
     11690     11693     11695     11690     11693     11696     11694     11693     11695
     11694     11693     11696     11695     11693     11696     11693     11696     11697
     11693     11696     11698     11693     11696     11699     11697     11696     11698
     11697     11696     11699     11698     11696     11699     11696     11699     11700
     11696     11699     11701     11696     11699     11702     11700     11699     11701
     11700     11699     11702     11701     11699     11702     11699     11702     11703
     11699     11702     11704     11699     11702     11705     11703     11702     11704
     11703     11702     11705     11704     11702     11705     11702     11705     11706
     11702     11705     11707     11702     11705     11708     11706     11705     11707
     11706     11705     11708     11707     11705     11708     11705     11708     11709
     11705     11708     11710     11705     11708     11711     11709     11708     11710
     11709     11708     11711     11710     11708     11711     11708     11711     11712
     11708     11711     11713     11708     11711     11714     11712     11711     11713
     11712     11711     11714     11713     11711     11714     11711     11714     11715
     11711     11714     11716     11711     11714     11717     11715     11714     11716
     11715     11714     11717     11716     11714     11717     11714     11717     11718
     11714     11717     11719     11714     11717     11720     11718     11717     11719
     11718     11717     11720     11719     11717     11720     11717     11720     11721
     11717     11720     11722     11717     11720     11723     11721     11720     11722
     11721     11720     11723     11722     11720     11723     11725     11724     11726
     11725     11724     11727     11725     11724     11728     11726     11724     11727
     11726     11724     11728     11727     11724     11728     11724     11728     11729
     11724     11728     11730     11724     11728     11731     11729     11728     11730
     11729     11728     11731     11730     11728     11731     11728     11731     11732
     11728     11731     11733     11728     11731     11738     11732     11731     11733
     11732     11731     11738     11733     11731     11738     11735     11734     11736
     11735     11734     11737     11735     11734     11738     11736     11734     11737
     11736     11734     11738     11737     11734     11738     11734     11737     11739
     11731     11738     11734     11737     11739     11740     11737     11739     11741
     11737     11739     11742     11740     11739     11741     11740     11739     11742
     11741     11739     11742     11739     11742     11743     11739     11742     11744
     11739     11742     11750     11743     11742     11744     11743     11742     11750
     11744     11742     11750     11742     11744     11745     11744     11745     11746
     11744     11745     11747     11746     11745     11747     11745     11747     11748
     11745     11747     11749     11745     11747     11759     11748     11747     11749
     11748     11747     11759     11749     11747     11759     11742     11750     11751
     11742     11750     11752     11742     11750     11753     11751     11750     11752
     11751     11750     11753     11752     11750     11753     11750     11753     11754
     11753     11754     11755     11753     11754     11756     11755     11754     11756
     11754     11756     11757     11754     11756     11758     11754     11756     11803
     11757     11756     11758     11757     11756     11803     11758     11756     11803
     11747     11759     11760     11747     11759     11761     11747     11759     11762
     11760     11759     11761     11760     11759     11762     11761     11759     11762
     11759     11762     11763     11759     11762     11764     11759     11762     11765
     11763     11762     11764     11763     11762     11765     11764     11762     11765
     11762     11765     11766     11762     11765     11767     11762     11765     11768
     11766     11765     11767     11766     11765     11768     11767     11765     11768
     11765     11768     11769     11765     11768     11770     11765     11768     11771
     11769     11768     11770     11769     11768     11771     11770     11768     11771
     11768     11771     11772     11768     11771     11773     11768     11771     11774
     11772     11771     11773     11772     11771     11774     11773     11771     11774
     11771     11774     11775     11771     11774     11776     11771     11774     11777
     11775     11774     11776     11775     11774     11777     11776     11774     11777
     11774     11777     11778     11774     11777     11779     11774     11777     11782
     11778     11777     11779     11778     11777     11782     11779     11777     11782
     11777     11779     11780     11777     11779     11781     11777     11779     11782
     11780     11779     11781     11780     11779     11782     11781     11779     11782
     11777     11782     11779     11777     11782     11783     11777     11782     11784
     11779     11782     11783     11779     11782     11784     11783     11782     11784
     11782     11784     11785     11782     11784     11786     11782     11784     11787
     11785     11784     11786     11785     11784     11787     11786     11784     11787
     11784     11787     11788     11784     11787     11789     11784     11787     11790
     11788     11787     11789     11788     11787     11790     11789     11787     11790
     11787     11790     11791     11787     11790     11792     11787     11790     11793
     11791     11790     11792     11791     11790     11793     11792     11790     11793
     11790     11793     11794     11790     11793     11795     11790     11793     11796
     11794     11793     11795     11794     11793     11796     11795     11793     11796
     11793     11796     11797     11793     11796     11798     11793     11796     11799
     11797     11796     11798     11797     11796     11799     11798     11796     11799
     11796     11799     11800     11796     11799     11801     11796     11799     11802
     11800     11799     11801     11800     11799     11802     11801     11799     11802
     11756     11803     11804     11756     11803     11805     11756     11803     11806
     11804     11803     11805     11804     11803     11806     11805     11803     11806
     11803     11806     11807     11803     11806     11808     11803     11806     11809
     11807     11806     11808     11807     11806     11809     11808     11806     11809
     11806     11809     11810     11806     11809     11811     11806     11809     11812
     11810     11809     11811     11810     11809     11812     11811     11809     11812
     11809     11812     11813     11809     11812     11814     11809     11812     11815
     11813     11812     11814     11813     11812     11815     11814     11812     11815
     11812     11815     11816     11812     11815     11817     11812     11815     11818
     11816     11815     11817     11816     11815     11818     11817     11815     11818
     11815     11818     11819     11815     11818     11820     11815     11818     11821
     11819     11818     11820     11819     11818     11821     11820     11818     11821
     11818     11821     11822     11818     11821     11823     11818     11821     11824
     11822     11821     11823     11822     11821     11824     11823     11821     11824
     11821     11824     11825     11821     11824     11826     11821     11824     11827
     11825     11824     11826     11825     11824     11827     11826     11824     11827
     11824     11827     11828     11824     11827     11829     11824     11827     11830
     11828     11827     11829     11828     11827     11830     11829     11827     11830
     11827     11830     11831     11827     11830     11832     11827     11830     11833
     11831     11830     11832     11831     11830     11833     11832     11830     11833
     11830     11833     11834     11830     11833     11835     11830     11833     11836
     11834     11833     11835     11834     11833     11836     11835     11833     11836
     11833     11836     11837     11833     11836     11838     11833     11836     11839
     11837     11836     11838     11837     11836     11839     11838     11836     11839
     11836     11839     11840     11836     11839     11841     11836     11839     11842
     11840     11839     11841     11840     11839     11842     11841     11839     11842
     11839     11842     11843     11839     11842     11844     11839     11842     11845
     11843     11842     11844     11843     11842     11845     11844     11842     11845
     11847     11846     11848     11847     11846     11849     11847     11846     11850
     11848     11846     11849     11848     11846     11850     11849     11846     11850
     11846     11850     11851     11846     11850     11852     11846     11850     11853
     11851     11850     11852     11851     11850     11853     11852     11850     11853
     11850     11853     11854     11850     11853     11855     11850     11853     11860
     11854     11853     11855     11854     11853     11860     11855     11853     11860
     11857     11856     11858     11857     11856     11859     11857     11856     11860
     11858     11856     11859     11858     11856     11860     11859     11856     11860
     11856     11859     11861     11853     11860     11856     11859     11861     11862
     11859     11861     11863     11859     11861     11864     11862     11861     11863
     11862     11861     11864     11863     11861     11864     11861     11864     11865
     11861     11864     11866     11861     11864     11872     11865     11864     11866
     11865     11864     11872     11866     11864     11872     11864     11866     11867
     11866     11867     11868     11866     11867     11869     11868     11867     11869
     11867     11869     11870     11867     11869     11871     11867     11869     11881
     11870     11869     11871     11870     11869     11881     11871     11869     11881
     11864     11872     11873     11864     11872     11874     11864     11872     11875
     11873     11872     11874     11873     11872     11875     11874     11872     11875
     11872     11875     11876     11875     11876     11877     11875     11876     11878
     11877     11876     11878     11876     11878     11879     11876     11878     11880
     11876     11878     11922     11879     11878     11880     11879     11878     11922
     11880     11878     11922     11869     11881     11882     11869     11881     11883
     11869     11881     11884     11882     11881     11883     11882     11881     11884
     11883     11881     11884     11881     11884     11885     11881     11884     11886
     11881     11884     11887     11885     11884     11886     11885     11884     11887
     11886     11884     11887     11884     11887     11888     11884     11887     11889
     11884     11887     11890     11888     11887     11889     11888     11887     11890
     11889     11887     11890     11887     11890     11891     11887     11890     11892
     11887     11890     11893     11891     11890     11892     11891     11890     11893
     11892     11890     11893     11890     11893     11894     11890     11893     11895
     11890     11893     11896     11894     11893     11895     11894     11893     11896
     11895     11893     11896     11893     11896     11897     11893     11896     11898
     11893     11896     11899     11897     11896     11898     11897     11896     11899
     11898     11896     11899     11896     11899     11900     11896     11899     11901
     11900     11899     11901     11899     11901     11902     11899     11901     11903
     11902     11901     11903     11901     11903     11904     11901     11903     11905
     11901     11903     11906     11904     11903     11905     11904     11903     11906
     11905     11903     11906     11903     11906     11907     11903     11906     11908
     11903     11906     11909     11907     11906     11908     11907     11906     11909
     11908     11906     11909     11906     11909     11910     11906     11909     11911
     11906     11909     11912     11910     11909     11911     11910     11909     11912
     11911     11909     11912     11909     11912     11913     11909     11912     11914
     11909     11912     11915     11913     11912     11914     11913     11912     11915
     11914     11912     11915     11912     11915     11916     11912     11915     11917
     11912     11915     11918     11916     11915     11917     11916     11915     11918
     11917     11915     11918     11915     11918     11919     11915     11918     11920
     11915     11918     11921     11919     11918     11920     11919     11918     11921
     11920     11918     11921     11878     11922     11923     11878     11922     11924
     11878     11922     11925     11923     11922     11924     11923     11922     11925
     11924     11922     11925     11922     11925     11926     11922     11925     11927
     11922     11925     11928     11926     11925     11927     11926     11925     11928
     11927     11925     11928     11925     11928     11929     11925     11928     11930
     11925     11928     11931     11929     11928     11930     11929     11928     11931
     11930     11928     11931     11928     11931     11932     11928     11931     11933
     11928     11931     11934     11932     11931     11933     11932     11931     11934
     11933     11931     11934     11931     11934     11935     11931     11934     11936
     11931     11934     11937     11935     11934     11936     11935     11934     11937
     11936     11934     11937     11934     11937     11938     11934     11937     11939
     11934     11937     11940     11938     11937     11939     11938     11937     11940
     11939     11937     11940     11937     11940     11941     11937     11940     11942
     11941     11940     11942     11940     11942     11943     11940     11942     11944
     11943     11942     11944     11942     11944     11945     11942     11944     11946
     11942     11944     11947     11945     11944     11946     11945     11944     11947
     11946     11944     11947     11944     11947     11948     11944     11947     11949
     11944     11947     11950     11948     11947     11949     11948     11947     11950
     11949     11947     11950     11947     11950     11951     11947     11950     11952
     11947     11950     11953     11951     11950     11952     11951     11950     11953
     11952     11950     11953     11950     11953     11954     11950     11953     11955
     11950     11953     11956     11954     11953     11955     11954     11953     11956
     11955     11953     11956     11953     11956     11957     11953     11956     11958
     11953     11956     11959     11957     11956     11958     11957     11956     11959
     11958     11956     11959     11956     11959     11960     11956     11959     11961
     11956     11959     11962     11960     11959     11961     11960     11959     11962
     11961     11959     11962     11959     11962     11963     11959     11962     11964
     11959     11962     11965     11963     11962     11964     11963     11962     11965
     11964     11962     11965     11962     11965     11966     11962     11965     11967
     11962     11965     11968     11966     11965     11967     11966     11965     11968
     11967     11965     11968     11970     11969     11971     11970     11969     11972
     11970     11969     11973     11971     11969     11972     11971     11969     11973
     11972     11969     11973     11969     11973     11974     11969     11973     11975
     11969     11973     11976     11974     11973     11975     11974     11973     11976
     11975     11973     11976     11973     11976     11977     11973     11976     11978
     11973     11976     11983     11977     11976     11978     11977     11976     11983
     11978     11976     11983     11980     11979     11981     11980     11979     11982
     11980     11979     11983     11981     11979     11982     11981     11979     11983
     11982     11979     11983     11979     11982     11984     11976     11983     11979
     11982     11984     11985     11982     11984     11986     11982     11984     11987
     11985     11984     11986     11985     11984     11987     11986     11984     11987
     11984     11987     11988     11984     11987     11989     11984     11987     11995
     11988     11987     11989     11988     11987     11995     11989     11987     11995
     11987     11989     11990     11989     11990     11991     11989     11990     11992
     11991     11990     11992     11990     11992     11993     11990     11992     11994
     11990     11992     12004     11993     11992     11994     11993     11992     12004
     11994     11992     12004     11987     11995     11996     11987     11995     11997
     11987     11995     11998     11996     11995     11997     11996     11995     11998
     11997     11995     11998     11995     11998     11999     11998     11999     12000
     11998     11999     12001     12000     11999     12001     11999     12001     12002
     11999     12001     12003     11999     12001     12048     12002     12001     12003
     12002     12001     12048     12003     12001     12048     11992     12004     12005
     11992     12004     12006     11992     12004     12007     12005     12004     12006
     12005     12004     12007     12006     12004     12007     12004     12007     12008
     12004     12007     12009     12004     12007     12010     12008     12007     12009
     12008     12007     12010     12009     12007     12010     12007     12010     12011
     12007     12010     12012     12007     12010     12013     12011     12010     12012
     12011     12010     12013     12012     12010     12013     12010     12013     12014
     12010     12013     12015     12010     12013     12016     12014     12013     12015
     12014     12013     12016     12015     12013     12016     12013     12016     12017
     12013     12016     12018     12013     12016     12019     12017     12016     12018
     12017     12016     12019     12018     12016     12019     12016     12019     12020
     12016     12019     12021     12016     12019     12022     12020     12019     12021
     12020     12019     12022     12021     12019     12022     12019     12022     12023
     12019     12022     12024     12019     12022     12027     12023     12022     12024
     12023     12022     12027     12024     12022     12027     12022     12024     12025
     12022     12024     12026     12022     12024     12027     12025     12024     12026
     12025     12024     12027     12026     12024     12027     12022     12027     12024
     12022     12027     12028     12022     12027     12029     12024     12027     12028
     12024     12027     12029     12028     12027     12029     12027     12029     12030
     12027     12029     12031     12027     12029     12032     12030     12029     12031
     12030     12029     12032     12031     12029     12032     12029     12032     12033
     12029     12032     12034     12029     12032     12035     12033     12032     12034
     12033     12032     12035     12034     12032     12035     12032     12035     12036
     12032     12035     12037     12032     12035     12038     12036     12035     12037
     12036     12035     12038     12037     12035     12038     12035     12038     12039
     12035     12038     12040     12035     12038     12041     12039     12038     12040
     12039     12038     12041     12040     12038     12041     12038     12041     12042
     12038     12041     12043     12038     12041     12044     12042     12041     12043
     12042     12041     12044     12043     12041     12044     12041     12044     12045
     12041     12044     12046     12041     12044     12047     12045     12044     12046
     12045     12044     12047     12046     12044     12047     12001     12048     12049
     12001     12048     12050     12001     12048     12051     12049     12048     12050
     12049     12048     12051     12050     12048     12051     12048     12051     12052
     12048     12051     12053     12048     12051     12054     12052     12051     12053
     12052     12051     12054     12053     12051     12054     12051     12054     12055
     12051     12054     12056     12051     12054     12057     12055     12054     12056
     12055     12054     12057     12056     12054     12057     12054     12057     12058
     12054     12057     12059     12054     12057     12060     12058     12057     12059
     12058     12057     12060     12059     12057     12060     12057     12060     12061
     12057     12060     12062     12057     12060     12063     12061     12060     12062
     12061     12060     12063     12062     12060     12063     12060     12063     12064
     12060     12063     12065     12060     12063     12066     12064     12063     12065
     12064     12063     12066     12065     12063     12066     12063     12066     12067
     12063     12066     12068     12063     12066     12069     12067     12066     12068
     12067     12066     12069     12068     12066     12069     12066     12069     12070
     12066     12069     12071     12066     12069     12072     12070     12069     12071
     12070     12069     12072     12071     12069     12072     12069     12072     12073
     12069     12072     12074     12069     12072     12075     12073     12072     12074
     12073     12072     12075     12074     12072     12075     12072     12075     12076
     12072     12075     12077     12072     12075     12078     12076     12075     12077
     12076     12075     12078     12077     12075     12078     12075     12078     12079
     12075     12078     12080     12075     12078     12081     12079     12078     12080
     12079     12078     12081     12080     12078     12081     12078     12081     12082
     12078     12081     12083     12078     12081     12084     12082     12081     12083
     12082     12081     12084     12083     12081     12084     12081     12084     12085
     12081     12084     12086     12081     12084     12087     12085     12084     12086
     12085     12084     12087     12086     12084     12087     12089     12088     12090
     12089     12088     12091     12089     12088     12093     12090     12088     12091
     12090     12088     12093     12091     12088     12093     12088     12091     12092
     12088     12093     12094     12088     12093     12095     12088     12093     12097
     12094     12093     12095     12094     12093     12097     12095     12093     12097
     12093     12095     12096     12093     12097     12098     12093     12097     12099
     12093     12097     12104     12098     12097     12099     12098     12097     12104
     12099     12097     12104     12101     12100     12102     12101     12100     12103
     12101     12100     12104     12102     12100     12103     12102     12100     12104
     12103     12100     12104     12100     12103     12105     12097     12104     12100
     12103     12105     12106     12103     12105     12107     12103     12105     12108
     12106     12105     12107     12106     12105     12108     12107     12105     12108
     12105     12108     12109     12105     12108     12110     12105     12108     12116
     12109     12108     12110     12109     12108     12116     12110     12108     12116
     12108     12110     12111     12110     12111     12112     12110     12111     12113
     12112     12111     12113     12111     12113     12114     12111     12113     12115
     12111     12113     12125     12114     12113     12115     12114     12113     12125
     12115     12113     12125     12108     12116     12117     12108     12116     12118
     12108     12116     12119     12117     12116     12118     12117     12116     12119
     12118     12116     12119     12116     12119     12120     12119     12120     12121
     12119     12120     12122     12121     12120     12122     12120     12122     12123
     12120     12122     12124     12120     12122     12166     12123     12122     12124
     12123     12122     12166     12124     12122     12166     12113     12125     12126
     12113     12125     12127     12113     12125     12128     12126     12125     12127
     12126     12125     12128     12127     12125     12128     12125     12128     12129
     12125     12128     12130     12125     12128     12131     12129     12128     12130
     12129     12128     12131     12130     12128     12131     12128     12131     12132
     12128     12131     12133     12128     12131     12134     12132     12131     12133
     12132     12131     12134     12133     12131     12134     12131     12134     12135
     12131     12134     12136     12131     12134     12137     12135     12134     12136
     12135     12134     12137     12136     12134     12137     12134     12137     12138
     12134     12137     12139     12134     12137     12140     12138     12137     12139
     12138     12137     12140     12139     12137     12140     12137     12140     12141
     12137     12140     12142     12137     12140     12143     12141     12140     12142
     12141     12140     12143     12142     12140     12143     12140     12143     12144
     12140     12143     12145     12144     12143     12145     12143     12145     12146
     12143     12145     12147     12146     12145     12147     12145     12147     12148
     12145     12147     12149     12145     12147     12150     12148     12147     12149
     12148     12147     12150     12149     12147     12150     12147     12150     12151
     12147     12150     12152     12147     12150     12153     12151     12150     12152
     12151     12150     12153     12152     12150     12153     12150     12153     12154
     12150     12153     12155     12150     12153     12156     12154     12153     12155
     12154     12153     12156     12155     12153     12156     12153     12156     12157
     12153     12156     12158     12153     12156     12159     12157     12156     12158
     12157     12156     12159     12158     12156     12159     12156     12159     12160
     12156     12159     12161     12156     12159     12162     12160     12159     12161
     12160     12159     12162     12161     12159     12162     12159     12162     12163
     12159     12162     12164     12159     12162     12165     12163     12162     12164
     12163     12162     12165     12164     12162     12165     12122     12166     12167
     12122     12166     12168     12122     12166     12169     12167     12166     12168
     12167     12166     12169     12168     12166     12169     12166     12169     12170
     12166     12169     12171     12166     12169     12172     12170     12169     12171
     12170     12169     12172     12171     12169     12172     12169     12172     12173
     12169     12172     12174     12169     12172     12175     12173     12172     12174
     12173     12172     12175     12174     12172     12175     12172     12175     12176
     12172     12175     12177     12172     12175     12178     12176     12175     12177
     12176     12175     12178     12177     12175     12178     12175     12178     12179
     12175     12178     12180     12175     12178     12181     12179     12178     12180
     12179     12178     12181     12180     12178     12181     12178     12181     12182
     12178     12181     12183     12178     12181     12184     12182     12181     12183
     12182     12181     12184     12183     12181     12184     12181     12184     12185
     12181     12184     12186     12181     12184     12187     12185     12184     12186
     12185     12184     12187     12186     12184     12187     12184     12187     12188
     12184     12187     12189     12184     12187     12190     12188     12187     12189
     12188     12187     12190     12189     12187     12190     12187     12190     12191
     12187     12190     12192     12187     12190     12193     12191     12190     12192
     12191     12190     12193     12192     12190     12193     12190     12193     12194
     12190     12193     12195     12190     12193     12196     12194     12193     12195
     12194     12193     12196     12195     12193     12196     12193     12196     12197
     12193     12196     12198     12193     12196     12199     12197     12196     12198
     12197     12196     12199     12198     12196     12199     12196     12199     12200
     12196     12199     12201     12196     12199     12202     12200     12199     12201
     12200     12199     12202     12201     12199     12202     12199     12202     12203
     12199     12202     12204     12199     12202     12205     12203     12202     12204
     12203     12202     12205     12204     12202     12205     12202     12205     12206
     12202     12205     12207     12202     12205     12208     12206     12205     12207
     12206     12205     12208     12207     12205     12208     12210     12209     12211
     12210     12209     12212     12210     12209     12213     12211     12209     12212
     12211     12209     12213     12212     12209     12213     12209     12213     12214
     12209     12213     12215     12209     12213     12216     12214     12213     12215
     12214     12213     12216     12215     12213     12216     12213     12216     12217
     12213     12216     12218     12213     12216     12223     12217     12216     12218
     12217     12216     12223     12218     12216     12223     12220     12219     12221
     12220     12219     12222     12220     12219     12223     12221     12219     12222
     12221     12219     12223     12222     12219     12223     12219     12222     12224
     12216     12223     12219     12222     12224     12225     12222     12224     12226
     12222     12224     12227     12225     12224     12226     12225     12224     12227
     12226     12224     12227     12224     12227     12228     12224     12227     12229
     12224     12227     12235     12228     12227     12229     12228     12227     12235
     12229     12227     12235     12227     12229     12230     12229     12230     12231
     12229     12230     12232     12231     12230     12232     12230     12232     12233
     12230     12232     12234     12230     12232     12244     12233     12232     12234
     12233     12232     12244     12234     12232     12244     12227     12235     12236
     12227     12235     12237     12227     12235     12238     12236     12235     12237
     12236     12235     12238     12237     12235     12238     12235     12238     12239
     12238     12239     12240     12238     12239     12241     12240     12239     12241
     12239     12241     12242     12239     12241     12243     12239     12241     12291
     12242     12241     12243     12242     12241     12291     12243     12241     12291
     12232     12244     12245     12232     12244     12246     12232     12244     12247
     12245     12244     12246     12245     12244     12247     12246     12244     12247
     12244     12247     12248     12244     12247     12249     12244     12247     12250
     12248     12247     12249     12248     12247     12250     12249     12247     12250
     12247     12250     12251     12247     12250     12252     12247     12250     12253
     12251     12250     12252     12251     12250     12253     12252     12250     12253
     12250     12253     12254     12250     12253     12255     12250     12253     12256
     12254     12253     12255     12254     12253     12256     12255     12253     12256
     12253     12256     12257     12253     12256     12258     12253     12256     12259
     12257     12256     12258     12257     12256     12259     12258     12256     12259
     12256     12259     12260     12256     12259     12261     12256     12259     12262
     12260     12259     12261     12260     12259     12262     12261     12259     12262
     12259     12262     12263     12259     12262     12264     12263     12262     12264
     12262     12264     12265     12262     12264     12266     12265     12264     12266
     12264     12266     12267     12264     12266     12268     12264     12266     12269
     12267     12266     12268     12267     12266     12269     12268     12266     12269
     12266     12269     12270     12266     12269     12271     12266     12269     12272
     12270     12269     12271     12270     12269     12272     12271     12269     12272
     12269     12272     12273     12269     12272     12274     12269     12272     12275
     12273     12272     12274     12273     12272     12275     12274     12272     12275
     12272     12275     12276     12272     12275     12277     12272     12275     12278
     12276     12275     12277     12276     12275     12278     12277     12275     12278
     12275     12278     12279     12275     12278     12280     12275     12278     12281
     12279     12278     12280     12279     12278     12281     12280     12278     12281
     12278     12281     12282     12278     12281     12283     12278     12281     12284
     12282     12281     12283     12282     12281     12284     12283     12281     12284
     12281     12284     12285     12281     12284     12286     12281     12284     12287
     12285     12284     12286     12285     12284     12287     12286     12284     12287
     12284     12287     12288     12284     12287     12289     12284     12287     12290
     12288     12287     12289     12288     12287     12290     12289     12287     12290
     12241     12291     12292     12241     12291     12293     12241     12291     12294
     12292     12291     12293     12292     12291     12294     12293     12291     12294
     12291     12294     12295     12291     12294     12296     12291     12294     12297
     12295     12294     12296     12295     12294     12297     12296     12294     12297
     12294     12297     12298     12294     12297     12299     12294     12297     12300
     12298     12297     12299     12298     12297     12300     12299     12297     12300
     12297     12300     12301     12297     12300     12302     12297     12300     12303
     12301     12300     12302     12301     12300     12303     12302     12300     12303
     12300     12303     12304     12300     12303     12305     12300     12303     12306
     12304     12303     12305     12304     12303     12306     12305     12303     12306
     12303     12306     12307     12303     12306     12308     12303     12306     12309
     12307     12306     12308     12307     12306     12309     12308     12306     12309
     12306     12309     12310     12306     12309     12311     12306     12309     12312
     12310     12309     12311     12310     12309     12312     12311     12309     12312
     12309     12312     12313     12309     12312     12314     12309     12312     12315
     12313     12312     12314     12313     12312     12315     12314     12312     12315
     12312     12315     12316     12312     12315     12317     12312     12315     12318
     12316     12315     12317     12316     12315     12318     12317     12315     12318
     12315     12318     12319     12315     12318     12320     12315     12318     12321
     12319     12318     12320     12319     12318     12321     12320     12318     12321
     12318     12321     12322     12318     12321     12323     12318     12321     12324
     12322     12321     12323     12322     12321     12324     12323     12321     12324
     12321     12324     12325     12321     12324     12326     12321     12324     12327
     12325     12324     12326     12325     12324     12327     12326     12324     12327
     12324     12327     12328     12324     12327     12329     12324     12327     12330
     12328     12327     12329     12328     12327     12330     12329     12327     12330
     12327     12330     12331     12327     12330     12332     12327     12330     12333
     12331     12330     12332     12331     12330     12333     12332     12330     12333
     12335     12334     12336     12335     12334     12337     12335     12334     12338
     12336     12334     12337     12336     12334     12338     12337     12334     12338
     12334     12338     12339     12334     12338     12340     12334     12338     12341
     12339     12338     12340     12339     12338     12341     12340     12338     12341
     12338     12341     12342     12338     12341     12343     12338     12341     12348
     12342     12341     12343     12342     12341     12348     12343     12341     12348
     12345     12344     12346     12345     12344     12347     12345     12344     12348
     12346     12344     12347     12346     12344     12348     12347     12344     12348
     12344     12347     12349     12341     12348     12344     12347     12349     12350
     12347     12349     12351     12347     12349     12352     12350     12349     12351
     12350     12349     12352     12351     12349     12352     12349     12352     12353
     12349     12352     12354     12349     12352     12360     12353     12352     12354
     12353     12352     12360     12354     12352     12360     12352     12354     12355
     12354     12355     12356     12354     12355     12357     12356     12355     12357
     12355     12357     12358     12355     12357     12359     12355     12357     12369
     12358     12357     12359     12358     12357     12369     12359     12357     12369
     12352     12360     12361     12352     12360     12362     12352     12360     12363
     12361     12360     12362     12361     12360     12363     12362     12360     12363
     12360     12363     12364     12363     12364     12365     12363     12364     12366
     12365     12364     12366     12364     12366     12367     12364     12366     12368
     12364     12366     12416     12367     12366     12368     12367     12366     12416
     12368     12366     12416     12357     12369     12370     12357     12369     12371
     12357     12369     12372     12370     12369     12371     12370     12369     12372
     12371     12369     12372     12369     12372     12373     12369     12372     12374
     12369     12372     12375     12373     12372     12374     12373     12372     12375
     12374     12372     12375     12372     12375     12376     12372     12375     12377
     12372     12375     12378     12376     12375     12377     12376     12375     12378
     12377     12375     12378     12375     12378     12379     12375     12378     12380
     12375     12378     12381     12379     12378     12380     12379     12378     12381
     12380     12378     12381     12378     12381     12382     12378     12381     12383
     12378     12381     12384     12382     12381     12383     12382     12381     12384
     12383     12381     12384     12381     12384     12385     12381     12384     12386
     12381     12384     12387     12385     12384     12386     12385     12384     12387
     12386     12384     12387     12384     12387     12388     12384     12387     12389
     12388     12387     12389     12387     12389     12390     12387     12389     12391
     12390     12389     12391     12389     12391     12392     12389     12391     12393
     12389     12391     12394     12392     12391     12393     12392     12391     12394
     12393     12391     12394     12391     12394     12395     12391     12394     12396
     12391     12394     12397     12395     12394     12396     12395     12394     12397
     12396     12394     12397     12394     12397     12398     12394     12397     12399
     12394     12397     12400     12398     12397     12399     12398     12397     12400
     12399     12397     12400     12397     12400     12401     12397     12400     12402
     12397     12400     12403     12401     12400     12402     12401     12400     12403
     12402     12400     12403     12400     12403     12404     12400     12403     12405
     12400     12403     12406     12404     12403     12405     12404     12403     12406
     12405     12403     12406     12403     12406     12407     12403     12406     12408
     12403     12406     12409     12407     12406     12408     12407     12406     12409
     12408     12406     12409     12406     12409     12410     12406     12409     12411
     12406     12409     12412     12410     12409     12411     12410     12409     12412
     12411     12409     12412     12409     12412     12413     12409     12412     12414
     12409     12412     12415     12413     12412     12414     12413     12412     12415
     12414     12412     12415     12366     12416     12417     12366     12416     12418
     12366     12416     12419     12417     12416     12418     12417     12416     12419
     12418     12416     12419     12416     12419     12420     12416     12419     12421
     12416     12419     12422     12420     12419     12421     12420     12419     12422
     12421     12419     12422     12419     12422     12423     12419     12422     12424
     12419     12422     12425     12423     12422     12424     12423     12422     12425
     12424     12422     12425     12422     12425     12426     12422     12425     12427
     12422     12425     12428     12426     12425     12427     12426     12425     12428
     12427     12425     12428     12425     12428     12429     12425     12428     12430
     12425     12428     12431     12429     12428     12430     12429     12428     12431
     12430     12428     12431     12428     12431     12432     12428     12431     12433
     12428     12431     12434     12432     12431     12433     12432     12431     12434
     12433     12431     12434     12431     12434     12435     12431     12434     12436
     12431     12434     12437     12435     12434     12436     12435     12434     12437
     12436     12434     12437     12434     12437     12438     12434     12437     12439
     12434     12437     12440     12438     12437     12439     12438     12437     12440
     12439     12437     12440     12437     12440     12441     12437     12440     12442
     12437     12440     12443     12441     12440     12442     12441     12440     12443
     12442     12440     12443     12440     12443     12444     12440     12443     12445
     12440     12443     12446     12444     12443     12445     12444     12443     12446
     12445     12443     12446     12443     12446     12447     12443     12446     12448
     12443     12446     12449     12447     12446     12448     12447     12446     12449
     12448     12446     12449     12446     12449     12450     12446     12449     12451
     12446     12449     12452     12450     12449     12451     12450     12449     12452
     12451     12449     12452     12449     12452     12453     12449     12452     12454
     12449     12452     12455     12453     12452     12454     12453     12452     12455
     12454     12452     12455     12452     12455     12456     12452     12455     12457
     12452     12455     12458     12456     12455     12457     12456     12455     12458
     12457     12455     12458     12460     12459     12461     12460     12459     12462
     12460     12459     12464     12461     12459     12462     12461     12459     12464
     12462     12459     12464     12459     12462     12463     12459     12464     12465
     12459     12464     12466     12459     12464     12468     12465     12464     12466
     12465     12464     12468     12466     12464     12468     12464     12466     12467
     12464     12468     12469     12464     12468     12470     12464     12468     12475
     12469     12468     12470     12469     12468     12475     12470     12468     12475
     12472     12471     12473     12472     12471     12474     12472     12471     12475
     12473     12471     12474     12473     12471     12475     12474     12471     12475
     12471     12474     12476     12468     12475     12471     12474     12476     12477
     12474     12476     12478     12474     12476     12479     12477     12476     12478
     12477     12476     12479     12478     12476     12479     12476     12479     12480
     12476     12479     12481     12476     12479     12487     12480     12479     12481
     12480     12479     12487     12481     12479     12487     12479     12481     12482
     12481     12482     12483     12481     12482     12484     12483     12482     12484
     12482     12484     12485     12482     12484     12486     12482     12484     12496
     12485     12484     12486     12485     12484     12496     12486     12484     12496
     12479     12487     12488     12479     12487     12489     12479     12487     12490
     12488     12487     12489     12488     12487     12490     12489     12487     12490
     12487     12490     12491     12490     12491     12492     12490     12491     12493
     12492     12491     12493     12491     12493     12494     12491     12493     12495
     12491     12493     12540     12494     12493     12495     12494     12493     12540
     12495     12493     12540     12484     12496     12497     12484     12496     12498
     12484     12496     12499     12497     12496     12498     12497     12496     12499
     12498     12496     12499     12496     12499     12500     12496     12499     12501
     12496     12499     12502     12500     12499     12501     12500     12499     12502
     12501     12499     12502     12499     12502     12503     12499     12502     12504
     12499     12502     12505     12503     12502     12504     12503     12502     12505
     12504     12502     12505     12502     12505     12506     12502     12505     12507
     12502     12505     12508     12506     12505     12507     12506     12505     12508
     12507     12505     12508     12505     12508     12509     12505     12508     12510
     12505     12508     12511     12509     12508     12510     12509     12508     12511
     12510     12508     12511     12508     12511     12512     12508     12511     12513
     12508     12511     12514     12512     12511     12513     12512     12511     12514
     12513     12511     12514     12511     12514     12515     12511     12514     12516
     12511     12514     12519     12515     12514     12516     12515     12514     12519
     12516     12514     12519     12514     12516     12517     12514     12516     12518
     12514     12516     12519     12517     12516     12518     12517     12516     12519
     12518     12516     12519     12514     12519     12516     12514     12519     12520
     12514     12519     12521     12516     12519     12520     12516     12519     12521
     12520     12519     12521     12519     12521     12522     12519     12521     12523
     12519     12521     12524     12522     12521     12523     12522     12521     12524
     12523     12521     12524     12521     12524     12525     12521     12524     12526
     12521     12524     12527     12525     12524     12526     12525     12524     12527
     12526     12524     12527     12524     12527     12528     12524     12527     12529
     12524     12527     12530     12528     12527     12529     12528     12527     12530
     12529     12527     12530     12527     12530     12531     12527     12530     12532
     12527     12530     12533     12531     12530     12532     12531     12530     12533
     12532     12530     12533     12530     12533     12534     12530     12533     12535
     12530     12533     12536     12534     12533     12535     12534     12533     12536
     12535     12533     12536     12533     12536     12537     12533     12536     12538
     12533     12536     12539     12537     12536     12538     12537     12536     12539
     12538     12536     12539     12493     12540     12541     12493     12540     12542
     12493     12540     12543     12541     12540     12542     12541     12540     12543
     12542     12540     12543     12540     12543     12544     12540     12543     12545
     12540     12543     12546     12544     12543     12545     12544     12543     12546
     12545     12543     12546     12543     12546     12547     12543     12546     12548
     12543     12546     12549     12547     12546     12548     12547     12546     12549
     12548     12546     12549     12546     12549     12550     12546     12549     12551
     12546     12549     12552     12550     12549     12551     12550     12549     12552
     12551     12549     12552     12549     12552     12553     12549     12552     12554
     12549     12552     12555     12553     12552     12554     12553     12552     12555
     12554     12552     12555     12552     12555     12556     12552     12555     12557
     12552     12555     12558     12556     12555     12557     12556     12555     12558
     12557     12555     12558     12555     12558     12559     12555     12558     12560
     12555     12558     12561     12559     12558     12560     12559     12558     12561
     12560     12558     12561     12558     12561     12562     12558     12561     12563
     12558     12561     12564     12562     12561     12563     12562     12561     12564
     12563     12561     12564     12561     12564     12565     12561     12564     12566
     12561     12564     12567     12565     12564     12566     12565     12564     12567
     12566     12564     12567     12564     12567     12568     12564     12567     12569
     12564     12567     12570     12568     12567     12569     12568     12567     12570
     12569     12567     12570     12567     12570     12571     12567     12570     12572
     12567     12570     12573     12571     12570     12572     12571     12570     12573
     12572     12570     12573     12570     12573     12574     12570     12573     12575
     12570     12573     12576     12574     12573     12575     12574     12573     12576
     12575     12573     12576     12573     12576     12577     12573     12576     12578
     12573     12576     12579     12577     12576     12578     12577     12576     12579
     12578     12576     12579     12576     12579     12580     12576     12579     12581
     12576     12579     12582     12580     12579     12581     12580     12579     12582
     12581     12579     12582     12584     12583     12585     12584     12583     12586
     12584     12583     12587     12585     12583     12586     12585     12583     12587
     12586     12583     12587     12583     12587     12588     12583     12587     12589
     12583     12587     12590     12588     12587     12589     12588     12587     12590
     12589     12587     12590     12587     12590     12591     12587     12590     12592
     12587     12590     12597     12591     12590     12592     12591     12590     12597
     12592     12590     12597     12594     12593     12595     12594     12593     12596
     12594     12593     12597     12595     12593     12596     12595     12593     12597
     12596     12593     12597     12593     12596     12598     12590     12597     12593
     12596     12598     12599     12596     12598     12600     12596     12598     12601
     12599     12598     12600     12599     12598     12601     12600     12598     12601
     12598     12601     12602     12598     12601     12603     12598     12601     12609
     12602     12601     12603     12602     12601     12609     12603     12601     12609
     12601     12603     12604     12603     12604     12605     12603     12604     12606
     12605     12604     12606     12604     12606     12607     12604     12606     12608
     12604     12606     12618     12607     12606     12608     12607     12606     12618
     12608     12606     12618     12601     12609     12610     12601     12609     12611
     12601     12609     12612     12610     12609     12611     12610     12609     12612
     12611     12609     12612     12609     12612     12613     12612     12613     12614
     12612     12613     12615     12614     12613     12615     12613     12615     12616
     12613     12615     12617     12613     12615     12665     12616     12615     12617
     12616     12615     12665     12617     12615     12665     12606     12618     12619
     12606     12618     12620     12606     12618     12621     12619     12618     12620
     12619     12618     12621     12620     12618     12621     12618     12621     12622
     12618     12621     12623     12618     12621     12624     12622     12621     12623
     12622     12621     12624     12623     12621     12624     12621     12624     12625
     12621     12624     12626     12621     12624     12627     12625     12624     12626
     12625     12624     12627     12626     12624     12627     12624     12627     12628
     12624     12627     12629     12624     12627     12630     12628     12627     12629
     12628     12627     12630     12629     12627     12630     12627     12630     12631
     12627     12630     12632     12627     12630     12633     12631     12630     12632
     12631     12630     12633     12632     12630     12633     12630     12633     12634
     12630     12633     12635     12630     12633     12636     12634     12633     12635
     12634     12633     12636     12635     12633     12636     12633     12636     12637
     12633     12636     12638     12637     12636     12638     12636     12638     12639
     12636     12638     12640     12639     12638     12640     12638     12640     12641
     12638     12640     12642     12638     12640     12643     12641     12640     12642
     12641     12640     12643     12642     12640     12643     12640     12643     12644
     12640     12643     12645     12640     12643     12646     12644     12643     12645
     12644     12643     12646     12645     12643     12646     12643     12646     12647
     12643     12646     12648     12643     12646     12649     12647     12646     12648
     12647     12646     12649     12648     12646     12649     12646     12649     12650
     12646     12649     12651     12646     12649     12652     12650     12649     12651
     12650     12649     12652     12651     12649     12652     12649     12652     12653
     12649     12652     12654     12649     12652     12655     12653     12652     12654
     12653     12652     12655     12654     12652     12655     12652     12655     12656
     12652     12655     12657     12652     12655     12658     12656     12655     12657
     12656     12655     12658     12657     12655     12658     12655     12658     12659
     12655     12658     12660     12655     12658     12661     12659     12658     12660
     12659     12658     12661     12660     12658     12661     12658     12661     12662
     12658     12661     12663     12658     12661     12664     12662     12661     12663
     12662     12661     12664     12663     12661     12664     12615     12665     12666
     12615     12665     12667     12615     12665     12668     12666     12665     12667
     12666     12665     12668     12667     12665     12668     12665     12668     12669
     12665     12668     12670     12665     12668     12671     12669     12668     12670
     12669     12668     12671     12670     12668     12671     12668     12671     12672
     12668     12671     12673     12668     12671     12674     12672     12671     12673
     12672     12671     12674     12673     12671     12674     12671     12674     12675
     12671     12674     12676     12671     12674     12677     12675     12674     12676
     12675     12674     12677     12676     12674     12677     12674     12677     12678
     12674     12677     12679     12674     12677     12680     12678     12677     12679
     12678     12677     12680     12679     12677     12680     12677     12680     12681
     12677     12680     12682     12677     12680     12683     12681     12680     12682
     12681     12680     12683     12682     12680     12683     12680     12683     12684
     12680     12683     12685     12680     12683     12686     12684     12683     12685
     12684     12683     12686     12685     12683     12686     12683     12686     12687
     12683     12686     12688     12683     12686     12689     12687     12686     12688
     12687     12686     12689     12688     12686     12689     12686     12689     12690
     12686     12689     12691     12686     12689     12692     12690     12689     12691
     12690     12689     12692     12691     12689     12692     12689     12692     12693
     12689     12692     12694     12689     12692     12695     12693     12692     12694
     12693     12692     12695     12694     12692     12695     12692     12695     12696
     12692     12695     12697     12692     12695     12698     12696     12695     12697
     12696     12695     12698     12697     12695     12698     12695     12698     12699
     12695     12698     12700     12695     12698     12701     12699     12698     12700
     12699     12698     12701     12700     12698     12701     12698     12701     12702
     12698     12701     12703     12698     12701     12704     12702     12701     12703
     12702     12701     12704     12703     12701     12704     12701     12704     12705
     12701     12704     12706     12701     12704     12707     12705     12704     12706
     12705     12704     12707     12706     12704     12707     12709     12708     12710
     12709     12708     12711     12709     12708     12712     12710     12708     12711
     12710     12708     12712     12711     12708     12712     12708     12712     12713
     12708     12712     12714     12708     12712     12715     12713     12712     12714
     12713     12712     12715     12714     12712     12715     12712     12715     12716
     12712     12715     12717     12712     12715     12722     12716     12715     12717
     12716     12715     12722     12717     12715     12722     12719     12718     12720
     12719     12718     12721     12719     12718     12722     12720     12718     12721
     12720     12718     12722     12721     12718     12722     12718     12721     12723
     12715     12722     12718     12721     12723     12724     12721     12723     12725
     12721     12723     12726     12724     12723     12725     12724     12723     12726
     12725     12723     12726     12723     12726     12727     12723     12726     12728
     12723     12726     12734     12727     12726     12728     12727     12726     12734
     12728     12726     12734     12726     12728     12729     12728     12729     12730
     12728     12729     12731     12730     12729     12731     12729     12731     12732
     12729     12731     12733     12729     12731     12743     12732     12731     12733
     12732     12731     12743     12733     12731     12743     12726     12734     12735
     12726     12734     12736     12726     12734     12737     12735     12734     12736
     12735     12734     12737     12736     12734     12737     12734     12737     12738
     12737     12738     12739     12737     12738     12740     12739     12738     12740
     12738     12740     12741     12738     12740     12742     12738     12740     12787
     12741     12740     12742     12741     12740     12787     12742     12740     12787
     12731     12743     12744     12731     12743     12745     12731     12743     12746
     12744     12743     12745     12744     12743     12746     12745     12743     12746
     12743     12746     12747     12743     12746     12748     12743     12746     12749
     12747     12746     12748     12747     12746     12749     12748     12746     12749
     12746     12749     12750     12746     12749     12751     12746     12749     12752
     12750     12749     12751     12750     12749     12752     12751     12749     12752
     12749     12752     12753     12749     12752     12754     12749     12752     12755
     12753     12752     12754     12753     12752     12755     12754     12752     12755
     12752     12755     12756     12752     12755     12757     12752     12755     12758
     12756     12755     12757     12756     12755     12758     12757     12755     12758
     12755     12758     12759     12755     12758     12760     12755     12758     12761
     12759     12758     12760     12759     12758     12761     12760     12758     12761
     12758     12761     12762     12758     12761     12763     12758     12761     12766
     12762     12761     12763     12762     12761     12766     12763     12761     12766
     12761     12763     12764     12761     12763     12765     12761     12763     12766
     12764     12763     12765     12764     12763     12766     12765     12763     12766
     12761     12766     12763     12761     12766     12767     12761     12766     12768
     12763     12766     12767     12763     12766     12768     12767     12766     12768
     12766     12768     12769     12766     12768     12770     12766     12768     12771
     12769     12768     12770     12769     12768     12771     12770     12768     12771
     12768     12771     12772     12768     12771     12773     12768     12771     12774
     12772     12771     12773     12772     12771     12774     12773     12771     12774
     12771     12774     12775     12771     12774     12776     12771     12774     12777
     12775     12774     12776     12775     12774     12777     12776     12774     12777
     12774     12777     12778     12774     12777     12779     12774     12777     12780
     12778     12777     12779     12778     12777     12780     12779     12777     12780
     12777     12780     12781     12777     12780     12782     12777     12780     12783
     12781     12780     12782     12781     12780     12783     12782     12780     12783
     12780     12783     12784     12780     12783     12785     12780     12783     12786
     12784     12783     12785     12784     12783     12786     12785     12783     12786
     12740     12787     12788     12740     12787     12789     12740     12787     12790
     12788     12787     12789     12788     12787     12790     12789     12787     12790
     12787     12790     12791     12787     12790     12792     12787     12790     12793
     12791     12790     12792     12791     12790     12793     12792     12790     12793
     12790     12793     12794     12790     12793     12795     12790     12793     12796
     12794     12793     12795     12794     12793     12796     12795     12793     12796
     12793     12796     12797     12793     12796     12798     12793     12796     12799
     12797     12796     12798     12797     12796     12799     12798     12796     12799
     12796     12799     12800     12796     12799     12801     12796     12799     12802
     12800     12799     12801     12800     12799     12802     12801     12799     12802
     12799     12802     12803     12799     12802     12804     12799     12802     12805
     12803     12802     12804     12803     12802     12805     12804     12802     12805
     12802     12805     12806     12802     12805     12807     12802     12805     12808
     12806     12805     12807     12806     12805     12808     12807     12805     12808
     12805     12808     12809     12805     12808     12810     12805     12808     12811
     12809     12808     12810     12809     12808     12811     12810     12808     12811
     12808     12811     12812     12808     12811     12813     12808     12811     12814
     12812     12811     12813     12812     12811     12814     12813     12811     12814
     12811     12814     12815     12811     12814     12816     12811     12814     12817
     12815     12814     12816     12815     12814     12817     12816     12814     12817
     12814     12817     12818     12814     12817     12819     12814     12817     12820
     12818     12817     12819     12818     12817     12820     12819     12817     12820
     12817     12820     12821     12817     12820     12822     12817     12820     12823
     12821     12820     12822     12821     12820     12823     12822     12820     12823
     12820     12823     12824     12820     12823     12825     12820     12823     12826
     12824     12823     12825     12824     12823     12826     12825     12823     12826
     12823     12826     12827     12823     12826     12828     12823     12826     12829
     12827     12826     12828     12827     12826     12829     12828     12826     12829
     12831     12830     12832     12831     12830     12833     12831     12830     12834
     12832     12830     12833     12832     12830     12834     12833     12830     12834
     12830     12834     12835     12830     12834     12836     12830     12834     12837
     12835     12834     12836     12835     12834     12837     12836     12834     12837
     12834     12837     12838     12834     12837     12839     12834     12837     12844
     12838     12837     12839     12838     12837     12844     12839     12837     12844
     12841     12840     12842     12841     12840     12843     12841     12840     12844
     12842     12840     12843     12842     12840     12844     12843     12840     12844
     12840     12843     12845     12837     12844     12840     12843     12845     12846
     12843     12845     12847     12843     12845     12848     12846     12845     12847
     12846     12845     12848     12847     12845     12848     12845     12848     12849
     12845     12848     12850     12845     12848     12856     12849     12848     12850
     12849     12848     12856     12850     12848     12856     12848     12850     12851
     12850     12851     12852     12850     12851     12853     12852     12851     12853
     12851     12853     12854     12851     12853     12855     12851     12853     12865
     12854     12853     12855     12854     12853     12865     12855     12853     12865
     12848     12856     12857     12848     12856     12858     12848     12856     12859
     12857     12856     12858     12857     12856     12859     12858     12856     12859
     12856     12859     12860     12859     12860     12861     12859     12860     12862
     12861     12860     12862     12860     12862     12863     12860     12862     12864
     12860     12862     12909     12863     12862     12864     12863     12862     12909
     12864     12862     12909     12853     12865     12866     12853     12865     12867
     12853     12865     12868     12866     12865     12867     12866     12865     12868
     12867     12865     12868     12865     12868     12869     12865     12868     12870
     12865     12868     12871     12869     12868     12870     12869     12868     12871
     12870     12868     12871     12868     12871     12872     12868     12871     12873
     12868     12871     12874     12872     12871     12873     12872     12871     12874
     12873     12871     12874     12871     12874     12875     12871     12874     12876
     12871     12874     12877     12875     12874     12876     12875     12874     12877
     12876     12874     12877     12874     12877     12878     12874     12877     12879
     12874     12877     12880     12878     12877     12879     12878     12877     12880
     12879     12877     12880     12877     12880     12881     12877     12880     12882
     12877     12880     12883     12881     12880     12882     12881     12880     12883
     12882     12880     12883     12880     12883     12884     12880     12883     12885
     12880     12883     12888     12884     12883     12885     12884     12883     12888
     12885     12883     12888     12883     12885     12886     12883     12885     12887
     12883     12885     12888     12886     12885     12887     12886     12885     12888
     12887     12885     12888     12883     12888     12885     12883     12888     12889
     12883     12888     12890     12885     12888     12889     12885     12888     12890
     12889     12888     12890     12888     12890     12891     12888     12890     12892
     12888     12890     12893     12891     12890     12892     12891     12890     12893
     12892     12890     12893     12890     12893     12894     12890     12893     12895
     12890     12893     12896     12894     12893     12895     12894     12893     12896
     12895     12893     12896     12893     12896     12897     12893     12896     12898
     12893     12896     12899     12897     12896     12898     12897     12896     12899
     12898     12896     12899     12896     12899     12900     12896     12899     12901
     12896     12899     12902     12900     12899     12901     12900     12899     12902
     12901     12899     12902     12899     12902     12903     12899     12902     12904
     12899     12902     12905     12903     12902     12904     12903     12902     12905
     12904     12902     12905     12902     12905     12906     12902     12905     12907
     12902     12905     12908     12906     12905     12907     12906     12905     12908
     12907     12905     12908     12862     12909     12910     12862     12909     12911
     12862     12909     12912     12910     12909     12911     12910     12909     12912
     12911     12909     12912     12909     12912     12913     12909     12912     12914
     12909     12912     12915     12913     12912     12914     12913     12912     12915
     12914     12912     12915     12912     12915     12916     12912     12915     12917
     12912     12915     12918     12916     12915     12917     12916     12915     12918
     12917     12915     12918     12915     12918     12919     12915     12918     12920
     12915     12918     12921     12919     12918     12920     12919     12918     12921
     12920     12918     12921     12918     12921     12922     12918     12921     12923
     12918     12921     12924     12922     12921     12923     12922     12921     12924
     12923     12921     12924     12921     12924     12925     12921     12924     12926
     12921     12924     12927     12925     12924     12926     12925     12924     12927
     12926     12924     12927     12924     12927     12928     12924     12927     12929
     12924     12927     12930     12928     12927     12929     12928     12927     12930
     12929     12927     12930     12927     12930     12931     12927     12930     12932
     12927     12930     12933     12931     12930     12932     12931     12930     12933
     12932     12930     12933     12930     12933     12934     12930     12933     12935
     12930     12933     12936     12934     12933     12935     12934     12933     12936
     12935     12933     12936     12933     12936     12937     12933     12936     12938
     12933     12936     12939     12937     12936     12938     12937     12936     12939
     12938     12936     12939     12936     12939     12940     12936     12939     12941
     12936     12939     12942     12940     12939     12941     12940     12939     12942
     12941     12939     12942     12939     12942     12943     12939     12942     12944
     12939     12942     12945     12943     12942     12944     12943     12942     12945
     12944     12942     12945     12942     12945     12946     12942     12945     12947
     12942     12945     12948     12946     12945     12947     12946     12945     12948
     12947     12945     12948     12945     12948     12949     12945     12948     12950
     12945     12948     12951     12949     12948     12950     12949     12948     12951
     12950     12948     12951     12953     12952     12954     12953     12952     12955
     12953     12952     12956     12954     12952     12955     12954     12952     12956
     12955     12952     12956     12952     12956     12957     12952     12956     12958
     12952     12956     12959     12957     12956     12958     12957     12956     12959
     12958     12956     12959     12956     12959     12960     12956     12959     12961
     12956     12959     12966     12960     12959     12961     12960     12959     12966
     12961     12959     12966     12963     12962     12964     12963     12962     12965
     12963     12962     12966     12964     12962     12965     12964     12962     12966
     12965     12962     12966     12962     12965     12967     12959     12966     12962
     12965     12967     12968     12965     12967     12969     12965     12967     12970
     12968     12967     12969     12968     12967     12970     12969     12967     12970
     12967     12970     12971     12967     12970     12972     12967     12970     12978
     12971     12970     12972     12971     12970     12978     12972     12970     12978
     12970     12972     12973     12972     12973     12974     12972     12973     12975
     12974     12973     12975     12973     12975     12976     12973     12975     12977
     12973     12975     12987     12976     12975     12977     12976     12975     12987
     12977     12975     12987     12970     12978     12979     12970     12978     12980
     12970     12978     12981     12979     12978     12980     12979     12978     12981
     12980     12978     12981     12978     12981     12982     12981     12982     12983
     12981     12982     12984     12983     12982     12984     12982     12984     12985
     12982     12984     12986     12982     12984     13031     12985     12984     12986
     12985     12984     13031     12986     12984     13031     12975     12987     12988
     12975     12987     12989     12975     12987     12990     12988     12987     12989
     12988     12987     12990     12989     12987     12990     12987     12990     12991
     12987     12990     12992     12987     12990     12993     12991     12990     12992
     12991     12990     12993     12992     12990     12993     12990     12993     12994
     12990     12993     12995     12990     12993     12996     12994     12993     12995
     12994     12993     12996     12995     12993     12996     12993     12996     12997
     12993     12996     12998     12993     12996     12999     12997     12996     12998
     12997     12996     12999     12998     12996     12999     12996     12999     13000
     12996     12999     13001     12996     12999     13002     13000     12999     13001
     13000     12999     13002     13001     12999     13002     12999     13002     13003
     12999     13002     13004     12999     13002     13005     13003     13002     13004
     13003     13002     13005     13004     13002     13005     13002     13005     13006
     13002     13005     13007     13002     13005     13010     13006     13005     13007
     13006     13005     13010     13007     13005     13010     13005     13007     13008
     13005     13007     13009     13005     13007     13010     13008     13007     13009
     13008     13007     13010     13009     13007     13010     13005     13010     13007
     13005     13010     13011     13005     13010     13012     13007     13010     13011
     13007     13010     13012     13011     13010     13012     13010     13012     13013
     13010     13012     13014     13010     13012     13015     13013     13012     13014
     13013     13012     13015     13014     13012     13015     13012     13015     13016
     13012     13015     13017     13012     13015     13018     13016     13015     13017
     13016     13015     13018     13017     13015     13018     13015     13018     13019
     13015     13018     13020     13015     13018     13021     13019     13018     13020
     13019     13018     13021     13020     13018     13021     13018     13021     13022
     13018     13021     13023     13018     13021     13024     13022     13021     13023
     13022     13021     13024     13023     13021     13024     13021     13024     13025
     13021     13024     13026     13021     13024     13027     13025     13024     13026
     13025     13024     13027     13026     13024     13027     13024     13027     13028
     13024     13027     13029     13024     13027     13030     13028     13027     13029
     13028     13027     13030     13029     13027     13030     12984     13031     13032
     12984     13031     13033     12984     13031     13034     13032     13031     13033
     13032     13031     13034     13033     13031     13034     13031     13034     13035
     13031     13034     13036     13031     13034     13037     13035     13034     13036
     13035     13034     13037     13036     13034     13037     13034     13037     13038
     13034     13037     13039     13034     13037     13040     13038     13037     13039
     13038     13037     13040     13039     13037     13040     13037     13040     13041
     13037     13040     13042     13037     13040     13043     13041     13040     13042
     13041     13040     13043     13042     13040     13043     13040     13043     13044
     13040     13043     13045     13040     13043     13046     13044     13043     13045
     13044     13043     13046     13045     13043     13046     13043     13046     13047
     13043     13046     13048     13043     13046     13049     13047     13046     13048
     13047     13046     13049     13048     13046     13049     13046     13049     13050
     13046     13049     13051     13046     13049     13052     13050     13049     13051
     13050     13049     13052     13051     13049     13052     13049     13052     13053
     13049     13052     13054     13049     13052     13055     13053     13052     13054
     13053     13052     13055     13054     13052     13055     13052     13055     13056
     13052     13055     13057     13052     13055     13058     13056     13055     13057
     13056     13055     13058     13057     13055     13058     13055     13058     13059
     13055     13058     13060     13055     13058     13061     13059     13058     13060
     13059     13058     13061     13060     13058     13061     13058     13061     13062
     13058     13061     13063     13058     13061     13064     13062     13061     13063
     13062     13061     13064     13063     13061     13064     13061     13064     13065
     13061     13064     13066     13061     13064     13067     13065     13064     13066
     13065     13064     13067     13066     13064     13067     13064     13067     13068
     13064     13067     13069     13064     13067     13070     13068     13067     13069
     13068     13067     13070     13069     13067     13070     13072     13071     13073
     13072     13071     13074     13072     13071     13075     13073     13071     13074
     13073     13071     13075     13074     13071     13075     13071     13075     13076
     13071     13075     13077     13071     13075     13078     13076     13075     13077
     13076     13075     13078     13077     13075     13078     13075     13078     13079
     13075     13078     13080     13075     13078     13085     13079     13078     13080
     13079     13078     13085     13080     13078     13085     13082     13081     13083
     13082     13081     13084     13082     13081     13085     13083     13081     13084
     13083     13081     13085     13084     13081     13085     13081     13084     13086
     13078     13085     13081     13084     13086     13087     13084     13086     13088
     13084     13086     13089     13087     13086     13088     13087     13086     13089
     13088     13086     13089     13086     13089     13090     13086     13089     13091
     13086     13089     13097     13090     13089     13091     13090     13089     13097
     13091     13089     13097     13089     13091     13092     13091     13092     13093
     13091     13092     13094     13093     13092     13094     13092     13094     13095
     13092     13094     13096     13092     13094     13106     13095     13094     13096
     13095     13094     13106     13096     13094     13106     13089     13097     13098
     13089     13097     13099     13089     13097     13100     13098     13097     13099
     13098     13097     13100     13099     13097     13100     13097     13100     13101
     13100     13101     13102     13100     13101     13103     13102     13101     13103
     13101     13103     13104     13101     13103     13105     13101     13103     13150
     13104     13103     13105     13104     13103     13150     13105     13103     13150
     13094     13106     13107     13094     13106     13108     13094     13106     13109
     13107     13106     13108     13107     13106     13109     13108     13106     13109
     13106     13109     13110     13106     13109     13111     13106     13109     13112
     13110     13109     13111     13110     13109     13112     13111     13109     13112
     13109     13112     13113     13109     13112     13114     13109     13112     13115
     13113     13112     13114     13113     13112     13115     13114     13112     13115
     13112     13115     13116     13112     13115     13117     13112     13115     13118
     13116     13115     13117     13116     13115     13118     13117     13115     13118
     13115     13118     13119     13115     13118     13120     13115     13118     13121
     13119     13118     13120     13119     13118     13121     13120     13118     13121
     13118     13121     13122     13118     13121     13123     13118     13121     13124
     13122     13121     13123     13122     13121     13124     13123     13121     13124
     13121     13124     13125     13121     13124     13126     13121     13124     13129
     13125     13124     13126     13125     13124     13129     13126     13124     13129
     13124     13126     13127     13124     13126     13128     13124     13126     13129
     13127     13126     13128     13127     13126     13129     13128     13126     13129
     13124     13129     13126     13124     13129     13130     13124     13129     13131
     13126     13129     13130     13126     13129     13131     13130     13129     13131
     13129     13131     13132     13129     13131     13133     13129     13131     13134
     13132     13131     13133     13132     13131     13134     13133     13131     13134
     13131     13134     13135     13131     13134     13136     13131     13134     13137
     13135     13134     13136     13135     13134     13137     13136     13134     13137
     13134     13137     13138     13134     13137     13139     13134     13137     13140
     13138     13137     13139     13138     13137     13140     13139     13137     13140
     13137     13140     13141     13137     13140     13142     13137     13140     13143
     13141     13140     13142     13141     13140     13143     13142     13140     13143
     13140     13143     13144     13140     13143     13145     13140     13143     13146
     13144     13143     13145     13144     13143     13146     13145     13143     13146
     13143     13146     13147     13143     13146     13148     13143     13146     13149
     13147     13146     13148     13147     13146     13149     13148     13146     13149
     13103     13150     13151     13103     13150     13152     13103     13150     13153
     13151     13150     13152     13151     13150     13153     13152     13150     13153
     13150     13153     13154     13150     13153     13155     13150     13153     13156
     13154     13153     13155     13154     13153     13156     13155     13153     13156
     13153     13156     13157     13153     13156     13158     13153     13156     13159
     13157     13156     13158     13157     13156     13159     13158     13156     13159
     13156     13159     13160     13156     13159     13161     13156     13159     13162
     13160     13159     13161     13160     13159     13162     13161     13159     13162
     13159     13162     13163     13159     13162     13164     13159     13162     13165
     13163     13162     13164     13163     13162     13165     13164     13162     13165
     13162     13165     13166     13162     13165     13167     13162     13165     13168
     13166     13165     13167     13166     13165     13168     13167     13165     13168
     13165     13168     13169     13165     13168     13170     13165     13168     13171
     13169     13168     13170     13169     13168     13171     13170     13168     13171
     13168     13171     13172     13168     13171     13173     13168     13171     13174
     13172     13171     13173     13172     13171     13174     13173     13171     13174
     13171     13174     13175     13171     13174     13176     13171     13174     13177
     13175     13174     13176     13175     13174     13177     13176     13174     13177
     13174     13177     13178     13174     13177     13179     13174     13177     13180
     13178     13177     13179     13178     13177     13180     13179     13177     13180
     13177     13180     13181     13177     13180     13182     13177     13180     13183
     13181     13180     13182     13181     13180     13183     13182     13180     13183
     13180     13183     13184     13180     13183     13185     13180     13183     13186
     13184     13183     13185     13184     13183     13186     13185     13183     13186
     13183     13186     13187     13183     13186     13188     13183     13186     13189
     13187     13186     13188     13187     13186     13189     13188     13186     13189
     13191     13190     13192     13191     13190     13193     13191     13190     13194
     13192     13190     13193     13192     13190     13194     13193     13190     13194
     13190     13194     13195     13190     13194     13196     13190     13194     13197
     13195     13194     13196     13195     13194     13197     13196     13194     13197
     13194     13197     13198     13194     13197     13199     13194     13197     13204
     13198     13197     13199     13198     13197     13204     13199     13197     13204
     13201     13200     13202     13201     13200     13203     13201     13200     13204
     13202     13200     13203     13202     13200     13204     13203     13200     13204
     13200     13203     13205     13197     13204     13200     13203     13205     13206
     13203     13205     13207     13203     13205     13208     13206     13205     13207
     13206     13205     13208     13207     13205     13208     13205     13208     13209
     13205     13208     13210     13205     13208     13216     13209     13208     13210
     13209     13208     13216     13210     13208     13216     13208     13210     13211
     13210     13211     13212     13210     13211     13213     13212     13211     13213
     13211     13213     13214     13211     13213     13215     13211     13213     13225
     13214     13213     13215     13214     13213     13225     13215     13213     13225
     13208     13216     13217     13208     13216     13218     13208     13216     13219
     13217     13216     13218     13217     13216     13219     13218     13216     13219
     13216     13219     13220     13219     13220     13221     13219     13220     13222
     13221     13220     13222     13220     13222     13223     13220     13222     13224
     13220     13222     13269     13223     13222     13224     13223     13222     13269
     13224     13222     13269     13213     13225     13226     13213     13225     13227
     13213     13225     13228     13226     13225     13227     13226     13225     13228
     13227     13225     13228     13225     13228     13229     13225     13228     13230
     13225     13228     13231     13229     13228     13230     13229     13228     13231
     13230     13228     13231     13228     13231     13232     13228     13231     13233
     13228     13231     13234     13232     13231     13233     13232     13231     13234
     13233     13231     13234     13231     13234     13235     13231     13234     13236
     13231     13234     13237     13235     13234     13236     13235     13234     13237
     13236     13234     13237     13234     13237     13238     13234     13237     13239
     13234     13237     13240     13238     13237     13239     13238     13237     13240
     13239     13237     13240     13237     13240     13241     13237     13240     13242
     13237     13240     13243     13241     13240     13242     13241     13240     13243
     13242     13240     13243     13240     13243     13244     13240     13243     13245
     13240     13243     13248     13244     13243     13245     13244     13243     13248
     13245     13243     13248     13243     13245     13246     13243     13245     13247
     13243     13245     13248     13246     13245     13247     13246     13245     13248
     13247     13245     13248     13243     13248     13245     13243     13248     13249
     13243     13248     13250     13245     13248     13249     13245     13248     13250
     13249     13248     13250     13248     13250     13251     13248     13250     13252
     13248     13250     13253     13251     13250     13252     13251     13250     13253
     13252     13250     13253     13250     13253     13254     13250     13253     13255
     13250     13253     13256     13254     13253     13255     13254     13253     13256
     13255     13253     13256     13253     13256     13257     13253     13256     13258
     13253     13256     13259     13257     13256     13258     13257     13256     13259
     13258     13256     13259     13256     13259     13260     13256     13259     13261
     13256     13259     13262     13260     13259     13261     13260     13259     13262
     13261     13259     13262     13259     13262     13263     13259     13262     13264
     13259     13262     13265     13263     13262     13264     13263     13262     13265
     13264     13262     13265     13262     13265     13266     13262     13265     13267
     13262     13265     13268     13266     13265     13267     13266     13265     13268
     13267     13265     13268     13222     13269     13270     13222     13269     13271
     13222     13269     13272     13270     13269     13271     13270     13269     13272
     13271     13269     13272     13269     13272     13273     13269     13272     13274
     13269     13272     13275     13273     13272     13274     13273     13272     13275
     13274     13272     13275     13272     13275     13276     13272     13275     13277
     13272     13275     13278     13276     13275     13277     13276     13275     13278
     13277     13275     13278     13275     13278     13279     13275     13278     13280
     13275     13278     13281     13279     13278     13280     13279     13278     13281
     13280     13278     13281     13278     13281     13282     13278     13281     13283
     13278     13281     13284     13282     13281     13283     13282     13281     13284
     13283     13281     13284     13281     13284     13285     13281     13284     13286
     13281     13284     13287     13285     13284     13286     13285     13284     13287
     13286     13284     13287     13284     13287     13288     13284     13287     13289
     13284     13287     13290     13288     13287     13289     13288     13287     13290
     13289     13287     13290     13287     13290     13291     13287     13290     13292
     13287     13290     13293     13291     13290     13292     13291     13290     13293
     13292     13290     13293     13290     13293     13294     13290     13293     13295
     13290     13293     13296     13294     13293     13295     13294     13293     13296
     13295     13293     13296     13293     13296     13297     13293     13296     13298
     13293     13296     13299     13297     13296     13298     13297     13296     13299
     13298     13296     13299     13296     13299     13300     13296     13299     13301
     13296     13299     13302     13300     13299     13301     13300     13299     13302
     13301     13299     13302     13299     13302     13303     13299     13302     13304
     13299     13302     13305     13303     13302     13304     13303     13302     13305
     13304     13302     13305     13302     13305     13306     13302     13305     13307
     13302     13305     13308     13306     13305     13307     13306     13305     13308
     13307     13305     13308     13305     13308     13309     13305     13308     13310
     13305     13308     13311     13309     13308     13310     13309     13308     13311
     13310     13308     13311     13313     13312     13314     13313     13312     13315
     13313     13312     13316     13314     13312     13315     13314     13312     13316
     13315     13312     13316     13312     13316     13317     13312     13316     13318
     13312     13316     13319     13317     13316     13318     13317     13316     13319
     13318     13316     13319     13316     13319     13320     13316     13319     13321
     13316     13319     13326     13320     13319     13321     13320     13319     13326
     13321     13319     13326     13323     13322     13324     13323     13322     13325
     13323     13322     13326     13324     13322     13325     13324     13322     13326
     13325     13322     13326     13322     13325     13327     13319     13326     13322
     13325     13327     13328     13325     13327     13329     13325     13327     13330
     13328     13327     13329     13328     13327     13330     13329     13327     13330
     13327     13330     13331     13327     13330     13332     13327     13330     13338
     13331     13330     13332     13331     13330     13338     13332     13330     13338
     13330     13332     13333     13332     13333     13334     13332     13333     13335
     13334     13333     13335     13333     13335     13336     13333     13335     13337
     13333     13335     13347     13336     13335     13337     13336     13335     13347
     13337     13335     13347     13330     13338     13339     13330     13338     13340
     13330     13338     13341     13339     13338     13340     13339     13338     13341
     13340     13338     13341     13338     13341     13342     13341     13342     13343
     13341     13342     13344     13343     13342     13344     13342     13344     13345
     13342     13344     13346     13342     13344     13391     13345     13344     13346
     13345     13344     13391     13346     13344     13391     13335     13347     13348
     13335     13347     13349     13335     13347     13350     13348     13347     13349
     13348     13347     13350     13349     13347     13350     13347     13350     13351
     13347     13350     13352     13347     13350     13353     13351     13350     13352
     13351     13350     13353     13352     13350     13353     13350     13353     13354
     13350     13353     13355     13350     13353     13356     13354     13353     13355
     13354     13353     13356     13355     13353     13356     13353     13356     13357
     13353     13356     13358     13353     13356     13359     13357     13356     13358
     13357     13356     13359     13358     13356     13359     13356     13359     13360
     13356     13359     13361     13356     13359     13362     13360     13359     13361
     13360     13359     13362     13361     13359     13362     13359     13362     13363
     13359     13362     13364     13359     13362     13365     13363     13362     13364
     13363     13362     13365     13364     13362     13365     13362     13365     13366
     13362     13365     13367     13362     13365     13370     13366     13365     13367
     13366     13365     13370     13367     13365     13370     13365     13367     13368
     13365     13367     13369     13365     13367     13370     13368     13367     13369
     13368     13367     13370     13369     13367     13370     13365     13370     13367
     13365     13370     13371     13365     13370     13372     13367     13370     13371
     13367     13370     13372     13371     13370     13372     13370     13372     13373
     13370     13372     13374     13370     13372     13375     13373     13372     13374
     13373     13372     13375     13374     13372     13375     13372     13375     13376
     13372     13375     13377     13372     13375     13378     13376     13375     13377
     13376     13375     13378     13377     13375     13378     13375     13378     13379
     13375     13378     13380     13375     13378     13381     13379     13378     13380
     13379     13378     13381     13380     13378     13381     13378     13381     13382
     13378     13381     13383     13378     13381     13384     13382     13381     13383
     13382     13381     13384     13383     13381     13384     13381     13384     13385
     13381     13384     13386     13381     13384     13387     13385     13384     13386
     13385     13384     13387     13386     13384     13387     13384     13387     13388
     13384     13387     13389     13384     13387     13390     13388     13387     13389
     13388     13387     13390     13389     13387     13390     13344     13391     13392
     13344     13391     13393     13344     13391     13394     13392     13391     13393
     13392     13391     13394     13393     13391     13394     13391     13394     13395
     13391     13394     13396     13391     13394     13397     13395     13394     13396
     13395     13394     13397     13396     13394     13397     13394     13397     13398
     13394     13397     13399     13394     13397     13400     13398     13397     13399
     13398     13397     13400     13399     13397     13400     13397     13400     13401
     13397     13400     13402     13397     13400     13403     13401     13400     13402
     13401     13400     13403     13402     13400     13403     13400     13403     13404
     13400     13403     13405     13400     13403     13406     13404     13403     13405
     13404     13403     13406     13405     13403     13406     13403     13406     13407
     13403     13406     13408     13403     13406     13409     13407     13406     13408
     13407     13406     13409     13408     13406     13409     13406     13409     13410
     13406     13409     13411     13406     13409     13412     13410     13409     13411
     13410     13409     13412     13411     13409     13412     13409     13412     13413
     13409     13412     13414     13409     13412     13415     13413     13412     13414
     13413     13412     13415     13414     13412     13415     13412     13415     13416
     13412     13415     13417     13412     13415     13418     13416     13415     13417
     13416     13415     13418     13417     13415     13418     13415     13418     13419
     13415     13418     13420     13415     13418     13421     13419     13418     13420
     13419     13418     13421     13420     13418     13421     13418     13421     13422
     13418     13421     13423     13418     13421     13424     13422     13421     13423
     13422     13421     13424     13423     13421     13424     13421     13424     13425
     13421     13424     13426     13421     13424     13427     13425     13424     13426
     13425     13424     13427     13426     13424     13427     13424     13427     13428
     13424     13427     13429     13424     13427     13430     13428     13427     13429
     13428     13427     13430     13429     13427     13430     13427     13430     13431
     13427     13430     13432     13427     13430     13433     13431     13430     13432
     13431     13430     13433     13432     13430     13433     13435     13434     13436
     13435     13434     13437     13435     13434     13438     13436     13434     13437
     13436     13434     13438     13437     13434     13438     13434     13438     13439
     13434     13438     13440     13434     13438     13441     13439     13438     13440
     13439     13438     13441     13440     13438     13441     13438     13441     13442
     13438     13441     13443     13438     13441     13448     13442     13441     13443
     13442     13441     13448     13443     13441     13448     13445     13444     13446
     13445     13444     13447     13445     13444     13448     13446     13444     13447
     13446     13444     13448     13447     13444     13448     13444     13447     13449
     13441     13448     13444     13447     13449     13450     13447     13449     13451
     13447     13449     13452     13450     13449     13451     13450     13449     13452
     13451     13449     13452     13449     13452     13453     13449     13452     13454
     13449     13452     13460     13453     13452     13454     13453     13452     13460
     13454     13452     13460     13452     13454     13455     13454     13455     13456
     13454     13455     13457     13456     13455     13457     13455     13457     13458
     13455     13457     13459     13455     13457     13469     13458     13457     13459
     13458     13457     13469     13459     13457     13469     13452     13460     13461
     13452     13460     13462     13452     13460     13463     13461     13460     13462
     13461     13460     13463     13462     13460     13463     13460     13463     13464
     13463     13464     13465     13463     13464     13466     13465     13464     13466
     13464     13466     13467     13464     13466     13468     13464     13466     13513
     13467     13466     13468     13467     13466     13513     13468     13466     13513
     13457     13469     13470     13457     13469     13471     13457     13469     13472
     13470     13469     13471     13470     13469     13472     13471     13469     13472
     13469     13472     13473     13469     13472     13474     13469     13472     13475
     13473     13472     13474     13473     13472     13475     13474     13472     13475
     13472     13475     13476     13472     13475     13477     13472     13475     13478
     13476     13475     13477     13476     13475     13478     13477     13475     13478
     13475     13478     13479     13475     13478     13480     13475     13478     13481
     13479     13478     13480     13479     13478     13481     13480     13478     13481
     13478     13481     13482     13478     13481     13483     13478     13481     13484
     13482     13481     13483     13482     13481     13484     13483     13481     13484
     13481     13484     13485     13481     13484     13486     13481     13484     13487
     13485     13484     13486     13485     13484     13487     13486     13484     13487
     13484     13487     13488     13484     13487     13489     13484     13487     13492
     13488     13487     13489     13488     13487     13492     13489     13487     13492
     13487     13489     13490     13487     13489     13491     13487     13489     13492
     13490     13489     13491     13490     13489     13492     13491     13489     13492
     13487     13492     13489     13487     13492     13493     13487     13492     13494
     13489     13492     13493     13489     13492     13494     13493     13492     13494
     13492     13494     13495     13492     13494     13496     13492     13494     13497
     13495     13494     13496     13495     13494     13497     13496     13494     13497
     13494     13497     13498     13494     13497     13499     13494     13497     13500
     13498     13497     13499     13498     13497     13500     13499     13497     13500
     13497     13500     13501     13497     13500     13502     13497     13500     13503
     13501     13500     13502     13501     13500     13503     13502     13500     13503
     13500     13503     13504     13500     13503     13505     13500     13503     13506
     13504     13503     13505     13504     13503     13506     13505     13503     13506
     13503     13506     13507     13503     13506     13508     13503     13506     13509
     13507     13506     13508     13507     13506     13509     13508     13506     13509
     13506     13509     13510     13506     13509     13511     13506     13509     13512
     13510     13509     13511     13510     13509     13512     13511     13509     13512
     13466     13513     13514     13466     13513     13515     13466     13513     13516
     13514     13513     13515     13514     13513     13516     13515     13513     13516
     13513     13516     13517     13513     13516     13518     13513     13516     13519
     13517     13516     13518     13517     13516     13519     13518     13516     13519
     13516     13519     13520     13516     13519     13521     13516     13519     13522
     13520     13519     13521     13520     13519     13522     13521     13519     13522
     13519     13522     13523     13519     13522     13524     13519     13522     13525
     13523     13522     13524     13523     13522     13525     13524     13522     13525
     13522     13525     13526     13522     13525     13527     13522     13525     13528
     13526     13525     13527     13526     13525     13528     13527     13525     13528
     13525     13528     13529     13525     13528     13530     13525     13528     13531
     13529     13528     13530     13529     13528     13531     13530     13528     13531
     13528     13531     13532     13528     13531     13533     13528     13531     13534
     13532     13531     13533     13532     13531     13534     13533     13531     13534
     13531     13534     13535     13531     13534     13536     13531     13534     13537
     13535     13534     13536     13535     13534     13537     13536     13534     13537
     13534     13537     13538     13534     13537     13539     13534     13537     13540
     13538     13537     13539     13538     13537     13540     13539     13537     13540
     13537     13540     13541     13537     13540     13542     13537     13540     13543
     13541     13540     13542     13541     13540     13543     13542     13540     13543
     13540     13543     13544     13540     13543     13545     13540     13543     13546
     13544     13543     13545     13544     13543     13546     13545     13543     13546
     13543     13546     13547     13543     13546     13548     13543     13546     13549
     13547     13546     13548     13547     13546     13549     13548     13546     13549
     13546     13549     13550     13546     13549     13551     13546     13549     13552
     13550     13549     13551     13550     13549     13552     13551     13549     13552
     13549     13552     13553     13549     13552     13554     13549     13552     13555
     13553     13552     13554     13553     13552     13555     13554     13552     13555
     13557     13556     13558     13557     13556     13559     13557     13556     13560
     13558     13556     13559     13558     13556     13560     13559     13556     13560
     13556     13560     13561     13556     13560     13562     13556     13560     13563
     13561     13560     13562     13561     13560     13563     13562     13560     13563
     13560     13563     13564     13560     13563     13565     13560     13563     13570
     13564     13563     13565     13564     13563     13570     13565     13563     13570
     13567     13566     13568     13567     13566     13569     13567     13566     13570
     13568     13566     13569     13568     13566     13570     13569     13566     13570
     13566     13569     13571     13563     13570     13566     13569     13571     13572
     13569     13571     13573     13569     13571     13574     13572     13571     13573
     13572     13571     13574     13573     13571     13574     13571     13574     13575
     13571     13574     13576     13571     13574     13582     13575     13574     13576
     13575     13574     13582     13576     13574     13582     13574     13576     13577
     13576     13577     13578     13576     13577     13579     13578     13577     13579
     13577     13579     13580     13577     13579     13581     13577     13579     13591
     13580     13579     13581     13580     13579     13591     13581     13579     13591
     13574     13582     13583     13574     13582     13584     13574     13582     13585
     13583     13582     13584     13583     13582     13585     13584     13582     13585
     13582     13585     13586     13585     13586     13587     13585     13586     13588
     13587     13586     13588     13586     13588     13589     13586     13588     13590
     13586     13588     13635     13589     13588     13590     13589     13588     13635
     13590     13588     13635     13579     13591     13592     13579     13591     13593
     13579     13591     13594     13592     13591     13593     13592     13591     13594
     13593     13591     13594     13591     13594     13595     13591     13594     13596
     13591     13594     13597     13595     13594     13596     13595     13594     13597
     13596     13594     13597     13594     13597     13598     13594     13597     13599
     13594     13597     13600     13598     13597     13599     13598     13597     13600
     13599     13597     13600     13597     13600     13601     13597     13600     13602
     13597     13600     13603     13601     13600     13602     13601     13600     13603
     13602     13600     13603     13600     13603     13604     13600     13603     13605
     13600     13603     13606     13604     13603     13605     13604     13603     13606
     13605     13603     13606     13603     13606     13607     13603     13606     13608
     13603     13606     13609     13607     13606     13608     13607     13606     13609
     13608     13606     13609     13606     13609     13610     13606     13609     13611
     13606     13609     13614     13610     13609     13611     13610     13609     13614
     13611     13609     13614     13609     13611     13612     13609     13611     13613
     13609     13611     13614     13612     13611     13613     13612     13611     13614
     13613     13611     13614     13609     13614     13611     13609     13614     13615
     13609     13614     13616     13611     13614     13615     13611     13614     13616
     13615     13614     13616     13614     13616     13617     13614     13616     13618
     13614     13616     13619     13617     13616     13618     13617     13616     13619
     13618     13616     13619     13616     13619     13620     13616     13619     13621
     13616     13619     13622     13620     13619     13621     13620     13619     13622
     13621     13619     13622     13619     13622     13623     13619     13622     13624
     13619     13622     13625     13623     13622     13624     13623     13622     13625
     13624     13622     13625     13622     13625     13626     13622     13625     13627
     13622     13625     13628     13626     13625     13627     13626     13625     13628
     13627     13625     13628     13625     13628     13629     13625     13628     13630
     13625     13628     13631     13629     13628     13630     13629     13628     13631
     13630     13628     13631     13628     13631     13632     13628     13631     13633
     13628     13631     13634     13632     13631     13633     13632     13631     13634
     13633     13631     13634     13588     13635     13636     13588     13635     13637
     13588     13635     13638     13636     13635     13637     13636     13635     13638
     13637     13635     13638     13635     13638     13639     13635     13638     13640
     13635     13638     13641     13639     13638     13640     13639     13638     13641
     13640     13638     13641     13638     13641     13642     13638     13641     13643
     13638     13641     13644     13642     13641     13643     13642     13641     13644
     13643     13641     13644     13641     13644     13645     13641     13644     13646
     13641     13644     13647     13645     13644     13646     13645     13644     13647
     13646     13644     13647     13644     13647     13648     13644     13647     13649
     13644     13647     13650     13648     13647     13649     13648     13647     13650
     13649     13647     13650     13647     13650     13651     13647     13650     13652
     13647     13650     13653     13651     13650     13652     13651     13650     13653
     13652     13650     13653     13650     13653     13654     13650     13653     13655
     13650     13653     13656     13654     13653     13655     13654     13653     13656
     13655     13653     13656     13653     13656     13657     13653     13656     13658
     13653     13656     13659     13657     13656     13658     13657     13656     13659
     13658     13656     13659     13656     13659     13660     13656     13659     13661
     13656     13659     13662     13660     13659     13661     13660     13659     13662
     13661     13659     13662     13659     13662     13663     13659     13662     13664
     13659     13662     13665     13663     13662     13664     13663     13662     13665
     13664     13662     13665     13662     13665     13666     13662     13665     13667
     13662     13665     13668     13666     13665     13667     13666     13665     13668
     13667     13665     13668     13665     13668     13669     13665     13668     13670
     13665     13668     13671     13669     13668     13670     13669     13668     13671
     13670     13668     13671     13668     13671     13672     13668     13671     13673
     13668     13671     13674     13672     13671     13673     13672     13671     13674
     13673     13671     13674     13671     13674     13675     13671     13674     13676
     13671     13674     13677     13675     13674     13676     13675     13674     13677
     13676     13674     13677     13679     13678     13680     13679     13678     13681
     13679     13678     13682     13680     13678     13681     13680     13678     13682
     13681     13678     13682     13678     13682     13683     13678     13682     13684
     13678     13682     13685     13683     13682     13684     13683     13682     13685
     13684     13682     13685     13682     13685     13686     13682     13685     13687
     13682     13685     13692     13686     13685     13687     13686     13685     13692
     13687     13685     13692     13689     13688     13690     13689     13688     13691
     13689     13688     13692     13690     13688     13691     13690     13688     13692
     13691     13688     13692     13688     13691     13693     13685     13692     13688
     13691     13693     13694     13691     13693     13695     13691     13693     13696
     13694     13693     13695     13694     13693     13696     13695     13693     13696
     13693     13696     13697     13693     13696     13698     13693     13696     13704
     13697     13696     13698     13697     13696     13704     13698     13696     13704
     13696     13698     13699     13698     13699     13700     13698     13699     13701
     13700     13699     13701     13699     13701     13702     13699     13701     13703
     13699     13701     13713     13702     13701     13703     13702     13701     13713
     13703     13701     13713     13696     13704     13705     13696     13704     13706
     13696     13704     13707     13705     13704     13706     13705     13704     13707
     13706     13704     13707     13704     13707     13708     13707     13708     13709
     13707     13708     13710     13709     13708     13710     13708     13710     13711
     13708     13710     13712     13708     13710     13757     13711     13710     13712
     13711     13710     13757     13712     13710     13757     13701     13713     13714
     13701     13713     13715     13701     13713     13716     13714     13713     13715
     13714     13713     13716     13715     13713     13716     13713     13716     13717
     13713     13716     13718     13713     13716     13719     13717     13716     13718
     13717     13716     13719     13718     13716     13719     13716     13719     13720
     13716     13719     13721     13716     13719     13722     13720     13719     13721
     13720     13719     13722     13721     13719     13722     13719     13722     13723
     13719     13722     13724     13719     13722     13725     13723     13722     13724
     13723     13722     13725     13724     13722     13725     13722     13725     13726
     13722     13725     13727     13722     13725     13728     13726     13725     13727
     13726     13725     13728     13727     13725     13728     13725     13728     13729
     13725     13728     13730     13725     13728     13731     13729     13728     13730
     13729     13728     13731     13730     13728     13731     13728     13731     13732
     13728     13731     13733     13728     13731     13736     13732     13731     13733
     13732     13731     13736     13733     13731     13736     13731     13733     13734
     13731     13733     13735     13731     13733     13736     13734     13733     13735
     13734     13733     13736     13735     13733     13736     13731     13736     13733
     13731     13736     13737     13731     13736     13738     13733     13736     13737
     13733     13736     13738     13737     13736     13738     13736     13738     13739
     13736     13738     13740     13736     13738     13741     13739     13738     13740
     13739     13738     13741     13740     13738     13741     13738     13741     13742
     13738     13741     13743     13738     13741     13744     13742     13741     13743
     13742     13741     13744     13743     13741     13744     13741     13744     13745
     13741     13744     13746     13741     13744     13747     13745     13744     13746
     13745     13744     13747     13746     13744     13747     13744     13747     13748
     13744     13747     13749     13744     13747     13750     13748     13747     13749
     13748     13747     13750     13749     13747     13750     13747     13750     13751
     13747     13750     13752     13747     13750     13753     13751     13750     13752
     13751     13750     13753     13752     13750     13753     13750     13753     13754
     13750     13753     13755     13750     13753     13756     13754     13753     13755
     13754     13753     13756     13755     13753     13756     13710     13757     13758
     13710     13757     13759     13710     13757     13760     13758     13757     13759
     13758     13757     13760     13759     13757     13760     13757     13760     13761
     13757     13760     13762     13757     13760     13763     13761     13760     13762
     13761     13760     13763     13762     13760     13763     13760     13763     13764
     13760     13763     13765     13760     13763     13766     13764     13763     13765
     13764     13763     13766     13765     13763     13766     13763     13766     13767
     13763     13766     13768     13763     13766     13769     13767     13766     13768
     13767     13766     13769     13768     13766     13769     13766     13769     13770
     13766     13769     13771     13766     13769     13772     13770     13769     13771
     13770     13769     13772     13771     13769     13772     13769     13772     13773
     13769     13772     13774     13769     13772     13775     13773     13772     13774
     13773     13772     13775     13774     13772     13775     13772     13775     13776
     13772     13775     13777     13772     13775     13778     13776     13775     13777
     13776     13775     13778     13777     13775     13778     13775     13778     13779
     13775     13778     13780     13775     13778     13781     13779     13778     13780
     13779     13778     13781     13780     13778     13781     13778     13781     13782
     13778     13781     13783     13778     13781     13784     13782     13781     13783
     13782     13781     13784     13783     13781     13784     13781     13784     13785
     13781     13784     13786     13781     13784     13787     13785     13784     13786
     13785     13784     13787     13786     13784     13787     13784     13787     13788
     13784     13787     13789     13784     13787     13790     13788     13787     13789
     13788     13787     13790     13789     13787     13790     13787     13790     13791
     13787     13790     13792     13787     13790     13793     13791     13790     13792
     13791     13790     13793     13792     13790     13793     13790     13793     13794
     13790     13793     13795     13790     13793     13796     13794     13793     13795
     13794     13793     13796     13795     13793     13796     13793     13796     13797
     13793     13796     13798     13793     13796     13799     13797     13796     13798
     13797     13796     13799     13798     13796     13799     13801     13800     13802
     13801     13800     13803     13801     13800     13804     13802     13800     13803
     13802     13800     13804     13803     13800     13804     13800     13804     13805
     13800     13804     13806     13800     13804     13807     13805     13804     13806
     13805     13804     13807     13806     13804     13807     13804     13807     13808
     13804     13807     13809     13804     13807     13814     13808     13807     13809
     13808     13807     13814     13809     13807     13814     13811     13810     13812
     13811     13810     13813     13811     13810     13814     13812     13810     13813
     13812     13810     13814     13813     13810     13814     13810     13813     13815
     13807     13814     13810     13813     13815     13816     13813     13815     13817
     13813     13815     13818     13816     13815     13817     13816     13815     13818
     13817     13815     13818     13815     13818     13819     13815     13818     13820
     13815     13818     13826     13819     13818     13820     13819     13818     13826
     13820     13818     13826     13818     13820     13821     13820     13821     13822
     13820     13821     13823     13822     13821     13823     13821     13823     13824
     13821     13823     13825     13821     13823     13835     13824     13823     13825
     13824     13823     13835     13825     13823     13835     13818     13826     13827
     13818     13826     13828     13818     13826     13829     13827     13826     13828
     13827     13826     13829     13828     13826     13829     13826     13829     13830
     13829     13830     13831     13829     13830     13832     13831     13830     13832
     13830     13832     13833     13830     13832     13834     13830     13832     13879
     13833     13832     13834     13833     13832     13879     13834     13832     13879
     13823     13835     13836     13823     13835     13837     13823     13835     13838
     13836     13835     13837     13836     13835     13838     13837     13835     13838
     13835     13838     13839     13835     13838     13840     13835     13838     13841
     13839     13838     13840     13839     13838     13841     13840     13838     13841
     13838     13841     13842     13838     13841     13843     13838     13841     13844
     13842     13841     13843     13842     13841     13844     13843     13841     13844
     13841     13844     13845     13841     13844     13846     13841     13844     13847
     13845     13844     13846     13845     13844     13847     13846     13844     13847
     13844     13847     13848     13844     13847     13849     13844     13847     13850
     13848     13847     13849     13848     13847     13850     13849     13847     13850
     13847     13850     13851     13847     13850     13852     13847     13850     13853
     13851     13850     13852     13851     13850     13853     13852     13850     13853
     13850     13853     13854     13850     13853     13855     13850     13853     13858
     13854     13853     13855     13854     13853     13858     13855     13853     13858
     13853     13855     13856     13853     13855     13857     13853     13855     13858
     13856     13855     13857     13856     13855     13858     13857     13855     13858
     13853     13858     13855     13853     13858     13859     13853     13858     13860
     13855     13858     13859     13855     13858     13860     13859     13858     13860
     13858     13860     13861     13858     13860     13862     13858     13860     13863
     13861     13860     13862     13861     13860     13863     13862     13860     13863
     13860     13863     13864     13860     13863     13865     13860     13863     13866
     13864     13863     13865     13864     13863     13866     13865     13863     13866
     13863     13866     13867     13863     13866     13868     13863     13866     13869
     13867     13866     13868     13867     13866     13869     13868     13866     13869
     13866     13869     13870     13866     13869     13871     13866     13869     13872
     13870     13869     13871     13870     13869     13872     13871     13869     13872
     13869     13872     13873     13869     13872     13874     13869     13872     13875
     13873     13872     13874     13873     13872     13875     13874     13872     13875
     13872     13875     13876     13872     13875     13877     13872     13875     13878
     13876     13875     13877     13876     13875     13878     13877     13875     13878
     13832     13879     13880     13832     13879     13881     13832     13879     13882
     13880     13879     13881     13880     13879     13882     13881     13879     13882
     13879     13882     13883     13879     13882     13884     13879     13882     13885
     13883     13882     13884     13883     13882     13885     13884     13882     13885
     13882     13885     13886     13882     13885     13887     13882     13885     13888
     13886     13885     13887     13886     13885     13888     13887     13885     13888
     13885     13888     13889     13885     13888     13890     13885     13888     13891
     13889     13888     13890     13889     13888     13891     13890     13888     13891
     13888     13891     13892     13888     13891     13893     13888     13891     13894
     13892     13891     13893     13892     13891     13894     13893     13891     13894
     13891     13894     13895     13891     13894     13896     13891     13894     13897
     13895     13894     13896     13895     13894     13897     13896     13894     13897
     13894     13897     13898     13894     13897     13899     13894     13897     13900
     13898     13897     13899     13898     13897     13900     13899     13897     13900
     13897     13900     13901     13897     13900     13902     13897     13900     13903
     13901     13900     13902     13901     13900     13903     13902     13900     13903
     13900     13903     13904     13900     13903     13905     13900     13903     13906
     13904     13903     13905     13904     13903     13906     13905     13903     13906
     13903     13906     13907     13903     13906     13908     13903     13906     13909
     13907     13906     13908     13907     13906     13909     13908     13906     13909
     13906     13909     13910     13906     13909     13911     13906     13909     13912
     13910     13909     13911     13910     13909     13912     13911     13909     13912
     13909     13912     13913     13909     13912     13914     13909     13912     13915
     13913     13912     13914     13913     13912     13915     13914     13912     13915
     13912     13915     13916     13912     13915     13917     13912     13915     13918
     13916     13915     13917     13916     13915     13918     13917     13915     13918
     13920     13919     13921     13920     13919     13922     13920     13919     13924
     13921     13919     13922     13921     13919     13924     13922     13919     13924
     13919     13922     13923     13919     13924     13925     13919     13924     13926
     13919     13924     13928     13925     13924     13926     13925     13924     13928
     13926     13924     13928     13924     13926     13927     13924     13928     13929
     13924     13928     13930     13924     13928     13935     13929     13928     13930
     13929     13928     13935     13930     13928     13935     13932     13931     13933
     13932     13931     13934     13932     13931     13935     13933     13931     13934
     13933     13931     13935     13934     13931     13935     13931     13934     13936
     13928     13935     13931     13934     13936     13937     13934     13936     13938
     13934     13936     13939     13937     13936     13938     13937     13936     13939
     13938     13936     13939     13936     13939     13940     13936     13939     13941
     13936     13939     13947     13940     13939     13941     13940     13939     13947
     13941     13939     13947     13939     13941     13942     13941     13942     13943
     13941     13942     13944     13943     13942     13944     13942     13944     13945
     13942     13944     13946     13942     13944     13956     13945     13944     13946
     13945     13944     13956     13946     13944     13956     13939     13947     13948
     13939     13947     13949     13939     13947     13950     13948     13947     13949
     13948     13947     13950     13949     13947     13950     13947     13950     13951
     13950     13951     13952     13950     13951     13953     13952     13951     13953
     13951     13953     13954     13951     13953     13955     13951     13953     14000
     13954     13953     13955     13954     13953     14000     13955     13953     14000
     13944     13956     13957     13944     13956     13958     13944     13956     13959
     13957     13956     13958     13957     13956     13959     13958     13956     13959
     13956     13959     13960     13956     13959     13961     13956     13959     13962
     13960     13959     13961     13960     13959     13962     13961     13959     13962
     13959     13962     13963     13959     13962     13964     13959     13962     13965
     13963     13962     13964     13963     13962     13965     13964     13962     13965
     13962     13965     13966     13962     13965     13967     13962     13965     13968
     13966     13965     13967     13966     13965     13968     13967     13965     13968
     13965     13968     13969     13965     13968     13970     13965     13968     13971
     13969     13968     13970     13969     13968     13971     13970     13968     13971
     13968     13971     13972     13968     13971     13973     13968     13971     13974
     13972     13971     13973     13972     13971     13974     13973     13971     13974
     13971     13974     13975     13971     13974     13976     13971     13974     13979
     13975     13974     13976     13975     13974     13979     13976     13974     13979
     13974     13976     13977     13974     13976     13978     13974     13976     13979
     13977     13976     13978     13977     13976     13979     13978     13976     13979
     13974     13979     13976     13974     13979     13980     13974     13979     13981
     13976     13979     13980     13976     13979     13981     13980     13979     13981
     13979     13981     13982     13979     13981     13983     13979     13981     13984
     13982     13981     13983     13982     13981     13984     13983     13981     13984
     13981     13984     13985     13981     13984     13986     13981     13984     13987
     13985     13984     13986     13985     13984     13987     13986     13984     13987
     13984     13987     13988     13984     13987     13989     13984     13987     13990
     13988     13987     13989     13988     13987     13990     13989     13987     13990
     13987     13990     13991     13987     13990     13992     13987     13990     13993
     13991     13990     13992     13991     13990     13993     13992     13990     13993
     13990     13993     13994     13990     13993     13995     13990     13993     13996
     13994     13993     13995     13994     13993     13996     13995     13993     13996
     13993     13996     13997     13993     13996     13998     13993     13996     13999
     13997     13996     13998     13997     13996     13999     13998     13996     13999
     13953     14000     14001     13953     14000     14002     13953     14000     14003
     14001     14000     14002     14001     14000     14003     14002     14000     14003
     14000     14003     14004     14000     14003     14005     14000     14003     14006
     14004     14003     14005     14004     14003     14006     14005     14003     14006
     14003     14006     14007     14003     14006     14008     14003     14006     14009
     14007     14006     14008     14007     14006     14009     14008     14006     14009
     14006     14009     14010     14006     14009     14011     14006     14009     14012
     14010     14009     14011     14010     14009     14012     14011     14009     14012
     14009     14012     14013     14009     14012     14014     14009     14012     14015
     14013     14012     14014     14013     14012     14015     14014     14012     14015
     14012     14015     14016     14012     14015     14017     14012     14015     14018
     14016     14015     14017     14016     14015     14018     14017     14015     14018
     14015     14018     14019     14015     14018     14020     14015     14018     14021
     14019     14018     14020     14019     14018     14021     14020     14018     14021
     14018     14021     14022     14018     14021     14023     14018     14021     14024
     14022     14021     14023     14022     14021     14024     14023     14021     14024
     14021     14024     14025     14021     14024     14026     14021     14024     14027
     14025     14024     14026     14025     14024     14027     14026     14024     14027
     14024     14027     14028     14024     14027     14029     14024     14027     14030
     14028     14027     14029     14028     14027     14030     14029     14027     14030
     14027     14030     14031     14027     14030     14032     14027     14030     14033
     14031     14030     14032     14031     14030     14033     14032     14030     14033
     14030     14033     14034     14030     14033     14035     14030     14033     14036
     14034     14033     14035     14034     14033     14036     14035     14033     14036
     14033     14036     14037     14033     14036     14038     14033     14036     14039
     14037     14036     14038     14037     14036     14039     14038     14036     14039
     14036     14039     14040     14036     14039     14041     14036     14039     14042
     14040     14039     14041     14040     14039     14042     14041     14039     14042
     14044     14043     14045     14044     14043     14046     14044     14043     14047
     14045     14043     14046     14045     14043     14047     14046     14043     14047
     14043     14047     14048     14043     14047     14049     14043     14047     14050
     14048     14047     14049     14048     14047     14050     14049     14047     14050
     14047     14050     14051     14047     14050     14052     14047     14050     14057
     14051     14050     14052     14051     14050     14057     14052     14050     14057
     14054     14053     14055     14054     14053     14056     14054     14053     14057
     14055     14053     14056     14055     14053     14057     14056     14053     14057
     14053     14056     14058     14050     14057     14053     14056     14058     14059
     14056     14058     14060     14056     14058     14061     14059     14058     14060
     14059     14058     14061     14060     14058     14061     14058     14061     14062
     14058     14061     14063     14058     14061     14069     14062     14061     14063
     14062     14061     14069     14063     14061     14069     14061     14063     14064
     14063     14064     14065     14063     14064     14066     14065     14064     14066
     14064     14066     14067     14064     14066     14068     14064     14066     14078
     14067     14066     14068     14067     14066     14078     14068     14066     14078
     14061     14069     14070     14061     14069     14071     14061     14069     14072
     14070     14069     14071     14070     14069     14072     14071     14069     14072
     14069     14072     14073     14072     14073     14074     14072     14073     14075
     14074     14073     14075     14073     14075     14076     14073     14075     14077
     14073     14075     14125     14076     14075     14077     14076     14075     14125
     14077     14075     14125     14066     14078     14079     14066     14078     14080
     14066     14078     14081     14079     14078     14080     14079     14078     14081
     14080     14078     14081     14078     14081     14082     14078     14081     14083
     14078     14081     14084     14082     14081     14083     14082     14081     14084
     14083     14081     14084     14081     14084     14085     14081     14084     14086
     14081     14084     14087     14085     14084     14086     14085     14084     14087
     14086     14084     14087     14084     14087     14088     14084     14087     14089
     14084     14087     14090     14088     14087     14089     14088     14087     14090
     14089     14087     14090     14087     14090     14091     14087     14090     14092
     14087     14090     14093     14091     14090     14092     14091     14090     14093
     14092     14090     14093     14090     14093     14094     14090     14093     14095
     14090     14093     14096     14094     14093     14095     14094     14093     14096
     14095     14093     14096     14093     14096     14097     14093     14096     14098
     14097     14096     14098     14096     14098     14099     14096     14098     14100
     14099     14098     14100     14098     14100     14101     14098     14100     14102
     14098     14100     14103     14101     14100     14102     14101     14100     14103
     14102     14100     14103     14100     14103     14104     14100     14103     14105
     14100     14103     14106     14104     14103     14105     14104     14103     14106
     14105     14103     14106     14103     14106     14107     14103     14106     14108
     14103     14106     14109     14107     14106     14108     14107     14106     14109
     14108     14106     14109     14106     14109     14110     14106     14109     14111
     14106     14109     14112     14110     14109     14111     14110     14109     14112
     14111     14109     14112     14109     14112     14113     14109     14112     14114
     14109     14112     14115     14113     14112     14114     14113     14112     14115
     14114     14112     14115     14112     14115     14116     14112     14115     14117
     14112     14115     14118     14116     14115     14117     14116     14115     14118
     14117     14115     14118     14115     14118     14119     14115     14118     14120
     14115     14118     14121     14119     14118     14120     14119     14118     14121
     14120     14118     14121     14118     14121     14122     14118     14121     14123
     14118     14121     14124     14122     14121     14123     14122     14121     14124
     14123     14121     14124     14075     14125     14126     14075     14125     14127
     14075     14125     14128     14126     14125     14127     14126     14125     14128
     14127     14125     14128     14125     14128     14129     14125     14128     14130
     14125     14128     14131     14129     14128     14130     14129     14128     14131
     14130     14128     14131     14128     14131     14132     14128     14131     14133
     14128     14131     14134     14132     14131     14133     14132     14131     14134
     14133     14131     14134     14131     14134     14135     14131     14134     14136
     14131     14134     14137     14135     14134     14136     14135     14134     14137
     14136     14134     14137     14134     14137     14138     14134     14137     14139
     14134     14137     14140     14138     14137     14139     14138     14137     14140
     14139     14137     14140     14137     14140     14141     14137     14140     14142
     14137     14140     14143     14141     14140     14142     14141     14140     14143
     14142     14140     14143     14140     14143     14144     14140     14143     14145
     14140     14143     14146     14144     14143     14145     14144     14143     14146
     14145     14143     14146     14143     14146     14147     14143     14146     14148
     14143     14146     14149     14147     14146     14148     14147     14146     14149
     14148     14146     14149     14146     14149     14150     14146     14149     14151
     14146     14149     14152     14150     14149     14151     14150     14149     14152
     14151     14149     14152     14149     14152     14153     14149     14152     14154
     14149     14152     14155     14153     14152     14154     14153     14152     14155
     14154     14152     14155     14152     14155     14156     14152     14155     14157
     14152     14155     14158     14156     14155     14157     14156     14155     14158
     14157     14155     14158     14155     14158     14159     14155     14158     14160
     14155     14158     14161     14159     14158     14160     14159     14158     14161
     14160     14158     14161     14158     14161     14162     14158     14161     14163
     14158     14161     14164     14162     14161     14163     14162     14161     14164
     14163     14161     14164     14161     14164     14165     14161     14164     14166
     14161     14164     14167     14165     14164     14166     14165     14164     14167
     14166     14164     14167     14169     14168     14170     14169     14168     14171
     14169     14168     14172     14170     14168     14171     14170     14168     14172
     14171     14168     14172     14168     14172     14173     14168     14172     14174
     14168     14172     14175     14173     14172     14174     14173     14172     14175
     14174     14172     14175     14172     14175     14176     14172     14175     14177
     14172     14175     14182     14176     14175     14177     14176     14175     14182
     14177     14175     14182     14179     14178     14180     14179     14178     14181
     14179     14178     14182     14180     14178     14181     14180     14178     14182
     14181     14178     14182     14178     14181     14183     14175     14182     14178
     14181     14183     14184     14181     14183     14185     14181     14183     14186
     14184     14183     14185     14184     14183     14186     14185     14183     14186
     14183     14186     14187     14183     14186     14188     14183     14186     14194
     14187     14186     14188     14187     14186     14194     14188     14186     14194
     14186     14188     14189     14188     14189     14190     14188     14189     14191
     14190     14189     14191     14189     14191     14192     14189     14191     14193
     14189     14191     14203     14192     14191     14193     14192     14191     14203
     14193     14191     14203     14186     14194     14195     14186     14194     14196
     14186     14194     14197     14195     14194     14196     14195     14194     14197
     14196     14194     14197     14194     14197     14198     14197     14198     14199
     14197     14198     14200     14199     14198     14200     14198     14200     14201
     14198     14200     14202     14198     14200     14247     14201     14200     14202
     14201     14200     14247     14202     14200     14247     14191     14203     14204
     14191     14203     14205     14191     14203     14206     14204     14203     14205
     14204     14203     14206     14205     14203     14206     14203     14206     14207
     14203     14206     14208     14203     14206     14209     14207     14206     14208
     14207     14206     14209     14208     14206     14209     14206     14209     14210
     14206     14209     14211     14206     14209     14212     14210     14209     14211
     14210     14209     14212     14211     14209     14212     14209     14212     14213
     14209     14212     14214     14209     14212     14215     14213     14212     14214
     14213     14212     14215     14214     14212     14215     14212     14215     14216
     14212     14215     14217     14212     14215     14218     14216     14215     14217
     14216     14215     14218     14217     14215     14218     14215     14218     14219
     14215     14218     14220     14215     14218     14221     14219     14218     14220
     14219     14218     14221     14220     14218     14221     14218     14221     14222
     14218     14221     14223     14218     14221     14226     14222     14221     14223
     14222     14221     14226     14223     14221     14226     14221     14223     14224
     14221     14223     14225     14221     14223     14226     14224     14223     14225
     14224     14223     14226     14225     14223     14226     14221     14226     14223
     14221     14226     14227     14221     14226     14228     14223     14226     14227
     14223     14226     14228     14227     14226     14228     14226     14228     14229
     14226     14228     14230     14226     14228     14231     14229     14228     14230
     14229     14228     14231     14230     14228     14231     14228     14231     14232
     14228     14231     14233     14228     14231     14234     14232     14231     14233
     14232     14231     14234     14233     14231     14234     14231     14234     14235
     14231     14234     14236     14231     14234     14237     14235     14234     14236
     14235     14234     14237     14236     14234     14237     14234     14237     14238
     14234     14237     14239     14234     14237     14240     14238     14237     14239
     14238     14237     14240     14239     14237     14240     14237     14240     14241
     14237     14240     14242     14237     14240     14243     14241     14240     14242
     14241     14240     14243     14242     14240     14243     14240     14243     14244
     14240     14243     14245     14240     14243     14246     14244     14243     14245
     14244     14243     14246     14245     14243     14246     14200     14247     14248
     14200     14247     14249     14200     14247     14250     14248     14247     14249
     14248     14247     14250     14249     14247     14250     14247     14250     14251
     14247     14250     14252     14247     14250     14253     14251     14250     14252
     14251     14250     14253     14252     14250     14253     14250     14253     14254
     14250     14253     14255     14250     14253     14256     14254     14253     14255
     14254     14253     14256     14255     14253     14256     14253     14256     14257
     14253     14256     14258     14253     14256     14259     14257     14256     14258
     14257     14256     14259     14258     14256     14259     14256     14259     14260
     14256     14259     14261     14256     14259     14262     14260     14259     14261
     14260     14259     14262     14261     14259     14262     14259     14262     14263
     14259     14262     14264     14259     14262     14265     14263     14262     14264
     14263     14262     14265     14264     14262     14265     14262     14265     14266
     14262     14265     14267     14262     14265     14268     14266     14265     14267
     14266     14265     14268     14267     14265     14268     14265     14268     14269
     14265     14268     14270     14265     14268     14271     14269     14268     14270
     14269     14268     14271     14270     14268     14271     14268     14271     14272
     14268     14271     14273     14268     14271     14274     14272     14271     14273
     14272     14271     14274     14273     14271     14274     14271     14274     14275
     14271     14274     14276     14271     14274     14277     14275     14274     14276
     14275     14274     14277     14276     14274     14277     14274     14277     14278
     14274     14277     14279     14274     14277     14280     14278     14277     14279
     14278     14277     14280     14279     14277     14280     14277     14280     14281
     14277     14280     14282     14277     14280     14283     14281     14280     14282
     14281     14280     14283     14282     14280     14283     14280     14283     14284
     14280     14283     14285     14280     14283     14286     14284     14283     14285
     14284     14283     14286     14285     14283     14286     14283     14286     14287
     14283     14286     14288     14283     14286     14289     14287     14286     14288
     14287     14286     14289     14288     14286     14289     14291     14290     14292
     14291     14290     14293     14291     14290     14294     14292     14290     14293
     14292     14290     14294     14293     14290     14294     14290     14294     14295
     14290     14294     14296     14290     14294     14297     14295     14294     14296
     14295     14294     14297     14296     14294     14297     14294     14297     14298
     14294     14297     14299     14294     14297     14304     14298     14297     14299
     14298     14297     14304     14299     14297     14304     14301     14300     14302
     14301     14300     14303     14301     14300     14304     14302     14300     14303
     14302     14300     14304     14303     14300     14304     14300     14303     14305
     14297     14304     14300     14303     14305     14306     14303     14305     14307
     14303     14305     14308     14306     14305     14307     14306     14305     14308
     14307     14305     14308     14305     14308     14309     14305     14308     14310
     14305     14308     14316     14309     14308     14310     14309     14308     14316
     14310     14308     14316     14308     14310     14311     14310     14311     14312
     14310     14311     14313     14312     14311     14313     14311     14313     14314
     14311     14313     14315     14311     14313     14325     14314     14313     14315
     14314     14313     14325     14315     14313     14325     14308     14316     14317
     14308     14316     14318     14308     14316     14319     14317     14316     14318
     14317     14316     14319     14318     14316     14319     14316     14319     14320
     14319     14320     14321     14319     14320     14322     14321     14320     14322
     14320     14322     14323     14320     14322     14324     14320     14322     14372
     14323     14322     14324     14323     14322     14372     14324     14322     14372
     14313     14325     14326     14313     14325     14327     14313     14325     14328
     14326     14325     14327     14326     14325     14328     14327     14325     14328
     14325     14328     14329     14325     14328     14330     14325     14328     14331
     14329     14328     14330     14329     14328     14331     14330     14328     14331
     14328     14331     14332     14328     14331     14333     14328     14331     14334
     14332     14331     14333     14332     14331     14334     14333     14331     14334
     14331     14334     14335     14331     14334     14336     14331     14334     14337
     14335     14334     14336     14335     14334     14337     14336     14334     14337
     14334     14337     14338     14334     14337     14339     14334     14337     14340
     14338     14337     14339     14338     14337     14340     14339     14337     14340
     14337     14340     14341     14337     14340     14342     14337     14340     14343
     14341     14340     14342     14341     14340     14343     14342     14340     14343
     14340     14343     14344     14340     14343     14345     14344     14343     14345
     14343     14345     14346     14343     14345     14347     14346     14345     14347
     14345     14347     14348     14345     14347     14349     14345     14347     14350
     14348     14347     14349     14348     14347     14350     14349     14347     14350
     14347     14350     14351     14347     14350     14352     14347     14350     14353
     14351     14350     14352     14351     14350     14353     14352     14350     14353
     14350     14353     14354     14350     14353     14355     14350     14353     14356
     14354     14353     14355     14354     14353     14356     14355     14353     14356
     14353     14356     14357     14353     14356     14358     14353     14356     14359
     14357     14356     14358     14357     14356     14359     14358     14356     14359
     14356     14359     14360     14356     14359     14361     14356     14359     14362
     14360     14359     14361     14360     14359     14362     14361     14359     14362
     14359     14362     14363     14359     14362     14364     14359     14362     14365
     14363     14362     14364     14363     14362     14365     14364     14362     14365
     14362     14365     14366     14362     14365     14367     14362     14365     14368
     14366     14365     14367     14366     14365     14368     14367     14365     14368
     14365     14368     14369     14365     14368     14370     14365     14368     14371
     14369     14368     14370     14369     14368     14371     14370     14368     14371
     14322     14372     14373     14322     14372     14374     14322     14372     14375
     14373     14372     14374     14373     14372     14375     14374     14372     14375
     14372     14375     14376     14372     14375     14377     14372     14375     14378
     14376     14375     14377     14376     14375     14378     14377     14375     14378
     14375     14378     14379     14375     14378     14380     14375     14378     14381
     14379     14378     14380     14379     14378     14381     14380     14378     14381
     14378     14381     14382     14378     14381     14383     14378     14381     14384
     14382     14381     14383     14382     14381     14384     14383     14381     14384
     14381     14384     14385     14381     14384     14386     14381     14384     14387
     14385     14384     14386     14385     14384     14387     14386     14384     14387
     14384     14387     14388     14384     14387     14389     14384     14387     14390
     14388     14387     14389     14388     14387     14390     14389     14387     14390
     14387     14390     14391     14387     14390     14392     14387     14390     14393
     14391     14390     14392     14391     14390     14393     14392     14390     14393
     14390     14393     14394     14390     14393     14395     14390     14393     14396
     14394     14393     14395     14394     14393     14396     14395     14393     14396
     14393     14396     14397     14393     14396     14398     14393     14396     14399
     14397     14396     14398     14397     14396     14399     14398     14396     14399
     14396     14399     14400     14396     14399     14401     14396     14399     14402
     14400     14399     14401     14400     14399     14402     14401     14399     14402
     14399     14402     14403     14399     14402     14404     14399     14402     14405
     14403     14402     14404     14403     14402     14405     14404     14402     14405
     14402     14405     14406     14402     14405     14407     14402     14405     14408
     14406     14405     14407     14406     14405     14408     14407     14405     14408
     14405     14408     14409     14405     14408     14410     14405     14408     14411
     14409     14408     14410     14409     14408     14411     14410     14408     14411
     14408     14411     14412     14408     14411     14413     14408     14411     14414
     14412     14411     14413     14412     14411     14414     14413     14411     14414
     14416     14415     14417     14416     14415     14418     14416     14415     14420
     14417     14415     14418     14417     14415     14420     14418     14415     14420
     14415     14418     14419     14415     14420     14421     14415     14420     14422
     14415     14420     14424     14421     14420     14422     14421     14420     14424
     14422     14420     14424     14420     14422     14423     14420     14424     14425
     14420     14424     14426     14420     14424     14431     14425     14424     14426
     14425     14424     14431     14426     14424     14431     14428     14427     14429
     14428     14427     14430     14428     14427     14431     14429     14427     14430
     14429     14427     14431     14430     14427     14431     14427     14430     14432
     14424     14431     14427     14430     14432     14433     14430     14432     14434
     14430     14432     14435     14433     14432     14434     14433     14432     14435
     14434     14432     14435     14432     14435     14436     14432     14435     14437
     14432     14435     14443     14436     14435     14437     14436     14435     14443
     14437     14435     14443     14435     14437     14438     14437     14438     14439
     14437     14438     14440     14439     14438     14440     14438     14440     14441
     14438     14440     14442     14438     14440     14452     14441     14440     14442
     14441     14440     14452     14442     14440     14452     14435     14443     14444
     14435     14443     14445     14435     14443     14446     14444     14443     14445
     14444     14443     14446     14445     14443     14446     14443     14446     14447
     14446     14447     14448     14446     14447     14449     14448     14447     14449
     14447     14449     14450     14447     14449     14451     14447     14449     14496
     14450     14449     14451     14450     14449     14496     14451     14449     14496
     14440     14452     14453     14440     14452     14454     14440     14452     14455
     14453     14452     14454     14453     14452     14455     14454     14452     14455
     14452     14455     14456     14452     14455     14457     14452     14455     14458
     14456     14455     14457     14456     14455     14458     14457     14455     14458
     14455     14458     14459     14455     14458     14460     14455     14458     14461
     14459     14458     14460     14459     14458     14461     14460     14458     14461
     14458     14461     14462     14458     14461     14463     14458     14461     14464
     14462     14461     14463     14462     14461     14464     14463     14461     14464
     14461     14464     14465     14461     14464     14466     14461     14464     14467
     14465     14464     14466     14465     14464     14467     14466     14464     14467
     14464     14467     14468     14464     14467     14469     14464     14467     14470
     14468     14467     14469     14468     14467     14470     14469     14467     14470
     14467     14470     14471     14467     14470     14472     14467     14470     14475
     14471     14470     14472     14471     14470     14475     14472     14470     14475
     14470     14472     14473     14470     14472     14474     14470     14472     14475
     14473     14472     14474     14473     14472     14475     14474     14472     14475
     14470     14475     14472     14470     14475     14476     14470     14475     14477
     14472     14475     14476     14472     14475     14477     14476     14475     14477
     14475     14477     14478     14475     14477     14479     14475     14477     14480
     14478     14477     14479     14478     14477     14480     14479     14477     14480
     14477     14480     14481     14477     14480     14482     14477     14480     14483
     14481     14480     14482     14481     14480     14483     14482     14480     14483
     14480     14483     14484     14480     14483     14485     14480     14483     14486
     14484     14483     14485     14484     14483     14486     14485     14483     14486
     14483     14486     14487     14483     14486     14488     14483     14486     14489
     14487     14486     14488     14487     14486     14489     14488     14486     14489
     14486     14489     14490     14486     14489     14491     14486     14489     14492
     14490     14489     14491     14490     14489     14492     14491     14489     14492
     14489     14492     14493     14489     14492     14494     14489     14492     14495
     14493     14492     14494     14493     14492     14495     14494     14492     14495
     14449     14496     14497     14449     14496     14498     14449     14496     14499
     14497     14496     14498     14497     14496     14499     14498     14496     14499
     14496     14499     14500     14496     14499     14501     14496     14499     14502
     14500     14499     14501     14500     14499     14502     14501     14499     14502
     14499     14502     14503     14499     14502     14504     14499     14502     14505
     14503     14502     14504     14503     14502     14505     14504     14502     14505
     14502     14505     14506     14502     14505     14507     14502     14505     14508
     14506     14505     14507     14506     14505     14508     14507     14505     14508
     14505     14508     14509     14505     14508     14510     14505     14508     14511
     14509     14508     14510     14509     14508     14511     14510     14508     14511
     14508     14511     14512     14508     14511     14513     14508     14511     14514
     14512     14511     14513     14512     14511     14514     14513     14511     14514
     14511     14514     14515     14511     14514     14516     14511     14514     14517
     14515     14514     14516     14515     14514     14517     14516     14514     14517
     14514     14517     14518     14514     14517     14519     14514     14517     14520
     14518     14517     14519     14518     14517     14520     14519     14517     14520
     14517     14520     14521     14517     14520     14522     14517     14520     14523
     14521     14520     14522     14521     14520     14523     14522     14520     14523
     14520     14523     14524     14520     14523     14525     14520     14523     14526
     14524     14523     14525     14524     14523     14526     14525     14523     14526
     14523     14526     14527     14523     14526     14528     14523     14526     14529
     14527     14526     14528     14527     14526     14529     14528     14526     14529
     14526     14529     14530     14526     14529     14531     14526     14529     14532
     14530     14529     14531     14530     14529     14532     14531     14529     14532
     14529     14532     14533     14529     14532     14534     14529     14532     14535
     14533     14532     14534     14533     14532     14535     14534     14532     14535
     14532     14535     14536     14532     14535     14537     14532     14535     14538
     14536     14535     14537     14536     14535     14538     14537     14535     14538
     14540     14539     14541     14540     14539     14542     14540     14539     14543
     14541     14539     14542     14541     14539     14543     14542     14539     14543
     14539     14543     14544     14539     14543     14545     14539     14543     14546
     14544     14543     14545     14544     14543     14546     14545     14543     14546
     14543     14546     14547     14543     14546     14548     14543     14546     14553
     14547     14546     14548     14547     14546     14553     14548     14546     14553
     14550     14549     14551     14550     14549     14552     14550     14549     14553
     14551     14549     14552     14551     14549     14553     14552     14549     14553
     14549     14552     14554     14546     14553     14549     14552     14554     14555
     14552     14554     14556     14552     14554     14557     14555     14554     14556
     14555     14554     14557     14556     14554     14557     14554     14557     14558
     14554     14557     14559     14554     14557     14565     14558     14557     14559
     14558     14557     14565     14559     14557     14565     14557     14559     14560
     14559     14560     14561     14559     14560     14562     14561     14560     14562
     14560     14562     14563     14560     14562     14564     14560     14562     14574
     14563     14562     14564     14563     14562     14574     14564     14562     14574
     14557     14565     14566     14557     14565     14567     14557     14565     14568
     14566     14565     14567     14566     14565     14568     14567     14565     14568
     14565     14568     14569     14568     14569     14570     14568     14569     14571
     14570     14569     14571     14569     14571     14572     14569     14571     14573
     14569     14571     14618     14572     14571     14573     14572     14571     14618
     14573     14571     14618     14562     14574     14575     14562     14574     14576
     14562     14574     14577     14575     14574     14576     14575     14574     14577
     14576     14574     14577     14574     14577     14578     14574     14577     14579
     14574     14577     14580     14578     14577     14579     14578     14577     14580
     14579     14577     14580     14577     14580     14581     14577     14580     14582
     14577     14580     14583     14581     14580     14582     14581     14580     14583
     14582     14580     14583     14580     14583     14584     14580     14583     14585
     14580     14583     14586     14584     14583     14585     14584     14583     14586
     14585     14583     14586     14583     14586     14587     14583     14586     14588
     14583     14586     14589     14587     14586     14588     14587     14586     14589
     14588     14586     14589     14586     14589     14590     14586     14589     14591
     14586     14589     14592     14590     14589     14591     14590     14589     14592
     14591     14589     14592     14589     14592     14593     14589     14592     14594
     14589     14592     14597     14593     14592     14594     14593     14592     14597
     14594     14592     14597     14592     14594     14595     14592     14594     14596
     14592     14594     14597     14595     14594     14596     14595     14594     14597
     14596     14594     14597     14592     14597     14594     14592     14597     14598
     14592     14597     14599     14594     14597     14598     14594     14597     14599
     14598     14597     14599     14597     14599     14600     14597     14599     14601
     14597     14599     14602     14600     14599     14601     14600     14599     14602
     14601     14599     14602     14599     14602     14603     14599     14602     14604
     14599     14602     14605     14603     14602     14604     14603     14602     14605
     14604     14602     14605     14602     14605     14606     14602     14605     14607
     14602     14605     14608     14606     14605     14607     14606     14605     14608
     14607     14605     14608     14605     14608     14609     14605     14608     14610
     14605     14608     14611     14609     14608     14610     14609     14608     14611
     14610     14608     14611     14608     14611     14612     14608     14611     14613
     14608     14611     14614     14612     14611     14613     14612     14611     14614
     14613     14611     14614     14611     14614     14615     14611     14614     14616
     14611     14614     14617     14615     14614     14616     14615     14614     14617
     14616     14614     14617     14571     14618     14619     14571     14618     14620
     14571     14618     14621     14619     14618     14620     14619     14618     14621
     14620     14618     14621     14618     14621     14622     14618     14621     14623
     14618     14621     14624     14622     14621     14623     14622     14621     14624
     14623     14621     14624     14621     14624     14625     14621     14624     14626
     14621     14624     14627     14625     14624     14626     14625     14624     14627
     14626     14624     14627     14624     14627     14628     14624     14627     14629
     14624     14627     14630     14628     14627     14629     14628     14627     14630
     14629     14627     14630     14627     14630     14631     14627     14630     14632
     14627     14630     14633     14631     14630     14632     14631     14630     14633
     14632     14630     14633     14630     14633     14634     14630     14633     14635
     14630     14633     14636     14634     14633     14635     14634     14633     14636
     14635     14633     14636     14633     14636     14637     14633     14636     14638
     14633     14636     14639     14637     14636     14638     14637     14636     14639
     14638     14636     14639     14636     14639     14640     14636     14639     14641
     14636     14639     14642     14640     14639     14641     14640     14639     14642
     14641     14639     14642     14639     14642     14643     14639     14642     14644
     14639     14642     14645     14643     14642     14644     14643     14642     14645
     14644     14642     14645     14642     14645     14646     14642     14645     14647
     14642     14645     14648     14646     14645     14647     14646     14645     14648
     14647     14645     14648     14645     14648     14649     14645     14648     14650
     14645     14648     14651     14649     14648     14650     14649     14648     14651
     14650     14648     14651     14648     14651     14652     14648     14651     14653
     14648     14651     14654     14652     14651     14653     14652     14651     14654
     14653     14651     14654     14651     14654     14655     14651     14654     14656
     14651     14654     14657     14655     14654     14656     14655     14654     14657
     14656     14654     14657     14654     14657     14658     14654     14657     14659
     14654     14657     14660     14658     14657     14659     14658     14657     14660
     14659     14657     14660     14662     14661     14663     14662     14661     14664
     14662     14661     14665     14663     14661     14664     14663     14661     14665
     14664     14661     14665     14661     14665     14666     14661     14665     14667
     14661     14665     14668     14666     14665     14667     14666     14665     14668
     14667     14665     14668     14665     14668     14669     14665     14668     14670
     14665     14668     14675     14669     14668     14670     14669     14668     14675
     14670     14668     14675     14672     14671     14673     14672     14671     14674
     14672     14671     14675     14673     14671     14674     14673     14671     14675
     14674     14671     14675     14671     14674     14676     14668     14675     14671
     14674     14676     14677     14674     14676     14678     14674     14676     14679
     14677     14676     14678     14677     14676     14679     14678     14676     14679
     14676     14679     14680     14676     14679     14681     14676     14679     14687
     14680     14679     14681     14680     14679     14687     14681     14679     14687
     14679     14681     14682     14681     14682     14683     14681     14682     14684
     14683     14682     14684     14682     14684     14685     14682     14684     14686
     14682     14684     14696     14685     14684     14686     14685     14684     14696
     14686     14684     14696     14679     14687     14688     14679     14687     14689
     14679     14687     14690     14688     14687     14689     14688     14687     14690
     14689     14687     14690     14687     14690     14691     14690     14691     14692
     14690     14691     14693     14692     14691     14693     14691     14693     14694
     14691     14693     14695     14691     14693     14740     14694     14693     14695
     14694     14693     14740     14695     14693     14740     14684     14696     14697
     14684     14696     14698     14684     14696     14699     14697     14696     14698
     14697     14696     14699     14698     14696     14699     14696     14699     14700
     14696     14699     14701     14696     14699     14702     14700     14699     14701
     14700     14699     14702     14701     14699     14702     14699     14702     14703
     14699     14702     14704     14699     14702     14705     14703     14702     14704
     14703     14702     14705     14704     14702     14705     14702     14705     14706
     14702     14705     14707     14702     14705     14708     14706     14705     14707
     14706     14705     14708     14707     14705     14708     14705     14708     14709
     14705     14708     14710     14705     14708     14711     14709     14708     14710
     14709     14708     14711     14710     14708     14711     14708     14711     14712
     14708     14711     14713     14708     14711     14714     14712     14711     14713
     14712     14711     14714     14713     14711     14714     14711     14714     14715
     14711     14714     14716     14711     14714     14719     14715     14714     14716
     14715     14714     14719     14716     14714     14719     14714     14716     14717
     14714     14716     14718     14714     14716     14719     14717     14716     14718
     14717     14716     14719     14718     14716     14719     14714     14719     14716
     14714     14719     14720     14714     14719     14721     14716     14719     14720
     14716     14719     14721     14720     14719     14721     14719     14721     14722
     14719     14721     14723     14719     14721     14724     14722     14721     14723
     14722     14721     14724     14723     14721     14724     14721     14724     14725
     14721     14724     14726     14721     14724     14727     14725     14724     14726
     14725     14724     14727     14726     14724     14727     14724     14727     14728
     14724     14727     14729     14724     14727     14730     14728     14727     14729
     14728     14727     14730     14729     14727     14730     14727     14730     14731
     14727     14730     14732     14727     14730     14733     14731     14730     14732
     14731     14730     14733     14732     14730     14733     14730     14733     14734
     14730     14733     14735     14730     14733     14736     14734     14733     14735
     14734     14733     14736     14735     14733     14736     14733     14736     14737
     14733     14736     14738     14733     14736     14739     14737     14736     14738
     14737     14736     14739     14738     14736     14739     14693     14740     14741
     14693     14740     14742     14693     14740     14743     14741     14740     14742
     14741     14740     14743     14742     14740     14743     14740     14743     14744
     14740     14743     14745     14740     14743     14746     14744     14743     14745
     14744     14743     14746     14745     14743     14746     14743     14746     14747
     14743     14746     14748     14743     14746     14749     14747     14746     14748
     14747     14746     14749     14748     14746     14749     14746     14749     14750
     14746     14749     14751     14746     14749     14752     14750     14749     14751
     14750     14749     14752     14751     14749     14752     14749     14752     14753
     14749     14752     14754     14749     14752     14755     14753     14752     14754
     14753     14752     14755     14754     14752     14755     14752     14755     14756
     14752     14755     14757     14752     14755     14758     14756     14755     14757
     14756     14755     14758     14757     14755     14758     14755     14758     14759
     14755     14758     14760     14755     14758     14761     14759     14758     14760
     14759     14758     14761     14760     14758     14761     14758     14761     14762
     14758     14761     14763     14758     14761     14764     14762     14761     14763
     14762     14761     14764     14763     14761     14764     14761     14764     14765
     14761     14764     14766     14761     14764     14767     14765     14764     14766
     14765     14764     14767     14766     14764     14767     14764     14767     14768
     14764     14767     14769     14764     14767     14770     14768     14767     14769
     14768     14767     14770     14769     14767     14770     14767     14770     14771
     14767     14770     14772     14767     14770     14773     14771     14770     14772
     14771     14770     14773     14772     14770     14773     14770     14773     14774
     14770     14773     14775     14770     14773     14776     14774     14773     14775
     14774     14773     14776     14775     14773     14776     14773     14776     14777
     14773     14776     14778     14773     14776     14779     14777     14776     14778
     14777     14776     14779     14778     14776     14779     14776     14779     14780
     14776     14779     14781     14776     14779     14782     14780     14779     14781
     14780     14779     14782     14781     14779     14782     14784     14783     14785
     14784     14783     14786     14784     14783     14787     14785     14783     14786
     14785     14783     14787     14786     14783     14787     14783     14787     14788
     14783     14787     14789     14783     14787     14790     14788     14787     14789
     14788     14787     14790     14789     14787     14790     14787     14790     14791
     14787     14790     14792     14787     14790     14797     14791     14790     14792
     14791     14790     14797     14792     14790     14797     14794     14793     14795
     14794     14793     14796     14794     14793     14797     14795     14793     14796
     14795     14793     14797     14796     14793     14797     14793     14796     14798
     14790     14797     14793     14796     14798     14799     14796     14798     14800
     14796     14798     14801     14799     14798     14800     14799     14798     14801
     14800     14798     14801     14798     14801     14802     14798     14801     14803
     14798     14801     14809     14802     14801     14803     14802     14801     14809
     14803     14801     14809     14801     14803     14804     14803     14804     14805
     14803     14804     14806     14805     14804     14806     14804     14806     14807
     14804     14806     14808     14804     14806     14818     14807     14806     14808
     14807     14806     14818     14808     14806     14818     14801     14809     14810
     14801     14809     14811     14801     14809     14812     14810     14809     14811
     14810     14809     14812     14811     14809     14812     14809     14812     14813
     14812     14813     14814     14812     14813     14815     14814     14813     14815
     14813     14815     14816     14813     14815     14817     14813     14815     14862
     14816     14815     14817     14816     14815     14862     14817     14815     14862
     14806     14818     14819     14806     14818     14820     14806     14818     14821
     14819     14818     14820     14819     14818     14821     14820     14818     14821
     14818     14821     14822     14818     14821     14823     14818     14821     14824
     14822     14821     14823     14822     14821     14824     14823     14821     14824
     14821     14824     14825     14821     14824     14826     14821     14824     14827
     14825     14824     14826     14825     14824     14827     14826     14824     14827
     14824     14827     14828     14824     14827     14829     14824     14827     14830
     14828     14827     14829     14828     14827     14830     14829     14827     14830
     14827     14830     14831     14827     14830     14832     14827     14830     14833
     14831     14830     14832     14831     14830     14833     14832     14830     14833
     14830     14833     14834     14830     14833     14835     14830     14833     14836
     14834     14833     14835     14834     14833     14836     14835     14833     14836
     14833     14836     14837     14833     14836     14838     14833     14836     14841
     14837     14836     14838     14837     14836     14841     14838     14836     14841
     14836     14838     14839     14836     14838     14840     14836     14838     14841
     14839     14838     14840     14839     14838     14841     14840     14838     14841
     14836     14841     14838     14836     14841     14842     14836     14841     14843
     14838     14841     14842     14838     14841     14843     14842     14841     14843
     14841     14843     14844     14841     14843     14845     14841     14843     14846
     14844     14843     14845     14844     14843     14846     14845     14843     14846
     14843     14846     14847     14843     14846     14848     14843     14846     14849
     14847     14846     14848     14847     14846     14849     14848     14846     14849
     14846     14849     14850     14846     14849     14851     14846     14849     14852
     14850     14849     14851     14850     14849     14852     14851     14849     14852
     14849     14852     14853     14849     14852     14854     14849     14852     14855
     14853     14852     14854     14853     14852     14855     14854     14852     14855
     14852     14855     14856     14852     14855     14857     14852     14855     14858
     14856     14855     14857     14856     14855     14858     14857     14855     14858
     14855     14858     14859     14855     14858     14860     14855     14858     14861
     14859     14858     14860     14859     14858     14861     14860     14858     14861
     14815     14862     14863     14815     14862     14864     14815     14862     14865
     14863     14862     14864     14863     14862     14865     14864     14862     14865
     14862     14865     14866     14862     14865     14867     14862     14865     14868
     14866     14865     14867     14866     14865     14868     14867     14865     14868
     14865     14868     14869     14865     14868     14870     14865     14868     14871
     14869     14868     14870     14869     14868     14871     14870     14868     14871
     14868     14871     14872     14868     14871     14873     14868     14871     14874
     14872     14871     14873     14872     14871     14874     14873     14871     14874
     14871     14874     14875     14871     14874     14876     14871     14874     14877
     14875     14874     14876     14875     14874     14877     14876     14874     14877
     14874     14877     14878     14874     14877     14879     14874     14877     14880
     14878     14877     14879     14878     14877     14880     14879     14877     14880
     14877     14880     14881     14877     14880     14882     14877     14880     14883
     14881     14880     14882     14881     14880     14883     14882     14880     14883
     14880     14883     14884     14880     14883     14885     14880     14883     14886
     14884     14883     14885     14884     14883     14886     14885     14883     14886
     14883     14886     14887     14883     14886     14888     14883     14886     14889
     14887     14886     14888     14887     14886     14889     14888     14886     14889
     14886     14889     14890     14886     14889     14891     14886     14889     14892
     14890     14889     14891     14890     14889     14892     14891     14889     14892
     14889     14892     14893     14889     14892     14894     14889     14892     14895
     14893     14892     14894     14893     14892     14895     14894     14892     14895
     14892     14895     14896     14892     14895     14897     14892     14895     14898
     14896     14895     14897     14896     14895     14898     14897     14895     14898
     14895     14898     14899     14895     14898     14900     14895     14898     14901
     14899     14898     14900     14899     14898     14901     14900     14898     14901
     14898     14901     14902     14898     14901     14903     14898     14901     14904
     14902     14901     14903     14902     14901     14904     14903     14901     14904
     14906     14905     14907     14906     14905     14908     14906     14905     14909
     14907     14905     14908     14907     14905     14909     14908     14905     14909
     14905     14909     14910     14905     14909     14911     14905     14909     14912
     14910     14909     14911     14910     14909     14912     14911     14909     14912
     14909     14912     14913     14909     14912     14914     14909     14912     14919
     14913     14912     14914     14913     14912     14919     14914     14912     14919
     14916     14915     14917     14916     14915     14918     14916     14915     14919
     14917     14915     14918     14917     14915     14919     14918     14915     14919
     14915     14918     14920     14912     14919     14915     14918     14920     14921
     14918     14920     14922     14918     14920     14923     14921     14920     14922
     14921     14920     14923     14922     14920     14923     14920     14923     14924
     14920     14923     14925     14920     14923     14931     14924     14923     14925
     14924     14923     14931     14925     14923     14931     14923     14925     14926
     14925     14926     14927     14925     14926     14928     14927     14926     14928
     14926     14928     14929     14926     14928     14930     14926     14928     14940
     14929     14928     14930     14929     14928     14940     14930     14928     14940
     14923     14931     14932     14923     14931     14933     14923     14931     14934
     14932     14931     14933     14932     14931     14934     14933     14931     14934
     14931     14934     14935     14934     14935     14936     14934     14935     14937
     14936     14935     14937     14935     14937     14938     14935     14937     14939
     14935     14937     14981     14938     14937     14939     14938     14937     14981
     14939     14937     14981     14928     14940     14941     14928     14940     14942
     14928     14940     14943     14941     14940     14942     14941     14940     14943
     14942     14940     14943     14940     14943     14944     14940     14943     14945
     14940     14943     14946     14944     14943     14945     14944     14943     14946
     14945     14943     14946     14943     14946     14947     14943     14946     14948
     14943     14946     14949     14947     14946     14948     14947     14946     14949
     14948     14946     14949     14946     14949     14950     14946     14949     14951
     14946     14949     14952     14950     14949     14951     14950     14949     14952
     14951     14949     14952     14949     14952     14953     14949     14952     14954
     14949     14952     14955     14953     14952     14954     14953     14952     14955
     14954     14952     14955     14952     14955     14956     14952     14955     14957
     14952     14955     14958     14956     14955     14957     14956     14955     14958
     14957     14955     14958     14955     14958     14959     14955     14958     14960
     14959     14958     14960     14958     14960     14961     14958     14960     14962
     14961     14960     14962     14960     14962     14963     14960     14962     14964
     14960     14962     14965     14963     14962     14964     14963     14962     14965
     14964     14962     14965     14962     14965     14966     14962     14965     14967
     14962     14965     14968     14966     14965     14967     14966     14965     14968
     14967     14965     14968     14965     14968     14969     14965     14968     14970
     14965     14968     14971     14969     14968     14970     14969     14968     14971
     14970     14968     14971     14968     14971     14972     14968     14971     14973
     14968     14971     14974     14972     14971     14973     14972     14971     14974
     14973     14971     14974     14971     14974     14975     14971     14974     14976
     14971     14974     14977     14975     14974     14976     14975     14974     14977
     14976     14974     14977     14974     14977     14978     14974     14977     14979
     14974     14977     14980     14978     14977     14979     14978     14977     14980
     14979     14977     14980     14937     14981     14982     14937     14981     14983
     14937     14981     14984     14982     14981     14983     14982     14981     14984
     14983     14981     14984     14981     14984     14985     14981     14984     14986
     14981     14984     14987     14985     14984     14986     14985     14984     14987
     14986     14984     14987     14984     14987     14988     14984     14987     14989
     14984     14987     14990     14988     14987     14989     14988     14987     14990
     14989     14987     14990     14987     14990     14991     14987     14990     14992
     14987     14990     14993     14991     14990     14992     14991     14990     14993
     14992     14990     14993     14990     14993     14994     14990     14993     14995
     14990     14993     14996     14994     14993     14995     14994     14993     14996
     14995     14993     14996     14993     14996     14997     14993     14996     14998
     14993     14996     14999     14997     14996     14998     14997     14996     14999
     14998     14996     14999     14996     14999     15000     14996     14999     15001
     15000     14999     15001     14999     15001     15002     14999     15001     15003
     15002     15001     15003     15001     15003     15004     15001     15003     15005
     15001     15003     15006     15004     15003     15005     15004     15003     15006
     15005     15003     15006     15003     15006     15007     15003     15006     15008
     15003     15006     15009     15007     15006     15008     15007     15006     15009
     15008     15006     15009     15006     15009     15010     15006     15009     15011
     15006     15009     15012     15010     15009     15011     15010     15009     15012
     15011     15009     15012     15009     15012     15013     15009     15012     15014
     15009     15012     15015     15013     15012     15014     15013     15012     15015
     15014     15012     15015     15012     15015     15016     15012     15015     15017
     15012     15015     15018     15016     15015     15017     15016     15015     15018
     15017     15015     15018     15015     15018     15019     15015     15018     15020
     15015     15018     15021     15019     15018     15020     15019     15018     15021
     15020     15018     15021     15018     15021     15022     15018     15021     15023
     15018     15021     15024     15022     15021     15023     15022     15021     15024
     15023     15021     15024     15021     15024     15025     15021     15024     15026
     15021     15024     15027     15025     15024     15026     15025     15024     15027
     15026     15024     15027     15029     15028     15030     15029     15028     15034
     15029     15028     15039     15030     15028     15034     15030     15028     15039
     15034     15028     15039     15032     15031     15033     15032     15031     15034
     15032     15031     15035     15033     15031     15034     15033     15031     15035
     15034     15031     15035     15028     15034     15031     15031     15035     15036
     15035     15036     15037     15035     15036     15038     15035     15036     15071
     15037     15036     15038     15037     15036     15071     15038     15036     15071
     15028     15039     15040     15028     15039     15041     15028     15039     15043
     15040     15039     15041     15040     15039     15043     15041     15039     15043
     15039     15041     15042     15039     15043     15044     15039     15043     15045
     15039     15043     15049     15044     15043     15045     15044     15043     15049
     15045     15043     15049     15047     15046     15048     15047     15046     15049
     15047     15046     15050     15048     15046     15049     15048     15046     15050
     15049     15046     15050     15043     15049     15046     15046     15050     15051
     15050     15051     15052     15050     15051     15053     15050     15051     15054
     15052     15051     15053     15052     15051     15054     15053     15051     15054
     15051     15054     15055     15051     15054     15056     15051     15054     15062
     15055     15054     15056     15055     15054     15062     15056     15054     15062
     15054     15056     15057     15056     15057     15058     15056     15057     15059
     15058     15057     15059     15057     15059     15060     15057     15059     15061
     15057     15059     15088     15060     15059     15061     15060     15059     15088
     15061     15059     15088     15054     15062     15063     15054     15062     15064
     15054     15062     15065     15063     15062     15064     15063     15062     15065
     15064     15062     15065     15062     15065     15066     15065     15066     15067
     15065     15066     15068     15067     15066     15068     15066     15068     15069
     15066     15068     15070     15066     15068     15135     15069     15068     15070
     15069     15068     15135     15070     15068     15135     15036     15071     15072
     15036     15071     15073     15036     15071     15079     15072     15071     15073
     15072     15071     15079     15073     15071     15079     15071     15073     15074
     15073     15074     15075     15073     15074     15076     15075     15074     15076
     15074     15076     15077     15074     15076     15078     15074     15076     15178
     15077     15076     15078     15077     15076     15178     15078     15076     15178
     15071     15079     15080     15071     15079     15081     15071     15079     15082
     15080     15079     15081     15080     15079     15082     15081     15079     15082
     15079     15082     15083     15082     15083     15084     15082     15083     15085
     15084     15083     15085     15083     15085     15086     15083     15085     15087
     15083     15085     15225     15086     15085     15087     15086     15085     15225
     15087     15085     15225     15059     15088     15089     15059     15088     15090
     15059     15088     15091     15089     15088     15090     15089     15088     15091
     15090     15088     15091     15088     15091     15092     15088     15091     15093
     15088     15091     15094     15092     15091     15093     15092     15091     15094
     15093     15091     15094     15091     15094     15095     15091     15094     15096
     15091     15094     15097     15095     15094     15096     15095     15094     15097
     15096     15094     15097     15094     15097     15098     15094     15097     15099
     15094     15097     15100     15098     15097     15099     15098     15097     15100
     15099     15097     15100     15097     15100     15101     15097     15100     15102
     15097     15100     15103     15101     15100     15102     15101     15100     15103
     15102     15100     15103     15100     15103     15104     15100     15103     15105
     15100     15103     15106     15104     15103     15105     15104     15103     15106
     15105     15103     15106     15103     15106     15107     15103     15106     15108
     15103     15106     15109     15107     15106     15108     15107     15106     15109
     15108     15106     15109     15106     15109     15110     15106     15109     15111
     15106     15109     15112     15110     15109     15111     15110     15109     15112
     15111     15109     15112     15109     15112     15113     15109     15112     15114
     15113     15112     15114     15112     15114     15115     15112     15114     15116
     15115     15114     15116     15114     15116     15117     15114     15116     15118
     15114     15116     15119     15117     15116     15118     15117     15116     15119
     15118     15116     15119     15116     15119     15120     15116     15119     15121
     15116     15119     15122     15120     15119     15121     15120     15119     15122
     15121     15119     15122     15119     15122     15123     15119     15122     15124
     15119     15122     15125     15123     15122     15124     15123     15122     15125
     15124     15122     15125     15122     15125     15126     15122     15125     15127
     15122     15125     15128     15126     15125     15127     15126     15125     15128
     15127     15125     15128     15125     15128     15129     15125     15128     15130
     15125     15128     15131     15129     15128     15130     15129     15128     15131
     15130     15128     15131     15128     15131     15132     15128     15131     15133
     15128     15131     15134     15132     15131     15133     15132     15131     15134
     15133     15131     15134     15068     15135     15136     15068     15135     15137
     15068     15135     15138     15136     15135     15137     15136     15135     15138
     15137     15135     15138     15135     15138     15139     15135     15138     15140
     15135     15138     15141     15139     15138     15140     15139     15138     15141
     15140     15138     15141     15138     15141     15142     15138     15141     15143
     15138     15141     15144     15142     15141     15143     15142     15141     15144
     15143     15141     15144     15141     15144     15145     15141     15144     15146
     15141     15144     15147     15145     15144     15146     15145     15144     15147
     15146     15144     15147     15144     15147     15148     15144     15147     15149
     15144     15147     15150     15148     15147     15149     15148     15147     15150
     15149     15147     15150     15147     15150     15151     15147     15150     15152
     15147     15150     15153     15151     15150     15152     15151     15150     15153
     15152     15150     15153     15150     15153     15154     15150     15153     15155
     15150     15153     15156     15154     15153     15155     15154     15153     15156
     15155     15153     15156     15153     15156     15157     15153     15156     15158
     15153     15156     15159     15157     15156     15158     15157     15156     15159
     15158     15156     15159     15156     15159     15160     15156     15159     15161
     15156     15159     15162     15160     15159     15161     15160     15159     15162
     15161     15159     15162     15159     15162     15163     15159     15162     15164
     15159     15162     15165     15163     15162     15164     15163     15162     15165
     15164     15162     15165     15162     15165     15166     15162     15165     15167
     15162     15165     15168     15166     15165     15167     15166     15165     15168
     15167     15165     15168     15165     15168     15169     15165     15168     15170
     15165     15168     15171     15169     15168     15170     15169     15168     15171
     15170     15168     15171     15168     15171     15172     15168     15171     15173
     15168     15171     15174     15172     15171     15173     15172     15171     15174
     15173     15171     15174     15171     15174     15175     15171     15174     15176
     15171     15174     15177     15175     15174     15176     15175     15174     15177
     15176     15174     15177     15076     15178     15179     15076     15178     15180
     15076     15178     15181     15179     15178     15180     15179     15178     15181
     15180     15178     15181     15178     15181     15182     15178     15181     15183
     15178     15181     15184     15182     15181     15183     15182     15181     15184
     15183     15181     15184     15181     15184     15185     15181     15184     15186
     15181     15184     15187     15185     15184     15186     15185     15184     15187
     15186     15184     15187     15184     15187     15188     15184     15187     15189
     15184     15187     15190     15188     15187     15189     15188     15187     15190
     15189     15187     15190     15187     15190     15191     15187     15190     15192
     15187     15190     15193     15191     15190     15192     15191     15190     15193
     15192     15190     15193     15190     15193     15194     15190     15193     15195
     15190     15193     15196     15194     15193     15195     15194     15193     15196
     15195     15193     15196     15193     15196     15197     15193     15196     15198
     15193     15196     15199     15197     15196     15198     15197     15196     15199
     15198     15196     15199     15196     15199     15200     15196     15199     15201
     15196     15199     15202     15200     15199     15201     15200     15199     15202
     15201     15199     15202     15199     15202     15203     15199     15202     15204
     15203     15202     15204     15202     15204     15205     15202     15204     15206
     15205     15204     15206     15204     15206     15207     15204     15206     15208
     15204     15206     15209     15207     15206     15208     15207     15206     15209
     15208     15206     15209     15206     15209     15210     15206     15209     15211
     15206     15209     15212     15210     15209     15211     15210     15209     15212
     15211     15209     15212     15209     15212     15213     15209     15212     15214
     15209     15212     15215     15213     15212     15214     15213     15212     15215
     15214     15212     15215     15212     15215     15216     15212     15215     15217
     15212     15215     15218     15216     15215     15217     15216     15215     15218
     15217     15215     15218     15215     15218     15219     15215     15218     15220
     15215     15218     15221     15219     15218     15220     15219     15218     15221
     15220     15218     15221     15218     15221     15222     15218     15221     15223
     15218     15221     15224     15222     15221     15223     15222     15221     15224
     15223     15221     15224     15085     15225     15226     15085     15225     15227
     15085     15225     15228     15226     15225     15227     15226     15225     15228
     15227     15225     15228     15225     15228     15229     15225     15228     15230
     15225     15228     15231     15229     15228     15230     15229     15228     15231
     15230     15228     15231     15228     15231     15232     15228     15231     15233
     15228     15231     15234     15232     15231     15233     15232     15231     15234
     15233     15231     15234     15231     15234     15235     15231     15234     15236
     15231     15234     15237     15235     15234     15236     15235     15234     15237
     15236     15234     15237     15234     15237     15238     15234     15237     15239
     15234     15237     15240     15238     15237     15239     15238     15237     15240
     15239     15237     15240     15237     15240     15241     15237     15240     15242
     15237     15240     15243     15241     15240     15242     15241     15240     15243
     15242     15240     15243     15240     15243     15244     15240     15243     15245
     15240     15243     15246     15244     15243     15245     15244     15243     15246
     15245     15243     15246     15243     15246     15247     15243     15246     15248
     15243     15246     15249     15247     15246     15248     15247     15246     15249
     15248     15246     15249     15246     15249     15250     15246     15249     15251
     15246     15249     15252     15250     15249     15251     15250     15249     15252
     15251     15249     15252     15249     15252     15253     15249     15252     15254
     15249     15252     15255     15253     15252     15254     15253     15252     15255
     15254     15252     15255     15252     15255     15256     15252     15255     15257
     15252     15255     15258     15256     15255     15257     15256     15255     15258
     15257     15255     15258     15255     15258     15259     15255     15258     15260
     15255     15258     15261     15259     15258     15260     15259     15258     15261
     15260     15258     15261     15258     15261     15262     15258     15261     15263
     15258     15261     15264     15262     15261     15263     15262     15261     15264
     15263     15261     15264     15261     15264     15265     15261     15264     15266
     15261     15264     15267     15265     15264     15266     15265     15264     15267
     15266     15264     15267     15269     15268     15270     15269     15268     15271
     15269     15268     15272     15270     15268     15271     15270     15268     15272
     15271     15268     15272     15268     15272     15273     15268     15272     15274
     15268     15272     15275     15273     15272     15274     15273     15272     15275
     15274     15272     15275     15272     15275     15276     15272     15275     15277
     15272     15275     15282     15276     15275     15277     15276     15275     15282
     15277     15275     15282     15279     15278     15280     15279     15278     15281
     15279     15278     15282     15280     15278     15281     15280     15278     15282
     15281     15278     15282     15278     15281     15283     15275     15282     15278
     15281     15283     15284     15281     15283     15285     15281     15283     15286
     15284     15283     15285     15284     15283     15286     15285     15283     15286
     15283     15286     15287     15283     15286     15288     15283     15286     15294
     15287     15286     15288     15287     15286     15294     15288     15286     15294
     15286     15288     15289     15288     15289     15290     15288     15289     15291
     15290     15289     15291     15289     15291     15292     15289     15291     15293
     15289     15291     15303     15292     15291     15293     15292     15291     15303
     15293     15291     15303     15286     15294     15295     15286     15294     15296
     15286     15294     15297     15295     15294     15296     15295     15294     15297
     15296     15294     15297     15294     15297     15298     15297     15298     15299
     15297     15298     15300     15299     15298     15300     15298     15300     15301
     15298     15300     15302     15298     15300     15347     15301     15300     15302
     15301     15300     15347     15302     15300     15347     15291     15303     15304
     15291     15303     15305     15291     15303     15306     15304     15303     15305
     15304     15303     15306     15305     15303     15306     15303     15306     15307
     15303     15306     15308     15303     15306     15309     15307     15306     15308
     15307     15306     15309     15308     15306     15309     15306     15309     15310
     15306     15309     15311     15306     15309     15312     15310     15309     15311
     15310     15309     15312     15311     15309     15312     15309     15312     15313
     15309     15312     15314     15309     15312     15315     15313     15312     15314
     15313     15312     15315     15314     15312     15315     15312     15315     15316
     15312     15315     15317     15312     15315     15318     15316     15315     15317
     15316     15315     15318     15317     15315     15318     15315     15318     15319
     15315     15318     15320     15315     15318     15321     15319     15318     15320
     15319     15318     15321     15320     15318     15321     15318     15321     15322
     15318     15321     15323     15318     15321     15326     15322     15321     15323
     15322     15321     15326     15323     15321     15326     15321     15323     15324
     15321     15323     15325     15321     15323     15326     15324     15323     15325
     15324     15323     15326     15325     15323     15326     15321     15326     15323
     15321     15326     15327     15321     15326     15328     15323     15326     15327
     15323     15326     15328     15327     15326     15328     15326     15328     15329
     15326     15328     15330     15326     15328     15331     15329     15328     15330
     15329     15328     15331     15330     15328     15331     15328     15331     15332
     15328     15331     15333     15328     15331     15334     15332     15331     15333
     15332     15331     15334     15333     15331     15334     15331     15334     15335
     15331     15334     15336     15331     15334     15337     15335     15334     15336
     15335     15334     15337     15336     15334     15337     15334     15337     15338
     15334     15337     15339     15334     15337     15340     15338     15337     15339
     15338     15337     15340     15339     15337     15340     15337     15340     15341
     15337     15340     15342     15337     15340     15343     15341     15340     15342
     15341     15340     15343     15342     15340     15343     15340     15343     15344
     15340     15343     15345     15340     15343     15346     15344     15343     15345
     15344     15343     15346     15345     15343     15346     15300     15347     15348
     15300     15347     15349     15300     15347     15350     15348     15347     15349
     15348     15347     15350     15349     15347     15350     15347     15350     15351
     15347     15350     15352     15347     15350     15353     15351     15350     15352
     15351     15350     15353     15352     15350     15353     15350     15353     15354
     15350     15353     15355     15350     15353     15356     15354     15353     15355
     15354     15353     15356     15355     15353     15356     15353     15356     15357
     15353     15356     15358     15353     15356     15359     15357     15356     15358
     15357     15356     15359     15358     15356     15359     15356     15359     15360
     15356     15359     15361     15356     15359     15362     15360     15359     15361
     15360     15359     15362     15361     15359     15362     15359     15362     15363
     15359     15362     15364     15359     15362     15365     15363     15362     15364
     15363     15362     15365     15364     15362     15365     15362     15365     15366
     15362     15365     15367     15362     15365     15368     15366     15365     15367
     15366     15365     15368     15367     15365     15368     15365     15368     15369
     15365     15368     15370     15365     15368     15371     15369     15368     15370
     15369     15368     15371     15370     15368     15371     15368     15371     15372
     15368     15371     15373     15368     15371     15374     15372     15371     15373
     15372     15371     15374     15373     15371     15374     15371     15374     15375
     15371     15374     15376     15371     15374     15377     15375     15374     15376
     15375     15374     15377     15376     15374     15377     15374     15377     15378
     15374     15377     15379     15374     15377     15380     15378     15377     15379
     15378     15377     15380     15379     15377     15380     15377     15380     15381
     15377     15380     15382     15377     15380     15383     15381     15380     15382
     15381     15380     15383     15382     15380     15383     15380     15383     15384
     15380     15383     15385     15380     15383     15386     15384     15383     15385
     15384     15383     15386     15385     15383     15386     15383     15386     15387
     15383     15386     15388     15383     15386     15389     15387     15386     15388
     15387     15386     15389     15388     15386     15389     15391     15390     15392
     15391     15390     15393     15391     15390     15394     15392     15390     15393
     15392     15390     15394     15393     15390     15394     15390     15394     15395
     15390     15394     15396     15390     15394     15397     15395     15394     15396
     15395     15394     15397     15396     15394     15397     15394     15397     15398
     15394     15397     15399     15394     15397     15404     15398     15397     15399
     15398     15397     15404     15399     15397     15404     15401     15400     15402
     15401     15400     15403     15401     15400     15404     15402     15400     15403
     15402     15400     15404     15403     15400     15404     15400     15403     15405
     15397     15404     15400     15403     15405     15406     15403     15405     15407
     15403     15405     15408     15406     15405     15407     15406     15405     15408
     15407     15405     15408     15405     15408     15409     15405     15408     15410
     15405     15408     15416     15409     15408     15410     15409     15408     15416
     15410     15408     15416     15408     15410     15411     15410     15411     15412
     15410     15411     15413     15412     15411     15413     15411     15413     15414
     15411     15413     15415     15411     15413     15425     15414     15413     15415
     15414     15413     15425     15415     15413     15425     15408     15416     15417
     15408     15416     15418     15408     15416     15419     15417     15416     15418
     15417     15416     15419     15418     15416     15419     15416     15419     15420
     15419     15420     15421     15419     15420     15422     15421     15420     15422
     15420     15422     15423     15420     15422     15424     15420     15422     15466
     15423     15422     15424     15423     15422     15466     15424     15422     15466
     15413     15425     15426     15413     15425     15427     15413     15425     15428
     15426     15425     15427     15426     15425     15428     15427     15425     15428
     15425     15428     15429     15425     15428     15430     15425     15428     15431
     15429     15428     15430     15429     15428     15431     15430     15428     15431
     15428     15431     15432     15428     15431     15433     15428     15431     15434
     15432     15431     15433     15432     15431     15434     15433     15431     15434
     15431     15434     15435     15431     15434     15436     15431     15434     15437
     15435     15434     15436     15435     15434     15437     15436     15434     15437
     15434     15437     15438     15434     15437     15439     15434     15437     15440
     15438     15437     15439     15438     15437     15440     15439     15437     15440
     15437     15440     15441     15437     15440     15442     15437     15440     15443
     15441     15440     15442     15441     15440     15443     15442     15440     15443
     15440     15443     15444     15440     15443     15445     15444     15443     15445
     15443     15445     15446     15443     15445     15447     15446     15445     15447
     15445     15447     15448     15445     15447     15449     15445     15447     15450
     15448     15447     15449     15448     15447     15450     15449     15447     15450
     15447     15450     15451     15447     15450     15452     15447     15450     15453
     15451     15450     15452     15451     15450     15453     15452     15450     15453
     15450     15453     15454     15450     15453     15455     15450     15453     15456
     15454     15453     15455     15454     15453     15456     15455     15453     15456
     15453     15456     15457     15453     15456     15458     15453     15456     15459
     15457     15456     15458     15457     15456     15459     15458     15456     15459
     15456     15459     15460     15456     15459     15461     15456     15459     15462
     15460     15459     15461     15460     15459     15462     15461     15459     15462
     15459     15462     15463     15459     15462     15464     15459     15462     15465
     15463     15462     15464     15463     15462     15465     15464     15462     15465
     15422     15466     15467     15422     15466     15468     15422     15466     15469
     15467     15466     15468     15467     15466     15469     15468     15466     15469
     15466     15469     15470     15466     15469     15471     15466     15469     15472
     15470     15469     15471     15470     15469     15472     15471     15469     15472
     15469     15472     15473     15469     15472     15474     15469     15472     15475
     15473     15472     15474     15473     15472     15475     15474     15472     15475
     15472     15475     15476     15472     15475     15477     15472     15475     15478
     15476     15475     15477     15476     15475     15478     15477     15475     15478
     15475     15478     15479     15475     15478     15480     15475     15478     15481
     15479     15478     15480     15479     15478     15481     15480     15478     15481
     15478     15481     15482     15478     15481     15483     15478     15481     15484
     15482     15481     15483     15482     15481     15484     15483     15481     15484
     15481     15484     15485     15481     15484     15486     15485     15484     15486
     15484     15486     15487     15484     15486     15488     15487     15486     15488
     15486     15488     15489     15486     15488     15490     15486     15488     15491
     15489     15488     15490     15489     15488     15491     15490     15488     15491
     15488     15491     15492     15488     15491     15493     15488     15491     15494
     15492     15491     15493     15492     15491     15494     15493     15491     15494
     15491     15494     15495     15491     15494     15496     15491     15494     15497
     15495     15494     15496     15495     15494     15497     15496     15494     15497
     15494     15497     15498     15494     15497     15499     15494     15497     15500
     15498     15497     15499     15498     15497     15500     15499     15497     15500
     15497     15500     15501     15497     15500     15502     15497     15500     15503
     15501     15500     15502     15501     15500     15503     15502     15500     15503
     15500     15503     15504     15500     15503     15505     15500     15503     15506
     15504     15503     15505     15504     15503     15506     15505     15503     15506
     15503     15506     15507     15503     15506     15508     15503     15506     15509
     15507     15506     15508     15507     15506     15509     15508     15506     15509
     15506     15509     15510     15506     15509     15511     15506     15509     15512
     15510     15509     15511     15510     15509     15512     15511     15509     15512
     15514     15513     15515     15514     15513     15516     15514     15513     15517
     15515     15513     15516     15515     15513     15517     15516     15513     15517
     15513     15517     15518     15513     15517     15519     15513     15517     15520
     15518     15517     15519     15518     15517     15520     15519     15517     15520
     15517     15520     15521     15517     15520     15522     15517     15520     15527
     15521     15520     15522     15521     15520     15527     15522     15520     15527
     15524     15523     15525     15524     15523     15526     15524     15523     15527
     15525     15523     15526     15525     15523     15527     15526     15523     15527
     15523     15526     15528     15520     15527     15523     15526     15528     15529
     15526     15528     15530     15526     15528     15531     15529     15528     15530
     15529     15528     15531     15530     15528     15531     15528     15531     15532
     15528     15531     15533     15528     15531     15539     15532     15531     15533
     15532     15531     15539     15533     15531     15539     15531     15533     15534
     15533     15534     15535     15533     15534     15536     15535     15534     15536
     15534     15536     15537     15534     15536     15538     15534     15536     15548
     15537     15536     15538     15537     15536     15548     15538     15536     15548
     15531     15539     15540     15531     15539     15541     15531     15539     15542
     15540     15539     15541     15540     15539     15542     15541     15539     15542
     15539     15542     15543     15542     15543     15544     15542     15543     15545
     15544     15543     15545     15543     15545     15546     15543     15545     15547
     15543     15545     15592     15546     15545     15547     15546     15545     15592
     15547     15545     15592     15536     15548     15549     15536     15548     15550
     15536     15548     15551     15549     15548     15550     15549     15548     15551
     15550     15548     15551     15548     15551     15552     15548     15551     15553
     15548     15551     15554     15552     15551     15553     15552     15551     15554
     15553     15551     15554     15551     15554     15555     15551     15554     15556
     15551     15554     15557     15555     15554     15556     15555     15554     15557
     15556     15554     15557     15554     15557     15558     15554     15557     15559
     15554     15557     15560     15558     15557     15559     15558     15557     15560
     15559     15557     15560     15557     15560     15561     15557     15560     15562
     15557     15560     15563     15561     15560     15562     15561     15560     15563
     15562     15560     15563     15560     15563     15564     15560     15563     15565
     15560     15563     15566     15564     15563     15565     15564     15563     15566
     15565     15563     15566     15563     15566     15567     15563     15566     15568
     15563     15566     15571     15567     15566     15568     15567     15566     15571
     15568     15566     15571     15566     15568     15569     15566     15568     15570
     15566     15568     15571     15569     15568     15570     15569     15568     15571
     15570     15568     15571     15566     15571     15568     15566     15571     15572
     15566     15571     15573     15568     15571     15572     15568     15571     15573
     15572     15571     15573     15571     15573     15574     15571     15573     15575
     15571     15573     15576     15574     15573     15575     15574     15573     15576
     15575     15573     15576     15573     15576     15577     15573     15576     15578
     15573     15576     15579     15577     15576     15578     15577     15576     15579
     15578     15576     15579     15576     15579     15580     15576     15579     15581
     15576     15579     15582     15580     15579     15581     15580     15579     15582
     15581     15579     15582     15579     15582     15583     15579     15582     15584
     15579     15582     15585     15583     15582     15584     15583     15582     15585
     15584     15582     15585     15582     15585     15586     15582     15585     15587
     15582     15585     15588     15586     15585     15587     15586     15585     15588
     15587     15585     15588     15585     15588     15589     15585     15588     15590
     15585     15588     15591     15589     15588     15590     15589     15588     15591
     15590     15588     15591     15545     15592     15593     15545     15592     15594
     15545     15592     15595     15593     15592     15594     15593     15592     15595
     15594     15592     15595     15592     15595     15596     15592     15595     15597
     15592     15595     15598     15596     15595     15597     15596     15595     15598
     15597     15595     15598     15595     15598     15599     15595     15598     15600
     15595     15598     15601     15599     15598     15600     15599     15598     15601
     15600     15598     15601     15598     15601     15602     15598     15601     15603
     15598     15601     15604     15602     15601     15603     15602     15601     15604
     15603     15601     15604     15601     15604     15605     15601     15604     15606
     15601     15604     15607     15605     15604     15606     15605     15604     15607
     15606     15604     15607     15604     15607     15608     15604     15607     15609
     15604     15607     15610     15608     15607     15609     15608     15607     15610
     15609     15607     15610     15607     15610     15611     15607     15610     15612
     15607     15610     15613     15611     15610     15612     15611     15610     15613
     15612     15610     15613     15610     15613     15614     15610     15613     15615
     15610     15613     15616     15614     15613     15615     15614     15613     15616
     15615     15613     15616     15613     15616     15617     15613     15616     15618
     15613     15616     15619     15617     15616     15618     15617     15616     15619
     15618     15616     15619     15616     15619     15620     15616     15619     15621
     15616     15619     15622     15620     15619     15621     15620     15619     15622
     15621     15619     15622     15619     15622     15623     15619     15622     15624
     15619     15622     15625     15623     15622     15624     15623     15622     15625
     15624     15622     15625     15622     15625     15626     15622     15625     15627
     15622     15625     15628     15626     15625     15627     15626     15625     15628
     15627     15625     15628     15625     15628     15629     15625     15628     15630
     15625     15628     15631     15629     15628     15630     15629     15628     15631
     15630     15628     15631     15628     15631     15632     15628     15631     15633
     15628     15631     15634     15632     15631     15633     15632     15631     15634
     15633     15631     15634     15636     15635     15637     15636     15635     15638
     15636     15635     15639     15637     15635     15638     15637     15635     15639
     15638     15635     15639     15635     15639     15640     15635     15639     15641
     15635     15639     15642     15640     15639     15641     15640     15639     15642
     15641     15639     15642     15639     15642     15643     15639     15642     15644
     15639     15642     15649     15643     15642     15644     15643     15642     15649
     15644     15642     15649     15646     15645     15647     15646     15645     15648
     15646     15645     15649     15647     15645     15648     15647     15645     15649
     15648     15645     15649     15645     15648     15650     15642     15649     15645
     15648     15650     15651     15648     15650     15652     15648     15650     15653
     15651     15650     15652     15651     15650     15653     15652     15650     15653
     15650     15653     15654     15650     15653     15655     15650     15653     15661
     15654     15653     15655     15654     15653     15661     15655     15653     15661
     15653     15655     15656     15655     15656     15657     15655     15656     15658
     15657     15656     15658     15656     15658     15659     15656     15658     15660
     15656     15658     15670     15659     15658     15660     15659     15658     15670
     15660     15658     15670     15653     15661     15662     15653     15661     15663
     15653     15661     15664     15662     15661     15663     15662     15661     15664
     15663     15661     15664     15661     15664     15665     15664     15665     15666
     15664     15665     15667     15666     15665     15667     15665     15667     15668
     15665     15667     15669     15665     15667     15714     15668     15667     15669
     15668     15667     15714     15669     15667     15714     15658     15670     15671
     15658     15670     15672     15658     15670     15673     15671     15670     15672
     15671     15670     15673     15672     15670     15673     15670     15673     15674
     15670     15673     15675     15670     15673     15676     15674     15673     15675
     15674     15673     15676     15675     15673     15676     15673     15676     15677
     15673     15676     15678     15673     15676     15679     15677     15676     15678
     15677     15676     15679     15678     15676     15679     15676     15679     15680
     15676     15679     15681     15676     15679     15682     15680     15679     15681
     15680     15679     15682     15681     15679     15682     15679     15682     15683
     15679     15682     15684     15679     15682     15685     15683     15682     15684
     15683     15682     15685     15684     15682     15685     15682     15685     15686
     15682     15685     15687     15682     15685     15688     15686     15685     15687
     15686     15685     15688     15687     15685     15688     15685     15688     15689
     15685     15688     15690     15685     15688     15693     15689     15688     15690
     15689     15688     15693     15690     15688     15693     15688     15690     15691
     15688     15690     15692     15688     15690     15693     15691     15690     15692
     15691     15690     15693     15692     15690     15693     15688     15693     15690
     15688     15693     15694     15688     15693     15695     15690     15693     15694
     15690     15693     15695     15694     15693     15695     15693     15695     15696
     15693     15695     15697     15693     15695     15698     15696     15695     15697
     15696     15695     15698     15697     15695     15698     15695     15698     15699
     15695     15698     15700     15695     15698     15701     15699     15698     15700
     15699     15698     15701     15700     15698     15701     15698     15701     15702
     15698     15701     15703     15698     15701     15704     15702     15701     15703
     15702     15701     15704     15703     15701     15704     15701     15704     15705
     15701     15704     15706     15701     15704     15707     15705     15704     15706
     15705     15704     15707     15706     15704     15707     15704     15707     15708
     15704     15707     15709     15704     15707     15710     15708     15707     15709
     15708     15707     15710     15709     15707     15710     15707     15710     15711
     15707     15710     15712     15707     15710     15713     15711     15710     15712
     15711     15710     15713     15712     15710     15713     15667     15714     15715
     15667     15714     15716     15667     15714     15717     15715     15714     15716
     15715     15714     15717     15716     15714     15717     15714     15717     15718
     15714     15717     15719     15714     15717     15720     15718     15717     15719
     15718     15717     15720     15719     15717     15720     15717     15720     15721
     15717     15720     15722     15717     15720     15723     15721     15720     15722
     15721     15720     15723     15722     15720     15723     15720     15723     15724
     15720     15723     15725     15720     15723     15726     15724     15723     15725
     15724     15723     15726     15725     15723     15726     15723     15726     15727
     15723     15726     15728     15723     15726     15729     15727     15726     15728
     15727     15726     15729     15728     15726     15729     15726     15729     15730
     15726     15729     15731     15726     15729     15732     15730     15729     15731
     15730     15729     15732     15731     15729     15732     15729     15732     15733
     15729     15732     15734     15729     15732     15735     15733     15732     15734
     15733     15732     15735     15734     15732     15735     15732     15735     15736
     15732     15735     15737     15732     15735     15738     15736     15735     15737
     15736     15735     15738     15737     15735     15738     15735     15738     15739
     15735     15738     15740     15735     15738     15741     15739     15738     15740
     15739     15738     15741     15740     15738     15741     15738     15741     15742
     15738     15741     15743     15738     15741     15744     15742     15741     15743
     15742     15741     15744     15743     15741     15744     15741     15744     15745
     15741     15744     15746     15741     15744     15747     15745     15744     15746
     15745     15744     15747     15746     15744     15747     15744     15747     15748
     15744     15747     15749     15744     15747     15750     15748     15747     15749
     15748     15747     15750     15749     15747     15750     15747     15750     15751
     15747     15750     15752     15747     15750     15753     15751     15750     15752
     15751     15750     15753     15752     15750     15753     15750     15753     15754
     15750     15753     15755     15750     15753     15756     15754     15753     15755
     15754     15753     15756     15755     15753     15756     15758     15757     15759
     15758     15757     15760     15758     15757     15761     15759     15757     15760
     15759     15757     15761     15760     15757     15761     15757     15761     15762
     15757     15761     15763     15757     15761     15764     15762     15761     15763
     15762     15761     15764     15763     15761     15764     15761     15764     15765
     15761     15764     15766     15761     15764     15771     15765     15764     15766
     15765     15764     15771     15766     15764     15771     15768     15767     15769
     15768     15767     15770     15768     15767     15771     15769     15767     15770
     15769     15767     15771     15770     15767     15771     15767     15770     15772
     15764     15771     15767     15770     15772     15773     15770     15772     15774
     15770     15772     15775     15773     15772     15774     15773     15772     15775
     15774     15772     15775     15772     15775     15776     15772     15775     15777
     15772     15775     15783     15776     15775     15777     15776     15775     15783
     15777     15775     15783     15775     15777     15778     15777     15778     15779
     15777     15778     15780     15779     15778     15780     15778     15780     15781
     15778     15780     15782     15778     15780     15792     15781     15780     15782
     15781     15780     15792     15782     15780     15792     15775     15783     15784
     15775     15783     15785     15775     15783     15786     15784     15783     15785
     15784     15783     15786     15785     15783     15786     15783     15786     15787
     15786     15787     15788     15786     15787     15789     15788     15787     15789
     15787     15789     15790     15787     15789     15791     15787     15789     15836
     15790     15789     15791     15790     15789     15836     15791     15789     15836
     15780     15792     15793     15780     15792     15794     15780     15792     15795
     15793     15792     15794     15793     15792     15795     15794     15792     15795
     15792     15795     15796     15792     15795     15797     15792     15795     15798
     15796     15795     15797     15796     15795     15798     15797     15795     15798
     15795     15798     15799     15795     15798     15800     15795     15798     15801
     15799     15798     15800     15799     15798     15801     15800     15798     15801
     15798     15801     15802     15798     15801     15803     15798     15801     15804
     15802     15801     15803     15802     15801     15804     15803     15801     15804
     15801     15804     15805     15801     15804     15806     15801     15804     15807
     15805     15804     15806     15805     15804     15807     15806     15804     15807
     15804     15807     15808     15804     15807     15809     15804     15807     15810
     15808     15807     15809     15808     15807     15810     15809     15807     15810
     15807     15810     15811     15807     15810     15812     15807     15810     15815
     15811     15810     15812     15811     15810     15815     15812     15810     15815
     15810     15812     15813     15810     15812     15814     15810     15812     15815
     15813     15812     15814     15813     15812     15815     15814     15812     15815
     15810     15815     15812     15810     15815     15816     15810     15815     15817
     15812     15815     15816     15812     15815     15817     15816     15815     15817
     15815     15817     15818     15815     15817     15819     15815     15817     15820
     15818     15817     15819     15818     15817     15820     15819     15817     15820
     15817     15820     15821     15817     15820     15822     15817     15820     15823
     15821     15820     15822     15821     15820     15823     15822     15820     15823
     15820     15823     15824     15820     15823     15825     15820     15823     15826
     15824     15823     15825     15824     15823     15826     15825     15823     15826
     15823     15826     15827     15823     15826     15828     15823     15826     15829
     15827     15826     15828     15827     15826     15829     15828     15826     15829
     15826     15829     15830     15826     15829     15831     15826     15829     15832
     15830     15829     15831     15830     15829     15832     15831     15829     15832
     15829     15832     15833     15829     15832     15834     15829     15832     15835
     15833     15832     15834     15833     15832     15835     15834     15832     15835
     15789     15836     15837     15789     15836     15838     15789     15836     15839
     15837     15836     15838     15837     15836     15839     15838     15836     15839
     15836     15839     15840     15836     15839     15841     15836     15839     15842
     15840     15839     15841     15840     15839     15842     15841     15839     15842
     15839     15842     15843     15839     15842     15844     15839     15842     15845
     15843     15842     15844     15843     15842     15845     15844     15842     15845
     15842     15845     15846     15842     15845     15847     15842     15845     15848
     15846     15845     15847     15846     15845     15848     15847     15845     15848
     15845     15848     15849     15845     15848     15850     15845     15848     15851
     15849     15848     15850     15849     15848     15851     15850     15848     15851
     15848     15851     15852     15848     15851     15853     15848     15851     15854
     15852     15851     15853     15852     15851     15854     15853     15851     15854
     15851     15854     15855     15851     15854     15856     15851     15854     15857
     15855     15854     15856     15855     15854     15857     15856     15854     15857
     15854     15857     15858     15854     15857     15859     15854     15857     15860
     15858     15857     15859     15858     15857     15860     15859     15857     15860
     15857     15860     15861     15857     15860     15862     15857     15860     15863
     15861     15860     15862     15861     15860     15863     15862     15860     15863
     15860     15863     15864     15860     15863     15865     15860     15863     15866
     15864     15863     15865     15864     15863     15866     15865     15863     15866
     15863     15866     15867     15863     15866     15868     15863     15866     15869
     15867     15866     15868     15867     15866     15869     15868     15866     15869
     15866     15869     15870     15866     15869     15871     15866     15869     15872
     15870     15869     15871     15870     15869     15872     15871     15869     15872
     15869     15872     15873     15869     15872     15874     15869     15872     15875
     15873     15872     15874     15873     15872     15875     15874     15872     15875
     15877     15876     15878     15877     15876     15879     15877     15876     15881
     15878     15876     15879     15878     15876     15881     15879     15876     15881
     15876     15879     15880     15876     15881     15882     15876     15881     15883
     15876     15881     15885     15882     15881     15883     15882     15881     15885
     15883     15881     15885     15881     15883     15884     15881     15885     15886
     15881     15885     15887     15881     15885     15892     15886     15885     15887
     15886     15885     15892     15887     15885     15892     15889     15888     15890
     15889     15888     15891     15889     15888     15892     15890     15888     15891
     15890     15888     15892     15891     15888     15892     15888     15891     15893
     15885     15892     15888     15891     15893     15894     15891     15893     15895
     15891     15893     15896     15894     15893     15895     15894     15893     15896
     15895     15893     15896     15893     15896     15897     15893     15896     15898
     15893     15896     15904     15897     15896     15898     15897     15896     15904
     15898     15896     15904     15896     15898     15899     15898     15899     15900
     15898     15899     15901     15900     15899     15901     15899     15901     15902
     15899     15901     15903     15899     15901     15913     15902     15901     15903
     15902     15901     15913     15903     15901     15913     15896     15904     15905
     15896     15904     15906     15896     15904     15907     15905     15904     15906
     15905     15904     15907     15906     15904     15907     15904     15907     15908
     15907     15908     15909     15907     15908     15910     15909     15908     15910
     15908     15910     15911     15908     15910     15912     15908     15910     15954
     15911     15910     15912     15911     15910     15954     15912     15910     15954
     15901     15913     15914     15901     15913     15915     15901     15913     15916
     15914     15913     15915     15914     15913     15916     15915     15913     15916
     15913     15916     15917     15913     15916     15918     15913     15916     15919
     15917     15916     15918     15917     15916     15919     15918     15916     15919
     15916     15919     15920     15916     15919     15921     15916     15919     15922
     15920     15919     15921     15920     15919     15922     15921     15919     15922
     15919     15922     15923     15919     15922     15924     15919     15922     15925
     15923     15922     15924     15923     15922     15925     15924     15922     15925
     15922     15925     15926     15922     15925     15927     15922     15925     15928
     15926     15925     15927     15926     15925     15928     15927     15925     15928
     15925     15928     15929     15925     15928     15930     15925     15928     15931
     15929     15928     15930     15929     15928     15931     15930     15928     15931
     15928     15931     15932     15928     15931     15933     15932     15931     15933
     15931     15933     15934     15931     15933     15935     15934     15933     15935
     15933     15935     15936     15933     15935     15937     15933     15935     15938
     15936     15935     15937     15936     15935     15938     15937     15935     15938
     15935     15938     15939     15935     15938     15940     15935     15938     15941
     15939     15938     15940     15939     15938     15941     15940     15938     15941
     15938     15941     15942     15938     15941     15943     15938     15941     15944
     15942     15941     15943     15942     15941     15944     15943     15941     15944
     15941     15944     15945     15941     15944     15946     15941     15944     15947
     15945     15944     15946     15945     15944     15947     15946     15944     15947
     15944     15947     15948     15944     15947     15949     15944     15947     15950
     15948     15947     15949     15948     15947     15950     15949     15947     15950
     15947     15950     15951     15947     15950     15952     15947     15950     15953
     15951     15950     15952     15951     15950     15953     15952     15950     15953
     15910     15954     15955     15910     15954     15956     15910     15954     15957
     15955     15954     15956     15955     15954     15957     15956     15954     15957
     15954     15957     15958     15954     15957     15959     15954     15957     15960
     15958     15957     15959     15958     15957     15960     15959     15957     15960
     15957     15960     15961     15957     15960     15962     15957     15960     15963
     15961     15960     15962     15961     15960     15963     15962     15960     15963
     15960     15963     15964     15960     15963     15965     15960     15963     15966
     15964     15963     15965     15964     15963     15966     15965     15963     15966
     15963     15966     15967     15963     15966     15968     15963     15966     15969
     15967     15966     15968     15967     15966     15969     15968     15966     15969
     15966     15969     15970     15966     15969     15971     15966     15969     15972
     15970     15969     15971     15970     15969     15972     15971     15969     15972
     15969     15972     15973     15969     15972     15974     15969     15972     15975
     15973     15972     15974     15973     15972     15975     15974     15972     15975
     15972     15975     15976     15972     15975     15977     15972     15975     15978
     15976     15975     15977     15976     15975     15978     15977     15975     15978
     15975     15978     15979     15975     15978     15980     15975     15978     15981
     15979     15978     15980     15979     15978     15981     15980     15978     15981
     15978     15981     15982     15978     15981     15983     15978     15981     15984
     15982     15981     15983     15982     15981     15984     15983     15981     15984
     15981     15984     15985     15981     15984     15986     15981     15984     15987
     15985     15984     15986     15985     15984     15987     15986     15984     15987
     15984     15987     15988     15984     15987     15989     15984     15987     15990
     15988     15987     15989     15988     15987     15990     15989     15987     15990
     15987     15990     15991     15987     15990     15992     15987     15990     15993
     15991     15990     15992     15991     15990     15993     15992     15990     15993
     15990     15993     15994     15990     15993     15995     15990     15993     15996
     15994     15993     15995     15994     15993     15996     15995     15993     15996
     15998     15997     15999     15998     15997     16000     15998     15997     16002
     15999     15997     16000     15999     15997     16002     16000     15997     16002
     15997     16000     16001     15997     16002     16003     15997     16002     16004
     15997     16002     16006     16003     16002     16004     16003     16002     16006
     16004     16002     16006     16002     16004     16005     16002     16006     16007
     16002     16006     16008     16002     16006     16013     16007     16006     16008
     16007     16006     16013     16008     16006     16013     16010     16009     16011
     16010     16009     16012     16010     16009     16013     16011     16009     16012
     16011     16009     16013     16012     16009     16013     16009     16012     16014
     16006     16013     16009     16012     16014     16015     16012     16014     16016
     16012     16014     16017     16015     16014     16016     16015     16014     16017
     16016     16014     16017     16014     16017     16018     16014     16017     16019
     16014     16017     16025     16018     16017     16019     16018     16017     16025
     16019     16017     16025     16017     16019     16020     16019     16020     16021
     16019     16020     16022     16021     16020     16022     16020     16022     16023
     16020     16022     16024     16020     16022     16034     16023     16022     16024
     16023     16022     16034     16024     16022     16034     16017     16025     16026
     16017     16025     16027     16017     16025     16028     16026     16025     16027
     16026     16025     16028     16027     16025     16028     16025     16028     16029
     16028     16029     16030     16028     16029     16031     16030     16029     16031
     16029     16031     16032     16029     16031     16033     16029     16031     16075
     16032     16031     16033     16032     16031     16075     16033     16031     16075
     16022     16034     16035     16022     16034     16036     16022     16034     16037
     16035     16034     16036     16035     16034     16037     16036     16034     16037
     16034     16037     16038     16034     16037     16039     16034     16037     16040
     16038     16037     16039     16038     16037     16040     16039     16037     16040
     16037     16040     16041     16037     16040     16042     16037     16040     16043
     16041     16040     16042     16041     16040     16043     16042     16040     16043
     16040     16043     16044     16040     16043     16045     16040     16043     16046
     16044     16043     16045     16044     16043     16046     16045     16043     16046
     16043     16046     16047     16043     16046     16048     16043     16046     16049
     16047     16046     16048     16047     16046     16049     16048     16046     16049
     16046     16049     16050     16046     16049     16051     16046     16049     16052
     16050     16049     16051     16050     16049     16052     16051     16049     16052
     16049     16052     16053     16049     16052     16054     16053     16052     16054
     16052     16054     16055     16052     16054     16056     16055     16054     16056
     16054     16056     16057     16054     16056     16058     16054     16056     16059
     16057     16056     16058     16057     16056     16059     16058     16056     16059
     16056     16059     16060     16056     16059     16061     16056     16059     16062
     16060     16059     16061     16060     16059     16062     16061     16059     16062
     16059     16062     16063     16059     16062     16064     16059     16062     16065
     16063     16062     16064     16063     16062     16065     16064     16062     16065
     16062     16065     16066     16062     16065     16067     16062     16065     16068
     16066     16065     16067     16066     16065     16068     16067     16065     16068
     16065     16068     16069     16065     16068     16070     16065     16068     16071
     16069     16068     16070     16069     16068     16071     16070     16068     16071
     16068     16071     16072     16068     16071     16073     16068     16071     16074
     16072     16071     16073     16072     16071     16074     16073     16071     16074
     16031     16075     16076     16031     16075     16077     16031     16075     16078
     16076     16075     16077     16076     16075     16078     16077     16075     16078
     16075     16078     16079     16075     16078     16080     16075     16078     16081
     16079     16078     16080     16079     16078     16081     16080     16078     16081
     16078     16081     16082     16078     16081     16083     16078     16081     16084
     16082     16081     16083     16082     16081     16084     16083     16081     16084
     16081     16084     16085     16081     16084     16086     16081     16084     16087
     16085     16084     16086     16085     16084     16087     16086     16084     16087
     16084     16087     16088     16084     16087     16089     16084     16087     16090
     16088     16087     16089     16088     16087     16090     16089     16087     16090
     16087     16090     16091     16087     16090     16092     16087     16090     16093
     16091     16090     16092     16091     16090     16093     16092     16090     16093
     16090     16093     16094     16090     16093     16095     16090     16093     16096
     16094     16093     16095     16094     16093     16096     16095     16093     16096
     16093     16096     16097     16093     16096     16098     16093     16096     16099
     16097     16096     16098     16097     16096     16099     16098     16096     16099
     16096     16099     16100     16096     16099     16101     16096     16099     16102
     16100     16099     16101     16100     16099     16102     16101     16099     16102
     16099     16102     16103     16099     16102     16104     16099     16102     16105
     16103     16102     16104     16103     16102     16105     16104     16102     16105
     16102     16105     16106     16102     16105     16107     16102     16105     16108
     16106     16105     16107     16106     16105     16108     16107     16105     16108
     16105     16108     16109     16105     16108     16110     16105     16108     16111
     16109     16108     16110     16109     16108     16111     16110     16108     16111
     16108     16111     16112     16108     16111     16113     16108     16111     16114
     16112     16111     16113     16112     16111     16114     16113     16111     16114
     16111     16114     16115     16111     16114     16116     16111     16114     16117
     16115     16114     16116     16115     16114     16117     16116     16114     16117
     16119     16118     16120     16119     16118     16121     16119     16118     16122
     16120     16118     16121     16120     16118     16122     16121     16118     16122
     16118     16122     16123     16118     16122     16124     16118     16122     16125
     16123     16122     16124     16123     16122     16125     16124     16122     16125
     16122     16125     16126     16122     16125     16127     16122     16125     16132
     16126     16125     16127     16126     16125     16132     16127     16125     16132
     16129     16128     16130     16129     16128     16131     16129     16128     16132
     16130     16128     16131     16130     16128     16132     16131     16128     16132
     16128     16131     16133     16125     16132     16128     16131     16133     16134
     16131     16133     16135     16131     16133     16136     16134     16133     16135
     16134     16133     16136     16135     16133     16136     16133     16136     16137
     16133     16136     16138     16133     16136     16144     16137     16136     16138
     16137     16136     16144     16138     16136     16144     16136     16138     16139
     16138     16139     16140     16138     16139     16141     16140     16139     16141
     16139     16141     16142     16139     16141     16143     16139     16141     16153
     16142     16141     16143     16142     16141     16153     16143     16141     16153
     16136     16144     16145     16136     16144     16146     16136     16144     16147
     16145     16144     16146     16145     16144     16147     16146     16144     16147
     16144     16147     16148     16147     16148     16149     16147     16148     16150
     16149     16148     16150     16148     16150     16151     16148     16150     16152
     16148     16150     16197     16151     16150     16152     16151     16150     16197
     16152     16150     16197     16141     16153     16154     16141     16153     16155
     16141     16153     16156     16154     16153     16155     16154     16153     16156
     16155     16153     16156     16153     16156     16157     16153     16156     16158
     16153     16156     16159     16157     16156     16158     16157     16156     16159
     16158     16156     16159     16156     16159     16160     16156     16159     16161
     16156     16159     16162     16160     16159     16161     16160     16159     16162
     16161     16159     16162     16159     16162     16163     16159     16162     16164
     16159     16162     16165     16163     16162     16164     16163     16162     16165
     16164     16162     16165     16162     16165     16166     16162     16165     16167
     16162     16165     16168     16166     16165     16167     16166     16165     16168
     16167     16165     16168     16165     16168     16169     16165     16168     16170
     16165     16168     16171     16169     16168     16170     16169     16168     16171
     16170     16168     16171     16168     16171     16172     16168     16171     16173
     16168     16171     16176     16172     16171     16173     16172     16171     16176
     16173     16171     16176     16171     16173     16174     16171     16173     16175
     16171     16173     16176     16174     16173     16175     16174     16173     16176
     16175     16173     16176     16171     16176     16173     16171     16176     16177
     16171     16176     16178     16173     16176     16177     16173     16176     16178
     16177     16176     16178     16176     16178     16179     16176     16178     16180
     16176     16178     16181     16179     16178     16180     16179     16178     16181
     16180     16178     16181     16178     16181     16182     16178     16181     16183
     16178     16181     16184     16182     16181     16183     16182     16181     16184
     16183     16181     16184     16181     16184     16185     16181     16184     16186
     16181     16184     16187     16185     16184     16186     16185     16184     16187
     16186     16184     16187     16184     16187     16188     16184     16187     16189
     16184     16187     16190     16188     16187     16189     16188     16187     16190
     16189     16187     16190     16187     16190     16191     16187     16190     16192
     16187     16190     16193     16191     16190     16192     16191     16190     16193
     16192     16190     16193     16190     16193     16194     16190     16193     16195
     16190     16193     16196     16194     16193     16195     16194     16193     16196
     16195     16193     16196     16150     16197     16198     16150     16197     16199
     16150     16197     16200     16198     16197     16199     16198     16197     16200
     16199     16197     16200     16197     16200     16201     16197     16200     16202
     16197     16200     16203     16201     16200     16202     16201     16200     16203
     16202     16200     16203     16200     16203     16204     16200     16203     16205
     16200     16203     16206     16204     16203     16205     16204     16203     16206
     16205     16203     16206     16203     16206     16207     16203     16206     16208
     16203     16206     16209     16207     16206     16208     16207     16206     16209
     16208     16206     16209     16206     16209     16210     16206     16209     16211
     16206     16209     16212     16210     16209     16211     16210     16209     16212
     16211     16209     16212     16209     16212     16213     16209     16212     16214
     16209     16212     16215     16213     16212     16214     16213     16212     16215
     16214     16212     16215     16212     16215     16216     16212     16215     16217
     16212     16215     16218     16216     16215     16217     16216     16215     16218
     16217     16215     16218     16215     16218     16219     16215     16218     16220
     16215     16218     16221     16219     16218     16220     16219     16218     16221
     16220     16218     16221     16218     16221     16222     16218     16221     16223
     16218     16221     16224     16222     16221     16223     16222     16221     16224
     16223     16221     16224     16221     16224     16225     16221     16224     16226
     16221     16224     16227     16225     16224     16226     16225     16224     16227
     16226     16224     16227     16224     16227     16228     16224     16227     16229
     16224     16227     16230     16228     16227     16229     16228     16227     16230
     16229     16227     16230     16227     16230     16231     16227     16230     16232
     16227     16230     16233     16231     16230     16232     16231     16230     16233
     16232     16230     16233     16230     16233     16234     16230     16233     16235
     16230     16233     16236     16234     16233     16235     16234     16233     16236
     16235     16233     16236     16233     16236     16237     16233     16236     16238
     16233     16236     16239     16237     16236     16238     16237     16236     16239
     16238     16236     16239     16241     16240     16242     16241     16240     16243
     16241     16240     16244     16242     16240     16243     16242     16240     16244
     16243     16240     16244     16240     16244     16245     16240     16244     16246
     16240     16244     16247     16245     16244     16246     16245     16244     16247
     16246     16244     16247     16244     16247     16248     16244     16247     16249
     16244     16247     16254     16248     16247     16249     16248     16247     16254
     16249     16247     16254     16251     16250     16252     16251     16250     16253
     16251     16250     16254     16252     16250     16253     16252     16250     16254
     16253     16250     16254     16250     16253     16255     16247     16254     16250
     16253     16255     16256     16253     16255     16257     16253     16255     16258
     16256     16255     16257     16256     16255     16258     16257     16255     16258
     16255     16258     16259     16255     16258     16260     16255     16258     16266
     16259     16258     16260     16259     16258     16266     16260     16258     16266
     16258     16260     16261     16260     16261     16262     16260     16261     16263
     16262     16261     16263     16261     16263     16264     16261     16263     16265
     16261     16263     16275     16264     16263     16265     16264     16263     16275
     16265     16263     16275     16258     16266     16267     16258     16266     16268
     16258     16266     16269     16267     16266     16268     16267     16266     16269
     16268     16266     16269     16266     16269     16270     16269     16270     16271
     16269     16270     16272     16271     16270     16272     16270     16272     16273
     16270     16272     16274     16270     16272     16319     16273     16272     16274
     16273     16272     16319     16274     16272     16319     16263     16275     16276
     16263     16275     16277     16263     16275     16278     16276     16275     16277
     16276     16275     16278     16277     16275     16278     16275     16278     16279
     16275     16278     16280     16275     16278     16281     16279     16278     16280
     16279     16278     16281     16280     16278     16281     16278     16281     16282
     16278     16281     16283     16278     16281     16284     16282     16281     16283
     16282     16281     16284     16283     16281     16284     16281     16284     16285
     16281     16284     16286     16281     16284     16287     16285     16284     16286
     16285     16284     16287     16286     16284     16287     16284     16287     16288
     16284     16287     16289     16284     16287     16290     16288     16287     16289
     16288     16287     16290     16289     16287     16290     16287     16290     16291
     16287     16290     16292     16287     16290     16293     16291     16290     16292
     16291     16290     16293     16292     16290     16293     16290     16293     16294
     16290     16293     16295     16290     16293     16298     16294     16293     16295
     16294     16293     16298     16295     16293     16298     16293     16295     16296
     16293     16295     16297     16293     16295     16298     16296     16295     16297
     16296     16295     16298     16297     16295     16298     16293     16298     16295
     16293     16298     16299     16293     16298     16300     16295     16298     16299
     16295     16298     16300     16299     16298     16300     16298     16300     16301
     16298     16300     16302     16298     16300     16303     16301     16300     16302
     16301     16300     16303     16302     16300     16303     16300     16303     16304
     16300     16303     16305     16300     16303     16306     16304     16303     16305
     16304     16303     16306     16305     16303     16306     16303     16306     16307
     16303     16306     16308     16303     16306     16309     16307     16306     16308
     16307     16306     16309     16308     16306     16309     16306     16309     16310
     16306     16309     16311     16306     16309     16312     16310     16309     16311
     16310     16309     16312     16311     16309     16312     16309     16312     16313
     16309     16312     16314     16309     16312     16315     16313     16312     16314
     16313     16312     16315     16314     16312     16315     16312     16315     16316
     16312     16315     16317     16312     16315     16318     16316     16315     16317
     16316     16315     16318     16317     16315     16318     16272     16319     16320
     16272     16319     16321     16272     16319     16322     16320     16319     16321
     16320     16319     16322     16321     16319     16322     16319     16322     16323
     16319     16322     16324     16319     16322     16325     16323     16322     16324
     16323     16322     16325     16324     16322     16325     16322     16325     16326
     16322     16325     16327     16322     16325     16328     16326     16325     16327
     16326     16325     16328     16327     16325     16328     16325     16328     16329
     16325     16328     16330     16325     16328     16331     16329     16328     16330
     16329     16328     16331     16330     16328     16331     16328     16331     16332
     16328     16331     16333     16328     16331     16334     16332     16331     16333
     16332     16331     16334     16333     16331     16334     16331     16334     16335
     16331     16334     16336     16331     16334     16337     16335     16334     16336
     16335     16334     16337     16336     16334     16337     16334     16337     16338
     16334     16337     16339     16334     16337     16340     16338     16337     16339
     16338     16337     16340     16339     16337     16340     16337     16340     16341
     16337     16340     16342     16337     16340     16343     16341     16340     16342
     16341     16340     16343     16342     16340     16343     16340     16343     16344
     16340     16343     16345     16340     16343     16346     16344     16343     16345
     16344     16343     16346     16345     16343     16346     16343     16346     16347
     16343     16346     16348     16343     16346     16349     16347     16346     16348
     16347     16346     16349     16348     16346     16349     16346     16349     16350
     16346     16349     16351     16346     16349     16352     16350     16349     16351
     16350     16349     16352     16351     16349     16352     16349     16352     16353
     16349     16352     16354     16349     16352     16355     16353     16352     16354
     16353     16352     16355     16354     16352     16355     16352     16355     16356
     16352     16355     16357     16352     16355     16358     16356     16355     16357
     16356     16355     16358     16357     16355     16358     16360     16359     16361
     16360     16359     16362     16360     16359     16363     16361     16359     16362
     16361     16359     16363     16362     16359     16363     16359     16363     16364
     16359     16363     16365     16359     16363     16366     16364     16363     16365
     16364     16363     16366     16365     16363     16366     16363     16366     16367
     16363     16366     16368     16363     16366     16373     16367     16366     16368
     16367     16366     16373     16368     16366     16373     16370     16369     16371
     16370     16369     16372     16370     16369     16373     16371     16369     16372
     16371     16369     16373     16372     16369     16373     16369     16372     16374
     16366     16373     16369     16372     16374     16375     16372     16374     16376
     16372     16374     16377     16375     16374     16376     16375     16374     16377
     16376     16374     16377     16374     16377     16378     16374     16377     16379
     16374     16377     16385     16378     16377     16379     16378     16377     16385
     16379     16377     16385     16377     16379     16380     16379     16380     16381
     16379     16380     16382     16381     16380     16382     16380     16382     16383
     16380     16382     16384     16380     16382     16394     16383     16382     16384
     16383     16382     16394     16384     16382     16394     16377     16385     16386
     16377     16385     16387     16377     16385     16388     16386     16385     16387
     16386     16385     16388     16387     16385     16388     16385     16388     16389
     16388     16389     16390     16388     16389     16391     16390     16389     16391
     16389     16391     16392     16389     16391     16393     16389     16391     16438
     16392     16391     16393     16392     16391     16438     16393     16391     16438
     16382     16394     16395     16382     16394     16396     16382     16394     16397
     16395     16394     16396     16395     16394     16397     16396     16394     16397
     16394     16397     16398     16394     16397     16399     16394     16397     16400
     16398     16397     16399     16398     16397     16400     16399     16397     16400
     16397     16400     16401     16397     16400     16402     16397     16400     16403
     16401     16400     16402     16401     16400     16403     16402     16400     16403
     16400     16403     16404     16400     16403     16405     16400     16403     16406
     16404     16403     16405     16404     16403     16406     16405     16403     16406
     16403     16406     16407     16403     16406     16408     16403     16406     16409
     16407     16406     16408     16407     16406     16409     16408     16406     16409
     16406     16409     16410     16406     16409     16411     16406     16409     16412
     16410     16409     16411     16410     16409     16412     16411     16409     16412
     16409     16412     16413     16409     16412     16414     16409     16412     16417
     16413     16412     16414     16413     16412     16417     16414     16412     16417
     16412     16414     16415     16412     16414     16416     16412     16414     16417
     16415     16414     16416     16415     16414     16417     16416     16414     16417
     16412     16417     16414     16412     16417     16418     16412     16417     16419
     16414     16417     16418     16414     16417     16419     16418     16417     16419
     16417     16419     16420     16417     16419     16421     16417     16419     16422
     16420     16419     16421     16420     16419     16422     16421     16419     16422
     16419     16422     16423     16419     16422     16424     16419     16422     16425
     16423     16422     16424     16423     16422     16425     16424     16422     16425
     16422     16425     16426     16422     16425     16427     16422     16425     16428
     16426     16425     16427     16426     16425     16428     16427     16425     16428
     16425     16428     16429     16425     16428     16430     16425     16428     16431
     16429     16428     16430     16429     16428     16431     16430     16428     16431
     16428     16431     16432     16428     16431     16433     16428     16431     16434
     16432     16431     16433     16432     16431     16434     16433     16431     16434
     16431     16434     16435     16431     16434     16436     16431     16434     16437
     16435     16434     16436     16435     16434     16437     16436     16434     16437
     16391     16438     16439     16391     16438     16440     16391     16438     16441
     16439     16438     16440     16439     16438     16441     16440     16438     16441
     16438     16441     16442     16438     16441     16443     16438     16441     16444
     16442     16441     16443     16442     16441     16444     16443     16441     16444
     16441     16444     16445     16441     16444     16446     16441     16444     16447
     16445     16444     16446     16445     16444     16447     16446     16444     16447
     16444     16447     16448     16444     16447     16449     16444     16447     16450
     16448     16447     16449     16448     16447     16450     16449     16447     16450
     16447     16450     16451     16447     16450     16452     16447     16450     16453
     16451     16450     16452     16451     16450     16453     16452     16450     16453
     16450     16453     16454     16450     16453     16455     16450     16453     16456
     16454     16453     16455     16454     16453     16456     16455     16453     16456
     16453     16456     16457     16453     16456     16458     16453     16456     16459
     16457     16456     16458     16457     16456     16459     16458     16456     16459
     16456     16459     16460     16456     16459     16461     16456     16459     16462
     16460     16459     16461     16460     16459     16462     16461     16459     16462
     16459     16462     16463     16459     16462     16464     16459     16462     16465
     16463     16462     16464     16463     16462     16465     16464     16462     16465
     16462     16465     16466     16462     16465     16467     16462     16465     16468
     16466     16465     16467     16466     16465     16468     16467     16465     16468
     16465     16468     16469     16465     16468     16470     16465     16468     16471
     16469     16468     16470     16469     16468     16471     16470     16468     16471
     16468     16471     16472     16468     16471     16473     16468     16471     16474
     16472     16471     16473     16472     16471     16474     16473     16471     16474
     16471     16474     16475     16471     16474     16476     16471     16474     16477
     16475     16474     16476     16475     16474     16477     16476     16474     16477
     16474     16477     16478     16474     16477     16479     16474     16477     16480
     16478     16477     16479     16478     16477     16480     16479     16477     16480
     16482     16481     16483     16482     16481     16484     16482     16481     16485
     16483     16481     16484     16483     16481     16485     16484     16481     16485
     16481     16485     16486     16481     16485     16487     16481     16485     16488
     16486     16485     16487     16486     16485     16488     16487     16485     16488
     16485     16488     16489     16485     16488     16490     16485     16488     16495
     16489     16488     16490     16489     16488     16495     16490     16488     16495
     16492     16491     16493     16492     16491     16494     16492     16491     16495
     16493     16491     16494     16493     16491     16495     16494     16491     16495
     16491     16494     16496     16488     16495     16491     16494     16496     16497
     16494     16496     16498     16494     16496     16499     16497     16496     16498
     16497     16496     16499     16498     16496     16499     16496     16499     16500
     16496     16499     16501     16496     16499     16507     16500     16499     16501
     16500     16499     16507     16501     16499     16507     16499     16501     16502
     16501     16502     16503     16501     16502     16504     16503     16502     16504
     16502     16504     16505     16502     16504     16506     16502     16504     16516
     16505     16504     16506     16505     16504     16516     16506     16504     16516
     16499     16507     16508     16499     16507     16509     16499     16507     16510
     16508     16507     16509     16508     16507     16510     16509     16507     16510
     16507     16510     16511     16510     16511     16512     16510     16511     16513
     16512     16511     16513     16511     16513     16514     16511     16513     16515
     16511     16513     16560     16514     16513     16515     16514     16513     16560
     16515     16513     16560     16504     16516     16517     16504     16516     16518
     16504     16516     16519     16517     16516     16518     16517     16516     16519
     16518     16516     16519     16516     16519     16520     16516     16519     16521
     16516     16519     16522     16520     16519     16521     16520     16519     16522
     16521     16519     16522     16519     16522     16523     16519     16522     16524
     16519     16522     16525     16523     16522     16524     16523     16522     16525
     16524     16522     16525     16522     16525     16526     16522     16525     16527
     16522     16525     16528     16526     16525     16527     16526     16525     16528
     16527     16525     16528     16525     16528     16529     16525     16528     16530
     16525     16528     16531     16529     16528     16530     16529     16528     16531
     16530     16528     16531     16528     16531     16532     16528     16531     16533
     16528     16531     16534     16532     16531     16533     16532     16531     16534
     16533     16531     16534     16531     16534     16535     16531     16534     16536
     16531     16534     16539     16535     16534     16536     16535     16534     16539
     16536     16534     16539     16534     16536     16537     16534     16536     16538
     16534     16536     16539     16537     16536     16538     16537     16536     16539
     16538     16536     16539     16534     16539     16536     16534     16539     16540
     16534     16539     16541     16536     16539     16540     16536     16539     16541
     16540     16539     16541     16539     16541     16542     16539     16541     16543
     16539     16541     16544     16542     16541     16543     16542     16541     16544
     16543     16541     16544     16541     16544     16545     16541     16544     16546
     16541     16544     16547     16545     16544     16546     16545     16544     16547
     16546     16544     16547     16544     16547     16548     16544     16547     16549
     16544     16547     16550     16548     16547     16549     16548     16547     16550
     16549     16547     16550     16547     16550     16551     16547     16550     16552
     16547     16550     16553     16551     16550     16552     16551     16550     16553
     16552     16550     16553     16550     16553     16554     16550     16553     16555
     16550     16553     16556     16554     16553     16555     16554     16553     16556
     16555     16553     16556     16553     16556     16557     16553     16556     16558
     16553     16556     16559     16557     16556     16558     16557     16556     16559
     16558     16556     16559     16513     16560     16561     16513     16560     16562
     16513     16560     16563     16561     16560     16562     16561     16560     16563
     16562     16560     16563     16560     16563     16564     16560     16563     16565
     16560     16563     16566     16564     16563     16565     16564     16563     16566
     16565     16563     16566     16563     16566     16567     16563     16566     16568
     16563     16566     16569     16567     16566     16568     16567     16566     16569
     16568     16566     16569     16566     16569     16570     16566     16569     16571
     16566     16569     16572     16570     16569     16571     16570     16569     16572
     16571     16569     16572     16569     16572     16573     16569     16572     16574
     16569     16572     16575     16573     16572     16574     16573     16572     16575
     16574     16572     16575     16572     16575     16576     16572     16575     16577
     16572     16575     16578     16576     16575     16577     16576     16575     16578
     16577     16575     16578     16575     16578     16579     16575     16578     16580
     16575     16578     16581     16579     16578     16580     16579     16578     16581
     16580     16578     16581     16578     16581     16582     16578     16581     16583
     16578     16581     16584     16582     16581     16583     16582     16581     16584
     16583     16581     16584     16581     16584     16585     16581     16584     16586
     16581     16584     16587     16585     16584     16586     16585     16584     16587
     16586     16584     16587     16584     16587     16588     16584     16587     16589
     16584     16587     16590     16588     16587     16589     16588     16587     16590
     16589     16587     16590     16587     16590     16591     16587     16590     16592
     16587     16590     16593     16591     16590     16592     16591     16590     16593
     16592     16590     16593     16590     16593     16594     16590     16593     16595
     16590     16593     16596     16594     16593     16595     16594     16593     16596
     16595     16593     16596     16593     16596     16597     16593     16596     16598
     16593     16596     16599     16597     16596     16598     16597     16596     16599
     16598     16596     16599     16601     16600     16602     16601     16600     16603
     16601     16600     16604     16602     16600     16603     16602     16600     16604
     16603     16600     16604     16600     16604     16605     16600     16604     16606
     16600     16604     16607     16605     16604     16606     16605     16604     16607
     16606     16604     16607     16604     16607     16608     16604     16607     16609
     16604     16607     16614     16608     16607     16609     16608     16607     16614
     16609     16607     16614     16611     16610     16612     16611     16610     16613
     16611     16610     16614     16612     16610     16613     16612     16610     16614
     16613     16610     16614     16610     16613     16615     16607     16614     16610
     16613     16615     16616     16613     16615     16617     16613     16615     16618
     16616     16615     16617     16616     16615     16618     16617     16615     16618
     16615     16618     16619     16615     16618     16620     16615     16618     16626
     16619     16618     16620     16619     16618     16626     16620     16618     16626
     16618     16620     16621     16620     16621     16622     16620     16621     16623
     16622     16621     16623     16621     16623     16624     16621     16623     16625
     16621     16623     16635     16624     16623     16625     16624     16623     16635
     16625     16623     16635     16618     16626     16627     16618     16626     16628
     16618     16626     16629     16627     16626     16628     16627     16626     16629
     16628     16626     16629     16626     16629     16630     16629     16630     16631
     16629     16630     16632     16631     16630     16632     16630     16632     16633
     16630     16632     16634     16630     16632     16676     16633     16632     16634
     16633     16632     16676     16634     16632     16676     16623     16635     16636
     16623     16635     16637     16623     16635     16638     16636     16635     16637
     16636     16635     16638     16637     16635     16638     16635     16638     16639
     16635     16638     16640     16635     16638     16641     16639     16638     16640
     16639     16638     16641     16640     16638     16641     16638     16641     16642
     16638     16641     16643     16638     16641     16644     16642     16641     16643
     16642     16641     16644     16643     16641     16644     16641     16644     16645
     16641     16644     16646     16641     16644     16647     16645     16644     16646
     16645     16644     16647     16646     16644     16647     16644     16647     16648
     16644     16647     16649     16644     16647     16650     16648     16647     16649
     16648     16647     16650     16649     16647     16650     16647     16650     16651
     16647     16650     16652     16647     16650     16653     16651     16650     16652
     16651     16650     16653     16652     16650     16653     16650     16653     16654
     16650     16653     16655     16654     16653     16655     16653     16655     16656
     16653     16655     16657     16656     16655     16657     16655     16657     16658
     16655     16657     16659     16655     16657     16660     16658     16657     16659
     16658     16657     16660     16659     16657     16660     16657     16660     16661
     16657     16660     16662     16657     16660     16663     16661     16660     16662
     16661     16660     16663     16662     16660     16663     16660     16663     16664
     16660     16663     16665     16660     16663     16666     16664     16663     16665
     16664     16663     16666     16665     16663     16666     16663     16666     16667
     16663     16666     16668     16663     16666     16669     16667     16666     16668
     16667     16666     16669     16668     16666     16669     16666     16669     16670
     16666     16669     16671     16666     16669     16672     16670     16669     16671
     16670     16669     16672     16671     16669     16672     16669     16672     16673
     16669     16672     16674     16669     16672     16675     16673     16672     16674
     16673     16672     16675     16674     16672     16675     16632     16676     16677
     16632     16676     16678     16632     16676     16679     16677     16676     16678
     16677     16676     16679     16678     16676     16679     16676     16679     16680
     16676     16679     16681     16676     16679     16682     16680     16679     16681
     16680     16679     16682     16681     16679     16682     16679     16682     16683
     16679     16682     16684     16679     16682     16685     16683     16682     16684
     16683     16682     16685     16684     16682     16685     16682     16685     16686
     16682     16685     16687     16682     16685     16688     16686     16685     16687
     16686     16685     16688     16687     16685     16688     16685     16688     16689
     16685     16688     16690     16685     16688     16691     16689     16688     16690
     16689     16688     16691     16690     16688     16691     16688     16691     16692
     16688     16691     16693     16688     16691     16694     16692     16691     16693
     16692     16691     16694     16693     16691     16694     16691     16694     16695
     16691     16694     16696     16695     16694     16696     16694     16696     16697
     16694     16696     16698     16697     16696     16698     16696     16698     16699
     16696     16698     16700     16696     16698     16701     16699     16698     16700
     16699     16698     16701     16700     16698     16701     16698     16701     16702
     16698     16701     16703     16698     16701     16704     16702     16701     16703
     16702     16701     16704     16703     16701     16704     16701     16704     16705
     16701     16704     16706     16701     16704     16707     16705     16704     16706
     16705     16704     16707     16706     16704     16707     16704     16707     16708
     16704     16707     16709     16704     16707     16710     16708     16707     16709
     16708     16707     16710     16709     16707     16710     16707     16710     16711
     16707     16710     16712     16707     16710     16713     16711     16710     16712
     16711     16710     16713     16712     16710     16713     16710     16713     16714
     16710     16713     16715     16710     16713     16716     16714     16713     16715
     16714     16713     16716     16715     16713     16716     16713     16716     16717
     16713     16716     16718     16713     16716     16719     16717     16716     16718
     16717     16716     16719     16718     16716     16719     16716     16719     16720
     16716     16719     16721     16716     16719     16722     16720     16719     16721
     16720     16719     16722     16721     16719     16722     16724     16723     16725
     16724     16723     16726     16724     16723     16727     16725     16723     16726
     16725     16723     16727     16726     16723     16727     16723     16727     16728
     16723     16727     16729     16723     16727     16730     16728     16727     16729
     16728     16727     16730     16729     16727     16730     16727     16730     16731
     16727     16730     16732     16727     16730     16737     16731     16730     16732
     16731     16730     16737     16732     16730     16737     16734     16733     16735
     16734     16733     16736     16734     16733     16737     16735     16733     16736
     16735     16733     16737     16736     16733     16737     16733     16736     16738
     16730     16737     16733     16736     16738     16739     16736     16738     16740
     16736     16738     16741     16739     16738     16740     16739     16738     16741
     16740     16738     16741     16738     16741     16742     16738     16741     16743
     16738     16741     16749     16742     16741     16743     16742     16741     16749
     16743     16741     16749     16741     16743     16744     16743     16744     16745
     16743     16744     16746     16745     16744     16746     16744     16746     16747
     16744     16746     16748     16744     16746     16758     16747     16746     16748
     16747     16746     16758     16748     16746     16758     16741     16749     16750
     16741     16749     16751     16741     16749     16752     16750     16749     16751
     16750     16749     16752     16751     16749     16752     16749     16752     16753
     16752     16753     16754     16752     16753     16755     16754     16753     16755
     16753     16755     16756     16753     16755     16757     16753     16755     16805
     16756     16755     16757     16756     16755     16805     16757     16755     16805
     16746     16758     16759     16746     16758     16760     16746     16758     16761
     16759     16758     16760     16759     16758     16761     16760     16758     16761
     16758     16761     16762     16758     16761     16763     16758     16761     16764
     16762     16761     16763     16762     16761     16764     16763     16761     16764
     16761     16764     16765     16761     16764     16766     16761     16764     16767
     16765     16764     16766     16765     16764     16767     16766     16764     16767
     16764     16767     16768     16764     16767     16769     16764     16767     16770
     16768     16767     16769     16768     16767     16770     16769     16767     16770
     16767     16770     16771     16767     16770     16772     16767     16770     16773
     16771     16770     16772     16771     16770     16773     16772     16770     16773
     16770     16773     16774     16770     16773     16775     16770     16773     16776
     16774     16773     16775     16774     16773     16776     16775     16773     16776
     16773     16776     16777     16773     16776     16778     16777     16776     16778
     16776     16778     16779     16776     16778     16780     16779     16778     16780
     16778     16780     16781     16778     16780     16782     16778     16780     16783
     16781     16780     16782     16781     16780     16783     16782     16780     16783
     16780     16783     16784     16780     16783     16785     16780     16783     16786
     16784     16783     16785     16784     16783     16786     16785     16783     16786
     16783     16786     16787     16783     16786     16788     16783     16786     16789
     16787     16786     16788     16787     16786     16789     16788     16786     16789
     16786     16789     16790     16786     16789     16791     16786     16789     16792
     16790     16789     16791     16790     16789     16792     16791     16789     16792
     16789     16792     16793     16789     16792     16794     16789     16792     16795
     16793     16792     16794     16793     16792     16795     16794     16792     16795
     16792     16795     16796     16792     16795     16797     16792     16795     16798
     16796     16795     16797     16796     16795     16798     16797     16795     16798
     16795     16798     16799     16795     16798     16800     16795     16798     16801
     16799     16798     16800     16799     16798     16801     16800     16798     16801
     16798     16801     16802     16798     16801     16803     16798     16801     16804
     16802     16801     16803     16802     16801     16804     16803     16801     16804
     16755     16805     16806     16755     16805     16807     16755     16805     16808
     16806     16805     16807     16806     16805     16808     16807     16805     16808
     16805     16808     16809     16805     16808     16810     16805     16808     16811
     16809     16808     16810     16809     16808     16811     16810     16808     16811
     16808     16811     16812     16808     16811     16813     16808     16811     16814
     16812     16811     16813     16812     16811     16814     16813     16811     16814
     16811     16814     16815     16811     16814     16816     16811     16814     16817
     16815     16814     16816     16815     16814     16817     16816     16814     16817
     16814     16817     16818     16814     16817     16819     16814     16817     16820
     16818     16817     16819     16818     16817     16820     16819     16817     16820
     16817     16820     16821     16817     16820     16822     16817     16820     16823
     16821     16820     16822     16821     16820     16823     16822     16820     16823
     16820     16823     16824     16820     16823     16825     16820     16823     16826
     16824     16823     16825     16824     16823     16826     16825     16823     16826
     16823     16826     16827     16823     16826     16828     16823     16826     16829
     16827     16826     16828     16827     16826     16829     16828     16826     16829
     16826     16829     16830     16826     16829     16831     16826     16829     16832
     16830     16829     16831     16830     16829     16832     16831     16829     16832
     16829     16832     16833     16829     16832     16834     16829     16832     16835
     16833     16832     16834     16833     16832     16835     16834     16832     16835
     16832     16835     16836     16832     16835     16837     16832     16835     16838
     16836     16835     16837     16836     16835     16838     16837     16835     16838
     16835     16838     16839     16835     16838     16840     16835     16838     16841
     16839     16838     16840     16839     16838     16841     16840     16838     16841
     16838     16841     16842     16838     16841     16843     16838     16841     16844
     16842     16841     16843     16842     16841     16844     16843     16841     16844
     16841     16844     16845     16841     16844     16846     16841     16844     16847
     16845     16844     16846     16845     16844     16847     16846     16844     16847
     16849     16848     16850     16849     16848     16851     16849     16848     16852
     16850     16848     16851     16850     16848     16852     16851     16848     16852
     16848     16852     16853     16848     16852     16854     16848     16852     16855
     16853     16852     16854     16853     16852     16855     16854     16852     16855
     16852     16855     16856     16852     16855     16857     16852     16855     16862
     16856     16855     16857     16856     16855     16862     16857     16855     16862
     16859     16858     16860     16859     16858     16861     16859     16858     16862
     16860     16858     16861     16860     16858     16862     16861     16858     16862
     16858     16861     16863     16855     16862     16858     16861     16863     16864
     16861     16863     16865     16861     16863     16866     16864     16863     16865
     16864     16863     16866     16865     16863     16866     16863     16866     16867
     16863     16866     16868     16863     16866     16874     16867     16866     16868
     16867     16866     16874     16868     16866     16874     16866     16868     16869
     16868     16869     16870     16868     16869     16871     16870     16869     16871
     16869     16871     16872     16869     16871     16873     16869     16871     16883
     16872     16871     16873     16872     16871     16883     16873     16871     16883
     16866     16874     16875     16866     16874     16876     16866     16874     16877
     16875     16874     16876     16875     16874     16877     16876     16874     16877
     16874     16877     16878     16877     16878     16879     16877     16878     16880
     16879     16878     16880     16878     16880     16881     16878     16880     16882
     16878     16880     16924     16881     16880     16882     16881     16880     16924
     16882     16880     16924     16871     16883     16884     16871     16883     16885
     16871     16883     16886     16884     16883     16885     16884     16883     16886
     16885     16883     16886     16883     16886     16887     16883     16886     16888
     16883     16886     16889     16887     16886     16888     16887     16886     16889
     16888     16886     16889     16886     16889     16890     16886     16889     16891
     16886     16889     16892     16890     16889     16891     16890     16889     16892
     16891     16889     16892     16889     16892     16893     16889     16892     16894
     16889     16892     16895     16893     16892     16894     16893     16892     16895
     16894     16892     16895     16892     16895     16896     16892     16895     16897
     16892     16895     16898     16896     16895     16897     16896     16895     16898
     16897     16895     16898     16895     16898     16899     16895     16898     16900
     16895     16898     16901     16899     16898     16900     16899     16898     16901
     16900     16898     16901     16898     16901     16902     16898     16901     16903
     16902     16901     16903     16901     16903     16904     16901     16903     16905
     16904     16903     16905     16903     16905     16906     16903     16905     16907
     16903     16905     16908     16906     16905     16907     16906     16905     16908
     16907     16905     16908     16905     16908     16909     16905     16908     16910
     16905     16908     16911     16909     16908     16910     16909     16908     16911
     16910     16908     16911     16908     16911     16912     16908     16911     16913
     16908     16911     16914     16912     16911     16913     16912     16911     16914
     16913     16911     16914     16911     16914     16915     16911     16914     16916
     16911     16914     16917     16915     16914     16916     16915     16914     16917
     16916     16914     16917     16914     16917     16918     16914     16917     16919
     16914     16917     16920     16918     16917     16919     16918     16917     16920
     16919     16917     16920     16917     16920     16921     16917     16920     16922
     16917     16920     16923     16921     16920     16922     16921     16920     16923
     16922     16920     16923     16880     16924     16925     16880     16924     16926
     16880     16924     16927     16925     16924     16926     16925     16924     16927
     16926     16924     16927     16924     16927     16928     16924     16927     16929
     16924     16927     16930     16928     16927     16929     16928     16927     16930
     16929     16927     16930     16927     16930     16931     16927     16930     16932
     16927     16930     16933     16931     16930     16932     16931     16930     16933
     16932     16930     16933     16930     16933     16934     16930     16933     16935
     16930     16933     16936     16934     16933     16935     16934     16933     16936
     16935     16933     16936     16933     16936     16937     16933     16936     16938
     16933     16936     16939     16937     16936     16938     16937     16936     16939
     16938     16936     16939     16936     16939     16940     16936     16939     16941
     16936     16939     16942     16940     16939     16941     16940     16939     16942
     16941     16939     16942     16939     16942     16943     16939     16942     16944
     16943     16942     16944     16942     16944     16945     16942     16944     16946
     16945     16944     16946     16944     16946     16947     16944     16946     16948
     16944     16946     16949     16947     16946     16948     16947     16946     16949
     16948     16946     16949     16946     16949     16950     16946     16949     16951
     16946     16949     16952     16950     16949     16951     16950     16949     16952
     16951     16949     16952     16949     16952     16953     16949     16952     16954
     16949     16952     16955     16953     16952     16954     16953     16952     16955
     16954     16952     16955     16952     16955     16956     16952     16955     16957
     16952     16955     16958     16956     16955     16957     16956     16955     16958
     16957     16955     16958     16955     16958     16959     16955     16958     16960
     16955     16958     16961     16959     16958     16960     16959     16958     16961
     16960     16958     16961     16958     16961     16962     16958     16961     16963
     16958     16961     16964     16962     16961     16963     16962     16961     16964
     16963     16961     16964     16961     16964     16965     16961     16964     16966
     16961     16964     16967     16965     16964     16966     16965     16964     16967
     16966     16964     16967     16964     16967     16968     16964     16967     16969
     16964     16967     16970     16968     16967     16969     16968     16967     16970
     16969     16967     16970     16972     16971     16973     16972     16971     16974
     16972     16971     16975     16973     16971     16974     16973     16971     16975
     16974     16971     16975     16971     16975     16976     16971     16975     16977
     16971     16975     16978     16976     16975     16977     16976     16975     16978
     16977     16975     16978     16975     16978     16979     16975     16978     16980
     16975     16978     16985     16979     16978     16980     16979     16978     16985
     16980     16978     16985     16982     16981     16983     16982     16981     16984
     16982     16981     16985     16983     16981     16984     16983     16981     16985
     16984     16981     16985     16981     16984     16986     16978     16985     16981
     16984     16986     16987     16984     16986     16988     16984     16986     16989
     16987     16986     16988     16987     16986     16989     16988     16986     16989
     16986     16989     16990     16986     16989     16991     16986     16989     16997
     16990     16989     16991     16990     16989     16997     16991     16989     16997
     16989     16991     16992     16991     16992     16993     16991     16992     16994
     16993     16992     16994     16992     16994     16995     16992     16994     16996
     16992     16994     17006     16995     16994     16996     16995     16994     17006
     16996     16994     17006     16989     16997     16998     16989     16997     16999
     16989     16997     17000     16998     16997     16999     16998     16997     17000
     16999     16997     17000     16997     17000     17001     17000     17001     17002
     17000     17001     17003     17002     17001     17003     17001     17003     17004
     17001     17003     17005     17001     17003     17050     17004     17003     17005
     17004     17003     17050     17005     17003     17050     16994     17006     17007
     16994     17006     17008     16994     17006     17009     17007     17006     17008
     17007     17006     17009     17008     17006     17009     17006     17009     17010
     17006     17009     17011     17006     17009     17012     17010     17009     17011
     17010     17009     17012     17011     17009     17012     17009     17012     17013
     17009     17012     17014     17009     17012     17015     17013     17012     17014
     17013     17012     17015     17014     17012     17015     17012     17015     17016
     17012     17015     17017     17012     17015     17018     17016     17015     17017
     17016     17015     17018     17017     17015     17018     17015     17018     17019
     17015     17018     17020     17015     17018     17021     17019     17018     17020
     17019     17018     17021     17020     17018     17021     17018     17021     17022
     17018     17021     17023     17018     17021     17024     17022     17021     17023
     17022     17021     17024     17023     17021     17024     17021     17024     17025
     17021     17024     17026     17021     17024     17029     17025     17024     17026
     17025     17024     17029     17026     17024     17029     17024     17026     17027
     17024     17026     17028     17024     17026     17029     17027     17026     17028
     17027     17026     17029     17028     17026     17029     17024     17029     17026
     17024     17029     17030     17024     17029     17031     17026     17029     17030
     17026     17029     17031     17030     17029     17031     17029     17031     17032
     17029     17031     17033     17029     17031     17034     17032     17031     17033
     17032     17031     17034     17033     17031     17034     17031     17034     17035
     17031     17034     17036     17031     17034     17037     17035     17034     17036
     17035     17034     17037     17036     17034     17037     17034     17037     17038
     17034     17037     17039     17034     17037     17040     17038     17037     17039
     17038     17037     17040     17039     17037     17040     17037     17040     17041
     17037     17040     17042     17037     17040     17043     17041     17040     17042
     17041     17040     17043     17042     17040     17043     17040     17043     17044
     17040     17043     17045     17040     17043     17046     17044     17043     17045
     17044     17043     17046     17045     17043     17046     17043     17046     17047
     17043     17046     17048     17043     17046     17049     17047     17046     17048
     17047     17046     17049     17048     17046     17049     17003     17050     17051
     17003     17050     17052     17003     17050     17053     17051     17050     17052
     17051     17050     17053     17052     17050     17053     17050     17053     17054
     17050     17053     17055     17050     17053     17056     17054     17053     17055
     17054     17053     17056     17055     17053     17056     17053     17056     17057
     17053     17056     17058     17053     17056     17059     17057     17056     17058
     17057     17056     17059     17058     17056     17059     17056     17059     17060
     17056     17059     17061     17056     17059     17062     17060     17059     17061
     17060     17059     17062     17061     17059     17062     17059     17062     17063
     17059     17062     17064     17059     17062     17065     17063     17062     17064
     17063     17062     17065     17064     17062     17065     17062     17065     17066
     17062     17065     17067     17062     17065     17068     17066     17065     17067
     17066     17065     17068     17067     17065     17068     17065     17068     17069
     17065     17068     17070     17065     17068     17071     17069     17068     17070
     17069     17068     17071     17070     17068     17071     17068     17071     17072
     17068     17071     17073     17068     17071     17074     17072     17071     17073
     17072     17071     17074     17073     17071     17074     17071     17074     17075
     17071     17074     17076     17071     17074     17077     17075     17074     17076
     17075     17074     17077     17076     17074     17077     17074     17077     17078
     17074     17077     17079     17074     17077     17080     17078     17077     17079
     17078     17077     17080     17079     17077     17080     17077     17080     17081
     17077     17080     17082     17077     17080     17083     17081     17080     17082
     17081     17080     17083     17082     17080     17083     17080     17083     17084
     17080     17083     17085     17080     17083     17086     17084     17083     17085
     17084     17083     17086     17085     17083     17086     17083     17086     17087
     17083     17086     17088     17083     17086     17089     17087     17086     17088
     17087     17086     17089     17088     17086     17089     17086     17089     17090
     17086     17089     17091     17086     17089     17092     17090     17089     17091
     17090     17089     17092     17091     17089     17092     17094     17093     17095
     17094     17093     17096     17094     17093     17097     17095     17093     17096
     17095     17093     17097     17096     17093     17097     17093     17097     17098
     17093     17097     17099     17093     17097     17100     17098     17097     17099
     17098     17097     17100     17099     17097     17100     17097     17100     17101
     17097     17100     17102     17097     17100     17107     17101     17100     17102
     17101     17100     17107     17102     17100     17107     17104     17103     17105
     17104     17103     17106     17104     17103     17107     17105     17103     17106
     17105     17103     17107     17106     17103     17107     17103     17106     17108
     17100     17107     17103     17106     17108     17109     17106     17108     17110
     17106     17108     17111     17109     17108     17110     17109     17108     17111
     17110     17108     17111     17108     17111     17112     17108     17111     17113
     17108     17111     17119     17112     17111     17113     17112     17111     17119
     17113     17111     17119     17111     17113     17114     17113     17114     17115
     17113     17114     17116     17115     17114     17116     17114     17116     17117
     17114     17116     17118     17114     17116     17128     17117     17116     17118
     17117     17116     17128     17118     17116     17128     17111     17119     17120
     17111     17119     17121     17111     17119     17122     17120     17119     17121
     17120     17119     17122     17121     17119     17122     17119     17122     17123
     17122     17123     17124     17122     17123     17125     17124     17123     17125
     17123     17125     17126     17123     17125     17127     17123     17125     17175
     17126     17125     17127     17126     17125     17175     17127     17125     17175
     17116     17128     17129     17116     17128     17130     17116     17128     17131
     17129     17128     17130     17129     17128     17131     17130     17128     17131
     17128     17131     17132     17128     17131     17133     17128     17131     17134
     17132     17131     17133     17132     17131     17134     17133     17131     17134
     17131     17134     17135     17131     17134     17136     17131     17134     17137
     17135     17134     17136     17135     17134     17137     17136     17134     17137
     17134     17137     17138     17134     17137     17139     17134     17137     17140
     17138     17137     17139     17138     17137     17140     17139     17137     17140
     17137     17140     17141     17137     17140     17142     17137     17140     17143
     17141     17140     17142     17141     17140     17143     17142     17140     17143
     17140     17143     17144     17140     17143     17145     17140     17143     17146
     17144     17143     17145     17144     17143     17146     17145     17143     17146
     17143     17146     17147     17143     17146     17148     17147     17146     17148
     17146     17148     17149     17146     17148     17150     17149     17148     17150
     17148     17150     17151     17148     17150     17152     17148     17150     17153
     17151     17150     17152     17151     17150     17153     17152     17150     17153
     17150     17153     17154     17150     17153     17155     17150     17153     17156
     17154     17153     17155     17154     17153     17156     17155     17153     17156
     17153     17156     17157     17153     17156     17158     17153     17156     17159
     17157     17156     17158     17157     17156     17159     17158     17156     17159
     17156     17159     17160     17156     17159     17161     17156     17159     17162
     17160     17159     17161     17160     17159     17162     17161     17159     17162
     17159     17162     17163     17159     17162     17164     17159     17162     17165
     17163     17162     17164     17163     17162     17165     17164     17162     17165
     17162     17165     17166     17162     17165     17167     17162     17165     17168
     17166     17165     17167     17166     17165     17168     17167     17165     17168
     17165     17168     17169     17165     17168     17170     17165     17168     17171
     17169     17168     17170     17169     17168     17171     17170     17168     17171
     17168     17171     17172     17168     17171     17173     17168     17171     17174
     17172     17171     17173     17172     17171     17174     17173     17171     17174
     17125     17175     17176     17125     17175     17177     17125     17175     17178
     17176     17175     17177     17176     17175     17178     17177     17175     17178
     17175     17178     17179     17175     17178     17180     17175     17178     17181
     17179     17178     17180     17179     17178     17181     17180     17178     17181
     17178     17181     17182     17178     17181     17183     17178     17181     17184
     17182     17181     17183     17182     17181     17184     17183     17181     17184
     17181     17184     17185     17181     17184     17186     17181     17184     17187
     17185     17184     17186     17185     17184     17187     17186     17184     17187
     17184     17187     17188     17184     17187     17189     17184     17187     17190
     17188     17187     17189     17188     17187     17190     17189     17187     17190
     17187     17190     17191     17187     17190     17192     17187     17190     17193
     17191     17190     17192     17191     17190     17193     17192     17190     17193
     17190     17193     17194     17190     17193     17195     17190     17193     17196
     17194     17193     17195     17194     17193     17196     17195     17193     17196
     17193     17196     17197     17193     17196     17198     17193     17196     17199
     17197     17196     17198     17197     17196     17199     17198     17196     17199
     17196     17199     17200     17196     17199     17201     17196     17199     17202
     17200     17199     17201     17200     17199     17202     17201     17199     17202
     17199     17202     17203     17199     17202     17204     17199     17202     17205
     17203     17202     17204     17203     17202     17205     17204     17202     17205
     17202     17205     17206     17202     17205     17207     17202     17205     17208
     17206     17205     17207     17206     17205     17208     17207     17205     17208
     17205     17208     17209     17205     17208     17210     17205     17208     17211
     17209     17208     17210     17209     17208     17211     17210     17208     17211
     17208     17211     17212     17208     17211     17213     17208     17211     17214
     17212     17211     17213     17212     17211     17214     17213     17211     17214
     17211     17214     17215     17211     17214     17216     17211     17214     17217
     17215     17214     17216     17215     17214     17217     17216     17214     17217
     17219     17218     17220     17219     17218     17221     17219     17218     17222
     17220     17218     17221     17220     17218     17222     17221     17218     17222
     17218     17222     17223     17218     17222     17224     17218     17222     17225
     17223     17222     17224     17223     17222     17225     17224     17222     17225
     17222     17225     17226     17222     17225     17227     17222     17225     17232
     17226     17225     17227     17226     17225     17232     17227     17225     17232
     17229     17228     17230     17229     17228     17231     17229     17228     17232
     17230     17228     17231     17230     17228     17232     17231     17228     17232
     17228     17231     17233     17225     17232     17228     17231     17233     17234
     17231     17233     17235     17231     17233     17236     17234     17233     17235
     17234     17233     17236     17235     17233     17236     17233     17236     17237
     17233     17236     17238     17233     17236     17244     17237     17236     17238
     17237     17236     17244     17238     17236     17244     17236     17238     17239
     17238     17239     17240     17238     17239     17241     17240     17239     17241
     17239     17241     17242     17239     17241     17243     17239     17241     17253
     17242     17241     17243     17242     17241     17253     17243     17241     17253
     17236     17244     17245     17236     17244     17246     17236     17244     17247
     17245     17244     17246     17245     17244     17247     17246     17244     17247
     17244     17247     17248     17247     17248     17249     17247     17248     17250
     17249     17248     17250     17248     17250     17251     17248     17250     17252
     17248     17250     17297     17251     17250     17252     17251     17250     17297
     17252     17250     17297     17241     17253     17254     17241     17253     17255
     17241     17253     17256     17254     17253     17255     17254     17253     17256
     17255     17253     17256     17253     17256     17257     17253     17256     17258
     17253     17256     17259     17257     17256     17258     17257     17256     17259
     17258     17256     17259     17256     17259     17260     17256     17259     17261
     17256     17259     17262     17260     17259     17261     17260     17259     17262
     17261     17259     17262     17259     17262     17263     17259     17262     17264
     17259     17262     17265     17263     17262     17264     17263     17262     17265
     17264     17262     17265     17262     17265     17266     17262     17265     17267
     17262     17265     17268     17266     17265     17267     17266     17265     17268
     17267     17265     17268     17265     17268     17269     17265     17268     17270
     17265     17268     17271     17269     17268     17270     17269     17268     17271
     17270     17268     17271     17268     17271     17272     17268     17271     17273
     17268     17271     17276     17272     17271     17273     17272     17271     17276
     17273     17271     17276     17271     17273     17274     17271     17273     17275
     17271     17273     17276     17274     17273     17275     17274     17273     17276
     17275     17273     17276     17271     17276     17273     17271     17276     17277
     17271     17276     17278     17273     17276     17277     17273     17276     17278
     17277     17276     17278     17276     17278     17279     17276     17278     17280
     17276     17278     17281     17279     17278     17280     17279     17278     17281
     17280     17278     17281     17278     17281     17282     17278     17281     17283
     17278     17281     17284     17282     17281     17283     17282     17281     17284
     17283     17281     17284     17281     17284     17285     17281     17284     17286
     17281     17284     17287     17285     17284     17286     17285     17284     17287
     17286     17284     17287     17284     17287     17288     17284     17287     17289
     17284     17287     17290     17288     17287     17289     17288     17287     17290
     17289     17287     17290     17287     17290     17291     17287     17290     17292
     17287     17290     17293     17291     17290     17292     17291     17290     17293
     17292     17290     17293     17290     17293     17294     17290     17293     17295
     17290     17293     17296     17294     17293     17295     17294     17293     17296
     17295     17293     17296     17250     17297     17298     17250     17297     17299
     17250     17297     17300     17298     17297     17299     17298     17297     17300
     17299     17297     17300     17297     17300     17301     17297     17300     17302
     17297     17300     17303     17301     17300     17302     17301     17300     17303
     17302     17300     17303     17300     17303     17304     17300     17303     17305
     17300     17303     17306     17304     17303     17305     17304     17303     17306
     17305     17303     17306     17303     17306     17307     17303     17306     17308
     17303     17306     17309     17307     17306     17308     17307     17306     17309
     17308     17306     17309     17306     17309     17310     17306     17309     17311
     17306     17309     17312     17310     17309     17311     17310     17309     17312
     17311     17309     17312     17309     17312     17313     17309     17312     17314
     17309     17312     17315     17313     17312     17314     17313     17312     17315
     17314     17312     17315     17312     17315     17316     17312     17315     17317
     17312     17315     17318     17316     17315     17317     17316     17315     17318
     17317     17315     17318     17315     17318     17319     17315     17318     17320
     17315     17318     17321     17319     17318     17320     17319     17318     17321
     17320     17318     17321     17318     17321     17322     17318     17321     17323
     17318     17321     17324     17322     17321     17323     17322     17321     17324
     17323     17321     17324     17321     17324     17325     17321     17324     17326
     17321     17324     17327     17325     17324     17326     17325     17324     17327
     17326     17324     17327     17324     17327     17328     17324     17327     17329
     17324     17327     17330     17328     17327     17329     17328     17327     17330
     17329     17327     17330     17327     17330     17331     17327     17330     17332
     17327     17330     17333     17331     17330     17332     17331     17330     17333
     17332     17330     17333     17330     17333     17334     17330     17333     17335
     17330     17333     17336     17334     17333     17335     17334     17333     17336
     17335     17333     17336     17333     17336     17337     17333     17336     17338
     17333     17336     17339     17337     17336     17338     17337     17336     17339
     17338     17336     17339     17341     17340     17342     17341     17340     17343
     17341     17340     17345     17342     17340     17343     17342     17340     17345
     17343     17340     17345     17340     17343     17344     17340     17345     17346
     17340     17345     17347     17340     17345     17349     17346     17345     17347
     17346     17345     17349     17347     17345     17349     17345     17347     17348
     17345     17349     17350     17345     17349     17351     17345     17349     17356
     17350     17349     17351     17350     17349     17356     17351     17349     17356
     17353     17352     17354     17353     17352     17355     17353     17352     17356
     17354     17352     17355     17354     17352     17356     17355     17352     17356
     17352     17355     17357     17349     17356     17352     17355     17357     17358
     17355     17357     17359     17355     17357     17360     17358     17357     17359
     17358     17357     17360     17359     17357     17360     17357     17360     17361
     17357     17360     17362     17357     17360     17368     17361     17360     17362
     17361     17360     17368     17362     17360     17368     17360     17362     17363
     17362     17363     17364     17362     17363     17365     17364     17363     17365
     17363     17365     17366     17363     17365     17367     17363     17365     17377
     17366     17365     17367     17366     17365     17377     17367     17365     17377
     17360     17368     17369     17360     17368     17370     17360     17368     17371
     17369     17368     17370     17369     17368     17371     17370     17368     17371
     17368     17371     17372     17371     17372     17373     17371     17372     17374
     17373     17372     17374     17372     17374     17375     17372     17374     17376
     17372     17374     17421     17375     17374     17376     17375     17374     17421
     17376     17374     17421     17365     17377     17378     17365     17377     17379
     17365     17377     17380     17378     17377     17379     17378     17377     17380
     17379     17377     17380     17377     17380     17381     17377     17380     17382
     17377     17380     17383     17381     17380     17382     17381     17380     17383
     17382     17380     17383     17380     17383     17384     17380     17383     17385
     17380     17383     17386     17384     17383     17385     17384     17383     17386
     17385     17383     17386     17383     17386     17387     17383     17386     17388
     17383     17386     17389     17387     17386     17388     17387     17386     17389
     17388     17386     17389     17386     17389     17390     17386     17389     17391
     17386     17389     17392     17390     17389     17391     17390     17389     17392
     17391     17389     17392     17389     17392     17393     17389     17392     17394
     17389     17392     17395     17393     17392     17394     17393     17392     17395
     17394     17392     17395     17392     17395     17396     17392     17395     17397
     17392     17395     17400     17396     17395     17397     17396     17395     17400
     17397     17395     17400     17395     17397     17398     17395     17397     17399
     17395     17397     17400     17398     17397     17399     17398     17397     17400
     17399     17397     17400     17395     17400     17397     17395     17400     17401
     17395     17400     17402     17397     17400     17401     17397     17400     17402
     17401     17400     17402     17400     17402     17403     17400     17402     17404
     17400     17402     17405     17403     17402     17404     17403     17402     17405
     17404     17402     17405     17402     17405     17406     17402     17405     17407
     17402     17405     17408     17406     17405     17407     17406     17405     17408
     17407     17405     17408     17405     17408     17409     17405     17408     17410
     17405     17408     17411     17409     17408     17410     17409     17408     17411
     17410     17408     17411     17408     17411     17412     17408     17411     17413
     17408     17411     17414     17412     17411     17413     17412     17411     17414
     17413     17411     17414     17411     17414     17415     17411     17414     17416
     17411     17414     17417     17415     17414     17416     17415     17414     17417
     17416     17414     17417     17414     17417     17418     17414     17417     17419
     17414     17417     17420     17418     17417     17419     17418     17417     17420
     17419     17417     17420     17374     17421     17422     17374     17421     17423
     17374     17421     17424     17422     17421     17423     17422     17421     17424
     17423     17421     17424     17421     17424     17425     17421     17424     17426
     17421     17424     17427     17425     17424     17426     17425     17424     17427
     17426     17424     17427     17424     17427     17428     17424     17427     17429
     17424     17427     17430     17428     17427     17429     17428     17427     17430
     17429     17427     17430     17427     17430     17431     17427     17430     17432
     17427     17430     17433     17431     17430     17432     17431     17430     17433
     17432     17430     17433     17430     17433     17434     17430     17433     17435
     17430     17433     17436     17434     17433     17435     17434     17433     17436
     17435     17433     17436     17433     17436     17437     17433     17436     17438
     17433     17436     17439     17437     17436     17438     17437     17436     17439
     17438     17436     17439     17436     17439     17440     17436     17439     17441
     17436     17439     17442     17440     17439     17441     17440     17439     17442
     17441     17439     17442     17439     17442     17443     17439     17442     17444
     17439     17442     17445     17443     17442     17444     17443     17442     17445
     17444     17442     17445     17442     17445     17446     17442     17445     17447
     17442     17445     17448     17446     17445     17447     17446     17445     17448
     17447     17445     17448     17445     17448     17449     17445     17448     17450
     17445     17448     17451     17449     17448     17450     17449     17448     17451
     17450     17448     17451     17448     17451     17452     17448     17451     17453
     17448     17451     17454     17452     17451     17453     17452     17451     17454
     17453     17451     17454     17451     17454     17455     17451     17454     17456
     17451     17454     17457     17455     17454     17456     17455     17454     17457
     17456     17454     17457     17454     17457     17458     17454     17457     17459
     17454     17457     17460     17458     17457     17459     17458     17457     17460
     17459     17457     17460     17457     17460     17461     17457     17460     17462
     17457     17460     17463     17461     17460     17462     17461     17460     17463
     17462     17460     17463     17465     17464     17466     17465     17464     17467
     17465     17464     17468     17466     17464     17467     17466     17464     17468
     17467     17464     17468     17464     17468     17469     17464     17468     17470
     17464     17468     17471     17469     17468     17470     17469     17468     17471
     17470     17468     17471     17468     17471     17472     17468     17471     17473
     17468     17471     17478     17472     17471     17473     17472     17471     17478
     17473     17471     17478     17475     17474     17476     17475     17474     17477
     17475     17474     17478     17476     17474     17477     17476     17474     17478
     17477     17474     17478     17474     17477     17479     17471     17478     17474
     17477     17479     17480     17477     17479     17481     17477     17479     17482
     17480     17479     17481     17480     17479     17482     17481     17479     17482
     17479     17482     17483     17479     17482     17484     17479     17482     17490
     17483     17482     17484     17483     17482     17490     17484     17482     17490
     17482     17484     17485     17484     17485     17486     17484     17485     17487
     17486     17485     17487     17485     17487     17488     17485     17487     17489
     17485     17487     17499     17488     17487     17489     17488     17487     17499
     17489     17487     17499     17482     17490     17491     17482     17490     17492
     17482     17490     17493     17491     17490     17492     17491     17490     17493
     17492     17490     17493     17490     17493     17494     17493     17494     17495
     17493     17494     17496     17495     17494     17496     17494     17496     17497
     17494     17496     17498     17494     17496     17543     17497     17496     17498
     17497     17496     17543     17498     17496     17543     17487     17499     17500
     17487     17499     17501     17487     17499     17502     17500     17499     17501
     17500     17499     17502     17501     17499     17502     17499     17502     17503
     17499     17502     17504     17499     17502     17505     17503     17502     17504
     17503     17502     17505     17504     17502     17505     17502     17505     17506
     17502     17505     17507     17502     17505     17508     17506     17505     17507
     17506     17505     17508     17507     17505     17508     17505     17508     17509
     17505     17508     17510     17505     17508     17511     17509     17508     17510
     17509     17508     17511     17510     17508     17511     17508     17511     17512
     17508     17511     17513     17508     17511     17514     17512     17511     17513
     17512     17511     17514     17513     17511     17514     17511     17514     17515
     17511     17514     17516     17511     17514     17517     17515     17514     17516
     17515     17514     17517     17516     17514     17517     17514     17517     17518
     17514     17517     17519     17514     17517     17522     17518     17517     17519
     17518     17517     17522     17519     17517     17522     17517     17519     17520
     17517     17519     17521     17517     17519     17522     17520     17519     17521
     17520     17519     17522     17521     17519     17522     17517     17522     17519
     17517     17522     17523     17517     17522     17524     17519     17522     17523
     17519     17522     17524     17523     17522     17524     17522     17524     17525
     17522     17524     17526     17522     17524     17527     17525     17524     17526
     17525     17524     17527     17526     17524     17527     17524     17527     17528
     17524     17527     17529     17524     17527     17530     17528     17527     17529
     17528     17527     17530     17529     17527     17530     17527     17530     17531
     17527     17530     17532     17527     17530     17533     17531     17530     17532
     17531     17530     17533     17532     17530     17533     17530     17533     17534
     17530     17533     17535     17530     17533     17536     17534     17533     17535
     17534     17533     17536     17535     17533     17536     17533     17536     17537
     17533     17536     17538     17533     17536     17539     17537     17536     17538
     17537     17536     17539     17538     17536     17539     17536     17539     17540
     17536     17539     17541     17536     17539     17542     17540     17539     17541
     17540     17539     17542     17541     17539     17542     17496     17543     17544
     17496     17543     17545     17496     17543     17546     17544     17543     17545
     17544     17543     17546     17545     17543     17546     17543     17546     17547
     17543     17546     17548     17543     17546     17549     17547     17546     17548
     17547     17546     17549     17548     17546     17549     17546     17549     17550
     17546     17549     17551     17546     17549     17552     17550     17549     17551
     17550     17549     17552     17551     17549     17552     17549     17552     17553
     17549     17552     17554     17549     17552     17555     17553     17552     17554
     17553     17552     17555     17554     17552     17555     17552     17555     17556
     17552     17555     17557     17552     17555     17558     17556     17555     17557
     17556     17555     17558     17557     17555     17558     17555     17558     17559
     17555     17558     17560     17555     17558     17561     17559     17558     17560
     17559     17558     17561     17560     17558     17561     17558     17561     17562
     17558     17561     17563     17558     17561     17564     17562     17561     17563
     17562     17561     17564     17563     17561     17564     17561     17564     17565
     17561     17564     17566     17561     17564     17567     17565     17564     17566
     17565     17564     17567     17566     17564     17567     17564     17567     17568
     17564     17567     17569     17564     17567     17570     17568     17567     17569
     17568     17567     17570     17569     17567     17570     17567     17570     17571
     17567     17570     17572     17567     17570     17573     17571     17570     17572
     17571     17570     17573     17572     17570     17573     17570     17573     17574
     17570     17573     17575     17570     17573     17576     17574     17573     17575
     17574     17573     17576     17575     17573     17576     17573     17576     17577
     17573     17576     17578     17573     17576     17579     17577     17576     17578
     17577     17576     17579     17578     17576     17579     17576     17579     17580
     17576     17579     17581     17576     17579     17582     17580     17579     17581
     17580     17579     17582     17581     17579     17582     17579     17582     17583
     17579     17582     17584     17579     17582     17585     17583     17582     17584
     17583     17582     17585     17584     17582     17585     17587     17586     17588
     17587     17586     17589     17587     17586     17591     17588     17586     17589
     17588     17586     17591     17589     17586     17591     17586     17589     17590
     17586     17591     17592     17586     17591     17593     17586     17591     17595
     17592     17591     17593     17592     17591     17595     17593     17591     17595
     17591     17593     17594     17591     17595     17596     17591     17595     17597
     17591     17595     17602     17596     17595     17597     17596     17595     17602
     17597     17595     17602     17599     17598     17600     17599     17598     17601
     17599     17598     17602     17600     17598     17601     17600     17598     17602
     17601     17598     17602     17598     17601     17603     17595     17602     17598
     17601     17603     17604     17601     17603     17605     17601     17603     17606
     17604     17603     17605     17604     17603     17606     17605     17603     17606
     17603     17606     17607     17603     17606     17608     17603     17606     17614
     17607     17606     17608     17607     17606     17614     17608     17606     17614
     17606     17608     17609     17608     17609     17610     17608     17609     17611
     17610     17609     17611     17609     17611     17612     17609     17611     17613
     17609     17611     17623     17612     17611     17613     17612     17611     17623
     17613     17611     17623     17606     17614     17615     17606     17614     17616
     17606     17614     17617     17615     17614     17616     17615     17614     17617
     17616     17614     17617     17614     17617     17618     17617     17618     17619
     17617     17618     17620     17619     17618     17620     17618     17620     17621
     17618     17620     17622     17618     17620     17667     17621     17620     17622
     17621     17620     17667     17622     17620     17667     17611     17623     17624
     17611     17623     17625     17611     17623     17626     17624     17623     17625
     17624     17623     17626     17625     17623     17626     17623     17626     17627
     17623     17626     17628     17623     17626     17629     17627     17626     17628
     17627     17626     17629     17628     17626     17629     17626     17629     17630
     17626     17629     17631     17626     17629     17632     17630     17629     17631
     17630     17629     17632     17631     17629     17632     17629     17632     17633
     17629     17632     17634     17629     17632     17635     17633     17632     17634
     17633     17632     17635     17634     17632     17635     17632     17635     17636
     17632     17635     17637     17632     17635     17638     17636     17635     17637
     17636     17635     17638     17637     17635     17638     17635     17638     17639
     17635     17638     17640     17635     17638     17641     17639     17638     17640
     17639     17638     17641     17640     17638     17641     17638     17641     17642
     17638     17641     17643     17638     17641     17646     17642     17641     17643
     17642     17641     17646     17643     17641     17646     17641     17643     17644
     17641     17643     17645     17641     17643     17646     17644     17643     17645
     17644     17643     17646     17645     17643     17646     17641     17646     17643
     17641     17646     17647     17641     17646     17648     17643     17646     17647
     17643     17646     17648     17647     17646     17648     17646     17648     17649
     17646     17648     17650     17646     17648     17651     17649     17648     17650
     17649     17648     17651     17650     17648     17651     17648     17651     17652
     17648     17651     17653     17648     17651     17654     17652     17651     17653
     17652     17651     17654     17653     17651     17654     17651     17654     17655
     17651     17654     17656     17651     17654     17657     17655     17654     17656
     17655     17654     17657     17656     17654     17657     17654     17657     17658
     17654     17657     17659     17654     17657     17660     17658     17657     17659
     17658     17657     17660     17659     17657     17660     17657     17660     17661
     17657     17660     17662     17657     17660     17663     17661     17660     17662
     17661     17660     17663     17662     17660     17663     17660     17663     17664
     17660     17663     17665     17660     17663     17666     17664     17663     17665
     17664     17663     17666     17665     17663     17666     17620     17667     17668
     17620     17667     17669     17620     17667     17670     17668     17667     17669
     17668     17667     17670     17669     17667     17670     17667     17670     17671
     17667     17670     17672     17667     17670     17673     17671     17670     17672
     17671     17670     17673     17672     17670     17673     17670     17673     17674
     17670     17673     17675     17670     17673     17676     17674     17673     17675
     17674     17673     17676     17675     17673     17676     17673     17676     17677
     17673     17676     17678     17673     17676     17679     17677     17676     17678
     17677     17676     17679     17678     17676     17679     17676     17679     17680
     17676     17679     17681     17676     17679     17682     17680     17679     17681
     17680     17679     17682     17681     17679     17682     17679     17682     17683
     17679     17682     17684     17679     17682     17685     17683     17682     17684
     17683     17682     17685     17684     17682     17685     17682     17685     17686
     17682     17685     17687     17682     17685     17688     17686     17685     17687
     17686     17685     17688     17687     17685     17688     17685     17688     17689
     17685     17688     17690     17685     17688     17691     17689     17688     17690
     17689     17688     17691     17690     17688     17691     17688     17691     17692
     17688     17691     17693     17688     17691     17694     17692     17691     17693
     17692     17691     17694     17693     17691     17694     17691     17694     17695
     17691     17694     17696     17691     17694     17697     17695     17694     17696
     17695     17694     17697     17696     17694     17697     17694     17697     17698
     17694     17697     17699     17694     17697     17700     17698     17697     17699
     17698     17697     17700     17699     17697     17700     17697     17700     17701
     17697     17700     17702     17697     17700     17703     17701     17700     17702
     17701     17700     17703     17702     17700     17703     17700     17703     17704
     17700     17703     17705     17700     17703     17706     17704     17703     17705
     17704     17703     17706     17705     17703     17706     17703     17706     17707
     17703     17706     17708     17703     17706     17709     17707     17706     17708
     17707     17706     17709     17708     17706     17709     17711     17710     17712
     17711     17710     17713     17711     17710     17714     17712     17710     17713
     17712     17710     17714     17713     17710     17714     17710     17714     17715
     17710     17714     17716     17710     17714     17717     17715     17714     17716
     17715     17714     17717     17716     17714     17717     17714     17717     17718
     17714     17717     17719     17714     17717     17724     17718     17717     17719
     17718     17717     17724     17719     17717     17724     17721     17720     17722
     17721     17720     17723     17721     17720     17724     17722     17720     17723
     17722     17720     17724     17723     17720     17724     17720     17723     17725
     17717     17724     17720     17723     17725     17726     17723     17725     17727
     17723     17725     17728     17726     17725     17727     17726     17725     17728
     17727     17725     17728     17725     17728     17729     17725     17728     17730
     17725     17728     17736     17729     17728     17730     17729     17728     17736
     17730     17728     17736     17728     17730     17731     17730     17731     17732
     17730     17731     17733     17732     17731     17733     17731     17733     17734
     17731     17733     17735     17731     17733     17745     17734     17733     17735
     17734     17733     17745     17735     17733     17745     17728     17736     17737
     17728     17736     17738     17728     17736     17739     17737     17736     17738
     17737     17736     17739     17738     17736     17739     17736     17739     17740
     17739     17740     17741     17739     17740     17742     17741     17740     17742
     17740     17742     17743     17740     17742     17744     17740     17742     17789
     17743     17742     17744     17743     17742     17789     17744     17742     17789
     17733     17745     17746     17733     17745     17747     17733     17745     17748
     17746     17745     17747     17746     17745     17748     17747     17745     17748
     17745     17748     17749     17745     17748     17750     17745     17748     17751
     17749     17748     17750     17749     17748     17751     17750     17748     17751
     17748     17751     17752     17748     17751     17753     17748     17751     17754
     17752     17751     17753     17752     17751     17754     17753     17751     17754
     17751     17754     17755     17751     17754     17756     17751     17754     17757
     17755     17754     17756     17755     17754     17757     17756     17754     17757
     17754     17757     17758     17754     17757     17759     17754     17757     17760
     17758     17757     17759     17758     17757     17760     17759     17757     17760
     17757     17760     17761     17757     17760     17762     17757     17760     17763
     17761     17760     17762     17761     17760     17763     17762     17760     17763
     17760     17763     17764     17760     17763     17765     17760     17763     17768
     17764     17763     17765     17764     17763     17768     17765     17763     17768
     17763     17765     17766     17763     17765     17767     17763     17765     17768
     17766     17765     17767     17766     17765     17768     17767     17765     17768
     17763     17768     17765     17763     17768     17769     17763     17768     17770
     17765     17768     17769     17765     17768     17770     17769     17768     17770
     17768     17770     17771     17768     17770     17772     17768     17770     17773
     17771     17770     17772     17771     17770     17773     17772     17770     17773
     17770     17773     17774     17770     17773     17775     17770     17773     17776
     17774     17773     17775     17774     17773     17776     17775     17773     17776
     17773     17776     17777     17773     17776     17778     17773     17776     17779
     17777     17776     17778     17777     17776     17779     17778     17776     17779
     17776     17779     17780     17776     17779     17781     17776     17779     17782
     17780     17779     17781     17780     17779     17782     17781     17779     17782
     17779     17782     17783     17779     17782     17784     17779     17782     17785
     17783     17782     17784     17783     17782     17785     17784     17782     17785
     17782     17785     17786     17782     17785     17787     17782     17785     17788
     17786     17785     17787     17786     17785     17788     17787     17785     17788
     17742     17789     17790     17742     17789     17791     17742     17789     17792
     17790     17789     17791     17790     17789     17792     17791     17789     17792
     17789     17792     17793     17789     17792     17794     17789     17792     17795
     17793     17792     17794     17793     17792     17795     17794     17792     17795
     17792     17795     17796     17792     17795     17797     17792     17795     17798
     17796     17795     17797     17796     17795     17798     17797     17795     17798
     17795     17798     17799     17795     17798     17800     17795     17798     17801
     17799     17798     17800     17799     17798     17801     17800     17798     17801
     17798     17801     17802     17798     17801     17803     17798     17801     17804
     17802     17801     17803     17802     17801     17804     17803     17801     17804
     17801     17804     17805     17801     17804     17806     17801     17804     17807
     17805     17804     17806     17805     17804     17807     17806     17804     17807
     17804     17807     17808     17804     17807     17809     17804     17807     17810
     17808     17807     17809     17808     17807     17810     17809     17807     17810
     17807     17810     17811     17807     17810     17812     17807     17810     17813
     17811     17810     17812     17811     17810     17813     17812     17810     17813
     17810     17813     17814     17810     17813     17815     17810     17813     17816
     17814     17813     17815     17814     17813     17816     17815     17813     17816
     17813     17816     17817     17813     17816     17818     17813     17816     17819
     17817     17816     17818     17817     17816     17819     17818     17816     17819
     17816     17819     17820     17816     17819     17821     17816     17819     17822
     17820     17819     17821     17820     17819     17822     17821     17819     17822
     17819     17822     17823     17819     17822     17824     17819     17822     17825
     17823     17822     17824     17823     17822     17825     17824     17822     17825
     17822     17825     17826     17822     17825     17827     17822     17825     17828
     17826     17825     17827     17826     17825     17828     17827     17825     17828
     17825     17828     17829     17825     17828     17830     17825     17828     17831
     17829     17828     17830     17829     17828     17831     17830     17828     17831
     17833     17832     17834     17833     17832     17835     17833     17832     17836
     17834     17832     17835     17834     17832     17836     17835     17832     17836
     17832     17836     17837     17832     17836     17838     17832     17836     17839
     17837     17836     17838     17837     17836     17839     17838     17836     17839
     17836     17839     17840     17836     17839     17841     17836     17839     17846
     17840     17839     17841     17840     17839     17846     17841     17839     17846
     17843     17842     17844     17843     17842     17845     17843     17842     17846
     17844     17842     17845     17844     17842     17846     17845     17842     17846
     17842     17845     17847     17839     17846     17842     17845     17847     17848
     17845     17847     17849     17845     17847     17850     17848     17847     17849
     17848     17847     17850     17849     17847     17850     17847     17850     17851
     17847     17850     17852     17847     17850     17858     17851     17850     17852
     17851     17850     17858     17852     17850     17858     17850     17852     17853
     17852     17853     17854     17852     17853     17855     17854     17853     17855
     17853     17855     17856     17853     17855     17857     17853     17855     17867
     17856     17855     17857     17856     17855     17867     17857     17855     17867
     17850     17858     17859     17850     17858     17860     17850     17858     17861
     17859     17858     17860     17859     17858     17861     17860     17858     17861
     17858     17861     17862     17861     17862     17863     17861     17862     17864
     17863     17862     17864     17862     17864     17865     17862     17864     17866
     17862     17864     17911     17865     17864     17866     17865     17864     17911
     17866     17864     17911     17855     17867     17868     17855     17867     17869
     17855     17867     17870     17868     17867     17869     17868     17867     17870
     17869     17867     17870     17867     17870     17871     17867     17870     17872
     17867     17870     17873     17871     17870     17872     17871     17870     17873
     17872     17870     17873     17870     17873     17874     17870     17873     17875
     17870     17873     17876     17874     17873     17875     17874     17873     17876
     17875     17873     17876     17873     17876     17877     17873     17876     17878
     17873     17876     17879     17877     17876     17878     17877     17876     17879
     17878     17876     17879     17876     17879     17880     17876     17879     17881
     17876     17879     17882     17880     17879     17881     17880     17879     17882
     17881     17879     17882     17879     17882     17883     17879     17882     17884
     17879     17882     17885     17883     17882     17884     17883     17882     17885
     17884     17882     17885     17882     17885     17886     17882     17885     17887
     17882     17885     17890     17886     17885     17887     17886     17885     17890
     17887     17885     17890     17885     17887     17888     17885     17887     17889
     17885     17887     17890     17888     17887     17889     17888     17887     17890
     17889     17887     17890     17885     17890     17887     17885     17890     17891
     17885     17890     17892     17887     17890     17891     17887     17890     17892
     17891     17890     17892     17890     17892     17893     17890     17892     17894
     17890     17892     17895     17893     17892     17894     17893     17892     17895
     17894     17892     17895     17892     17895     17896     17892     17895     17897
     17892     17895     17898     17896     17895     17897     17896     17895     17898
     17897     17895     17898     17895     17898     17899     17895     17898     17900
     17895     17898     17901     17899     17898     17900     17899     17898     17901
     17900     17898     17901     17898     17901     17902     17898     17901     17903
     17898     17901     17904     17902     17901     17903     17902     17901     17904
     17903     17901     17904     17901     17904     17905     17901     17904     17906
     17901     17904     17907     17905     17904     17906     17905     17904     17907
     17906     17904     17907     17904     17907     17908     17904     17907     17909
     17904     17907     17910     17908     17907     17909     17908     17907     17910
     17909     17907     17910     17864     17911     17912     17864     17911     17913
     17864     17911     17914     17912     17911     17913     17912     17911     17914
     17913     17911     17914     17911     17914     17915     17911     17914     17916
     17911     17914     17917     17915     17914     17916     17915     17914     17917
     17916     17914     17917     17914     17917     17918     17914     17917     17919
     17914     17917     17920     17918     17917     17919     17918     17917     17920
     17919     17917     17920     17917     17920     17921     17917     17920     17922
     17917     17920     17923     17921     17920     17922     17921     17920     17923
     17922     17920     17923     17920     17923     17924     17920     17923     17925
     17920     17923     17926     17924     17923     17925     17924     17923     17926
     17925     17923     17926     17923     17926     17927     17923     17926     17928
     17923     17926     17929     17927     17926     17928     17927     17926     17929
     17928     17926     17929     17926     17929     17930     17926     17929     17931
     17926     17929     17932     17930     17929     17931     17930     17929     17932
     17931     17929     17932     17929     17932     17933     17929     17932     17934
     17929     17932     17935     17933     17932     17934     17933     17932     17935
     17934     17932     17935     17932     17935     17936     17932     17935     17937
     17932     17935     17938     17936     17935     17937     17936     17935     17938
     17937     17935     17938     17935     17938     17939     17935     17938     17940
     17935     17938     17941     17939     17938     17940     17939     17938     17941
     17940     17938     17941     17938     17941     17942     17938     17941     17943
     17938     17941     17944     17942     17941     17943     17942     17941     17944
     17943     17941     17944     17941     17944     17945     17941     17944     17946
     17941     17944     17947     17945     17944     17946     17945     17944     17947
     17946     17944     17947     17944     17947     17948     17944     17947     17949
     17944     17947     17950     17948     17947     17949     17948     17947     17950
     17949     17947     17950     17952     17951     17953     17952     17951     17954
     17952     17951     17955     17953     17951     17954     17953     17951     17955
     17954     17951     17955     17951     17955     17956     17951     17955     17957
     17951     17955     17958     17956     17955     17957     17956     17955     17958
     17957     17955     17958     17955     17958     17959     17955     17958     17960
     17955     17958     17965     17959     17958     17960     17959     17958     17965
     17960     17958     17965     17962     17961     17963     17962     17961     17964
     17962     17961     17965     17963     17961     17964     17963     17961     17965
     17964     17961     17965     17961     17964     17966     17958     17965     17961
     17964     17966     17967     17964     17966     17968     17964     17966     17969
     17967     17966     17968     17967     17966     17969     17968     17966     17969
     17966     17969     17970     17966     17969     17971     17966     17969     17977
     17970     17969     17971     17970     17969     17977     17971     17969     17977
     17969     17971     17972     17971     17972     17973     17971     17972     17974
     17973     17972     17974     17972     17974     17975     17972     17974     17976
     17972     17974     17986     17975     17974     17976     17975     17974     17986
     17976     17974     17986     17969     17977     17978     17969     17977     17979
     17969     17977     17980     17978     17977     17979     17978     17977     17980
     17979     17977     17980     17977     17980     17981     17980     17981     17982
     17980     17981     17983     17982     17981     17983     17981     17983     17984
     17981     17983     17985     17981     17983     18030     17984     17983     17985
     17984     17983     18030     17985     17983     18030     17974     17986     17987
     17974     17986     17988     17974     17986     17989     17987     17986     17988
     17987     17986     17989     17988     17986     17989     17986     17989     17990
     17986     17989     17991     17986     17989     17992     17990     17989     17991
     17990     17989     17992     17991     17989     17992     17989     17992     17993
     17989     17992     17994     17989     17992     17995     17993     17992     17994
     17993     17992     17995     17994     17992     17995     17992     17995     17996
     17992     17995     17997     17992     17995     17998     17996     17995     17997
     17996     17995     17998     17997     17995     17998     17995     17998     17999
     17995     17998     18000     17995     17998     18001     17999     17998     18000
     17999     17998     18001     18000     17998     18001     17998     18001     18002
     17998     18001     18003     17998     18001     18004     18002     18001     18003
     18002     18001     18004     18003     18001     18004     18001     18004     18005
     18001     18004     18006     18001     18004     18009     18005     18004     18006
     18005     18004     18009     18006     18004     18009     18004     18006     18007
     18004     18006     18008     18004     18006     18009     18007     18006     18008
     18007     18006     18009     18008     18006     18009     18004     18009     18006
     18004     18009     18010     18004     18009     18011     18006     18009     18010
     18006     18009     18011     18010     18009     18011     18009     18011     18012
     18009     18011     18013     18009     18011     18014     18012     18011     18013
     18012     18011     18014     18013     18011     18014     18011     18014     18015
     18011     18014     18016     18011     18014     18017     18015     18014     18016
     18015     18014     18017     18016     18014     18017     18014     18017     18018
     18014     18017     18019     18014     18017     18020     18018     18017     18019
     18018     18017     18020     18019     18017     18020     18017     18020     18021
     18017     18020     18022     18017     18020     18023     18021     18020     18022
     18021     18020     18023     18022     18020     18023     18020     18023     18024
     18020     18023     18025     18020     18023     18026     18024     18023     18025
     18024     18023     18026     18025     18023     18026     18023     18026     18027
     18023     18026     18028     18023     18026     18029     18027     18026     18028
     18027     18026     18029     18028     18026     18029     17983     18030     18031
     17983     18030     18032     17983     18030     18033     18031     18030     18032
     18031     18030     18033     18032     18030     18033     18030     18033     18034
     18030     18033     18035     18030     18033     18036     18034     18033     18035
     18034     18033     18036     18035     18033     18036     18033     18036     18037
     18033     18036     18038     18033     18036     18039     18037     18036     18038
     18037     18036     18039     18038     18036     18039     18036     18039     18040
     18036     18039     18041     18036     18039     18042     18040     18039     18041
     18040     18039     18042     18041     18039     18042     18039     18042     18043
     18039     18042     18044     18039     18042     18045     18043     18042     18044
     18043     18042     18045     18044     18042     18045     18042     18045     18046
     18042     18045     18047     18042     18045     18048     18046     18045     18047
     18046     18045     18048     18047     18045     18048     18045     18048     18049
     18045     18048     18050     18045     18048     18051     18049     18048     18050
     18049     18048     18051     18050     18048     18051     18048     18051     18052
     18048     18051     18053     18048     18051     18054     18052     18051     18053
     18052     18051     18054     18053     18051     18054     18051     18054     18055
     18051     18054     18056     18051     18054     18057     18055     18054     18056
     18055     18054     18057     18056     18054     18057     18054     18057     18058
     18054     18057     18059     18054     18057     18060     18058     18057     18059
     18058     18057     18060     18059     18057     18060     18057     18060     18061
     18057     18060     18062     18057     18060     18063     18061     18060     18062
     18061     18060     18063     18062     18060     18063     18060     18063     18064
     18060     18063     18065     18060     18063     18066     18064     18063     18065
     18064     18063     18066     18065     18063     18066     18063     18066     18067
     18063     18066     18068     18063     18066     18069     18067     18066     18068
     18067     18066     18069     18068     18066     18069     18071     18070     18072
     18071     18070     18073     18071     18070     18074     18072     18070     18073
     18072     18070     18074     18073     18070     18074     18070     18074     18075
     18070     18074     18076     18070     18074     18077     18075     18074     18076
     18075     18074     18077     18076     18074     18077     18074     18077     18078
     18074     18077     18079     18074     18077     18084     18078     18077     18079
     18078     18077     18084     18079     18077     18084     18081     18080     18082
     18081     18080     18083     18081     18080     18084     18082     18080     18083
     18082     18080     18084     18083     18080     18084     18080     18083     18085
     18077     18084     18080     18083     18085     18086     18083     18085     18087
     18083     18085     18088     18086     18085     18087     18086     18085     18088
     18087     18085     18088     18085     18088     18089     18085     18088     18090
     18085     18088     18096     18089     18088     18090     18089     18088     18096
     18090     18088     18096     18088     18090     18091     18090     18091     18092
     18090     18091     18093     18092     18091     18093     18091     18093     18094
     18091     18093     18095     18091     18093     18105     18094     18093     18095
     18094     18093     18105     18095     18093     18105     18088     18096     18097
     18088     18096     18098     18088     18096     18099     18097     18096     18098
     18097     18096     18099     18098     18096     18099     18096     18099     18100
     18099     18100     18101     18099     18100     18102     18101     18100     18102
     18100     18102     18103     18100     18102     18104     18100     18102     18149
     18103     18102     18104     18103     18102     18149     18104     18102     18149
     18093     18105     18106     18093     18105     18107     18093     18105     18108
     18106     18105     18107     18106     18105     18108     18107     18105     18108
     18105     18108     18109     18105     18108     18110     18105     18108     18111
     18109     18108     18110     18109     18108     18111     18110     18108     18111
     18108     18111     18112     18108     18111     18113     18108     18111     18114
     18112     18111     18113     18112     18111     18114     18113     18111     18114
     18111     18114     18115     18111     18114     18116     18111     18114     18117
     18115     18114     18116     18115     18114     18117     18116     18114     18117
     18114     18117     18118     18114     18117     18119     18114     18117     18120
     18118     18117     18119     18118     18117     18120     18119     18117     18120
     18117     18120     18121     18117     18120     18122     18117     18120     18123
     18121     18120     18122     18121     18120     18123     18122     18120     18123
     18120     18123     18124     18120     18123     18125     18120     18123     18128
     18124     18123     18125     18124     18123     18128     18125     18123     18128
     18123     18125     18126     18123     18125     18127     18123     18125     18128
     18126     18125     18127     18126     18125     18128     18127     18125     18128
     18123     18128     18125     18123     18128     18129     18123     18128     18130
     18125     18128     18129     18125     18128     18130     18129     18128     18130
     18128     18130     18131     18128     18130     18132     18128     18130     18133
     18131     18130     18132     18131     18130     18133     18132     18130     18133
     18130     18133     18134     18130     18133     18135     18130     18133     18136
     18134     18133     18135     18134     18133     18136     18135     18133     18136
     18133     18136     18137     18133     18136     18138     18133     18136     18139
     18137     18136     18138     18137     18136     18139     18138     18136     18139
     18136     18139     18140     18136     18139     18141     18136     18139     18142
     18140     18139     18141     18140     18139     18142     18141     18139     18142
     18139     18142     18143     18139     18142     18144     18139     18142     18145
     18143     18142     18144     18143     18142     18145     18144     18142     18145
     18142     18145     18146     18142     18145     18147     18142     18145     18148
     18146     18145     18147     18146     18145     18148     18147     18145     18148
     18102     18149     18150     18102     18149     18151     18102     18149     18152
     18150     18149     18151     18150     18149     18152     18151     18149     18152
     18149     18152     18153     18149     18152     18154     18149     18152     18155
     18153     18152     18154     18153     18152     18155     18154     18152     18155
     18152     18155     18156     18152     18155     18157     18152     18155     18158
     18156     18155     18157     18156     18155     18158     18157     18155     18158
     18155     18158     18159     18155     18158     18160     18155     18158     18161
     18159     18158     18160     18159     18158     18161     18160     18158     18161
     18158     18161     18162     18158     18161     18163     18158     18161     18164
     18162     18161     18163     18162     18161     18164     18163     18161     18164
     18161     18164     18165     18161     18164     18166     18161     18164     18167
     18165     18164     18166     18165     18164     18167     18166     18164     18167
     18164     18167     18168     18164     18167     18169     18164     18167     18170
     18168     18167     18169     18168     18167     18170     18169     18167     18170
     18167     18170     18171     18167     18170     18172     18167     18170     18173
     18171     18170     18172     18171     18170     18173     18172     18170     18173
     18170     18173     18174     18170     18173     18175     18170     18173     18176
     18174     18173     18175     18174     18173     18176     18175     18173     18176
     18173     18176     18177     18173     18176     18178     18173     18176     18179
     18177     18176     18178     18177     18176     18179     18178     18176     18179
     18176     18179     18180     18176     18179     18181     18176     18179     18182
     18180     18179     18181     18180     18179     18182     18181     18179     18182
     18179     18182     18183     18179     18182     18184     18179     18182     18185
     18183     18182     18184     18183     18182     18185     18184     18182     18185
     18182     18185     18186     18182     18185     18187     18182     18185     18188
     18186     18185     18187     18186     18185     18188     18187     18185     18188
     18185     18188     18189     18185     18188     18190     18185     18188     18191
     18189     18188     18190     18189     18188     18191     18190     18188     18191
     18193     18192     18194     18193     18192     18195     18193     18192     18196
     18194     18192     18195     18194     18192     18196     18195     18192     18196
     18192     18196     18197     18192     18196     18198     18192     18196     18199
     18197     18196     18198     18197     18196     18199     18198     18196     18199
     18196     18199     18200     18196     18199     18201     18196     18199     18206
     18200     18199     18201     18200     18199     18206     18201     18199     18206
     18203     18202     18204     18203     18202     18205     18203     18202     18206
     18204     18202     18205     18204     18202     18206     18205     18202     18206
     18202     18205     18207     18199     18206     18202     18205     18207     18208
     18205     18207     18209     18205     18207     18210     18208     18207     18209
     18208     18207     18210     18209     18207     18210     18207     18210     18211
     18207     18210     18212     18207     18210     18218     18211     18210     18212
     18211     18210     18218     18212     18210     18218     18210     18212     18213
     18212     18213     18214     18212     18213     18215     18214     18213     18215
     18213     18215     18216     18213     18215     18217     18213     18215     18227
     18216     18215     18217     18216     18215     18227     18217     18215     18227
     18210     18218     18219     18210     18218     18220     18210     18218     18221
     18219     18218     18220     18219     18218     18221     18220     18218     18221
     18218     18221     18222     18221     18222     18223     18221     18222     18224
     18223     18222     18224     18222     18224     18225     18222     18224     18226
     18222     18224     18271     18225     18224     18226     18225     18224     18271
     18226     18224     18271     18215     18227     18228     18215     18227     18229
     18215     18227     18230     18228     18227     18229     18228     18227     18230
     18229     18227     18230     18227     18230     18231     18227     18230     18232
     18227     18230     18233     18231     18230     18232     18231     18230     18233
     18232     18230     18233     18230     18233     18234     18230     18233     18235
     18230     18233     18236     18234     18233     18235     18234     18233     18236
     18235     18233     18236     18233     18236     18237     18233     18236     18238
     18233     18236     18239     18237     18236     18238     18237     18236     18239
     18238     18236     18239     18236     18239     18240     18236     18239     18241
     18236     18239     18242     18240     18239     18241     18240     18239     18242
     18241     18239     18242     18239     18242     18243     18239     18242     18244
     18239     18242     18245     18243     18242     18244     18243     18242     18245
     18244     18242     18245     18242     18245     18246     18242     18245     18247
     18242     18245     18250     18246     18245     18247     18246     18245     18250
     18247     18245     18250     18245     18247     18248     18245     18247     18249
     18245     18247     18250     18248     18247     18249     18248     18247     18250
     18249     18247     18250     18245     18250     18247     18245     18250     18251
     18245     18250     18252     18247     18250     18251     18247     18250     18252
     18251     18250     18252     18250     18252     18253     18250     18252     18254
     18250     18252     18255     18253     18252     18254     18253     18252     18255
     18254     18252     18255     18252     18255     18256     18252     18255     18257
     18252     18255     18258     18256     18255     18257     18256     18255     18258
     18257     18255     18258     18255     18258     18259     18255     18258     18260
     18255     18258     18261     18259     18258     18260     18259     18258     18261
     18260     18258     18261     18258     18261     18262     18258     18261     18263
     18258     18261     18264     18262     18261     18263     18262     18261     18264
     18263     18261     18264     18261     18264     18265     18261     18264     18266
     18261     18264     18267     18265     18264     18266     18265     18264     18267
     18266     18264     18267     18264     18267     18268     18264     18267     18269
     18264     18267     18270     18268     18267     18269     18268     18267     18270
     18269     18267     18270     18224     18271     18272     18224     18271     18273
     18224     18271     18274     18272     18271     18273     18272     18271     18274
     18273     18271     18274     18271     18274     18275     18271     18274     18276
     18271     18274     18277     18275     18274     18276     18275     18274     18277
     18276     18274     18277     18274     18277     18278     18274     18277     18279
     18274     18277     18280     18278     18277     18279     18278     18277     18280
     18279     18277     18280     18277     18280     18281     18277     18280     18282
     18277     18280     18283     18281     18280     18282     18281     18280     18283
     18282     18280     18283     18280     18283     18284     18280     18283     18285
     18280     18283     18286     18284     18283     18285     18284     18283     18286
     18285     18283     18286     18283     18286     18287     18283     18286     18288
     18283     18286     18289     18287     18286     18288     18287     18286     18289
     18288     18286     18289     18286     18289     18290     18286     18289     18291
     18286     18289     18292     18290     18289     18291     18290     18289     18292
     18291     18289     18292     18289     18292     18293     18289     18292     18294
     18289     18292     18295     18293     18292     18294     18293     18292     18295
     18294     18292     18295     18292     18295     18296     18292     18295     18297
     18292     18295     18298     18296     18295     18297     18296     18295     18298
     18297     18295     18298     18295     18298     18299     18295     18298     18300
     18295     18298     18301     18299     18298     18300     18299     18298     18301
     18300     18298     18301     18298     18301     18302     18298     18301     18303
     18298     18301     18304     18302     18301     18303     18302     18301     18304
     18303     18301     18304     18301     18304     18305     18301     18304     18306
     18301     18304     18307     18305     18304     18306     18305     18304     18307
     18306     18304     18307     18304     18307     18308     18304     18307     18309
     18304     18307     18310     18308     18307     18309     18308     18307     18310
     18309     18307     18310     18307     18310     18311     18307     18310     18312
     18307     18310     18313     18311     18310     18312     18311     18310     18313
     18312     18310     18313     18315     18314     18316     18315     18314     18317
     18315     18314     18318     18316     18314     18317     18316     18314     18318
     18317     18314     18318     18314     18318     18319     18314     18318     18320
     18314     18318     18321     18319     18318     18320     18319     18318     18321
     18320     18318     18321     18318     18321     18322     18318     18321     18323
     18318     18321     18328     18322     18321     18323     18322     18321     18328
     18323     18321     18328     18325     18324     18326     18325     18324     18327
     18325     18324     18328     18326     18324     18327     18326     18324     18328
     18327     18324     18328     18324     18327     18329     18321     18328     18324
     18327     18329     18330     18327     18329     18331     18327     18329     18332
     18330     18329     18331     18330     18329     18332     18331     18329     18332
     18329     18332     18333     18329     18332     18334     18329     18332     18340
     18333     18332     18334     18333     18332     18340     18334     18332     18340
     18332     18334     18335     18334     18335     18336     18334     18335     18337
     18336     18335     18337     18335     18337     18338     18335     18337     18339
     18335     18337     18349     18338     18337     18339     18338     18337     18349
     18339     18337     18349     18332     18340     18341     18332     18340     18342
     18332     18340     18343     18341     18340     18342     18341     18340     18343
     18342     18340     18343     18340     18343     18344     18343     18344     18345
     18343     18344     18346     18345     18344     18346     18344     18346     18347
     18344     18346     18348     18344     18346     18393     18347     18346     18348
     18347     18346     18393     18348     18346     18393     18337     18349     18350
     18337     18349     18351     18337     18349     18352     18350     18349     18351
     18350     18349     18352     18351     18349     18352     18349     18352     18353
     18349     18352     18354     18349     18352     18355     18353     18352     18354
     18353     18352     18355     18354     18352     18355     18352     18355     18356
     18352     18355     18357     18352     18355     18358     18356     18355     18357
     18356     18355     18358     18357     18355     18358     18355     18358     18359
     18355     18358     18360     18355     18358     18361     18359     18358     18360
     18359     18358     18361     18360     18358     18361     18358     18361     18362
     18358     18361     18363     18358     18361     18364     18362     18361     18363
     18362     18361     18364     18363     18361     18364     18361     18364     18365
     18361     18364     18366     18361     18364     18367     18365     18364     18366
     18365     18364     18367     18366     18364     18367     18364     18367     18368
     18364     18367     18369     18364     18367     18372     18368     18367     18369
     18368     18367     18372     18369     18367     18372     18367     18369     18370
     18367     18369     18371     18367     18369     18372     18370     18369     18371
     18370     18369     18372     18371     18369     18372     18367     18372     18369
     18367     18372     18373     18367     18372     18374     18369     18372     18373
     18369     18372     18374     18373     18372     18374     18372     18374     18375
     18372     18374     18376     18372     18374     18377     18375     18374     18376
     18375     18374     18377     18376     18374     18377     18374     18377     18378
     18374     18377     18379     18374     18377     18380     18378     18377     18379
     18378     18377     18380     18379     18377     18380     18377     18380     18381
     18377     18380     18382     18377     18380     18383     18381     18380     18382
     18381     18380     18383     18382     18380     18383     18380     18383     18384
     18380     18383     18385     18380     18383     18386     18384     18383     18385
     18384     18383     18386     18385     18383     18386     18383     18386     18387
     18383     18386     18388     18383     18386     18389     18387     18386     18388
     18387     18386     18389     18388     18386     18389     18386     18389     18390
     18386     18389     18391     18386     18389     18392     18390     18389     18391
     18390     18389     18392     18391     18389     18392     18346     18393     18394
     18346     18393     18395     18346     18393     18396     18394     18393     18395
     18394     18393     18396     18395     18393     18396     18393     18396     18397
     18393     18396     18398     18393     18396     18399     18397     18396     18398
     18397     18396     18399     18398     18396     18399     18396     18399     18400
     18396     18399     18401     18396     18399     18402     18400     18399     18401
     18400     18399     18402     18401     18399     18402     18399     18402     18403
     18399     18402     18404     18399     18402     18405     18403     18402     18404
     18403     18402     18405     18404     18402     18405     18402     18405     18406
     18402     18405     18407     18402     18405     18408     18406     18405     18407
     18406     18405     18408     18407     18405     18408     18405     18408     18409
     18405     18408     18410     18405     18408     18411     18409     18408     18410
     18409     18408     18411     18410     18408     18411     18408     18411     18412
     18408     18411     18413     18408     18411     18414     18412     18411     18413
     18412     18411     18414     18413     18411     18414     18411     18414     18415
     18411     18414     18416     18411     18414     18417     18415     18414     18416
     18415     18414     18417     18416     18414     18417     18414     18417     18418
     18414     18417     18419     18414     18417     18420     18418     18417     18419
     18418     18417     18420     18419     18417     18420     18417     18420     18421
     18417     18420     18422     18417     18420     18423     18421     18420     18422
     18421     18420     18423     18422     18420     18423     18420     18423     18424
     18420     18423     18425     18420     18423     18426     18424     18423     18425
     18424     18423     18426     18425     18423     18426     18423     18426     18427
     18423     18426     18428     18423     18426     18429     18427     18426     18428
     18427     18426     18429     18428     18426     18429     18426     18429     18430
     18426     18429     18431     18426     18429     18432     18430     18429     18431
     18430     18429     18432     18431     18429     18432     18429     18432     18433
     18429     18432     18434     18429     18432     18435     18433     18432     18434
     18433     18432     18435     18434     18432     18435     18437     18436     18438
     18437     18436     18439     18437     18436     18441     18438     18436     18439
     18438     18436     18441     18439     18436     18441     18436     18439     18440
     18436     18441     18442     18436     18441     18443     18436     18441     18445
     18442     18441     18443     18442     18441     18445     18443     18441     18445
     18441     18443     18444     18441     18445     18446     18441     18445     18447
     18441     18445     18452     18446     18445     18447     18446     18445     18452
     18447     18445     18452     18449     18448     18450     18449     18448     18451
     18449     18448     18452     18450     18448     18451     18450     18448     18452
     18451     18448     18452     18448     18451     18453     18445     18452     18448
     18451     18453     18454     18451     18453     18455     18451     18453     18456
     18454     18453     18455     18454     18453     18456     18455     18453     18456
     18453     18456     18457     18453     18456     18458     18453     18456     18464
     18457     18456     18458     18457     18456     18464     18458     18456     18464
     18456     18458     18459     18458     18459     18460     18458     18459     18461
     18460     18459     18461     18459     18461     18462     18459     18461     18463
     18459     18461     18473     18462     18461     18463     18462     18461     18473
     18463     18461     18473     18456     18464     18465     18456     18464     18466
     18456     18464     18467     18465     18464     18466     18465     18464     18467
     18466     18464     18467     18464     18467     18468     18467     18468     18469
     18467     18468     18470     18469     18468     18470     18468     18470     18471
     18468     18470     18472     18468     18470     18514     18471     18470     18472
     18471     18470     18514     18472     18470     18514     18461     18473     18474
     18461     18473     18475     18461     18473     18476     18474     18473     18475
     18474     18473     18476     18475     18473     18476     18473     18476     18477
     18473     18476     18478     18473     18476     18479     18477     18476     18478
     18477     18476     18479     18478     18476     18479     18476     18479     18480
     18476     18479     18481     18476     18479     18482     18480     18479     18481
     18480     18479     18482     18481     18479     18482     18479     18482     18483
     18479     18482     18484     18479     18482     18485     18483     18482     18484
     18483     18482     18485     18484     18482     18485     18482     18485     18486
     18482     18485     18487     18482     18485     18488     18486     18485     18487
     18486     18485     18488     18487     18485     18488     18485     18488     18489
     18485     18488     18490     18485     18488     18491     18489     18488     18490
     18489     18488     18491     18490     18488     18491     18488     18491     18492
     18488     18491     18493     18492     18491     18493     18491     18493     18494
     18491     18493     18495     18494     18493     18495     18493     18495     18496
     18493     18495     18497     18493     18495     18498     18496     18495     18497
     18496     18495     18498     18497     18495     18498     18495     18498     18499
     18495     18498     18500     18495     18498     18501     18499     18498     18500
     18499     18498     18501     18500     18498     18501     18498     18501     18502
     18498     18501     18503     18498     18501     18504     18502     18501     18503
     18502     18501     18504     18503     18501     18504     18501     18504     18505
     18501     18504     18506     18501     18504     18507     18505     18504     18506
     18505     18504     18507     18506     18504     18507     18504     18507     18508
     18504     18507     18509     18504     18507     18510     18508     18507     18509
     18508     18507     18510     18509     18507     18510     18507     18510     18511
     18507     18510     18512     18507     18510     18513     18511     18510     18512
     18511     18510     18513     18512     18510     18513     18470     18514     18515
     18470     18514     18516     18470     18514     18517     18515     18514     18516
     18515     18514     18517     18516     18514     18517     18514     18517     18518
     18514     18517     18519     18514     18517     18520     18518     18517     18519
     18518     18517     18520     18519     18517     18520     18517     18520     18521
     18517     18520     18522     18517     18520     18523     18521     18520     18522
     18521     18520     18523     18522     18520     18523     18520     18523     18524
     18520     18523     18525     18520     18523     18526     18524     18523     18525
     18524     18523     18526     18525     18523     18526     18523     18526     18527
     18523     18526     18528     18523     18526     18529     18527     18526     18528
     18527     18526     18529     18528     18526     18529     18526     18529     18530
     18526     18529     18531     18526     18529     18532     18530     18529     18531
     18530     18529     18532     18531     18529     18532     18529     18532     18533
     18529     18532     18534     18529     18532     18535     18533     18532     18534
     18533     18532     18535     18534     18532     18535     18532     18535     18536
     18532     18535     18537     18532     18535     18538     18536     18535     18537
     18536     18535     18538     18537     18535     18538     18535     18538     18539
     18535     18538     18540     18535     18538     18541     18539     18538     18540
     18539     18538     18541     18540     18538     18541     18538     18541     18542
     18538     18541     18543     18538     18541     18544     18542     18541     18543
     18542     18541     18544     18543     18541     18544     18541     18544     18545
     18541     18544     18546     18541     18544     18547     18545     18544     18546
     18545     18544     18547     18546     18544     18547     18544     18547     18548
     18544     18547     18549     18544     18547     18550     18548     18547     18549
     18548     18547     18550     18549     18547     18550     18547     18550     18551
     18547     18550     18552     18547     18550     18553     18551     18550     18552
     18551     18550     18553     18552     18550     18553     18550     18553     18554
     18550     18553     18555     18550     18553     18556     18554     18553     18555
     18554     18553     18556     18555     18553     18556     18558     18557     18559
     18558     18557     18560     18558     18557     18561     18559     18557     18560
     18559     18557     18561     18560     18557     18561     18557     18561     18562
     18557     18561     18563     18557     18561     18564     18562     18561     18563
     18562     18561     18564     18563     18561     18564     18561     18564     18565
     18561     18564     18566     18561     18564     18571     18565     18564     18566
     18565     18564     18571     18566     18564     18571     18568     18567     18569
     18568     18567     18570     18568     18567     18571     18569     18567     18570
     18569     18567     18571     18570     18567     18571     18567     18570     18572
     18564     18571     18567     18570     18572     18573     18570     18572     18574
     18570     18572     18575     18573     18572     18574     18573     18572     18575
     18574     18572     18575     18572     18575     18576     18572     18575     18577
     18572     18575     18583     18576     18575     18577     18576     18575     18583
     18577     18575     18583     18575     18577     18578     18577     18578     18579
     18577     18578     18580     18579     18578     18580     18578     18580     18581
     18578     18580     18582     18578     18580     18592     18581     18580     18582
     18581     18580     18592     18582     18580     18592     18575     18583     18584
     18575     18583     18585     18575     18583     18586     18584     18583     18585
     18584     18583     18586     18585     18583     18586     18583     18586     18587
     18586     18587     18588     18586     18587     18589     18588     18587     18589
     18587     18589     18590     18587     18589     18591     18587     18589     18639
     18590     18589     18591     18590     18589     18639     18591     18589     18639
     18580     18592     18593     18580     18592     18594     18580     18592     18595
     18593     18592     18594     18593     18592     18595     18594     18592     18595
     18592     18595     18596     18592     18595     18597     18592     18595     18598
     18596     18595     18597     18596     18595     18598     18597     18595     18598
     18595     18598     18599     18595     18598     18600     18595     18598     18601
     18599     18598     18600     18599     18598     18601     18600     18598     18601
     18598     18601     18602     18598     18601     18603     18598     18601     18604
     18602     18601     18603     18602     18601     18604     18603     18601     18604
     18601     18604     18605     18601     18604     18606     18601     18604     18607
     18605     18604     18606     18605     18604     18607     18606     18604     18607
     18604     18607     18608     18604     18607     18609     18604     18607     18610
     18608     18607     18609     18608     18607     18610     18609     18607     18610
     18607     18610     18611     18607     18610     18612     18611     18610     18612
     18610     18612     18613     18610     18612     18614     18613     18612     18614
     18612     18614     18615     18612     18614     18616     18612     18614     18617
     18615     18614     18616     18615     18614     18617     18616     18614     18617
     18614     18617     18618     18614     18617     18619     18614     18617     18620
     18618     18617     18619     18618     18617     18620     18619     18617     18620
     18617     18620     18621     18617     18620     18622     18617     18620     18623
     18621     18620     18622     18621     18620     18623     18622     18620     18623
     18620     18623     18624     18620     18623     18625     18620     18623     18626
     18624     18623     18625     18624     18623     18626     18625     18623     18626
     18623     18626     18627     18623     18626     18628     18623     18626     18629
     18627     18626     18628     18627     18626     18629     18628     18626     18629
     18626     18629     18630     18626     18629     18631     18626     18629     18632
     18630     18629     18631     18630     18629     18632     18631     18629     18632
     18629     18632     18633     18629     18632     18634     18629     18632     18635
     18633     18632     18634     18633     18632     18635     18634     18632     18635
     18632     18635     18636     18632     18635     18637     18632     18635     18638
     18636     18635     18637     18636     18635     18638     18637     18635     18638
     18589     18639     18640     18589     18639     18641     18589     18639     18642
     18640     18639     18641     18640     18639     18642     18641     18639     18642
     18639     18642     18643     18639     18642     18644     18639     18642     18645
     18643     18642     18644     18643     18642     18645     18644     18642     18645
     18642     18645     18646     18642     18645     18647     18642     18645     18648
     18646     18645     18647     18646     18645     18648     18647     18645     18648
     18645     18648     18649     18645     18648     18650     18645     18648     18651
     18649     18648     18650     18649     18648     18651     18650     18648     18651
     18648     18651     18652     18648     18651     18653     18648     18651     18654
     18652     18651     18653     18652     18651     18654     18653     18651     18654
     18651     18654     18655     18651     18654     18656     18651     18654     18657
     18655     18654     18656     18655     18654     18657     18656     18654     18657
     18654     18657     18658     18654     18657     18659     18654     18657     18660
     18658     18657     18659     18658     18657     18660     18659     18657     18660
     18657     18660     18661     18657     18660     18662     18657     18660     18663
     18661     18660     18662     18661     18660     18663     18662     18660     18663
     18660     18663     18664     18660     18663     18665     18660     18663     18666
     18664     18663     18665     18664     18663     18666     18665     18663     18666
     18663     18666     18667     18663     18666     18668     18663     18666     18669
     18667     18666     18668     18667     18666     18669     18668     18666     18669
     18666     18669     18670     18666     18669     18671     18666     18669     18672
     18670     18669     18671     18670     18669     18672     18671     18669     18672
     18669     18672     18673     18669     18672     18674     18669     18672     18675
     18673     18672     18674     18673     18672     18675     18674     18672     18675
     18672     18675     18676     18672     18675     18677     18672     18675     18678
     18676     18675     18677     18676     18675     18678     18677     18675     18678
     18675     18678     18679     18675     18678     18680     18675     18678     18681
     18679     18678     18680     18679     18678     18681     18680     18678     18681
     18683     18682     18684     18683     18682     18685     18683     18682     18686
     18684     18682     18685     18684     18682     18686     18685     18682     18686
     18682     18686     18687     18682     18686     18688     18682     18686     18689
     18687     18686     18688     18687     18686     18689     18688     18686     18689
     18686     18689     18690     18686     18689     18691     18686     18689     18696
     18690     18689     18691     18690     18689     18696     18691     18689     18696
     18693     18692     18694     18693     18692     18695     18693     18692     18696
     18694     18692     18695     18694     18692     18696     18695     18692     18696
     18692     18695     18697     18689     18696     18692     18695     18697     18698
     18695     18697     18699     18695     18697     18700     18698     18697     18699
     18698     18697     18700     18699     18697     18700     18697     18700     18701
     18697     18700     18702     18697     18700     18708     18701     18700     18702
     18701     18700     18708     18702     18700     18708     18700     18702     18703
     18702     18703     18704     18702     18703     18705     18704     18703     18705
     18703     18705     18706     18703     18705     18707     18703     18705     18717
     18706     18705     18707     18706     18705     18717     18707     18705     18717
     18700     18708     18709     18700     18708     18710     18700     18708     18711
     18709     18708     18710     18709     18708     18711     18710     18708     18711
     18708     18711     18712     18711     18712     18713     18711     18712     18714
     18713     18712     18714     18712     18714     18715     18712     18714     18716
     18712     18714     18761     18715     18714     18716     18715     18714     18761
     18716     18714     18761     18705     18717     18718     18705     18717     18719
     18705     18717     18720     18718     18717     18719     18718     18717     18720
     18719     18717     18720     18717     18720     18721     18717     18720     18722
     18717     18720     18723     18721     18720     18722     18721     18720     18723
     18722     18720     18723     18720     18723     18724     18720     18723     18725
     18720     18723     18726     18724     18723     18725     18724     18723     18726
     18725     18723     18726     18723     18726     18727     18723     18726     18728
     18723     18726     18729     18727     18726     18728     18727     18726     18729
     18728     18726     18729     18726     18729     18730     18726     18729     18731
     18726     18729     18732     18730     18729     18731     18730     18729     18732
     18731     18729     18732     18729     18732     18733     18729     18732     18734
     18729     18732     18735     18733     18732     18734     18733     18732     18735
     18734     18732     18735     18732     18735     18736     18732     18735     18737
     18732     18735     18740     18736     18735     18737     18736     18735     18740
     18737     18735     18740     18735     18737     18738     18735     18737     18739
     18735     18737     18740     18738     18737     18739     18738     18737     18740
     18739     18737     18740     18735     18740     18737     18735     18740     18741
     18735     18740     18742     18737     18740     18741     18737     18740     18742
     18741     18740     18742     18740     18742     18743     18740     18742     18744
     18740     18742     18745     18743     18742     18744     18743     18742     18745
     18744     18742     18745     18742     18745     18746     18742     18745     18747
     18742     18745     18748     18746     18745     18747     18746     18745     18748
     18747     18745     18748     18745     18748     18749     18745     18748     18750
     18745     18748     18751     18749     18748     18750     18749     18748     18751
     18750     18748     18751     18748     18751     18752     18748     18751     18753
     18748     18751     18754     18752     18751     18753     18752     18751     18754
     18753     18751     18754     18751     18754     18755     18751     18754     18756
     18751     18754     18757     18755     18754     18756     18755     18754     18757
     18756     18754     18757     18754     18757     18758     18754     18757     18759
     18754     18757     18760     18758     18757     18759     18758     18757     18760
     18759     18757     18760     18714     18761     18762     18714     18761     18763
     18714     18761     18764     18762     18761     18763     18762     18761     18764
     18763     18761     18764     18761     18764     18765     18761     18764     18766
     18761     18764     18767     18765     18764     18766     18765     18764     18767
     18766     18764     18767     18764     18767     18768     18764     18767     18769
     18764     18767     18770     18768     18767     18769     18768     18767     18770
     18769     18767     18770     18767     18770     18771     18767     18770     18772
     18767     18770     18773     18771     18770     18772     18771     18770     18773
     18772     18770     18773     18770     18773     18774     18770     18773     18775
     18770     18773     18776     18774     18773     18775     18774     18773     18776
     18775     18773     18776     18773     18776     18777     18773     18776     18778
     18773     18776     18779     18777     18776     18778     18777     18776     18779
     18778     18776     18779     18776     18779     18780     18776     18779     18781
     18776     18779     18782     18780     18779     18781     18780     18779     18782
     18781     18779     18782     18779     18782     18783     18779     18782     18784
     18779     18782     18785     18783     18782     18784     18783     18782     18785
     18784     18782     18785     18782     18785     18786     18782     18785     18787
     18782     18785     18788     18786     18785     18787     18786     18785     18788
     18787     18785     18788     18785     18788     18789     18785     18788     18790
     18785     18788     18791     18789     18788     18790     18789     18788     18791
     18790     18788     18791     18788     18791     18792     18788     18791     18793
     18788     18791     18794     18792     18791     18793     18792     18791     18794
     18793     18791     18794     18791     18794     18795     18791     18794     18796
     18791     18794     18797     18795     18794     18796     18795     18794     18797
     18796     18794     18797     18794     18797     18798     18794     18797     18799
     18794     18797     18800     18798     18797     18799     18798     18797     18800
     18799     18797     18800     18797     18800     18801     18797     18800     18802
     18797     18800     18803     18801     18800     18802     18801     18800     18803
     18802     18800     18803     18805     18804     18806     18805     18804     18807
     18805     18804     18808     18806     18804     18807     18806     18804     18808
     18807     18804     18808     18804     18808     18809     18804     18808     18810
     18804     18808     18811     18809     18808     18810     18809     18808     18811
     18810     18808     18811     18808     18811     18812     18808     18811     18813
     18808     18811     18818     18812     18811     18813     18812     18811     18818
     18813     18811     18818     18815     18814     18816     18815     18814     18817
     18815     18814     18818     18816     18814     18817     18816     18814     18818
     18817     18814     18818     18814     18817     18819     18811     18818     18814
     18817     18819     18820     18817     18819     18821     18817     18819     18822
     18820     18819     18821     18820     18819     18822     18821     18819     18822
     18819     18822     18823     18819     18822     18824     18819     18822     18830
     18823     18822     18824     18823     18822     18830     18824     18822     18830
     18822     18824     18825     18824     18825     18826     18824     18825     18827
     18826     18825     18827     18825     18827     18828     18825     18827     18829
     18825     18827     18839     18828     18827     18829     18828     18827     18839
     18829     18827     18839     18822     18830     18831     18822     18830     18832
     18822     18830     18833     18831     18830     18832     18831     18830     18833
     18832     18830     18833     18830     18833     18834     18833     18834     18835
     18833     18834     18836     18835     18834     18836     18834     18836     18837
     18834     18836     18838     18834     18836     18883     18837     18836     18838
     18837     18836     18883     18838     18836     18883     18827     18839     18840
     18827     18839     18841     18827     18839     18842     18840     18839     18841
     18840     18839     18842     18841     18839     18842     18839     18842     18843
     18839     18842     18844     18839     18842     18845     18843     18842     18844
     18843     18842     18845     18844     18842     18845     18842     18845     18846
     18842     18845     18847     18842     18845     18848     18846     18845     18847
     18846     18845     18848     18847     18845     18848     18845     18848     18849
     18845     18848     18850     18845     18848     18851     18849     18848     18850
     18849     18848     18851     18850     18848     18851     18848     18851     18852
     18848     18851     18853     18848     18851     18854     18852     18851     18853
     18852     18851     18854     18853     18851     18854     18851     18854     18855
     18851     18854     18856     18851     18854     18857     18855     18854     18856
     18855     18854     18857     18856     18854     18857     18854     18857     18858
     18854     18857     18859     18854     18857     18862     18858     18857     18859
     18858     18857     18862     18859     18857     18862     18857     18859     18860
     18857     18859     18861     18857     18859     18862     18860     18859     18861
     18860     18859     18862     18861     18859     18862     18857     18862     18859
     18857     18862     18863     18857     18862     18864     18859     18862     18863
     18859     18862     18864     18863     18862     18864     18862     18864     18865
     18862     18864     18866     18862     18864     18867     18865     18864     18866
     18865     18864     18867     18866     18864     18867     18864     18867     18868
     18864     18867     18869     18864     18867     18870     18868     18867     18869
     18868     18867     18870     18869     18867     18870     18867     18870     18871
     18867     18870     18872     18867     18870     18873     18871     18870     18872
     18871     18870     18873     18872     18870     18873     18870     18873     18874
     18870     18873     18875     18870     18873     18876     18874     18873     18875
     18874     18873     18876     18875     18873     18876     18873     18876     18877
     18873     18876     18878     18873     18876     18879     18877     18876     18878
     18877     18876     18879     18878     18876     18879     18876     18879     18880
     18876     18879     18881     18876     18879     18882     18880     18879     18881
     18880     18879     18882     18881     18879     18882     18836     18883     18884
     18836     18883     18885     18836     18883     18886     18884     18883     18885
     18884     18883     18886     18885     18883     18886     18883     18886     18887
     18883     18886     18888     18883     18886     18889     18887     18886     18888
     18887     18886     18889     18888     18886     18889     18886     18889     18890
     18886     18889     18891     18886     18889     18892     18890     18889     18891
     18890     18889     18892     18891     18889     18892     18889     18892     18893
     18889     18892     18894     18889     18892     18895     18893     18892     18894
     18893     18892     18895     18894     18892     18895     18892     18895     18896
     18892     18895     18897     18892     18895     18898     18896     18895     18897
     18896     18895     18898     18897     18895     18898     18895     18898     18899
     18895     18898     18900     18895     18898     18901     18899     18898     18900
     18899     18898     18901     18900     18898     18901     18898     18901     18902
     18898     18901     18903     18898     18901     18904     18902     18901     18903
     18902     18901     18904     18903     18901     18904     18901     18904     18905
     18901     18904     18906     18901     18904     18907     18905     18904     18906
     18905     18904     18907     18906     18904     18907     18904     18907     18908
     18904     18907     18909     18904     18907     18910     18908     18907     18909
     18908     18907     18910     18909     18907     18910     18907     18910     18911
     18907     18910     18912     18907     18910     18913     18911     18910     18912
     18911     18910     18913     18912     18910     18913     18910     18913     18914
     18910     18913     18915     18910     18913     18916     18914     18913     18915
     18914     18913     18916     18915     18913     18916     18913     18916     18917
     18913     18916     18918     18913     18916     18919     18917     18916     18918
     18917     18916     18919     18918     18916     18919     18916     18919     18920
     18916     18919     18921     18916     18919     18922     18920     18919     18921
     18920     18919     18922     18921     18919     18922     18924     18923     18925
     18924     18923     18926     18924     18923     18927     18925     18923     18926
     18925     18923     18927     18926     18923     18927     18923     18927     18928
     18923     18927     18929     18923     18927     18930     18928     18927     18929
     18928     18927     18930     18929     18927     18930     18927     18930     18931
     18927     18930     18932     18927     18930     18937     18931     18930     18932
     18931     18930     18937     18932     18930     18937     18934     18933     18935
     18934     18933     18936     18934     18933     18937     18935     18933     18936
     18935     18933     18937     18936     18933     18937     18933     18936     18938
     18930     18937     18933     18936     18938     18939     18936     18938     18940
     18936     18938     18941     18939     18938     18940     18939     18938     18941
     18940     18938     18941     18938     18941     18942     18938     18941     18943
     18938     18941     18949     18942     18941     18943     18942     18941     18949
     18943     18941     18949     18941     18943     18944     18943     18944     18945
     18943     18944     18946     18945     18944     18946     18944     18946     18947
     18944     18946     18948     18944     18946     18958     18947     18946     18948
     18947     18946     18958     18948     18946     18958     18941     18949     18950
     18941     18949     18951     18941     18949     18952     18950     18949     18951
     18950     18949     18952     18951     18949     18952     18949     18952     18953
     18952     18953     18954     18952     18953     18955     18954     18953     18955
     18953     18955     18956     18953     18955     18957     18953     18955     19002
     18956     18955     18957     18956     18955     19002     18957     18955     19002
     18946     18958     18959     18946     18958     18960     18946     18958     18961
     18959     18958     18960     18959     18958     18961     18960     18958     18961
     18958     18961     18962     18958     18961     18963     18958     18961     18964
     18962     18961     18963     18962     18961     18964     18963     18961     18964
     18961     18964     18965     18961     18964     18966     18961     18964     18967
     18965     18964     18966     18965     18964     18967     18966     18964     18967
     18964     18967     18968     18964     18967     18969     18964     18967     18970
     18968     18967     18969     18968     18967     18970     18969     18967     18970
     18967     18970     18971     18967     18970     18972     18967     18970     18973
     18971     18970     18972     18971     18970     18973     18972     18970     18973
     18970     18973     18974     18970     18973     18975     18970     18973     18976
     18974     18973     18975     18974     18973     18976     18975     18973     18976
     18973     18976     18977     18973     18976     18978     18973     18976     18981
     18977     18976     18978     18977     18976     18981     18978     18976     18981
     18976     18978     18979     18976     18978     18980     18976     18978     18981
     18979     18978     18980     18979     18978     18981     18980     18978     18981
     18976     18981     18978     18976     18981     18982     18976     18981     18983
     18978     18981     18982     18978     18981     18983     18982     18981     18983
     18981     18983     18984     18981     18983     18985     18981     18983     18986
     18984     18983     18985     18984     18983     18986     18985     18983     18986
     18983     18986     18987     18983     18986     18988     18983     18986     18989
     18987     18986     18988     18987     18986     18989     18988     18986     18989
     18986     18989     18990     18986     18989     18991     18986     18989     18992
     18990     18989     18991     18990     18989     18992     18991     18989     18992
     18989     18992     18993     18989     18992     18994     18989     18992     18995
     18993     18992     18994     18993     18992     18995     18994     18992     18995
     18992     18995     18996     18992     18995     18997     18992     18995     18998
     18996     18995     18997     18996     18995     18998     18997     18995     18998
     18995     18998     18999     18995     18998     19000     18995     18998     19001
     18999     18998     19000     18999     18998     19001     19000     18998     19001
     18955     19002     19003     18955     19002     19004     18955     19002     19005
     19003     19002     19004     19003     19002     19005     19004     19002     19005
     19002     19005     19006     19002     19005     19007     19002     19005     19008
     19006     19005     19007     19006     19005     19008     19007     19005     19008
     19005     19008     19009     19005     19008     19010     19005     19008     19011
     19009     19008     19010     19009     19008     19011     19010     19008     19011
     19008     19011     19012     19008     19011     19013     19008     19011     19014
     19012     19011     19013     19012     19011     19014     19013     19011     19014
     19011     19014     19015     19011     19014     19016     19011     19014     19017
     19015     19014     19016     19015     19014     19017     19016     19014     19017
     19014     19017     19018     19014     19017     19019     19014     19017     19020
     19018     19017     19019     19018     19017     19020     19019     19017     19020
     19017     19020     19021     19017     19020     19022     19017     19020     19023
     19021     19020     19022     19021     19020     19023     19022     19020     19023
     19020     19023     19024     19020     19023     19025     19020     19023     19026
     19024     19023     19025     19024     19023     19026     19025     19023     19026
     19023     19026     19027     19023     19026     19028     19023     19026     19029
     19027     19026     19028     19027     19026     19029     19028     19026     19029
     19026     19029     19030     19026     19029     19031     19026     19029     19032
     19030     19029     19031     19030     19029     19032     19031     19029     19032
     19029     19032     19033     19029     19032     19034     19029     19032     19035
     19033     19032     19034     19033     19032     19035     19034     19032     19035
     19032     19035     19036     19032     19035     19037     19032     19035     19038
     19036     19035     19037     19036     19035     19038     19037     19035     19038
     19035     19038     19039     19035     19038     19040     19035     19038     19041
     19039     19038     19040     19039     19038     19041     19040     19038     19041
     19038     19041     19042     19038     19041     19043     19038     19041     19044
     19042     19041     19043     19042     19041     19044     19043     19041     19044
     19046     19045     19047     19046     19045     19048     19046     19045     19049
     19047     19045     19048     19047     19045     19049     19048     19045     19049
     19045     19049     19050     19045     19049     19051     19045     19049     19052
     19050     19049     19051     19050     19049     19052     19051     19049     19052
     19049     19052     19053     19049     19052     19054     19049     19052     19059
     19053     19052     19054     19053     19052     19059     19054     19052     19059
     19056     19055     19057     19056     19055     19058     19056     19055     19059
     19057     19055     19058     19057     19055     19059     19058     19055     19059
     19055     19058     19060     19052     19059     19055     19058     19060     19061
     19058     19060     19062     19058     19060     19063     19061     19060     19062
     19061     19060     19063     19062     19060     19063     19060     19063     19064
     19060     19063     19065     19060     19063     19071     19064     19063     19065
     19064     19063     19071     19065     19063     19071     19063     19065     19066
     19065     19066     19067     19065     19066     19068     19067     19066     19068
     19066     19068     19069     19066     19068     19070     19066     19068     19080
     19069     19068     19070     19069     19068     19080     19070     19068     19080
     19063     19071     19072     19063     19071     19073     19063     19071     19074
     19072     19071     19073     19072     19071     19074     19073     19071     19074
     19071     19074     19075     19074     19075     19076     19074     19075     19077
     19076     19075     19077     19075     19077     19078     19075     19077     19079
     19075     19077     19124     19078     19077     19079     19078     19077     19124
     19079     19077     19124     19068     19080     19081     19068     19080     19082
     19068     19080     19083     19081     19080     19082     19081     19080     19083
     19082     19080     19083     19080     19083     19084     19080     19083     19085
     19080     19083     19086     19084     19083     19085     19084     19083     19086
     19085     19083     19086     19083     19086     19087     19083     19086     19088
     19083     19086     19089     19087     19086     19088     19087     19086     19089
     19088     19086     19089     19086     19089     19090     19086     19089     19091
     19086     19089     19092     19090     19089     19091     19090     19089     19092
     19091     19089     19092     19089     19092     19093     19089     19092     19094
     19089     19092     19095     19093     19092     19094     19093     19092     19095
     19094     19092     19095     19092     19095     19096     19092     19095     19097
     19092     19095     19098     19096     19095     19097     19096     19095     19098
     19097     19095     19098     19095     19098     19099     19095     19098     19100
     19095     19098     19103     19099     19098     19100     19099     19098     19103
     19100     19098     19103     19098     19100     19101     19098     19100     19102
     19098     19100     19103     19101     19100     19102     19101     19100     19103
     19102     19100     19103     19098     19103     19100     19098     19103     19104
     19098     19103     19105     19100     19103     19104     19100     19103     19105
     19104     19103     19105     19103     19105     19106     19103     19105     19107
     19103     19105     19108     19106     19105     19107     19106     19105     19108
     19107     19105     19108     19105     19108     19109     19105     19108     19110
     19105     19108     19111     19109     19108     19110     19109     19108     19111
     19110     19108     19111     19108     19111     19112     19108     19111     19113
     19108     19111     19114     19112     19111     19113     19112     19111     19114
     19113     19111     19114     19111     19114     19115     19111     19114     19116
     19111     19114     19117     19115     19114     19116     19115     19114     19117
     19116     19114     19117     19114     19117     19118     19114     19117     19119
     19114     19117     19120     19118     19117     19119     19118     19117     19120
     19119     19117     19120     19117     19120     19121     19117     19120     19122
     19117     19120     19123     19121     19120     19122     19121     19120     19123
     19122     19120     19123     19077     19124     19125     19077     19124     19126
     19077     19124     19127     19125     19124     19126     19125     19124     19127
     19126     19124     19127     19124     19127     19128     19124     19127     19129
     19124     19127     19130     19128     19127     19129     19128     19127     19130
     19129     19127     19130     19127     19130     19131     19127     19130     19132
     19127     19130     19133     19131     19130     19132     19131     19130     19133
     19132     19130     19133     19130     19133     19134     19130     19133     19135
     19130     19133     19136     19134     19133     19135     19134     19133     19136
     19135     19133     19136     19133     19136     19137     19133     19136     19138
     19133     19136     19139     19137     19136     19138     19137     19136     19139
     19138     19136     19139     19136     19139     19140     19136     19139     19141
     19136     19139     19142     19140     19139     19141     19140     19139     19142
     19141     19139     19142     19139     19142     19143     19139     19142     19144
     19139     19142     19145     19143     19142     19144     19143     19142     19145
     19144     19142     19145     19142     19145     19146     19142     19145     19147
     19142     19145     19148     19146     19145     19147     19146     19145     19148
     19147     19145     19148     19145     19148     19149     19145     19148     19150
     19145     19148     19151     19149     19148     19150     19149     19148     19151
     19150     19148     19151     19148     19151     19152     19148     19151     19153
     19148     19151     19154     19152     19151     19153     19152     19151     19154
     19153     19151     19154     19151     19154     19155     19151     19154     19156
     19151     19154     19157     19155     19154     19156     19155     19154     19157
     19156     19154     19157     19154     19157     19158     19154     19157     19159
     19154     19157     19160     19158     19157     19159     19158     19157     19160
     19159     19157     19160     19157     19160     19161     19157     19160     19162
     19157     19160     19163     19161     19160     19162     19161     19160     19163
     19162     19160     19163     19160     19163     19164     19160     19163     19165
     19160     19163     19166     19164     19163     19165     19164     19163     19166
     19165     19163     19166     19168     19167     19169     19168     19167     19170
     19168     19167     19172     19169     19167     19170     19169     19167     19172
     19170     19167     19172     19167     19170     19171     19167     19172     19173
     19167     19172     19174     19167     19172     19176     19173     19172     19174
     19173     19172     19176     19174     19172     19176     19172     19174     19175
     19172     19176     19177     19172     19176     19178     19172     19176     19183
     19177     19176     19178     19177     19176     19183     19178     19176     19183
     19180     19179     19181     19180     19179     19182     19180     19179     19183
     19181     19179     19182     19181     19179     19183     19182     19179     19183
     19179     19182     19184     19176     19183     19179     19182     19184     19185
     19182     19184     19186     19182     19184     19187     19185     19184     19186
     19185     19184     19187     19186     19184     19187     19184     19187     19188
     19184     19187     19189     19184     19187     19195     19188     19187     19189
     19188     19187     19195     19189     19187     19195     19187     19189     19190
     19189     19190     19191     19189     19190     19192     19191     19190     19192
     19190     19192     19193     19190     19192     19194     19190     19192     19204
     19193     19192     19194     19193     19192     19204     19194     19192     19204
     19187     19195     19196     19187     19195     19197     19187     19195     19198
     19196     19195     19197     19196     19195     19198     19197     19195     19198
     19195     19198     19199     19198     19199     19200     19198     19199     19201
     19200     19199     19201     19199     19201     19202     19199     19201     19203
     19199     19201     19245     19202     19201     19203     19202     19201     19245
     19203     19201     19245     19192     19204     19205     19192     19204     19206
     19192     19204     19207     19205     19204     19206     19205     19204     19207
     19206     19204     19207     19204     19207     19208     19204     19207     19209
     19204     19207     19210     19208     19207     19209     19208     19207     19210
     19209     19207     19210     19207     19210     19211     19207     19210     19212
     19207     19210     19213     19211     19210     19212     19211     19210     19213
     19212     19210     19213     19210     19213     19214     19210     19213     19215
     19210     19213     19216     19214     19213     19215     19214     19213     19216
     19215     19213     19216     19213     19216     19217     19213     19216     19218
     19213     19216     19219     19217     19216     19218     19217     19216     19219
     19218     19216     19219     19216     19219     19220     19216     19219     19221
     19216     19219     19222     19220     19219     19221     19220     19219     19222
     19221     19219     19222     19219     19222     19223     19219     19222     19224
     19223     19222     19224     19222     19224     19225     19222     19224     19226
     19225     19224     19226     19224     19226     19227     19224     19226     19228
     19224     19226     19229     19227     19226     19228     19227     19226     19229
     19228     19226     19229     19226     19229     19230     19226     19229     19231
     19226     19229     19232     19230     19229     19231     19230     19229     19232
     19231     19229     19232     19229     19232     19233     19229     19232     19234
     19229     19232     19235     19233     19232     19234     19233     19232     19235
     19234     19232     19235     19232     19235     19236     19232     19235     19237
     19232     19235     19238     19236     19235     19237     19236     19235     19238
     19237     19235     19238     19235     19238     19239     19235     19238     19240
     19235     19238     19241     19239     19238     19240     19239     19238     19241
     19240     19238     19241     19238     19241     19242     19238     19241     19243
     19238     19241     19244     19242     19241     19243     19242     19241     19244
     19243     19241     19244     19201     19245     19246     19201     19245     19247
     19201     19245     19248     19246     19245     19247     19246     19245     19248
     19247     19245     19248     19245     19248     19249     19245     19248     19250
     19245     19248     19251     19249     19248     19250     19249     19248     19251
     19250     19248     19251     19248     19251     19252     19248     19251     19253
     19248     19251     19254     19252     19251     19253     19252     19251     19254
     19253     19251     19254     19251     19254     19255     19251     19254     19256
     19251     19254     19257     19255     19254     19256     19255     19254     19257
     19256     19254     19257     19254     19257     19258     19254     19257     19259
     19254     19257     19260     19258     19257     19259     19258     19257     19260
     19259     19257     19260     19257     19260     19261     19257     19260     19262
     19257     19260     19263     19261     19260     19262     19261     19260     19263
     19262     19260     19263     19260     19263     19264     19260     19263     19265
     19260     19263     19266     19264     19263     19265     19264     19263     19266
     19265     19263     19266     19263     19266     19267     19263     19266     19268
     19263     19266     19269     19267     19266     19268     19267     19266     19269
     19268     19266     19269     19266     19269     19270     19266     19269     19271
     19266     19269     19272     19270     19269     19271     19270     19269     19272
     19271     19269     19272     19269     19272     19273     19269     19272     19274
     19269     19272     19275     19273     19272     19274     19273     19272     19275
     19274     19272     19275     19272     19275     19276     19272     19275     19277
     19272     19275     19278     19276     19275     19277     19276     19275     19278
     19277     19275     19278     19275     19278     19279     19275     19278     19280
     19275     19278     19281     19279     19278     19280     19279     19278     19281
     19280     19278     19281     19278     19281     19282     19278     19281     19283
     19278     19281     19284     19282     19281     19283     19282     19281     19284
     19283     19281     19284     19281     19284     19285     19281     19284     19286
     19281     19284     19287     19285     19284     19286     19285     19284     19287
     19286     19284     19287     19289     19288     19290     19289     19288     19291
     19289     19288     19292     19290     19288     19291     19290     19288     19292
     19291     19288     19292     19288     19292     19293     19288     19292     19294
     19288     19292     19295     19293     19292     19294     19293     19292     19295
     19294     19292     19295     19292     19295     19296     19292     19295     19297
     19292     19295     19302     19296     19295     19297     19296     19295     19302
     19297     19295     19302     19299     19298     19300     19299     19298     19301
     19299     19298     19302     19300     19298     19301     19300     19298     19302
     19301     19298     19302     19298     19301     19303     19295     19302     19298
     19301     19303     19304     19301     19303     19305     19301     19303     19306
     19304     19303     19305     19304     19303     19306     19305     19303     19306
     19303     19306     19307     19303     19306     19308     19303     19306     19314
     19307     19306     19308     19307     19306     19314     19308     19306     19314
     19306     19308     19309     19308     19309     19310     19308     19309     19311
     19310     19309     19311     19309     19311     19312     19309     19311     19313
     19309     19311     19323     19312     19311     19313     19312     19311     19323
     19313     19311     19323     19306     19314     19315     19306     19314     19316
     19306     19314     19317     19315     19314     19316     19315     19314     19317
     19316     19314     19317     19314     19317     19318     19317     19318     19319
     19317     19318     19320     19319     19318     19320     19318     19320     19321
     19318     19320     19322     19318     19320     19367     19321     19320     19322
     19321     19320     19367     19322     19320     19367     19311     19323     19324
     19311     19323     19325     19311     19323     19326     19324     19323     19325
     19324     19323     19326     19325     19323     19326     19323     19326     19327
     19323     19326     19328     19323     19326     19329     19327     19326     19328
     19327     19326     19329     19328     19326     19329     19326     19329     19330
     19326     19329     19331     19326     19329     19332     19330     19329     19331
     19330     19329     19332     19331     19329     19332     19329     19332     19333
     19329     19332     19334     19329     19332     19335     19333     19332     19334
     19333     19332     19335     19334     19332     19335     19332     19335     19336
     19332     19335     19337     19332     19335     19338     19336     19335     19337
     19336     19335     19338     19337     19335     19338     19335     19338     19339
     19335     19338     19340     19335     19338     19341     19339     19338     19340
     19339     19338     19341     19340     19338     19341     19338     19341     19342
     19338     19341     19343     19338     19341     19346     19342     19341     19343
     19342     19341     19346     19343     19341     19346     19341     19343     19344
     19341     19343     19345     19341     19343     19346     19344     19343     19345
     19344     19343     19346     19345     19343     19346     19341     19346     19343
     19341     19346     19347     19341     19346     19348     19343     19346     19347
     19343     19346     19348     19347     19346     19348     19346     19348     19349
     19346     19348     19350     19346     19348     19351     19349     19348     19350
     19349     19348     19351     19350     19348     19351     19348     19351     19352
     19348     19351     19353     19348     19351     19354     19352     19351     19353
     19352     19351     19354     19353     19351     19354     19351     19354     19355
     19351     19354     19356     19351     19354     19357     19355     19354     19356
     19355     19354     19357     19356     19354     19357     19354     19357     19358
     19354     19357     19359     19354     19357     19360     19358     19357     19359
     19358     19357     19360     19359     19357     19360     19357     19360     19361
     19357     19360     19362     19357     19360     19363     19361     19360     19362
     19361     19360     19363     19362     19360     19363     19360     19363     19364
     19360     19363     19365     19360     19363     19366     19364     19363     19365
     19364     19363     19366     19365     19363     19366     19320     19367     19368
     19320     19367     19369     19320     19367     19370     19368     19367     19369
     19368     19367     19370     19369     19367     19370     19367     19370     19371
     19367     19370     19372     19367     19370     19373     19371     19370     19372
     19371     19370     19373     19372     19370     19373     19370     19373     19374
     19370     19373     19375     19370     19373     19376     19374     19373     19375
     19374     19373     19376     19375     19373     19376     19373     19376     19377
     19373     19376     19378     19373     19376     19379     19377     19376     19378
     19377     19376     19379     19378     19376     19379     19376     19379     19380
     19376     19379     19381     19376     19379     19382     19380     19379     19381
     19380     19379     19382     19381     19379     19382     19379     19382     19383
     19379     19382     19384     19379     19382     19385     19383     19382     19384
     19383     19382     19385     19384     19382     19385     19382     19385     19386
     19382     19385     19387     19382     19385     19388     19386     19385     19387
     19386     19385     19388     19387     19385     19388     19385     19388     19389
     19385     19388     19390     19385     19388     19391     19389     19388     19390
     19389     19388     19391     19390     19388     19391     19388     19391     19392
     19388     19391     19393     19388     19391     19394     19392     19391     19393
     19392     19391     19394     19393     19391     19394     19391     19394     19395
     19391     19394     19396     19391     19394     19397     19395     19394     19396
     19395     19394     19397     19396     19394     19397     19394     19397     19398
     19394     19397     19399     19394     19397     19400     19398     19397     19399
     19398     19397     19400     19399     19397     19400     19397     19400     19401
     19397     19400     19402     19397     19400     19403     19401     19400     19402
     19401     19400     19403     19402     19400     19403     19400     19403     19404
     19400     19403     19405     19400     19403     19406     19404     19403     19405
     19404     19403     19406     19405     19403     19406     19403     19406     19407
     19403     19406     19408     19403     19406     19409     19407     19406     19408
     19407     19406     19409     19408     19406     19409     19411     19410     19412
     19411     19410     19413     19411     19410     19414     19412     19410     19413
     19412     19410     19414     19413     19410     19414     19410     19414     19415
     19410     19414     19416     19410     19414     19417     19415     19414     19416
     19415     19414     19417     19416     19414     19417     19414     19417     19418
     19414     19417     19419     19414     19417     19424     19418     19417     19419
     19418     19417     19424     19419     19417     19424     19421     19420     19422
     19421     19420     19423     19421     19420     19424     19422     19420     19423
     19422     19420     19424     19423     19420     19424     19420     19423     19425
     19417     19424     19420     19423     19425     19426     19423     19425     19427
     19423     19425     19428     19426     19425     19427     19426     19425     19428
     19427     19425     19428     19425     19428     19429     19425     19428     19430
     19425     19428     19436     19429     19428     19430     19429     19428     19436
     19430     19428     19436     19428     19430     19431     19430     19431     19432
     19430     19431     19433     19432     19431     19433     19431     19433     19434
     19431     19433     19435     19431     19433     19445     19434     19433     19435
     19434     19433     19445     19435     19433     19445     19428     19436     19437
     19428     19436     19438     19428     19436     19439     19437     19436     19438
     19437     19436     19439     19438     19436     19439     19436     19439     19440
     19439     19440     19441     19439     19440     19442     19441     19440     19442
     19440     19442     19443     19440     19442     19444     19440     19442     19489
     19443     19442     19444     19443     19442     19489     19444     19442     19489
     19433     19445     19446     19433     19445     19447     19433     19445     19448
     19446     19445     19447     19446     19445     19448     19447     19445     19448
     19445     19448     19449     19445     19448     19450     19445     19448     19451
     19449     19448     19450     19449     19448     19451     19450     19448     19451
     19448     19451     19452     19448     19451     19453     19448     19451     19454
     19452     19451     19453     19452     19451     19454     19453     19451     19454
     19451     19454     19455     19451     19454     19456     19451     19454     19457
     19455     19454     19456     19455     19454     19457     19456     19454     19457
     19454     19457     19458     19454     19457     19459     19454     19457     19460
     19458     19457     19459     19458     19457     19460     19459     19457     19460
     19457     19460     19461     19457     19460     19462     19457     19460     19463
     19461     19460     19462     19461     19460     19463     19462     19460     19463
     19460     19463     19464     19460     19463     19465     19460     19463     19468
     19464     19463     19465     19464     19463     19468     19465     19463     19468
     19463     19465     19466     19463     19465     19467     19463     19465     19468
     19466     19465     19467     19466     19465     19468     19467     19465     19468
     19463     19468     19465     19463     19468     19469     19463     19468     19470
     19465     19468     19469     19465     19468     19470     19469     19468     19470
     19468     19470     19471     19468     19470     19472     19468     19470     19473
     19471     19470     19472     19471     19470     19473     19472     19470     19473
     19470     19473     19474     19470     19473     19475     19470     19473     19476
     19474     19473     19475     19474     19473     19476     19475     19473     19476
     19473     19476     19477     19473     19476     19478     19473     19476     19479
     19477     19476     19478     19477     19476     19479     19478     19476     19479
     19476     19479     19480     19476     19479     19481     19476     19479     19482
     19480     19479     19481     19480     19479     19482     19481     19479     19482
     19479     19482     19483     19479     19482     19484     19479     19482     19485
     19483     19482     19484     19483     19482     19485     19484     19482     19485
     19482     19485     19486     19482     19485     19487     19482     19485     19488
     19486     19485     19487     19486     19485     19488     19487     19485     19488
     19442     19489     19490     19442     19489     19491     19442     19489     19492
     19490     19489     19491     19490     19489     19492     19491     19489     19492
     19489     19492     19493     19489     19492     19494     19489     19492     19495
     19493     19492     19494     19493     19492     19495     19494     19492     19495
     19492     19495     19496     19492     19495     19497     19492     19495     19498
     19496     19495     19497     19496     19495     19498     19497     19495     19498
     19495     19498     19499     19495     19498     19500     19495     19498     19501
     19499     19498     19500     19499     19498     19501     19500     19498     19501
     19498     19501     19502     19498     19501     19503     19498     19501     19504
     19502     19501     19503     19502     19501     19504     19503     19501     19504
     19501     19504     19505     19501     19504     19506     19501     19504     19507
     19505     19504     19506     19505     19504     19507     19506     19504     19507
     19504     19507     19508     19504     19507     19509     19504     19507     19510
     19508     19507     19509     19508     19507     19510     19509     19507     19510
     19507     19510     19511     19507     19510     19512     19507     19510     19513
     19511     19510     19512     19511     19510     19513     19512     19510     19513
     19510     19513     19514     19510     19513     19515     19510     19513     19516
     19514     19513     19515     19514     19513     19516     19515     19513     19516
     19513     19516     19517     19513     19516     19518     19513     19516     19519
     19517     19516     19518     19517     19516     19519     19518     19516     19519
     19516     19519     19520     19516     19519     19521     19516     19519     19522
     19520     19519     19521     19520     19519     19522     19521     19519     19522
     19519     19522     19523     19519     19522     19524     19519     19522     19525
     19523     19522     19524     19523     19522     19525     19524     19522     19525
     19522     19525     19526     19522     19525     19527     19522     19525     19528
     19526     19525     19527     19526     19525     19528     19527     19525     19528
     19525     19528     19529     19525     19528     19530     19525     19528     19531
     19529     19528     19530     19529     19528     19531     19530     19528     19531
     19533     19532     19534     19533     19532     19535     19533     19532     19536
     19534     19532     19535     19534     19532     19536     19535     19532     19536
     19532     19536     19537     19532     19536     19538     19532     19536     19539
     19537     19536     19538     19537     19536     19539     19538     19536     19539
     19536     19539     19540     19536     19539     19541     19536     19539     19546
     19540     19539     19541     19540     19539     19546     19541     19539     19546
     19543     19542     19544     19543     19542     19545     19543     19542     19546
     19544     19542     19545     19544     19542     19546     19545     19542     19546
     19542     19545     19547     19539     19546     19542     19545     19547     19548
     19545     19547     19549     19545     19547     19550     19548     19547     19549
     19548     19547     19550     19549     19547     19550     19547     19550     19551
     19547     19550     19552     19547     19550     19558     19551     19550     19552
     19551     19550     19558     19552     19550     19558     19550     19552     19553
     19552     19553     19554     19552     19553     19555     19554     19553     19555
     19553     19555     19556     19553     19555     19557     19553     19555     19567
     19556     19555     19557     19556     19555     19567     19557     19555     19567
     19550     19558     19559     19550     19558     19560     19550     19558     19561
     19559     19558     19560     19559     19558     19561     19560     19558     19561
     19558     19561     19562     19561     19562     19563     19561     19562     19564
     19563     19562     19564     19562     19564     19565     19562     19564     19566
     19562     19564     19611     19565     19564     19566     19565     19564     19611
     19566     19564     19611     19555     19567     19568     19555     19567     19569
     19555     19567     19570     19568     19567     19569     19568     19567     19570
     19569     19567     19570     19567     19570     19571     19567     19570     19572
     19567     19570     19573     19571     19570     19572     19571     19570     19573
     19572     19570     19573     19570     19573     19574     19570     19573     19575
     19570     19573     19576     19574     19573     19575     19574     19573     19576
     19575     19573     19576     19573     19576     19577     19573     19576     19578
     19573     19576     19579     19577     19576     19578     19577     19576     19579
     19578     19576     19579     19576     19579     19580     19576     19579     19581
     19576     19579     19582     19580     19579     19581     19580     19579     19582
     19581     19579     19582     19579     19582     19583     19579     19582     19584
     19579     19582     19585     19583     19582     19584     19583     19582     19585
     19584     19582     19585     19582     19585     19586     19582     19585     19587
     19582     19585     19590     19586     19585     19587     19586     19585     19590
     19587     19585     19590     19585     19587     19588     19585     19587     19589
     19585     19587     19590     19588     19587     19589     19588     19587     19590
     19589     19587     19590     19585     19590     19587     19585     19590     19591
     19585     19590     19592     19587     19590     19591     19587     19590     19592
     19591     19590     19592     19590     19592     19593     19590     19592     19594
     19590     19592     19595     19593     19592     19594     19593     19592     19595
     19594     19592     19595     19592     19595     19596     19592     19595     19597
     19592     19595     19598     19596     19595     19597     19596     19595     19598
     19597     19595     19598     19595     19598     19599     19595     19598     19600
     19595     19598     19601     19599     19598     19600     19599     19598     19601
     19600     19598     19601     19598     19601     19602     19598     19601     19603
     19598     19601     19604     19602     19601     19603     19602     19601     19604
     19603     19601     19604     19601     19604     19605     19601     19604     19606
     19601     19604     19607     19605     19604     19606     19605     19604     19607
     19606     19604     19607     19604     19607     19608     19604     19607     19609
     19604     19607     19610     19608     19607     19609     19608     19607     19610
     19609     19607     19610     19564     19611     19612     19564     19611     19613
     19564     19611     19614     19612     19611     19613     19612     19611     19614
     19613     19611     19614     19611     19614     19615     19611     19614     19616
     19611     19614     19617     19615     19614     19616     19615     19614     19617
     19616     19614     19617     19614     19617     19618     19614     19617     19619
     19614     19617     19620     19618     19617     19619     19618     19617     19620
     19619     19617     19620     19617     19620     19621     19617     19620     19622
     19617     19620     19623     19621     19620     19622     19621     19620     19623
     19622     19620     19623     19620     19623     19624     19620     19623     19625
     19620     19623     19626     19624     19623     19625     19624     19623     19626
     19625     19623     19626     19623     19626     19627     19623     19626     19628
     19623     19626     19629     19627     19626     19628     19627     19626     19629
     19628     19626     19629     19626     19629     19630     19626     19629     19631
     19626     19629     19632     19630     19629     19631     19630     19629     19632
     19631     19629     19632     19629     19632     19633     19629     19632     19634
     19629     19632     19635     19633     19632     19634     19633     19632     19635
     19634     19632     19635     19632     19635     19636     19632     19635     19637
     19632     19635     19638     19636     19635     19637     19636     19635     19638
     19637     19635     19638     19635     19638     19639     19635     19638     19640
     19635     19638     19641     19639     19638     19640     19639     19638     19641
     19640     19638     19641     19638     19641     19642     19638     19641     19643
     19638     19641     19644     19642     19641     19643     19642     19641     19644
     19643     19641     19644     19641     19644     19645     19641     19644     19646
     19641     19644     19647     19645     19644     19646     19645     19644     19647
     19646     19644     19647     19644     19647     19648     19644     19647     19649
     19644     19647     19650     19648     19647     19649     19648     19647     19650
     19649     19647     19650     19647     19650     19651     19647     19650     19652
     19647     19650     19653     19651     19650     19652     19651     19650     19653
     19652     19650     19653     19655     19654     19656     19655     19654     19657
     19655     19654     19659     19656     19654     19657     19656     19654     19659
     19657     19654     19659     19654     19657     19658     19654     19659     19660
     19654     19659     19661     19654     19659     19663     19660     19659     19661
     19660     19659     19663     19661     19659     19663     19659     19661     19662
     19659     19663     19664     19659     19663     19665     19659     19663     19670
     19664     19663     19665     19664     19663     19670     19665     19663     19670
     19667     19666     19668     19667     19666     19669     19667     19666     19670
     19668     19666     19669     19668     19666     19670     19669     19666     19670
     19666     19669     19671     19663     19670     19666     19669     19671     19672
     19669     19671     19673     19669     19671     19674     19672     19671     19673
     19672     19671     19674     19673     19671     19674     19671     19674     19675
     19671     19674     19676     19671     19674     19682     19675     19674     19676
     19675     19674     19682     19676     19674     19682     19674     19676     19677
     19676     19677     19678     19676     19677     19679     19678     19677     19679
     19677     19679     19680     19677     19679     19681     19677     19679     19691
     19680     19679     19681     19680     19679     19691     19681     19679     19691
     19674     19682     19683     19674     19682     19684     19674     19682     19685
     19683     19682     19684     19683     19682     19685     19684     19682     19685
     19682     19685     19686     19685     19686     19687     19685     19686     19688
     19687     19686     19688     19686     19688     19689     19686     19688     19690
     19686     19688     19735     19689     19688     19690     19689     19688     19735
     19690     19688     19735     19679     19691     19692     19679     19691     19693
     19679     19691     19694     19692     19691     19693     19692     19691     19694
     19693     19691     19694     19691     19694     19695     19691     19694     19696
     19691     19694     19697     19695     19694     19696     19695     19694     19697
     19696     19694     19697     19694     19697     19698     19694     19697     19699
     19694     19697     19700     19698     19697     19699     19698     19697     19700
     19699     19697     19700     19697     19700     19701     19697     19700     19702
     19697     19700     19703     19701     19700     19702     19701     19700     19703
     19702     19700     19703     19700     19703     19704     19700     19703     19705
     19700     19703     19706     19704     19703     19705     19704     19703     19706
     19705     19703     19706     19703     19706     19707     19703     19706     19708
     19703     19706     19709     19707     19706     19708     19707     19706     19709
     19708     19706     19709     19706     19709     19710     19706     19709     19711
     19706     19709     19714     19710     19709     19711     19710     19709     19714
     19711     19709     19714     19709     19711     19712     19709     19711     19713
     19709     19711     19714     19712     19711     19713     19712     19711     19714
     19713     19711     19714     19709     19714     19711     19709     19714     19715
     19709     19714     19716     19711     19714     19715     19711     19714     19716
     19715     19714     19716     19714     19716     19717     19714     19716     19718
     19714     19716     19719     19717     19716     19718     19717     19716     19719
     19718     19716     19719     19716     19719     19720     19716     19719     19721
     19716     19719     19722     19720     19719     19721     19720     19719     19722
     19721     19719     19722     19719     19722     19723     19719     19722     19724
     19719     19722     19725     19723     19722     19724     19723     19722     19725
     19724     19722     19725     19722     19725     19726     19722     19725     19727
     19722     19725     19728     19726     19725     19727     19726     19725     19728
     19727     19725     19728     19725     19728     19729     19725     19728     19730
     19725     19728     19731     19729     19728     19730     19729     19728     19731
     19730     19728     19731     19728     19731     19732     19728     19731     19733
     19728     19731     19734     19732     19731     19733     19732     19731     19734
     19733     19731     19734     19688     19735     19736     19688     19735     19737
     19688     19735     19738     19736     19735     19737     19736     19735     19738
     19737     19735     19738     19735     19738     19739     19735     19738     19740
     19735     19738     19741     19739     19738     19740     19739     19738     19741
     19740     19738     19741     19738     19741     19742     19738     19741     19743
     19738     19741     19744     19742     19741     19743     19742     19741     19744
     19743     19741     19744     19741     19744     19745     19741     19744     19746
     19741     19744     19747     19745     19744     19746     19745     19744     19747
     19746     19744     19747     19744     19747     19748     19744     19747     19749
     19744     19747     19750     19748     19747     19749     19748     19747     19750
     19749     19747     19750     19747     19750     19751     19747     19750     19752
     19747     19750     19753     19751     19750     19752     19751     19750     19753
     19752     19750     19753     19750     19753     19754     19750     19753     19755
     19750     19753     19756     19754     19753     19755     19754     19753     19756
     19755     19753     19756     19753     19756     19757     19753     19756     19758
     19753     19756     19759     19757     19756     19758     19757     19756     19759
     19758     19756     19759     19756     19759     19760     19756     19759     19761
     19756     19759     19762     19760     19759     19761     19760     19759     19762
     19761     19759     19762     19759     19762     19763     19759     19762     19764
     19759     19762     19765     19763     19762     19764     19763     19762     19765
     19764     19762     19765     19762     19765     19766     19762     19765     19767
     19762     19765     19768     19766     19765     19767     19766     19765     19768
     19767     19765     19768     19765     19768     19769     19765     19768     19770
     19765     19768     19771     19769     19768     19770     19769     19768     19771
     19770     19768     19771     19768     19771     19772     19768     19771     19773
     19768     19771     19774     19772     19771     19773     19772     19771     19774
     19773     19771     19774     19771     19774     19775     19771     19774     19776
     19771     19774     19777     19775     19774     19776     19775     19774     19777
     19776     19774     19777     19779     19778     19780     19779     19778     19781
     19779     19778     19782     19780     19778     19781     19780     19778     19782
     19781     19778     19782     19778     19782     19783     19778     19782     19784
     19778     19782     19785     19783     19782     19784     19783     19782     19785
     19784     19782     19785     19782     19785     19786     19782     19785     19787
     19782     19785     19792     19786     19785     19787     19786     19785     19792
     19787     19785     19792     19789     19788     19790     19789     19788     19791
     19789     19788     19792     19790     19788     19791     19790     19788     19792
     19791     19788     19792     19788     19791     19793     19785     19792     19788
     19791     19793     19794     19791     19793     19795     19791     19793     19796
     19794     19793     19795     19794     19793     19796     19795     19793     19796
     19793     19796     19797     19793     19796     19798     19793     19796     19804
     19797     19796     19798     19797     19796     19804     19798     19796     19804
     19796     19798     19799     19798     19799     19800     19798     19799     19801
     19800     19799     19801     19799     19801     19802     19799     19801     19803
     19799     19801     19813     19802     19801     19803     19802     19801     19813
     19803     19801     19813     19796     19804     19805     19796     19804     19806
     19796     19804     19807     19805     19804     19806     19805     19804     19807
     19806     19804     19807     19804     19807     19808     19807     19808     19809
     19807     19808     19810     19809     19808     19810     19808     19810     19811
     19808     19810     19812     19808     19810     19854     19811     19810     19812
     19811     19810     19854     19812     19810     19854     19801     19813     19814
     19801     19813     19815     19801     19813     19816     19814     19813     19815
     19814     19813     19816     19815     19813     19816     19813     19816     19817
     19813     19816     19818     19813     19816     19819     19817     19816     19818
     19817     19816     19819     19818     19816     19819     19816     19819     19820
     19816     19819     19821     19816     19819     19822     19820     19819     19821
     19820     19819     19822     19821     19819     19822     19819     19822     19823
     19819     19822     19824     19819     19822     19825     19823     19822     19824
     19823     19822     19825     19824     19822     19825     19822     19825     19826
     19822     19825     19827     19822     19825     19828     19826     19825     19827
     19826     19825     19828     19827     19825     19828     19825     19828     19829
     19825     19828     19830     19825     19828     19831     19829     19828     19830
     19829     19828     19831     19830     19828     19831     19828     19831     19832
     19828     19831     19833     19832     19831     19833     19831     19833     19834
     19831     19833     19835     19834     19833     19835     19833     19835     19836
     19833     19835     19837     19833     19835     19838     19836     19835     19837
     19836     19835     19838     19837     19835     19838     19835     19838     19839
     19835     19838     19840     19835     19838     19841     19839     19838     19840
     19839     19838     19841     19840     19838     19841     19838     19841     19842
     19838     19841     19843     19838     19841     19844     19842     19841     19843
     19842     19841     19844     19843     19841     19844     19841     19844     19845
     19841     19844     19846     19841     19844     19847     19845     19844     19846
     19845     19844     19847     19846     19844     19847     19844     19847     19848
     19844     19847     19849     19844     19847     19850     19848     19847     19849
     19848     19847     19850     19849     19847     19850     19847     19850     19851
     19847     19850     19852     19847     19850     19853     19851     19850     19852
     19851     19850     19853     19852     19850     19853     19810     19854     19855
     19810     19854     19856     19810     19854     19857     19855     19854     19856
     19855     19854     19857     19856     19854     19857     19854     19857     19858
     19854     19857     19859     19854     19857     19860     19858     19857     19859
     19858     19857     19860     19859     19857     19860     19857     19860     19861
     19857     19860     19862     19857     19860     19863     19861     19860     19862
     19861     19860     19863     19862     19860     19863     19860     19863     19864
     19860     19863     19865     19860     19863     19866     19864     19863     19865
     19864     19863     19866     19865     19863     19866     19863     19866     19867
     19863     19866     19868     19863     19866     19869     19867     19866     19868
     19867     19866     19869     19868     19866     19869     19866     19869     19870
     19866     19869     19871     19866     19869     19872     19870     19869     19871
     19870     19869     19872     19871     19869     19872     19869     19872     19873
     19869     19872     19874     19873     19872     19874     19872     19874     19875
     19872     19874     19876     19875     19874     19876     19874     19876     19877
     19874     19876     19878     19874     19876     19879     19877     19876     19878
     19877     19876     19879     19878     19876     19879     19876     19879     19880
     19876     19879     19881     19876     19879     19882     19880     19879     19881
     19880     19879     19882     19881     19879     19882     19879     19882     19883
     19879     19882     19884     19879     19882     19885     19883     19882     19884
     19883     19882     19885     19884     19882     19885     19882     19885     19886
     19882     19885     19887     19882     19885     19888     19886     19885     19887
     19886     19885     19888     19887     19885     19888     19885     19888     19889
     19885     19888     19890     19885     19888     19891     19889     19888     19890
     19889     19888     19891     19890     19888     19891     19888     19891     19892
     19888     19891     19893     19888     19891     19894     19892     19891     19893
     19892     19891     19894     19893     19891     19894     19891     19894     19895
     19891     19894     19896     19891     19894     19897     19895     19894     19896
     19895     19894     19897     19896     19894     19897     19894     19897     19898
     19894     19897     19899     19894     19897     19900     19898     19897     19899
     19898     19897     19900     19899     19897     19900     19902     19901     19903
     19902     19901     19904     19902     19901     19905     19903     19901     19904
     19903     19901     19905     19904     19901     19905     19901     19905     19906
     19901     19905     19907     19901     19905     19908     19906     19905     19907
     19906     19905     19908     19907     19905     19908     19905     19908     19909
     19905     19908     19910     19905     19908     19915     19909     19908     19910
     19909     19908     19915     19910     19908     19915     19912     19911     19913
     19912     19911     19914     19912     19911     19915     19913     19911     19914
     19913     19911     19915     19914     19911     19915     19911     19914     19916
     19908     19915     19911     19914     19916     19917     19914     19916     19918
     19914     19916     19919     19917     19916     19918     19917     19916     19919
     19918     19916     19919     19916     19919     19920     19916     19919     19921
     19916     19919     19927     19920     19919     19921     19920     19919     19927
     19921     19919     19927     19919     19921     19922     19921     19922     19923
     19921     19922     19924     19923     19922     19924     19922     19924     19925
     19922     19924     19926     19922     19924     19936     19925     19924     19926
     19925     19924     19936     19926     19924     19936     19919     19927     19928
     19919     19927     19929     19919     19927     19930     19928     19927     19929
     19928     19927     19930     19929     19927     19930     19927     19930     19931
     19930     19931     19932     19930     19931     19933     19932     19931     19933
     19931     19933     19934     19931     19933     19935     19931     19933     19980
     19934     19933     19935     19934     19933     19980     19935     19933     19980
     19924     19936     19937     19924     19936     19938     19924     19936     19939
     19937     19936     19938     19937     19936     19939     19938     19936     19939
     19936     19939     19940     19936     19939     19941     19936     19939     19942
     19940     19939     19941     19940     19939     19942     19941     19939     19942
     19939     19942     19943     19939     19942     19944     19939     19942     19945
     19943     19942     19944     19943     19942     19945     19944     19942     19945
     19942     19945     19946     19942     19945     19947     19942     19945     19948
     19946     19945     19947     19946     19945     19948     19947     19945     19948
     19945     19948     19949     19945     19948     19950     19945     19948     19951
     19949     19948     19950     19949     19948     19951     19950     19948     19951
     19948     19951     19952     19948     19951     19953     19948     19951     19954
     19952     19951     19953     19952     19951     19954     19953     19951     19954
     19951     19954     19955     19951     19954     19956     19951     19954     19959
     19955     19954     19956     19955     19954     19959     19956     19954     19959
     19954     19956     19957     19954     19956     19958     19954     19956     19959
     19957     19956     19958     19957     19956     19959     19958     19956     19959
     19954     19959     19956     19954     19959     19960     19954     19959     19961
     19956     19959     19960     19956     19959     19961     19960     19959     19961
     19959     19961     19962     19959     19961     19963     19959     19961     19964
     19962     19961     19963     19962     19961     19964     19963     19961     19964
     19961     19964     19965     19961     19964     19966     19961     19964     19967
     19965     19964     19966     19965     19964     19967     19966     19964     19967
     19964     19967     19968     19964     19967     19969     19964     19967     19970
     19968     19967     19969     19968     19967     19970     19969     19967     19970
     19967     19970     19971     19967     19970     19972     19967     19970     19973
     19971     19970     19972     19971     19970     19973     19972     19970     19973
     19970     19973     19974     19970     19973     19975     19970     19973     19976
     19974     19973     19975     19974     19973     19976     19975     19973     19976
     19973     19976     19977     19973     19976     19978     19973     19976     19979
     19977     19976     19978     19977     19976     19979     19978     19976     19979
     19933     19980     19981     19933     19980     19982     19933     19980     19983
     19981     19980     19982     19981     19980     19983     19982     19980     19983
     19980     19983     19984     19980     19983     19985     19980     19983     19986
     19984     19983     19985     19984     19983     19986     19985     19983     19986
     19983     19986     19987     19983     19986     19988     19983     19986     19989
     19987     19986     19988     19987     19986     19989     19988     19986     19989
     19986     19989     19990     19986     19989     19991     19986     19989     19992
     19990     19989     19991     19990     19989     19992     19991     19989     19992
     19989     19992     19993     19989     19992     19994     19989     19992     19995
     19993     19992     19994     19993     19992     19995     19994     19992     19995
     19992     19995     19996     19992     19995     19997     19992     19995     19998
     19996     19995     19997     19996     19995     19998     19997     19995     19998
     19995     19998     19999     19995     19998     20000     19995     19998     20001
     19999     19998     20000     19999     19998     20001     20000     19998     20001
     19998     20001     20002     19998     20001     20003     19998     20001     20004
     20002     20001     20003     20002     20001     20004     20003     20001     20004
     20001     20004     20005     20001     20004     20006     20001     20004     20007
     20005     20004     20006     20005     20004     20007     20006     20004     20007
     20004     20007     20008     20004     20007     20009     20004     20007     20010
     20008     20007     20009     20008     20007     20010     20009     20007     20010
     20007     20010     20011     20007     20010     20012     20007     20010     20013
     20011     20010     20012     20011     20010     20013     20012     20010     20013
     20010     20013     20014     20010     20013     20015     20010     20013     20016
     20014     20013     20015     20014     20013     20016     20015     20013     20016
     20013     20016     20017     20013     20016     20018     20013     20016     20019
     20017     20016     20018     20017     20016     20019     20018     20016     20019
     20016     20019     20020     20016     20019     20021     20016     20019     20022
     20020     20019     20021     20020     20019     20022     20021     20019     20022
     20024     20023     20025     20024     20023     20026     20024     20023     20027
     20025     20023     20026     20025     20023     20027     20026     20023     20027
     20023     20027     20028     20023     20027     20029     20023     20027     20030
     20028     20027     20029     20028     20027     20030     20029     20027     20030
     20027     20030     20031     20027     20030     20032     20027     20030     20037
     20031     20030     20032     20031     20030     20037     20032     20030     20037
     20034     20033     20035     20034     20033     20036     20034     20033     20037
     20035     20033     20036     20035     20033     20037     20036     20033     20037
     20033     20036     20038     20030     20037     20033     20036     20038     20039
     20036     20038     20040     20036     20038     20041     20039     20038     20040
     20039     20038     20041     20040     20038     20041     20038     20041     20042
     20038     20041     20043     20038     20041     20049     20042     20041     20043
     20042     20041     20049     20043     20041     20049     20041     20043     20044
     20043     20044     20045     20043     20044     20046     20045     20044     20046
     20044     20046     20047     20044     20046     20048     20044     20046     20058
     20047     20046     20048     20047     20046     20058     20048     20046     20058
     20041     20049     20050     20041     20049     20051     20041     20049     20052
     20050     20049     20051     20050     20049     20052     20051     20049     20052
     20049     20052     20053     20052     20053     20054     20052     20053     20055
     20054     20053     20055     20053     20055     20056     20053     20055     20057
     20053     20055     20102     20056     20055     20057     20056     20055     20102
     20057     20055     20102     20046     20058     20059     20046     20058     20060
     20046     20058     20061     20059     20058     20060     20059     20058     20061
     20060     20058     20061     20058     20061     20062     20058     20061     20063
     20058     20061     20064     20062     20061     20063     20062     20061     20064
     20063     20061     20064     20061     20064     20065     20061     20064     20066
     20061     20064     20067     20065     20064     20066     20065     20064     20067
     20066     20064     20067     20064     20067     20068     20064     20067     20069
     20064     20067     20070     20068     20067     20069     20068     20067     20070
     20069     20067     20070     20067     20070     20071     20067     20070     20072
     20067     20070     20073     20071     20070     20072     20071     20070     20073
     20072     20070     20073     20070     20073     20074     20070     20073     20075
     20070     20073     20076     20074     20073     20075     20074     20073     20076
     20075     20073     20076     20073     20076     20077     20073     20076     20078
     20073     20076     20081     20077     20076     20078     20077     20076     20081
     20078     20076     20081     20076     20078     20079     20076     20078     20080
     20076     20078     20081     20079     20078     20080     20079     20078     20081
     20080     20078     20081     20076     20081     20078     20076     20081     20082
     20076     20081     20083     20078     20081     20082     20078     20081     20083
     20082     20081     20083     20081     20083     20084     20081     20083     20085
     20081     20083     20086     20084     20083     20085     20084     20083     20086
     20085     20083     20086     20083     20086     20087     20083     20086     20088
     20083     20086     20089     20087     20086     20088     20087     20086     20089
     20088     20086     20089     20086     20089     20090     20086     20089     20091
     20086     20089     20092     20090     20089     20091     20090     20089     20092
     20091     20089     20092     20089     20092     20093     20089     20092     20094
     20089     20092     20095     20093     20092     20094     20093     20092     20095
     20094     20092     20095     20092     20095     20096     20092     20095     20097
     20092     20095     20098     20096     20095     20097     20096     20095     20098
     20097     20095     20098     20095     20098     20099     20095     20098     20100
     20095     20098     20101     20099     20098     20100     20099     20098     20101
     20100     20098     20101     20055     20102     20103     20055     20102     20104
     20055     20102     20105     20103     20102     20104     20103     20102     20105
     20104     20102     20105     20102     20105     20106     20102     20105     20107
     20102     20105     20108     20106     20105     20107     20106     20105     20108
     20107     20105     20108     20105     20108     20109     20105     20108     20110
     20105     20108     20111     20109     20108     20110     20109     20108     20111
     20110     20108     20111     20108     20111     20112     20108     20111     20113
     20108     20111     20114     20112     20111     20113     20112     20111     20114
     20113     20111     20114     20111     20114     20115     20111     20114     20116
     20111     20114     20117     20115     20114     20116     20115     20114     20117
     20116     20114     20117     20114     20117     20118     20114     20117     20119
     20114     20117     20120     20118     20117     20119     20118     20117     20120
     20119     20117     20120     20117     20120     20121     20117     20120     20122
     20117     20120     20123     20121     20120     20122     20121     20120     20123
     20122     20120     20123     20120     20123     20124     20120     20123     20125
     20120     20123     20126     20124     20123     20125     20124     20123     20126
     20125     20123     20126     20123     20126     20127     20123     20126     20128
     20123     20126     20129     20127     20126     20128     20127     20126     20129
     20128     20126     20129     20126     20129     20130     20126     20129     20131
     20126     20129     20132     20130     20129     20131     20130     20129     20132
     20131     20129     20132     20129     20132     20133     20129     20132     20134
     20129     20132     20135     20133     20132     20134     20133     20132     20135
     20134     20132     20135     20132     20135     20136     20132     20135     20137
     20132     20135     20138     20136     20135     20137     20136     20135     20138
     20137     20135     20138     20135     20138     20139     20135     20138     20140
     20135     20138     20141     20139     20138     20140     20139     20138     20141
     20140     20138     20141     20143     20142     20144     20143     20142     20145
     20143     20142     20147     20144     20142     20145     20144     20142     20147
     20145     20142     20147     20142     20145     20146     20142     20147     20148
     20142     20147     20149     20142     20147     20151     20148     20147     20149
     20148     20147     20151     20149     20147     20151     20147     20149     20150
     20147     20151     20152     20147     20151     20153     20147     20151     20158
     20152     20151     20153     20152     20151     20158     20153     20151     20158
     20155     20154     20156     20155     20154     20157     20155     20154     20158
     20156     20154     20157     20156     20154     20158     20157     20154     20158
     20154     20157     20159     20151     20158     20154     20157     20159     20160
     20157     20159     20161     20157     20159     20162     20160     20159     20161
     20160     20159     20162     20161     20159     20162     20159     20162     20163
     20159     20162     20164     20159     20162     20170     20163     20162     20164
     20163     20162     20170     20164     20162     20170     20162     20164     20165
     20164     20165     20166     20164     20165     20167     20166     20165     20167
     20165     20167     20168     20165     20167     20169     20165     20167     20179
     20168     20167     20169     20168     20167     20179     20169     20167     20179
     20162     20170     20171     20162     20170     20172     20162     20170     20173
     20171     20170     20172     20171     20170     20173     20172     20170     20173
     20170     20173     20174     20173     20174     20175     20173     20174     20176
     20175     20174     20176     20174     20176     20177     20174     20176     20178
     20174     20176     20220     20177     20176     20178     20177     20176     20220
     20178     20176     20220     20167     20179     20180     20167     20179     20181
     20167     20179     20182     20180     20179     20181     20180     20179     20182
     20181     20179     20182     20179     20182     20183     20179     20182     20184
     20179     20182     20185     20183     20182     20184     20183     20182     20185
     20184     20182     20185     20182     20185     20186     20182     20185     20187
     20182     20185     20188     20186     20185     20187     20186     20185     20188
     20187     20185     20188     20185     20188     20189     20185     20188     20190
     20185     20188     20191     20189     20188     20190     20189     20188     20191
     20190     20188     20191     20188     20191     20192     20188     20191     20193
     20188     20191     20194     20192     20191     20193     20192     20191     20194
     20193     20191     20194     20191     20194     20195     20191     20194     20196
     20191     20194     20197     20195     20194     20196     20195     20194     20197
     20196     20194     20197     20194     20197     20198     20194     20197     20199
     20198     20197     20199     20197     20199     20200     20197     20199     20201
     20200     20199     20201     20199     20201     20202     20199     20201     20203
     20199     20201     20204     20202     20201     20203     20202     20201     20204
     20203     20201     20204     20201     20204     20205     20201     20204     20206
     20201     20204     20207     20205     20204     20206     20205     20204     20207
     20206     20204     20207     20204     20207     20208     20204     20207     20209
     20204     20207     20210     20208     20207     20209     20208     20207     20210
     20209     20207     20210     20207     20210     20211     20207     20210     20212
     20207     20210     20213     20211     20210     20212     20211     20210     20213
     20212     20210     20213     20210     20213     20214     20210     20213     20215
     20210     20213     20216     20214     20213     20215     20214     20213     20216
     20215     20213     20216     20213     20216     20217     20213     20216     20218
     20213     20216     20219     20217     20216     20218     20217     20216     20219
     20218     20216     20219     20176     20220     20221     20176     20220     20222
     20176     20220     20223     20221     20220     20222     20221     20220     20223
     20222     20220     20223     20220     20223     20224     20220     20223     20225
     20220     20223     20226     20224     20223     20225     20224     20223     20226
     20225     20223     20226     20223     20226     20227     20223     20226     20228
     20223     20226     20229     20227     20226     20228     20227     20226     20229
     20228     20226     20229     20226     20229     20230     20226     20229     20231
     20226     20229     20232     20230     20229     20231     20230     20229     20232
     20231     20229     20232     20229     20232     20233     20229     20232     20234
     20229     20232     20235     20233     20232     20234     20233     20232     20235
     20234     20232     20235     20232     20235     20236     20232     20235     20237
     20232     20235     20238     20236     20235     20237     20236     20235     20238
     20237     20235     20238     20235     20238     20239     20235     20238     20240
     20235     20238     20241     20239     20238     20240     20239     20238     20241
     20240     20238     20241     20238     20241     20242     20238     20241     20243
     20238     20241     20244     20242     20241     20243     20242     20241     20244
     20243     20241     20244     20241     20244     20245     20241     20244     20246
     20241     20244     20247     20245     20244     20246     20245     20244     20247
     20246     20244     20247     20244     20247     20248     20244     20247     20249
     20244     20247     20250     20248     20247     20249     20248     20247     20250
     20249     20247     20250     20247     20250     20251     20247     20250     20252
     20247     20250     20253     20251     20250     20252     20251     20250     20253
     20252     20250     20253     20250     20253     20254     20250     20253     20255
     20250     20253     20256     20254     20253     20255     20254     20253     20256
     20255     20253     20256     20253     20256     20257     20253     20256     20258
     20253     20256     20259     20257     20256     20258     20257     20256     20259
     20258     20256     20259     20256     20259     20260     20256     20259     20261
     20256     20259     20262     20260     20259     20261     20260     20259     20262
     20261     20259     20262     20264     20263     20265     20264     20263     20266
     20264     20263     20268     20265     20263     20266     20265     20263     20268
     20266     20263     20268     20263     20266     20267     20263     20268     20269
     20263     20268     20270     20263     20268     20272     20269     20268     20270
     20269     20268     20272     20270     20268     20272     20268     20270     20271
     20268     20272     20273     20268     20272     20274     20268     20272     20279
     20273     20272     20274     20273     20272     20279     20274     20272     20279
     20276     20275     20277     20276     20275     20278     20276     20275     20279
     20277     20275     20278     20277     20275     20279     20278     20275     20279
     20275     20278     20280     20272     20279     20275     20278     20280     20281
     20278     20280     20282     20278     20280     20283     20281     20280     20282
     20281     20280     20283     20282     20280     20283     20280     20283     20284
     20280     20283     20285     20280     20283     20291     20284     20283     20285
     20284     20283     20291     20285     20283     20291     20283     20285     20286
     20285     20286     20287     20285     20286     20288     20287     20286     20288
     20286     20288     20289     20286     20288     20290     20286     20288     20300
     20289     20288     20290     20289     20288     20300     20290     20288     20300
     20283     20291     20292     20283     20291     20293     20283     20291     20294
     20292     20291     20293     20292     20291     20294     20293     20291     20294
     20291     20294     20295     20294     20295     20296     20294     20295     20297
     20296     20295     20297     20295     20297     20298     20295     20297     20299
     20295     20297     20344     20298     20297     20299     20298     20297     20344
     20299     20297     20344     20288     20300     20301     20288     20300     20302
     20288     20300     20303     20301     20300     20302     20301     20300     20303
     20302     20300     20303     20300     20303     20304     20300     20303     20305
     20300     20303     20306     20304     20303     20305     20304     20303     20306
     20305     20303     20306     20303     20306     20307     20303     20306     20308
     20303     20306     20309     20307     20306     20308     20307     20306     20309
     20308     20306     20309     20306     20309     20310     20306     20309     20311
     20306     20309     20312     20310     20309     20311     20310     20309     20312
     20311     20309     20312     20309     20312     20313     20309     20312     20314
     20309     20312     20315     20313     20312     20314     20313     20312     20315
     20314     20312     20315     20312     20315     20316     20312     20315     20317
     20312     20315     20318     20316     20315     20317     20316     20315     20318
     20317     20315     20318     20315     20318     20319     20315     20318     20320
     20315     20318     20323     20319     20318     20320     20319     20318     20323
     20320     20318     20323     20318     20320     20321     20318     20320     20322
     20318     20320     20323     20321     20320     20322     20321     20320     20323
     20322     20320     20323     20318     20323     20320     20318     20323     20324
     20318     20323     20325     20320     20323     20324     20320     20323     20325
     20324     20323     20325     20323     20325     20326     20323     20325     20327
     20323     20325     20328     20326     20325     20327     20326     20325     20328
     20327     20325     20328     20325     20328     20329     20325     20328     20330
     20325     20328     20331     20329     20328     20330     20329     20328     20331
     20330     20328     20331     20328     20331     20332     20328     20331     20333
     20328     20331     20334     20332     20331     20333     20332     20331     20334
     20333     20331     20334     20331     20334     20335     20331     20334     20336
     20331     20334     20337     20335     20334     20336     20335     20334     20337
     20336     20334     20337     20334     20337     20338     20334     20337     20339
     20334     20337     20340     20338     20337     20339     20338     20337     20340
     20339     20337     20340     20337     20340     20341     20337     20340     20342
     20337     20340     20343     20341     20340     20342     20341     20340     20343
     20342     20340     20343     20297     20344     20345     20297     20344     20346
     20297     20344     20347     20345     20344     20346     20345     20344     20347
     20346     20344     20347     20344     20347     20348     20344     20347     20349
     20344     20347     20350     20348     20347     20349     20348     20347     20350
     20349     20347     20350     20347     20350     20351     20347     20350     20352
     20347     20350     20353     20351     20350     20352     20351     20350     20353
     20352     20350     20353     20350     20353     20354     20350     20353     20355
     20350     20353     20356     20354     20353     20355     20354     20353     20356
     20355     20353     20356     20353     20356     20357     20353     20356     20358
     20353     20356     20359     20357     20356     20358     20357     20356     20359
     20358     20356     20359     20356     20359     20360     20356     20359     20361
     20356     20359     20362     20360     20359     20361     20360     20359     20362
     20361     20359     20362     20359     20362     20363     20359     20362     20364
     20359     20362     20365     20363     20362     20364     20363     20362     20365
     20364     20362     20365     20362     20365     20366     20362     20365     20367
     20362     20365     20368     20366     20365     20367     20366     20365     20368
     20367     20365     20368     20365     20368     20369     20365     20368     20370
     20365     20368     20371     20369     20368     20370     20369     20368     20371
     20370     20368     20371     20368     20371     20372     20368     20371     20373
     20368     20371     20374     20372     20371     20373     20372     20371     20374
     20373     20371     20374     20371     20374     20375     20371     20374     20376
     20371     20374     20377     20375     20374     20376     20375     20374     20377
     20376     20374     20377     20374     20377     20378     20374     20377     20379
     20374     20377     20380     20378     20377     20379     20378     20377     20380
     20379     20377     20380     20377     20380     20381     20377     20380     20382
     20377     20380     20383     20381     20380     20382     20381     20380     20383
     20382     20380     20383     20380     20383     20384     20380     20383     20385
     20380     20383     20386     20384     20383     20385     20384     20383     20386
     20385     20383     20386     20388     20387     20389     20388     20387     20390
     20388     20387     20391     20389     20387     20390     20389     20387     20391
     20390     20387     20391     20387     20391     20392     20387     20391     20393
     20387     20391     20394     20392     20391     20393     20392     20391     20394
     20393     20391     20394     20391     20394     20395     20391     20394     20396
     20391     20394     20401     20395     20394     20396     20395     20394     20401
     20396     20394     20401     20398     20397     20399     20398     20397     20400
     20398     20397     20401     20399     20397     20400     20399     20397     20401
     20400     20397     20401     20397     20400     20402     20394     20401     20397
     20400     20402     20403     20400     20402     20404     20400     20402     20405
     20403     20402     20404     20403     20402     20405     20404     20402     20405
     20402     20405     20406     20402     20405     20407     20402     20405     20413
     20406     20405     20407     20406     20405     20413     20407     20405     20413
     20405     20407     20408     20407     20408     20409     20407     20408     20410
     20409     20408     20410     20408     20410     20411     20408     20410     20412
     20408     20410     20422     20411     20410     20412     20411     20410     20422
     20412     20410     20422     20405     20413     20414     20405     20413     20415
     20405     20413     20416     20414     20413     20415     20414     20413     20416
     20415     20413     20416     20413     20416     20417     20416     20417     20418
     20416     20417     20419     20418     20417     20419     20417     20419     20420
     20417     20419     20421     20417     20419     20463     20420     20419     20421
     20420     20419     20463     20421     20419     20463     20410     20422     20423
     20410     20422     20424     20410     20422     20425     20423     20422     20424
     20423     20422     20425     20424     20422     20425     20422     20425     20426
     20422     20425     20427     20422     20425     20428     20426     20425     20427
     20426     20425     20428     20427     20425     20428     20425     20428     20429
     20425     20428     20430     20425     20428     20431     20429     20428     20430
     20429     20428     20431     20430     20428     20431     20428     20431     20432
     20428     20431     20433     20428     20431     20434     20432     20431     20433
     20432     20431     20434     20433     20431     20434     20431     20434     20435
     20431     20434     20436     20431     20434     20437     20435     20434     20436
     20435     20434     20437     20436     20434     20437     20434     20437     20438
     20434     20437     20439     20434     20437     20440     20438     20437     20439
     20438     20437     20440     20439     20437     20440     20437     20440     20441
     20437     20440     20442     20441     20440     20442     20440     20442     20443
     20440     20442     20444     20443     20442     20444     20442     20444     20445
     20442     20444     20446     20442     20444     20447     20445     20444     20446
     20445     20444     20447     20446     20444     20447     20444     20447     20448
     20444     20447     20449     20444     20447     20450     20448     20447     20449
     20448     20447     20450     20449     20447     20450     20447     20450     20451
     20447     20450     20452     20447     20450     20453     20451     20450     20452
     20451     20450     20453     20452     20450     20453     20450     20453     20454
     20450     20453     20455     20450     20453     20456     20454     20453     20455
     20454     20453     20456     20455     20453     20456     20453     20456     20457
     20453     20456     20458     20453     20456     20459     20457     20456     20458
     20457     20456     20459     20458     20456     20459     20456     20459     20460
     20456     20459     20461     20456     20459     20462     20460     20459     20461
     20460     20459     20462     20461     20459     20462     20419     20463     20464
     20419     20463     20465     20419     20463     20466     20464     20463     20465
     20464     20463     20466     20465     20463     20466     20463     20466     20467
     20463     20466     20468     20463     20466     20469     20467     20466     20468
     20467     20466     20469     20468     20466     20469     20466     20469     20470
     20466     20469     20471     20466     20469     20472     20470     20469     20471
     20470     20469     20472     20471     20469     20472     20469     20472     20473
     20469     20472     20474     20469     20472     20475     20473     20472     20474
     20473     20472     20475     20474     20472     20475     20472     20475     20476
     20472     20475     20477     20472     20475     20478     20476     20475     20477
     20476     20475     20478     20477     20475     20478     20475     20478     20479
     20475     20478     20480     20475     20478     20481     20479     20478     20480
     20479     20478     20481     20480     20478     20481     20478     20481     20482
     20478     20481     20483     20482     20481     20483     20481     20483     20484
     20481     20483     20485     20484     20483     20485     20483     20485     20486
     20483     20485     20487     20483     20485     20488     20486     20485     20487
     20486     20485     20488     20487     20485     20488     20485     20488     20489
     20485     20488     20490     20485     20488     20491     20489     20488     20490
     20489     20488     20491     20490     20488     20491     20488     20491     20492
     20488     20491     20493     20488     20491     20494     20492     20491     20493
     20492     20491     20494     20493     20491     20494     20491     20494     20495
     20491     20494     20496     20491     20494     20497     20495     20494     20496
     20495     20494     20497     20496     20494     20497     20494     20497     20498
     20494     20497     20499     20494     20497     20500     20498     20497     20499
     20498     20497     20500     20499     20497     20500     20497     20500     20501
     20497     20500     20502     20497     20500     20503     20501     20500     20502
     20501     20500     20503     20502     20500     20503     20500     20503     20504
     20500     20503     20505     20500     20503     20506     20504     20503     20505
     20504     20503     20506     20505     20503     20506     20503     20506     20507
     20503     20506     20508     20503     20506     20509     20507     20506     20508
     20507     20506     20509     20508     20506     20509     20511     20510     20512
     20511     20510     20513     20511     20510     20514     20512     20510     20513
     20512     20510     20514     20513     20510     20514     20510     20514     20515
     20510     20514     20516     20510     20514     20517     20515     20514     20516
     20515     20514     20517     20516     20514     20517     20514     20517     20518
     20514     20517     20519     20514     20517     20524     20518     20517     20519
     20518     20517     20524     20519     20517     20524     20521     20520     20522
     20521     20520     20523     20521     20520     20524     20522     20520     20523
     20522     20520     20524     20523     20520     20524     20520     20523     20525
     20517     20524     20520     20523     20525     20526     20523     20525     20527
     20523     20525     20528     20526     20525     20527     20526     20525     20528
     20527     20525     20528     20525     20528     20529     20525     20528     20530
     20525     20528     20536     20529     20528     20530     20529     20528     20536
     20530     20528     20536     20528     20530     20531     20530     20531     20532
     20530     20531     20533     20532     20531     20533     20531     20533     20534
     20531     20533     20535     20531     20533     20545     20534     20533     20535
     20534     20533     20545     20535     20533     20545     20528     20536     20537
     20528     20536     20538     20528     20536     20539     20537     20536     20538
     20537     20536     20539     20538     20536     20539     20536     20539     20540
     20539     20540     20541     20539     20540     20542     20541     20540     20542
     20540     20542     20543     20540     20542     20544     20540     20542     20589
     20543     20542     20544     20543     20542     20589     20544     20542     20589
     20533     20545     20546     20533     20545     20547     20533     20545     20548
     20546     20545     20547     20546     20545     20548     20547     20545     20548
     20545     20548     20549     20545     20548     20550     20545     20548     20551
     20549     20548     20550     20549     20548     20551     20550     20548     20551
     20548     20551     20552     20548     20551     20553     20548     20551     20554
     20552     20551     20553     20552     20551     20554     20553     20551     20554
     20551     20554     20555     20551     20554     20556     20551     20554     20557
     20555     20554     20556     20555     20554     20557     20556     20554     20557
     20554     20557     20558     20554     20557     20559     20554     20557     20560
     20558     20557     20559     20558     20557     20560     20559     20557     20560
     20557     20560     20561     20557     20560     20562     20557     20560     20563
     20561     20560     20562     20561     20560     20563     20562     20560     20563
     20560     20563     20564     20560     20563     20565     20560     20563     20568
     20564     20563     20565     20564     20563     20568     20565     20563     20568
     20563     20565     20566     20563     20565     20567     20563     20565     20568
     20566     20565     20567     20566     20565     20568     20567     20565     20568
     20563     20568     20565     20563     20568     20569     20563     20568     20570
     20565     20568     20569     20565     20568     20570     20569     20568     20570
     20568     20570     20571     20568     20570     20572     20568     20570     20573
     20571     20570     20572     20571     20570     20573     20572     20570     20573
     20570     20573     20574     20570     20573     20575     20570     20573     20576
     20574     20573     20575     20574     20573     20576     20575     20573     20576
     20573     20576     20577     20573     20576     20578     20573     20576     20579
     20577     20576     20578     20577     20576     20579     20578     20576     20579
     20576     20579     20580     20576     20579     20581     20576     20579     20582
     20580     20579     20581     20580     20579     20582     20581     20579     20582
     20579     20582     20583     20579     20582     20584     20579     20582     20585
     20583     20582     20584     20583     20582     20585     20584     20582     20585
     20582     20585     20586     20582     20585     20587     20582     20585     20588
     20586     20585     20587     20586     20585     20588     20587     20585     20588
     20542     20589     20590     20542     20589     20591     20542     20589     20592
     20590     20589     20591     20590     20589     20592     20591     20589     20592
     20589     20592     20593     20589     20592     20594     20589     20592     20595
     20593     20592     20594     20593     20592     20595     20594     20592     20595
     20592     20595     20596     20592     20595     20597     20592     20595     20598
     20596     20595     20597     20596     20595     20598     20597     20595     20598
     20595     20598     20599     20595     20598     20600     20595     20598     20601
     20599     20598     20600     20599     20598     20601     20600     20598     20601
     20598     20601     20602     20598     20601     20603     20598     20601     20604
     20602     20601     20603     20602     20601     20604     20603     20601     20604
     20601     20604     20605     20601     20604     20606     20601     20604     20607
     20605     20604     20606     20605     20604     20607     20606     20604     20607
     20604     20607     20608     20604     20607     20609     20604     20607     20610
     20608     20607     20609     20608     20607     20610     20609     20607     20610
     20607     20610     20611     20607     20610     20612     20607     20610     20613
     20611     20610     20612     20611     20610     20613     20612     20610     20613
     20610     20613     20614     20610     20613     20615     20610     20613     20616
     20614     20613     20615     20614     20613     20616     20615     20613     20616
     20613     20616     20617     20613     20616     20618     20613     20616     20619
     20617     20616     20618     20617     20616     20619     20618     20616     20619
     20616     20619     20620     20616     20619     20621     20616     20619     20622
     20620     20619     20621     20620     20619     20622     20621     20619     20622
     20619     20622     20623     20619     20622     20624     20619     20622     20625
     20623     20622     20624     20623     20622     20625     20624     20622     20625
     20622     20625     20626     20622     20625     20627     20622     20625     20628
     20626     20625     20627     20626     20625     20628     20627     20625     20628
     20625     20628     20629     20625     20628     20630     20625     20628     20631
     20629     20628     20630     20629     20628     20631     20630     20628     20631
     20633     20632     20634     20633     20632     20635     20633     20632     20636
     20634     20632     20635     20634     20632     20636     20635     20632     20636
     20632     20636     20637     20632     20636     20638     20632     20636     20639
     20637     20636     20638     20637     20636     20639     20638     20636     20639
     20636     20639     20640     20636     20639     20641     20636     20639     20646
     20640     20639     20641     20640     20639     20646     20641     20639     20646
     20643     20642     20644     20643     20642     20645     20643     20642     20646
     20644     20642     20645     20644     20642     20646     20645     20642     20646
     20642     20645     20647     20639     20646     20642     20645     20647     20648
     20645     20647     20649     20645     20647     20650     20648     20647     20649
     20648     20647     20650     20649     20647     20650     20647     20650     20651
     20647     20650     20652     20647     20650     20658     20651     20650     20652
     20651     20650     20658     20652     20650     20658     20650     20652     20653
     20652     20653     20654     20652     20653     20655     20654     20653     20655
     20653     20655     20656     20653     20655     20657     20653     20655     20667
     20656     20655     20657     20656     20655     20667     20657     20655     20667
     20650     20658     20659     20650     20658     20660     20650     20658     20661
     20659     20658     20660     20659     20658     20661     20660     20658     20661
     20658     20661     20662     20661     20662     20663     20661     20662     20664
     20663     20662     20664     20662     20664     20665     20662     20664     20666
     20662     20664     20711     20665     20664     20666     20665     20664     20711
     20666     20664     20711     20655     20667     20668     20655     20667     20669
     20655     20667     20670     20668     20667     20669     20668     20667     20670
     20669     20667     20670     20667     20670     20671     20667     20670     20672
     20667     20670     20673     20671     20670     20672     20671     20670     20673
     20672     20670     20673     20670     20673     20674     20670     20673     20675
     20670     20673     20676     20674     20673     20675     20674     20673     20676
     20675     20673     20676     20673     20676     20677     20673     20676     20678
     20673     20676     20679     20677     20676     20678     20677     20676     20679
     20678     20676     20679     20676     20679     20680     20676     20679     20681
     20676     20679     20682     20680     20679     20681     20680     20679     20682
     20681     20679     20682     20679     20682     20683     20679     20682     20684
     20679     20682     20685     20683     20682     20684     20683     20682     20685
     20684     20682     20685     20682     20685     20686     20682     20685     20687
     20682     20685     20690     20686     20685     20687     20686     20685     20690
     20687     20685     20690     20685     20687     20688     20685     20687     20689
     20685     20687     20690     20688     20687     20689     20688     20687     20690
     20689     20687     20690     20685     20690     20687     20685     20690     20691
     20685     20690     20692     20687     20690     20691     20687     20690     20692
     20691     20690     20692     20690     20692     20693     20690     20692     20694
     20690     20692     20695     20693     20692     20694     20693     20692     20695
     20694     20692     20695     20692     20695     20696     20692     20695     20697
     20692     20695     20698     20696     20695     20697     20696     20695     20698
     20697     20695     20698     20695     20698     20699     20695     20698     20700
     20695     20698     20701     20699     20698     20700     20699     20698     20701
     20700     20698     20701     20698     20701     20702     20698     20701     20703
     20698     20701     20704     20702     20701     20703     20702     20701     20704
     20703     20701     20704     20701     20704     20705     20701     20704     20706
     20701     20704     20707     20705     20704     20706     20705     20704     20707
     20706     20704     20707     20704     20707     20708     20704     20707     20709
     20704     20707     20710     20708     20707     20709     20708     20707     20710
     20709     20707     20710     20664     20711     20712     20664     20711     20713
     20664     20711     20714     20712     20711     20713     20712     20711     20714
     20713     20711     20714     20711     20714     20715     20711     20714     20716
     20711     20714     20717     20715     20714     20716     20715     20714     20717
     20716     20714     20717     20714     20717     20718     20714     20717     20719
     20714     20717     20720     20718     20717     20719     20718     20717     20720
     20719     20717     20720     20717     20720     20721     20717     20720     20722
     20717     20720     20723     20721     20720     20722     20721     20720     20723
     20722     20720     20723     20720     20723     20724     20720     20723     20725
     20720     20723     20726     20724     20723     20725     20724     20723     20726
     20725     20723     20726     20723     20726     20727     20723     20726     20728
     20723     20726     20729     20727     20726     20728     20727     20726     20729
     20728     20726     20729     20726     20729     20730     20726     20729     20731
     20726     20729     20732     20730     20729     20731     20730     20729     20732
     20731     20729     20732     20729     20732     20733     20729     20732     20734
     20729     20732     20735     20733     20732     20734     20733     20732     20735
     20734     20732     20735     20732     20735     20736     20732     20735     20737
     20732     20735     20738     20736     20735     20737     20736     20735     20738
     20737     20735     20738     20735     20738     20739     20735     20738     20740
     20735     20738     20741     20739     20738     20740     20739     20738     20741
     20740     20738     20741     20738     20741     20742     20738     20741     20743
     20738     20741     20744     20742     20741     20743     20742     20741     20744
     20743     20741     20744     20741     20744     20745     20741     20744     20746
     20741     20744     20747     20745     20744     20746     20745     20744     20747
     20746     20744     20747     20744     20747     20748     20744     20747     20749
     20744     20747     20750     20748     20747     20749     20748     20747     20750
     20749     20747     20750     20747     20750     20751     20747     20750     20752
     20747     20750     20753     20751     20750     20752     20751     20750     20753
     20752     20750     20753     20755     20754     20756     20755     20754     20757
     20755     20754     20758     20756     20754     20757     20756     20754     20758
     20757     20754     20758     20754     20758     20759     20754     20758     20760
     20754     20758     20761     20759     20758     20760     20759     20758     20761
     20760     20758     20761     20758     20761     20762     20758     20761     20763
     20758     20761     20768     20762     20761     20763     20762     20761     20768
     20763     20761     20768     20765     20764     20766     20765     20764     20767
     20765     20764     20768     20766     20764     20767     20766     20764     20768
     20767     20764     20768     20764     20767     20769     20761     20768     20764
     20767     20769     20770     20767     20769     20771     20767     20769     20772
     20770     20769     20771     20770     20769     20772     20771     20769     20772
     20769     20772     20773     20769     20772     20774     20769     20772     20780
     20773     20772     20774     20773     20772     20780     20774     20772     20780
     20772     20774     20775     20774     20775     20776     20774     20775     20777
     20776     20775     20777     20775     20777     20778     20775     20777     20779
     20775     20777     20789     20778     20777     20779     20778     20777     20789
     20779     20777     20789     20772     20780     20781     20772     20780     20782
     20772     20780     20783     20781     20780     20782     20781     20780     20783
     20782     20780     20783     20780     20783     20784     20783     20784     20785
     20783     20784     20786     20785     20784     20786     20784     20786     20787
     20784     20786     20788     20784     20786     20833     20787     20786     20788
     20787     20786     20833     20788     20786     20833     20777     20789     20790
     20777     20789     20791     20777     20789     20792     20790     20789     20791
     20790     20789     20792     20791     20789     20792     20789     20792     20793
     20789     20792     20794     20789     20792     20795     20793     20792     20794
     20793     20792     20795     20794     20792     20795     20792     20795     20796
     20792     20795     20797     20792     20795     20798     20796     20795     20797
     20796     20795     20798     20797     20795     20798     20795     20798     20799
     20795     20798     20800     20795     20798     20801     20799     20798     20800
     20799     20798     20801     20800     20798     20801     20798     20801     20802
     20798     20801     20803     20798     20801     20804     20802     20801     20803
     20802     20801     20804     20803     20801     20804     20801     20804     20805
     20801     20804     20806     20801     20804     20807     20805     20804     20806
     20805     20804     20807     20806     20804     20807     20804     20807     20808
     20804     20807     20809     20804     20807     20812     20808     20807     20809
     20808     20807     20812     20809     20807     20812     20807     20809     20810
     20807     20809     20811     20807     20809     20812     20810     20809     20811
     20810     20809     20812     20811     20809     20812     20807     20812     20809
     20807     20812     20813     20807     20812     20814     20809     20812     20813
     20809     20812     20814     20813     20812     20814     20812     20814     20815
     20812     20814     20816     20812     20814     20817     20815     20814     20816
     20815     20814     20817     20816     20814     20817     20814     20817     20818
     20814     20817     20819     20814     20817     20820     20818     20817     20819
     20818     20817     20820     20819     20817     20820     20817     20820     20821
     20817     20820     20822     20817     20820     20823     20821     20820     20822
     20821     20820     20823     20822     20820     20823     20820     20823     20824
     20820     20823     20825     20820     20823     20826     20824     20823     20825
     20824     20823     20826     20825     20823     20826     20823     20826     20827
     20823     20826     20828     20823     20826     20829     20827     20826     20828
     20827     20826     20829     20828     20826     20829     20826     20829     20830
     20826     20829     20831     20826     20829     20832     20830     20829     20831
     20830     20829     20832     20831     20829     20832     20786     20833     20834
     20786     20833     20835     20786     20833     20836     20834     20833     20835
     20834     20833     20836     20835     20833     20836     20833     20836     20837
     20833     20836     20838     20833     20836     20839     20837     20836     20838
     20837     20836     20839     20838     20836     20839     20836     20839     20840
     20836     20839     20841     20836     20839     20842     20840     20839     20841
     20840     20839     20842     20841     20839     20842     20839     20842     20843
     20839     20842     20844     20839     20842     20845     20843     20842     20844
     20843     20842     20845     20844     20842     20845     20842     20845     20846
     20842     20845     20847     20842     20845     20848     20846     20845     20847
     20846     20845     20848     20847     20845     20848     20845     20848     20849
     20845     20848     20850     20845     20848     20851     20849     20848     20850
     20849     20848     20851     20850     20848     20851     20848     20851     20852
     20848     20851     20853     20848     20851     20854     20852     20851     20853
     20852     20851     20854     20853     20851     20854     20851     20854     20855
     20851     20854     20856     20851     20854     20857     20855     20854     20856
     20855     20854     20857     20856     20854     20857     20854     20857     20858
     20854     20857     20859     20854     20857     20860     20858     20857     20859
     20858     20857     20860     20859     20857     20860     20857     20860     20861
     20857     20860     20862     20857     20860     20863     20861     20860     20862
     20861     20860     20863     20862     20860     20863     20860     20863     20864
     20860     20863     20865     20860     20863     20866     20864     20863     20865
     20864     20863     20866     20865     20863     20866     20863     20866     20867
     20863     20866     20868     20863     20866     20869     20867     20866     20868
     20867     20866     20869     20868     20866     20869     20866     20869     20870
     20866     20869     20871     20866     20869     20872     20870     20869     20871
     20870     20869     20872     20871     20869     20872     20869     20872     20873
     20869     20872     20874     20869     20872     20875     20873     20872     20874
     20873     20872     20875     20874     20872     20875     20877     20876     20878
     20877     20876     20879     20877     20876     20880     20878     20876     20879
     20878     20876     20880     20879     20876     20880     20876     20880     20881
     20876     20880     20882     20876     20880     20883     20881     20880     20882
     20881     20880     20883     20882     20880     20883     20880     20883     20884
     20880     20883     20885     20880     20883     20890     20884     20883     20885
     20884     20883     20890     20885     20883     20890     20887     20886     20888
     20887     20886     20889     20887     20886     20890     20888     20886     20889
     20888     20886     20890     20889     20886     20890     20886     20889     20891
     20883     20890     20886     20889     20891     20892     20889     20891     20893
     20889     20891     20894     20892     20891     20893     20892     20891     20894
     20893     20891     20894     20891     20894     20895     20891     20894     20896
     20891     20894     20902     20895     20894     20896     20895     20894     20902
     20896     20894     20902     20894     20896     20897     20896     20897     20898
     20896     20897     20899     20898     20897     20899     20897     20899     20900
     20897     20899     20901     20897     20899     20911     20900     20899     20901
     20900     20899     20911     20901     20899     20911     20894     20902     20903
     20894     20902     20904     20894     20902     20905     20903     20902     20904
     20903     20902     20905     20904     20902     20905     20902     20905     20906
     20905     20906     20907     20905     20906     20908     20907     20906     20908
     20906     20908     20909     20906     20908     20910     20906     20908     20958
     20909     20908     20910     20909     20908     20958     20910     20908     20958
     20899     20911     20912     20899     20911     20913     20899     20911     20914
     20912     20911     20913     20912     20911     20914     20913     20911     20914
     20911     20914     20915     20911     20914     20916     20911     20914     20917
     20915     20914     20916     20915     20914     20917     20916     20914     20917
     20914     20917     20918     20914     20917     20919     20914     20917     20920
     20918     20917     20919     20918     20917     20920     20919     20917     20920
     20917     20920     20921     20917     20920     20922     20917     20920     20923
     20921     20920     20922     20921     20920     20923     20922     20920     20923
     20920     20923     20924     20920     20923     20925     20920     20923     20926
     20924     20923     20925     20924     20923     20926     20925     20923     20926
     20923     20926     20927     20923     20926     20928     20923     20926     20929
     20927     20926     20928     20927     20926     20929     20928     20926     20929
     20926     20929     20930     20926     20929     20931     20930     20929     20931
     20929     20931     20932     20929     20931     20933     20932     20931     20933
     20931     20933     20934     20931     20933     20935     20931     20933     20936
     20934     20933     20935     20934     20933     20936     20935     20933     20936
     20933     20936     20937     20933     20936     20938     20933     20936     20939
     20937     20936     20938     20937     20936     20939     20938     20936     20939
     20936     20939     20940     20936     20939     20941     20936     20939     20942
     20940     20939     20941     20940     20939     20942     20941     20939     20942
     20939     20942     20943     20939     20942     20944     20939     20942     20945
     20943     20942     20944     20943     20942     20945     20944     20942     20945
     20942     20945     20946     20942     20945     20947     20942     20945     20948
     20946     20945     20947     20946     20945     20948     20947     20945     20948
     20945     20948     20949     20945     20948     20950     20945     20948     20951
     20949     20948     20950     20949     20948     20951     20950     20948     20951
     20948     20951     20952     20948     20951     20953     20948     20951     20954
     20952     20951     20953     20952     20951     20954     20953     20951     20954
     20951     20954     20955     20951     20954     20956     20951     20954     20957
     20955     20954     20956     20955     20954     20957     20956     20954     20957
     20908     20958     20959     20908     20958     20960     20908     20958     20961
     20959     20958     20960     20959     20958     20961     20960     20958     20961
     20958     20961     20962     20958     20961     20963     20958     20961     20964
     20962     20961     20963     20962     20961     20964     20963     20961     20964
     20961     20964     20965     20961     20964     20966     20961     20964     20967
     20965     20964     20966     20965     20964     20967     20966     20964     20967
     20964     20967     20968     20964     20967     20969     20964     20967     20970
     20968     20967     20969     20968     20967     20970     20969     20967     20970
     20967     20970     20971     20967     20970     20972     20967     20970     20973
     20971     20970     20972     20971     20970     20973     20972     20970     20973
     20970     20973     20974     20970     20973     20975     20970     20973     20976
     20974     20973     20975     20974     20973     20976     20975     20973     20976
     20973     20976     20977     20973     20976     20978     20973     20976     20979
     20977     20976     20978     20977     20976     20979     20978     20976     20979
     20976     20979     20980     20976     20979     20981     20976     20979     20982
     20980     20979     20981     20980     20979     20982     20981     20979     20982
     20979     20982     20983     20979     20982     20984     20979     20982     20985
     20983     20982     20984     20983     20982     20985     20984     20982     20985
     20982     20985     20986     20982     20985     20987     20982     20985     20988
     20986     20985     20987     20986     20985     20988     20987     20985     20988
     20985     20988     20989     20985     20988     20990     20985     20988     20991
     20989     20988     20990     20989     20988     20991     20990     20988     20991
     20988     20991     20992     20988     20991     20993     20988     20991     20994
     20992     20991     20993     20992     20991     20994     20993     20991     20994
     20991     20994     20995     20991     20994     20996     20991     20994     20997
     20995     20994     20996     20995     20994     20997     20996     20994     20997
     20994     20997     20998     20994     20997     20999     20994     20997     21000
     20998     20997     20999     20998     20997     21000     20999     20997     21000
     21002     21001     21003     21002     21001     21004     21002     21001     21005
     21003     21001     21004     21003     21001     21005     21004     21001     21005
     21001     21005     21006     21001     21005     21007     21001     21005     21008
     21006     21005     21007     21006     21005     21008     21007     21005     21008
     21005     21008     21009     21005     21008     21010     21005     21008     21015
     21009     21008     21010     21009     21008     21015     21010     21008     21015
     21012     21011     21013     21012     21011     21014     21012     21011     21015
     21013     21011     21014     21013     21011     21015     21014     21011     21015
     21011     21014     21016     21008     21015     21011     21014     21016     21017
     21014     21016     21018     21014     21016     21019     21017     21016     21018
     21017     21016     21019     21018     21016     21019     21016     21019     21020
     21016     21019     21021     21016     21019     21027     21020     21019     21021
     21020     21019     21027     21021     21019     21027     21019     21021     21022
     21021     21022     21023     21021     21022     21024     21023     21022     21024
     21022     21024     21025     21022     21024     21026     21022     21024     21036
     21025     21024     21026     21025     21024     21036     21026     21024     21036
     21019     21027     21028     21019     21027     21029     21019     21027     21030
     21028     21027     21029     21028     21027     21030     21029     21027     21030
     21027     21030     21031     21030     21031     21032     21030     21031     21033
     21032     21031     21033     21031     21033     21034     21031     21033     21035
     21031     21033     21083     21034     21033     21035     21034     21033     21083
     21035     21033     21083     21024     21036     21037     21024     21036     21038
     21024     21036     21039     21037     21036     21038     21037     21036     21039
     21038     21036     21039     21036     21039     21040     21036     21039     21041
     21036     21039     21042     21040     21039     21041     21040     21039     21042
     21041     21039     21042     21039     21042     21043     21039     21042     21044
     21039     21042     21045     21043     21042     21044     21043     21042     21045
     21044     21042     21045     21042     21045     21046     21042     21045     21047
     21042     21045     21048     21046     21045     21047     21046     21045     21048
     21047     21045     21048     21045     21048     21049     21045     21048     21050
     21045     21048     21051     21049     21048     21050     21049     21048     21051
     21050     21048     21051     21048     21051     21052     21048     21051     21053
     21048     21051     21054     21052     21051     21053     21052     21051     21054
     21053     21051     21054     21051     21054     21055     21051     21054     21056
     21055     21054     21056     21054     21056     21057     21054     21056     21058
     21057     21056     21058     21056     21058     21059     21056     21058     21060
     21056     21058     21061     21059     21058     21060     21059     21058     21061
     21060     21058     21061     21058     21061     21062     21058     21061     21063
     21058     21061     21064     21062     21061     21063     21062     21061     21064
     21063     21061     21064     21061     21064     21065     21061     21064     21066
     21061     21064     21067     21065     21064     21066     21065     21064     21067
     21066     21064     21067     21064     21067     21068     21064     21067     21069
     21064     21067     21070     21068     21067     21069     21068     21067     21070
     21069     21067     21070     21067     21070     21071     21067     21070     21072
     21067     21070     21073     21071     21070     21072     21071     21070     21073
     21072     21070     21073     21070     21073     21074     21070     21073     21075
     21070     21073     21076     21074     21073     21075     21074     21073     21076
     21075     21073     21076     21073     21076     21077     21073     21076     21078
     21073     21076     21079     21077     21076     21078     21077     21076     21079
     21078     21076     21079     21076     21079     21080     21076     21079     21081
     21076     21079     21082     21080     21079     21081     21080     21079     21082
     21081     21079     21082     21033     21083     21084     21033     21083     21085
     21033     21083     21086     21084     21083     21085     21084     21083     21086
     21085     21083     21086     21083     21086     21087     21083     21086     21088
     21083     21086     21089     21087     21086     21088     21087     21086     21089
     21088     21086     21089     21086     21089     21090     21086     21089     21091
     21086     21089     21092     21090     21089     21091     21090     21089     21092
     21091     21089     21092     21089     21092     21093     21089     21092     21094
     21089     21092     21095     21093     21092     21094     21093     21092     21095
     21094     21092     21095     21092     21095     21096     21092     21095     21097
     21092     21095     21098     21096     21095     21097     21096     21095     21098
     21097     21095     21098     21095     21098     21099     21095     21098     21100
     21095     21098     21101     21099     21098     21100     21099     21098     21101
     21100     21098     21101     21098     21101     21102     21098     21101     21103
     21098     21101     21104     21102     21101     21103     21102     21101     21104
     21103     21101     21104     21101     21104     21105     21101     21104     21106
     21101     21104     21107     21105     21104     21106     21105     21104     21107
     21106     21104     21107     21104     21107     21108     21104     21107     21109
     21104     21107     21110     21108     21107     21109     21108     21107     21110
     21109     21107     21110     21107     21110     21111     21107     21110     21112
     21107     21110     21113     21111     21110     21112     21111     21110     21113
     21112     21110     21113     21110     21113     21114     21110     21113     21115
     21110     21113     21116     21114     21113     21115     21114     21113     21116
     21115     21113     21116     21113     21116     21117     21113     21116     21118
     21113     21116     21119     21117     21116     21118     21117     21116     21119
     21118     21116     21119     21116     21119     21120     21116     21119     21121
     21116     21119     21122     21120     21119     21121     21120     21119     21122
     21121     21119     21122     21119     21122     21123     21119     21122     21124
     21119     21122     21125     21123     21122     21124     21123     21122     21125
     21124     21122     21125     21127     21126     21128     21127     21126     21129
     21127     21126     21131     21128     21126     21129     21128     21126     21131
     21129     21126     21131     21126     21129     21130     21126     21131     21132
     21126     21131     21133     21126     21131     21135     21132     21131     21133
     21132     21131     21135     21133     21131     21135     21131     21133     21134
     21131     21135     21136     21131     21135     21137     21131     21135     21142
     21136     21135     21137     21136     21135     21142     21137     21135     21142
     21139     21138     21140     21139     21138     21141     21139     21138     21142
     21140     21138     21141     21140     21138     21142     21141     21138     21142
     21138     21141     21143     21135     21142     21138     21141     21143     21144
     21141     21143     21145     21141     21143     21146     21144     21143     21145
     21144     21143     21146     21145     21143     21146     21143     21146     21147
     21143     21146     21148     21143     21146     21154     21147     21146     21148
     21147     21146     21154     21148     21146     21154     21146     21148     21149
     21148     21149     21150     21148     21149     21151     21150     21149     21151
     21149     21151     21152     21149     21151     21153     21149     21151     21163
     21152     21151     21153     21152     21151     21163     21153     21151     21163
     21146     21154     21155     21146     21154     21156     21146     21154     21157
     21155     21154     21156     21155     21154     21157     21156     21154     21157
     21154     21157     21158     21157     21158     21159     21157     21158     21160
     21159     21158     21160     21158     21160     21161     21158     21160     21162
     21158     21160     21204     21161     21160     21162     21161     21160     21204
     21162     21160     21204     21151     21163     21164     21151     21163     21165
     21151     21163     21166     21164     21163     21165     21164     21163     21166
     21165     21163     21166     21163     21166     21167     21163     21166     21168
     21163     21166     21169     21167     21166     21168     21167     21166     21169
     21168     21166     21169     21166     21169     21170     21166     21169     21171
     21166     21169     21172     21170     21169     21171     21170     21169     21172
     21171     21169     21172     21169     21172     21173     21169     21172     21174
     21169     21172     21175     21173     21172     21174     21173     21172     21175
     21174     21172     21175     21172     21175     21176     21172     21175     21177
     21172     21175     21178     21176     21175     21177     21176     21175     21178
     21177     21175     21178     21175     21178     21179     21175     21178     21180
     21175     21178     21181     21179     21178     21180     21179     21178     21181
     21180     21178     21181     21178     21181     21182     21178     21181     21183
     21182     21181     21183     21181     21183     21184     21181     21183     21185
     21184     21183     21185     21183     21185     21186     21183     21185     21187
     21183     21185     21188     21186     21185     21187     21186     21185     21188
     21187     21185     21188     21185     21188     21189     21185     21188     21190
     21185     21188     21191     21189     21188     21190     21189     21188     21191
     21190     21188     21191     21188     21191     21192     21188     21191     21193
     21188     21191     21194     21192     21191     21193     21192     21191     21194
     21193     21191     21194     21191     21194     21195     21191     21194     21196
     21191     21194     21197     21195     21194     21196     21195     21194     21197
     21196     21194     21197     21194     21197     21198     21194     21197     21199
     21194     21197     21200     21198     21197     21199     21198     21197     21200
     21199     21197     21200     21197     21200     21201     21197     21200     21202
     21197     21200     21203     21201     21200     21202     21201     21200     21203
     21202     21200     21203     21160     21204     21205     21160     21204     21206
     21160     21204     21207     21205     21204     21206     21205     21204     21207
     21206     21204     21207     21204     21207     21208     21204     21207     21209
     21204     21207     21210     21208     21207     21209     21208     21207     21210
     21209     21207     21210     21207     21210     21211     21207     21210     21212
     21207     21210     21213     21211     21210     21212     21211     21210     21213
     21212     21210     21213     21210     21213     21214     21210     21213     21215
     21210     21213     21216     21214     21213     21215     21214     21213     21216
     21215     21213     21216     21213     21216     21217     21213     21216     21218
     21213     21216     21219     21217     21216     21218     21217     21216     21219
     21218     21216     21219     21216     21219     21220     21216     21219     21221
     21216     21219     21222     21220     21219     21221     21220     21219     21222
     21221     21219     21222     21219     21222     21223     21219     21222     21224
     21219     21222     21225     21223     21222     21224     21223     21222     21225
     21224     21222     21225     21222     21225     21226     21222     21225     21227
     21222     21225     21228     21226     21225     21227     21226     21225     21228
     21227     21225     21228     21225     21228     21229     21225     21228     21230
     21225     21228     21231     21229     21228     21230     21229     21228     21231
     21230     21228     21231     21228     21231     21232     21228     21231     21233
     21228     21231     21234     21232     21231     21233     21232     21231     21234
     21233     21231     21234     21231     21234     21235     21231     21234     21236
     21231     21234     21237     21235     21234     21236     21235     21234     21237
     21236     21234     21237     21234     21237     21238     21234     21237     21239
     21234     21237     21240     21238     21237     21239     21238     21237     21240
     21239     21237     21240     21237     21240     21241     21237     21240     21242
     21237     21240     21243     21241     21240     21242     21241     21240     21243
     21242     21240     21243     21240     21243     21244     21240     21243     21245
     21240     21243     21246     21244     21243     21245     21244     21243     21246
     21245     21243     21246     21248     21247     21249     21248     21247     21250
     21248     21247     21251     21249     21247     21250     21249     21247     21251
     21250     21247     21251     21247     21251     21252     21247     21251     21253
     21247     21251     21254     21252     21251     21253     21252     21251     21254
     21253     21251     21254     21251     21254     21255     21251     21254     21256
     21251     21254     21261     21255     21254     21256     21255     21254     21261
     21256     21254     21261     21258     21257     21259     21258     21257     21260
     21258     21257     21261     21259     21257     21260     21259     21257     21261
     21260     21257     21261     21257     21260     21262     21254     21261     21257
     21260     21262     21263     21260     21262     21264     21260     21262     21265
     21263     21262     21264     21263     21262     21265     21264     21262     21265
     21262     21265     21266     21262     21265     21267     21262     21265     21273
     21266     21265     21267     21266     21265     21273     21267     21265     21273
     21265     21267     21268     21267     21268     21269     21267     21268     21270
     21269     21268     21270     21268     21270     21271     21268     21270     21272
     21268     21270     21282     21271     21270     21272     21271     21270     21282
     21272     21270     21282     21265     21273     21274     21265     21273     21275
     21265     21273     21276     21274     21273     21275     21274     21273     21276
     21275     21273     21276     21273     21276     21277     21276     21277     21278
     21276     21277     21279     21278     21277     21279     21277     21279     21280
     21277     21279     21281     21277     21279     21326     21280     21279     21281
     21280     21279     21326     21281     21279     21326     21270     21282     21283
     21270     21282     21284     21270     21282     21285     21283     21282     21284
     21283     21282     21285     21284     21282     21285     21282     21285     21286
     21282     21285     21287     21282     21285     21288     21286     21285     21287
     21286     21285     21288     21287     21285     21288     21285     21288     21289
     21285     21288     21290     21285     21288     21291     21289     21288     21290
     21289     21288     21291     21290     21288     21291     21288     21291     21292
     21288     21291     21293     21288     21291     21294     21292     21291     21293
     21292     21291     21294     21293     21291     21294     21291     21294     21295
     21291     21294     21296     21291     21294     21297     21295     21294     21296
     21295     21294     21297     21296     21294     21297     21294     21297     21298
     21294     21297     21299     21294     21297     21300     21298     21297     21299
     21298     21297     21300     21299     21297     21300     21297     21300     21301
     21297     21300     21302     21297     21300     21305     21301     21300     21302
     21301     21300     21305     21302     21300     21305     21300     21302     21303
     21300     21302     21304     21300     21302     21305     21303     21302     21304
     21303     21302     21305     21304     21302     21305     21300     21305     21302
     21300     21305     21306     21300     21305     21307     21302     21305     21306
     21302     21305     21307     21306     21305     21307     21305     21307     21308
     21305     21307     21309     21305     21307     21310     21308     21307     21309
     21308     21307     21310     21309     21307     21310     21307     21310     21311
     21307     21310     21312     21307     21310     21313     21311     21310     21312
     21311     21310     21313     21312     21310     21313     21310     21313     21314
     21310     21313     21315     21310     21313     21316     21314     21313     21315
     21314     21313     21316     21315     21313     21316     21313     21316     21317
     21313     21316     21318     21313     21316     21319     21317     21316     21318
     21317     21316     21319     21318     21316     21319     21316     21319     21320
     21316     21319     21321     21316     21319     21322     21320     21319     21321
     21320     21319     21322     21321     21319     21322     21319     21322     21323
     21319     21322     21324     21319     21322     21325     21323     21322     21324
     21323     21322     21325     21324     21322     21325     21279     21326     21327
     21279     21326     21328     21279     21326     21329     21327     21326     21328
     21327     21326     21329     21328     21326     21329     21326     21329     21330
     21326     21329     21331     21326     21329     21332     21330     21329     21331
     21330     21329     21332     21331     21329     21332     21329     21332     21333
     21329     21332     21334     21329     21332     21335     21333     21332     21334
     21333     21332     21335     21334     21332     21335     21332     21335     21336
     21332     21335     21337     21332     21335     21338     21336     21335     21337
     21336     21335     21338     21337     21335     21338     21335     21338     21339
     21335     21338     21340     21335     21338     21341     21339     21338     21340
     21339     21338     21341     21340     21338     21341     21338     21341     21342
     21338     21341     21343     21338     21341     21344     21342     21341     21343
     21342     21341     21344     21343     21341     21344     21341     21344     21345
     21341     21344     21346     21341     21344     21347     21345     21344     21346
     21345     21344     21347     21346     21344     21347     21344     21347     21348
     21344     21347     21349     21344     21347     21350     21348     21347     21349
     21348     21347     21350     21349     21347     21350     21347     21350     21351
     21347     21350     21352     21347     21350     21353     21351     21350     21352
     21351     21350     21353     21352     21350     21353     21350     21353     21354
     21350     21353     21355     21350     21353     21356     21354     21353     21355
     21354     21353     21356     21355     21353     21356     21353     21356     21357
     21353     21356     21358     21353     21356     21359     21357     21356     21358
     21357     21356     21359     21358     21356     21359     21356     21359     21360
     21356     21359     21361     21356     21359     21362     21360     21359     21361
     21360     21359     21362     21361     21359     21362     21359     21362     21363
     21359     21362     21364     21359     21362     21365     21363     21362     21364
     21363     21362     21365     21364     21362     21365     21362     21365     21366
     21362     21365     21367     21362     21365     21368     21366     21365     21367
     21366     21365     21368     21367     21365     21368     21370     21369     21371
     21370     21369     21372     21370     21369     21373     21371     21369     21372
     21371     21369     21373     21372     21369     21373     21369     21373     21374
     21369     21373     21375     21369     21373     21376     21374     21373     21375
     21374     21373     21376     21375     21373     21376     21373     21376     21377
     21373     21376     21378     21373     21376     21383     21377     21376     21378
     21377     21376     21383     21378     21376     21383     21380     21379     21381
     21380     21379     21382     21380     21379     21383     21381     21379     21382
     21381     21379     21383     21382     21379     21383     21379     21382     21384
     21376     21383     21379     21382     21384     21385     21382     21384     21386
     21382     21384     21387     21385     21384     21386     21385     21384     21387
     21386     21384     21387     21384     21387     21388     21384     21387     21389
     21384     21387     21395     21388     21387     21389     21388     21387     21395
     21389     21387     21395     21387     21389     21390     21389     21390     21391
     21389     21390     21392     21391     21390     21392     21390     21392     21393
     21390     21392     21394     21390     21392     21404     21393     21392     21394
     21393     21392     21404     21394     21392     21404     21387     21395     21396
     21387     21395     21397     21387     21395     21398     21396     21395     21397
     21396     21395     21398     21397     21395     21398     21395     21398     21399
     21398     21399     21400     21398     21399     21401     21400     21399     21401
     21399     21401     21402     21399     21401     21403     21399     21401     21448
     21402     21401     21403     21402     21401     21448     21403     21401     21448
     21392     21404     21405     21392     21404     21406     21392     21404     21407
     21405     21404     21406     21405     21404     21407     21406     21404     21407
     21404     21407     21408     21404     21407     21409     21404     21407     21410
     21408     21407     21409     21408     21407     21410     21409     21407     21410
     21407     21410     21411     21407     21410     21412     21407     21410     21413
     21411     21410     21412     21411     21410     21413     21412     21410     21413
     21410     21413     21414     21410     21413     21415     21410     21413     21416
     21414     21413     21415     21414     21413     21416     21415     21413     21416
     21413     21416     21417     21413     21416     21418     21413     21416     21419
     21417     21416     21418     21417     21416     21419     21418     21416     21419
     21416     21419     21420     21416     21419     21421     21416     21419     21422
     21420     21419     21421     21420     21419     21422     21421     21419     21422
     21419     21422     21423     21419     21422     21424     21419     21422     21427
     21423     21422     21424     21423     21422     21427     21424     21422     21427
     21422     21424     21425     21422     21424     21426     21422     21424     21427
     21425     21424     21426     21425     21424     21427     21426     21424     21427
     21422     21427     21424     21422     21427     21428     21422     21427     21429
     21424     21427     21428     21424     21427     21429     21428     21427     21429
     21427     21429     21430     21427     21429     21431     21427     21429     21432
     21430     21429     21431     21430     21429     21432     21431     21429     21432
     21429     21432     21433     21429     21432     21434     21429     21432     21435
     21433     21432     21434     21433     21432     21435     21434     21432     21435
     21432     21435     21436     21432     21435     21437     21432     21435     21438
     21436     21435     21437     21436     21435     21438     21437     21435     21438
     21435     21438     21439     21435     21438     21440     21435     21438     21441
     21439     21438     21440     21439     21438     21441     21440     21438     21441
     21438     21441     21442     21438     21441     21443     21438     21441     21444
     21442     21441     21443     21442     21441     21444     21443     21441     21444
     21441     21444     21445     21441     21444     21446     21441     21444     21447
     21445     21444     21446     21445     21444     21447     21446     21444     21447
     21401     21448     21449     21401     21448     21450     21401     21448     21451
     21449     21448     21450     21449     21448     21451     21450     21448     21451
     21448     21451     21452     21448     21451     21453     21448     21451     21454
     21452     21451     21453     21452     21451     21454     21453     21451     21454
     21451     21454     21455     21451     21454     21456     21451     21454     21457
     21455     21454     21456     21455     21454     21457     21456     21454     21457
     21454     21457     21458     21454     21457     21459     21454     21457     21460
     21458     21457     21459     21458     21457     21460     21459     21457     21460
     21457     21460     21461     21457     21460     21462     21457     21460     21463
     21461     21460     21462     21461     21460     21463     21462     21460     21463
     21460     21463     21464     21460     21463     21465     21460     21463     21466
     21464     21463     21465     21464     21463     21466     21465     21463     21466
     21463     21466     21467     21463     21466     21468     21463     21466     21469
     21467     21466     21468     21467     21466     21469     21468     21466     21469
     21466     21469     21470     21466     21469     21471     21466     21469     21472
     21470     21469     21471     21470     21469     21472     21471     21469     21472
     21469     21472     21473     21469     21472     21474     21469     21472     21475
     21473     21472     21474     21473     21472     21475     21474     21472     21475
     21472     21475     21476     21472     21475     21477     21472     21475     21478
     21476     21475     21477     21476     21475     21478     21477     21475     21478
     21475     21478     21479     21475     21478     21480     21475     21478     21481
     21479     21478     21480     21479     21478     21481     21480     21478     21481
     21478     21481     21482     21478     21481     21483     21478     21481     21484
     21482     21481     21483     21482     21481     21484     21483     21481     21484
     21481     21484     21485     21481     21484     21486     21481     21484     21487
     21485     21484     21486     21485     21484     21487     21486     21484     21487
     21484     21487     21488     21484     21487     21489     21484     21487     21490
     21488     21487     21489     21488     21487     21490     21489     21487     21490
     21492     21491     21493     21492     21491     21494     21492     21491     21495
     21493     21491     21494     21493     21491     21495     21494     21491     21495
     21491     21495     21496     21491     21495     21497     21491     21495     21498
     21496     21495     21497     21496     21495     21498     21497     21495     21498
     21495     21498     21499     21495     21498     21500     21495     21498     21505
     21499     21498     21500     21499     21498     21505     21500     21498     21505
     21502     21501     21503     21502     21501     21504     21502     21501     21505
     21503     21501     21504     21503     21501     21505     21504     21501     21505
     21501     21504     21506     21498     21505     21501     21504     21506     21507
     21504     21506     21508     21504     21506     21509     21507     21506     21508
     21507     21506     21509     21508     21506     21509     21506     21509     21510
     21506     21509     21511     21506     21509     21517     21510     21509     21511
     21510     21509     21517     21511     21509     21517     21509     21511     21512
     21511     21512     21513     21511     21512     21514     21513     21512     21514
     21512     21514     21515     21512     21514     21516     21512     21514     21526
     21515     21514     21516     21515     21514     21526     21516     21514     21526
     21509     21517     21518     21509     21517     21519     21509     21517     21520
     21518     21517     21519     21518     21517     21520     21519     21517     21520
     21517     21520     21521     21520     21521     21522     21520     21521     21523
     21522     21521     21523     21521     21523     21524     21521     21523     21525
     21521     21523     21573     21524     21523     21525     21524     21523     21573
     21525     21523     21573     21514     21526     21527     21514     21526     21528
     21514     21526     21529     21527     21526     21528     21527     21526     21529
     21528     21526     21529     21526     21529     21530     21526     21529     21531
     21526     21529     21532     21530     21529     21531     21530     21529     21532
     21531     21529     21532     21529     21532     21533     21529     21532     21534
     21529     21532     21535     21533     21532     21534     21533     21532     21535
     21534     21532     21535     21532     21535     21536     21532     21535     21537
     21532     21535     21538     21536     21535     21537     21536     21535     21538
     21537     21535     21538     21535     21538     21539     21535     21538     21540
     21535     21538     21541     21539     21538     21540     21539     21538     21541
     21540     21538     21541     21538     21541     21542     21538     21541     21543
     21538     21541     21544     21542     21541     21543     21542     21541     21544
     21543     21541     21544     21541     21544     21545     21541     21544     21546
     21545     21544     21546     21544     21546     21547     21544     21546     21548
     21547     21546     21548     21546     21548     21549     21546     21548     21550
     21546     21548     21551     21549     21548     21550     21549     21548     21551
     21550     21548     21551     21548     21551     21552     21548     21551     21553
     21548     21551     21554     21552     21551     21553     21552     21551     21554
     21553     21551     21554     21551     21554     21555     21551     21554     21556
     21551     21554     21557     21555     21554     21556     21555     21554     21557
     21556     21554     21557     21554     21557     21558     21554     21557     21559
     21554     21557     21560     21558     21557     21559     21558     21557     21560
     21559     21557     21560     21557     21560     21561     21557     21560     21562
     21557     21560     21563     21561     21560     21562     21561     21560     21563
     21562     21560     21563     21560     21563     21564     21560     21563     21565
     21560     21563     21566     21564     21563     21565     21564     21563     21566
     21565     21563     21566     21563     21566     21567     21563     21566     21568
     21563     21566     21569     21567     21566     21568     21567     21566     21569
     21568     21566     21569     21566     21569     21570     21566     21569     21571
     21566     21569     21572     21570     21569     21571     21570     21569     21572
     21571     21569     21572     21523     21573     21574     21523     21573     21575
     21523     21573     21576     21574     21573     21575     21574     21573     21576
     21575     21573     21576     21573     21576     21577     21573     21576     21578
     21573     21576     21579     21577     21576     21578     21577     21576     21579
     21578     21576     21579     21576     21579     21580     21576     21579     21581
     21576     21579     21582     21580     21579     21581     21580     21579     21582
     21581     21579     21582     21579     21582     21583     21579     21582     21584
     21579     21582     21585     21583     21582     21584     21583     21582     21585
     21584     21582     21585     21582     21585     21586     21582     21585     21587
     21582     21585     21588     21586     21585     21587     21586     21585     21588
     21587     21585     21588     21585     21588     21589     21585     21588     21590
     21585     21588     21591     21589     21588     21590     21589     21588     21591
     21590     21588     21591     21588     21591     21592     21588     21591     21593
     21588     21591     21594     21592     21591     21593     21592     21591     21594
     21593     21591     21594     21591     21594     21595     21591     21594     21596
     21591     21594     21597     21595     21594     21596     21595     21594     21597
     21596     21594     21597     21594     21597     21598     21594     21597     21599
     21594     21597     21600     21598     21597     21599     21598     21597     21600
     21599     21597     21600     21597     21600     21601     21597     21600     21602
     21597     21600     21603     21601     21600     21602     21601     21600     21603
     21602     21600     21603     21600     21603     21604     21600     21603     21605
     21600     21603     21606     21604     21603     21605     21604     21603     21606
     21605     21603     21606     21603     21606     21607     21603     21606     21608
     21603     21606     21609     21607     21606     21608     21607     21606     21609
     21608     21606     21609     21606     21609     21610     21606     21609     21611
     21606     21609     21612     21610     21609     21611     21610     21609     21612
     21611     21609     21612     21609     21612     21613     21609     21612     21614
     21609     21612     21615     21613     21612     21614     21613     21612     21615
     21614     21612     21615     21617     21616     21618     21617     21616     21619
     21617     21616     21620     21618     21616     21619     21618     21616     21620
     21619     21616     21620     21616     21620     21621     21616     21620     21622
     21616     21620     21623     21621     21620     21622     21621     21620     21623
     21622     21620     21623     21620     21623     21624     21620     21623     21625
     21620     21623     21630     21624     21623     21625     21624     21623     21630
     21625     21623     21630     21627     21626     21628     21627     21626     21629
     21627     21626     21630     21628     21626     21629     21628     21626     21630
     21629     21626     21630     21626     21629     21631     21623     21630     21626
     21629     21631     21632     21629     21631     21633     21629     21631     21634
     21632     21631     21633     21632     21631     21634     21633     21631     21634
     21631     21634     21635     21631     21634     21636     21631     21634     21642
     21635     21634     21636     21635     21634     21642     21636     21634     21642
     21634     21636     21637     21636     21637     21638     21636     21637     21639
     21638     21637     21639     21637     21639     21640     21637     21639     21641
     21637     21639     21651     21640     21639     21641     21640     21639     21651
     21641     21639     21651     21634     21642     21643     21634     21642     21644
     21634     21642     21645     21643     21642     21644     21643     21642     21645
     21644     21642     21645     21642     21645     21646     21645     21646     21647
     21645     21646     21648     21647     21646     21648     21646     21648     21649
     21646     21648     21650     21646     21648     21698     21649     21648     21650
     21649     21648     21698     21650     21648     21698     21639     21651     21652
     21639     21651     21653     21639     21651     21654     21652     21651     21653
     21652     21651     21654     21653     21651     21654     21651     21654     21655
     21651     21654     21656     21651     21654     21657     21655     21654     21656
     21655     21654     21657     21656     21654     21657     21654     21657     21658
     21654     21657     21659     21654     21657     21660     21658     21657     21659
     21658     21657     21660     21659     21657     21660     21657     21660     21661
     21657     21660     21662     21657     21660     21663     21661     21660     21662
     21661     21660     21663     21662     21660     21663     21660     21663     21664
     21660     21663     21665     21660     21663     21666     21664     21663     21665
     21664     21663     21666     21665     21663     21666     21663     21666     21667
     21663     21666     21668     21663     21666     21669     21667     21666     21668
     21667     21666     21669     21668     21666     21669     21666     21669     21670
     21666     21669     21671     21670     21669     21671     21669     21671     21672
     21669     21671     21673     21672     21671     21673     21671     21673     21674
     21671     21673     21675     21671     21673     21676     21674     21673     21675
     21674     21673     21676     21675     21673     21676     21673     21676     21677
     21673     21676     21678     21673     21676     21679     21677     21676     21678
     21677     21676     21679     21678     21676     21679     21676     21679     21680
     21676     21679     21681     21676     21679     21682     21680     21679     21681
     21680     21679     21682     21681     21679     21682     21679     21682     21683
     21679     21682     21684     21679     21682     21685     21683     21682     21684
     21683     21682     21685     21684     21682     21685     21682     21685     21686
     21682     21685     21687     21682     21685     21688     21686     21685     21687
     21686     21685     21688     21687     21685     21688     21685     21688     21689
     21685     21688     21690     21685     21688     21691     21689     21688     21690
     21689     21688     21691     21690     21688     21691     21688     21691     21692
     21688     21691     21693     21688     21691     21694     21692     21691     21693
     21692     21691     21694     21693     21691     21694     21691     21694     21695
     21691     21694     21696     21691     21694     21697     21695     21694     21696
     21695     21694     21697     21696     21694     21697     21648     21698     21699
     21648     21698     21700     21648     21698     21701     21699     21698     21700
     21699     21698     21701     21700     21698     21701     21698     21701     21702
     21698     21701     21703     21698     21701     21704     21702     21701     21703
     21702     21701     21704     21703     21701     21704     21701     21704     21705
     21701     21704     21706     21701     21704     21707     21705     21704     21706
     21705     21704     21707     21706     21704     21707     21704     21707     21708
     21704     21707     21709     21704     21707     21710     21708     21707     21709
     21708     21707     21710     21709     21707     21710     21707     21710     21711
     21707     21710     21712     21707     21710     21713     21711     21710     21712
     21711     21710     21713     21712     21710     21713     21710     21713     21714
     21710     21713     21715     21710     21713     21716     21714     21713     21715
     21714     21713     21716     21715     21713     21716     21713     21716     21717
     21713     21716     21718     21713     21716     21719     21717     21716     21718
     21717     21716     21719     21718     21716     21719     21716     21719     21720
     21716     21719     21721     21716     21719     21722     21720     21719     21721
     21720     21719     21722     21721     21719     21722     21719     21722     21723
     21719     21722     21724     21719     21722     21725     21723     21722     21724
     21723     21722     21725     21724     21722     21725     21722     21725     21726
     21722     21725     21727     21722     21725     21728     21726     21725     21727
     21726     21725     21728     21727     21725     21728     21725     21728     21729
     21725     21728     21730     21725     21728     21731     21729     21728     21730
     21729     21728     21731     21730     21728     21731     21728     21731     21732
     21728     21731     21733     21728     21731     21734     21732     21731     21733
     21732     21731     21734     21733     21731     21734     21731     21734     21735
     21731     21734     21736     21731     21734     21737     21735     21734     21736
     21735     21734     21737     21736     21734     21737     21734     21737     21738
     21734     21737     21739     21734     21737     21740     21738     21737     21739
     21738     21737     21740     21739     21737     21740     21742     21741     21743
     21742     21741     21744     21742     21741     21745     21743     21741     21744
     21743     21741     21745     21744     21741     21745     21741     21745     21746
     21741     21745     21747     21741     21745     21748     21746     21745     21747
     21746     21745     21748     21747     21745     21748     21745     21748     21749
     21745     21748     21750     21745     21748     21755     21749     21748     21750
     21749     21748     21755     21750     21748     21755     21752     21751     21753
     21752     21751     21754     21752     21751     21755     21753     21751     21754
     21753     21751     21755     21754     21751     21755     21751     21754     21756
     21748     21755     21751     21754     21756     21757     21754     21756     21758
     21754     21756     21759     21757     21756     21758     21757     21756     21759
     21758     21756     21759     21756     21759     21760     21756     21759     21761
     21756     21759     21767     21760     21759     21761     21760     21759     21767
     21761     21759     21767     21759     21761     21762     21761     21762     21763
     21761     21762     21764     21763     21762     21764     21762     21764     21765
     21762     21764     21766     21762     21764     21776     21765     21764     21766
     21765     21764     21776     21766     21764     21776     21759     21767     21768
     21759     21767     21769     21759     21767     21770     21768     21767     21769
     21768     21767     21770     21769     21767     21770     21767     21770     21771
     21770     21771     21772     21770     21771     21773     21772     21771     21773
     21771     21773     21774     21771     21773     21775     21771     21773     21820
     21774     21773     21775     21774     21773     21820     21775     21773     21820
     21764     21776     21777     21764     21776     21778     21764     21776     21779
     21777     21776     21778     21777     21776     21779     21778     21776     21779
     21776     21779     21780     21776     21779     21781     21776     21779     21782
     21780     21779     21781     21780     21779     21782     21781     21779     21782
     21779     21782     21783     21779     21782     21784     21779     21782     21785
     21783     21782     21784     21783     21782     21785     21784     21782     21785
     21782     21785     21786     21782     21785     21787     21782     21785     21788
     21786     21785     21787     21786     21785     21788     21787     21785     21788
     21785     21788     21789     21785     21788     21790     21785     21788     21791
     21789     21788     21790     21789     21788     21791     21790     21788     21791
     21788     21791     21792     21788     21791     21793     21788     21791     21794
     21792     21791     21793     21792     21791     21794     21793     21791     21794
     21791     21794     21795     21791     21794     21796     21791     21794     21799
     21795     21794     21796     21795     21794     21799     21796     21794     21799
     21794     21796     21797     21794     21796     21798     21794     21796     21799
     21797     21796     21798     21797     21796     21799     21798     21796     21799
     21794     21799     21796     21794     21799     21800     21794     21799     21801
     21796     21799     21800     21796     21799     21801     21800     21799     21801
     21799     21801     21802     21799     21801     21803     21799     21801     21804
     21802     21801     21803     21802     21801     21804     21803     21801     21804
     21801     21804     21805     21801     21804     21806     21801     21804     21807
     21805     21804     21806     21805     21804     21807     21806     21804     21807
     21804     21807     21808     21804     21807     21809     21804     21807     21810
     21808     21807     21809     21808     21807     21810     21809     21807     21810
     21807     21810     21811     21807     21810     21812     21807     21810     21813
     21811     21810     21812     21811     21810     21813     21812     21810     21813
     21810     21813     21814     21810     21813     21815     21810     21813     21816
     21814     21813     21815     21814     21813     21816     21815     21813     21816
     21813     21816     21817     21813     21816     21818     21813     21816     21819
     21817     21816     21818     21817     21816     21819     21818     21816     21819
     21773     21820     21821     21773     21820     21822     21773     21820     21823
     21821     21820     21822     21821     21820     21823     21822     21820     21823
     21820     21823     21824     21820     21823     21825     21820     21823     21826
     21824     21823     21825     21824     21823     21826     21825     21823     21826
     21823     21826     21827     21823     21826     21828     21823     21826     21829
     21827     21826     21828     21827     21826     21829     21828     21826     21829
     21826     21829     21830     21826     21829     21831     21826     21829     21832
     21830     21829     21831     21830     21829     21832     21831     21829     21832
     21829     21832     21833     21829     21832     21834     21829     21832     21835
     21833     21832     21834     21833     21832     21835     21834     21832     21835
     21832     21835     21836     21832     21835     21837     21832     21835     21838
     21836     21835     21837     21836     21835     21838     21837     21835     21838
     21835     21838     21839     21835     21838     21840     21835     21838     21841
     21839     21838     21840     21839     21838     21841     21840     21838     21841
     21838     21841     21842     21838     21841     21843     21838     21841     21844
     21842     21841     21843     21842     21841     21844     21843     21841     21844
     21841     21844     21845     21841     21844     21846     21841     21844     21847
     21845     21844     21846     21845     21844     21847     21846     21844     21847
     21844     21847     21848     21844     21847     21849     21844     21847     21850
     21848     21847     21849     21848     21847     21850     21849     21847     21850
     21847     21850     21851     21847     21850     21852     21847     21850     21853
     21851     21850     21852     21851     21850     21853     21852     21850     21853
     21850     21853     21854     21850     21853     21855     21850     21853     21856
     21854     21853     21855     21854     21853     21856     21855     21853     21856
     21853     21856     21857     21853     21856     21858     21853     21856     21859
     21857     21856     21858     21857     21856     21859     21858     21856     21859
     21856     21859     21860     21856     21859     21861     21856     21859     21862
     21860     21859     21861     21860     21859     21862     21861     21859     21862
     21864     21863     21865     21864     21863     21866     21864     21863     21867
     21865     21863     21866     21865     21863     21867     21866     21863     21867
     21863     21867     21868     21863     21867     21869     21863     21867     21870
     21868     21867     21869     21868     21867     21870     21869     21867     21870
     21867     21870     21871     21867     21870     21872     21867     21870     21877
     21871     21870     21872     21871     21870     21877     21872     21870     21877
     21874     21873     21875     21874     21873     21876     21874     21873     21877
     21875     21873     21876     21875     21873     21877     21876     21873     21877
     21873     21876     21878     21870     21877     21873     21876     21878     21879
     21876     21878     21880     21876     21878     21881     21879     21878     21880
     21879     21878     21881     21880     21878     21881     21878     21881     21882
     21878     21881     21883     21878     21881     21889     21882     21881     21883
     21882     21881     21889     21883     21881     21889     21881     21883     21884
     21883     21884     21885     21883     21884     21886     21885     21884     21886
     21884     21886     21887     21884     21886     21888     21884     21886     21898
     21887     21886     21888     21887     21886     21898     21888     21886     21898
     21881     21889     21890     21881     21889     21891     21881     21889     21892
     21890     21889     21891     21890     21889     21892     21891     21889     21892
     21889     21892     21893     21892     21893     21894     21892     21893     21895
     21894     21893     21895     21893     21895     21896     21893     21895     21897
     21893     21895     21939     21896     21895     21897     21896     21895     21939
     21897     21895     21939     21886     21898     21899     21886     21898     21900
     21886     21898     21901     21899     21898     21900     21899     21898     21901
     21900     21898     21901     21898     21901     21902     21898     21901     21903
     21898     21901     21904     21902     21901     21903     21902     21901     21904
     21903     21901     21904     21901     21904     21905     21901     21904     21906
     21901     21904     21907     21905     21904     21906     21905     21904     21907
     21906     21904     21907     21904     21907     21908     21904     21907     21909
     21904     21907     21910     21908     21907     21909     21908     21907     21910
     21909     21907     21910     21907     21910     21911     21907     21910     21912
     21907     21910     21913     21911     21910     21912     21911     21910     21913
     21912     21910     21913     21910     21913     21914     21910     21913     21915
     21910     21913     21916     21914     21913     21915     21914     21913     21916
     21915     21913     21916     21913     21916     21917     21913     21916     21918
     21917     21916     21918     21916     21918     21919     21916     21918     21920
     21919     21918     21920     21918     21920     21921     21918     21920     21922
     21918     21920     21923     21921     21920     21922     21921     21920     21923
     21922     21920     21923     21920     21923     21924     21920     21923     21925
     21920     21923     21926     21924     21923     21925     21924     21923     21926
     21925     21923     21926     21923     21926     21927     21923     21926     21928
     21923     21926     21929     21927     21926     21928     21927     21926     21929
     21928     21926     21929     21926     21929     21930     21926     21929     21931
     21926     21929     21932     21930     21929     21931     21930     21929     21932
     21931     21929     21932     21929     21932     21933     21929     21932     21934
     21929     21932     21935     21933     21932     21934     21933     21932     21935
     21934     21932     21935     21932     21935     21936     21932     21935     21937
     21932     21935     21938     21936     21935     21937     21936     21935     21938
     21937     21935     21938     21895     21939     21940     21895     21939     21941
     21895     21939     21942     21940     21939     21941     21940     21939     21942
     21941     21939     21942     21939     21942     21943     21939     21942     21944
     21939     21942     21945     21943     21942     21944     21943     21942     21945
     21944     21942     21945     21942     21945     21946     21942     21945     21947
     21942     21945     21948     21946     21945     21947     21946     21945     21948
     21947     21945     21948     21945     21948     21949     21945     21948     21950
     21945     21948     21951     21949     21948     21950     21949     21948     21951
     21950     21948     21951     21948     21951     21952     21948     21951     21953
     21948     21951     21954     21952     21951     21953     21952     21951     21954
     21953     21951     21954     21951     21954     21955     21951     21954     21956
     21951     21954     21957     21955     21954     21956     21955     21954     21957
     21956     21954     21957     21954     21957     21958     21954     21957     21959
     21958     21957     21959     21957     21959     21960     21957     21959     21961
     21960     21959     21961     21959     21961     21962     21959     21961     21963
     21959     21961     21964     21962     21961     21963     21962     21961     21964
     21963     21961     21964     21961     21964     21965     21961     21964     21966
     21961     21964     21967     21965     21964     21966     21965     21964     21967
     21966     21964     21967     21964     21967     21968     21964     21967     21969
     21964     21967     21970     21968     21967     21969     21968     21967     21970
     21969     21967     21970     21967     21970     21971     21967     21970     21972
     21967     21970     21973     21971     21970     21972     21971     21970     21973
     21972     21970     21973     21970     21973     21974     21970     21973     21975
     21970     21973     21976     21974     21973     21975     21974     21973     21976
     21975     21973     21976     21973     21976     21977     21973     21976     21978
     21973     21976     21979     21977     21976     21978     21977     21976     21979
     21978     21976     21979     21976     21979     21980     21976     21979     21981
     21976     21979     21982     21980     21979     21981     21980     21979     21982
     21981     21979     21982     21979     21982     21983     21979     21982     21984
     21979     21982     21985     21983     21982     21984     21983     21982     21985
     21984     21982     21985     21987     21986     21988     21987     21986     21989
     21987     21986     21991     21988     21986     21989     21988     21986     21991
     21989     21986     21991     21986     21989     21990     21986     21991     21992
     21986     21991     21993     21986     21991     21995     21992     21991     21993
     21992     21991     21995     21993     21991     21995     21991     21993     21994
     21991     21995     21996     21991     21995     21997     21991     21995     22002
     21996     21995     21997     21996     21995     22002     21997     21995     22002
     21999     21998     22000     21999     21998     22001     21999     21998     22002
     22000     21998     22001     22000     21998     22002     22001     21998     22002
     21998     22001     22003     21995     22002     21998     22001     22003     22004
     22001     22003     22005     22001     22003     22006     22004     22003     22005
     22004     22003     22006     22005     22003     22006     22003     22006     22007
     22003     22006     22008     22003     22006     22014     22007     22006     22008
     22007     22006     22014     22008     22006     22014     22006     22008     22009
     22008     22009     22010     22008     22009     22011     22010     22009     22011
     22009     22011     22012     22009     22011     22013     22009     22011     22023
     22012     22011     22013     22012     22011     22023     22013     22011     22023
     22006     22014     22015     22006     22014     22016     22006     22014     22017
     22015     22014     22016     22015     22014     22017     22016     22014     22017
     22014     22017     22018     22017     22018     22019     22017     22018     22020
     22019     22018     22020     22018     22020     22021     22018     22020     22022
     22018     22020     22067     22021     22020     22022     22021     22020     22067
     22022     22020     22067     22011     22023     22024     22011     22023     22025
     22011     22023     22026     22024     22023     22025     22024     22023     22026
     22025     22023     22026     22023     22026     22027     22023     22026     22028
     22023     22026     22029     22027     22026     22028     22027     22026     22029
     22028     22026     22029     22026     22029     22030     22026     22029     22031
     22026     22029     22032     22030     22029     22031     22030     22029     22032
     22031     22029     22032     22029     22032     22033     22029     22032     22034
     22029     22032     22035     22033     22032     22034     22033     22032     22035
     22034     22032     22035     22032     22035     22036     22032     22035     22037
     22032     22035     22038     22036     22035     22037     22036     22035     22038
     22037     22035     22038     22035     22038     22039     22035     22038     22040
     22035     22038     22041     22039     22038     22040     22039     22038     22041
     22040     22038     22041     22038     22041     22042     22038     22041     22043
     22038     22041     22046     22042     22041     22043     22042     22041     22046
     22043     22041     22046     22041     22043     22044     22041     22043     22045
     22041     22043     22046     22044     22043     22045     22044     22043     22046
     22045     22043     22046     22041     22046     22043     22041     22046     22047
     22041     22046     22048     22043     22046     22047     22043     22046     22048
     22047     22046     22048     22046     22048     22049     22046     22048     22050
     22046     22048     22051     22049     22048     22050     22049     22048     22051
     22050     22048     22051     22048     22051     22052     22048     22051     22053
     22048     22051     22054     22052     22051     22053     22052     22051     22054
     22053     22051     22054     22051     22054     22055     22051     22054     22056
     22051     22054     22057     22055     22054     22056     22055     22054     22057
     22056     22054     22057     22054     22057     22058     22054     22057     22059
     22054     22057     22060     22058     22057     22059     22058     22057     22060
     22059     22057     22060     22057     22060     22061     22057     22060     22062
     22057     22060     22063     22061     22060     22062     22061     22060     22063
     22062     22060     22063     22060     22063     22064     22060     22063     22065
     22060     22063     22066     22064     22063     22065     22064     22063     22066
     22065     22063     22066     22020     22067     22068     22020     22067     22069
     22020     22067     22070     22068     22067     22069     22068     22067     22070
     22069     22067     22070     22067     22070     22071     22067     22070     22072
     22067     22070     22073     22071     22070     22072     22071     22070     22073
     22072     22070     22073     22070     22073     22074     22070     22073     22075
     22070     22073     22076     22074     22073     22075     22074     22073     22076
     22075     22073     22076     22073     22076     22077     22073     22076     22078
     22073     22076     22079     22077     22076     22078     22077     22076     22079
     22078     22076     22079     22076     22079     22080     22076     22079     22081
     22076     22079     22082     22080     22079     22081     22080     22079     22082
     22081     22079     22082     22079     22082     22083     22079     22082     22084
     22079     22082     22085     22083     22082     22084     22083     22082     22085
     22084     22082     22085     22082     22085     22086     22082     22085     22087
     22082     22085     22088     22086     22085     22087     22086     22085     22088
     22087     22085     22088     22085     22088     22089     22085     22088     22090
     22085     22088     22091     22089     22088     22090     22089     22088     22091
     22090     22088     22091     22088     22091     22092     22088     22091     22093
     22088     22091     22094     22092     22091     22093     22092     22091     22094
     22093     22091     22094     22091     22094     22095     22091     22094     22096
     22091     22094     22097     22095     22094     22096     22095     22094     22097
     22096     22094     22097     22094     22097     22098     22094     22097     22099
     22094     22097     22100     22098     22097     22099     22098     22097     22100
     22099     22097     22100     22097     22100     22101     22097     22100     22102
     22097     22100     22103     22101     22100     22102     22101     22100     22103
     22102     22100     22103     22100     22103     22104     22100     22103     22105
     22100     22103     22106     22104     22103     22105     22104     22103     22106
     22105     22103     22106     22103     22106     22107     22103     22106     22108
     22103     22106     22109     22107     22106     22108     22107     22106     22109
     22108     22106     22109     22111     22110     22112     22111     22110     22113
     22111     22110     22114     22112     22110     22113     22112     22110     22114
     22113     22110     22114     22110     22114     22115     22110     22114     22116
     22110     22114     22117     22115     22114     22116     22115     22114     22117
     22116     22114     22117     22114     22117     22118     22114     22117     22119
     22114     22117     22124     22118     22117     22119     22118     22117     22124
     22119     22117     22124     22121     22120     22122     22121     22120     22123
     22121     22120     22124     22122     22120     22123     22122     22120     22124
     22123     22120     22124     22120     22123     22125     22117     22124     22120
     22123     22125     22126     22123     22125     22127     22123     22125     22128
     22126     22125     22127     22126     22125     22128     22127     22125     22128
     22125     22128     22129     22125     22128     22130     22125     22128     22136
     22129     22128     22130     22129     22128     22136     22130     22128     22136
     22128     22130     22131     22130     22131     22132     22130     22131     22133
     22132     22131     22133     22131     22133     22134     22131     22133     22135
     22131     22133     22145     22134     22133     22135     22134     22133     22145
     22135     22133     22145     22128     22136     22137     22128     22136     22138
     22128     22136     22139     22137     22136     22138     22137     22136     22139
     22138     22136     22139     22136     22139     22140     22139     22140     22141
     22139     22140     22142     22141     22140     22142     22140     22142     22143
     22140     22142     22144     22140     22142     22189     22143     22142     22144
     22143     22142     22189     22144     22142     22189     22133     22145     22146
     22133     22145     22147     22133     22145     22148     22146     22145     22147
     22146     22145     22148     22147     22145     22148     22145     22148     22149
     22145     22148     22150     22145     22148     22151     22149     22148     22150
     22149     22148     22151     22150     22148     22151     22148     22151     22152
     22148     22151     22153     22148     22151     22154     22152     22151     22153
     22152     22151     22154     22153     22151     22154     22151     22154     22155
     22151     22154     22156     22151     22154     22157     22155     22154     22156
     22155     22154     22157     22156     22154     22157     22154     22157     22158
     22154     22157     22159     22154     22157     22160     22158     22157     22159
     22158     22157     22160     22159     22157     22160     22157     22160     22161
     22157     22160     22162     22157     22160     22163     22161     22160     22162
     22161     22160     22163     22162     22160     22163     22160     22163     22164
     22160     22163     22165     22160     22163     22168     22164     22163     22165
     22164     22163     22168     22165     22163     22168     22163     22165     22166
     22163     22165     22167     22163     22165     22168     22166     22165     22167
     22166     22165     22168     22167     22165     22168     22163     22168     22165
     22163     22168     22169     22163     22168     22170     22165     22168     22169
     22165     22168     22170     22169     22168     22170     22168     22170     22171
     22168     22170     22172     22168     22170     22173     22171     22170     22172
     22171     22170     22173     22172     22170     22173     22170     22173     22174
     22170     22173     22175     22170     22173     22176     22174     22173     22175
     22174     22173     22176     22175     22173     22176     22173     22176     22177
     22173     22176     22178     22173     22176     22179     22177     22176     22178
     22177     22176     22179     22178     22176     22179     22176     22179     22180
     22176     22179     22181     22176     22179     22182     22180     22179     22181
     22180     22179     22182     22181     22179     22182     22179     22182     22183
     22179     22182     22184     22179     22182     22185     22183     22182     22184
     22183     22182     22185     22184     22182     22185     22182     22185     22186
     22182     22185     22187     22182     22185     22188     22186     22185     22187
     22186     22185     22188     22187     22185     22188     22142     22189     22190
     22142     22189     22191     22142     22189     22192     22190     22189     22191
     22190     22189     22192     22191     22189     22192     22189     22192     22193
     22189     22192     22194     22189     22192     22195     22193     22192     22194
     22193     22192     22195     22194     22192     22195     22192     22195     22196
     22192     22195     22197     22192     22195     22198     22196     22195     22197
     22196     22195     22198     22197     22195     22198     22195     22198     22199
     22195     22198     22200     22195     22198     22201     22199     22198     22200
     22199     22198     22201     22200     22198     22201     22198     22201     22202
     22198     22201     22203     22198     22201     22204     22202     22201     22203
     22202     22201     22204     22203     22201     22204     22201     22204     22205
     22201     22204     22206     22201     22204     22207     22205     22204     22206
     22205     22204     22207     22206     22204     22207     22204     22207     22208
     22204     22207     22209     22204     22207     22210     22208     22207     22209
     22208     22207     22210     22209     22207     22210     22207     22210     22211
     22207     22210     22212     22207     22210     22213     22211     22210     22212
     22211     22210     22213     22212     22210     22213     22210     22213     22214
     22210     22213     22215     22210     22213     22216     22214     22213     22215
     22214     22213     22216     22215     22213     22216     22213     22216     22217
     22213     22216     22218     22213     22216     22219     22217     22216     22218
     22217     22216     22219     22218     22216     22219     22216     22219     22220
     22216     22219     22221     22216     22219     22222     22220     22219     22221
     22220     22219     22222     22221     22219     22222     22219     22222     22223
     22219     22222     22224     22219     22222     22225     22223     22222     22224
     22223     22222     22225     22224     22222     22225     22222     22225     22226
     22222     22225     22227     22222     22225     22228     22226     22225     22227
     22226     22225     22228     22227     22225     22228     22225     22228     22229
     22225     22228     22230     22225     22228     22231     22229     22228     22230
     22229     22228     22231     22230     22228     22231     22233     22232     22234
     22233     22232     22235     22233     22232     22236     22234     22232     22235
     22234     22232     22236     22235     22232     22236     22232     22236     22237
     22232     22236     22238     22232     22236     22239     22237     22236     22238
     22237     22236     22239     22238     22236     22239     22236     22239     22240
     22236     22239     22241     22236     22239     22246     22240     22239     22241
     22240     22239     22246     22241     22239     22246     22243     22242     22244
     22243     22242     22245     22243     22242     22246     22244     22242     22245
     22244     22242     22246     22245     22242     22246     22242     22245     22247
     22239     22246     22242     22245     22247     22248     22245     22247     22249
     22245     22247     22250     22248     22247     22249     22248     22247     22250
     22249     22247     22250     22247     22250     22251     22247     22250     22252
     22247     22250     22258     22251     22250     22252     22251     22250     22258
     22252     22250     22258     22250     22252     22253     22252     22253     22254
     22252     22253     22255     22254     22253     22255     22253     22255     22256
     22253     22255     22257     22253     22255     22267     22256     22255     22257
     22256     22255     22267     22257     22255     22267     22250     22258     22259
     22250     22258     22260     22250     22258     22261     22259     22258     22260
     22259     22258     22261     22260     22258     22261     22258     22261     22262
     22261     22262     22263     22261     22262     22264     22263     22262     22264
     22262     22264     22265     22262     22264     22266     22262     22264     22311
     22265     22264     22266     22265     22264     22311     22266     22264     22311
     22255     22267     22268     22255     22267     22269     22255     22267     22270
     22268     22267     22269     22268     22267     22270     22269     22267     22270
     22267     22270     22271     22267     22270     22272     22267     22270     22273
     22271     22270     22272     22271     22270     22273     22272     22270     22273
     22270     22273     22274     22270     22273     22275     22270     22273     22276
     22274     22273     22275     22274     22273     22276     22275     22273     22276
     22273     22276     22277     22273     22276     22278     22273     22276     22279
     22277     22276     22278     22277     22276     22279     22278     22276     22279
     22276     22279     22280     22276     22279     22281     22276     22279     22282
     22280     22279     22281     22280     22279     22282     22281     22279     22282
     22279     22282     22283     22279     22282     22284     22279     22282     22285
     22283     22282     22284     22283     22282     22285     22284     22282     22285
     22282     22285     22286     22282     22285     22287     22282     22285     22290
     22286     22285     22287     22286     22285     22290     22287     22285     22290
     22285     22287     22288     22285     22287     22289     22285     22287     22290
     22288     22287     22289     22288     22287     22290     22289     22287     22290
     22285     22290     22287     22285     22290     22291     22285     22290     22292
     22287     22290     22291     22287     22290     22292     22291     22290     22292
     22290     22292     22293     22290     22292     22294     22290     22292     22295
     22293     22292     22294     22293     22292     22295     22294     22292     22295
     22292     22295     22296     22292     22295     22297     22292     22295     22298
     22296     22295     22297     22296     22295     22298     22297     22295     22298
     22295     22298     22299     22295     22298     22300     22295     22298     22301
     22299     22298     22300     22299     22298     22301     22300     22298     22301
     22298     22301     22302     22298     22301     22303     22298     22301     22304
     22302     22301     22303     22302     22301     22304     22303     22301     22304
     22301     22304     22305     22301     22304     22306     22301     22304     22307
     22305     22304     22306     22305     22304     22307     22306     22304     22307
     22304     22307     22308     22304     22307     22309     22304     22307     22310
     22308     22307     22309     22308     22307     22310     22309     22307     22310
     22264     22311     22312     22264     22311     22313     22264     22311     22314
     22312     22311     22313     22312     22311     22314     22313     22311     22314
     22311     22314     22315     22311     22314     22316     22311     22314     22317
     22315     22314     22316     22315     22314     22317     22316     22314     22317
     22314     22317     22318     22314     22317     22319     22314     22317     22320
     22318     22317     22319     22318     22317     22320     22319     22317     22320
     22317     22320     22321     22317     22320     22322     22317     22320     22323
     22321     22320     22322     22321     22320     22323     22322     22320     22323
     22320     22323     22324     22320     22323     22325     22320     22323     22326
     22324     22323     22325     22324     22323     22326     22325     22323     22326
     22323     22326     22327     22323     22326     22328     22323     22326     22329
     22327     22326     22328     22327     22326     22329     22328     22326     22329
     22326     22329     22330     22326     22329     22331     22326     22329     22332
     22330     22329     22331     22330     22329     22332     22331     22329     22332
     22329     22332     22333     22329     22332     22334     22329     22332     22335
     22333     22332     22334     22333     22332     22335     22334     22332     22335
     22332     22335     22336     22332     22335     22337     22332     22335     22338
     22336     22335     22337     22336     22335     22338     22337     22335     22338
     22335     22338     22339     22335     22338     22340     22335     22338     22341
     22339     22338     22340     22339     22338     22341     22340     22338     22341
     22338     22341     22342     22338     22341     22343     22338     22341     22344
     22342     22341     22343     22342     22341     22344     22343     22341     22344
     22341     22344     22345     22341     22344     22346     22341     22344     22347
     22345     22344     22346     22345     22344     22347     22346     22344     22347
     22344     22347     22348     22344     22347     22349     22344     22347     22350
     22348     22347     22349     22348     22347     22350     22349     22347     22350
     22347     22350     22351     22347     22350     22352     22347     22350     22353
     22351     22350     22352     22351     22350     22353     22352     22350     22353
     22355     22354     22356     22355     22354     22357     22355     22354     22359
     22356     22354     22357     22356     22354     22359     22357     22354     22359
     22354     22357     22358     22354     22359     22360     22354     22359     22361
     22354     22359     22363     22360     22359     22361     22360     22359     22363
     22361     22359     22363     22359     22361     22362     22359     22363     22364
     22359     22363     22365     22359     22363     22370     22364     22363     22365
     22364     22363     22370     22365     22363     22370     22367     22366     22368
     22367     22366     22369     22367     22366     22370     22368     22366     22369
     22368     22366     22370     22369     22366     22370     22366     22369     22371
     22363     22370     22366     22369     22371     22372     22369     22371     22373
     22369     22371     22374     22372     22371     22373     22372     22371     22374
     22373     22371     22374     22371     22374     22375     22371     22374     22376
     22371     22374     22382     22375     22374     22376     22375     22374     22382
     22376     22374     22382     22374     22376     22377     22376     22377     22378
     22376     22377     22379     22378     22377     22379     22377     22379     22380
     22377     22379     22381     22377     22379     22391     22380     22379     22381
     22380     22379     22391     22381     22379     22391     22374     22382     22383
     22374     22382     22384     22374     22382     22385     22383     22382     22384
     22383     22382     22385     22384     22382     22385     22382     22385     22386
     22385     22386     22387     22385     22386     22388     22387     22386     22388
     22386     22388     22389     22386     22388     22390     22386     22388     22432
     22389     22388     22390     22389     22388     22432     22390     22388     22432
     22379     22391     22392     22379     22391     22393     22379     22391     22394
     22392     22391     22393     22392     22391     22394     22393     22391     22394
     22391     22394     22395     22391     22394     22396     22391     22394     22397
     22395     22394     22396     22395     22394     22397     22396     22394     22397
     22394     22397     22398     22394     22397     22399     22394     22397     22400
     22398     22397     22399     22398     22397     22400     22399     22397     22400
     22397     22400     22401     22397     22400     22402     22397     22400     22403
     22401     22400     22402     22401     22400     22403     22402     22400     22403
     22400     22403     22404     22400     22403     22405     22400     22403     22406
     22404     22403     22405     22404     22403     22406     22405     22403     22406
     22403     22406     22407     22403     22406     22408     22403     22406     22409
     22407     22406     22408     22407     22406     22409     22408     22406     22409
     22406     22409     22410     22406     22409     22411     22410     22409     22411
     22409     22411     22412     22409     22411     22413     22412     22411     22413
     22411     22413     22414     22411     22413     22415     22411     22413     22416
     22414     22413     22415     22414     22413     22416     22415     22413     22416
     22413     22416     22417     22413     22416     22418     22413     22416     22419
     22417     22416     22418     22417     22416     22419     22418     22416     22419
     22416     22419     22420     22416     22419     22421     22416     22419     22422
     22420     22419     22421     22420     22419     22422     22421     22419     22422
     22419     22422     22423     22419     22422     22424     22419     22422     22425
     22423     22422     22424     22423     22422     22425     22424     22422     22425
     22422     22425     22426     22422     22425     22427     22422     22425     22428
     22426     22425     22427     22426     22425     22428     22427     22425     22428
     22425     22428     22429     22425     22428     22430     22425     22428     22431
     22429     22428     22430     22429     22428     22431     22430     22428     22431
     22388     22432     22433     22388     22432     22434     22388     22432     22435
     22433     22432     22434     22433     22432     22435     22434     22432     22435
     22432     22435     22436     22432     22435     22437     22432     22435     22438
     22436     22435     22437     22436     22435     22438     22437     22435     22438
     22435     22438     22439     22435     22438     22440     22435     22438     22441
     22439     22438     22440     22439     22438     22441     22440     22438     22441
     22438     22441     22442     22438     22441     22443     22438     22441     22444
     22442     22441     22443     22442     22441     22444     22443     22441     22444
     22441     22444     22445     22441     22444     22446     22441     22444     22447
     22445     22444     22446     22445     22444     22447     22446     22444     22447
     22444     22447     22448     22444     22447     22449     22444     22447     22450
     22448     22447     22449     22448     22447     22450     22449     22447     22450
     22447     22450     22451     22447     22450     22452     22447     22450     22453
     22451     22450     22452     22451     22450     22453     22452     22450     22453
     22450     22453     22454     22450     22453     22455     22450     22453     22456
     22454     22453     22455     22454     22453     22456     22455     22453     22456
     22453     22456     22457     22453     22456     22458     22453     22456     22459
     22457     22456     22458     22457     22456     22459     22458     22456     22459
     22456     22459     22460     22456     22459     22461     22456     22459     22462
     22460     22459     22461     22460     22459     22462     22461     22459     22462
     22459     22462     22463     22459     22462     22464     22459     22462     22465
     22463     22462     22464     22463     22462     22465     22464     22462     22465
     22462     22465     22466     22462     22465     22467     22462     22465     22468
     22466     22465     22467     22466     22465     22468     22467     22465     22468
     22465     22468     22469     22465     22468     22470     22465     22468     22471
     22469     22468     22470     22469     22468     22471     22470     22468     22471
     22468     22471     22472     22468     22471     22473     22468     22471     22474
     22472     22471     22473     22472     22471     22474     22473     22471     22474
     22476     22475     22477     22476     22475     22478     22476     22475     22479
     22477     22475     22478     22477     22475     22479     22478     22475     22479
     22475     22479     22480     22475     22479     22481     22475     22479     22482
     22480     22479     22481     22480     22479     22482     22481     22479     22482
     22479     22482     22483     22479     22482     22484     22479     22482     22489
     22483     22482     22484     22483     22482     22489     22484     22482     22489
     22486     22485     22487     22486     22485     22488     22486     22485     22489
     22487     22485     22488     22487     22485     22489     22488     22485     22489
     22485     22488     22490     22482     22489     22485     22488     22490     22491
     22488     22490     22492     22488     22490     22493     22491     22490     22492
     22491     22490     22493     22492     22490     22493     22490     22493     22494
     22490     22493     22495     22490     22493     22501     22494     22493     22495
     22494     22493     22501     22495     22493     22501     22493     22495     22496
     22495     22496     22497     22495     22496     22498     22497     22496     22498
     22496     22498     22499     22496     22498     22500     22496     22498     22510
     22499     22498     22500     22499     22498     22510     22500     22498     22510
     22493     22501     22502     22493     22501     22503     22493     22501     22504
     22502     22501     22503     22502     22501     22504     22503     22501     22504
     22501     22504     22505     22504     22505     22506     22504     22505     22507
     22506     22505     22507     22505     22507     22508     22505     22507     22509
     22505     22507     22551     22508     22507     22509     22508     22507     22551
     22509     22507     22551     22498     22510     22511     22498     22510     22512
     22498     22510     22513     22511     22510     22512     22511     22510     22513
     22512     22510     22513     22510     22513     22514     22510     22513     22515
     22510     22513     22516     22514     22513     22515     22514     22513     22516
     22515     22513     22516     22513     22516     22517     22513     22516     22518
     22513     22516     22519     22517     22516     22518     22517     22516     22519
     22518     22516     22519     22516     22519     22520     22516     22519     22521
     22516     22519     22522     22520     22519     22521     22520     22519     22522
     22521     22519     22522     22519     22522     22523     22519     22522     22524
     22519     22522     22525     22523     22522     22524     22523     22522     22525
     22524     22522     22525     22522     22525     22526     22522     22525     22527
     22522     22525     22528     22526     22525     22527     22526     22525     22528
     22527     22525     22528     22525     22528     22529     22525     22528     22530
     22529     22528     22530     22528     22530     22531     22528     22530     22532
     22531     22530     22532     22530     22532     22533     22530     22532     22534
     22530     22532     22535     22533     22532     22534     22533     22532     22535
     22534     22532     22535     22532     22535     22536     22532     22535     22537
     22532     22535     22538     22536     22535     22537     22536     22535     22538
     22537     22535     22538     22535     22538     22539     22535     22538     22540
     22535     22538     22541     22539     22538     22540     22539     22538     22541
     22540     22538     22541     22538     22541     22542     22538     22541     22543
     22538     22541     22544     22542     22541     22543     22542     22541     22544
     22543     22541     22544     22541     22544     22545     22541     22544     22546
     22541     22544     22547     22545     22544     22546     22545     22544     22547
     22546     22544     22547     22544     22547     22548     22544     22547     22549
     22544     22547     22550     22548     22547     22549     22548     22547     22550
     22549     22547     22550     22507     22551     22552     22507     22551     22553
     22507     22551     22554     22552     22551     22553     22552     22551     22554
     22553     22551     22554     22551     22554     22555     22551     22554     22556
     22551     22554     22557     22555     22554     22556     22555     22554     22557
     22556     22554     22557     22554     22557     22558     22554     22557     22559
     22554     22557     22560     22558     22557     22559     22558     22557     22560
     22559     22557     22560     22557     22560     22561     22557     22560     22562
     22557     22560     22563     22561     22560     22562     22561     22560     22563
     22562     22560     22563     22560     22563     22564     22560     22563     22565
     22560     22563     22566     22564     22563     22565     22564     22563     22566
     22565     22563     22566     22563     22566     22567     22563     22566     22568
     22563     22566     22569     22567     22566     22568     22567     22566     22569
     22568     22566     22569     22566     22569     22570     22566     22569     22571
     22570     22569     22571     22569     22571     22572     22569     22571     22573
     22572     22571     22573     22571     22573     22574     22571     22573     22575
     22571     22573     22576     22574     22573     22575     22574     22573     22576
     22575     22573     22576     22573     22576     22577     22573     22576     22578
     22573     22576     22579     22577     22576     22578     22577     22576     22579
     22578     22576     22579     22576     22579     22580     22576     22579     22581
     22576     22579     22582     22580     22579     22581     22580     22579     22582
     22581     22579     22582     22579     22582     22583     22579     22582     22584
     22579     22582     22585     22583     22582     22584     22583     22582     22585
     22584     22582     22585     22582     22585     22586     22582     22585     22587
     22582     22585     22588     22586     22585     22587     22586     22585     22588
     22587     22585     22588     22585     22588     22589     22585     22588     22590
     22585     22588     22591     22589     22588     22590     22589     22588     22591
     22590     22588     22591     22588     22591     22592     22588     22591     22593
     22588     22591     22594     22592     22591     22593     22592     22591     22594
     22593     22591     22594     22591     22594     22595     22591     22594     22596
     22591     22594     22597     22595     22594     22596     22595     22594     22597
     22596     22594     22597     22599     22598     22600     22599     22598     22601
     22599     22598     22602     22600     22598     22601     22600     22598     22602
     22601     22598     22602     22598     22602     22603     22598     22602     22604
     22598     22602     22605     22603     22602     22604     22603     22602     22605
     22604     22602     22605     22602     22605     22606     22602     22605     22607
     22602     22605     22612     22606     22605     22607     22606     22605     22612
     22607     22605     22612     22609     22608     22610     22609     22608     22611
     22609     22608     22612     22610     22608     22611     22610     22608     22612
     22611     22608     22612     22608     22611     22613     22605     22612     22608
     22611     22613     22614     22611     22613     22615     22611     22613     22616
     22614     22613     22615     22614     22613     22616     22615     22613     22616
     22613     22616     22617     22613     22616     22618     22613     22616     22624
     22617     22616     22618     22617     22616     22624     22618     22616     22624
     22616     22618     22619     22618     22619     22620     22618     22619     22621
     22620     22619     22621     22619     22621     22622     22619     22621     22623
     22619     22621     22633     22622     22621     22623     22622     22621     22633
     22623     22621     22633     22616     22624     22625     22616     22624     22626
     22616     22624     22627     22625     22624     22626     22625     22624     22627
     22626     22624     22627     22624     22627     22628     22627     22628     22629
     22627     22628     22630     22629     22628     22630     22628     22630     22631
     22628     22630     22632     22628     22630     22677     22631     22630     22632
     22631     22630     22677     22632     22630     22677     22621     22633     22634
     22621     22633     22635     22621     22633     22636     22634     22633     22635
     22634     22633     22636     22635     22633     22636     22633     22636     22637
     22633     22636     22638     22633     22636     22639     22637     22636     22638
     22637     22636     22639     22638     22636     22639     22636     22639     22640
     22636     22639     22641     22636     22639     22642     22640     22639     22641
     22640     22639     22642     22641     22639     22642     22639     22642     22643
     22639     22642     22644     22639     22642     22645     22643     22642     22644
     22643     22642     22645     22644     22642     22645     22642     22645     22646
     22642     22645     22647     22642     22645     22648     22646     22645     22647
     22646     22645     22648     22647     22645     22648     22645     22648     22649
     22645     22648     22650     22645     22648     22651     22649     22648     22650
     22649     22648     22651     22650     22648     22651     22648     22651     22652
     22648     22651     22653     22648     22651     22656     22652     22651     22653
     22652     22651     22656     22653     22651     22656     22651     22653     22654
     22651     22653     22655     22651     22653     22656     22654     22653     22655
     22654     22653     22656     22655     22653     22656     22651     22656     22653
     22651     22656     22657     22651     22656     22658     22653     22656     22657
     22653     22656     22658     22657     22656     22658     22656     22658     22659
     22656     22658     22660     22656     22658     22661     22659     22658     22660
     22659     22658     22661     22660     22658     22661     22658     22661     22662
     22658     22661     22663     22658     22661     22664     22662     22661     22663
     22662     22661     22664     22663     22661     22664     22661     22664     22665
     22661     22664     22666     22661     22664     22667     22665     22664     22666
     22665     22664     22667     22666     22664     22667     22664     22667     22668
     22664     22667     22669     22664     22667     22670     22668     22667     22669
     22668     22667     22670     22669     22667     22670     22667     22670     22671
     22667     22670     22672     22667     22670     22673     22671     22670     22672
     22671     22670     22673     22672     22670     22673     22670     22673     22674
     22670     22673     22675     22670     22673     22676     22674     22673     22675
     22674     22673     22676     22675     22673     22676     22630     22677     22678
     22630     22677     22679     22630     22677     22680     22678     22677     22679
     22678     22677     22680     22679     22677     22680     22677     22680     22681
     22677     22680     22682     22677     22680     22683     22681     22680     22682
     22681     22680     22683     22682     22680     22683     22680     22683     22684
     22680     22683     22685     22680     22683     22686     22684     22683     22685
     22684     22683     22686     22685     22683     22686     22683     22686     22687
     22683     22686     22688     22683     22686     22689     22687     22686     22688
     22687     22686     22689     22688     22686     22689     22686     22689     22690
     22686     22689     22691     22686     22689     22692     22690     22689     22691
     22690     22689     22692     22691     22689     22692     22689     22692     22693
     22689     22692     22694     22689     22692     22695     22693     22692     22694
     22693     22692     22695     22694     22692     22695     22692     22695     22696
     22692     22695     22697     22692     22695     22698     22696     22695     22697
     22696     22695     22698     22697     22695     22698     22695     22698     22699
     22695     22698     22700     22695     22698     22701     22699     22698     22700
     22699     22698     22701     22700     22698     22701     22698     22701     22702
     22698     22701     22703     22698     22701     22704     22702     22701     22703
     22702     22701     22704     22703     22701     22704     22701     22704     22705
     22701     22704     22706     22701     22704     22707     22705     22704     22706
     22705     22704     22707     22706     22704     22707     22704     22707     22708
     22704     22707     22709     22704     22707     22710     22708     22707     22709
     22708     22707     22710     22709     22707     22710     22707     22710     22711
     22707     22710     22712     22707     22710     22713     22711     22710     22712
     22711     22710     22713     22712     22710     22713     22710     22713     22714
     22710     22713     22715     22710     22713     22716     22714     22713     22715
     22714     22713     22716     22715     22713     22716     22713     22716     22717
     22713     22716     22718     22713     22716     22719     22717     22716     22718
     22717     22716     22719     22718     22716     22719     22721     22720     22722
     22721     22720     22723     22721     22720     22724     22722     22720     22723
     22722     22720     22724     22723     22720     22724     22720     22724     22725
     22720     22724     22726     22720     22724     22727     22725     22724     22726
     22725     22724     22727     22726     22724     22727     22724     22727     22728
     22724     22727     22729     22724     22727     22734     22728     22727     22729
     22728     22727     22734     22729     22727     22734     22731     22730     22732
     22731     22730     22733     22731     22730     22734     22732     22730     22733
     22732     22730     22734     22733     22730     22734     22730     22733     22735
     22727     22734     22730     22733     22735     22736     22733     22735     22737
     22733     22735     22738     22736     22735     22737     22736     22735     22738
     22737     22735     22738     22735     22738     22739     22735     22738     22740
     22735     22738     22746     22739     22738     22740     22739     22738     22746
     22740     22738     22746     22738     22740     22741     22740     22741     22742
     22740     22741     22743     22742     22741     22743     22741     22743     22744
     22741     22743     22745     22741     22743     22755     22744     22743     22745
     22744     22743     22755     22745     22743     22755     22738     22746     22747
     22738     22746     22748     22738     22746     22749     22747     22746     22748
     22747     22746     22749     22748     22746     22749     22746     22749     22750
     22749     22750     22751     22749     22750     22752     22751     22750     22752
     22750     22752     22753     22750     22752     22754     22750     22752     22799
     22753     22752     22754     22753     22752     22799     22754     22752     22799
     22743     22755     22756     22743     22755     22757     22743     22755     22758
     22756     22755     22757     22756     22755     22758     22757     22755     22758
     22755     22758     22759     22755     22758     22760     22755     22758     22761
     22759     22758     22760     22759     22758     22761     22760     22758     22761
     22758     22761     22762     22758     22761     22763     22758     22761     22764
     22762     22761     22763     22762     22761     22764     22763     22761     22764
     22761     22764     22765     22761     22764     22766     22761     22764     22767
     22765     22764     22766     22765     22764     22767     22766     22764     22767
     22764     22767     22768     22764     22767     22769     22764     22767     22770
     22768     22767     22769     22768     22767     22770     22769     22767     22770
     22767     22770     22771     22767     22770     22772     22767     22770     22773
     22771     22770     22772     22771     22770     22773     22772     22770     22773
     22770     22773     22774     22770     22773     22775     22770     22773     22778
     22774     22773     22775     22774     22773     22778     22775     22773     22778
     22773     22775     22776     22773     22775     22777     22773     22775     22778
     22776     22775     22777     22776     22775     22778     22777     22775     22778
     22773     22778     22775     22773     22778     22779     22773     22778     22780
     22775     22778     22779     22775     22778     22780     22779     22778     22780
     22778     22780     22781     22778     22780     22782     22778     22780     22783
     22781     22780     22782     22781     22780     22783     22782     22780     22783
     22780     22783     22784     22780     22783     22785     22780     22783     22786
     22784     22783     22785     22784     22783     22786     22785     22783     22786
     22783     22786     22787     22783     22786     22788     22783     22786     22789
     22787     22786     22788     22787     22786     22789     22788     22786     22789
     22786     22789     22790     22786     22789     22791     22786     22789     22792
     22790     22789     22791     22790     22789     22792     22791     22789     22792
     22789     22792     22793     22789     22792     22794     22789     22792     22795
     22793     22792     22794     22793     22792     22795     22794     22792     22795
     22792     22795     22796     22792     22795     22797     22792     22795     22798
     22796     22795     22797     22796     22795     22798     22797     22795     22798
     22752     22799     22800     22752     22799     22801     22752     22799     22802
     22800     22799     22801     22800     22799     22802     22801     22799     22802
     22799     22802     22803     22799     22802     22804     22799     22802     22805
     22803     22802     22804     22803     22802     22805     22804     22802     22805
     22802     22805     22806     22802     22805     22807     22802     22805     22808
     22806     22805     22807     22806     22805     22808     22807     22805     22808
     22805     22808     22809     22805     22808     22810     22805     22808     22811
     22809     22808     22810     22809     22808     22811     22810     22808     22811
     22808     22811     22812     22808     22811     22813     22808     22811     22814
     22812     22811     22813     22812     22811     22814     22813     22811     22814
     22811     22814     22815     22811     22814     22816     22811     22814     22817
     22815     22814     22816     22815     22814     22817     22816     22814     22817
     22814     22817     22818     22814     22817     22819     22814     22817     22820
     22818     22817     22819     22818     22817     22820     22819     22817     22820
     22817     22820     22821     22817     22820     22822     22817     22820     22823
     22821     22820     22822     22821     22820     22823     22822     22820     22823
     22820     22823     22824     22820     22823     22825     22820     22823     22826
     22824     22823     22825     22824     22823     22826     22825     22823     22826
     22823     22826     22827     22823     22826     22828     22823     22826     22829
     22827     22826     22828     22827     22826     22829     22828     22826     22829
     22826     22829     22830     22826     22829     22831     22826     22829     22832
     22830     22829     22831     22830     22829     22832     22831     22829     22832
     22829     22832     22833     22829     22832     22834     22829     22832     22835
     22833     22832     22834     22833     22832     22835     22834     22832     22835
     22832     22835     22836     22832     22835     22837     22832     22835     22838
     22836     22835     22837     22836     22835     22838     22837     22835     22838
     22840     22839     22841     22840     22839     22842     22840     22839     22844
     22841     22839     22842     22841     22839     22844     22842     22839     22844
     22839     22842     22843     22839     22844     22845     22839     22844     22846
     22839     22844     22848     22845     22844     22846     22845     22844     22848
     22846     22844     22848     22844     22846     22847     22844     22848     22849
     22844     22848     22850     22844     22848     22855     22849     22848     22850
     22849     22848     22855     22850     22848     22855     22852     22851     22853
     22852     22851     22854     22852     22851     22855     22853     22851     22854
     22853     22851     22855     22854     22851     22855     22851     22854     22856
     22848     22855     22851     22854     22856     22857     22854     22856     22858
     22854     22856     22859     22857     22856     22858     22857     22856     22859
     22858     22856     22859     22856     22859     22860     22856     22859     22861
     22856     22859     22867     22860     22859     22861     22860     22859     22867
     22861     22859     22867     22859     22861     22862     22861     22862     22863
     22861     22862     22864     22863     22862     22864     22862     22864     22865
     22862     22864     22866     22862     22864     22876     22865     22864     22866
     22865     22864     22876     22866     22864     22876     22859     22867     22868
     22859     22867     22869     22859     22867     22870     22868     22867     22869
     22868     22867     22870     22869     22867     22870     22867     22870     22871
     22870     22871     22872     22870     22871     22873     22872     22871     22873
     22871     22873     22874     22871     22873     22875     22871     22873     22920
     22874     22873     22875     22874     22873     22920     22875     22873     22920
     22864     22876     22877     22864     22876     22878     22864     22876     22879
     22877     22876     22878     22877     22876     22879     22878     22876     22879
     22876     22879     22880     22876     22879     22881     22876     22879     22882
     22880     22879     22881     22880     22879     22882     22881     22879     22882
     22879     22882     22883     22879     22882     22884     22879     22882     22885
     22883     22882     22884     22883     22882     22885     22884     22882     22885
     22882     22885     22886     22882     22885     22887     22882     22885     22888
     22886     22885     22887     22886     22885     22888     22887     22885     22888
     22885     22888     22889     22885     22888     22890     22885     22888     22891
     22889     22888     22890     22889     22888     22891     22890     22888     22891
     22888     22891     22892     22888     22891     22893     22888     22891     22894
     22892     22891     22893     22892     22891     22894     22893     22891     22894
     22891     22894     22895     22891     22894     22896     22891     22894     22899
     22895     22894     22896     22895     22894     22899     22896     22894     22899
     22894     22896     22897     22894     22896     22898     22894     22896     22899
     22897     22896     22898     22897     22896     22899     22898     22896     22899
     22894     22899     22896     22894     22899     22900     22894     22899     22901
     22896     22899     22900     22896     22899     22901     22900     22899     22901
     22899     22901     22902     22899     22901     22903     22899     22901     22904
     22902     22901     22903     22902     22901     22904     22903     22901     22904
     22901     22904     22905     22901     22904     22906     22901     22904     22907
     22905     22904     22906     22905     22904     22907     22906     22904     22907
     22904     22907     22908     22904     22907     22909     22904     22907     22910
     22908     22907     22909     22908     22907     22910     22909     22907     22910
     22907     22910     22911     22907     22910     22912     22907     22910     22913
     22911     22910     22912     22911     22910     22913     22912     22910     22913
     22910     22913     22914     22910     22913     22915     22910     22913     22916
     22914     22913     22915     22914     22913     22916     22915     22913     22916
     22913     22916     22917     22913     22916     22918     22913     22916     22919
     22917     22916     22918     22917     22916     22919     22918     22916     22919
     22873     22920     22921     22873     22920     22922     22873     22920     22923
     22921     22920     22922     22921     22920     22923     22922     22920     22923
     22920     22923     22924     22920     22923     22925     22920     22923     22926
     22924     22923     22925     22924     22923     22926     22925     22923     22926
     22923     22926     22927     22923     22926     22928     22923     22926     22929
     22927     22926     22928     22927     22926     22929     22928     22926     22929
     22926     22929     22930     22926     22929     22931     22926     22929     22932
     22930     22929     22931     22930     22929     22932     22931     22929     22932
     22929     22932     22933     22929     22932     22934     22929     22932     22935
     22933     22932     22934     22933     22932     22935     22934     22932     22935
     22932     22935     22936     22932     22935     22937     22932     22935     22938
     22936     22935     22937     22936     22935     22938     22937     22935     22938
     22935     22938     22939     22935     22938     22940     22935     22938     22941
     22939     22938     22940     22939     22938     22941     22940     22938     22941
     22938     22941     22942     22938     22941     22943     22938     22941     22944
     22942     22941     22943     22942     22941     22944     22943     22941     22944
     22941     22944     22945     22941     22944     22946     22941     22944     22947
     22945     22944     22946     22945     22944     22947     22946     22944     22947
     22944     22947     22948     22944     22947     22949     22944     22947     22950
     22948     22947     22949     22948     22947     22950     22949     22947     22950
     22947     22950     22951     22947     22950     22952     22947     22950     22953
     22951     22950     22952     22951     22950     22953     22952     22950     22953
     22950     22953     22954     22950     22953     22955     22950     22953     22956
     22954     22953     22955     22954     22953     22956     22955     22953     22956
     22953     22956     22957     22953     22956     22958     22953     22956     22959
     22957     22956     22958     22957     22956     22959     22958     22956     22959
     22956     22959     22960     22956     22959     22961     22956     22959     22962
     22960     22959     22961     22960     22959     22962     22961     22959     22962
     22964     22963     22965     22964     22963     22966     22964     22963     22967
     22965     22963     22966     22965     22963     22967     22966     22963     22967
     22963     22967     22968     22963     22967     22969     22963     22967     22970
     22968     22967     22969     22968     22967     22970     22969     22967     22970
     22967     22970     22971     22967     22970     22972     22967     22970     22977
     22971     22970     22972     22971     22970     22977     22972     22970     22977
     22974     22973     22975     22974     22973     22976     22974     22973     22977
     22975     22973     22976     22975     22973     22977     22976     22973     22977
     22973     22976     22978     22970     22977     22973     22976     22978     22979
     22976     22978     22980     22976     22978     22981     22979     22978     22980
     22979     22978     22981     22980     22978     22981     22978     22981     22982
     22978     22981     22983     22978     22981     22989     22982     22981     22983
     22982     22981     22989     22983     22981     22989     22981     22983     22984
     22983     22984     22985     22983     22984     22986     22985     22984     22986
     22984     22986     22987     22984     22986     22988     22984     22986     22998
     22987     22986     22988     22987     22986     22998     22988     22986     22998
     22981     22989     22990     22981     22989     22991     22981     22989     22992
     22990     22989     22991     22990     22989     22992     22991     22989     22992
     22989     22992     22993     22992     22993     22994     22992     22993     22995
     22994     22993     22995     22993     22995     22996     22993     22995     22997
     22993     22995     23042     22996     22995     22997     22996     22995     23042
     22997     22995     23042     22986     22998     22999     22986     22998     23000
     22986     22998     23001     22999     22998     23000     22999     22998     23001
     23000     22998     23001     22998     23001     23002     22998     23001     23003
     22998     23001     23004     23002     23001     23003     23002     23001     23004
     23003     23001     23004     23001     23004     23005     23001     23004     23006
     23001     23004     23007     23005     23004     23006     23005     23004     23007
     23006     23004     23007     23004     23007     23008     23004     23007     23009
     23004     23007     23010     23008     23007     23009     23008     23007     23010
     23009     23007     23010     23007     23010     23011     23007     23010     23012
     23007     23010     23013     23011     23010     23012     23011     23010     23013
     23012     23010     23013     23010     23013     23014     23010     23013     23015
     23010     23013     23016     23014     23013     23015     23014     23013     23016
     23015     23013     23016     23013     23016     23017     23013     23016     23018
     23013     23016     23021     23017     23016     23018     23017     23016     23021
     23018     23016     23021     23016     23018     23019     23016     23018     23020
     23016     23018     23021     23019     23018     23020     23019     23018     23021
     23020     23018     23021     23016     23021     23018     23016     23021     23022
     23016     23021     23023     23018     23021     23022     23018     23021     23023
     23022     23021     23023     23021     23023     23024     23021     23023     23025
     23021     23023     23026     23024     23023     23025     23024     23023     23026
     23025     23023     23026     23023     23026     23027     23023     23026     23028
     23023     23026     23029     23027     23026     23028     23027     23026     23029
     23028     23026     23029     23026     23029     23030     23026     23029     23031
     23026     23029     23032     23030     23029     23031     23030     23029     23032
     23031     23029     23032     23029     23032     23033     23029     23032     23034
     23029     23032     23035     23033     23032     23034     23033     23032     23035
     23034     23032     23035     23032     23035     23036     23032     23035     23037
     23032     23035     23038     23036     23035     23037     23036     23035     23038
     23037     23035     23038     23035     23038     23039     23035     23038     23040
     23035     23038     23041     23039     23038     23040     23039     23038     23041
     23040     23038     23041     22995     23042     23043     22995     23042     23044
     22995     23042     23045     23043     23042     23044     23043     23042     23045
     23044     23042     23045     23042     23045     23046     23042     23045     23047
     23042     23045     23048     23046     23045     23047     23046     23045     23048
     23047     23045     23048     23045     23048     23049     23045     23048     23050
     23045     23048     23051     23049     23048     23050     23049     23048     23051
     23050     23048     23051     23048     23051     23052     23048     23051     23053
     23048     23051     23054     23052     23051     23053     23052     23051     23054
     23053     23051     23054     23051     23054     23055     23051     23054     23056
     23051     23054     23057     23055     23054     23056     23055     23054     23057
     23056     23054     23057     23054     23057     23058     23054     23057     23059
     23054     23057     23060     23058     23057     23059     23058     23057     23060
     23059     23057     23060     23057     23060     23061     23057     23060     23062
     23057     23060     23063     23061     23060     23062     23061     23060     23063
     23062     23060     23063     23060     23063     23064     23060     23063     23065
     23060     23063     23066     23064     23063     23065     23064     23063     23066
     23065     23063     23066     23063     23066     23067     23063     23066     23068
     23063     23066     23069     23067     23066     23068     23067     23066     23069
     23068     23066     23069     23066     23069     23070     23066     23069     23071
     23066     23069     23072     23070     23069     23071     23070     23069     23072
     23071     23069     23072     23069     23072     23073     23069     23072     23074
     23069     23072     23075     23073     23072     23074     23073     23072     23075
     23074     23072     23075     23072     23075     23076     23072     23075     23077
     23072     23075     23078     23076     23075     23077     23076     23075     23078
     23077     23075     23078     23075     23078     23079     23075     23078     23080
     23075     23078     23081     23079     23078     23080     23079     23078     23081
     23080     23078     23081     23078     23081     23082     23078     23081     23083
     23078     23081     23084     23082     23081     23083     23082     23081     23084
     23083     23081     23084     23086     23085     23087     23086     23085     23088
     23086     23085     23089     23087     23085     23088     23087     23085     23089
     23088     23085     23089     23085     23089     23090     23085     23089     23091
     23085     23089     23092     23090     23089     23091     23090     23089     23092
     23091     23089     23092     23089     23092     23093     23089     23092     23094
     23089     23092     23099     23093     23092     23094     23093     23092     23099
     23094     23092     23099     23096     23095     23097     23096     23095     23098
     23096     23095     23099     23097     23095     23098     23097     23095     23099
     23098     23095     23099     23095     23098     23100     23092     23099     23095
     23098     23100     23101     23098     23100     23102     23098     23100     23103
     23101     23100     23102     23101     23100     23103     23102     23100     23103
     23100     23103     23104     23100     23103     23105     23100     23103     23111
     23104     23103     23105     23104     23103     23111     23105     23103     23111
     23103     23105     23106     23105     23106     23107     23105     23106     23108
     23107     23106     23108     23106     23108     23109     23106     23108     23110
     23106     23108     23120     23109     23108     23110     23109     23108     23120
     23110     23108     23120     23103     23111     23112     23103     23111     23113
     23103     23111     23114     23112     23111     23113     23112     23111     23114
     23113     23111     23114     23111     23114     23115     23114     23115     23116
     23114     23115     23117     23116     23115     23117     23115     23117     23118
     23115     23117     23119     23115     23117     23167     23118     23117     23119
     23118     23117     23167     23119     23117     23167     23108     23120     23121
     23108     23120     23122     23108     23120     23123     23121     23120     23122
     23121     23120     23123     23122     23120     23123     23120     23123     23124
     23120     23123     23125     23120     23123     23126     23124     23123     23125
     23124     23123     23126     23125     23123     23126     23123     23126     23127
     23123     23126     23128     23123     23126     23129     23127     23126     23128
     23127     23126     23129     23128     23126     23129     23126     23129     23130
     23126     23129     23131     23126     23129     23132     23130     23129     23131
     23130     23129     23132     23131     23129     23132     23129     23132     23133
     23129     23132     23134     23129     23132     23135     23133     23132     23134
     23133     23132     23135     23134     23132     23135     23132     23135     23136
     23132     23135     23137     23132     23135     23138     23136     23135     23137
     23136     23135     23138     23137     23135     23138     23135     23138     23139
     23135     23138     23140     23139     23138     23140     23138     23140     23141
     23138     23140     23142     23141     23140     23142     23140     23142     23143
     23140     23142     23144     23140     23142     23145     23143     23142     23144
     23143     23142     23145     23144     23142     23145     23142     23145     23146
     23142     23145     23147     23142     23145     23148     23146     23145     23147
     23146     23145     23148     23147     23145     23148     23145     23148     23149
     23145     23148     23150     23145     23148     23151     23149     23148     23150
     23149     23148     23151     23150     23148     23151     23148     23151     23152
     23148     23151     23153     23148     23151     23154     23152     23151     23153
     23152     23151     23154     23153     23151     23154     23151     23154     23155
     23151     23154     23156     23151     23154     23157     23155     23154     23156
     23155     23154     23157     23156     23154     23157     23154     23157     23158
     23154     23157     23159     23154     23157     23160     23158     23157     23159
     23158     23157     23160     23159     23157     23160     23157     23160     23161
     23157     23160     23162     23157     23160     23163     23161     23160     23162
     23161     23160     23163     23162     23160     23163     23160     23163     23164
     23160     23163     23165     23160     23163     23166     23164     23163     23165
     23164     23163     23166     23165     23163     23166     23117     23167     23168
     23117     23167     23169     23117     23167     23170     23168     23167     23169
     23168     23167     23170     23169     23167     23170     23167     23170     23171
     23167     23170     23172     23167     23170     23173     23171     23170     23172
     23171     23170     23173     23172     23170     23173     23170     23173     23174
     23170     23173     23175     23170     23173     23176     23174     23173     23175
     23174     23173     23176     23175     23173     23176     23173     23176     23177
     23173     23176     23178     23173     23176     23179     23177     23176     23178
     23177     23176     23179     23178     23176     23179     23176     23179     23180
     23176     23179     23181     23176     23179     23182     23180     23179     23181
     23180     23179     23182     23181     23179     23182     23179     23182     23183
     23179     23182     23184     23179     23182     23185     23183     23182     23184
     23183     23182     23185     23184     23182     23185     23182     23185     23186
     23182     23185     23187     23182     23185     23188     23186     23185     23187
     23186     23185     23188     23187     23185     23188     23185     23188     23189
     23185     23188     23190     23185     23188     23191     23189     23188     23190
     23189     23188     23191     23190     23188     23191     23188     23191     23192
     23188     23191     23193     23188     23191     23194     23192     23191     23193
     23192     23191     23194     23193     23191     23194     23191     23194     23195
     23191     23194     23196     23191     23194     23197     23195     23194     23196
     23195     23194     23197     23196     23194     23197     23194     23197     23198
     23194     23197     23199     23194     23197     23200     23198     23197     23199
     23198     23197     23200     23199     23197     23200     23197     23200     23201
     23197     23200     23202     23197     23200     23203     23201     23200     23202
     23201     23200     23203     23202     23200     23203     23200     23203     23204
     23200     23203     23205     23200     23203     23206     23204     23203     23205
     23204     23203     23206     23205     23203     23206     23203     23206     23207
     23203     23206     23208     23203     23206     23209     23207     23206     23208
     23207     23206     23209     23208     23206     23209     23211     23210     23212
     23211     23210     23213     23211     23210     23214     23212     23210     23213
     23212     23210     23214     23213     23210     23214     23210     23214     23215
     23210     23214     23216     23210     23214     23217     23215     23214     23216
     23215     23214     23217     23216     23214     23217     23214     23217     23218
     23214     23217     23219     23214     23217     23224     23218     23217     23219
     23218     23217     23224     23219     23217     23224     23221     23220     23222
     23221     23220     23223     23221     23220     23224     23222     23220     23223
     23222     23220     23224     23223     23220     23224     23220     23223     23225
     23217     23224     23220     23223     23225     23226     23223     23225     23227
     23223     23225     23228     23226     23225     23227     23226     23225     23228
     23227     23225     23228     23225     23228     23229     23225     23228     23230
     23225     23228     23236     23229     23228     23230     23229     23228     23236
     23230     23228     23236     23228     23230     23231     23230     23231     23232
     23230     23231     23233     23232     23231     23233     23231     23233     23234
     23231     23233     23235     23231     23233     23245     23234     23233     23235
     23234     23233     23245     23235     23233     23245     23228     23236     23237
     23228     23236     23238     23228     23236     23239     23237     23236     23238
     23237     23236     23239     23238     23236     23239     23236     23239     23240
     23239     23240     23241     23239     23240     23242     23241     23240     23242
     23240     23242     23243     23240     23242     23244     23240     23242     23289
     23243     23242     23244     23243     23242     23289     23244     23242     23289
     23233     23245     23246     23233     23245     23247     23233     23245     23248
     23246     23245     23247     23246     23245     23248     23247     23245     23248
     23245     23248     23249     23245     23248     23250     23245     23248     23251
     23249     23248     23250     23249     23248     23251     23250     23248     23251
     23248     23251     23252     23248     23251     23253     23248     23251     23254
     23252     23251     23253     23252     23251     23254     23253     23251     23254
     23251     23254     23255     23251     23254     23256     23251     23254     23257
     23255     23254     23256     23255     23254     23257     23256     23254     23257
     23254     23257     23258     23254     23257     23259     23254     23257     23260
     23258     23257     23259     23258     23257     23260     23259     23257     23260
     23257     23260     23261     23257     23260     23262     23257     23260     23263
     23261     23260     23262     23261     23260     23263     23262     23260     23263
     23260     23263     23264     23260     23263     23265     23260     23263     23268
     23264     23263     23265     23264     23263     23268     23265     23263     23268
     23263     23265     23266     23263     23265     23267     23263     23265     23268
     23266     23265     23267     23266     23265     23268     23267     23265     23268
     23263     23268     23265     23263     23268     23269     23263     23268     23270
     23265     23268     23269     23265     23268     23270     23269     23268     23270
     23268     23270     23271     23268     23270     23272     23268     23270     23273
     23271     23270     23272     23271     23270     23273     23272     23270     23273
     23270     23273     23274     23270     23273     23275     23270     23273     23276
     23274     23273     23275     23274     23273     23276     23275     23273     23276
     23273     23276     23277     23273     23276     23278     23273     23276     23279
     23277     23276     23278     23277     23276     23279     23278     23276     23279
     23276     23279     23280     23276     23279     23281     23276     23279     23282
     23280     23279     23281     23280     23279     23282     23281     23279     23282
     23279     23282     23283     23279     23282     23284     23279     23282     23285
     23283     23282     23284     23283     23282     23285     23284     23282     23285
     23282     23285     23286     23282     23285     23287     23282     23285     23288
     23286     23285     23287     23286     23285     23288     23287     23285     23288
     23242     23289     23290     23242     23289     23291     23242     23289     23292
     23290     23289     23291     23290     23289     23292     23291     23289     23292
     23289     23292     23293     23289     23292     23294     23289     23292     23295
     23293     23292     23294     23293     23292     23295     23294     23292     23295
     23292     23295     23296     23292     23295     23297     23292     23295     23298
     23296     23295     23297     23296     23295     23298     23297     23295     23298
     23295     23298     23299     23295     23298     23300     23295     23298     23301
     23299     23298     23300     23299     23298     23301     23300     23298     23301
     23298     23301     23302     23298     23301     23303     23298     23301     23304
     23302     23301     23303     23302     23301     23304     23303     23301     23304
     23301     23304     23305     23301     23304     23306     23301     23304     23307
     23305     23304     23306     23305     23304     23307     23306     23304     23307
     23304     23307     23308     23304     23307     23309     23304     23307     23310
     23308     23307     23309     23308     23307     23310     23309     23307     23310
     23307     23310     23311     23307     23310     23312     23307     23310     23313
     23311     23310     23312     23311     23310     23313     23312     23310     23313
     23310     23313     23314     23310     23313     23315     23310     23313     23316
     23314     23313     23315     23314     23313     23316     23315     23313     23316
     23313     23316     23317     23313     23316     23318     23313     23316     23319
     23317     23316     23318     23317     23316     23319     23318     23316     23319
     23316     23319     23320     23316     23319     23321     23316     23319     23322
     23320     23319     23321     23320     23319     23322     23321     23319     23322
     23319     23322     23323     23319     23322     23324     23319     23322     23325
     23323     23322     23324     23323     23322     23325     23324     23322     23325
     23322     23325     23326     23322     23325     23327     23322     23325     23328
     23326     23325     23327     23326     23325     23328     23327     23325     23328
     23325     23328     23329     23325     23328     23330     23325     23328     23331
     23329     23328     23330     23329     23328     23331     23330     23328     23331
     23333     23332     23334     23333     23332     23335     23333     23332     23336
     23334     23332     23335     23334     23332     23336     23335     23332     23336
     23332     23336     23337     23332     23336     23338     23332     23336     23339
     23337     23336     23338     23337     23336     23339     23338     23336     23339
     23336     23339     23340     23336     23339     23341     23336     23339     23346
     23340     23339     23341     23340     23339     23346     23341     23339     23346
     23343     23342     23344     23343     23342     23345     23343     23342     23346
     23344     23342     23345     23344     23342     23346     23345     23342     23346
     23342     23345     23347     23339     23346     23342     23345     23347     23348
     23345     23347     23349     23345     23347     23350     23348     23347     23349
     23348     23347     23350     23349     23347     23350     23347     23350     23351
     23347     23350     23352     23347     23350     23358     23351     23350     23352
     23351     23350     23358     23352     23350     23358     23350     23352     23353
     23352     23353     23354     23352     23353     23355     23354     23353     23355
     23353     23355     23356     23353     23355     23357     23353     23355     23367
     23356     23355     23357     23356     23355     23367     23357     23355     23367
     23350     23358     23359     23350     23358     23360     23350     23358     23361
     23359     23358     23360     23359     23358     23361     23360     23358     23361
     23358     23361     23362     23361     23362     23363     23361     23362     23364
     23363     23362     23364     23362     23364     23365     23362     23364     23366
     23362     23364     23411     23365     23364     23366     23365     23364     23411
     23366     23364     23411     23355     23367     23368     23355     23367     23369
     23355     23367     23370     23368     23367     23369     23368     23367     23370
     23369     23367     23370     23367     23370     23371     23367     23370     23372
     23367     23370     23373     23371     23370     23372     23371     23370     23373
     23372     23370     23373     23370     23373     23374     23370     23373     23375
     23370     23373     23376     23374     23373     23375     23374     23373     23376
     23375     23373     23376     23373     23376     23377     23373     23376     23378
     23373     23376     23379     23377     23376     23378     23377     23376     23379
     23378     23376     23379     23376     23379     23380     23376     23379     23381
     23376     23379     23382     23380     23379     23381     23380     23379     23382
     23381     23379     23382     23379     23382     23383     23379     23382     23384
     23379     23382     23385     23383     23382     23384     23383     23382     23385
     23384     23382     23385     23382     23385     23386     23382     23385     23387
     23382     23385     23390     23386     23385     23387     23386     23385     23390
     23387     23385     23390     23385     23387     23388     23385     23387     23389
     23385     23387     23390     23388     23387     23389     23388     23387     23390
     23389     23387     23390     23385     23390     23387     23385     23390     23391
     23385     23390     23392     23387     23390     23391     23387     23390     23392
     23391     23390     23392     23390     23392     23393     23390     23392     23394
     23390     23392     23395     23393     23392     23394     23393     23392     23395
     23394     23392     23395     23392     23395     23396     23392     23395     23397
     23392     23395     23398     23396     23395     23397     23396     23395     23398
     23397     23395     23398     23395     23398     23399     23395     23398     23400
     23395     23398     23401     23399     23398     23400     23399     23398     23401
     23400     23398     23401     23398     23401     23402     23398     23401     23403
     23398     23401     23404     23402     23401     23403     23402     23401     23404
     23403     23401     23404     23401     23404     23405     23401     23404     23406
     23401     23404     23407     23405     23404     23406     23405     23404     23407
     23406     23404     23407     23404     23407     23408     23404     23407     23409
     23404     23407     23410     23408     23407     23409     23408     23407     23410
     23409     23407     23410     23364     23411     23412     23364     23411     23413
     23364     23411     23414     23412     23411     23413     23412     23411     23414
     23413     23411     23414     23411     23414     23415     23411     23414     23416
     23411     23414     23417     23415     23414     23416     23415     23414     23417
     23416     23414     23417     23414     23417     23418     23414     23417     23419
     23414     23417     23420     23418     23417     23419     23418     23417     23420
     23419     23417     23420     23417     23420     23421     23417     23420     23422
     23417     23420     23423     23421     23420     23422     23421     23420     23423
     23422     23420     23423     23420     23423     23424     23420     23423     23425
     23420     23423     23426     23424     23423     23425     23424     23423     23426
     23425     23423     23426     23423     23426     23427     23423     23426     23428
     23423     23426     23429     23427     23426     23428     23427     23426     23429
     23428     23426     23429     23426     23429     23430     23426     23429     23431
     23426     23429     23432     23430     23429     23431     23430     23429     23432
     23431     23429     23432     23429     23432     23433     23429     23432     23434
     23429     23432     23435     23433     23432     23434     23433     23432     23435
     23434     23432     23435     23432     23435     23436     23432     23435     23437
     23432     23435     23438     23436     23435     23437     23436     23435     23438
     23437     23435     23438     23435     23438     23439     23435     23438     23440
     23435     23438     23441     23439     23438     23440     23439     23438     23441
     23440     23438     23441     23438     23441     23442     23438     23441     23443
     23438     23441     23444     23442     23441     23443     23442     23441     23444
     23443     23441     23444     23441     23444     23445     23441     23444     23446
     23441     23444     23447     23445     23444     23446     23445     23444     23447
     23446     23444     23447     23444     23447     23448     23444     23447     23449
     23444     23447     23450     23448     23447     23449     23448     23447     23450
     23449     23447     23450     23447     23450     23451     23447     23450     23452
     23447     23450     23453     23451     23450     23452     23451     23450     23453
     23452     23450     23453     23455     23454     23456     23455     23454     23457
     23455     23454     23458     23456     23454     23457     23456     23454     23458
     23457     23454     23458     23454     23458     23459     23454     23458     23460
     23454     23458     23461     23459     23458     23460     23459     23458     23461
     23460     23458     23461     23458     23461     23462     23458     23461     23463
     23458     23461     23468     23462     23461     23463     23462     23461     23468
     23463     23461     23468     23465     23464     23466     23465     23464     23467
     23465     23464     23468     23466     23464     23467     23466     23464     23468
     23467     23464     23468     23464     23467     23469     23461     23468     23464
     23467     23469     23470     23467     23469     23471     23467     23469     23472
     23470     23469     23471     23470     23469     23472     23471     23469     23472
     23469     23472     23473     23469     23472     23474     23469     23472     23480
     23473     23472     23474     23473     23472     23480     23474     23472     23480
     23472     23474     23475     23474     23475     23476     23474     23475     23477
     23476     23475     23477     23475     23477     23478     23475     23477     23479
     23475     23477     23489     23478     23477     23479     23478     23477     23489
     23479     23477     23489     23472     23480     23481     23472     23480     23482
     23472     23480     23483     23481     23480     23482     23481     23480     23483
     23482     23480     23483     23480     23483     23484     23483     23484     23485
     23483     23484     23486     23485     23484     23486     23484     23486     23487
     23484     23486     23488     23484     23486     23533     23487     23486     23488
     23487     23486     23533     23488     23486     23533     23477     23489     23490
     23477     23489     23491     23477     23489     23492     23490     23489     23491
     23490     23489     23492     23491     23489     23492     23489     23492     23493
     23489     23492     23494     23489     23492     23495     23493     23492     23494
     23493     23492     23495     23494     23492     23495     23492     23495     23496
     23492     23495     23497     23492     23495     23498     23496     23495     23497
     23496     23495     23498     23497     23495     23498     23495     23498     23499
     23495     23498     23500     23495     23498     23501     23499     23498     23500
     23499     23498     23501     23500     23498     23501     23498     23501     23502
     23498     23501     23503     23498     23501     23504     23502     23501     23503
     23502     23501     23504     23503     23501     23504     23501     23504     23505
     23501     23504     23506     23501     23504     23507     23505     23504     23506
     23505     23504     23507     23506     23504     23507     23504     23507     23508
     23504     23507     23509     23504     23507     23512     23508     23507     23509
     23508     23507     23512     23509     23507     23512     23507     23509     23510
     23507     23509     23511     23507     23509     23512     23510     23509     23511
     23510     23509     23512     23511     23509     23512     23507     23512     23509
     23507     23512     23513     23507     23512     23514     23509     23512     23513
     23509     23512     23514     23513     23512     23514     23512     23514     23515
     23512     23514     23516     23512     23514     23517     23515     23514     23516
     23515     23514     23517     23516     23514     23517     23514     23517     23518
     23514     23517     23519     23514     23517     23520     23518     23517     23519
     23518     23517     23520     23519     23517     23520     23517     23520     23521
     23517     23520     23522     23517     23520     23523     23521     23520     23522
     23521     23520     23523     23522     23520     23523     23520     23523     23524
     23520     23523     23525     23520     23523     23526     23524     23523     23525
     23524     23523     23526     23525     23523     23526     23523     23526     23527
     23523     23526     23528     23523     23526     23529     23527     23526     23528
     23527     23526     23529     23528     23526     23529     23526     23529     23530
     23526     23529     23531     23526     23529     23532     23530     23529     23531
     23530     23529     23532     23531     23529     23532     23486     23533     23534
     23486     23533     23535     23486     23533     23536     23534     23533     23535
     23534     23533     23536     23535     23533     23536     23533     23536     23537
     23533     23536     23538     23533     23536     23539     23537     23536     23538
     23537     23536     23539     23538     23536     23539     23536     23539     23540
     23536     23539     23541     23536     23539     23542     23540     23539     23541
     23540     23539     23542     23541     23539     23542     23539     23542     23543
     23539     23542     23544     23539     23542     23545     23543     23542     23544
     23543     23542     23545     23544     23542     23545     23542     23545     23546
     23542     23545     23547     23542     23545     23548     23546     23545     23547
     23546     23545     23548     23547     23545     23548     23545     23548     23549
     23545     23548     23550     23545     23548     23551     23549     23548     23550
     23549     23548     23551     23550     23548     23551     23548     23551     23552
     23548     23551     23553     23548     23551     23554     23552     23551     23553
     23552     23551     23554     23553     23551     23554     23551     23554     23555
     23551     23554     23556     23551     23554     23557     23555     23554     23556
     23555     23554     23557     23556     23554     23557     23554     23557     23558
     23554     23557     23559     23554     23557     23560     23558     23557     23559
     23558     23557     23560     23559     23557     23560     23557     23560     23561
     23557     23560     23562     23557     23560     23563     23561     23560     23562
     23561     23560     23563     23562     23560     23563     23560     23563     23564
     23560     23563     23565     23560     23563     23566     23564     23563     23565
     23564     23563     23566     23565     23563     23566     23563     23566     23567
     23563     23566     23568     23563     23566     23569     23567     23566     23568
     23567     23566     23569     23568     23566     23569     23566     23569     23570
     23566     23569     23571     23566     23569     23572     23570     23569     23571
     23570     23569     23572     23571     23569     23572     23569     23572     23573
     23569     23572     23574     23569     23572     23575     23573     23572     23574
     23573     23572     23575     23574     23572     23575     23577     23576     23578
     23577     23576     23579     23577     23576     23580     23578     23576     23579
     23578     23576     23580     23579     23576     23580     23576     23580     23581
     23576     23580     23582     23576     23580     23583     23581     23580     23582
     23581     23580     23583     23582     23580     23583     23580     23583     23584
     23580     23583     23585     23580     23583     23590     23584     23583     23585
     23584     23583     23590     23585     23583     23590     23587     23586     23588
     23587     23586     23589     23587     23586     23590     23588     23586     23589
     23588     23586     23590     23589     23586     23590     23586     23589     23591
     23583     23590     23586     23589     23591     23592     23589     23591     23593
     23589     23591     23594     23592     23591     23593     23592     23591     23594
     23593     23591     23594     23591     23594     23595     23591     23594     23596
     23591     23594     23602     23595     23594     23596     23595     23594     23602
     23596     23594     23602     23594     23596     23597     23596     23597     23598
     23596     23597     23599     23598     23597     23599     23597     23599     23600
     23597     23599     23601     23597     23599     23611     23600     23599     23601
     23600     23599     23611     23601     23599     23611     23594     23602     23603
     23594     23602     23604     23594     23602     23605     23603     23602     23604
     23603     23602     23605     23604     23602     23605     23602     23605     23606
     23605     23606     23607     23605     23606     23608     23607     23606     23608
     23606     23608     23609     23606     23608     23610     23606     23608     23658
     23609     23608     23610     23609     23608     23658     23610     23608     23658
     23599     23611     23612     23599     23611     23613     23599     23611     23614
     23612     23611     23613     23612     23611     23614     23613     23611     23614
     23611     23614     23615     23611     23614     23616     23611     23614     23617
     23615     23614     23616     23615     23614     23617     23616     23614     23617
     23614     23617     23618     23614     23617     23619     23614     23617     23620
     23618     23617     23619     23618     23617     23620     23619     23617     23620
     23617     23620     23621     23617     23620     23622     23617     23620     23623
     23621     23620     23622     23621     23620     23623     23622     23620     23623
     23620     23623     23624     23620     23623     23625     23620     23623     23626
     23624     23623     23625     23624     23623     23626     23625     23623     23626
     23623     23626     23627     23623     23626     23628     23623     23626     23629
     23627     23626     23628     23627     23626     23629     23628     23626     23629
     23626     23629     23630     23626     23629     23631     23630     23629     23631
     23629     23631     23632     23629     23631     23633     23632     23631     23633
     23631     23633     23634     23631     23633     23635     23631     23633     23636
     23634     23633     23635     23634     23633     23636     23635     23633     23636
     23633     23636     23637     23633     23636     23638     23633     23636     23639
     23637     23636     23638     23637     23636     23639     23638     23636     23639
     23636     23639     23640     23636     23639     23641     23636     23639     23642
     23640     23639     23641     23640     23639     23642     23641     23639     23642
     23639     23642     23643     23639     23642     23644     23639     23642     23645
     23643     23642     23644     23643     23642     23645     23644     23642     23645
     23642     23645     23646     23642     23645     23647     23642     23645     23648
     23646     23645     23647     23646     23645     23648     23647     23645     23648
     23645     23648     23649     23645     23648     23650     23645     23648     23651
     23649     23648     23650     23649     23648     23651     23650     23648     23651
     23648     23651     23652     23648     23651     23653     23648     23651     23654
     23652     23651     23653     23652     23651     23654     23653     23651     23654
     23651     23654     23655     23651     23654     23656     23651     23654     23657
     23655     23654     23656     23655     23654     23657     23656     23654     23657
     23608     23658     23659     23608     23658     23660     23608     23658     23661
     23659     23658     23660     23659     23658     23661     23660     23658     23661
     23658     23661     23662     23658     23661     23663     23658     23661     23664
     23662     23661     23663     23662     23661     23664     23663     23661     23664
     23661     23664     23665     23661     23664     23666     23661     23664     23667
     23665     23664     23666     23665     23664     23667     23666     23664     23667
     23664     23667     23668     23664     23667     23669     23664     23667     23670
     23668     23667     23669     23668     23667     23670     23669     23667     23670
     23667     23670     23671     23667     23670     23672     23667     23670     23673
     23671     23670     23672     23671     23670     23673     23672     23670     23673
     23670     23673     23674     23670     23673     23675     23670     23673     23676
     23674     23673     23675     23674     23673     23676     23675     23673     23676
     23673     23676     23677     23673     23676     23678     23673     23676     23679
     23677     23676     23678     23677     23676     23679     23678     23676     23679
     23676     23679     23680     23676     23679     23681     23676     23679     23682
     23680     23679     23681     23680     23679     23682     23681     23679     23682
     23679     23682     23683     23679     23682     23684     23679     23682     23685
     23683     23682     23684     23683     23682     23685     23684     23682     23685
     23682     23685     23686     23682     23685     23687     23682     23685     23688
     23686     23685     23687     23686     23685     23688     23687     23685     23688
     23685     23688     23689     23685     23688     23690     23685     23688     23691
     23689     23688     23690     23689     23688     23691     23690     23688     23691
     23688     23691     23692     23688     23691     23693     23688     23691     23694
     23692     23691     23693     23692     23691     23694     23693     23691     23694
     23691     23694     23695     23691     23694     23696     23691     23694     23697
     23695     23694     23696     23695     23694     23697     23696     23694     23697
     23694     23697     23698     23694     23697     23699     23694     23697     23700
     23698     23697     23699     23698     23697     23700     23699     23697     23700
     23702     23701     23703     23702     23701     23704     23702     23701     23706
     23703     23701     23704     23703     23701     23706     23704     23701     23706
     23701     23704     23705     23701     23706     23707     23701     23706     23708
     23701     23706     23710     23707     23706     23708     23707     23706     23710
     23708     23706     23710     23706     23708     23709     23706     23710     23711
     23706     23710     23712     23706     23710     23717     23711     23710     23712
     23711     23710     23717     23712     23710     23717     23714     23713     23715
     23714     23713     23716     23714     23713     23717     23715     23713     23716
     23715     23713     23717     23716     23713     23717     23713     23716     23718
     23710     23717     23713     23716     23718     23719     23716     23718     23720
     23716     23718     23721     23719     23718     23720     23719     23718     23721
     23720     23718     23721     23718     23721     23722     23718     23721     23723
     23718     23721     23729     23722     23721     23723     23722     23721     23729
     23723     23721     23729     23721     23723     23724     23723     23724     23725
     23723     23724     23726     23725     23724     23726     23724     23726     23727
     23724     23726     23728     23724     23726     23738     23727     23726     23728
     23727     23726     23738     23728     23726     23738     23721     23729     23730
     23721     23729     23731     23721     23729     23732     23730     23729     23731
     23730     23729     23732     23731     23729     23732     23729     23732     23733
     23732     23733     23734     23732     23733     23735     23734     23733     23735
     23733     23735     23736     23733     23735     23737     23733     23735     23779
     23736     23735     23737     23736     23735     23779     23737     23735     23779
     23726     23738     23739     23726     23738     23740     23726     23738     23741
     23739     23738     23740     23739     23738     23741     23740     23738     23741
     23738     23741     23742     23738     23741     23743     23738     23741     23744
     23742     23741     23743     23742     23741     23744     23743     23741     23744
     23741     23744     23745     23741     23744     23746     23741     23744     23747
     23745     23744     23746     23745     23744     23747     23746     23744     23747
     23744     23747     23748     23744     23747     23749     23744     23747     23750
     23748     23747     23749     23748     23747     23750     23749     23747     23750
     23747     23750     23751     23747     23750     23752     23747     23750     23753
     23751     23750     23752     23751     23750     23753     23752     23750     23753
     23750     23753     23754     23750     23753     23755     23750     23753     23756
     23754     23753     23755     23754     23753     23756     23755     23753     23756
     23753     23756     23757     23753     23756     23758     23757     23756     23758
     23756     23758     23759     23756     23758     23760     23759     23758     23760
     23758     23760     23761     23758     23760     23762     23758     23760     23763
     23761     23760     23762     23761     23760     23763     23762     23760     23763
     23760     23763     23764     23760     23763     23765     23760     23763     23766
     23764     23763     23765     23764     23763     23766     23765     23763     23766
     23763     23766     23767     23763     23766     23768     23763     23766     23769
     23767     23766     23768     23767     23766     23769     23768     23766     23769
     23766     23769     23770     23766     23769     23771     23766     23769     23772
     23770     23769     23771     23770     23769     23772     23771     23769     23772
     23769     23772     23773     23769     23772     23774     23769     23772     23775
     23773     23772     23774     23773     23772     23775     23774     23772     23775
     23772     23775     23776     23772     23775     23777     23772     23775     23778
     23776     23775     23777     23776     23775     23778     23777     23775     23778
     23735     23779     23780     23735     23779     23781     23735     23779     23782
     23780     23779     23781     23780     23779     23782     23781     23779     23782
     23779     23782     23783     23779     23782     23784     23779     23782     23785
     23783     23782     23784     23783     23782     23785     23784     23782     23785
     23782     23785     23786     23782     23785     23787     23782     23785     23788
     23786     23785     23787     23786     23785     23788     23787     23785     23788
     23785     23788     23789     23785     23788     23790     23785     23788     23791
     23789     23788     23790     23789     23788     23791     23790     23788     23791
     23788     23791     23792     23788     23791     23793     23788     23791     23794
     23792     23791     23793     23792     23791     23794     23793     23791     23794
     23791     23794     23795     23791     23794     23796     23791     23794     23797
     23795     23794     23796     23795     23794     23797     23796     23794     23797
     23794     23797     23798     23794     23797     23799     23794     23797     23800
     23798     23797     23799     23798     23797     23800     23799     23797     23800
     23797     23800     23801     23797     23800     23802     23797     23800     23803
     23801     23800     23802     23801     23800     23803     23802     23800     23803
     23800     23803     23804     23800     23803     23805     23800     23803     23806
     23804     23803     23805     23804     23803     23806     23805     23803     23806
     23803     23806     23807     23803     23806     23808     23803     23806     23809
     23807     23806     23808     23807     23806     23809     23808     23806     23809
     23806     23809     23810     23806     23809     23811     23806     23809     23812
     23810     23809     23811     23810     23809     23812     23811     23809     23812
     23809     23812     23813     23809     23812     23814     23809     23812     23815
     23813     23812     23814     23813     23812     23815     23814     23812     23815
     23812     23815     23816     23812     23815     23817     23812     23815     23818
     23816     23815     23817     23816     23815     23818     23817     23815     23818
     23815     23818     23819     23815     23818     23820     23815     23818     23821
     23819     23818     23820     23819     23818     23821     23820     23818     23821
     23823     23822     23824     23823     23822     23825     23823     23822     23826
     23824     23822     23825     23824     23822     23826     23825     23822     23826
     23822     23826     23827     23822     23826     23828     23822     23826     23829
     23827     23826     23828     23827     23826     23829     23828     23826     23829
     23826     23829     23830     23826     23829     23831     23826     23829     23836
     23830     23829     23831     23830     23829     23836     23831     23829     23836
     23833     23832     23834     23833     23832     23835     23833     23832     23836
     23834     23832     23835     23834     23832     23836     23835     23832     23836
     23832     23835     23837     23829     23836     23832     23835     23837     23838
     23835     23837     23839     23835     23837     23840     23838     23837     23839
     23838     23837     23840     23839     23837     23840     23837     23840     23841
     23837     23840     23842     23837     23840     23848     23841     23840     23842
     23841     23840     23848     23842     23840     23848     23840     23842     23843
     23842     23843     23844     23842     23843     23845     23844     23843     23845
     23843     23845     23846     23843     23845     23847     23843     23845     23857
     23846     23845     23847     23846     23845     23857     23847     23845     23857
     23840     23848     23849     23840     23848     23850     23840     23848     23851
     23849     23848     23850     23849     23848     23851     23850     23848     23851
     23848     23851     23852     23851     23852     23853     23851     23852     23854
     23853     23852     23854     23852     23854     23855     23852     23854     23856
     23852     23854     23901     23855     23854     23856     23855     23854     23901
     23856     23854     23901     23845     23857     23858     23845     23857     23859
     23845     23857     23860     23858     23857     23859     23858     23857     23860
     23859     23857     23860     23857     23860     23861     23857     23860     23862
     23857     23860     23863     23861     23860     23862     23861     23860     23863
     23862     23860     23863     23860     23863     23864     23860     23863     23865
     23860     23863     23866     23864     23863     23865     23864     23863     23866
     23865     23863     23866     23863     23866     23867     23863     23866     23868
     23863     23866     23869     23867     23866     23868     23867     23866     23869
     23868     23866     23869     23866     23869     23870     23866     23869     23871
     23866     23869     23872     23870     23869     23871     23870     23869     23872
     23871     23869     23872     23869     23872     23873     23869     23872     23874
     23869     23872     23875     23873     23872     23874     23873     23872     23875
     23874     23872     23875     23872     23875     23876     23872     23875     23877
     23872     23875     23880     23876     23875     23877     23876     23875     23880
     23877     23875     23880     23875     23877     23878     23875     23877     23879
     23875     23877     23880     23878     23877     23879     23878     23877     23880
     23879     23877     23880     23875     23880     23877     23875     23880     23881
     23875     23880     23882     23877     23880     23881     23877     23880     23882
     23881     23880     23882     23880     23882     23883     23880     23882     23884
     23880     23882     23885     23883     23882     23884     23883     23882     23885
     23884     23882     23885     23882     23885     23886     23882     23885     23887
     23882     23885     23888     23886     23885     23887     23886     23885     23888
     23887     23885     23888     23885     23888     23889     23885     23888     23890
     23885     23888     23891     23889     23888     23890     23889     23888     23891
     23890     23888     23891     23888     23891     23892     23888     23891     23893
     23888     23891     23894     23892     23891     23893     23892     23891     23894
     23893     23891     23894     23891     23894     23895     23891     23894     23896
     23891     23894     23897     23895     23894     23896     23895     23894     23897
     23896     23894     23897     23894     23897     23898     23894     23897     23899
     23894     23897     23900     23898     23897     23899     23898     23897     23900
     23899     23897     23900     23854     23901     23902     23854     23901     23903
     23854     23901     23904     23902     23901     23903     23902     23901     23904
     23903     23901     23904     23901     23904     23905     23901     23904     23906
     23901     23904     23907     23905     23904     23906     23905     23904     23907
     23906     23904     23907     23904     23907     23908     23904     23907     23909
     23904     23907     23910     23908     23907     23909     23908     23907     23910
     23909     23907     23910     23907     23910     23911     23907     23910     23912
     23907     23910     23913     23911     23910     23912     23911     23910     23913
     23912     23910     23913     23910     23913     23914     23910     23913     23915
     23910     23913     23916     23914     23913     23915     23914     23913     23916
     23915     23913     23916     23913     23916     23917     23913     23916     23918
     23913     23916     23919     23917     23916     23918     23917     23916     23919
     23918     23916     23919     23916     23919     23920     23916     23919     23921
     23916     23919     23922     23920     23919     23921     23920     23919     23922
     23921     23919     23922     23919     23922     23923     23919     23922     23924
     23919     23922     23925     23923     23922     23924     23923     23922     23925
     23924     23922     23925     23922     23925     23926     23922     23925     23927
     23922     23925     23928     23926     23925     23927     23926     23925     23928
     23927     23925     23928     23925     23928     23929     23925     23928     23930
     23925     23928     23931     23929     23928     23930     23929     23928     23931
     23930     23928     23931     23928     23931     23932     23928     23931     23933
     23928     23931     23934     23932     23931     23933     23932     23931     23934
     23933     23931     23934     23931     23934     23935     23931     23934     23936
     23931     23934     23937     23935     23934     23936     23935     23934     23937
     23936     23934     23937     23934     23937     23938     23934     23937     23939
     23934     23937     23940     23938     23937     23939     23938     23937     23940
     23939     23937     23940     23942     23941     23943     23942     23941     23944
     23942     23941     23945     23943     23941     23944     23943     23941     23945
     23944     23941     23945     23941     23945     23946     23941     23945     23947
     23941     23945     23948     23946     23945     23947     23946     23945     23948
     23947     23945     23948     23945     23948     23949     23945     23948     23950
     23945     23948     23955     23949     23948     23950     23949     23948     23955
     23950     23948     23955     23952     23951     23953     23952     23951     23954
     23952     23951     23955     23953     23951     23954     23953     23951     23955
     23954     23951     23955     23951     23954     23956     23948     23955     23951
     23954     23956     23957     23954     23956     23958     23954     23956     23959
     23957     23956     23958     23957     23956     23959     23958     23956     23959
     23956     23959     23960     23956     23959     23961     23956     23959     23967
     23960     23959     23961     23960     23959     23967     23961     23959     23967
     23959     23961     23962     23961     23962     23963     23961     23962     23964
     23963     23962     23964     23962     23964     23965     23962     23964     23966
     23962     23964     23976     23965     23964     23966     23965     23964     23976
     23966     23964     23976     23959     23967     23968     23959     23967     23969
     23959     23967     23970     23968     23967     23969     23968     23967     23970
     23969     23967     23970     23967     23970     23971     23970     23971     23972
     23970     23971     23973     23972     23971     23973     23971     23973     23974
     23971     23973     23975     23971     23973     24020     23974     23973     23975
     23974     23973     24020     23975     23973     24020     23964     23976     23977
     23964     23976     23978     23964     23976     23979     23977     23976     23978
     23977     23976     23979     23978     23976     23979     23976     23979     23980
     23976     23979     23981     23976     23979     23982     23980     23979     23981
     23980     23979     23982     23981     23979     23982     23979     23982     23983
     23979     23982     23984     23979     23982     23985     23983     23982     23984
     23983     23982     23985     23984     23982     23985     23982     23985     23986
     23982     23985     23987     23982     23985     23988     23986     23985     23987
     23986     23985     23988     23987     23985     23988     23985     23988     23989
     23985     23988     23990     23985     23988     23991     23989     23988     23990
     23989     23988     23991     23990     23988     23991     23988     23991     23992
     23988     23991     23993     23988     23991     23994     23992     23991     23993
     23992     23991     23994     23993     23991     23994     23991     23994     23995
     23991     23994     23996     23991     23994     23999     23995     23994     23996
     23995     23994     23999     23996     23994     23999     23994     23996     23997
     23994     23996     23998     23994     23996     23999     23997     23996     23998
     23997     23996     23999     23998     23996     23999     23994     23999     23996
     23994     23999     24000     23994     23999     24001     23996     23999     24000
     23996     23999     24001     24000     23999     24001     23999     24001     24002
     23999     24001     24003     23999     24001     24004     24002     24001     24003
     24002     24001     24004     24003     24001     24004     24001     24004     24005
     24001     24004     24006     24001     24004     24007     24005     24004     24006
     24005     24004     24007     24006     24004     24007     24004     24007     24008
     24004     24007     24009     24004     24007     24010     24008     24007     24009
     24008     24007     24010     24009     24007     24010     24007     24010     24011
     24007     24010     24012     24007     24010     24013     24011     24010     24012
     24011     24010     24013     24012     24010     24013     24010     24013     24014
     24010     24013     24015     24010     24013     24016     24014     24013     24015
     24014     24013     24016     24015     24013     24016     24013     24016     24017
     24013     24016     24018     24013     24016     24019     24017     24016     24018
     24017     24016     24019     24018     24016     24019     23973     24020     24021
     23973     24020     24022     23973     24020     24023     24021     24020     24022
     24021     24020     24023     24022     24020     24023     24020     24023     24024
     24020     24023     24025     24020     24023     24026     24024     24023     24025
     24024     24023     24026     24025     24023     24026     24023     24026     24027
     24023     24026     24028     24023     24026     24029     24027     24026     24028
     24027     24026     24029     24028     24026     24029     24026     24029     24030
     24026     24029     24031     24026     24029     24032     24030     24029     24031
     24030     24029     24032     24031     24029     24032     24029     24032     24033
     24029     24032     24034     24029     24032     24035     24033     24032     24034
     24033     24032     24035     24034     24032     24035     24032     24035     24036
     24032     24035     24037     24032     24035     24038     24036     24035     24037
     24036     24035     24038     24037     24035     24038     24035     24038     24039
     24035     24038     24040     24035     24038     24041     24039     24038     24040
     24039     24038     24041     24040     24038     24041     24038     24041     24042
     24038     24041     24043     24038     24041     24044     24042     24041     24043
     24042     24041     24044     24043     24041     24044     24041     24044     24045
     24041     24044     24046     24041     24044     24047     24045     24044     24046
     24045     24044     24047     24046     24044     24047     24044     24047     24048
     24044     24047     24049     24044     24047     24050     24048     24047     24049
     24048     24047     24050     24049     24047     24050     24047     24050     24051
     24047     24050     24052     24047     24050     24053     24051     24050     24052
     24051     24050     24053     24052     24050     24053     24050     24053     24054
     24050     24053     24055     24050     24053     24056     24054     24053     24055
     24054     24053     24056     24055     24053     24056     24053     24056     24057
     24053     24056     24058     24053     24056     24059     24057     24056     24058
     24057     24056     24059     24058     24056     24059     24056     24059     24060
     24056     24059     24061     24056     24059     24062     24060     24059     24061
     24060     24059     24062     24061     24059     24062     24064     24063     24065
     24064     24063     24066     24064     24063     24067     24065     24063     24066
     24065     24063     24067     24066     24063     24067     24063     24067     24068
     24063     24067     24069     24063     24067     24070     24068     24067     24069
     24068     24067     24070     24069     24067     24070     24067     24070     24071
     24067     24070     24072     24067     24070     24077     24071     24070     24072
     24071     24070     24077     24072     24070     24077     24074     24073     24075
     24074     24073     24076     24074     24073     24077     24075     24073     24076
     24075     24073     24077     24076     24073     24077     24073     24076     24078
     24070     24077     24073     24076     24078     24079     24076     24078     24080
     24076     24078     24081     24079     24078     24080     24079     24078     24081
     24080     24078     24081     24078     24081     24082     24078     24081     24083
     24078     24081     24089     24082     24081     24083     24082     24081     24089
     24083     24081     24089     24081     24083     24084     24083     24084     24085
     24083     24084     24086     24085     24084     24086     24084     24086     24087
     24084     24086     24088     24084     24086     24098     24087     24086     24088
     24087     24086     24098     24088     24086     24098     24081     24089     24090
     24081     24089     24091     24081     24089     24092     24090     24089     24091
     24090     24089     24092     24091     24089     24092     24089     24092     24093
     24092     24093     24094     24092     24093     24095     24094     24093     24095
     24093     24095     24096     24093     24095     24097     24093     24095     24145
     24096     24095     24097     24096     24095     24145     24097     24095     24145
     24086     24098     24099     24086     24098     24100     24086     24098     24101
     24099     24098     24100     24099     24098     24101     24100     24098     24101
     24098     24101     24102     24098     24101     24103     24098     24101     24104
     24102     24101     24103     24102     24101     24104     24103     24101     24104
     24101     24104     24105     24101     24104     24106     24101     24104     24107
     24105     24104     24106     24105     24104     24107     24106     24104     24107
     24104     24107     24108     24104     24107     24109     24104     24107     24110
     24108     24107     24109     24108     24107     24110     24109     24107     24110
     24107     24110     24111     24107     24110     24112     24107     24110     24113
     24111     24110     24112     24111     24110     24113     24112     24110     24113
     24110     24113     24114     24110     24113     24115     24110     24113     24116
     24114     24113     24115     24114     24113     24116     24115     24113     24116
     24113     24116     24117     24113     24116     24118     24117     24116     24118
     24116     24118     24119     24116     24118     24120     24119     24118     24120
     24118     24120     24121     24118     24120     24122     24118     24120     24123
     24121     24120     24122     24121     24120     24123     24122     24120     24123
     24120     24123     24124     24120     24123     24125     24120     24123     24126
     24124     24123     24125     24124     24123     24126     24125     24123     24126
     24123     24126     24127     24123     24126     24128     24123     24126     24129
     24127     24126     24128     24127     24126     24129     24128     24126     24129
     24126     24129     24130     24126     24129     24131     24126     24129     24132
     24130     24129     24131     24130     24129     24132     24131     24129     24132
     24129     24132     24133     24129     24132     24134     24129     24132     24135
     24133     24132     24134     24133     24132     24135     24134     24132     24135
     24132     24135     24136     24132     24135     24137     24132     24135     24138
     24136     24135     24137     24136     24135     24138     24137     24135     24138
     24135     24138     24139     24135     24138     24140     24135     24138     24141
     24139     24138     24140     24139     24138     24141     24140     24138     24141
     24138     24141     24142     24138     24141     24143     24138     24141     24144
     24142     24141     24143     24142     24141     24144     24143     24141     24144
     24095     24145     24146     24095     24145     24147     24095     24145     24148
     24146     24145     24147     24146     24145     24148     24147     24145     24148
     24145     24148     24149     24145     24148     24150     24145     24148     24151
     24149     24148     24150     24149     24148     24151     24150     24148     24151
     24148     24151     24152     24148     24151     24153     24148     24151     24154
     24152     24151     24153     24152     24151     24154     24153     24151     24154
     24151     24154     24155     24151     24154     24156     24151     24154     24157
     24155     24154     24156     24155     24154     24157     24156     24154     24157
     24154     24157     24158     24154     24157     24159     24154     24157     24160
     24158     24157     24159     24158     24157     24160     24159     24157     24160
     24157     24160     24161     24157     24160     24162     24157     24160     24163
     24161     24160     24162     24161     24160     24163     24162     24160     24163
     24160     24163     24164     24160     24163     24165     24160     24163     24166
     24164     24163     24165     24164     24163     24166     24165     24163     24166
     24163     24166     24167     24163     24166     24168     24163     24166     24169
     24167     24166     24168     24167     24166     24169     24168     24166     24169
     24166     24169     24170     24166     24169     24171     24166     24169     24172
     24170     24169     24171     24170     24169     24172     24171     24169     24172
     24169     24172     24173     24169     24172     24174     24169     24172     24175
     24173     24172     24174     24173     24172     24175     24174     24172     24175
     24172     24175     24176     24172     24175     24177     24172     24175     24178
     24176     24175     24177     24176     24175     24178     24177     24175     24178
     24175     24178     24179     24175     24178     24180     24175     24178     24181
     24179     24178     24180     24179     24178     24181     24180     24178     24181
     24178     24181     24182     24178     24181     24183     24178     24181     24184
     24182     24181     24183     24182     24181     24184     24183     24181     24184
     24181     24184     24185     24181     24184     24186     24181     24184     24187
     24185     24184     24186     24185     24184     24187     24186     24184     24187
     24189     24188     24190     24189     24188     24194     24189     24188     24199
     24190     24188     24194     24190     24188     24199     24194     24188     24199
     24192     24191     24193     24192     24191     24194     24192     24191     24195
     24193     24191     24194     24193     24191     24195     24194     24191     24195
     24188     24194     24191     24191     24195     24196     24195     24196     24197
     24195     24196     24198     24195     24196     24231     24197     24196     24198
     24197     24196     24231     24198     24196     24231     24188     24199     24200
     24188     24199     24201     24188     24199     24203     24200     24199     24201
     24200     24199     24203     24201     24199     24203     24199     24201     24202
     24199     24203     24204     24199     24203     24205     24199     24203     24209
     24204     24203     24205     24204     24203     24209     24205     24203     24209
     24207     24206     24208     24207     24206     24209     24207     24206     24210
     24208     24206     24209     24208     24206     24210     24209     24206     24210
     24203     24209     24206     24206     24210     24211     24210     24211     24212
     24210     24211     24213     24210     24211     24214     24212     24211     24213
     24212     24211     24214     24213     24211     24214     24211     24214     24215
     24211     24214     24216     24211     24214     24222     24215     24214     24216
     24215     24214     24222     24216     24214     24222     24214     24216     24217
     24216     24217     24218     24216     24217     24219     24218     24217     24219
     24217     24219     24220     24217     24219     24221     24217     24219     24248
     24220     24219     24221     24220     24219     24248     24221     24219     24248
     24214     24222     24223     24214     24222     24224     24214     24222     24225
     24223     24222     24224     24223     24222     24225     24224     24222     24225
     24222     24225     24226     24225     24226     24227     24225     24226     24228
     24227     24226     24228     24226     24228     24229     24226     24228     24230
     24226     24228     24295     24229     24228     24230     24229     24228     24295
     24230     24228     24295     24196     24231     24232     24196     24231     24233
     24196     24231     24239     24232     24231     24233     24232     24231     24239
     24233     24231     24239     24231     24233     24234     24233     24234     24235
     24233     24234     24236     24235     24234     24236     24234     24236     24237
     24234     24236     24238     24234     24236     24338     24237     24236     24238
     24237     24236     24338     24238     24236     24338     24231     24239     24240
     24231     24239     24241     24231     24239     24242     24240     24239     24241
     24240     24239     24242     24241     24239     24242     24239     24242     24243
     24242     24243     24244     24242     24243     24245     24244     24243     24245
     24243     24245     24246     24243     24245     24247     24243     24245     24385
     24246     24245     24247     24246     24245     24385     24247     24245     24385
     24219     24248     24249     24219     24248     24250     24219     24248     24251
     24249     24248     24250     24249     24248     24251     24250     24248     24251
     24248     24251     24252     24248     24251     24253     24248     24251     24254
     24252     24251     24253     24252     24251     24254     24253     24251     24254
     24251     24254     24255     24251     24254     24256     24251     24254     24257
     24255     24254     24256     24255     24254     24257     24256     24254     24257
     24254     24257     24258     24254     24257     24259     24254     24257     24260
     24258     24257     24259     24258     24257     24260     24259     24257     24260
     24257     24260     24261     24257     24260     24262     24257     24260     24263
     24261     24260     24262     24261     24260     24263     24262     24260     24263
     24260     24263     24264     24260     24263     24265     24260     24263     24266
     24264     24263     24265     24264     24263     24266     24265     24263     24266
     24263     24266     24267     24263     24266     24268     24263     24266     24269
     24267     24266     24268     24267     24266     24269     24268     24266     24269
     24266     24269     24270     24266     24269     24271     24266     24269     24272
     24270     24269     24271     24270     24269     24272     24271     24269     24272
     24269     24272     24273     24269     24272     24274     24273     24272     24274
     24272     24274     24275     24272     24274     24276     24275     24274     24276
     24274     24276     24277     24274     24276     24278     24274     24276     24279
     24277     24276     24278     24277     24276     24279     24278     24276     24279
     24276     24279     24280     24276     24279     24281     24276     24279     24282
     24280     24279     24281     24280     24279     24282     24281     24279     24282
     24279     24282     24283     24279     24282     24284     24279     24282     24285
     24283     24282     24284     24283     24282     24285     24284     24282     24285
     24282     24285     24286     24282     24285     24287     24282     24285     24288
     24286     24285     24287     24286     24285     24288     24287     24285     24288
     24285     24288     24289     24285     24288     24290     24285     24288     24291
     24289     24288     24290     24289     24288     24291     24290     24288     24291
     24288     24291     24292     24288     24291     24293     24288     24291     24294
     24292     24291     24293     24292     24291     24294     24293     24291     24294
     24228     24295     24296     24228     24295     24297     24228     24295     24298
     24296     24295     24297     24296     24295     24298     24297     24295     24298
     24295     24298     24299     24295     24298     24300     24295     24298     24301
     24299     24298     24300     24299     24298     24301     24300     24298     24301
     24298     24301     24302     24298     24301     24303     24298     24301     24304
     24302     24301     24303     24302     24301     24304     24303     24301     24304
     24301     24304     24305     24301     24304     24306     24301     24304     24307
     24305     24304     24306     24305     24304     24307     24306     24304     24307
     24304     24307     24308     24304     24307     24309     24304     24307     24310
     24308     24307     24309     24308     24307     24310     24309     24307     24310
     24307     24310     24311     24307     24310     24312     24307     24310     24313
     24311     24310     24312     24311     24310     24313     24312     24310     24313
     24310     24313     24314     24310     24313     24315     24310     24313     24316
     24314     24313     24315     24314     24313     24316     24315     24313     24316
     24313     24316     24317     24313     24316     24318     24313     24316     24319
     24317     24316     24318     24317     24316     24319     24318     24316     24319
     24316     24319     24320     24316     24319     24321     24316     24319     24322
     24320     24319     24321     24320     24319     24322     24321     24319     24322
     24319     24322     24323     24319     24322     24324     24319     24322     24325
     24323     24322     24324     24323     24322     24325     24324     24322     24325
     24322     24325     24326     24322     24325     24327     24322     24325     24328
     24326     24325     24327     24326     24325     24328     24327     24325     24328
     24325     24328     24329     24325     24328     24330     24325     24328     24331
     24329     24328     24330     24329     24328     24331     24330     24328     24331
     24328     24331     24332     24328     24331     24333     24328     24331     24334
     24332     24331     24333     24332     24331     24334     24333     24331     24334
     24331     24334     24335     24331     24334     24336     24331     24334     24337
     24335     24334     24336     24335     24334     24337     24336     24334     24337
     24236     24338     24339     24236     24338     24340     24236     24338     24341
     24339     24338     24340     24339     24338     24341     24340     24338     24341
     24338     24341     24342     24338     24341     24343     24338     24341     24344
     24342     24341     24343     24342     24341     24344     24343     24341     24344
     24341     24344     24345     24341     24344     24346     24341     24344     24347
     24345     24344     24346     24345     24344     24347     24346     24344     24347
     24344     24347     24348     24344     24347     24349     24344     24347     24350
     24348     24347     24349     24348     24347     24350     24349     24347     24350
     24347     24350     24351     24347     24350     24352     24347     24350     24353
     24351     24350     24352     24351     24350     24353     24352     24350     24353
     24350     24353     24354     24350     24353     24355     24350     24353     24356
     24354     24353     24355     24354     24353     24356     24355     24353     24356
     24353     24356     24357     24353     24356     24358     24353     24356     24359
     24357     24356     24358     24357     24356     24359     24358     24356     24359
     24356     24359     24360     24356     24359     24361     24356     24359     24362
     24360     24359     24361     24360     24359     24362     24361     24359     24362
     24359     24362     24363     24359     24362     24364     24363     24362     24364
     24362     24364     24365     24362     24364     24366     24365     24364     24366
     24364     24366     24367     24364     24366     24368     24364     24366     24369
     24367     24366     24368     24367     24366     24369     24368     24366     24369
     24366     24369     24370     24366     24369     24371     24366     24369     24372
     24370     24369     24371     24370     24369     24372     24371     24369     24372
     24369     24372     24373     24369     24372     24374     24369     24372     24375
     24373     24372     24374     24373     24372     24375     24374     24372     24375
     24372     24375     24376     24372     24375     24377     24372     24375     24378
     24376     24375     24377     24376     24375     24378     24377     24375     24378
     24375     24378     24379     24375     24378     24380     24375     24378     24381
     24379     24378     24380     24379     24378     24381     24380     24378     24381
     24378     24381     24382     24378     24381     24383     24378     24381     24384
     24382     24381     24383     24382     24381     24384     24383     24381     24384
     24245     24385     24386     24245     24385     24387     24245     24385     24388
     24386     24385     24387     24386     24385     24388     24387     24385     24388
     24385     24388     24389     24385     24388     24390     24385     24388     24391
     24389     24388     24390     24389     24388     24391     24390     24388     24391
     24388     24391     24392     24388     24391     24393     24388     24391     24394
     24392     24391     24393     24392     24391     24394     24393     24391     24394
     24391     24394     24395     24391     24394     24396     24391     24394     24397
     24395     24394     24396     24395     24394     24397     24396     24394     24397
     24394     24397     24398     24394     24397     24399     24394     24397     24400
     24398     24397     24399     24398     24397     24400     24399     24397     24400
     24397     24400     24401     24397     24400     24402     24397     24400     24403
     24401     24400     24402     24401     24400     24403     24402     24400     24403
     24400     24403     24404     24400     24403     24405     24400     24403     24406
     24404     24403     24405     24404     24403     24406     24405     24403     24406
     24403     24406     24407     24403     24406     24408     24403     24406     24409
     24407     24406     24408     24407     24406     24409     24408     24406     24409
     24406     24409     24410     24406     24409     24411     24406     24409     24412
     24410     24409     24411     24410     24409     24412     24411     24409     24412
     24409     24412     24413     24409     24412     24414     24409     24412     24415
     24413     24412     24414     24413     24412     24415     24414     24412     24415
     24412     24415     24416     24412     24415     24417     24412     24415     24418
     24416     24415     24417     24416     24415     24418     24417     24415     24418
     24415     24418     24419     24415     24418     24420     24415     24418     24421
     24419     24418     24420     24419     24418     24421     24420     24418     24421
     24418     24421     24422     24418     24421     24423     24418     24421     24424
     24422     24421     24423     24422     24421     24424     24423     24421     24424
     24421     24424     24425     24421     24424     24426     24421     24424     24427
     24425     24424     24426     24425     24424     24427     24426     24424     24427
     24429     24428     24430     24429     24428     24431     24429     24428     24433
     24430     24428     24431     24430     24428     24433     24431     24428     24433
     24428     24431     24432     24428     24433     24434     24428     24433     24435
     24428     24433     24437     24434     24433     24435     24434     24433     24437
     24435     24433     24437     24433     24435     24436     24433     24437     24438
     24433     24437     24439     24433     24437     24444     24438     24437     24439
     24438     24437     24444     24439     24437     24444     24441     24440     24442
     24441     24440     24443     24441     24440     24444     24442     24440     24443
     24442     24440     24444     24443     24440     24444     24440     24443     24445
     24437     24444     24440     24443     24445     24446     24443     24445     24447
     24443     24445     24448     24446     24445     24447     24446     24445     24448
     24447     24445     24448     24445     24448     24449     24445     24448     24450
     24445     24448     24456     24449     24448     24450     24449     24448     24456
     24450     24448     24456     24448     24450     24451     24450     24451     24452
     24450     24451     24453     24452     24451     24453     24451     24453     24454
     24451     24453     24455     24451     24453     24465     24454     24453     24455
     24454     24453     24465     24455     24453     24465     24448     24456     24457
     24448     24456     24458     24448     24456     24459     24457     24456     24458
     24457     24456     24459     24458     24456     24459     24456     24459     24460
     24459     24460     24461     24459     24460     24462     24461     24460     24462
     24460     24462     24463     24460     24462     24464     24460     24462     24509
     24463     24462     24464     24463     24462     24509     24464     24462     24509
     24453     24465     24466     24453     24465     24467     24453     24465     24468
     24466     24465     24467     24466     24465     24468     24467     24465     24468
     24465     24468     24469     24465     24468     24470     24465     24468     24471
     24469     24468     24470     24469     24468     24471     24470     24468     24471
     24468     24471     24472     24468     24471     24473     24468     24471     24474
     24472     24471     24473     24472     24471     24474     24473     24471     24474
     24471     24474     24475     24471     24474     24476     24471     24474     24477
     24475     24474     24476     24475     24474     24477     24476     24474     24477
     24474     24477     24478     24474     24477     24479     24474     24477     24480
     24478     24477     24479     24478     24477     24480     24479     24477     24480
     24477     24480     24481     24477     24480     24482     24477     24480     24483
     24481     24480     24482     24481     24480     24483     24482     24480     24483
     24480     24483     24484     24480     24483     24485     24480     24483     24488
     24484     24483     24485     24484     24483     24488     24485     24483     24488
     24483     24485     24486     24483     24485     24487     24483     24485     24488
     24486     24485     24487     24486     24485     24488     24487     24485     24488
     24483     24488     24485     24483     24488     24489     24483     24488     24490
     24485     24488     24489     24485     24488     24490     24489     24488     24490
     24488     24490     24491     24488     24490     24492     24488     24490     24493
     24491     24490     24492     24491     24490     24493     24492     24490     24493
     24490     24493     24494     24490     24493     24495     24490     24493     24496
     24494     24493     24495     24494     24493     24496     24495     24493     24496
     24493     24496     24497     24493     24496     24498     24493     24496     24499
     24497     24496     24498     24497     24496     24499     24498     24496     24499
     24496     24499     24500     24496     24499     24501     24496     24499     24502
     24500     24499     24501     24500     24499     24502     24501     24499     24502
     24499     24502     24503     24499     24502     24504     24499     24502     24505
     24503     24502     24504     24503     24502     24505     24504     24502     24505
     24502     24505     24506     24502     24505     24507     24502     24505     24508
     24506     24505     24507     24506     24505     24508     24507     24505     24508
     24462     24509     24510     24462     24509     24511     24462     24509     24512
     24510     24509     24511     24510     24509     24512     24511     24509     24512
     24509     24512     24513     24509     24512     24514     24509     24512     24515
     24513     24512     24514     24513     24512     24515     24514     24512     24515
     24512     24515     24516     24512     24515     24517     24512     24515     24518
     24516     24515     24517     24516     24515     24518     24517     24515     24518
     24515     24518     24519     24515     24518     24520     24515     24518     24521
     24519     24518     24520     24519     24518     24521     24520     24518     24521
     24518     24521     24522     24518     24521     24523     24518     24521     24524
     24522     24521     24523     24522     24521     24524     24523     24521     24524
     24521     24524     24525     24521     24524     24526     24521     24524     24527
     24525     24524     24526     24525     24524     24527     24526     24524     24527
     24524     24527     24528     24524     24527     24529     24524     24527     24530
     24528     24527     24529     24528     24527     24530     24529     24527     24530
     24527     24530     24531     24527     24530     24532     24527     24530     24533
     24531     24530     24532     24531     24530     24533     24532     24530     24533
     24530     24533     24534     24530     24533     24535     24530     24533     24536
     24534     24533     24535     24534     24533     24536     24535     24533     24536
     24533     24536     24537     24533     24536     24538     24533     24536     24539
     24537     24536     24538     24537     24536     24539     24538     24536     24539
     24536     24539     24540     24536     24539     24541     24536     24539     24542
     24540     24539     24541     24540     24539     24542     24541     24539     24542
     24539     24542     24543     24539     24542     24544     24539     24542     24545
     24543     24542     24544     24543     24542     24545     24544     24542     24545
     24542     24545     24546     24542     24545     24547     24542     24545     24548
     24546     24545     24547     24546     24545     24548     24547     24545     24548
     24545     24548     24549     24545     24548     24550     24545     24548     24551
     24549     24548     24550     24549     24548     24551     24550     24548     24551
     24553     24552     24554     24553     24552     24555     24553     24552     24556
     24554     24552     24555     24554     24552     24556     24555     24552     24556
     24552     24556     24557     24552     24556     24558     24552     24556     24559
     24557     24556     24558     24557     24556     24559     24558     24556     24559
     24556     24559     24560     24556     24559     24561     24556     24559     24566
     24560     24559     24561     24560     24559     24566     24561     24559     24566
     24563     24562     24564     24563     24562     24565     24563     24562     24566
     24564     24562     24565     24564     24562     24566     24565     24562     24566
     24562     24565     24567     24559     24566     24562     24565     24567     24568
     24565     24567     24569     24565     24567     24570     24568     24567     24569
     24568     24567     24570     24569     24567     24570     24567     24570     24571
     24567     24570     24572     24567     24570     24578     24571     24570     24572
     24571     24570     24578     24572     24570     24578     24570     24572     24573
     24572     24573     24574     24572     24573     24575     24574     24573     24575
     24573     24575     24576     24573     24575     24577     24573     24575     24587
     24576     24575     24577     24576     24575     24587     24577     24575     24587
     24570     24578     24579     24570     24578     24580     24570     24578     24581
     24579     24578     24580     24579     24578     24581     24580     24578     24581
     24578     24581     24582     24581     24582     24583     24581     24582     24584
     24583     24582     24584     24582     24584     24585     24582     24584     24586
     24582     24584     24631     24585     24584     24586     24585     24584     24631
     24586     24584     24631     24575     24587     24588     24575     24587     24589
     24575     24587     24590     24588     24587     24589     24588     24587     24590
     24589     24587     24590     24587     24590     24591     24587     24590     24592
     24587     24590     24593     24591     24590     24592     24591     24590     24593
     24592     24590     24593     24590     24593     24594     24590     24593     24595
     24590     24593     24596     24594     24593     24595     24594     24593     24596
     24595     24593     24596     24593     24596     24597     24593     24596     24598
     24593     24596     24599     24597     24596     24598     24597     24596     24599
     24598     24596     24599     24596     24599     24600     24596     24599     24601
     24596     24599     24602     24600     24599     24601     24600     24599     24602
     24601     24599     24602     24599     24602     24603     24599     24602     24604
     24599     24602     24605     24603     24602     24604     24603     24602     24605
     24604     24602     24605     24602     24605     24606     24602     24605     24607
     24602     24605     24610     24606     24605     24607     24606     24605     24610
     24607     24605     24610     24605     24607     24608     24605     24607     24609
     24605     24607     24610     24608     24607     24609     24608     24607     24610
     24609     24607     24610     24605     24610     24607     24605     24610     24611
     24605     24610     24612     24607     24610     24611     24607     24610     24612
     24611     24610     24612     24610     24612     24613     24610     24612     24614
     24610     24612     24615     24613     24612     24614     24613     24612     24615
     24614     24612     24615     24612     24615     24616     24612     24615     24617
     24612     24615     24618     24616     24615     24617     24616     24615     24618
     24617     24615     24618     24615     24618     24619     24615     24618     24620
     24615     24618     24621     24619     24618     24620     24619     24618     24621
     24620     24618     24621     24618     24621     24622     24618     24621     24623
     24618     24621     24624     24622     24621     24623     24622     24621     24624
     24623     24621     24624     24621     24624     24625     24621     24624     24626
     24621     24624     24627     24625     24624     24626     24625     24624     24627
     24626     24624     24627     24624     24627     24628     24624     24627     24629
     24624     24627     24630     24628     24627     24629     24628     24627     24630
     24629     24627     24630     24584     24631     24632     24584     24631     24633
     24584     24631     24634     24632     24631     24633     24632     24631     24634
     24633     24631     24634     24631     24634     24635     24631     24634     24636
     24631     24634     24637     24635     24634     24636     24635     24634     24637
     24636     24634     24637     24634     24637     24638     24634     24637     24639
     24634     24637     24640     24638     24637     24639     24638     24637     24640
     24639     24637     24640     24637     24640     24641     24637     24640     24642
     24637     24640     24643     24641     24640     24642     24641     24640     24643
     24642     24640     24643     24640     24643     24644     24640     24643     24645
     24640     24643     24646     24644     24643     24645     24644     24643     24646
     24645     24643     24646     24643     24646     24647     24643     24646     24648
     24643     24646     24649     24647     24646     24648     24647     24646     24649
     24648     24646     24649     24646     24649     24650     24646     24649     24651
     24646     24649     24652     24650     24649     24651     24650     24649     24652
     24651     24649     24652     24649     24652     24653     24649     24652     24654
     24649     24652     24655     24653     24652     24654     24653     24652     24655
     24654     24652     24655     24652     24655     24656     24652     24655     24657
     24652     24655     24658     24656     24655     24657     24656     24655     24658
     24657     24655     24658     24655     24658     24659     24655     24658     24660
     24655     24658     24661     24659     24658     24660     24659     24658     24661
     24660     24658     24661     24658     24661     24662     24658     24661     24663
     24658     24661     24664     24662     24661     24663     24662     24661     24664
     24663     24661     24664     24661     24664     24665     24661     24664     24666
     24661     24664     24667     24665     24664     24666     24665     24664     24667
     24666     24664     24667     24664     24667     24668     24664     24667     24669
     24664     24667     24670     24668     24667     24669     24668     24667     24670
     24669     24667     24670     24667     24670     24671     24667     24670     24672
     24667     24670     24673     24671     24670     24672     24671     24670     24673
     24672     24670     24673     24675     24674     24676     24675     24674     24677
     24675     24674     24678     24676     24674     24677     24676     24674     24678
     24677     24674     24678     24674     24678     24679     24674     24678     24680
     24674     24678     24681     24679     24678     24680     24679     24678     24681
     24680     24678     24681     24678     24681     24682     24678     24681     24683
     24678     24681     24688     24682     24681     24683     24682     24681     24688
     24683     24681     24688     24685     24684     24686     24685     24684     24687
     24685     24684     24688     24686     24684     24687     24686     24684     24688
     24687     24684     24688     24684     24687     24689     24681     24688     24684
     24687     24689     24690     24687     24689     24691     24687     24689     24692
     24690     24689     24691     24690     24689     24692     24691     24689     24692
     24689     24692     24693     24689     24692     24694     24689     24692     24700
     24693     24692     24694     24693     24692     24700     24694     24692     24700
     24692     24694     24695     24694     24695     24696     24694     24695     24697
     24696     24695     24697     24695     24697     24698     24695     24697     24699
     24695     24697     24709     24698     24697     24699     24698     24697     24709
     24699     24697     24709     24692     24700     24701     24692     24700     24702
     24692     24700     24703     24701     24700     24702     24701     24700     24703
     24702     24700     24703     24700     24703     24704     24703     24704     24705
     24703     24704     24706     24705     24704     24706     24704     24706     24707
     24704     24706     24708     24704     24706     24753     24707     24706     24708
     24707     24706     24753     24708     24706     24753     24697     24709     24710
     24697     24709     24711     24697     24709     24712     24710     24709     24711
     24710     24709     24712     24711     24709     24712     24709     24712     24713
     24709     24712     24714     24709     24712     24715     24713     24712     24714
     24713     24712     24715     24714     24712     24715     24712     24715     24716
     24712     24715     24717     24712     24715     24718     24716     24715     24717
     24716     24715     24718     24717     24715     24718     24715     24718     24719
     24715     24718     24720     24715     24718     24721     24719     24718     24720
     24719     24718     24721     24720     24718     24721     24718     24721     24722
     24718     24721     24723     24718     24721     24724     24722     24721     24723
     24722     24721     24724     24723     24721     24724     24721     24724     24725
     24721     24724     24726     24721     24724     24727     24725     24724     24726
     24725     24724     24727     24726     24724     24727     24724     24727     24728
     24724     24727     24729     24724     24727     24732     24728     24727     24729
     24728     24727     24732     24729     24727     24732     24727     24729     24730
     24727     24729     24731     24727     24729     24732     24730     24729     24731
     24730     24729     24732     24731     24729     24732     24727     24732     24729
     24727     24732     24733     24727     24732     24734     24729     24732     24733
     24729     24732     24734     24733     24732     24734     24732     24734     24735
     24732     24734     24736     24732     24734     24737     24735     24734     24736
     24735     24734     24737     24736     24734     24737     24734     24737     24738
     24734     24737     24739     24734     24737     24740     24738     24737     24739
     24738     24737     24740     24739     24737     24740     24737     24740     24741
     24737     24740     24742     24737     24740     24743     24741     24740     24742
     24741     24740     24743     24742     24740     24743     24740     24743     24744
     24740     24743     24745     24740     24743     24746     24744     24743     24745
     24744     24743     24746     24745     24743     24746     24743     24746     24747
     24743     24746     24748     24743     24746     24749     24747     24746     24748
     24747     24746     24749     24748     24746     24749     24746     24749     24750
     24746     24749     24751     24746     24749     24752     24750     24749     24751
     24750     24749     24752     24751     24749     24752     24706     24753     24754
     24706     24753     24755     24706     24753     24756     24754     24753     24755
     24754     24753     24756     24755     24753     24756     24753     24756     24757
     24753     24756     24758     24753     24756     24759     24757     24756     24758
     24757     24756     24759     24758     24756     24759     24756     24759     24760
     24756     24759     24761     24756     24759     24762     24760     24759     24761
     24760     24759     24762     24761     24759     24762     24759     24762     24763
     24759     24762     24764     24759     24762     24765     24763     24762     24764
     24763     24762     24765     24764     24762     24765     24762     24765     24766
     24762     24765     24767     24762     24765     24768     24766     24765     24767
     24766     24765     24768     24767     24765     24768     24765     24768     24769
     24765     24768     24770     24765     24768     24771     24769     24768     24770
     24769     24768     24771     24770     24768     24771     24768     24771     24772
     24768     24771     24773     24768     24771     24774     24772     24771     24773
     24772     24771     24774     24773     24771     24774     24771     24774     24775
     24771     24774     24776     24771     24774     24777     24775     24774     24776
     24775     24774     24777     24776     24774     24777     24774     24777     24778
     24774     24777     24779     24774     24777     24780     24778     24777     24779
     24778     24777     24780     24779     24777     24780     24777     24780     24781
     24777     24780     24782     24777     24780     24783     24781     24780     24782
     24781     24780     24783     24782     24780     24783     24780     24783     24784
     24780     24783     24785     24780     24783     24786     24784     24783     24785
     24784     24783     24786     24785     24783     24786     24783     24786     24787
     24783     24786     24788     24783     24786     24789     24787     24786     24788
     24787     24786     24789     24788     24786     24789     24786     24789     24790
     24786     24789     24791     24786     24789     24792     24790     24789     24791
     24790     24789     24792     24791     24789     24792     24789     24792     24793
     24789     24792     24794     24789     24792     24795     24793     24792     24794
     24793     24792     24795     24794     24792     24795     24797     24796     24798
     24797     24796     24799     24797     24796     24801     24798     24796     24799
     24798     24796     24801     24799     24796     24801     24796     24799     24800
     24796     24801     24802     24796     24801     24803     24796     24801     24805
     24802     24801     24803     24802     24801     24805     24803     24801     24805
     24801     24803     24804     24801     24805     24806     24801     24805     24807
     24801     24805     24812     24806     24805     24807     24806     24805     24812
     24807     24805     24812     24809     24808     24810     24809     24808     24811
     24809     24808     24812     24810     24808     24811     24810     24808     24812
     24811     24808     24812     24808     24811     24813     24805     24812     24808
     24811     24813     24814     24811     24813     24815     24811     24813     24816
     24814     24813     24815     24814     24813     24816     24815     24813     24816
     24813     24816     24817     24813     24816     24818     24813     24816     24824
     24817     24816     24818     24817     24816     24824     24818     24816     24824
     24816     24818     24819     24818     24819     24820     24818     24819     24821
     24820     24819     24821     24819     24821     24822     24819     24821     24823
     24819     24821     24833     24822     24821     24823     24822     24821     24833
     24823     24821     24833     24816     24824     24825     24816     24824     24826
     24816     24824     24827     24825     24824     24826     24825     24824     24827
     24826     24824     24827     24824     24827     24828     24827     24828     24829
     24827     24828     24830     24829     24828     24830     24828     24830     24831
     24828     24830     24832     24828     24830     24874     24831     24830     24832
     24831     24830     24874     24832     24830     24874     24821     24833     24834
     24821     24833     24835     24821     24833     24836     24834     24833     24835
     24834     24833     24836     24835     24833     24836     24833     24836     24837
     24833     24836     24838     24833     24836     24839     24837     24836     24838
     24837     24836     24839     24838     24836     24839     24836     24839     24840
     24836     24839     24841     24836     24839     24842     24840     24839     24841
     24840     24839     24842     24841     24839     24842     24839     24842     24843
     24839     24842     24844     24839     24842     24845     24843     24842     24844
     24843     24842     24845     24844     24842     24845     24842     24845     24846
     24842     24845     24847     24842     24845     24848     24846     24845     24847
     24846     24845     24848     24847     24845     24848     24845     24848     24849
     24845     24848     24850     24845     24848     24851     24849     24848     24850
     24849     24848     24851     24850     24848     24851     24848     24851     24852
     24848     24851     24853     24852     24851     24853     24851     24853     24854
     24851     24853     24855     24854     24853     24855     24853     24855     24856
     24853     24855     24857     24853     24855     24858     24856     24855     24857
     24856     24855     24858     24857     24855     24858     24855     24858     24859
     24855     24858     24860     24855     24858     24861     24859     24858     24860
     24859     24858     24861     24860     24858     24861     24858     24861     24862
     24858     24861     24863     24858     24861     24864     24862     24861     24863
     24862     24861     24864     24863     24861     24864     24861     24864     24865
     24861     24864     24866     24861     24864     24867     24865     24864     24866
     24865     24864     24867     24866     24864     24867     24864     24867     24868
     24864     24867     24869     24864     24867     24870     24868     24867     24869
     24868     24867     24870     24869     24867     24870     24867     24870     24871
     24867     24870     24872     24867     24870     24873     24871     24870     24872
     24871     24870     24873     24872     24870     24873     24830     24874     24875
     24830     24874     24876     24830     24874     24877     24875     24874     24876
     24875     24874     24877     24876     24874     24877     24874     24877     24878
     24874     24877     24879     24874     24877     24880     24878     24877     24879
     24878     24877     24880     24879     24877     24880     24877     24880     24881
     24877     24880     24882     24877     24880     24883     24881     24880     24882
     24881     24880     24883     24882     24880     24883     24880     24883     24884
     24880     24883     24885     24880     24883     24886     24884     24883     24885
     24884     24883     24886     24885     24883     24886     24883     24886     24887
     24883     24886     24888     24883     24886     24889     24887     24886     24888
     24887     24886     24889     24888     24886     24889     24886     24889     24890
     24886     24889     24891     24886     24889     24892     24890     24889     24891
     24890     24889     24892     24891     24889     24892     24889     24892     24893
     24889     24892     24894     24889     24892     24895     24893     24892     24894
     24893     24892     24895     24894     24892     24895     24892     24895     24896
     24892     24895     24897     24892     24895     24898     24896     24895     24897
     24896     24895     24898     24897     24895     24898     24895     24898     24899
     24895     24898     24900     24895     24898     24901     24899     24898     24900
     24899     24898     24901     24900     24898     24901     24898     24901     24902
     24898     24901     24903     24898     24901     24904     24902     24901     24903
     24902     24901     24904     24903     24901     24904     24901     24904     24905
     24901     24904     24906     24901     24904     24907     24905     24904     24906
     24905     24904     24907     24906     24904     24907     24904     24907     24908
     24904     24907     24909     24904     24907     24910     24908     24907     24909
     24908     24907     24910     24909     24907     24910     24907     24910     24911
     24907     24910     24912     24907     24910     24913     24911     24910     24912
     24911     24910     24913     24912     24910     24913     24910     24913     24914
     24910     24913     24915     24910     24913     24916     24914     24913     24915
     24914     24913     24916     24915     24913     24916     24918     24917     24919
     24921     24920     24922     24924     24923     24925     24927     24926     24928
     24930     24929     24931     24933     24932     24934     24936     24935     24937
     24939     24938     24940     24942     24941     24943     24945     24944     24946
     24948     24947     24949     24951     24950     24952     24954     24953     24955
     24957     24956     24958     24960     24959     24961     24963     24962     24964
     24966     24965     24967     24969     24968     24970     24972     24971     24973
     24975     24974     24976     24978     24977     24979     24981     24980     24982
     24984     24983     24985     24987     24986     24988     24990     24989     24991
     24993     24992     24994     24996     24995     24997     24999     24998     25000
     25002     25001     25003     25005     25004     25006     25008     25007     25009
     25011     25010     25012     25014     25013     25015     25017     25016     25018
     25020     25019     25021     25023     25022     25024     25026     25025     25027
     25029     25028     25030     25032     25031     25033     25035     25034     25036
     25038     25037     25039     25041     25040     25042     25044     25043     25045
     25047     25046     25048     25050     25049     25051     25053     25052     25054
     25056     25055     25057     25059     25058     25060     25062     25061     25063
     25065     25064     25066     25068     25067     25069     25071     25070     25072
     25074     25073     25075     25077     25076     25078     25080     25079     25081
     25083     25082     25084     25086     25085     25087     25089     25088     25090
     25092     25091     25093     25095     25094     25096     25098     25097     25099
     25101     25100     25102     25104     25103     25105     25107     25106     25108
     25110     25109     25111     25113     25112     25114     25116     25115     25117
     25119     25118     25120     25122     25121     25123     25125     25124     25126
     25128     25127     25129     25131     25130     25132     25134     25133     25135
     25137     25136     25138     25140     25139     25141     25143     25142     25144
     25146     25145     25147     25149     25148     25150     25152     25151     25153
     25155     25154     25156     25158     25157     25159     25161     25160     25162
     25164     25163     25165     25167     25166     25168     25170     25169     25171
     25173     25172     25174     25176     25175     25177     25179     25178     25180
     25182     25181     25183     25185     25184     25186     25188     25187     25189
     25191     25190     25192     25194     25193     25195     25197     25196     25198
     25200     25199     25201     25203     25202     25204     25206     25205     25207
     25209     25208     25210     25212     25211     25213     25215     25214     25216
     25218     25217     25219     25221     25220     25222     25224     25223     25225
     25227     25226     25228     25230     25229     25231     25233     25232     25234
     25236     25235     25237     25239     25238     25240     25242     25241     25243
     25245     25244     25246     25248     25247     25249     25251     25250     25252
     25254     25253     25255     25257     25256     25258     25260     25259     25261
     25263     25262     25264     25266     25265     25267     25269     25268     25270
     25272     25271     25273     25275     25274     25276     25278     25277     25279
     25281     25280     25282     25284     25283     25285     25287     25286     25288
     25290     25289     25291     25293     25292     25294     25296     25295     25297
     25299     25298     25300     25302     25301     25303     25305     25304     25306
     25308     25307     25309     25311     25310     25312     25314     25313     25315
     25317     25316     25318     25320     25319     25321     25323     25322     25324
     25326     25325     25327     25329     25328     25330     25332     25331     25333
     25335     25334     25336     25338     25337     25339     25341     25340     25342
     25344     25343     25345     25347     25346     25348     25350     25349     25351
     25353     25352     25354     25356     25355     25357     25359     25358     25360
     25362     25361     25363     25365     25364     25366     25368     25367     25369
     25371     25370     25372     25374     25373     25375     25377     25376     25378
     25380     25379     25381     25383     25382     25384     25386     25385     25387
     25389     25388     25390     25392     25391     25393     25395     25394     25396
     25398     25397     25399     25401     25400     25402     25404     25403     25405
     25407     25406     25408     25410     25409     25411     25413     25412     25414
     25416     25415     25417     25419     25418     25420     25422     25421     25423
     25425     25424     25426     25428     25427     25429     25431     25430     25432
     25434     25433     25435     25437     25436     25438     25440     25439     25441
     25443     25442     25444     25446     25445     25447     25449     25448     25450
     25452     25451     25453     25455     25454     25456     25458     25457     25459
     25461     25460     25462     25464     25463     25465     25467     25466     25468
     25470     25469     25471     25473     25472     25474     25476     25475     25477
     25479     25478     25480     25482     25481     25483     25485     25484     25486
     25488     25487     25489     25491     25490     25492     25494     25493     25495
     25497     25496     25498     25500     25499     25501     25503     25502     25504
     25506     25505     25507     25509     25508     25510     25512     25511     25513
     25515     25514     25516     25518     25517     25519     25521     25520     25522
     25524     25523     25525     25527     25526     25528     25530     25529     25531
     25533     25532     25534     25536     25535     25537     25539     25538     25540
     25542     25541     25543     25545     25544     25546     25548     25547     25549
     25551     25550     25552     25554     25553     25555     25557     25556     25558
     25560     25559     25561     25563     25562     25564     25566     25565     25567
     25569     25568     25570     25572     25571     25573     25575     25574     25576
     25578     25577     25579     25581     25580     25582     25584     25583     25585
     25587     25586     25588     25590     25589     25591     25593     25592     25594
     25596     25595     25597     25599     25598     25600     25602     25601     25603
     25605     25604     25606     25608     25607     25609     25611     25610     25612
     25614     25613     25615     25617     25616     25618     25620     25619     25621
     25623     25622     25624     25626     25625     25627     25629     25628     25630
     25632     25631     25633     25635     25634     25636     25638     25637     25639
     25641     25640     25642     25644     25643     25645     25647     25646     25648
     25650     25649     25651     25653     25652     25654     25656     25655     25657
     25659     25658     25660     25662     25661     25663     25665     25664     25666
     25668     25667     25669     25671     25670     25672     25674     25673     25675
     25677     25676     25678     25680     25679     25681     25683     25682     25684
     25686     25685     25687     25689     25688     25690     25692     25691     25693
     25695     25694     25696     25698     25697     25699     25701     25700     25702
     25704     25703     25705     25707     25706     25708     25710     25709     25711
     25713     25712     25714     25716     25715     25717     25719     25718     25720
     25722     25721     25723     25725     25724     25726     25728     25727     25729
     25731     25730     25732     25734     25733     25735     25737     25736     25738
     25740     25739     25741     25743     25742     25744     25746     25745     25747
     25749     25748     25750     25752     25751     25753     25755     25754     25756
     25758     25757     25759     25761     25760     25762     25764     25763     25765
     25767     25766     25768     25770     25769     25771     25773     25772     25774
     25776     25775     25777     25779     25778     25780     25782     25781     25783
     25785     25784     25786     25788     25787     25789     25791     25790     25792
     25794     25793     25795     25797     25796     25798     25800     25799     25801
     25803     25802     25804     25806     25805     25807     25809     25808     25810
     25812     25811     25813     25815     25814     25816     25818     25817     25819
     25821     25820     25822     25824     25823     25825     25827     25826     25828
     25830     25829     25831     25833     25832     25834     25836     25835     25837
     25839     25838     25840     25842     25841     25843     25845     25844     25846
     25848     25847     25849     25851     25850     25852     25854     25853     25855
     25857     25856     25858     25860     25859     25861     25863     25862     25864
     25866     25865     25867     25869     25868     25870     25872     25871     25873
     25875     25874     25876     25878     25877     25879     25881     25880     25882
     25884     25883     25885     25887     25886     25888     25890     25889     25891
     25893     25892     25894     25896     25895     25897     25899     25898     25900
     25902     25901     25903     25905     25904     25906     25908     25907     25909
     25911     25910     25912     25914     25913     25915     25917     25916     25918
     25920     25919     25921     25923     25922     25924     25926     25925     25927
     25929     25928     25930     25932     25931     25933     25935     25934     25936
     25938     25937     25939     25941     25940     25942     25944     25943     25945
     25947     25946     25948     25950     25949     25951     25953     25952     25954
     25956     25955     25957     25959     25958     25960     25962     25961     25963
     25965     25964     25966     25968     25967     25969     25971     25970     25972
     25974     25973     25975     25977     25976     25978     25980     25979     25981
     25983     25982     25984     25986     25985     25987     25989     25988     25990
     25992     25991     25993     25995     25994     25996     25998     25997     25999
     26001     26000     26002     26004     26003     26005     26007     26006     26008
     26010     26009     26011     26013     26012     26014     26016     26015     26017
     26019     26018     26020     26022     26021     26023     26025     26024     26026
     26028     26027     26029     26031     26030     26032     26034     26033     26035
     26037     26036     26038     26040     26039     26041     26043     26042     26044
     26046     26045     26047     26049     26048     26050     26052     26051     26053
     26055     26054     26056     26058     26057     26059     26061     26060     26062
     26064     26063     26065     26067     26066     26068     26070     26069     26071
     26073     26072     26074     26076     26075     26077     26079     26078     26080
     26082     26081     26083     26085     26084     26086     26088     26087     26089
     26091     26090     26092     26094     26093     26095     26097     26096     26098
     26100     26099     26101     26103     26102     26104     26106     26105     26107
     26109     26108     26110     26112     26111     26113     26115     26114     26116
     26118     26117     26119     26121     26120     26122     26124     26123     26125
     26127     26126     26128     26130     26129     26131     26133     26132     26134
     26136     26135     26137     26139     26138     26140     26142     26141     26143
     26145     26144     26146     26148     26147     26149     26151     26150     26152
     26154     26153     26155     26157     26156     26158     26160     26159     26161
     26163     26162     26164     26166     26165     26167     26169     26168     26170
     26172     26171     26173     26175     26174     26176     26178     26177     26179
     26181     26180     26182     26184     26183     26185     26187     26186     26188
     26190     26189     26191     26193     26192     26194     26196     26195     26197
     26199     26198     26200     26202     26201     26203     26205     26204     26206
     26208     26207     26209     26211     26210     26212     26214     26213     26215
     26217     26216     26218     26220     26219     26221     26223     26222     26224
     26226     26225     26227     26229     26228     26230     26232     26231     26233
     26235     26234     26236     26238     26237     26239     26241     26240     26242
     26244     26243     26245     26247     26246     26248     26250     26249     26251
     26253     26252     26254     26256     26255     26257     26259     26258     26260
     26262     26261     26263     26265     26264     26266     26268     26267     26269
     26271     26270     26272     26274     26273     26275     26277     26276     26278
     26280     26279     26281     26283     26282     26284     26286     26285     26287
     26289     26288     26290     26292     26291     26293     26295     26294     26296
     26298     26297     26299     26301     26300     26302     26304     26303     26305
     26307     26306     26308     26310     26309     26311     26313     26312     26314
     26316     26315     26317     26319     26318     26320     26322     26321     26323
     26325     26324     26326     26328     26327     26329     26331     26330     26332
     26334     26333     26335     26337     26336     26338     26340     26339     26341
     26343     26342     26344     26346     26345     26347     26349     26348     26350
     26352     26351     26353     26355     26354     26356     26358     26357     26359
     26361     26360     26362     26364     26363     26365     26367     26366     26368
     26370     26369     26371     26373     26372     26374     26376     26375     26377
     26379     26378     26380     26382     26381     26383     26385     26384     26386
     26388     26387     26389     26391     26390     26392     26394     26393     26395
     26397     26396     26398     26400     26399     26401     26403     26402     26404
     26406     26405     26407     26409     26408     26410     26412     26411     26413
     26415     26414     26416     26418     26417     26419     26421     26420     26422
     26424     26423     26425     26427     26426     26428     26430     26429     26431
     26433     26432     26434     26436     26435     26437     26439     26438     26440
     26442     26441     26443     26445     26444     26446     26448     26447     26449
     26451     26450     26452     26454     26453     26455     26457     26456     26458
     26460     26459     26461     26463     26462     26464     26466     26465     26467
     26469     26468     26470     26472     26471     26473     26475     26474     26476
     26478     26477     26479     26481     26480     26482     26484     26483     26485
     26487     26486     26488     26490     26489     26491     26493     26492     26494
     26496     26495     26497     26499     26498     26500     26502     26501     26503
     26505     26504     26506     26508     26507     26509     26511     26510     26512
     26514     26513     26515     26517     26516     26518     26520     26519     26521
     26523     26522     26524     26526     26525     26527     26529     26528     26530
     26532     26531     26533     26535     26534     26536     26538     26537     26539
     26541     26540     26542     26544     26543     26545     26547     26546     26548
     26550     26549     26551     26553     26552     26554     26556     26555     26557
     26559     26558     26560     26562     26561     26563     26565     26564     26566
     26568     26567     26569     26571     26570     26572     26574     26573     26575
     26577     26576     26578     26580     26579     26581     26583     26582     26584
     26586     26585     26587     26589     26588     26590     26592     26591     26593
     26595     26594     26596     26598     26597     26599     26601     26600     26602
     26604     26603     26605     26607     26606     26608     26610     26609     26611
     26613     26612     26614     26616     26615     26617     26619     26618     26620
     26622     26621     26623     26625     26624     26626     26628     26627     26629
     26631     26630     26632     26634     26633     26635     26637     26636     26638
     26640     26639     26641     26643     26642     26644     26646     26645     26647
     26649     26648     26650     26652     26651     26653     26655     26654     26656
     26658     26657     26659     26661     26660     26662     26664     26663     26665
     26667     26666     26668     26670     26669     26671     26673     26672     26674
     26676     26675     26677     26679     26678     26680     26682     26681     26683
     26685     26684     26686     26688     26687     26689     26691     26690     26692
     26694     26693     26695     26697     26696     26698     26700     26699     26701
     26703     26702     26704     26706     26705     26707     26709     26708     26710
     26712     26711     26713     26715     26714     26716     26718     26717     26719
     26721     26720     26722     26724     26723     26725     26727     26726     26728
     26730     26729     26731     26733     26732     26734     26736     26735     26737
     26739     26738     26740     26742     26741     26743     26745     26744     26746
     26748     26747     26749     26751     26750     26752     26754     26753     26755
     26757     26756     26758     26760     26759     26761     26763     26762     26764
     26766     26765     26767     26769     26768     26770     26772     26771     26773
     26775     26774     26776     26778     26777     26779     26781     26780     26782
     26784     26783     26785     26787     26786     26788     26790     26789     26791
     26793     26792     26794     26796     26795     26797     26799     26798     26800
     26802     26801     26803     26805     26804     26806     26808     26807     26809
     26811     26810     26812     26814     26813     26815     26817     26816     26818
     26820     26819     26821     26823     26822     26824     26826     26825     26827
     26829     26828     26830     26832     26831     26833     26835     26834     26836
     26838     26837     26839     26841     26840     26842     26844     26843     26845
     26847     26846     26848     26850     26849     26851     26853     26852     26854
     26856     26855     26857     26859     26858     26860     26862     26861     26863
     26865     26864     26866     26868     26867     26869     26871     26870     26872
     26874     26873     26875     26877     26876     26878     26880     26879     26881
     26883     26882     26884     26886     26885     26887     26889     26888     26890
     26892     26891     26893     26895     26894     26896     26898     26897     26899
     26901     26900     26902     26904     26903     26905     26907     26906     26908
     26910     26909     26911     26913     26912     26914     26916     26915     26917
     26919     26918     26920     26922     26921     26923     26925     26924     26926
     26928     26927     26929     26931     26930     26932     26934     26933     26935
     26937     26936     26938     26940     26939     26941     26943     26942     26944
     26946     26945     26947     26949     26948     26950     26952     26951     26953
     26955     26954     26956     26958     26957     26959     26961     26960     26962
     26964     26963     26965     26967     26966     26968     26970     26969     26971
     26973     26972     26974     26976     26975     26977     26979     26978     26980
     26982     26981     26983     26985     26984     26986     26988     26987     26989
     26991     26990     26992     26994     26993     26995     26997     26996     26998
     27000     26999     27001     27003     27002     27004     27006     27005     27007
     27009     27008     27010     27012     27011     27013     27015     27014     27016
     27018     27017     27019     27021     27020     27022     27024     27023     27025
     27027     27026     27028     27030     27029     27031     27033     27032     27034
     27036     27035     27037     27039     27038     27040     27042     27041     27043
     27045     27044     27046     27048     27047     27049     27051     27050     27052
     27054     27053     27055     27057     27056     27058     27060     27059     27061
     27063     27062     27064     27066     27065     27067     27069     27068     27070
     27072     27071     27073     27075     27074     27076     27078     27077     27079
     27081     27080     27082     27084     27083     27085     27087     27086     27088
     27090     27089     27091     27093     27092     27094     27096     27095     27097
     27099     27098     27100     27102     27101     27103     27105     27104     27106
     27108     27107     27109     27111     27110     27112     27114     27113     27115
     27117     27116     27118     27120     27119     27121     27123     27122     27124
     27126     27125     27127     27129     27128     27130     27132     27131     27133
     27135     27134     27136     27138     27137     27139     27141     27140     27142
     27144     27143     27145     27147     27146     27148     27150     27149     27151
     27153     27152     27154     27156     27155     27157     27159     27158     27160
     27162     27161     27163     27165     27164     27166     27168     27167     27169
     27171     27170     27172     27174     27173     27175     27177     27176     27178
     27180     27179     27181     27183     27182     27184     27186     27185     27187
     27189     27188     27190     27192     27191     27193     27195     27194     27196
     27198     27197     27199     27201     27200     27202     27204     27203     27205
     27207     27206     27208     27210     27209     27211     27213     27212     27214
     27216     27215     27217     27219     27218     27220     27222     27221     27223
     27225     27224     27226     27228     27227     27229     27231     27230     27232
     27234     27233     27235     27237     27236     27238     27240     27239     27241
     27243     27242     27244     27246     27245     27247     27249     27248     27250
     27252     27251     27253     27255     27254     27256     27258     27257     27259
     27261     27260     27262     27264     27263     27265     27267     27266     27268
     27270     27269     27271     27273     27272     27274     27276     27275     27277
     27279     27278     27280     27282     27281     27283     27285     27284     27286
     27288     27287     27289     27291     27290     27292     27294     27293     27295
     27297     27296     27298     27300     27299     27301     27303     27302     27304
     27306     27305     27307     27309     27308     27310     27312     27311     27313
     27315     27314     27316     27318     27317     27319     27321     27320     27322
     27324     27323     27325     27327     27326     27328     27330     27329     27331
     27333     27332     27334     27336     27335     27337     27339     27338     27340
     27342     27341     27343     27345     27344     27346     27348     27347     27349
     27351     27350     27352     27354     27353     27355     27357     27356     27358
     27360     27359     27361     27363     27362     27364     27366     27365     27367
     27369     27368     27370     27372     27371     27373     27375     27374     27376
     27378     27377     27379     27381     27380     27382     27384     27383     27385
     27387     27386     27388     27390     27389     27391     27393     27392     27394
     27396     27395     27397     27399     27398     27400     27402     27401     27403
     27405     27404     27406     27408     27407     27409     27411     27410     27412
     27414     27413     27415     27417     27416     27418     27420     27419     27421
     27423     27422     27424     27426     27425     27427     27429     27428     27430
     27432     27431     27433     27435     27434     27436     27438     27437     27439
     27441     27440     27442     27444     27443     27445     27447     27446     27448
     27450     27449     27451     27453     27452     27454     27456     27455     27457
     27459     27458     27460     27462     27461     27463     27465     27464     27466
     27468     27467     27469     27471     27470     27472     27474     27473     27475
     27477     27476     27478     27480     27479     27481     27483     27482     27484
     27486     27485     27487     27489     27488     27490     27492     27491     27493
     27495     27494     27496     27498     27497     27499     27501     27500     27502
     27504     27503     27505     27507     27506     27508     27510     27509     27511
     27513     27512     27514     27516     27515     27517     27519     27518     27520
     27522     27521     27523     27525     27524     27526     27528     27527     27529
     27531     27530     27532     27534     27533     27535     27537     27536     27538
     27540     27539     27541     27543     27542     27544     27546     27545     27547
     27549     27548     27550     27552     27551     27553     27555     27554     27556
     27558     27557     27559     27561     27560     27562     27564     27563     27565
     27567     27566     27568     27570     27569     27571     27573     27572     27574
     27576     27575     27577     27579     27578     27580     27582     27581     27583
     27585     27584     27586     27588     27587     27589     27591     27590     27592
     27594     27593     27595     27597     27596     27598     27600     27599     27601
     27603     27602     27604     27606     27605     27607     27609     27608     27610
     27612     27611     27613     27615     27614     27616     27618     27617     27619
     27621     27620     27622     27624     27623     27625     27627     27626     27628
     27630     27629     27631     27633     27632     27634     27636     27635     27637
     27639     27638     27640     27642     27641     27643     27645     27644     27646
     27648     27647     27649     27651     27650     27652     27654     27653     27655
     27657     27656     27658     27660     27659     27661     27663     27662     27664
     27666     27665     27667     27669     27668     27670     27672     27671     27673
     27675     27674     27676     27678     27677     27679     27681     27680     27682
     27684     27683     27685     27687     27686     27688     27690     27689     27691
     27693     27692     27694     27696     27695     27697     27699     27698     27700
     27702     27701     27703     27705     27704     27706     27708     27707     27709
     27711     27710     27712     27714     27713     27715     27717     27716     27718
     27720     27719     27721     27723     27722     27724     27726     27725     27727
     27729     27728     27730     27732     27731     27733     27735     27734     27736
     27738     27737     27739     27741     27740     27742     27744     27743     27745
     27747     27746     27748     27750     27749     27751     27753     27752     27754
     27756     27755     27757     27759     27758     27760     27762     27761     27763
     27765     27764     27766     27768     27767     27769     27771     27770     27772
     27774     27773     27775     27777     27776     27778     27780     27779     27781
     27783     27782     27784     27786     27785     27787     27789     27788     27790
     27792     27791     27793     27795     27794     27796     27798     27797     27799
     27801     27800     27802     27804     27803     27805     27807     27806     27808
     27810     27809     27811     27813     27812     27814     27816     27815     27817
     27819     27818     27820     27822     27821     27823     27825     27824     27826
     27828     27827     27829     27831     27830     27832     27834     27833     27835
     27837     27836     27838     27840     27839     27841     27843     27842     27844
     27846     27845     27847     27849     27848     27850     27852     27851     27853
     27855     27854     27856     27858     27857     27859     27861     27860     27862
     27864     27863     27865     27867     27866     27868     27870     27869     27871
     27873     27872     27874     27876     27875     27877     27879     27878     27880
     27882     27881     27883     27885     27884     27886     27888     27887     27889
     27891     27890     27892     27894     27893     27895     27897     27896     27898
     27900     27899     27901     27903     27902     27904     27906     27905     27907
     27909     27908     27910     27912     27911     27913     27915     27914     27916
     27918     27917     27919     27921     27920     27922     27924     27923     27925
     27927     27926     27928     27930     27929     27931     27933     27932     27934
     27936     27935     27937     27939     27938     27940     27942     27941     27943
     27945     27944     27946     27948     27947     27949     27951     27950     27952
     27954     27953     27955     27957     27956     27958     27960     27959     27961
     27963     27962     27964     27966     27965     27967     27969     27968     27970
     27972     27971     27973     27975     27974     27976     27978     27977     27979
     27981     27980     27982     27984     27983     27985     27987     27986     27988
     27990     27989     27991     27993     27992     27994     27996     27995     27997
     27999     27998     28000     28002     28001     28003     28005     28004     28006
     28008     28007     28009     28011     28010     28012     28014     28013     28015
     28017     28016     28018     28020     28019     28021     28023     28022     28024
     28026     28025     28027     28029     28028     28030     28032     28031     28033
     28035     28034     28036     28038     28037     28039     28041     28040     28042
     28044     28043     28045     28047     28046     28048     28050     28049     28051
     28053     28052     28054     28056     28055     28057     28059     28058     28060
     28062     28061     28063     28065     28064     28066     28068     28067     28069
     28071     28070     28072     28074     28073     28075     28077     28076     28078
     28080     28079     28081     28083     28082     28084     28086     28085     28087
     28089     28088     28090     28092     28091     28093     28095     28094     28096
     28098     28097     28099     28101     28100     28102     28104     28103     28105
     28107     28106     28108     28110     28109     28111     28113     28112     28114
     28116     28115     28117     28119     28118     28120     28122     28121     28123
     28125     28124     28126     28128     28127     28129     28131     28130     28132
     28134     28133     28135     28137     28136     28138     28140     28139     28141
     28143     28142     28144     28146     28145     28147     28149     28148     28150
     28152     28151     28153     28155     28154     28156     28158     28157     28159
     28161     28160     28162     28164     28163     28165     28167     28166     28168
     28170     28169     28171     28173     28172     28174     28176     28175     28177
     28179     28178     28180     28182     28181     28183     28185     28184     28186
     28188     28187     28189     28191     28190     28192     28194     28193     28195
     28197     28196     28198     28200     28199     28201     28203     28202     28204
     28206     28205     28207     28209     28208     28210     28212     28211     28213
     28215     28214     28216     28218     28217     28219     28221     28220     28222
     28224     28223     28225     28227     28226     28228     28230     28229     28231
     28233     28232     28234     28236     28235     28237     28239     28238     28240
     28242     28241     28243     28245     28244     28246     28248     28247     28249
     28251     28250     28252     28254     28253     28255     28257     28256     28258
     28260     28259     28261     28263     28262     28264     28266     28265     28267
     28269     28268     28270     28272     28271     28273     28275     28274     28276
     28278     28277     28279     28281     28280     28282     28284     28283     28285
     28287     28286     28288     28290     28289     28291     28293     28292     28294
     28296     28295     28297     28299     28298     28300     28302     28301     28303
     28305     28304     28306     28308     28307     28309     28311     28310     28312
     28314     28313     28315     28317     28316     28318     28320     28319     28321
     28323     28322     28324     28326     28325     28327     28329     28328     28330
     28332     28331     28333     28335     28334     28336     28338     28337     28339
     28341     28340     28342     28344     28343     28345     28347     28346     28348
     28350     28349     28351     28353     28352     28354     28356     28355     28357
     28359     28358     28360     28362     28361     28363     28365     28364     28366
     28368     28367     28369     28371     28370     28372     28374     28373     28375
     28377     28376     28378     28380     28379     28381     28383     28382     28384
     28386     28385     28387     28389     28388     28390     28392     28391     28393
     28395     28394     28396     28398     28397     28399     28401     28400     28402
     28404     28403     28405     28407     28406     28408     28410     28409     28411
     28413     28412     28414     28416     28415     28417     28419     28418     28420
     28422     28421     28423     28425     28424     28426     28428     28427     28429
     28431     28430     28432     28434     28433     28435     28437     28436     28438
     28440     28439     28441     28443     28442     28444     28446     28445     28447
     28449     28448     28450     28452     28451     28453     28455     28454     28456
     28458     28457     28459     28461     28460     28462     28464     28463     28465
     28467     28466     28468     28470     28469     28471     28473     28472     28474
     28476     28475     28477     28479     28478     28480     28482     28481     28483
     28485     28484     28486     28488     28487     28489     28491     28490     28492
     28494     28493     28495     28497     28496     28498     28500     28499     28501
     28503     28502     28504     28506     28505     28507     28509     28508     28510
     28512     28511     28513     28515     28514     28516     28518     28517     28519
     28521     28520     28522     28524     28523     28525     28527     28526     28528
     28530     28529     28531     28533     28532     28534     28536     28535     28537
     28539     28538     28540     28542     28541     28543     28545     28544     28546
     28548     28547     28549     28551     28550     28552     28554     28553     28555
     28557     28556     28558     28560     28559     28561     28563     28562     28564
     28566     28565     28567     28569     28568     28570     28572     28571     28573
     28575     28574     28576     28578     28577     28579     28581     28580     28582
     28584     28583     28585     28587     28586     28588     28590     28589     28591
     28593     28592     28594     28596     28595     28597     28599     28598     28600
     28602     28601     28603     28605     28604     28606     28608     28607     28609
     28611     28610     28612     28614     28613     28615     28617     28616     28618
     28620     28619     28621     28623     28622     28624     28626     28625     28627
     28629     28628     28630     28632     28631     28633     28635     28634     28636
     28638     28637     28639     28641     28640     28642     28644     28643     28645
     28647     28646     28648     28650     28649     28651     28653     28652     28654
     28656     28655     28657     28659     28658     28660     28662     28661     28663
     28665     28664     28666     28668     28667     28669     28671     28670     28672
     28674     28673     28675     28677     28676     28678     28680     28679     28681
     28683     28682     28684     28686     28685     28687     28689     28688     28690
     28692     28691     28693     28695     28694     28696     28698     28697     28699
     28701     28700     28702     28704     28703     28705     28707     28706     28708
     28710     28709     28711     28713     28712     28714     28716     28715     28717
     28719     28718     28720     28722     28721     28723     28725     28724     28726
     28728     28727     28729     28731     28730     28732     28734     28733     28735
     28737     28736     28738     28740     28739     28741     28743     28742     28744
     28746     28745     28747     28749     28748     28750     28752     28751     28753
     28755     28754     28756     28758     28757     28759     28761     28760     28762
     28764     28763     28765     28767     28766     28768     28770     28769     28771
     28773     28772     28774     28776     28775     28777     28779     28778     28780
     28782     28781     28783     28785     28784     28786     28788     28787     28789
     28791     28790     28792     28794     28793     28795     28797     28796     28798
     28800     28799     28801     28803     28802     28804     28806     28805     28807
     28809     28808     28810     28812     28811     28813     28815     28814     28816
     28818     28817     28819     28821     28820     28822     28824     28823     28825
     28827     28826     28828     28830     28829     28831     28833     28832     28834
     28836     28835     28837     28839     28838     28840     28842     28841     28843
     28845     28844     28846     28848     28847     28849     28851     28850     28852
     28854     28853     28855     28857     28856     28858     28860     28859     28861
     28863     28862     28864     28866     28865     28867     28869     28868     28870
     28872     28871     28873     28875     28874     28876     28878     28877     28879
     28881     28880     28882     28884     28883     28885     28887     28886     28888
     28890     28889     28891     28893     28892     28894     28896     28895     28897
     28899     28898     28900     28902     28901     28903     28905     28904     28906
     28908     28907     28909     28911     28910     28912     28914     28913     28915
     28917     28916     28918     28920     28919     28921     28923     28922     28924
     28926     28925     28927     28929     28928     28930     28932     28931     28933
     28935     28934     28936     28938     28937     28939     28941     28940     28942
     28944     28943     28945     28947     28946     28948     28950     28949     28951
     28953     28952     28954     28956     28955     28957     28959     28958     28960
     28962     28961     28963     28965     28964     28966     28968     28967     28969
     28971     28970     28972     28974     28973     28975     28977     28976     28978
     28980     28979     28981     28983     28982     28984     28986     28985     28987
     28989     28988     28990     28992     28991     28993     28995     28994     28996
     28998     28997     28999     29001     29000     29002     29004     29003     29005
     29007     29006     29008     29010     29009     29011     29013     29012     29014
     29016     29015     29017     29019     29018     29020     29022     29021     29023
     29025     29024     29026     29028     29027     29029     29031     29030     29032
     29034     29033     29035     29037     29036     29038     29040     29039     29041
     29043     29042     29044     29046     29045     29047     29049     29048     29050
     29052     29051     29053     29055     29054     29056     29058     29057     29059
     29061     29060     29062     29064     29063     29065     29067     29066     29068
     29070     29069     29071     29073     29072     29074     29076     29075     29077
     29079     29078     29080     29082     29081     29083     29085     29084     29086
     29088     29087     29089     29091     29090     29092     29094     29093     29095
     29097     29096     29098     29100     29099     29101     29103     29102     29104
     29106     29105     29107     29109     29108     29110     29112     29111     29113
     29115     29114     29116     29118     29117     29119     29121     29120     29122
     29124     29123     29125     29127     29126     29128     29130     29129     29131
     29133     29132     29134     29136     29135     29137     29139     29138     29140
     29142     29141     29143     29145     29144     29146     29148     29147     29149
     29151     29150     29152     29154     29153     29155     29157     29156     29158
     29160     29159     29161     29163     29162     29164     29166     29165     29167
     29169     29168     29170     29172     29171     29173     29175     29174     29176
     29178     29177     29179     29181     29180     29182     29184     29183     29185
     29187     29186     29188     29190     29189     29191     29193     29192     29194
     29196     29195     29197     29199     29198     29200     29202     29201     29203
     29205     29204     29206     29208     29207     29209     29211     29210     29212
     29214     29213     29215     29217     29216     29218     29220     29219     29221
     29223     29222     29224     29226     29225     29227     29229     29228     29230
     29232     29231     29233     29235     29234     29236     29238     29237     29239
     29241     29240     29242     29244     29243     29245     29247     29246     29248
     29250     29249     29251     29253     29252     29254     29256     29255     29257
     29259     29258     29260     29262     29261     29263     29265     29264     29266
     29268     29267     29269     29271     29270     29272     29274     29273     29275
     29277     29276     29278     29280     29279     29281     29283     29282     29284
     29286     29285     29287     29289     29288     29290     29292     29291     29293
     29295     29294     29296     29298     29297     29299     29301     29300     29302
     29304     29303     29305     29307     29306     29308     29310     29309     29311
     29313     29312     29314     29316     29315     29317     29319     29318     29320
     29322     29321     29323     29325     29324     29326     29328     29327     29329
     29331     29330     29332     29334     29333     29335     29337     29336     29338
     29340     29339     29341     29343     29342     29344     29346     29345     29347
     29349     29348     29350     29352     29351     29353     29355     29354     29356
     29358     29357     29359     29361     29360     29362     29364     29363     29365
     29367     29366     29368     29370     29369     29371     29373     29372     29374
     29376     29375     29377     29379     29378     29380     29382     29381     29383
     29385     29384     29386     29388     29387     29389     29391     29390     29392
     29394     29393     29395     29397     29396     29398     29400     29399     29401
     29403     29402     29404     29406     29405     29407     29409     29408     29410
     29412     29411     29413     29415     29414     29416     29418     29417     29419
     29421     29420     29422     29424     29423     29425     29427     29426     29428
     29430     29429     29431     29433     29432     29434     29436     29435     29437
     29439     29438     29440     29442     29441     29443     29445     29444     29446
     29448     29447     29449     29451     29450     29452     29454     29453     29455
     29457     29456     29458     29460     29459     29461     29463     29462     29464
     29466     29465     29467     29469     29468     29470     29472     29471     29473
     29475     29474     29476     29478     29477     29479     29481     29480     29482
     29484     29483     29485     29487     29486     29488     29490     29489     29491
     29493     29492     29494     29496     29495     29497     29499     29498     29500
     29502     29501     29503     29505     29504     29506     29508     29507     29509
     29511     29510     29512     29514     29513     29515     29517     29516     29518
     29520     29519     29521     29523     29522     29524     29526     29525     29527
     29529     29528     29530     29532     29531     29533     29535     29534     29536
     29538     29537     29539     29541     29540     29542     29544     29543     29545
     29547     29546     29548     29550     29549     29551     29553     29552     29554
     29556     29555     29557     29559     29558     29560     29562     29561     29563
     29565     29564     29566     29568     29567     29569     29571     29570     29572
     29574     29573     29575     29577     29576     29578     29580     29579     29581
     29583     29582     29584     29586     29585     29587     29589     29588     29590
     29592     29591     29593     29595     29594     29596     29598     29597     29599
     29601     29600     29602     29604     29603     29605     29607     29606     29608
     29610     29609     29611     29613     29612     29614     29616     29615     29617
     29619     29618     29620     29622     29621     29623     29625     29624     29626
     29628     29627     29629     29631     29630     29632     29634     29633     29635
     29637     29636     29638     29640     29639     29641     29643     29642     29644
     29646     29645     29647     29649     29648     29650     29652     29651     29653
     29655     29654     29656     29658     29657     29659     29661     29660     29662
     29664     29663     29665     29667     29666     29668     29670     29669     29671
     29673     29672     29674     29676     29675     29677     29679     29678     29680
     29682     29681     29683     29685     29684     29686     29688     29687     29689
     29691     29690     29692     29694     29693     29695     29697     29696     29698
     29700     29699     29701     29703     29702     29704     29706     29705     29707
     29709     29708     29710     29712     29711     29713     29715     29714     29716
     29718     29717     29719     29721     29720     29722     29724     29723     29725
     29727     29726     29728     29730     29729     29731     29733     29732     29734
     29736     29735     29737     29739     29738     29740     29742     29741     29743
     29745     29744     29746     29748     29747     29749     29751     29750     29752
     29754     29753     29755     29757     29756     29758     29760     29759     29761
     29763     29762     29764     29766     29765     29767     29769     29768     29770
     29772     29771     29773     29775     29774     29776     29778     29777     29779
     29781     29780     29782     29784     29783     29785     29787     29786     29788
     29790     29789     29791     29793     29792     29794     29796     29795     29797
     29799     29798     29800     29802     29801     29803     29805     29804     29806
     29808     29807     29809     29811     29810     29812     29814     29813     29815
     29817     29816     29818     29820     29819     29821     29823     29822     29824
     29826     29825     29827     29829     29828     29830     29832     29831     29833
     29835     29834     29836     29838     29837     29839     29841     29840     29842
     29844     29843     29845     29847     29846     29848     29850     29849     29851
     29853     29852     29854     29856     29855     29857     29859     29858     29860
     29862     29861     29863     29865     29864     29866     29868     29867     29869
     29871     29870     29872     29874     29873     29875     29877     29876     29878
     29880     29879     29881     29883     29882     29884     29886     29885     29887
     29889     29888     29890     29892     29891     29893     29895     29894     29896
     29898     29897     29899     29901     29900     29902     29904     29903     29905
     29907     29906     29908     29910     29909     29911     29913     29912     29914
     29916     29915     29917     29919     29918     29920     29922     29921     29923
     29925     29924     29926     29928     29927     29929     29931     29930     29932
     29934     29933     29935     29937     29936     29938     29940     29939     29941
     29943     29942     29944     29946     29945     29947     29949     29948     29950
     29952     29951     29953     29955     29954     29956     29958     29957     29959
     29961     29960     29962     29964     29963     29965     29967     29966     29968
     29970     29969     29971     29973     29972     29974     29976     29975     29977
     29979     29978     29980     29982     29981     29983     29985     29984     29986
     29988     29987     29989     29991     29990     29992     29994     29993     29995
     29997     29996     29998     30000     29999     30001     30003     30002     30004
     30006     30005     30007     30009     30008     30010     30012     30011     30013
     30015     30014     30016     30018     30017     30019     30021     30020     30022
     30024     30023     30025     30027     30026     30028     30030     30029     30031
     30033     30032     30034     30036     30035     30037     30039     30038     30040
     30042     30041     30043     30045     30044     30046     30048     30047     30049
     30051     30050     30052     30054     30053     30055     30057     30056     30058
     30060     30059     30061     30063     30062     30064     30066     30065     30067
     30069     30068     30070     30072     30071     30073     30075     30074     30076
     30078     30077     30079     30081     30080     30082     30084     30083     30085
     30087     30086     30088     30090     30089     30091     30093     30092     30094
     30096     30095     30097     30099     30098     30100     30102     30101     30103
     30105     30104     30106     30108     30107     30109     30111     30110     30112
     30114     30113     30115     30117     30116     30118     30120     30119     30121
     30123     30122     30124     30126     30125     30127     30129     30128     30130
     30132     30131     30133     30135     30134     30136     30138     30137     30139
     30141     30140     30142     30144     30143     30145     30147     30146     30148
     30150     30149     30151     30153     30152     30154     30156     30155     30157
     30159     30158     30160     30162     30161     30163     30165     30164     30166
     30168     30167     30169     30171     30170     30172     30174     30173     30175
     30177     30176     30178     30180     30179     30181     30183     30182     30184
     30186     30185     30187     30189     30188     30190     30192     30191     30193
     30195     30194     30196     30198     30197     30199     30201     30200     30202
     30204     30203     30205     30207     30206     30208     30210     30209     30211
     30213     30212     30214     30216     30215     30217     30219     30218     30220
     30222     30221     30223     30225     30224     30226     30228     30227     30229
     30231     30230     30232     30234     30233     30235     30237     30236     30238
     30240     30239     30241     30243     30242     30244     30246     30245     30247
     30249     30248     30250     30252     30251     30253     30255     30254     30256
     30258     30257     30259     30261     30260     30262     30264     30263     30265
     30267     30266     30268     30270     30269     30271     30273     30272     30274
     30276     30275     30277     30279     30278     30280     30282     30281     30283
     30285     30284     30286     30288     30287     30289     30291     30290     30292
     30294     30293     30295     30297     30296     30298     30300     30299     30301
     30303     30302     30304     30306     30305     30307     30309     30308     30310
     30312     30311     30313     30315     30314     30316     30318     30317     30319
     30321     30320     30322     30324     30323     30325     30327     30326     30328
     30330     30329     30331     30333     30332     30334     30336     30335     30337
     30339     30338     30340     30342     30341     30343     30345     30344     30346
     30348     30347     30349     30351     30350     30352     30354     30353     30355
     30357     30356     30358     30360     30359     30361     30363     30362     30364
     30366     30365     30367     30369     30368     30370     30372     30371     30373
     30375     30374     30376     30378     30377     30379     30381     30380     30382
     30384     30383     30385     30387     30386     30388     30390     30389     30391
     30393     30392     30394     30396     30395     30397     30399     30398     30400
     30402     30401     30403     30405     30404     30406     30408     30407     30409
     30411     30410     30412     30414     30413     30415     30417     30416     30418
     30420     30419     30421     30423     30422     30424     30426     30425     30427
     30429     30428     30430     30432     30431     30433     30435     30434     30436
     30438     30437     30439     30441     30440     30442     30444     30443     30445
     30447     30446     30448     30450     30449     30451     30453     30452     30454
     30456     30455     30457     30459     30458     30460     30462     30461     30463
     30465     30464     30466     30468     30467     30469     30471     30470     30472
     30474     30473     30475     30477     30476     30478     30480     30479     30481
     30483     30482     30484     30486     30485     30487     30489     30488     30490
     30492     30491     30493     30495     30494     30496     30498     30497     30499
     30501     30500     30502     30504     30503     30505     30507     30506     30508
     30510     30509     30511     30513     30512     30514     30516     30515     30517
     30519     30518     30520     30522     30521     30523     30525     30524     30526
     30528     30527     30529     30531     30530     30532     30534     30533     30535
     30537     30536     30538     30540     30539     30541     30543     30542     30544
     30546     30545     30547     30549     30548     30550     30552     30551     30553
     30555     30554     30556     30558     30557     30559     30561     30560     30562
     30564     30563     30565     30567     30566     30568     30570     30569     30571
     30573     30572     30574     30576     30575     30577     30579     30578     30580
     30582     30581     30583     30585     30584     30586     30588     30587     30589
     30591     30590     30592     30594     30593     30595     30597     30596     30598
     30600     30599     30601     30603     30602     30604     30606     30605     30607
     30609     30608     30610     30612     30611     30613     30615     30614     30616
     30618     30617     30619     30621     30620     30622     30624     30623     30625
     30627     30626     30628     30630     30629     30631     30633     30632     30634
     30636     30635     30637     30639     30638     30640     30642     30641     30643
     30645     30644     30646     30648     30647     30649     30651     30650     30652
     30654     30653     30655     30657     30656     30658     30660     30659     30661
     30663     30662     30664     30666     30665     30667     30669     30668     30670
     30672     30671     30673     30675     30674     30676     30678     30677     30679
     30681     30680     30682     30684     30683     30685     30687     30686     30688
     30690     30689     30691     30693     30692     30694     30696     30695     30697
     30699     30698     30700     30702     30701     30703     30705     30704     30706
     30708     30707     30709     30711     30710     30712     30714     30713     30715
     30717     30716     30718     30720     30719     30721     30723     30722     30724
     30726     30725     30727     30729     30728     30730     30732     30731     30733
     30735     30734     30736     30738     30737     30739     30741     30740     30742
     30744     30743     30745     30747     30746     30748     30750     30749     30751
     30753     30752     30754     30756     30755     30757     30759     30758     30760
     30762     30761     30763     30765     30764     30766     30768     30767     30769
     30771     30770     30772     30774     30773     30775     30777     30776     30778
     30780     30779     30781     30783     30782     30784     30786     30785     30787
     30789     30788     30790     30792     30791     30793     30795     30794     30796
     30798     30797     30799     30801     30800     30802     30804     30803     30805
     30807     30806     30808     30810     30809     30811     30813     30812     30814
     30816     30815     30817     30819     30818     30820     30822     30821     30823
     30825     30824     30826     30828     30827     30829     30831     30830     30832
     30834     30833     30835     30837     30836     30838     30840     30839     30841
     30843     30842     30844     30846     30845     30847     30849     30848     30850
     30852     30851     30853     30855     30854     30856     30858     30857     30859
     30861     30860     30862     30864     30863     30865     30867     30866     30868
     30870     30869     30871     30873     30872     30874     30876     30875     30877
     30879     30878     30880     30882     30881     30883     30885     30884     30886
     30888     30887     30889     30891     30890     30892     30894     30893     30895
     30897     30896     30898     30900     30899     30901     30903     30902     30904
     30906     30905     30907     30909     30908     30910     30912     30911     30913
     30915     30914     30916     30918     30917     30919     30921     30920     30922
     30924     30923     30925     30927     30926     30928     30930     30929     30931
     30933     30932     30934     30936     30935     30937     30939     30938     30940
     30942     30941     30943     30945     30944     30946     30948     30947     30949
     30951     30950     30952     30954     30953     30955     30957     30956     30958
     30960     30959     30961     30963     30962     30964     30966     30965     30967
     30969     30968     30970     30972     30971     30973     30975     30974     30976
     30978     30977     30979     30981     30980     30982     30984     30983     30985
     30987     30986     30988     30990     30989     30991     30993     30992     30994
     30996     30995     30997     30999     30998     31000     31002     31001     31003
     31005     31004     31006     31008     31007     31009     31011     31010     31012
     31014     31013     31015     31017     31016     31018     31020     31019     31021
     31023     31022     31024     31026     31025     31027     31029     31028     31030
     31032     31031     31033     31035     31034     31036     31038     31037     31039
     31041     31040     31042     31044     31043     31045     31047     31046     31048
     31050     31049     31051     31053     31052     31054     31056     31055     31057
     31059     31058     31060     31062     31061     31063     31065     31064     31066
     31068     31067     31069     31071     31070     31072     31074     31073     31075
     31077     31076     31078     31080     31079     31081     31083     31082     31084
     31086     31085     31087     31089     31088     31090     31092     31091     31093
     31095     31094     31096     31098     31097     31099     31101     31100     31102
     31104     31103     31105     31107     31106     31108     31110     31109     31111
     31113     31112     31114     31116     31115     31117     31119     31118     31120
     31122     31121     31123     31125     31124     31126     31128     31127     31129
     31131     31130     31132     31134     31133     31135     31137     31136     31138
     31140     31139     31141     31143     31142     31144     31146     31145     31147
     31149     31148     31150     31152     31151     31153     31155     31154     31156
     31158     31157     31159     31161     31160     31162     31164     31163     31165
     31167     31166     31168     31170     31169     31171     31173     31172     31174
     31176     31175     31177     31179     31178     31180     31182     31181     31183
     31185     31184     31186     31188     31187     31189     31191     31190     31192
     31194     31193     31195     31197     31196     31198     31200     31199     31201
     31203     31202     31204     31206     31205     31207     31209     31208     31210
     31212     31211     31213     31215     31214     31216     31218     31217     31219
     31221     31220     31222     31224     31223     31225     31227     31226     31228
     31230     31229     31231     31233     31232     31234     31236     31235     31237
     31239     31238     31240     31242     31241     31243     31245     31244     31246
     31248     31247     31249     31251     31250     31252     31254     31253     31255
     31257     31256     31258     31260     31259     31261     31263     31262     31264
     31266     31265     31267     31269     31268     31270     31272     31271     31273
     31275     31274     31276     31278     31277     31279     31281     31280     31282
     31284     31283     31285     31287     31286     31288     31290     31289     31291
     31293     31292     31294     31296     31295     31297     31299     31298     31300
     31302     31301     31303     31305     31304     31306     31308     31307     31309
     31311     31310     31312     31314     31313     31315     31317     31316     31318
     31320     31319     31321     31323     31322     31324     31326     31325     31327
     31329     31328     31330     31332     31331     31333     31335     31334     31336
     31338     31337     31339     31341     31340     31342     31344     31343     31345
     31347     31346     31348     31350     31349     31351     31353     31352     31354
     31356     31355     31357     31359     31358     31360     31362     31361     31363
     31365     31364     31366     31368     31367     31369     31371     31370     31372
     31374     31373     31375     31377     31376     31378     31380     31379     31381
     31383     31382     31384     31386     31385     31387     31389     31388     31390
     31392     31391     31393     31395     31394     31396     31398     31397     31399
     31401     31400     31402     31404     31403     31405     31407     31406     31408
     31410     31409     31411     31413     31412     31414     31416     31415     31417
     31419     31418     31420     31422     31421     31423     31425     31424     31426
     31428     31427     31429     31431     31430     31432     31434     31433     31435
     31437     31436     31438     31440     31439     31441     31443     31442     31444
     31446     31445     31447     31449     31448     31450     31452     31451     31453
     31455     31454     31456     31458     31457     31459     31461     31460     31462
     31464     31463     31465     31467     31466     31468     31470     31469     31471
     31473     31472     31474     31476     31475     31477     31479     31478     31480
     31482     31481     31483     31485     31484     31486     31488     31487     31489
     31491     31490     31492     31494     31493     31495     31497     31496     31498
     31500     31499     31501     31503     31502     31504     31506     31505     31507
     31509     31508     31510     31512     31511     31513     31515     31514     31516
     31518     31517     31519     31521     31520     31522     31524     31523     31525
     31527     31526     31528     31530     31529     31531     31533     31532     31534
     31536     31535     31537     31539     31538     31540     31542     31541     31543
     31545     31544     31546     31548     31547     31549     31551     31550     31552
     31554     31553     31555     31557     31556     31558     31560     31559     31561
     31563     31562     31564     31566     31565     31567     31569     31568     31570
     31572     31571     31573     31575     31574     31576     31578     31577     31579
     31581     31580     31582     31584     31583     31585     31587     31586     31588
     31590     31589     31591     31593     31592     31594     31596     31595     31597
     31599     31598     31600     31602     31601     31603     31605     31604     31606
     31608     31607     31609     31611     31610     31612     31614     31613     31615
     31617     31616     31618     31620     31619     31621     31623     31622     31624
     31626     31625     31627     31629     31628     31630     31632     31631     31633
     31635     31634     31636     31638     31637     31639     31641     31640     31642
     31644     31643     31645     31647     31646     31648     31650     31649     31651
     31653     31652     31654     31656     31655     31657     31659     31658     31660
     31662     31661     31663     31665     31664     31666     31668     31667     31669
     31671     31670     31672     31674     31673     31675     31677     31676     31678
     31680     31679     31681     31683     31682     31684     31686     31685     31687
     31689     31688     31690     31692     31691     31693     31695     31694     31696
     31698     31697     31699     31701     31700     31702     31704     31703     31705
     31707     31706     31708     31710     31709     31711     31713     31712     31714
     31716     31715     31717     31719     31718     31720     31722     31721     31723
     31725     31724     31726     31728     31727     31729     31731     31730     31732
     31734     31733     31735     31737     31736     31738     31740     31739     31741
     31743     31742     31744     31746     31745     31747     31749     31748     31750
     31752     31751     31753     31755     31754     31756     31758     31757     31759
     31761     31760     31762     31764     31763     31765     31767     31766     31768
     31770     31769     31771     31773     31772     31774     31776     31775     31777
     31779     31778     31780     31782     31781     31783     31785     31784     31786
     31788     31787     31789     31791     31790     31792     31794     31793     31795
     31797     31796     31798     31800     31799     31801     31803     31802     31804
     31806     31805     31807     31809     31808     31810     31812     31811     31813
     31815     31814     31816     31818     31817     31819     31821     31820     31822
     31824     31823     31825     31827     31826     31828     31830     31829     31831
     31833     31832     31834     31836     31835     31837     31839     31838     31840
     31842     31841     31843     31845     31844     31846     31848     31847     31849
     31851     31850     31852     31854     31853     31855     31857     31856     31858
     31860     31859     31861     31863     31862     31864     31866     31865     31867
     31869     31868     31870     31872     31871     31873     31875     31874     31876
     31878     31877     31879     31881     31880     31882     31884     31883     31885
     31887     31886     31888     31890     31889     31891     31893     31892     31894
     31896     31895     31897     31899     31898     31900     31902     31901     31903
     31905     31904     31906     31908     31907     31909     31911     31910     31912
     31914     31913     31915     31917     31916     31918     31920     31919     31921
     31923     31922     31924     31926     31925     31927     31929     31928     31930
     31932     31931     31933     31935     31934     31936     31938     31937     31939
     31941     31940     31942     31944     31943     31945     31947     31946     31948
     31950     31949     31951     31953     31952     31954     31956     31955     31957
     31959     31958     31960     31962     31961     31963     31965     31964     31966
     31968     31967     31969     31971     31970     31972     31974     31973     31975
     31977     31976     31978     31980     31979     31981     31983     31982     31984
     31986     31985     31987     31989     31988     31990     31992     31991     31993
     31995     31994     31996     31998     31997     31999     32001     32000     32002
     32004     32003     32005     32007     32006     32008     32010     32009     32011
     32013     32012     32014     32016     32015     32017     32019     32018     32020
     32022     32021     32023     32025     32024     32026     32028     32027     32029
     32031     32030     32032     32034     32033     32035     32037     32036     32038
     32040     32039     32041     32043     32042     32044     32046     32045     32047
     32049     32048     32050     32052     32051     32053     32055     32054     32056
     32058     32057     32059     32061     32060     32062     32064     32063     32065
     32067     32066     32068     32070     32069     32071     32073     32072     32074
     32076     32075     32077     32079     32078     32080     32082     32081     32083
     32085     32084     32086     32088     32087     32089     32091     32090     32092
     32094     32093     32095     32097     32096     32098     32100     32099     32101
     32103     32102     32104     32106     32105     32107     32109     32108     32110
     32112     32111     32113     32115     32114     32116     32118     32117     32119
     32121     32120     32122     32124     32123     32125     32127     32126     32128
     32130     32129     32131     32133     32132     32134     32136     32135     32137
     32139     32138     32140     32142     32141     32143     32145     32144     32146
     32148     32147     32149     32151     32150     32152     32154     32153     32155
     32157     32156     32158     32160     32159     32161     32163     32162     32164
     32166     32165     32167     32169     32168     32170     32172     32171     32173
     32175     32174     32176     32178     32177     32179     32181     32180     32182
     32184     32183     32185     32187     32186     32188     32190     32189     32191
     32193     32192     32194     32196     32195     32197     32199     32198     32200
     32202     32201     32203     32205     32204     32206     32208     32207     32209
     32211     32210     32212     32214     32213     32215     32217     32216     32218
     32220     32219     32221     32223     32222     32224     32226     32225     32227
     32229     32228     32230     32232     32231     32233     32235     32234     32236
     32238     32237     32239     32241     32240     32242     32244     32243     32245
     32247     32246     32248     32250     32249     32251     32253     32252     32254
     32256     32255     32257     32259     32258     32260     32262     32261     32263
     32265     32264     32266     32268     32267     32269     32271     32270     32272
     32274     32273     32275     32277     32276     32278     32280     32279     32281
     32283     32282     32284     32286     32285     32287     32289     32288     32290
     32292     32291     32293     32295     32294     32296     32298     32297     32299
     32301     32300     32302     32304     32303     32305     32307     32306     32308
     32310     32309     32311     32313     32312     32314     32316     32315     32317
     32319     32318     32320     32322     32321     32323     32325     32324     32326
     32328     32327     32329     32331     32330     32332     32334     32333     32335
     32337     32336     32338     32340     32339     32341     32343     32342     32344
     32346     32345     32347     32349     32348     32350     32352     32351     32353
     32355     32354     32356     32358     32357     32359     32361     32360     32362
     32364     32363     32365     32367     32366     32368     32370     32369     32371
     32373     32372     32374     32376     32375     32377     32379     32378     32380
     32382     32381     32383     32385     32384     32386     32388     32387     32389
     32391     32390     32392     32394     32393     32395     32397     32396     32398
     32400     32399     32401     32403     32402     32404     32406     32405     32407
     32409     32408     32410     32412     32411     32413     32415     32414     32416
     32418     32417     32419     32421     32420     32422     32424     32423     32425
     32427     32426     32428     32430     32429     32431     32433     32432     32434
     32436     32435     32437     32439     32438     32440     32442     32441     32443
     32445     32444     32446     32448     32447     32449     32451     32450     32452
     32454     32453     32455     32457     32456     32458     32460     32459     32461
     32463     32462     32464     32466     32465     32467     32469     32468     32470
     32472     32471     32473     32475     32474     32476     32478     32477     32479
     32481     32480     32482     32484     32483     32485     32487     32486     32488
     32490     32489     32491     32493     32492     32494     32496     32495     32497
     32499     32498     32500     32502     32501     32503     32505     32504     32506
     32508     32507     32509     32511     32510     32512     32514     32513     32515
     32517     32516     32518     32520     32519     32521     32523     32522     32524
     32526     32525     32527     32529     32528     32530     32532     32531     32533
     32535     32534     32536     32538     32537     32539     32541     32540     32542
     32544     32543     32545     32547     32546     32548     32550     32549     32551
     32553     32552     32554     32556     32555     32557     32559     32558     32560
     32562     32561     32563     32565     32564     32566     32568     32567     32569
     32571     32570     32572     32574     32573     32575     32577     32576     32578
     32580     32579     32581     32583     32582     32584     32586     32585     32587
     32589     32588     32590     32592     32591     32593     32595     32594     32596
     32598     32597     32599     32601     32600     32602     32604     32603     32605
     32607     32606     32608     32610     32609     32611     32613     32612     32614
     32616     32615     32617     32619     32618     32620     32622     32621     32623
     32625     32624     32626     32628     32627     32629     32631     32630     32632
     32634     32633     32635     32637     32636     32638     32640     32639     32641
     32643     32642     32644     32646     32645     32647     32649     32648     32650
     32652     32651     32653     32655     32654     32656     32658     32657     32659
     32661     32660     32662     32664     32663     32665     32667     32666     32668
     32670     32669     32671     32673     32672     32674     32676     32675     32677
     32679     32678     32680     32682     32681     32683     32685     32684     32686
     32688     32687     32689     32691     32690     32692     32694     32693     32695
     32697     32696     32698     32700     32699     32701     32703     32702     32704
     32706     32705     32707     32709     32708     32710     32712     32711     32713
     32715     32714     32716     32718     32717     32719     32721     32720     32722
     32724     32723     32725     32727     32726     32728     32730     32729     32731
     32733     32732     32734     32736     32735     32737     32739     32738     32740
     32742     32741     32743     32745     32744     32746     32748     32747     32749
     32751     32750     32752     32754     32753     32755     32757     32756     32758
     32760     32759     32761     32763     32762     32764     32766     32765     32767
     32769     32768     32770     32772     32771     32773     32775     32774     32776
     32778     32777     32779     32781     32780     32782     32784     32783     32785
     32787     32786     32788     32790     32789     32791     32793     32792     32794
     32796     32795     32797     32799     32798     32800     32802     32801     32803
     32805     32804     32806     32808     32807     32809     32811     32810     32812
     32814     32813     32815     32817     32816     32818     32820     32819     32821
     32823     32822     32824     32826     32825     32827     32829     32828     32830
     32832     32831     32833     32835     32834     32836     32838     32837     32839
     32841     32840     32842     32844     32843     32845     32847     32846     32848
     32850     32849     32851     32853     32852     32854     32856     32855     32857
     32859     32858     32860     32862     32861     32863     32865     32864     32866
     32868     32867     32869     32871     32870     32872     32874     32873     32875
     32877     32876     32878     32880     32879     32881     32883     32882     32884
     32886     32885     32887     32889     32888     32890     32892     32891     32893
     32895     32894     32896     32898     32897     32899     32901     32900     32902
     32904     32903     32905     32907     32906     32908     32910     32909     32911
     32913     32912     32914     32916     32915     32917     32919     32918     32920
     32922     32921     32923     32925     32924     32926     32928     32927     32929
     32931     32930     32932     32934     32933     32935     32937     32936     32938
     32940     32939     32941     32943     32942     32944     32946     32945     32947
     32949     32948     32950     32952     32951     32953     32955     32954     32956
     32958     32957     32959     32961     32960     32962     32964     32963     32965
     32967     32966     32968     32970     32969     32971     32973     32972     32974
     32976     32975     32977     32979     32978     32980     32982     32981     32983
     32985     32984     32986     32988     32987     32989     32991     32990     32992
     32994     32993     32995     32997     32996     32998     33000     32999     33001
     33003     33002     33004     33006     33005     33007     33009     33008     33010
     33012     33011     33013     33015     33014     33016     33018     33017     33019
     33021     33020     33022     33024     33023     33025     33027     33026     33028
     33030     33029     33031     33033     33032     33034     33036     33035     33037
     33039     33038     33040     33042     33041     33043     33045     33044     33046
     33048     33047     33049     33051     33050     33052     33054     33053     33055
     33057     33056     33058     33060     33059     33061     33063     33062     33064
     33066     33065     33067     33069     33068     33070     33072     33071     33073
     33075     33074     33076     33078     33077     33079     33081     33080     33082
     33084     33083     33085     33087     33086     33088     33090     33089     33091
     33093     33092     33094     33096     33095     33097     33099     33098     33100
     33102     33101     33103     33105     33104     33106     33108     33107     33109
     33111     33110     33112     33114     33113     33115     33117     33116     33118
     33120     33119     33121     33123     33122     33124     33126     33125     33127
     33129     33128     33130     33132     33131     33133     33135     33134     33136
     33138     33137     33139     33141     33140     33142     33144     33143     33145
     33147     33146     33148     33150     33149     33151     33153     33152     33154
     33156     33155     33157     33159     33158     33160     33162     33161     33163
     33165     33164     33166     33168     33167     33169     33171     33170     33172
     33174     33173     33175     33177     33176     33178     33180     33179     33181
     33183     33182     33184     33186     33185     33187     33189     33188     33190
     33192     33191     33193     33195     33194     33196     33198     33197     33199
     33201     33200     33202     33204     33203     33205     33207     33206     33208
     33210     33209     33211     33213     33212     33214     33216     33215     33217
     33219     33218     33220     33222     33221     33223     33225     33224     33226
     33228     33227     33229     33231     33230     33232     33234     33233     33235
     33237     33236     33238     33240     33239     33241     33243     33242     33244
     33246     33245     33247     33249     33248     33250     33252     33251     33253
     33255     33254     33256     33258     33257     33259     33261     33260     33262
     33264     33263     33265     33267     33266     33268     33270     33269     33271
     33273     33272     33274     33276     33275     33277     33279     33278     33280
     33282     33281     33283     33285     33284     33286     33288     33287     33289
     33291     33290     33292     33294     33293     33295     33297     33296     33298
     33300     33299     33301     33303     33302     33304     33306     33305     33307
     33309     33308     33310     33312     33311     33313     33315     33314     33316
     33318     33317     33319     33321     33320     33322     33324     33323     33325
     33327     33326     33328     33330     33329     33331     33333     33332     33334
     33336     33335     33337     33339     33338     33340     33342     33341     33343
     33345     33344     33346     33348     33347     33349     33351     33350     33352
     33354     33353     33355     33357     33356     33358     33360     33359     33361
     33363     33362     33364     33366     33365     33367     33369     33368     33370
     33372     33371     33373     33375     33374     33376     33378     33377     33379
     33381     33380     33382     33384     33383     33385     33387     33386     33388
     33390     33389     33391     33393     33392     33394     33396     33395     33397
     33399     33398     33400     33402     33401     33403     33405     33404     33406
     33408     33407     33409     33411     33410     33412     33414     33413     33415
     33417     33416     33418     33420     33419     33421     33423     33422     33424
     33426     33425     33427     33429     33428     33430     33432     33431     33433
     33435     33434     33436     33438     33437     33439     33441     33440     33442
     33444     33443     33445     33447     33446     33448     33450     33449     33451
     33453     33452     33454     33456     33455     33457     33459     33458     33460
     33462     33461     33463     33465     33464     33466     33468     33467     33469
     33471     33470     33472     33474     33473     33475     33477     33476     33478
     33480     33479     33481     33483     33482     33484     33486     33485     33487
     33489     33488     33490     33492     33491     33493     33495     33494     33496
     33498     33497     33499     33501     33500     33502     33504     33503     33505
     33507     33506     33508     33510     33509     33511     33513     33512     33514
     33516     33515     33517     33519     33518     33520     33522     33521     33523
     33525     33524     33526     33528     33527     33529     33531     33530     33532
     33534     33533     33535     33537     33536     33538     33540     33539     33541
     33543     33542     33544     33546     33545     33547     33549     33548     33550
     33552     33551     33553     33555     33554     33556     33558     33557     33559
     33561     33560     33562     33564     33563     33565     33567     33566     33568
     33570     33569     33571     33573     33572     33574     33576     33575     33577
     33579     33578     33580     33582     33581     33583     33585     33584     33586
     33588     33587     33589     33591     33590     33592     33594     33593     33595
     33597     33596     33598     33600     33599     33601     33603     33602     33604
     33606     33605     33607     33609     33608     33610     33612     33611     33613
     33615     33614     33616     33618     33617     33619     33621     33620     33622
     33624     33623     33625     33627     33626     33628     33630     33629     33631
     33633     33632     33634     33636     33635     33637     33639     33638     33640
     33642     33641     33643     33645     33644     33646     33648     33647     33649
     33651     33650     33652     33654     33653     33655     33657     33656     33658
     33660     33659     33661     33663     33662     33664     33666     33665     33667
     33669     33668     33670     33672     33671     33673     33675     33674     33676
     33678     33677     33679     33681     33680     33682     33684     33683     33685
     33687     33686     33688     33690     33689     33691     33693     33692     33694
     33696     33695     33697     33699     33698     33700     33702     33701     33703
     33705     33704     33706     33708     33707     33709     33711     33710     33712
     33714     33713     33715     33717     33716     33718     33720     33719     33721
     33723     33722     33724     33726     33725     33727     33729     33728     33730
     33732     33731     33733     33735     33734     33736     33738     33737     33739
     33741     33740     33742     33744     33743     33745     33747     33746     33748
     33750     33749     33751     33753     33752     33754     33756     33755     33757
     33759     33758     33760     33762     33761     33763     33765     33764     33766
     33768     33767     33769     33771     33770     33772     33774     33773     33775
     33777     33776     33778     33780     33779     33781     33783     33782     33784
     33786     33785     33787     33789     33788     33790     33792     33791     33793
     33795     33794     33796     33798     33797     33799     33801     33800     33802
     33804     33803     33805     33807     33806     33808     33810     33809     33811
     33813     33812     33814     33816     33815     33817     33819     33818     33820
     33822     33821     33823     33825     33824     33826     33828     33827     33829
     33831     33830     33832     33834     33833     33835     33837     33836     33838
     33840     33839     33841     33843     33842     33844     33846     33845     33847
     33849     33848     33850     33852     33851     33853     33855     33854     33856
     33858     33857     33859     33861     33860     33862     33864     33863     33865
     33867     33866     33868     33870     33869     33871     33873     33872     33874
     33876     33875     33877     33879     33878     33880     33882     33881     33883
     33885     33884     33886     33888     33887     33889     33891     33890     33892
     33894     33893     33895     33897     33896     33898     33900     33899     33901
     33903     33902     33904     33906     33905     33907     33909     33908     33910
     33912     33911     33913     33915     33914     33916     33918     33917     33919
     33921     33920     33922     33924     33923     33925     33927     33926     33928
     33930     33929     33931     33933     33932     33934     33936     33935     33937
     33939     33938     33940     33942     33941     33943     33945     33944     33946
     33948     33947     33949     33951     33950     33952     33954     33953     33955
     33957     33956     33958     33960     33959     33961     33963     33962     33964
     33966     33965     33967     33969     33968     33970     33972     33971     33973
     33975     33974     33976     33978     33977     33979     33981     33980     33982
     33984     33983     33985     33987     33986     33988     33990     33989     33991
     33993     33992     33994     33996     33995     33997     33999     33998     34000
     34002     34001     34003     34005     34004     34006     34008     34007     34009
     34011     34010     34012     34014     34013     34015     34017     34016     34018
     34020     34019     34021     34023     34022     34024     34026     34025     34027
     34029     34028     34030     34032     34031     34033     34035     34034     34036
     34038     34037     34039     34041     34040     34042     34044     34043     34045
     34047     34046     34048     34050     34049     34051     34053     34052     34054
     34056     34055     34057     34059     34058     34060     34062     34061     34063
     34065     34064     34066     34068     34067     34069     34071     34070     34072
     34074     34073     34075     34077     34076     34078     34080     34079     34081
     34083     34082     34084     34086     34085     34087     34089     34088     34090
     34092     34091     34093     34095     34094     34096     34098     34097     34099
     34101     34100     34102     34104     34103     34105     34107     34106     34108
     34110     34109     34111     34113     34112     34114     34116     34115     34117
     34119     34118     34120     34122     34121     34123     34125     34124     34126
     34128     34127     34129     34131     34130     34132     34134     34133     34135
     34137     34136     34138     34140     34139     34141     34143     34142     34144
     34146     34145     34147     34149     34148     34150     34152     34151     34153
     34155     34154     34156     34158     34157     34159     34161     34160     34162
     34164     34163     34165     34167     34166     34168     34170     34169     34171
     34173     34172     34174     34176     34175     34177     34179     34178     34180
     34182     34181     34183     34185     34184     34186     34188     34187     34189
     34191     34190     34192     34194     34193     34195     34197     34196     34198
     34200     34199     34201     34203     34202     34204     34206     34205     34207
     34209     34208     34210     34212     34211     34213     34215     34214     34216
     34218     34217     34219     34221     34220     34222     34224     34223     34225
     34227     34226     34228     34230     34229     34231     34233     34232     34234
     34236     34235     34237     34239     34238     34240     34242     34241     34243
     34245     34244     34246     34248     34247     34249     34251     34250     34252
     34254     34253     34255     34257     34256     34258     34260     34259     34261
     34263     34262     34264     34266     34265     34267     34269     34268     34270
     34272     34271     34273     34275     34274     34276     34278     34277     34279
     34281     34280     34282     34284     34283     34285     34287     34286     34288
     34290     34289     34291     34293     34292     34294     34296     34295     34297
     34299     34298     34300     34302     34301     34303     34305     34304     34306
     34308     34307     34309     34311     34310     34312     34314     34313     34315
     34317     34316     34318     34320     34319     34321     34323     34322     34324
     34326     34325     34327     34329     34328     34330     34332     34331     34333
     34335     34334     34336     34338     34337     34339     34341     34340     34342
     34344     34343     34345     34347     34346     34348     34350     34349     34351
     34353     34352     34354     34356     34355     34357     34359     34358     34360
     34362     34361     34363     34365     34364     34366     34368     34367     34369
     34371     34370     34372     34374     34373     34375     34377     34376     34378
     34380     34379     34381     34383     34382     34384     34386     34385     34387
     34389     34388     34390     34392     34391     34393     34395     34394     34396
     34398     34397     34399     34401     34400     34402     34404     34403     34405
     34407     34406     34408     34410     34409     34411     34413     34412     34414
     34416     34415     34417     34419     34418     34420     34422     34421     34423
     34425     34424     34426     34428     34427     34429     34431     34430     34432
     34434     34433     34435     34437     34436     34438     34440     34439     34441
     34443     34442     34444     34446     34445     34447     34449     34448     34450
     34452     34451     34453     34455     34454     34456     34458     34457     34459
     34461     34460     34462     34464     34463     34465     34467     34466     34468
     34470     34469     34471     34473     34472     34474     34476     34475     34477
     34479     34478     34480     34482     34481     34483     34485     34484     34486
     34488     34487     34489     34491     34490     34492     34494     34493     34495
     34497     34496     34498     34500     34499     34501     34503     34502     34504
     34506     34505     34507     34509     34508     34510     34512     34511     34513
     34515     34514     34516     34518     34517     34519     34521     34520     34522
     34524     34523     34525     34527     34526     34528     34530     34529     34531
     34533     34532     34534     34536     34535     34537     34539     34538     34540
     34542     34541     34543     34545     34544     34546     34548     34547     34549
     34551     34550     34552     34554     34553     34555     34557     34556     34558
     34560     34559     34561     34563     34562     34564     34566     34565     34567
     34569     34568     34570     34572     34571     34573     34575     34574     34576
     34578     34577     34579     34581     34580     34582     34584     34583     34585
     34587     34586     34588     34590     34589     34591     34593     34592     34594
     34596     34595     34597     34599     34598     34600     34602     34601     34603
     34605     34604     34606     34608     34607     34609     34611     34610     34612
     34614     34613     34615     34617     34616     34618     34620     34619     34621
     34623     34622     34624     34626     34625     34627     34629     34628     34630
     34632     34631     34633     34635     34634     34636     34638     34637     34639
     34641     34640     34642     34644     34643     34645     34647     34646     34648
     34650     34649     34651     34653     34652     34654     34656     34655     34657
     34659     34658     34660     34662     34661     34663     34665     34664     34666
     34668     34667     34669     34671     34670     34672     34674     34673     34675
     34677     34676     34678     34680     34679     34681     34683     34682     34684
     34686     34685     34687     34689     34688     34690     34692     34691     34693
     34695     34694     34696     34698     34697     34699     34701     34700     34702
     34704     34703     34705     34707     34706     34708     34710     34709     34711
     34713     34712     34714     34716     34715     34717     34719     34718     34720
     34722     34721     34723     34725     34724     34726     34728     34727     34729
     34731     34730     34732     34734     34733     34735     34737     34736     34738
     34740     34739     34741     34743     34742     34744     34746     34745     34747
     34749     34748     34750     34752     34751     34753     34755     34754     34756
     34758     34757     34759     34761     34760     34762     34764     34763     34765
     34767     34766     34768     34770     34769     34771     34773     34772     34774
     34776     34775     34777     34779     34778     34780     34782     34781     34783
     34785     34784     34786     34788     34787     34789     34791     34790     34792
     34794     34793     34795     34797     34796     34798     34800     34799     34801
     34803     34802     34804     34806     34805     34807     34809     34808     34810
     34812     34811     34813     34815     34814     34816     34818     34817     34819
     34821     34820     34822     34824     34823     34825     34827     34826     34828
     34830     34829     34831     34833     34832     34834     34836     34835     34837
     34839     34838     34840     34842     34841     34843     34845     34844     34846
     34848     34847     34849     34851     34850     34852     34854     34853     34855
     34857     34856     34858     34860     34859     34861     34863     34862     34864
     34866     34865     34867     34869     34868     34870     34872     34871     34873
     34875     34874     34876     34878     34877     34879     34881     34880     34882
     34884     34883     34885     34887     34886     34888     34890     34889     34891
     34893     34892     34894     34896     34895     34897     34899     34898     34900
     34902     34901     34903     34905     34904     34906     34908     34907     34909
     34911     34910     34912     34914     34913     34915     34917     34916     34918
     34920     34919     34921     34923     34922     34924     34926     34925     34927
     34929     34928     34930     34932     34931     34933     34935     34934     34936
     34938     34937     34939     34941     34940     34942     34944     34943     34945
     34947     34946     34948     34950     34949     34951     34953     34952     34954
     34956     34955     34957     34959     34958     34960     34962     34961     34963
     34965     34964     34966     34968     34967     34969     34971     34970     34972
     34974     34973     34975     34977     34976     34978     34980     34979     34981
     34983     34982     34984     34986     34985     34987     34989     34988     34990
     34992     34991     34993     34995     34994     34996     34998     34997     34999
     35001     35000     35002     35004     35003     35005     35007     35006     35008
     35010     35009     35011     35013     35012     35014     35016     35015     35017
     35019     35018     35020     35022     35021     35023     35025     35024     35026
     35028     35027     35029     35031     35030     35032     35034     35033     35035
     35037     35036     35038     35040     35039     35041     35043     35042     35044
     35046     35045     35047     35049     35048     35050     35052     35051     35053
     35055     35054     35056     35058     35057     35059     35061     35060     35062
     35064     35063     35065     35067     35066     35068     35070     35069     35071
     35073     35072     35074     35076     35075     35077     35079     35078     35080
     35082     35081     35083     35085     35084     35086     35088     35087     35089
     35091     35090     35092     35094     35093     35095     35097     35096     35098
     35100     35099     35101     35103     35102     35104     35106     35105     35107
     35109     35108     35110     35112     35111     35113     35115     35114     35116
     35118     35117     35119     35121     35120     35122     35124     35123     35125
     35127     35126     35128     35130     35129     35131     35133     35132     35134
     35136     35135     35137     35139     35138     35140     35142     35141     35143
     35145     35144     35146     35148     35147     35149     35151     35150     35152
     35154     35153     35155     35157     35156     35158     35160     35159     35161
     35163     35162     35164     35166     35165     35167     35169     35168     35170
     35172     35171     35173     35175     35174     35176     35178     35177     35179
     35181     35180     35182     35184     35183     35185     35187     35186     35188
     35190     35189     35191     35193     35192     35194     35196     35195     35197
     35199     35198     35200     35202     35201     35203     35205     35204     35206
     35208     35207     35209     35211     35210     35212     35214     35213     35215
     35217     35216     35218     35220     35219     35221     35223     35222     35224
     35226     35225     35227     35229     35228     35230     35232     35231     35233
     35235     35234     35236     35238     35237     35239     35241     35240     35242
     35244     35243     35245     35247     35246     35248     35250     35249     35251
     35253     35252     35254     35256     35255     35257     35259     35258     35260
     35262     35261     35263     35265     35264     35266     35268     35267     35269
     35271     35270     35272     35274     35273     35275     35277     35276     35278
     35280     35279     35281     35283     35282     35284     35286     35285     35287
     35289     35288     35290     35292     35291     35293     35295     35294     35296
     35298     35297     35299     35301     35300     35302     35304     35303     35305
     35307     35306     35308     35310     35309     35311     35313     35312     35314
     35316     35315     35317     35319     35318     35320     35322     35321     35323
     35325     35324     35326     35328     35327     35329     35331     35330     35332
     35334     35333     35335     35337     35336     35338     35340     35339     35341
     35343     35342     35344     35346     35345     35347     35349     35348     35350
     35352     35351     35353     35355     35354     35356     35358     35357     35359
     35361     35360     35362     35364     35363     35365     35367     35366     35368
     35370     35369     35371     35373     35372     35374     35376     35375     35377
     35379     35378     35380     35382     35381     35383     35385     35384     35386
     35388     35387     35389     35391     35390     35392     35394     35393     35395
     35397     35396     35398     35400     35399     35401     35403     35402     35404
     35406     35405     35407     35409     35408     35410     35412     35411     35413
     35415     35414     35416     35418     35417     35419     35421     35420     35422
     35424     35423     35425     35427     35426     35428     35430     35429     35431
     35433     35432     35434     35436     35435     35437     35439     35438     35440
     35442     35441     35443     35445     35444     35446     35448     35447     35449
     35451     35450     35452     35454     35453     35455     35457     35456     35458
     35460     35459     35461     35463     35462     35464     35466     35465     35467
     35469     35468     35470     35472     35471     35473     35475     35474     35476
     35478     35477     35479     35481     35480     35482     35484     35483     35485
     35487     35486     35488     35490     35489     35491     35493     35492     35494
     35496     35495     35497     35499     35498     35500     35502     35501     35503
     35505     35504     35506     35508     35507     35509     35511     35510     35512
     35514     35513     35515     35517     35516     35518     35520     35519     35521
     35523     35522     35524     35526     35525     35527     35529     35528     35530
     35532     35531     35533     35535     35534     35536     35538     35537     35539
     35541     35540     35542     35544     35543     35545     35547     35546     35548
     35550     35549     35551     35553     35552     35554     35556     35555     35557
     35559     35558     35560     35562     35561     35563     35565     35564     35566
     35568     35567     35569     35571     35570     35572     35574     35573     35575
     35577     35576     35578     35580     35579     35581     35583     35582     35584
     35586     35585     35587     35589     35588     35590     35592     35591     35593
     35595     35594     35596     35598     35597     35599     35601     35600     35602
     35604     35603     35605     35607     35606     35608     35610     35609     35611
     35613     35612     35614     35616     35615     35617     35619     35618     35620
     35622     35621     35623     35625     35624     35626     35628     35627     35629
     35631     35630     35632     35634     35633     35635     35637     35636     35638
     35640     35639     35641     35643     35642     35644     35646     35645     35647
     35649     35648     35650     35652     35651     35653     35655     35654     35656
     35658     35657     35659     35661     35660     35662     35664     35663     35665
     35667     35666     35668     35670     35669     35671     35673     35672     35674
     35676     35675     35677     35679     35678     35680     35682     35681     35683
     35685     35684     35686     35688     35687     35689     35691     35690     35692
     35694     35693     35695     35697     35696     35698     35700     35699     35701
     35703     35702     35704     35706     35705     35707     35709     35708     35710
     35712     35711     35713     35715     35714     35716     35718     35717     35719
     35721     35720     35722     35724     35723     35725     35727     35726     35728
     35730     35729     35731     35733     35732     35734     35736     35735     35737
     35739     35738     35740     35742     35741     35743     35745     35744     35746
     35748     35747     35749     35751     35750     35752     35754     35753     35755
     35757     35756     35758     35760     35759     35761     35763     35762     35764
     35766     35765     35767     35769     35768     35770     35772     35771     35773
     35775     35774     35776     35778     35777     35779     35781     35780     35782
     35784     35783     35785     35787     35786     35788     35790     35789     35791
     35793     35792     35794     35796     35795     35797     35799     35798     35800
     35802     35801     35803     35805     35804     35806     35808     35807     35809
     35811     35810     35812     35814     35813     35815     35817     35816     35818
     35820     35819     35821     35823     35822     35824     35826     35825     35827
     35829     35828     35830     35832     35831     35833     35835     35834     35836
     35838     35837     35839     35841     35840     35842     35844     35843     35845
     35847     35846     35848     35850     35849     35851     35853     35852     35854
     35856     35855     35857     35859     35858     35860     35862     35861     35863
     35865     35864     35866     35868     35867     35869     35871     35870     35872
     35874     35873     35875     35877     35876     35878     35880     35879     35881
     35883     35882     35884     35886     35885     35887     35889     35888     35890
     35892     35891     35893     35895     35894     35896     35898     35897     35899
     35901     35900     35902     35904     35903     35905     35907     35906     35908
     35910     35909     35911     35913     35912     35914     35916     35915     35917
     35919     35918     35920     35922     35921     35923     35925     35924     35926
     35928     35927     35929     35931     35930     35932     35934     35933     35935
     35937     35936     35938     35940     35939     35941     35943     35942     35944
     35946     35945     35947     35949     35948     35950     35952     35951     35953
     35955     35954     35956     35958     35957     35959     35961     35960     35962
     35964     35963     35965     35967     35966     35968     35970     35969     35971
     35973     35972     35974     35976     35975     35977     35979     35978     35980
     35982     35981     35983     35985     35984     35986     35988     35987     35989
     35991     35990     35992     35994     35993     35995     35997     35996     35998
     36000     35999     36001     36003     36002     36004     36006     36005     36007
     36009     36008     36010     36012     36011     36013     36015     36014     36016
     36018     36017     36019     36021     36020     36022     36024     36023     36025
     36027     36026     36028     36030     36029     36031     36033     36032     36034
     36036     36035     36037     36039     36038     36040     36042     36041     36043
     36045     36044     36046     36048     36047     36049     36051     36050     36052
     36054     36053     36055     36057     36056     36058     36060     36059     36061
     36063     36062     36064     36066     36065     36067     36069     36068     36070
     36072     36071     36073     36075     36074     36076     36078     36077     36079
     36081     36080     36082     36084     36083     36085     36087     36086     36088
     36090     36089     36091     36093     36092     36094     36096     36095     36097
     36099     36098     36100     36102     36101     36103     36105     36104     36106
     36108     36107     36109     36111     36110     36112     36114     36113     36115
     36117     36116     36118     36120     36119     36121     36123     36122     36124
     36126     36125     36127     36129     36128     36130     36132     36131     36133
     36135     36134     36136     36138     36137     36139     36141     36140     36142
     36144     36143     36145     36147     36146     36148     36150     36149     36151
     36153     36152     36154     36156     36155     36157     36159     36158     36160
     36162     36161     36163     36165     36164     36166     36168     36167     36169
     36171     36170     36172     36174     36173     36175     36177     36176     36178
     36180     36179     36181     36183     36182     36184     36186     36185     36187
     36189     36188     36190     36192     36191     36193     36195     36194     36196
     36198     36197     36199     36201     36200     36202     36204     36203     36205
     36207     36206     36208     36210     36209     36211     36213     36212     36214
     36216     36215     36217     36219     36218     36220     36222     36221     36223
     36225     36224     36226     36228     36227     36229     36231     36230     36232
     36234     36233     36235     36237     36236     36238     36240     36239     36241
     36243     36242     36244     36246     36245     36247     36249     36248     36250
     36252     36251     36253     36255     36254     36256     36258     36257     36259
     36261     36260     36262     36264     36263     36265     36267     36266     36268
     36270     36269     36271     36273     36272     36274     36276     36275     36277
     36279     36278     36280     36282     36281     36283     36285     36284     36286
     36288     36287     36289     36291     36290     36292     36294     36293     36295
     36297     36296     36298     36300     36299     36301     36303     36302     36304
     36306     36305     36307     36309     36308     36310     36312     36311     36313
     36315     36314     36316     36318     36317     36319     36321     36320     36322
     36324     36323     36325     36327     36326     36328     36330     36329     36331
     36333     36332     36334     36336     36335     36337     36339     36338     36340
     36342     36341     36343     36345     36344     36346     36348     36347     36349
     36351     36350     36352     36354     36353     36355     36357     36356     36358
     36360     36359     36361     36363     36362     36364     36366     36365     36367
     36369     36368     36370     36372     36371     36373     36375     36374     36376
     36378     36377     36379     36381     36380     36382     36384     36383     36385
     36387     36386     36388     36390     36389     36391     36393     36392     36394
     36396     36395     36397     36399     36398     36400     36402     36401     36403
     36405     36404     36406     36408     36407     36409     36411     36410     36412
     36414     36413     36415     36417     36416     36418     36420     36419     36421
     36423     36422     36424     36426     36425     36427     36429     36428     36430
     36432     36431     36433     36435     36434     36436     36438     36437     36439
     36441     36440     36442     36444     36443     36445     36447     36446     36448
     36450     36449     36451     36453     36452     36454     36456     36455     36457
     36459     36458     36460     36462     36461     36463     36465     36464     36466
     36468     36467     36469     36471     36470     36472     36474     36473     36475
     36477     36476     36478     36480     36479     36481     36483     36482     36484
     36486     36485     36487     36489     36488     36490     36492     36491     36493
     36495     36494     36496     36498     36497     36499     36501     36500     36502
     36504     36503     36505     36507     36506     36508     36510     36509     36511
     36513     36512     36514     36516     36515     36517     36519     36518     36520
     36522     36521     36523     36525     36524     36526     36528     36527     36529
     36531     36530     36532     36534     36533     36535     36537     36536     36538
     36540     36539     36541     36543     36542     36544     36546     36545     36547
     36549     36548     36550     36552     36551     36553     36555     36554     36556
     36558     36557     36559     36561     36560     36562     36564     36563     36565
     36567     36566     36568     36570     36569     36571     36573     36572     36574
     36576     36575     36577     36579     36578     36580     36582     36581     36583
     36585     36584     36586     36588     36587     36589     36591     36590     36592
     36594     36593     36595     36597     36596     36598     36600     36599     36601
     36603     36602     36604     36606     36605     36607     36609     36608     36610
     36612     36611     36613     36615     36614     36616     36618     36617     36619
     36621     36620     36622     36624     36623     36625     36627     36626     36628
     36630     36629     36631     36633     36632     36634     36636     36635     36637
     36639     36638     36640     36642     36641     36643     36645     36644     36646
     36648     36647     36649     36651     36650     36652     36654     36653     36655
     36657     36656     36658     36660     36659     36661     36663     36662     36664
     36666     36665     36667     36669     36668     36670     36672     36671     36673
     36675     36674     36676     36678     36677     36679     36681     36680     36682
     36684     36683     36685     36687     36686     36688     36690     36689     36691
     36693     36692     36694     36696     36695     36697     36699     36698     36700
     36702     36701     36703     36705     36704     36706     36708     36707     36709
     36711     36710     36712     36714     36713     36715     36717     36716     36718
     36720     36719     36721     36723     36722     36724     36726     36725     36727
     36729     36728     36730     36732     36731     36733     36735     36734     36736
     36738     36737     36739     36741     36740     36742     36744     36743     36745
     36747     36746     36748     36750     36749     36751     36753     36752     36754
     36756     36755     36757     36759     36758     36760     36762     36761     36763
     36765     36764     36766     36768     36767     36769     36771     36770     36772
     36774     36773     36775     36777     36776     36778     36780     36779     36781
     36783     36782     36784     36786     36785     36787     36789     36788     36790
     36792     36791     36793     36795     36794     36796     36798     36797     36799
     36801     36800     36802     36804     36803     36805     36807     36806     36808
     36810     36809     36811     36813     36812     36814     36816     36815     36817
     36819     36818     36820     36822     36821     36823     36825     36824     36826
     36828     36827     36829     36831     36830     36832     36834     36833     36835
     36837     36836     36838     36840     36839     36841     36843     36842     36844
     36846     36845     36847     36849     36848     36850     36852     36851     36853
     36855     36854     36856     36858     36857     36859     36861     36860     36862
     36864     36863     36865     36867     36866     36868     36870     36869     36871
     36873     36872     36874     36876     36875     36877     36879     36878     36880
     36882     36881     36883     36885     36884     36886     36888     36887     36889
     36891     36890     36892     36894     36893     36895     36897     36896     36898
     36900     36899     36901     36903     36902     36904     36906     36905     36907
     36909     36908     36910     36912     36911     36913     36915     36914     36916
     36918     36917     36919     36921     36920     36922     36924     36923     36925
     36927     36926     36928     36930     36929     36931     36933     36932     36934
     36936     36935     36937     36939     36938     36940     36942     36941     36943
     36945     36944     36946     36948     36947     36949     36951     36950     36952
     36954     36953     36955     36957     36956     36958     36960     36959     36961
     36963     36962     36964     36966     36965     36967     36969     36968     36970
     36972     36971     36973     36975     36974     36976     36978     36977     36979
     36981     36980     36982     36984     36983     36985     36987     36986     36988
     36990     36989     36991     36993     36992     36994     36996     36995     36997
     36999     36998     37000     37002     37001     37003     37005     37004     37006
     37008     37007     37009     37011     37010     37012     37014     37013     37015
     37017     37016     37018     37020     37019     37021     37023     37022     37024
     37026     37025     37027     37029     37028     37030     37032     37031     37033
     37035     37034     37036     37038     37037     37039     37041     37040     37042
     37044     37043     37045     37047     37046     37048     37050     37049     37051
     37053     37052     37054     37056     37055     37057     37059     37058     37060
     37062     37061     37063     37065     37064     37066     37068     37067     37069
     37071     37070     37072     37074     37073     37075     37077     37076     37078
     37080     37079     37081     37083     37082     37084     37086     37085     37087
     37089     37088     37090     37092     37091     37093     37095     37094     37096
     37098     37097     37099     37101     37100     37102     37104     37103     37105
     37107     37106     37108     37110     37109     37111     37113     37112     37114
     37116     37115     37117     37119     37118     37120     37122     37121     37123
     37125     37124     37126     37128     37127     37129     37131     37130     37132
     37134     37133     37135     37137     37136     37138     37140     37139     37141
     37143     37142     37144     37146     37145     37147     37149     37148     37150
     37152     37151     37153     37155     37154     37156     37158     37157     37159
     37161     37160     37162     37164     37163     37165     37167     37166     37168
     37170     37169     37171     37173     37172     37174     37176     37175     37177
     37179     37178     37180     37182     37181     37183     37185     37184     37186
     37188     37187     37189     37191     37190     37192     37194     37193     37195
     37197     37196     37198     37200     37199     37201     37203     37202     37204
     37206     37205     37207     37209     37208     37210     37212     37211     37213
     37215     37214     37216     37218     37217     37219     37221     37220     37222
     37224     37223     37225     37227     37226     37228     37230     37229     37231
     37233     37232     37234     37236     37235     37237     37239     37238     37240
     37242     37241     37243     37245     37244     37246     37248     37247     37249
     37251     37250     37252     37254     37253     37255     37257     37256     37258
     37260     37259     37261     37263     37262     37264     37266     37265     37267
     37269     37268     37270     37272     37271     37273     37275     37274     37276
     37278     37277     37279     37281     37280     37282     37284     37283     37285
     37287     37286     37288     37290     37289     37291     37293     37292     37294
     37296     37295     37297     37299     37298     37300     37302     37301     37303
     37305     37304     37306     37308     37307     37309     37311     37310     37312
     37314     37313     37315     37317     37316     37318     37320     37319     37321
     37323     37322     37324     37326     37325     37327     37329     37328     37330
     37332     37331     37333     37335     37334     37336     37338     37337     37339
     37341     37340     37342     37344     37343     37345     37347     37346     37348
     37350     37349     37351     37353     37352     37354     37356     37355     37357
     37359     37358     37360     37362     37361     37363     37365     37364     37366
     37368     37367     37369     37371     37370     37372     37374     37373     37375
     37377     37376     37378     37380     37379     37381     37383     37382     37384
     37386     37385     37387     37389     37388     37390     37392     37391     37393
     37395     37394     37396     37398     37397     37399     37401     37400     37402
     37404     37403     37405     37407     37406     37408     37410     37409     37411
     37413     37412     37414     37416     37415     37417     37419     37418     37420
     37422     37421     37423     37425     37424     37426     37428     37427     37429
     37431     37430     37432     37434     37433     37435     37437     37436     37438
     37440     37439     37441     37443     37442     37444     37446     37445     37447
     37449     37448     37450     37452     37451     37453     37455     37454     37456
     37458     37457     37459     37461     37460     37462     37464     37463     37465
     37467     37466     37468     37470     37469     37471     37473     37472     37474
     37476     37475     37477     37479     37478     37480     37482     37481     37483
     37485     37484     37486     37488     37487     37489     37491     37490     37492
     37494     37493     37495     37497     37496     37498     37500     37499     37501
     37503     37502     37504     37506     37505     37507     37509     37508     37510
     37512     37511     37513     37515     37514     37516     37518     37517     37519
     37521     37520     37522     37524     37523     37525     37527     37526     37528
     37530     37529     37531     37533     37532     37534     37536     37535     37537
     37539     37538     37540     37542     37541     37543     37545     37544     37546
     37548     37547     37549     37551     37550     37552     37554     37553     37555
     37557     37556     37558     37560     37559     37561     37563     37562     37564
     37566     37565     37567     37569     37568     37570     37572     37571     37573
     37575     37574     37576     37578     37577     37579     37581     37580     37582
     37584     37583     37585     37587     37586     37588     37590     37589     37591
     37593     37592     37594     37596     37595     37597     37599     37598     37600
     37602     37601     37603     37605     37604     37606     37608     37607     37609
     37611     37610     37612     37614     37613     37615     37617     37616     37618
     37620     37619     37621     37623     37622     37624     37626     37625     37627
     37629     37628     37630     37632     37631     37633     37635     37634     37636
     37638     37637     37639     37641     37640     37642     37644     37643     37645
     37647     37646     37648     37650     37649     37651     37653     37652     37654
     37656     37655     37657     37659     37658     37660     37662     37661     37663
     37665     37664     37666     37668     37667     37669     37671     37670     37672
     37674     37673     37675     37677     37676     37678     37680     37679     37681
     37683     37682     37684     37686     37685     37687     37689     37688     37690
     37692     37691     37693     37695     37694     37696     37698     37697     37699
     37701     37700     37702     37704     37703     37705     37707     37706     37708
     37710     37709     37711     37713     37712     37714     37716     37715     37717
     37719     37718     37720     37722     37721     37723     37725     37724     37726
     37728     37727     37729     37731     37730     37732     37734     37733     37735
     37737     37736     37738     37740     37739     37741     37743     37742     37744
     37746     37745     37747     37749     37748     37750     37752     37751     37753
     37755     37754     37756     37758     37757     37759     37761     37760     37762
     37764     37763     37765     37767     37766     37768     37770     37769     37771
     37773     37772     37774     37776     37775     37777     37779     37778     37780
     37782     37781     37783     37785     37784     37786     37788     37787     37789
     37791     37790     37792     37794     37793     37795     37797     37796     37798
     37800     37799     37801     37803     37802     37804     37806     37805     37807
     37809     37808     37810     37812     37811     37813     37815     37814     37816
     37818     37817     37819     37821     37820     37822     37824     37823     37825
     37827     37826     37828     37830     37829     37831     37833     37832     37834
     37836     37835     37837     37839     37838     37840     37842     37841     37843
     37845     37844     37846     37848     37847     37849     37851     37850     37852
     37854     37853     37855     37857     37856     37858     37860     37859     37861
     37863     37862     37864     37866     37865     37867     37869     37868     37870
     37872     37871     37873     37875     37874     37876     37878     37877     37879
     37881     37880     37882     37884     37883     37885     37887     37886     37888
     37890     37889     37891     37893     37892     37894     37896     37895     37897
     37899     37898     37900     37902     37901     37903     37905     37904     37906
     37908     37907     37909     37911     37910     37912     37914     37913     37915
     37917     37916     37918     37920     37919     37921     37923     37922     37924
     37926     37925     37927     37929     37928     37930     37932     37931     37933
     37935     37934     37936     37938     37937     37939     37941     37940     37942
     37944     37943     37945     37947     37946     37948     37950     37949     37951
     37953     37952     37954     37956     37955     37957     37959     37958     37960
     37962     37961     37963     37965     37964     37966     37968     37967     37969
     37971     37970     37972     37974     37973     37975     37977     37976     37978
     37980     37979     37981     37983     37982     37984     37986     37985     37987
     37989     37988     37990     37992     37991     37993     37995     37994     37996
     37998     37997     37999     38001     38000     38002     38004     38003     38005
     38007     38006     38008     38010     38009     38011     38013     38012     38014
     38016     38015     38017     38019     38018     38020     38022     38021     38023
     38025     38024     38026     38028     38027     38029     38031     38030     38032
     38034     38033     38035     38037     38036     38038     38040     38039     38041
     38043     38042     38044     38046     38045     38047     38049     38048     38050
     38052     38051     38053     38055     38054     38056     38058     38057     38059
     38061     38060     38062     38064     38063     38065     38067     38066     38068
     38070     38069     38071     38073     38072     38074     38076     38075     38077
     38079     38078     38080     38082     38081     38083     38085     38084     38086
     38088     38087     38089     38091     38090     38092     38094     38093     38095
     38097     38096     38098     38100     38099     38101     38103     38102     38104
     38106     38105     38107     38109     38108     38110     38112     38111     38113
     38115     38114     38116     38118     38117     38119     38121     38120     38122
     38124     38123     38125     38127     38126     38128     38130     38129     38131
     38133     38132     38134     38136     38135     38137     38139     38138     38140
     38142     38141     38143     38145     38144     38146     38148     38147     38149
     38151     38150     38152     38154     38153     38155     38157     38156     38158
     38160     38159     38161     38163     38162     38164     38166     38165     38167
     38169     38168     38170     38172     38171     38173     38175     38174     38176
     38178     38177     38179     38181     38180     38182     38184     38183     38185
     38187     38186     38188     38190     38189     38191     38193     38192     38194
     38196     38195     38197     38199     38198     38200     38202     38201     38203
     38205     38204     38206     38208     38207     38209     38211     38210     38212
     38214     38213     38215     38217     38216     38218     38220     38219     38221
     38223     38222     38224     38226     38225     38227     38229     38228     38230
     38232     38231     38233     38235     38234     38236     38238     38237     38239
     38241     38240     38242     38244     38243     38245     38247     38246     38248
     38250     38249     38251     38253     38252     38254     38256     38255     38257
     38259     38258     38260     38262     38261     38263     38265     38264     38266
     38268     38267     38269     38271     38270     38272     38274     38273     38275
     38277     38276     38278     38280     38279     38281     38283     38282     38284
     38286     38285     38287     38289     38288     38290     38292     38291     38293
     38295     38294     38296     38298     38297     38299     38301     38300     38302
     38304     38303     38305     38307     38306     38308     38310     38309     38311
     38313     38312     38314     38316     38315     38317     38319     38318     38320
     38322     38321     38323     38325     38324     38326     38328     38327     38329
     38331     38330     38332     38334     38333     38335     38337     38336     38338
     38340     38339     38341     38343     38342     38344     38346     38345     38347
     38349     38348     38350     38352     38351     38353     38355     38354     38356
     38358     38357     38359     38361     38360     38362     38364     38363     38365
     38367     38366     38368     38370     38369     38371     38373     38372     38374
     38376     38375     38377     38379     38378     38380     38382     38381     38383
     38385     38384     38386     38388     38387     38389     38391     38390     38392
     38394     38393     38395     38397     38396     38398     38400     38399     38401
     38403     38402     38404     38406     38405     38407     38409     38408     38410
     38412     38411     38413     38415     38414     38416     38418     38417     38419
     38421     38420     38422     38424     38423     38425     38427     38426     38428
     38430     38429     38431     38433     38432     38434     38436     38435     38437
     38439     38438     38440     38442     38441     38443     38445     38444     38446
     38448     38447     38449     38451     38450     38452     38454     38453     38455
     38457     38456     38458     38460     38459     38461     38463     38462     38464
     38466     38465     38467     38469     38468     38470     38472     38471     38473
     38475     38474     38476     38478     38477     38479     38481     38480     38482
     38484     38483     38485     38487     38486     38488     38490     38489     38491
     38493     38492     38494     38496     38495     38497     38499     38498     38500
     38502     38501     38503     38505     38504     38506     38508     38507     38509
     38511     38510     38512     38514     38513     38515     38517     38516     38518
     38520     38519     38521     38523     38522     38524     38526     38525     38527
     38529     38528     38530     38532     38531     38533     38535     38534     38536
     38538     38537     38539     38541     38540     38542     38544     38543     38545
     38547     38546     38548     38550     38549     38551     38553     38552     38554
     38556     38555     38557     38559     38558     38560     38562     38561     38563
     38565     38564     38566     38568     38567     38569     38571     38570     38572
     38574     38573     38575     38577     38576     38578     38580     38579     38581
     38583     38582     38584     38586     38585     38587     38589     38588     38590
     38592     38591     38593     38595     38594     38596     38598     38597     38599
     38601     38600     38602     38604     38603     38605     38607     38606     38608
     38610     38609     38611     38613     38612     38614     38616     38615     38617
     38619     38618     38620     38622     38621     38623     38625     38624     38626
     38628     38627     38629     38631     38630     38632     38634     38633     38635
     38637     38636     38638     38640     38639     38641     38643     38642     38644
     38646     38645     38647     38649     38648     38650     38652     38651     38653
     38655     38654     38656     38658     38657     38659     38661     38660     38662
     38664     38663     38665     38667     38666     38668     38670     38669     38671
     38673     38672     38674     38676     38675     38677     38679     38678     38680
     38682     38681     38683     38685     38684     38686     38688     38687     38689
     38691     38690     38692     38694     38693     38695     38697     38696     38698
     38700     38699     38701     38703     38702     38704     38706     38705     38707
     38709     38708     38710     38712     38711     38713     38715     38714     38716
     38718     38717     38719     38721     38720     38722     38724     38723     38725
     38727     38726     38728     38730     38729     38731     38733     38732     38734
     38736     38735     38737     38739     38738     38740     38742     38741     38743
     38745     38744     38746     38748     38747     38749     38751     38750     38752
     38754     38753     38755     38757     38756     38758     38760     38759     38761
     38763     38762     38764     38766     38765     38767     38769     38768     38770
     38772     38771     38773     38775     38774     38776     38778     38777     38779
     38781     38780     38782     38784     38783     38785     38787     38786     38788
     38790     38789     38791     38793     38792     38794     38796     38795     38797
     38799     38798     38800     38802     38801     38803     38805     38804     38806
     38808     38807     38809     38811     38810     38812     38814     38813     38815
     38817     38816     38818     38820     38819     38821     38823     38822     38824
     38826     38825     38827     38829     38828     38830     38832     38831     38833
     38835     38834     38836     38838     38837     38839     38841     38840     38842
     38844     38843     38845     38847     38846     38848     38850     38849     38851
     38853     38852     38854     38856     38855     38857     38859     38858     38860
     38862     38861     38863     38865     38864     38866     38868     38867     38869
     38871     38870     38872     38874     38873     38875     38877     38876     38878
     38880     38879     38881     38883     38882     38884     38886     38885     38887
     38889     38888     38890     38892     38891     38893     38895     38894     38896
     38898     38897     38899     38901     38900     38902     38904     38903     38905
     38907     38906     38908     38910     38909     38911     38913     38912     38914
     38916     38915     38917     38919     38918     38920     38922     38921     38923
     38925     38924     38926     38928     38927     38929     38931     38930     38932
     38934     38933     38935     38937     38936     38938     38940     38939     38941
     38943     38942     38944     38946     38945     38947     38949     38948     38950
     38952     38951     38953     38955     38954     38956     38958     38957     38959
     38961     38960     38962     38964     38963     38965     38967     38966     38968
     38970     38969     38971     38973     38972     38974     38976     38975     38977
     38979     38978     38980     38982     38981     38983     38985     38984     38986
     38988     38987     38989     38991     38990     38992     38994     38993     38995
     38997     38996     38998     39000     38999     39001     39003     39002     39004
     39006     39005     39007     39009     39008     39010     39012     39011     39013
     39015     39014     39016     39018     39017     39019     39021     39020     39022
     39024     39023     39025     39027     39026     39028     39030     39029     39031
     39033     39032     39034     39036     39035     39037     39039     39038     39040
     39042     39041     39043     39045     39044     39046     39048     39047     39049
     39051     39050     39052     39054     39053     39055     39057     39056     39058
     39060     39059     39061     39063     39062     39064     39066     39065     39067
     39069     39068     39070     39072     39071     39073     39075     39074     39076
     39078     39077     39079     39081     39080     39082     39084     39083     39085
     39087     39086     39088     39090     39089     39091     39093     39092     39094
     39096     39095     39097     39099     39098     39100     39102     39101     39103
     39105     39104     39106     39108     39107     39109     39111     39110     39112
     39114     39113     39115     39117     39116     39118     39120     39119     39121
     39123     39122     39124     39126     39125     39127     39129     39128     39130
     39132     39131     39133     39135     39134     39136     39138     39137     39139
     39141     39140     39142     39144     39143     39145     39147     39146     39148
     39150     39149     39151     39153     39152     39154     39156     39155     39157
     39159     39158     39160     39162     39161     39163     39165     39164     39166
     39168     39167     39169     39171     39170     39172     39174     39173     39175
     39177     39176     39178     39180     39179     39181     39183     39182     39184
     39186     39185     39187     39189     39188     39190     39192     39191     39193
     39195     39194     39196     39198     39197     39199     39201     39200     39202
     39204     39203     39205     39207     39206     39208     39210     39209     39211
     39213     39212     39214     39216     39215     39217     39219     39218     39220
     39222     39221     39223     39225     39224     39226     39228     39227     39229
     39231     39230     39232     39234     39233     39235     39237     39236     39238
     39240     39239     39241     39243     39242     39244     39246     39245     39247
     39249     39248     39250     39252     39251     39253     39255     39254     39256
     39258     39257     39259     39261     39260     39262     39264     39263     39265
     39267     39266     39268     39270     39269     39271     39273     39272     39274
     39276     39275     39277     39279     39278     39280     39282     39281     39283
     39285     39284     39286     39288     39287     39289     39291     39290     39292
     39294     39293     39295     39297     39296     39298     39300     39299     39301
     39303     39302     39304     39306     39305     39307     39309     39308     39310
     39312     39311     39313     39315     39314     39316     39318     39317     39319
     39321     39320     39322     39324     39323     39325     39327     39326     39328
     39330     39329     39331     39333     39332     39334     39336     39335     39337
     39339     39338     39340     39342     39341     39343     39345     39344     39346
     39348     39347     39349     39351     39350     39352     39354     39353     39355
     39357     39356     39358     39360     39359     39361     39363     39362     39364
     39366     39365     39367     39369     39368     39370     39372     39371     39373
     39375     39374     39376     39378     39377     39379     39381     39380     39382
     39384     39383     39385     39387     39386     39388     39390     39389     39391
     39393     39392     39394     39396     39395     39397     39399     39398     39400
     39402     39401     39403     39405     39404     39406     39408     39407     39409
     39411     39410     39412     39414     39413     39415     39417     39416     39418
     39420     39419     39421     39423     39422     39424     39426     39425     39427
     39429     39428     39430     39432     39431     39433     39435     39434     39436
     39438     39437     39439     39441     39440     39442     39444     39443     39445
     39447     39446     39448     39450     39449     39451     39453     39452     39454
     39456     39455     39457     39459     39458     39460     39462     39461     39463
     39465     39464     39466     39468     39467     39469     39471     39470     39472
     39474     39473     39475     39477     39476     39478     39480     39479     39481
     39483     39482     39484     39486     39485     39487     39489     39488     39490
     39492     39491     39493     39495     39494     39496     39498     39497     39499
     39501     39500     39502     39504     39503     39505     39507     39506     39508
     39510     39509     39511     39513     39512     39514     39516     39515     39517
     39519     39518     39520     39522     39521     39523     39525     39524     39526
     39528     39527     39529     39531     39530     39532     39534     39533     39535
     39537     39536     39538     39540     39539     39541     39543     39542     39544
     39546     39545     39547     39549     39548     39550     39552     39551     39553
     39555     39554     39556     39558     39557     39559     39561     39560     39562
     39564     39563     39565     39567     39566     39568     39570     39569     39571
     39573     39572     39574     39576     39575     39577     39579     39578     39580
     39582     39581     39583     39585     39584     39586     39588     39587     39589
     39591     39590     39592     39594     39593     39595     39597     39596     39598
     39600     39599     39601     39603     39602     39604     39606     39605     39607
     39609     39608     39610     39612     39611     39613     39615     39614     39616
     39618     39617     39619     39621     39620     39622     39624     39623     39625
     39627     39626     39628     39630     39629     39631     39633     39632     39634
     39636     39635     39637     39639     39638     39640     39642     39641     39643
     39645     39644     39646     39648     39647     39649     39651     39650     39652
     39654     39653     39655     39657     39656     39658     39660     39659     39661
     39663     39662     39664     39666     39665     39667     39669     39668     39670
     39672     39671     39673     39675     39674     39676     39678     39677     39679
     39681     39680     39682     39684     39683     39685     39687     39686     39688
     39690     39689     39691     39693     39692     39694     39696     39695     39697
     39699     39698     39700     39702     39701     39703     39705     39704     39706
     39708     39707     39709     39711     39710     39712     39714     39713     39715
     39717     39716     39718     39720     39719     39721     39723     39722     39724
     39726     39725     39727     39729     39728     39730     39732     39731     39733
     39735     39734     39736     39738     39737     39739     39741     39740     39742
     39744     39743     39745     39747     39746     39748     39750     39749     39751
     39753     39752     39754     39756     39755     39757     39759     39758     39760
     39762     39761     39763     39765     39764     39766     39768     39767     39769
     39771     39770     39772     39774     39773     39775     39777     39776     39778
     39780     39779     39781     39783     39782     39784     39786     39785     39787
     39789     39788     39790     39792     39791     39793     39795     39794     39796
     39798     39797     39799     39801     39800     39802     39804     39803     39805
     39807     39806     39808     39810     39809     39811     39813     39812     39814
     39816     39815     39817     39819     39818     39820     39822     39821     39823
     39825     39824     39826     39828     39827     39829     39831     39830     39832
     39834     39833     39835     39837     39836     39838     39840     39839     39841
     39843     39842     39844     39846     39845     39847     39849     39848     39850
     39852     39851     39853     39855     39854     39856     39858     39857     39859
     39861     39860     39862     39864     39863     39865     39867     39866     39868
     39870     39869     39871     39873     39872     39874     39876     39875     39877
     39879     39878     39880     39882     39881     39883     39885     39884     39886
     39888     39887     39889     39891     39890     39892     39894     39893     39895
     39897     39896     39898     39900     39899     39901     39903     39902     39904
     39906     39905     39907     39909     39908     39910     39912     39911     39913
     39915     39914     39916     39918     39917     39919     39921     39920     39922
     39924     39923     39925     39927     39926     39928     39930     39929     39931
     39933     39932     39934     39936     39935     39937     39939     39938     39940
     39942     39941     39943     39945     39944     39946     39948     39947     39949
     39951     39950     39952     39954     39953     39955     39957     39956     39958
     39960     39959     39961     39963     39962     39964     39966     39965     39967
     39969     39968     39970     39972     39971     39973     39975     39974     39976
     39978     39977     39979     39981     39980     39982     39984     39983     39985
     39987     39986     39988     39990     39989     39991     39993     39992     39994
     39996     39995     39997     39999     39998     40000     40002     40001     40003
     40005     40004     40006     40008     40007     40009     40011     40010     40012
     40014     40013     40015     40017     40016     40018     40020     40019     40021
     40023     40022     40024     40026     40025     40027     40029     40028     40030
     40032     40031     40033     40035     40034     40036     40038     40037     40039
     40041     40040     40042     40044     40043     40045     40047     40046     40048
     40050     40049     40051     40053     40052     40054     40056     40055     40057
     40059     40058     40060     40062     40061     40063     40065     40064     40066
     40068     40067     40069     40071     40070     40072     40074     40073     40075
     40077     40076     40078     40080     40079     40081     40083     40082     40084
     40086     40085     40087     40089     40088     40090     40092     40091     40093
     40095     40094     40096     40098     40097     40099     40101     40100     40102
     40104     40103     40105     40107     40106     40108     40110     40109     40111
     40113     40112     40114     40116     40115     40117     40119     40118     40120
     40122     40121     40123     40125     40124     40126     40128     40127     40129
     40131     40130     40132     40134     40133     40135     40137     40136     40138
     40140     40139     40141     40143     40142     40144     40146     40145     40147
     40149     40148     40150     40152     40151     40153     40155     40154     40156
     40158     40157     40159     40161     40160     40162     40164     40163     40165
     40167     40166     40168     40170     40169     40171     40173     40172     40174
     40176     40175     40177     40179     40178     40180     40182     40181     40183
     40185     40184     40186     40188     40187     40189     40191     40190     40192
     40194     40193     40195     40197     40196     40198     40200     40199     40201
     40203     40202     40204     40206     40205     40207     40209     40208     40210
     40212     40211     40213     40215     40214     40216     40218     40217     40219
     40221     40220     40222     40224     40223     40225     40227     40226     40228
     40230     40229     40231     40233     40232     40234     40236     40235     40237
     40239     40238     40240     40242     40241     40243     40245     40244     40246
     40248     40247     40249     40251     40250     40252     40254     40253     40255
     40257     40256     40258     40260     40259     40261     40263     40262     40264
     40266     40265     40267     40269     40268     40270     40272     40271     40273
     40275     40274     40276     40278     40277     40279     40281     40280     40282
     40284     40283     40285     40287     40286     40288     40290     40289     40291
     40293     40292     40294     40296     40295     40297     40299     40298     40300
     40302     40301     40303     40305     40304     40306     40308     40307     40309
     40311     40310     40312     40314     40313     40315     40317     40316     40318
     40320     40319     40321     40323     40322     40324     40326     40325     40327
     40329     40328     40330     40332     40331     40333     40335     40334     40336
     40338     40337     40339     40341     40340     40342     40344     40343     40345
     40347     40346     40348     40350     40349     40351     40353     40352     40354
     40356     40355     40357     40359     40358     40360     40362     40361     40363
     40365     40364     40366     40368     40367     40369     40371     40370     40372
     40374     40373     40375     40377     40376     40378     40380     40379     40381
     40383     40382     40384     40386     40385     40387     40389     40388     40390
     40392     40391     40393     40395     40394     40396     40398     40397     40399
     40401     40400     40402     40404     40403     40405     40407     40406     40408
     40410     40409     40411     40413     40412     40414     40416     40415     40417
     40419     40418     40420     40422     40421     40423     40425     40424     40426
     40428     40427     40429     40431     40430     40432     40434     40433     40435
     40437     40436     40438     40440     40439     40441     40443     40442     40444
     40446     40445     40447     40449     40448     40450     40452     40451     40453
     40455     40454     40456     40458     40457     40459     40461     40460     40462
     40464     40463     40465     40467     40466     40468     40470     40469     40471
     40473     40472     40474     40476     40475     40477     40479     40478     40480
     40482     40481     40483     40485     40484     40486     40488     40487     40489
     40491     40490     40492     40494     40493     40495     40497     40496     40498
     40500     40499     40501     40503     40502     40504     40506     40505     40507
     40509     40508     40510     40512     40511     40513     40515     40514     40516
     40518     40517     40519     40521     40520     40522     40524     40523     40525
     40527     40526     40528     40530     40529     40531     40533     40532     40534
     40536     40535     40537     40539     40538     40540     40542     40541     40543
     40545     40544     40546     40548     40547     40549     40551     40550     40552
     40554     40553     40555     40557     40556     40558     40560     40559     40561
     40563     40562     40564     40566     40565     40567     40569     40568     40570
     40572     40571     40573     40575     40574     40576     40578     40577     40579
     40581     40580     40582     40584     40583     40585     40587     40586     40588
     40590     40589     40591     40593     40592     40594     40596     40595     40597
     40599     40598     40600     40602     40601     40603     40605     40604     40606
     40608     40607     40609     40611     40610     40612     40614     40613     40615
     40617     40616     40618     40620     40619     40621     40623     40622     40624
     40626     40625     40627     40629     40628     40630     40632     40631     40633
     40635     40634     40636     40638     40637     40639     40641     40640     40642
     40644     40643     40645     40647     40646     40648     40650     40649     40651
     40653     40652     40654     40656     40655     40657     40659     40658     40660
     40662     40661     40663     40665     40664     40666     40668     40667     40669
     40671     40670     40672     40674     40673     40675     40677     40676     40678
     40680     40679     40681     40683     40682     40684     40686     40685     40687
     40689     40688     40690     40692     40691     40693     40695     40694     40696
     40698     40697     40699     40701     40700     40702     40704     40703     40705
     40707     40706     40708     40710     40709     40711     40713     40712     40714
     40716     40715     40717     40719     40718     40720     40722     40721     40723
     40725     40724     40726     40728     40727     40729     40731     40730     40732
     40734     40733     40735     40737     40736     40738     40740     40739     40741
     40743     40742     40744     40746     40745     40747     40749     40748     40750
     40752     40751     40753     40755     40754     40756     40758     40757     40759
     40761     40760     40762     40764     40763     40765     40767     40766     40768
     40770     40769     40771     40773     40772     40774     40776     40775     40777
     40779     40778     40780     40782     40781     40783     40785     40784     40786
     40788     40787     40789     40791     40790     40792     40794     40793     40795
     40797     40796     40798     40800     40799     40801     40803     40802     40804
     40806     40805     40807     40809     40808     40810     40812     40811     40813
     40815     40814     40816     40818     40817     40819     40821     40820     40822
     40824     40823     40825     40827     40826     40828     40830     40829     40831
     40833     40832     40834     40836     40835     40837     40839     40838     40840
     40842     40841     40843     40845     40844     40846     40848     40847     40849
     40851     40850     40852     40854     40853     40855     40857     40856     40858
     40860     40859     40861     40863     40862     40864     40866     40865     40867
     40869     40868     40870     40872     40871     40873     40875     40874     40876
     40878     40877     40879     40881     40880     40882     40884     40883     40885
     40887     40886     40888     40890     40889     40891     40893     40892     40894
     40896     40895     40897     40899     40898     40900     40902     40901     40903
     40905     40904     40906     40908     40907     40909     40911     40910     40912
     40914     40913     40915     40917     40916     40918     40920     40919     40921
     40923     40922     40924     40926     40925     40927     40929     40928     40930
     40932     40931     40933     40935     40934     40936     40938     40937     40939
     40941     40940     40942     40944     40943     40945     40947     40946     40948
     40950     40949     40951     40953     40952     40954     40956     40955     40957
     40959     40958     40960     40962     40961     40963     40965     40964     40966
     40968     40967     40969     40971     40970     40972     40974     40973     40975
     40977     40976     40978     40980     40979     40981     40983     40982     40984
     40986     40985     40987     40989     40988     40990     40992     40991     40993
     40995     40994     40996     40998     40997     40999     41001     41000     41002
     41004     41003     41005     41007     41006     41008     41010     41009     41011
     41013     41012     41014     41016     41015     41017     41019     41018     41020
     41022     41021     41023     41025     41024     41026     41028     41027     41029
     41031     41030     41032     41034     41033     41035     41037     41036     41038
     41040     41039     41041     41043     41042     41044     41046     41045     41047
     41049     41048     41050     41052     41051     41053     41055     41054     41056
     41058     41057     41059     41061     41060     41062     41064     41063     41065
     41067     41066     41068     41070     41069     41071     41073     41072     41074
     41076     41075     41077     41079     41078     41080     41082     41081     41083
     41085     41084     41086     41088     41087     41089     41091     41090     41092
     41094     41093     41095     41097     41096     41098     41100     41099     41101
     41103     41102     41104     41106     41105     41107     41109     41108     41110
     41112     41111     41113     41115     41114     41116     41118     41117     41119
     41121     41120     41122     41124     41123     41125     41127     41126     41128
     41130     41129     41131     41133     41132     41134     41136     41135     41137
     41139     41138     41140     41142     41141     41143     41145     41144     41146
     41148     41147     41149     41151     41150     41152     41154     41153     41155
     41157     41156     41158     41160     41159     41161     41163     41162     41164
     41166     41165     41167     41169     41168     41170     41172     41171     41173
     41175     41174     41176     41178     41177     41179     41181     41180     41182
     41184     41183     41185     41187     41186     41188     41190     41189     41191
     41193     41192     41194     41196     41195     41197     41199     41198     41200
     41202     41201     41203     41205     41204     41206     41208     41207     41209
     41211     41210     41212     41214     41213     41215     41217     41216     41218
     41220     41219     41221     41223     41222     41224     41226     41225     41227
     41229     41228     41230     41232     41231     41233     41235     41234     41236
     41238     41237     41239     41241     41240     41242     41244     41243     41245
     41247     41246     41248     41250     41249     41251     41253     41252     41254
     41256     41255     41257     41259     41258     41260     41262     41261     41263
     41265     41264     41266     41268     41267     41269     41271     41270     41272
     41274     41273     41275     41277     41276     41278     41280     41279     41281
     41283     41282     41284     41286     41285     41287     41289     41288     41290
     41292     41291     41293     41295     41294     41296     41298     41297     41299
     41301     41300     41302     41304     41303     41305     41307     41306     41308
     41310     41309     41311     41313     41312     41314     41316     41315     41317
     41319     41318     41320     41322     41321     41323     41325     41324     41326
     41328     41327     41329     41331     41330     41332     41334     41333     41335
     41337     41336     41338     41340     41339     41341     41343     41342     41344
     41346     41345     41347     41349     41348     41350     41352     41351     41353
     41355     41354     41356     41358     41357     41359     41361     41360     41362
     41364     41363     41365     41367     41366     41368     41370     41369     41371
     41373     41372     41374     41376     41375     41377     41379     41378     41380
     41382     41381     41383     41385     41384     41386     41388     41387     41389
     41391     41390     41392     41394     41393     41395     41397     41396     41398
     41400     41399     41401     41403     41402     41404     41406     41405     41407
     41409     41408     41410     41412     41411     41413     41415     41414     41416
     41418     41417     41419     41421     41420     41422     41424     41423     41425
     41427     41426     41428     41430     41429     41431     41433     41432     41434
     41436     41435     41437     41439     41438     41440     41442     41441     41443
     41445     41444     41446     41448     41447     41449     41451     41450     41452
     41454     41453     41455     41457     41456     41458     41460     41459     41461
     41463     41462     41464     41466     41465     41467     41469     41468     41470
     41472     41471     41473     41475     41474     41476     41478     41477     41479
     41481     41480     41482     41484     41483     41485     41487     41486     41488
     41490     41489     41491     41493     41492     41494     41496     41495     41497
     41499     41498     41500     41502     41501     41503     41505     41504     41506
     41508     41507     41509     41511     41510     41512     41514     41513     41515
     41517     41516     41518     41520     41519     41521     41523     41522     41524
     41526     41525     41527     41529     41528     41530     41532     41531     41533
     41535     41534     41536     41538     41537     41539     41541     41540     41542
     41544     41543     41545     41547     41546     41548     41550     41549     41551
     41553     41552     41554     41556     41555     41557     41559     41558     41560
     41562     41561     41563     41565     41564     41566     41568     41567     41569
     41571     41570     41572     41574     41573     41575     41577     41576     41578
     41580     41579     41581     41583     41582     41584     41586     41585     41587
     41589     41588     41590     41592     41591     41593     41595     41594     41596
     41598     41597     41599     41601     41600     41602     41604     41603     41605
     41607     41606     41608     41610     41609     41611     41613     41612     41614
     41616     41615     41617     41619     41618     41620     41622     41621     41623
     41625     41624     41626     41628     41627     41629     41631     41630     41632
     41634     41633     41635     41637     41636     41638     41640     41639     41641
     41643     41642     41644     41646     41645     41647     41649     41648     41650
     41652     41651     41653     41655     41654     41656     41658     41657     41659
     41661     41660     41662     41664     41663     41665     41667     41666     41668
     41670     41669     41671     41673     41672     41674     41676     41675     41677
     41679     41678     41680     41682     41681     41683     41685     41684     41686
     41688     41687     41689     41691     41690     41692     41694     41693     41695
     41697     41696     41698     41700     41699     41701     41703     41702     41704
     41706     41705     41707     41709     41708     41710     41712     41711     41713
     41715     41714     41716     41718     41717     41719     41721     41720     41722
     41724     41723     41725     41727     41726     41728     41730     41729     41731
     41733     41732     41734     41736     41735     41737     41739     41738     41740
     41742     41741     41743     41745     41744     41746     41748     41747     41749
     41751     41750     41752     41754     41753     41755     41757     41756     41758
     41760     41759     41761     41763     41762     41764     41766     41765     41767
     41769     41768     41770     41772     41771     41773     41775     41774     41776
     41778     41777     41779     41781     41780     41782     41784     41783     41785
     41787     41786     41788     41790     41789     41791     41793     41792     41794
     41796     41795     41797     41799     41798     41800     41802     41801     41803
     41805     41804     41806     41808     41807     41809     41811     41810     41812
     41814     41813     41815     41817     41816     41818     41820     41819     41821
     41823     41822     41824     41826     41825     41827     41829     41828     41830
     41832     41831     41833     41835     41834     41836     41838     41837     41839
     41841     41840     41842     41844     41843     41845     41847     41846     41848
     41850     41849     41851     41853     41852     41854     41856     41855     41857
     41859     41858     41860     41862     41861     41863     41865     41864     41866
     41868     41867     41869     41871     41870     41872     41874     41873     41875
     41877     41876     41878     41880     41879     41881     41883     41882     41884
     41886     41885     41887     41889     41888     41890     41892     41891     41893
     41895     41894     41896     41898     41897     41899     41901     41900     41902
     41904     41903     41905     41907     41906     41908     41910     41909     41911
     41913     41912     41914     41916     41915     41917     41919     41918     41920
     41922     41921     41923     41925     41924     41926     41928     41927     41929
     41931     41930     41932     41934     41933     41935     41937     41936     41938
     41940     41939     41941     41943     41942     41944     41946     41945     41947
     41949     41948     41950     41952     41951     41953     41955     41954     41956
     41958     41957     41959     41961     41960     41962     41964     41963     41965
     41967     41966     41968     41970     41969     41971     41973     41972     41974
     41976     41975     41977     41979     41978     41980     41982     41981     41983
     41985     41984     41986     41988     41987     41989     41991     41990     41992
     41994     41993     41995     41997     41996     41998     42000     41999     42001
     42003     42002     42004     42006     42005     42007     42009     42008     42010
     42012     42011     42013     42015     42014     42016     42018     42017     42019
     42021     42020     42022     42024     42023     42025     42027     42026     42028
     42030     42029     42031     42033     42032     42034     42036     42035     42037
     42039     42038     42040     42042     42041     42043     42045     42044     42046
     42048     42047     42049     42051     42050     42052     42054     42053     42055
     42057     42056     42058     42060     42059     42061     42063     42062     42064
     42066     42065     42067     42069     42068     42070     42072     42071     42073
     42075     42074     42076     42078     42077     42079     42081     42080     42082
     42084     42083     42085     42087     42086     42088     42090     42089     42091
     42093     42092     42094     42096     42095     42097     42099     42098     42100
     42102     42101     42103     42105     42104     42106     42108     42107     42109
     42111     42110     42112     42114     42113     42115     42117     42116     42118
     42120     42119     42121     42123     42122     42124     42126     42125     42127
     42129     42128     42130     42132     42131     42133     42135     42134     42136
     42138     42137     42139     42141     42140     42142     42144     42143     42145
     42147     42146     42148     42150     42149     42151     42153     42152     42154
     42156     42155     42157     42159     42158     42160     42162     42161     42163
     42165     42164     42166     42168     42167     42169     42171     42170     42172
     42174     42173     42175     42177     42176     42178     42180     42179     42181
     42183     42182     42184     42186     42185     42187     42189     42188     42190
     42192     42191     42193     42195     42194     42196     42198     42197     42199
     42201     42200     42202     42204     42203     42205     42207     42206     42208
     42210     42209     42211     42213     42212     42214     42216     42215     42217
     42219     42218     42220     42222     42221     42223     42225     42224     42226
     42228     42227     42229     42231     42230     42232     42234     42233     42235
     42237     42236     42238     42240     42239     42241     42243     42242     42244
     42246     42245     42247     42249     42248     42250     42252     42251     42253
     42255     42254     42256     42258     42257     42259     42261     42260     42262
     42264     42263     42265     42267     42266     42268     42270     42269     42271
     42273     42272     42274     42276     42275     42277     42279     42278     42280
     42282     42281     42283     42285     42284     42286     42288     42287     42289
     42291     42290     42292     42294     42293     42295     42297     42296     42298
     42300     42299     42301     42303     42302     42304     42306     42305     42307
     42309     42308     42310     42312     42311     42313     42315     42314     42316
     42318     42317     42319     42321     42320     42322     42324     42323     42325
     42327     42326     42328     42330     42329     42331     42333     42332     42334
     42336     42335     42337     42339     42338     42340     42342     42341     42343
     42345     42344     42346     42348     42347     42349     42351     42350     42352
     42354     42353     42355     42357     42356     42358     42360     42359     42361
     42363     42362     42364     42366     42365     42367     42369     42368     42370
     42372     42371     42373     42375     42374     42376     42378     42377     42379
     42381     42380     42382     42384     42383     42385     42387     42386     42388
     42390     42389     42391     42393     42392     42394     42396     42395     42397
     42399     42398     42400     42402     42401     42403     42405     42404     42406
     42408     42407     42409     42411     42410     42412     42414     42413     42415
     42417     42416     42418     42420     42419     42421     42423     42422     42424
     42426     42425     42427     42429     42428     42430     42432     42431     42433
     42435     42434     42436     42438     42437     42439     42441     42440     42442
     42444     42443     42445     42447     42446     42448     42450     42449     42451
     42453     42452     42454     42456     42455     42457     42459     42458     42460
     42462     42461     42463     42465     42464     42466     42468     42467     42469
     42471     42470     42472     42474     42473     42475     42477     42476     42478
     42480     42479     42481     42483     42482     42484     42486     42485     42487
     42489     42488     42490     42492     42491     42493     42495     42494     42496
     42498     42497     42499     42501     42500     42502     42504     42503     42505
     42507     42506     42508     42510     42509     42511     42513     42512     42514
     42516     42515     42517     42519     42518     42520     42522     42521     42523
     42525     42524     42526     42528     42527     42529     42531     42530     42532
     42534     42533     42535     42537     42536     42538     42540     42539     42541
     42543     42542     42544     42546     42545     42547     42549     42548     42550
     42552     42551     42553     42555     42554     42556     42558     42557     42559
     42561     42560     42562     42564     42563     42565     42567     42566     42568
     42570     42569     42571     42573     42572     42574     42576     42575     42577
     42579     42578     42580     42582     42581     42583     42585     42584     42586
     42588     42587     42589     42591     42590     42592     42594     42593     42595
     42597     42596     42598     42600     42599     42601     42603     42602     42604
     42606     42605     42607     42609     42608     42610     42612     42611     42613
     42615     42614     42616     42618     42617     42619     42621     42620     42622
     42624     42623     42625     42627     42626     42628     42630     42629     42631
     42633     42632     42634     42636     42635     42637     42639     42638     42640
     42642     42641     42643     42645     42644     42646     42648     42647     42649
     42651     42650     42652     42654     42653     42655     42657     42656     42658
     42660     42659     42661     42663     42662     42664     42666     42665     42667
     42669     42668     42670     42672     42671     42673     42675     42674     42676
     42678     42677     42679     42681     42680     42682     42684     42683     42685
     42687     42686     42688     42690     42689     42691     42693     42692     42694
     42696     42695     42697     42699     42698     42700     42702     42701     42703
     42705     42704     42706     42708     42707     42709     42711     42710     42712
     42714     42713     42715     42717     42716     42718     42720     42719     42721
     42723     42722     42724     42726     42725     42727     42729     42728     42730
     42732     42731     42733     42735     42734     42736     42738     42737     42739
     42741     42740     42742     42744     42743     42745     42747     42746     42748
     42750     42749     42751     42753     42752     42754     42756     42755     42757
     42759     42758     42760     42762     42761     42763     42765     42764     42766
     42768     42767     42769     42771     42770     42772     42774     42773     42775
     42777     42776     42778     42780     42779     42781     42783     42782     42784
     42786     42785     42787     42789     42788     42790     42792     42791     42793
     42795     42794     42796     42798     42797     42799     42801     42800     42802
     42804     42803     42805     42807     42806     42808     42810     42809     42811
     42813     42812     42814     42816     42815     42817     42819     42818     42820
     42822     42821     42823     42825     42824     42826     42828     42827     42829
     42831     42830     42832     42834     42833     42835     42837     42836     42838
     42840     42839     42841     42843     42842     42844     42846     42845     42847
     42849     42848     42850     42852     42851     42853     42855     42854     42856
     42858     42857     42859     42861     42860     42862     42864     42863     42865
     42867     42866     42868     42870     42869     42871     42873     42872     42874
     42876     42875     42877     42879     42878     42880     42882     42881     42883
     42885     42884     42886     42888     42887     42889     42891     42890     42892
     42894     42893     42895     42897     42896     42898     42900     42899     42901
     42903     42902     42904     42906     42905     42907     42909     42908     42910
     42912     42911     42913     42915     42914     42916     42918     42917     42919
     42921     42920     42922     42924     42923     42925     42927     42926     42928
     42930     42929     42931     42933     42932     42934     42936     42935     42937
     42939     42938     42940     42942     42941     42943     42945     42944     42946
     42948     42947     42949     42951     42950     42952     42954     42953     42955
     42957     42956     42958     42960     42959     42961     42963     42962     42964
     42966     42965     42967     42969     42968     42970     42972     42971     42973
     42975     42974     42976     42978     42977     42979     42981     42980     42982
     42984     42983     42985     42987     42986     42988     42990     42989     42991
     42993     42992     42994     42996     42995     42997     42999     42998     43000
     43002     43001     43003     43005     43004     43006     43008     43007     43009
     43011     43010     43012     43014     43013     43015     43017     43016     43018
     43020     43019     43021     43023     43022     43024     43026     43025     43027
     43029     43028     43030     43032     43031     43033     43035     43034     43036
     43038     43037     43039     43041     43040     43042     43044     43043     43045
     43047     43046     43048     43050     43049     43051     43053     43052     43054
     43056     43055     43057     43059     43058     43060     43062     43061     43063
     43065     43064     43066     43068     43067     43069     43071     43070     43072
     43074     43073     43075     43077     43076     43078     43080     43079     43081
     43083     43082     43084     43086     43085     43087     43089     43088     43090
     43092     43091     43093     43095     43094     43096     43098     43097     43099
     43101     43100     43102     43104     43103     43105     43107     43106     43108
     43110     43109     43111     43113     43112     43114     43116     43115     43117
     43119     43118     43120     43122     43121     43123     43125     43124     43126
     43128     43127     43129     43131     43130     43132     43134     43133     43135
     43137     43136     43138     43140     43139     43141     43143     43142     43144
     43146     43145     43147     43149     43148     43150     43152     43151     43153
     43155     43154     43156     43158     43157     43159     43161     43160     43162
     43164     43163     43165     43167     43166     43168     43170     43169     43171
     43173     43172     43174     43176     43175     43177     43179     43178     43180
     43182     43181     43183     43185     43184     43186     43188     43187     43189
     43191     43190     43192     43194     43193     43195     43197     43196     43198
     43200     43199     43201     43203     43202     43204     43206     43205     43207
     43209     43208     43210     43212     43211     43213     43215     43214     43216
     43218     43217     43219     43221     43220     43222     43224     43223     43225
     43227     43226     43228     43230     43229     43231     43233     43232     43234
     43236     43235     43237     43239     43238     43240     43242     43241     43243
     43245     43244     43246     43248     43247     43249     43251     43250     43252
     43254     43253     43255     43257     43256     43258     43260     43259     43261
     43263     43262     43264     43266     43265     43267     43269     43268     43270
     43272     43271     43273     43275     43274     43276     43278     43277     43279
     43281     43280     43282     43284     43283     43285     43287     43286     43288
     43290     43289     43291     43293     43292     43294     43296     43295     43297
     43299     43298     43300     43302     43301     43303     43305     43304     43306
     43308     43307     43309     43311     43310     43312     43314     43313     43315
     43317     43316     43318     43320     43319     43321     43323     43322     43324
     43326     43325     43327     43329     43328     43330     43332     43331     43333
     43335     43334     43336     43338     43337     43339     43341     43340     43342
     43344     43343     43345     43347     43346     43348     43350     43349     43351
     43353     43352     43354     43356     43355     43357     43359     43358     43360
     43362     43361     43363     43365     43364     43366     43368     43367     43369
     43371     43370     43372     43374     43373     43375     43377     43376     43378
     43380     43379     43381     43383     43382     43384     43386     43385     43387
     43389     43388     43390     43392     43391     43393     43395     43394     43396
     43398     43397     43399     43401     43400     43402     43404     43403     43405
     43407     43406     43408     43410     43409     43411     43413     43412     43414
     43416     43415     43417     43419     43418     43420     43422     43421     43423
     43425     43424     43426     43428     43427     43429     43431     43430     43432
     43434     43433     43435     43437     43436     43438     43440     43439     43441
     43443     43442     43444     43446     43445     43447     43449     43448     43450
     43452     43451     43453     43455     43454     43456     43458     43457     43459
     43461     43460     43462     43464     43463     43465     43467     43466     43468
     43470     43469     43471     43473     43472     43474     43476     43475     43477
     43479     43478     43480     43482     43481     43483     43485     43484     43486
     43488     43487     43489     43491     43490     43492     43494     43493     43495
     43497     43496     43498     43500     43499     43501     43503     43502     43504
     43506     43505     43507     43509     43508     43510     43512     43511     43513
     43515     43514     43516     43518     43517     43519     43521     43520     43522
     43524     43523     43525     43527     43526     43528     43530     43529     43531
     43533     43532     43534     43536     43535     43537     43539     43538     43540
     43542     43541     43543     43545     43544     43546     43548     43547     43549
     43551     43550     43552     43554     43553     43555     43557     43556     43558
     43560     43559     43561     43563     43562     43564     43566     43565     43567
     43569     43568     43570     43572     43571     43573     43575     43574     43576
     43578     43577     43579     43581     43580     43582     43584     43583     43585
     43587     43586     43588     43590     43589     43591     43593     43592     43594
     43596     43595     43597     43599     43598     43600     43602     43601     43603
     43605     43604     43606     43608     43607     43609     43611     43610     43612
     43614     43613     43615     43617     43616     43618     43620     43619     43621
     43623     43622     43624     43626     43625     43627     43629     43628     43630
     43632     43631     43633     43635     43634     43636     43638     43637     43639
     43641     43640     43642     43644     43643     43645     43647     43646     43648
     43650     43649     43651     43653     43652     43654     43656     43655     43657
     43659     43658     43660     43662     43661     43663     43665     43664     43666
     43668     43667     43669     43671     43670     43672     43674     43673     43675
     43677     43676     43678     43680     43679     43681     43683     43682     43684
     43686     43685     43687     43689     43688     43690     43692     43691     43693
     43695     43694     43696     43698     43697     43699     43701     43700     43702
     43704     43703     43705     43707     43706     43708     43710     43709     43711
     43713     43712     43714     43716     43715     43717     43719     43718     43720
     43722     43721     43723     43725     43724     43726     43728     43727     43729
     43731     43730     43732     43734     43733     43735     43737     43736     43738
     43740     43739     43741     43743     43742     43744     43746     43745     43747
     43749     43748     43750     43752     43751     43753     43755     43754     43756
     43758     43757     43759     43761     43760     43762     43764     43763     43765
     43767     43766     43768     43770     43769     43771     43773     43772     43774
     43776     43775     43777     43779     43778     43780     43782     43781     43783
     43785     43784     43786     43788     43787     43789     43791     43790     43792
     43794     43793     43795     43797     43796     43798     43800     43799     43801
     43803     43802     43804     43806     43805     43807     43809     43808     43810
     43812     43811     43813     43815     43814     43816     43818     43817     43819
     43821     43820     43822     43824     43823     43825     43827     43826     43828
     43830     43829     43831     43833     43832     43834     43836     43835     43837
     43839     43838     43840     43842     43841     43843     43845     43844     43846
     43848     43847     43849     43851     43850     43852     43854     43853     43855
     43857     43856     43858     43860     43859     43861     43863     43862     43864
     43866     43865     43867     43869     43868     43870     43872     43871     43873
     43875     43874     43876     43878     43877     43879     43881     43880     43882
     43884     43883     43885     43887     43886     43888     43890     43889     43891
     43893     43892     43894     43896     43895     43897     43899     43898     43900
     43902     43901     43903     43905     43904     43906     43908     43907     43909
     43911     43910     43912     43914     43913     43915     43917     43916     43918
     43920     43919     43921     43923     43922     43924     43926     43925     43927
     43929     43928     43930     43932     43931     43933     43935     43934     43936
     43938     43937     43939     43941     43940     43942     43944     43943     43945
     43947     43946     43948     43950     43949     43951     43953     43952     43954
     43956     43955     43957     43959     43958     43960     43962     43961     43963
     43965     43964     43966     43968     43967     43969     43971     43970     43972
     43974     43973     43975     43977     43976     43978     43980     43979     43981
     43983     43982     43984     43986     43985     43987     43989     43988     43990
     43992     43991     43993     43995     43994     43996     43998     43997     43999
     44001     44000     44002     44004     44003     44005     44007     44006     44008
     44010     44009     44011     44013     44012     44014     44016     44015     44017
     44019     44018     44020     44022     44021     44023     44025     44024     44026
     44028     44027     44029     44031     44030     44032     44034     44033     44035
     44037     44036     44038     44040     44039     44041     44043     44042     44044
     44046     44045     44047     44049     44048     44050     44052     44051     44053
     44055     44054     44056     44058     44057     44059     44061     44060     44062
     44064     44063     44065     44067     44066     44068     44070     44069     44071
     44073     44072     44074     44076     44075     44077     44079     44078     44080
     44082     44081     44083     44085     44084     44086     44088     44087     44089
     44091     44090     44092     44094     44093     44095     44097     44096     44098
     44100     44099     44101     44103     44102     44104     44106     44105     44107
     44109     44108     44110     44112     44111     44113     44115     44114     44116
     44118     44117     44119     44121     44120     44122     44124     44123     44125
     44127     44126     44128     44130     44129     44131     44133     44132     44134
     44136     44135     44137     44139     44138     44140     44142     44141     44143
     44145     44144     44146     44148     44147     44149     44151     44150     44152
     44154     44153     44155     44157     44156     44158     44160     44159     44161
     44163     44162     44164     44166     44165     44167     44169     44168     44170
     44172     44171     44173     44175     44174     44176     44178     44177     44179
     44181     44180     44182     44184     44183     44185     44187     44186     44188
     44190     44189     44191     44193     44192     44194     44196     44195     44197
     44199     44198     44200     44202     44201     44203     44205     44204     44206
     44208     44207     44209     44211     44210     44212     44214     44213     44215
     44217     44216     44218     44220     44219     44221     44223     44222     44224
     44226     44225     44227     44229     44228     44230     44232     44231     44233
     44235     44234     44236     44238     44237     44239     44241     44240     44242
     44244     44243     44245     44247     44246     44248     44250     44249     44251
     44253     44252     44254     44256     44255     44257     44259     44258     44260
     44262     44261     44263     44265     44264     44266     44268     44267     44269
     44271     44270     44272     44274     44273     44275     44277     44276     44278
     44280     44279     44281     44283     44282     44284     44286     44285     44287
     44289     44288     44290     44292     44291     44293     44295     44294     44296
     44298     44297     44299     44301     44300     44302     44304     44303     44305
     44307     44306     44308     44310     44309     44311     44313     44312     44314
     44316     44315     44317     44319     44318     44320     44322     44321     44323
     44325     44324     44326     44328     44327     44329     44331     44330     44332
     44334     44333     44335     44337     44336     44338     44340     44339     44341
     44343     44342     44344     44346     44345     44347     44349     44348     44350
     44352     44351     44353     44355     44354     44356     44358     44357     44359
     44361     44360     44362     44364     44363     44365     44367     44366     44368
     44370     44369     44371     44373     44372     44374     44376     44375     44377
     44379     44378     44380     44382     44381     44383     44385     44384     44386
     44388     44387     44389     44391     44390     44392     44394     44393     44395
     44397     44396     44398     44400     44399     44401     44403     44402     44404
     44406     44405     44407     44409     44408     44410     44412     44411     44413
     44415     44414     44416     44418     44417     44419     44421     44420     44422
     44424     44423     44425     44427     44426     44428     44430     44429     44431
     44433     44432     44434     44436     44435     44437     44439     44438     44440
     44442     44441     44443     44445     44444     44446     44448     44447     44449
     44451     44450     44452     44454     44453     44455     44457     44456     44458
     44460     44459     44461     44463     44462     44464     44466     44465     44467
     44469     44468     44470     44472     44471     44473     44475     44474     44476
     44478     44477     44479     44481     44480     44482     44484     44483     44485
     44487     44486     44488     44490     44489     44491     44493     44492     44494
     44496     44495     44497     44499     44498     44500     44502     44501     44503
     44505     44504     44506     44508     44507     44509     44511     44510     44512
     44514     44513     44515     44517     44516     44518     44520     44519     44521
     44523     44522     44524     44526     44525     44527     44529     44528     44530
     44532     44531     44533     44535     44534     44536     44538     44537     44539
     44541     44540     44542     44544     44543     44545     44547     44546     44548
     44550     44549     44551     44553     44552     44554     44556     44555     44557
     44559     44558     44560     44562     44561     44563     44565     44564     44566
     44568     44567     44569     44571     44570     44572     44574     44573     44575
     44577     44576     44578     44580     44579     44581     44583     44582     44584
     44586     44585     44587     44589     44588     44590     44592     44591     44593
     44595     44594     44596     44598     44597     44599     44601     44600     44602
     44604     44603     44605     44607     44606     44608     44610     44609     44611
     44613     44612     44614     44616     44615     44617     44619     44618     44620
     44622     44621     44623     44625     44624     44626     44628     44627     44629
     44631     44630     44632     44634     44633     44635     44637     44636     44638
     44640     44639     44641     44643     44642     44644     44646     44645     44647
     44649     44648     44650     44652     44651     44653     44655     44654     44656
     44658     44657     44659     44661     44660     44662     44664     44663     44665
     44667     44666     44668     44670     44669     44671     44673     44672     44674
     44676     44675     44677     44679     44678     44680     44682     44681     44683
     44685     44684     44686     44688     44687     44689     44691     44690     44692
     44694     44693     44695     44697     44696     44698     44700     44699     44701
     44703     44702     44704     44706     44705     44707     44709     44708     44710
     44712     44711     44713     44715     44714     44716     44718     44717     44719
     44721     44720     44722     44724     44723     44725     44727     44726     44728
     44730     44729     44731     44733     44732     44734     44736     44735     44737
     44739     44738     44740     44742     44741     44743     44745     44744     44746
     44748     44747     44749     44751     44750     44752     44754     44753     44755
     44757     44756     44758     44760     44759     44761     44763     44762     44764
     44766     44765     44767     44769     44768     44770     44772     44771     44773
     44775     44774     44776     44778     44777     44779     44781     44780     44782
     44784     44783     44785     44787     44786     44788     44790     44789     44791
     44793     44792     44794     44796     44795     44797     44799     44798     44800
     44802     44801     44803     44805     44804     44806     44808     44807     44809
     44811     44810     44812     44814     44813     44815     44817     44816     44818
     44820     44819     44821     44823     44822     44824     44826     44825     44827
     44829     44828     44830     44832     44831     44833     44835     44834     44836
     44838     44837     44839     44841     44840     44842     44844     44843     44845
     44847     44846     44848     44850     44849     44851     44853     44852     44854
     44856     44855     44857     44859     44858     44860     44862     44861     44863
     44865     44864     44866     44868     44867     44869     44871     44870     44872
     44874     44873     44875     44877     44876     44878     44880     44879     44881
     44883     44882     44884     44886     44885     44887     44889     44888     44890
     44892     44891     44893     44895     44894     44896     44898     44897     44899
     44901     44900     44902     44904     44903     44905     44907     44906     44908
     44910     44909     44911     44913     44912     44914     44916     44915     44917
     44919     44918     44920     44922     44921     44923     44925     44924     44926
     44928     44927     44929     44931     44930     44932     44934     44933     44935
     44937     44936     44938     44940     44939     44941     44943     44942     44944
     44946     44945     44947     44949     44948     44950     44952     44951     44953
     44955     44954     44956     44958     44957     44959     44961     44960     44962
     44964     44963     44965     44967     44966     44968     44970     44969     44971
     44973     44972     44974     44976     44975     44977     44979     44978     44980
     44982     44981     44983     44985     44984     44986     44988     44987     44989
     44991     44990     44992     44994     44993     44995     44997     44996     44998
     45000     44999     45001     45003     45002     45004     45006     45005     45007
     45009     45008     45010     45012     45011     45013     45015     45014     45016
     45018     45017     45019     45021     45020     45022     45024     45023     45025
     45027     45026     45028     45030     45029     45031     45033     45032     45034
     45036     45035     45037     45039     45038     45040     45042     45041     45043
     45045     45044     45046     45048     45047     45049     45051     45050     45052
     45054     45053     45055     45057     45056     45058     45060     45059     45061
     45063     45062     45064     45066     45065     45067     45069     45068     45070
     45072     45071     45073     45075     45074     45076     45078     45077     45079
     45081     45080     45082     45084     45083     45085     45087     45086     45088
     45090     45089     45091     45093     45092     45094     45096     45095     45097
     45099     45098     45100     45102     45101     45103     45105     45104     45106
     45108     45107     45109     45111     45110     45112     45114     45113     45115
     45117     45116     45118     45120     45119     45121     45123     45122     45124
     45126     45125     45127     45129     45128     45130     45132     45131     45133
     45135     45134     45136     45138     45137     45139     45141     45140     45142
     45144     45143     45145     45147     45146     45148     45150     45149     45151
     45153     45152     45154     45156     45155     45157     45159     45158     45160
     45162     45161     45163     45165     45164     45166     45168     45167     45169
     45171     45170     45172     45174     45173     45175     45177     45176     45178
     45180     45179     45181     45183     45182     45184     45186     45185     45187
     45189     45188     45190     45192     45191     45193     45195     45194     45196
     45198     45197     45199     45201     45200     45202     45204     45203     45205
     45207     45206     45208     45210     45209     45211     45213     45212     45214
     45216     45215     45217     45219     45218     45220     45222     45221     45223
     45225     45224     45226     45228     45227     45229     45231     45230     45232
     45234     45233     45235     45237     45236     45238     45240     45239     45241
     45243     45242     45244     45246     45245     45247     45249     45248     45250
     45252     45251     45253     45255     45254     45256     45258     45257     45259
     45261     45260     45262     45264     45263     45265     45267     45266     45268
     45270     45269     45271     45273     45272     45274     45276     45275     45277
     45279     45278     45280     45282     45281     45283     45285     45284     45286
     45288     45287     45289     45291     45290     45292     45294     45293     45295
     45297     45296     45298     45300     45299     45301     45303     45302     45304
     45306     45305     45307     45309     45308     45310     45312     45311     45313
     45315     45314     45316     45318     45317     45319     45321     45320     45322
     45324     45323     45325     45327     45326     45328     45330     45329     45331
     45333     45332     45334     45336     45335     45337     45339     45338     45340
     45342     45341     45343     45345     45344     45346     45348     45347     45349
     45351     45350     45352     45354     45353     45355     45357     45356     45358
     45360     45359     45361     45363     45362     45364     45366     45365     45367
     45369     45368     45370     45372     45371     45373     45375     45374     45376
     45378     45377     45379     45381     45380     45382     45384     45383     45385
     45387     45386     45388     45390     45389     45391     45393     45392     45394
     45396     45395     45397     45399     45398     45400     45402     45401     45403
     45405     45404     45406     45408     45407     45409     45411     45410     45412
     45414     45413     45415     45417     45416     45418     45420     45419     45421
     45423     45422     45424     45426     45425     45427     45429     45428     45430
     45432     45431     45433     45435     45434     45436     45438     45437     45439
     45441     45440     45442     45444     45443     45445     45447     45446     45448
     45450     45449     45451     45453     45452     45454     45456     45455     45457
     45459     45458     45460     45462     45461     45463     45465     45464     45466
     45468     45467     45469     45471     45470     45472     45474     45473     45475
     45477     45476     45478     45480     45479     45481     45483     45482     45484
     45486     45485     45487     45489     45488     45490     45492     45491     45493
     45495     45494     45496     45498     45497     45499     45501     45500     45502
     45504     45503     45505     45507     45506     45508     45510     45509     45511
     45513     45512     45514     45516     45515     45517     45519     45518     45520
     45522     45521     45523     45525     45524     45526     45528     45527     45529
     45531     45530     45532     45534     45533     45535     45537     45536     45538
     45540     45539     45541     45543     45542     45544     45546     45545     45547
     45549     45548     45550     45552     45551     45553     45555     45554     45556
     45558     45557     45559     45561     45560     45562     45564     45563     45565
     45567     45566     45568     45570     45569     45571     45573     45572     45574
     45576     45575     45577     45579     45578     45580     45582     45581     45583
     45585     45584     45586     45588     45587     45589     45591     45590     45592
     45594     45593     45595     45597     45596     45598     45600     45599     45601
     45603     45602     45604     45606     45605     45607     45609     45608     45610
     45612     45611     45613     45615     45614     45616     45618     45617     45619
     45621     45620     45622     45624     45623     45625     45627     45626     45628
     45630     45629     45631     45633     45632     45634     45636     45635     45637
     45639     45638     45640     45642     45641     45643     45645     45644     45646
     45648     45647     45649     45651     45650     45652     45654     45653     45655
     45657     45656     45658     45660     45659     45661     45663     45662     45664
     45666     45665     45667     45669     45668     45670     45672     45671     45673
     45675     45674     45676     45678     45677     45679     45681     45680     45682
     45684     45683     45685     45687     45686     45688     45690     45689     45691
     45693     45692     45694     45696     45695     45697     45699     45698     45700
     45702     45701     45703     45705     45704     45706     45708     45707     45709
     45711     45710     45712     45714     45713     45715     45717     45716     45718
     45720     45719     45721     45723     45722     45724     45726     45725     45727
     45729     45728     45730     45732     45731     45733     45735     45734     45736
     45738     45737     45739     45741     45740     45742     45744     45743     45745
     45747     45746     45748     45750     45749     45751     45753     45752     45754
     45756     45755     45757     45759     45758     45760     45762     45761     45763
     45765     45764     45766     45768     45767     45769     45771     45770     45772
     45774     45773     45775     45777     45776     45778     45780     45779     45781
     45783     45782     45784     45786     45785     45787     45789     45788     45790
     45792     45791     45793     45795     45794     45796     45798     45797     45799
     45801     45800     45802     45804     45803     45805     45807     45806     45808
     45810     45809     45811     45813     45812     45814     45816     45815     45817
     45819     45818     45820     45822     45821     45823     45825     45824     45826
     45828     45827     45829     45831     45830     45832     45834     45833     45835
     45837     45836     45838     45840     45839     45841     45843     45842     45844
     45846     45845     45847     45849     45848     45850     45852     45851     45853
     45855     45854     45856     45858     45857     45859     45861     45860     45862
     45864     45863     45865     45867     45866     45868     45870     45869     45871
     45873     45872     45874     45876     45875     45877     45879     45878     45880
     45882     45881     45883     45885     45884     45886     45888     45887     45889
     45891     45890     45892     45894     45893     45895     45897     45896     45898
     45900     45899     45901     45903     45902     45904     45906     45905     45907
     45909     45908     45910     45912     45911     45913     45915     45914     45916
     45918     45917     45919     45921     45920     45922     45924     45923     45925
     45927     45926     45928     45930     45929     45931     45933     45932     45934
     45936     45935     45937     45939     45938     45940     45942     45941     45943
     45945     45944     45946     45948     45947     45949     45951     45950     45952
     45954     45953     45955     45957     45956     45958     45960     45959     45961
     45963     45962     45964     45966     45965     45967     45969     45968     45970
     45972     45971     45973     45975     45974     45976     45978     45977     45979
     45981     45980     45982     45984     45983     45985     45987     45986     45988
     45990     45989     45991     45993     45992     45994     45996     45995     45997
     45999     45998     46000     46002     46001     46003     46005     46004     46006
     46008     46007     46009     46011     46010     46012     46014     46013     46015
     46017     46016     46018     46020     46019     46021     46023     46022     46024
     46026     46025     46027     46029     46028     46030     46032     46031     46033
     46035     46034     46036     46038     46037     46039     46041     46040     46042
     46044     46043     46045     46047     46046     46048     46050     46049     46051
     46053     46052     46054     46056     46055     46057     46059     46058     46060
     46062     46061     46063     46065     46064     46066     46068     46067     46069
     46071     46070     46072     46074     46073     46075     46077     46076     46078
     46080     46079     46081     46083     46082     46084     46086     46085     46087
     46089     46088     46090     46092     46091     46093     46095     46094     46096
     46098     46097     46099     46101     46100     46102     46104     46103     46105
     46107     46106     46108     46110     46109     46111     46113     46112     46114
     46116     46115     46117     46119     46118     46120     46122     46121     46123
     46125     46124     46126     46128     46127     46129     46131     46130     46132
     46134     46133     46135     46137     46136     46138     46140     46139     46141
     46143     46142     46144     46146     46145     46147     46149     46148     46150
     46152     46151     46153     46155     46154     46156     46158     46157     46159
     46161     46160     46162     46164     46163     46165     46167     46166     46168
     46170     46169     46171     46173     46172     46174     46176     46175     46177
     46179     46178     46180     46182     46181     46183     46185     46184     46186
     46188     46187     46189     46191     46190     46192     46194     46193     46195
     46197     46196     46198     46200     46199     46201     46203     46202     46204
     46206     46205     46207     46209     46208     46210     46212     46211     46213
     46215     46214     46216     46218     46217     46219     46221     46220     46222
     46224     46223     46225     46227     46226     46228     46230     46229     46231
     46233     46232     46234     46236     46235     46237     46239     46238     46240
     46242     46241     46243     46245     46244     46246     46248     46247     46249
     46251     46250     46252     46254     46253     46255     46257     46256     46258
     46260     46259     46261     46263     46262     46264     46266     46265     46267
     46269     46268     46270     46272     46271     46273     46275     46274     46276
     46278     46277     46279     46281     46280     46282     46284     46283     46285
     46287     46286     46288     46290     46289     46291     46293     46292     46294
     46296     46295     46297     46299     46298     46300     46302     46301     46303
     46305     46304     46306     46308     46307     46309     46311     46310     46312
     46314     46313     46315     46317     46316     46318     46320     46319     46321
     46323     46322     46324     46326     46325     46327     46329     46328     46330
     46332     46331     46333     46335     46334     46336     46338     46337     46339
     46341     46340     46342     46344     46343     46345     46347     46346     46348
     46350     46349     46351     46353     46352     46354     46356     46355     46357
     46359     46358     46360     46362     46361     46363     46365     46364     46366
     46368     46367     46369     46371     46370     46372     46374     46373     46375
     46377     46376     46378     46380     46379     46381     46383     46382     46384
     46386     46385     46387     46389     46388     46390     46392     46391     46393
     46395     46394     46396     46398     46397     46399     46401     46400     46402
     46404     46403     46405     46407     46406     46408     46410     46409     46411
     46413     46412     46414     46416     46415     46417     46419     46418     46420
     46422     46421     46423     46425     46424     46426     46428     46427     46429
     46431     46430     46432     46434     46433     46435     46437     46436     46438
     46440     46439     46441     46443     46442     46444     46446     46445     46447
     46449     46448     46450     46452     46451     46453     46455     46454     46456
     46458     46457     46459     46461     46460     46462     46464     46463     46465
     46467     46466     46468     46470     46469     46471     46473     46472     46474
     46476     46475     46477     46479     46478     46480     46482     46481     46483
     46485     46484     46486     46488     46487     46489     46491     46490     46492
     46494     46493     46495     46497     46496     46498     46500     46499     46501
     46503     46502     46504     46506     46505     46507     46509     46508     46510
     46512     46511     46513     46515     46514     46516     46518     46517     46519
     46521     46520     46522     46524     46523     46525     46527     46526     46528
     46530     46529     46531     46533     46532     46534     46536     46535     46537
     46539     46538     46540     46542     46541     46543     46545     46544     46546
     46548     46547     46549     46551     46550     46552     46554     46553     46555
     46557     46556     46558     46560     46559     46561     46563     46562     46564
     46566     46565     46567     46569     46568     46570     46572     46571     46573
     46575     46574     46576     46578     46577     46579     46581     46580     46582
     46584     46583     46585     46587     46586     46588     46590     46589     46591
     46593     46592     46594     46596     46595     46597     46599     46598     46600
     46602     46601     46603     46605     46604     46606     46608     46607     46609
     46611     46610     46612     46614     46613     46615     46617     46616     46618
     46620     46619     46621     46623     46622     46624     46626     46625     46627
     46629     46628     46630     46632     46631     46633     46635     46634     46636
     46638     46637     46639     46641     46640     46642     46644     46643     46645
     46647     46646     46648     46650     46649     46651     46653     46652     46654
     46656     46655     46657     46659     46658     46660     46662     46661     46663
     46665     46664     46666     46668     46667     46669     46671     46670     46672
     46674     46673     46675     46677     46676     46678     46680     46679     46681
     46683     46682     46684     46686     46685     46687     46689     46688     46690
     46692     46691     46693     46695     46694     46696     46698     46697     46699
     46701     46700     46702     46704     46703     46705     46707     46706     46708
     46710     46709     46711     46713     46712     46714     46716     46715     46717
     46719     46718     46720     46722     46721     46723     46725     46724     46726
     46728     46727     46729     46731     46730     46732     46734     46733     46735
     46737     46736     46738     46740     46739     46741     46743     46742     46744
     46746     46745     46747     46749     46748     46750     46752     46751     46753
     46755     46754     46756     46758     46757     46759     46761     46760     46762
     46764     46763     46765     46767     46766     46768     46770     46769     46771
     46773     46772     46774     46776     46775     46777     46779     46778     46780
     46782     46781     46783     46785     46784     46786     46788     46787     46789
     46791     46790     46792     46794     46793     46795     46797     46796     46798
     46800     46799     46801     46803     46802     46804     46806     46805     46807
     46809     46808     46810     46812     46811     46813     46815     46814     46816
     46818     46817     46819     46821     46820     46822     46824     46823     46825
     46827     46826     46828     46830     46829     46831     46833     46832     46834
     46836     46835     46837     46839     46838     46840     46842     46841     46843
     46845     46844     46846     46848     46847     46849     46851     46850     46852
     46854     46853     46855     46857     46856     46858     46860     46859     46861
     46863     46862     46864     46866     46865     46867     46869     46868     46870
     46872     46871     46873     46875     46874     46876     46878     46877     46879
     46881     46880     46882     46884     46883     46885     46887     46886     46888
     46890     46889     46891     46893     46892     46894     46896     46895     46897
     46899     46898     46900     46902     46901     46903     46905     46904     46906
     46908     46907     46909     46911     46910     46912     46914     46913     46915
     46917     46916     46918     46920     46919     46921     46923     46922     46924
     46926     46925     46927     46929     46928     46930     46932     46931     46933
     46935     46934     46936     46938     46937     46939     46941     46940     46942
     46944     46943     46945     46947     46946     46948     46950     46949     46951
     46953     46952     46954     46956     46955     46957     46959     46958     46960
     46962     46961     46963     46965     46964     46966     46968     46967     46969
     46971     46970     46972     46974     46973     46975     46977     46976     46978
     46980     46979     46981     46983     46982     46984     46986     46985     46987
     46989     46988     46990     46992     46991     46993     46995     46994     46996
     46998     46997     46999     47001     47000     47002     47004     47003     47005
     47007     47006     47008     47010     47009     47011     47013     47012     47014
     47016     47015     47017     47019     47018     47020     47022     47021     47023
     47025     47024     47026     47028     47027     47029     47031     47030     47032
     47034     47033     47035     47037     47036     47038     47040     47039     47041
     47043     47042     47044     47046     47045     47047     47049     47048     47050
     47052     47051     47053     47055     47054     47056     47058     47057     47059
     47061     47060     47062     47064     47063     47065     47067     47066     47068
     47070     47069     47071     47073     47072     47074     47076     47075     47077
     47079     47078     47080     47082     47081     47083     47085     47084     47086
     47088     47087     47089     47091     47090     47092     47094     47093     47095
     47097     47096     47098     47100     47099     47101     47103     47102     47104
     47106     47105     47107     47109     47108     47110     47112     47111     47113
     47115     47114     47116     47118     47117     47119     47121     47120     47122
     47124     47123     47125     47127     47126     47128     47130     47129     47131
     47133     47132     47134     47136     47135     47137     47139     47138     47140
     47142     47141     47143     47145     47144     47146     47148     47147     47149
     47151     47150     47152     47154     47153     47155     47157     47156     47158
     47160     47159     47161     47163     47162     47164     47166     47165     47167
     47169     47168     47170     47172     47171     47173     47175     47174     47176
     47178     47177     47179     47181     47180     47182     47184     47183     47185
     47187     47186     47188     47190     47189     47191     47193     47192     47194
     47196     47195     47197     47199     47198     47200     47202     47201     47203
     47205     47204     47206     47208     47207     47209     47211     47210     47212
     47214     47213     47215     47217     47216     47218     47220     47219     47221
     47223     47222     47224     47226     47225     47227     47229     47228     47230
     47232     47231     47233     47235     47234     47236     47238     47237     47239
     47241     47240     47242     47244     47243     47245     47247     47246     47248
     47250     47249     47251     47253     47252     47254     47256     47255     47257
     47259     47258     47260     47262     47261     47263     47265     47264     47266
     47268     47267     47269     47271     47270     47272     47274     47273     47275
     47277     47276     47278     47280     47279     47281     47283     47282     47284
     47286     47285     47287     47289     47288     47290     47292     47291     47293
     47295     47294     47296     47298     47297     47299     47301     47300     47302
     47304     47303     47305     47307     47306     47308     47310     47309     47311
     47313     47312     47314     47316     47315     47317     47319     47318     47320
     47322     47321     47323     47325     47324     47326     47328     47327     47329
     47331     47330     47332     47334     47333     47335     47337     47336     47338
     47340     47339     47341     47343     47342     47344     47346     47345     47347
     47349     47348     47350     47352     47351     47353     47355     47354     47356
     47358     47357     47359     47361     47360     47362     47364     47363     47365
     47367     47366     47368     47370     47369     47371     47373     47372     47374
     47376     47375     47377     47379     47378     47380     47382     47381     47383
     47385     47384     47386     47388     47387     47389     47391     47390     47392
     47394     47393     47395     47397     47396     47398     47400     47399     47401
     47403     47402     47404     47406     47405     47407     47409     47408     47410
     47412     47411     47413     47415     47414     47416     47418     47417     47419
     47421     47420     47422     47424     47423     47425     47427     47426     47428
     47430     47429     47431     47433     47432     47434     47436     47435     47437
     47439     47438     47440     47442     47441     47443     47445     47444     47446
     47448     47447     47449     47451     47450     47452     47454     47453     47455
     47457     47456     47458     47460     47459     47461     47463     47462     47464
     47466     47465     47467     47469     47468     47470     47472     47471     47473
     47475     47474     47476     47478     47477     47479     47481     47480     47482
     47484     47483     47485     47487     47486     47488     47490     47489     47491
     47493     47492     47494     47496     47495     47497     47499     47498     47500
     47502     47501     47503     47505     47504     47506     47508     47507     47509
     47511     47510     47512     47514     47513     47515     47517     47516     47518
     47520     47519     47521     47523     47522     47524     47526     47525     47527
     47529     47528     47530     47532     47531     47533     47535     47534     47536
     47538     47537     47539     47541     47540     47542     47544     47543     47545
     47547     47546     47548     47550     47549     47551     47553     47552     47554
     47556     47555     47557     47559     47558     47560     47562     47561     47563
     47565     47564     47566     47568     47567     47569     47571     47570     47572
     47574     47573     47575     47577     47576     47578     47580     47579     47581
     47583     47582     47584     47586     47585     47587     47589     47588     47590
     47592     47591     47593     47595     47594     47596     47598     47597     47599
     47601     47600     47602     47604     47603     47605     47607     47606     47608
     47610     47609     47611     47613     47612     47614     47616     47615     47617
     47619     47618     47620     47622     47621     47623     47625     47624     47626
     47628     47627     47629     47631     47630     47632     47634     47633     47635
     47637     47636     47638     47640     47639     47641     47643     47642     47644
     47646     47645     47647     47649     47648     47650     47652     47651     47653
     47655     47654     47656     47658     47657     47659     47661     47660     47662
     47664     47663     47665     47667     47666     47668     47670     47669     47671
     47673     47672     47674     47676     47675     47677     47679     47678     47680
     47682     47681     47683     47685     47684     47686     47688     47687     47689
     47691     47690     47692     47694     47693     47695     47697     47696     47698
     47700     47699     47701     47703     47702     47704     47706     47705     47707
     47709     47708     47710     47712     47711     47713     47715     47714     47716
     47718     47717     47719     47721     47720     47722     47724     47723     47725
     47727     47726     47728     47730     47729     47731     47733     47732     47734
     47736     47735     47737     47739     47738     47740     47742     47741     47743
     47745     47744     47746     47748     47747     47749     47751     47750     47752
     47754     47753     47755     47757     47756     47758     47760     47759     47761
     47763     47762     47764     47766     47765     47767     47769     47768     47770
     47772     47771     47773     47775     47774     47776     47778     47777     47779
     47781     47780     47782     47784     47783     47785     47787     47786     47788
     47790     47789     47791     47793     47792     47794     47796     47795     47797
     47799     47798     47800     47802     47801     47803     47805     47804     47806
     47808     47807     47809     47811     47810     47812     47814     47813     47815
     47817     47816     47818     47820     47819     47821     47823     47822     47824
     47826     47825     47827     47829     47828     47830     47832     47831     47833
     47835     47834     47836     47838     47837     47839     47841     47840     47842
     47844     47843     47845     47847     47846     47848     47850     47849     47851
     47853     47852     47854     47856     47855     47857     47859     47858     47860
     47862     47861     47863     47865     47864     47866     47868     47867     47869
     47871     47870     47872     47874     47873     47875     47877     47876     47878
     47880     47879     47881     47883     47882     47884     47886     47885     47887
     47889     47888     47890     47892     47891     47893     47895     47894     47896
     47898     47897     47899     47901     47900     47902     47904     47903     47905
     47907     47906     47908     47910     47909     47911     47913     47912     47914
     47916     47915     47917     47919     47918     47920     47922     47921     47923
     47925     47924     47926     47928     47927     47929     47931     47930     47932
     47934     47933     47935     47937     47936     47938     47940     47939     47941
     47943     47942     47944     47946     47945     47947     47949     47948     47950
     47952     47951     47953     47955     47954     47956     47958     47957     47959
     47961     47960     47962     47964     47963     47965     47967     47966     47968
     47970     47969     47971     47973     47972     47974     47976     47975     47977
     47979     47978     47980     47982     47981     47983     47985     47984     47986
     47988     47987     47989     47991     47990     47992     47994     47993     47995
     47997     47996     47998     48000     47999     48001     48003     48002     48004
     48006     48005     48007     48009     48008     48010     48012     48011     48013
     48015     48014     48016     48018     48017     48019     48021     48020     48022
     48024     48023     48025     48027     48026     48028     48030     48029     48031
     48033     48032     48034     48036     48035     48037     48039     48038     48040
     48042     48041     48043     48045     48044     48046     48048     48047     48049
     48051     48050     48052     48054     48053     48055     48057     48056     48058
     48060     48059     48061     48063     48062     48064     48066     48065     48067
     48069     48068     48070     48072     48071     48073     48075     48074     48076
     48078     48077     48079     48081     48080     48082     48084     48083     48085
     48087     48086     48088     48090     48089     48091     48093     48092     48094
     48096     48095     48097     48099     48098     48100     48102     48101     48103
     48105     48104     48106     48108     48107     48109     48111     48110     48112
     48114     48113     48115     48117     48116     48118     48120     48119     48121
     48123     48122     48124     48126     48125     48127     48129     48128     48130
     48132     48131     48133     48135     48134     48136     48138     48137     48139
     48141     48140     48142     48144     48143     48145     48147     48146     48148
     48150     48149     48151     48153     48152     48154     48156     48155     48157
     48159     48158     48160     48162     48161     48163     48165     48164     48166
     48168     48167     48169     48171     48170     48172     48174     48173     48175
     48177     48176     48178     48180     48179     48181     48183     48182     48184
     48186     48185     48187     48189     48188     48190     48192     48191     48193
     48195     48194     48196     48198     48197     48199     48201     48200     48202
     48204     48203     48205     48207     48206     48208     48210     48209     48211
     48213     48212     48214     48216     48215     48217     48219     48218     48220
     48222     48221     48223     48225     48224     48226     48228     48227     48229
     48231     48230     48232     48234     48233     48235     48237     48236     48238
     48240     48239     48241     48243     48242     48244     48246     48245     48247
     48249     48248     48250     48252     48251     48253     48255     48254     48256
     48258     48257     48259     48261     48260     48262     48264     48263     48265
     48267     48266     48268     48270     48269     48271     48273     48272     48274
     48276     48275     48277     48279     48278     48280     48282     48281     48283
     48285     48284     48286     48288     48287     48289     48291     48290     48292
     48294     48293     48295     48297     48296     48298     48300     48299     48301
     48303     48302     48304     48306     48305     48307     48309     48308     48310
     48312     48311     48313     48315     48314     48316     48318     48317     48319
     48321     48320     48322     48324     48323     48325     48327     48326     48328
     48330     48329     48331     48333     48332     48334     48336     48335     48337
     48339     48338     48340     48342     48341     48343     48345     48344     48346
     48348     48347     48349     48351     48350     48352     48354     48353     48355
     48357     48356     48358     48360     48359     48361     48363     48362     48364
     48366     48365     48367     48369     48368     48370     48372     48371     48373
     48375     48374     48376     48378     48377     48379     48381     48380     48382
     48384     48383     48385     48387     48386     48388     48390     48389     48391
     48393     48392     48394     48396     48395     48397     48399     48398     48400
     48402     48401     48403     48405     48404     48406     48408     48407     48409
     48411     48410     48412     48414     48413     48415     48417     48416     48418
     48420     48419     48421     48423     48422     48424     48426     48425     48427
     48429     48428     48430     48432     48431     48433     48435     48434     48436
     48438     48437     48439     48441     48440     48442     48444     48443     48445
     48447     48446     48448     48450     48449     48451     48453     48452     48454
     48456     48455     48457     48459     48458     48460     48462     48461     48463
     48465     48464     48466     48468     48467     48469     48471     48470     48472
     48474     48473     48475     48477     48476     48478     48480     48479     48481
     48483     48482     48484     48486     48485     48487     48489     48488     48490
     48492     48491     48493     48495     48494     48496     48498     48497     48499
     48501     48500     48502     48504     48503     48505     48507     48506     48508
     48510     48509     48511     48513     48512     48514     48516     48515     48517
     48519     48518     48520     48522     48521     48523     48525     48524     48526
     48528     48527     48529     48531     48530     48532     48534     48533     48535
     48537     48536     48538     48540     48539     48541     48543     48542     48544
     48546     48545     48547     48549     48548     48550     48552     48551     48553
     48555     48554     48556     48558     48557     48559     48561     48560     48562
     48564     48563     48565     48567     48566     48568     48570     48569     48571
     48573     48572     48574     48576     48575     48577     48579     48578     48580
     48582     48581     48583     48585     48584     48586     48588     48587     48589
     48591     48590     48592     48594     48593     48595     48597     48596     48598
     48600     48599     48601     48603     48602     48604     48606     48605     48607
     48609     48608     48610     48612     48611     48613     48615     48614     48616
     48618     48617     48619     48621     48620     48622     48624     48623     48625
     48627     48626     48628     48630     48629     48631     48633     48632     48634
     48636     48635     48637     48639     48638     48640     48642     48641     48643
     48645     48644     48646     48648     48647     48649     48651     48650     48652
     48654     48653     48655     48657     48656     48658     48660     48659     48661
     48663     48662     48664     48666     48665     48667     48669     48668     48670
     48672     48671     48673     48675     48674     48676     48678     48677     48679
     48681     48680     48682     48684     48683     48685     48687     48686     48688
     48690     48689     48691     48693     48692     48694     48696     48695     48697
     48699     48698     48700     48702     48701     48703     48705     48704     48706
     48708     48707     48709     48711     48710     48712     48714     48713     48715
     48717     48716     48718     48720     48719     48721     48723     48722     48724
     48726     48725     48727     48729     48728     48730     48732     48731     48733
     48735     48734     48736     48738     48737     48739     48741     48740     48742
     48744     48743     48745     48747     48746     48748     48750     48749     48751
     48753     48752     48754     48756     48755     48757     48759     48758     48760
     48762     48761     48763     48765     48764     48766     48768     48767     48769
     48771     48770     48772     48774     48773     48775     48777     48776     48778
     48780     48779     48781     48783     48782     48784     48786     48785     48787
     48789     48788     48790     48792     48791     48793     48795     48794     48796
     48798     48797     48799     48801     48800     48802     48804     48803     48805
     48807     48806     48808     48810     48809     48811     48813     48812     48814
     48816     48815     48817     48819     48818     48820     48822     48821     48823
     48825     48824     48826     48828     48827     48829     48831     48830     48832
     48834     48833     48835     48837     48836     48838     48840     48839     48841
     48843     48842     48844     48846     48845     48847     48849     48848     48850
     48852     48851     48853     48855     48854     48856     48858     48857     48859
     48861     48860     48862     48864     48863     48865     48867     48866     48868
     48870     48869     48871     48873     48872     48874     48876     48875     48877
     48879     48878     48880     48882     48881     48883     48885     48884     48886
     48888     48887     48889     48891     48890     48892     48894     48893     48895
     48897     48896     48898     48900     48899     48901     48903     48902     48904
     48906     48905     48907     48909     48908     48910     48912     48911     48913
     48915     48914     48916     48918     48917     48919     48921     48920     48922
     48924     48923     48925     48927     48926     48928     48930     48929     48931
     48933     48932     48934     48936     48935     48937     48939     48938     48940
     48942     48941     48943     48945     48944     48946     48948     48947     48949
     48951     48950     48952     48954     48953     48955     48957     48956     48958
     48960     48959     48961     48963     48962     48964     48966     48965     48967
     48969     48968     48970     48972     48971     48973     48975     48974     48976
     48978     48977     48979     48981     48980     48982     48984     48983     48985
     48987     48986     48988     48990     48989     48991     48993     48992     48994
     48996     48995     48997     48999     48998     49000     49002     49001     49003
     49005     49004     49006     49008     49007     49009     49011     49010     49012
     49014     49013     49015     49017     49016     49018     49020     49019     49021
     49023     49022     49024     49026     49025     49027     49029     49028     49030
     49032     49031     49033     49035     49034     49036     49038     49037     49039
     49041     49040     49042     49044     49043     49045     49047     49046     49048
     49050     49049     49051     49053     49052     49054     49056     49055     49057
     49059     49058     49060     49062     49061     49063     49065     49064     49066
     49068     49067     49069     49071     49070     49072     49074     49073     49075
     49077     49076     49078     49080     49079     49081     49083     49082     49084
     49086     49085     49087     49089     49088     49090     49092     49091     49093
     49095     49094     49096     49098     49097     49099     49101     49100     49102
     49104     49103     49105     49107     49106     49108     49110     49109     49111
     49113     49112     49114     49116     49115     49117     49119     49118     49120
     49122     49121     49123     49125     49124     49126     49128     49127     49129
     49131     49130     49132     49134     49133     49135     49137     49136     49138
     49140     49139     49141     49143     49142     49144     49146     49145     49147
     49149     49148     49150     49152     49151     49153     49155     49154     49156
     49158     49157     49159     49161     49160     49162     49164     49163     49165
     49167     49166     49168     49170     49169     49171     49173     49172     49174
     49176     49175     49177     49179     49178     49180     49182     49181     49183
     49185     49184     49186     49188     49187     49189     49191     49190     49192
     49194     49193     49195     49197     49196     49198     49200     49199     49201
     49203     49202     49204     49206     49205     49207     49209     49208     49210
     49212     49211     49213     49215     49214     49216     49218     49217     49219
     49221     49220     49222     49224     49223     49225     49227     49226     49228
     49230     49229     49231     49233     49232     49234     49236     49235     49237
     49239     49238     49240     49242     49241     49243     49245     49244     49246
     49248     49247     49249     49251     49250     49252     49254     49253     49255
     49257     49256     49258     49260     49259     49261     49263     49262     49264
     49266     49265     49267     49269     49268     49270     49272     49271     49273
     49275     49274     49276     49278     49277     49279     49281     49280     49282
     49284     49283     49285     49287     49286     49288     49290     49289     49291
     49293     49292     49294     49296     49295     49297     49299     49298     49300
     49302     49301     49303     49305     49304     49306     49308     49307     49309
     49311     49310     49312     49314     49313     49315     49317     49316     49318
     49320     49319     49321     49323     49322     49324     49326     49325     49327
     49329     49328     49330     49332     49331     49333     49335     49334     49336
     49338     49337     49339     49341     49340     49342     49344     49343     49345
     49347     49346     49348     49350     49349     49351     49353     49352     49354
     49356     49355     49357     49359     49358     49360     49362     49361     49363
     49365     49364     49366     49368     49367     49369     49371     49370     49372
     49374     49373     49375     49377     49376     49378     49380     49379     49381
     49383     49382     49384     49386     49385     49387     49389     49388     49390
     49392     49391     49393     49395     49394     49396     49398     49397     49399
     49401     49400     49402     49404     49403     49405     49407     49406     49408
     49410     49409     49411     49413     49412     49414     49416     49415     49417
     49419     49418     49420     49422     49421     49423     49425     49424     49426
     49428     49427     49429     49431     49430     49432     49434     49433     49435
     49437     49436     49438     49440     49439     49441     49443     49442     49444
     49446     49445     49447     49449     49448     49450     49452     49451     49453
     49455     49454     49456     49458     49457     49459     49461     49460     49462
     49464     49463     49465     49467     49466     49468     49470     49469     49471
     49473     49472     49474     49476     49475     49477     49479     49478     49480
     49482     49481     49483     49485     49484     49486     49488     49487     49489
     49491     49490     49492     49494     49493     49495     49497     49496     49498
     49500     49499     49501     49503     49502     49504     49506     49505     49507
     49509     49508     49510     49512     49511     49513     49515     49514     49516
     49518     49517     49519     49521     49520     49522     49524     49523     49525
     49527     49526     49528     49530     49529     49531     49533     49532     49534
     49536     49535     49537     49539     49538     49540     49542     49541     49543
     49545     49544     49546     49548     49547     49549     49551     49550     49552
     49554     49553     49555     49557     49556     49558     49560     49559     49561
     49563     49562     49564     49566     49565     49567     49569     49568     49570
     49572     49571     49573     49575     49574     49576     49578     49577     49579
     49581     49580     49582     49584     49583     49585     49587     49586     49588
     49590     49589     49591     49593     49592     49594     49596     49595     49597
     49599     49598     49600     49602     49601     49603     49605     49604     49606
     49608     49607     49609     49611     49610     49612     49614     49613     49615
     49617     49616     49618     49620     49619     49621     49623     49622     49624
     49626     49625     49627     49629     49628     49630     49632     49631     49633
     49635     49634     49636     49638     49637     49639     49641     49640     49642
     49644     49643     49645     49647     49646     49648     49650     49649     49651
     49653     49652     49654     49656     49655     49657     49659     49658     49660
     49662     49661     49663     49665     49664     49666     49668     49667     49669
     49671     49670     49672     49674     49673     49675     49677     49676     49678
     49680     49679     49681     49683     49682     49684     49686     49685     49687
     49689     49688     49690     49692     49691     49693     49695     49694     49696
     49698     49697     49699     49701     49700     49702     49704     49703     49705
     49707     49706     49708     49710     49709     49711     49713     49712     49714
     49716     49715     49717     49719     49718     49720     49722     49721     49723
     49725     49724     49726     49728     49727     49729     49731     49730     49732
     49734     49733     49735     49737     49736     49738     49740     49739     49741
     49743     49742     49744     49746     49745     49747     49749     49748     49750
     49752     49751     49753     49755     49754     49756     49758     49757     49759
     49761     49760     49762     49764     49763     49765     49767     49766     49768
     49770     49769     49771     49773     49772     49774     49776     49775     49777
     49779     49778     49780     49782     49781     49783     49785     49784     49786
     49788     49787     49789     49791     49790     49792     49794     49793     49795
     49797     49796     49798     49800     49799     49801     49803     49802     49804
     49806     49805     49807     49809     49808     49810     49812     49811     49813
     49815     49814     49816     49818     49817     49819     49821     49820     49822
     49824     49823     49825     49827     49826     49828     49830     49829     49831
     49833     49832     49834     49836     49835     49837     49839     49838     49840
     49842     49841     49843     49845     49844     49846     49848     49847     49849
     49851     49850     49852     49854     49853     49855     49857     49856     49858
     49860     49859     49861     49863     49862     49864     49866     49865     49867
     49869     49868     49870     49872     49871     49873     49875     49874     49876
     49878     49877     49879     49881     49880     49882     49884     49883     49885
     49887     49886     49888     49890     49889     49891     49893     49892     49894
     49896     49895     49897     49899     49898     49900     49902     49901     49903
     49905     49904     49906     49908     49907     49909     49911     49910     49912
     49914     49913     49915     49917     49916     49918     49920     49919     49921
     49923     49922     49924     49926     49925     49927     49929     49928     49930
     49932     49931     49933     49935     49934     49936     49938     49937     49939
     49941     49940     49942     49944     49943     49945     49947     49946     49948
     49950     49949     49951     49953     49952     49954     49956     49955     49957
     49959     49958     49960     49962     49961     49963     49965     49964     49966
     49968     49967     49969     49971     49970     49972     49974     49973     49975
     49977     49976     49978     49980     49979     49981     49983     49982     49984
     49986     49985     49987     49989     49988     49990     49992     49991     49993
     49995     49994     49996     49998     49997     49999     50001     50000     50002
     50004     50003     50005     50007     50006     50008     50010     50009     50011
     50013     50012     50014     50016     50015     50017     50019     50018     50020
     50022     50021     50023     50025     50024     50026     50028     50027     50029
     50031     50030     50032     50034     50033     50035     50037     50036     50038
     50040     50039     50041     50043     50042     50044     50046     50045     50047
     50049     50048     50050     50052     50051     50053     50055     50054     50056
     50058     50057     50059     50061     50060     50062     50064     50063     50065
     50067     50066     50068     50070     50069     50071     50073     50072     50074
     50076     50075     50077     50079     50078     50080     50082     50081     50083
     50085     50084     50086     50088     50087     50089     50091     50090     50092
     50094     50093     50095     50097     50096     50098     50100     50099     50101
     50103     50102     50104     50106     50105     50107     50109     50108     50110
     50112     50111     50113     50115     50114     50116     50118     50117     50119
     50121     50120     50122     50124     50123     50125     50127     50126     50128
     50130     50129     50131     50133     50132     50134     50136     50135     50137
     50139     50138     50140     50142     50141     50143     50145     50144     50146
     50148     50147     50149     50151     50150     50152     50154     50153     50155
     50157     50156     50158     50160     50159     50161     50163     50162     50164
     50166     50165     50167     50169     50168     50170     50172     50171     50173
     50175     50174     50176     50178     50177     50179     50181     50180     50182
     50184     50183     50185     50187     50186     50188     50190     50189     50191
     50193     50192     50194     50196     50195     50197     50199     50198     50200
     50202     50201     50203     50205     50204     50206     50208     50207     50209
     50211     50210     50212     50214     50213     50215     50217     50216     50218
     50220     50219     50221     50223     50222     50224     50226     50225     50227
     50229     50228     50230     50232     50231     50233     50235     50234     50236
     50238     50237     50239     50241     50240     50242     50244     50243     50245
     50247     50246     50248     50250     50249     50251     50253     50252     50254
     50256     50255     50257     50259     50258     50260     50262     50261     50263
     50265     50264     50266     50268     50267     50269     50271     50270     50272
     50274     50273     50275     50277     50276     50278     50280     50279     50281
     50283     50282     50284     50286     50285     50287     50289     50288     50290
     50292     50291     50293     50295     50294     50296     50298     50297     50299
     50301     50300     50302     50304     50303     50305     50307     50306     50308
     50310     50309     50311     50313     50312     50314     50316     50315     50317
     50319     50318     50320     50322     50321     50323     50325     50324     50326
     50328     50327     50329     50331     50330     50332     50334     50333     50335
     50337     50336     50338     50340     50339     50341     50343     50342     50344
     50346     50345     50347     50349     50348     50350     50352     50351     50353
     50355     50354     50356     50358     50357     50359     50361     50360     50362
     50364     50363     50365     50367     50366     50368     50370     50369     50371
     50373     50372     50374     50376     50375     50377     50379     50378     50380
     50382     50381     50383     50385     50384     50386     50388     50387     50389
     50391     50390     50392     50394     50393     50395     50397     50396     50398
     50400     50399     50401     50403     50402     50404     50406     50405     50407
     50409     50408     50410     50412     50411     50413     50415     50414     50416
     50418     50417     50419     50421     50420     50422     50424     50423     50425
     50427     50426     50428     50430     50429     50431     50433     50432     50434
     50436     50435     50437     50439     50438     50440     50442     50441     50443
     50445     50444     50446     50448     50447     50449     50451     50450     50452
     50454     50453     50455     50457     50456     50458     50460     50459     50461
     50463     50462     50464     50466     50465     50467     50469     50468     50470
     50472     50471     50473     50475     50474     50476     50478     50477     50479
     50481     50480     50482     50484     50483     50485     50487     50486     50488
     50490     50489     50491     50493     50492     50494     50496     50495     50497
     50499     50498     50500     50502     50501     50503     50505     50504     50506
     50508     50507     50509     50511     50510     50512     50514     50513     50515
     50517     50516     50518     50520     50519     50521     50523     50522     50524
     50526     50525     50527     50529     50528     50530     50532     50531     50533
     50535     50534     50536     50538     50537     50539     50541     50540     50542
     50544     50543     50545     50547     50546     50548     50550     50549     50551
     50553     50552     50554     50556     50555     50557     50559     50558     50560
     50562     50561     50563     50565     50564     50566     50568     50567     50569
     50571     50570     50572     50574     50573     50575     50577     50576     50578
     50580     50579     50581     50583     50582     50584     50586     50585     50587
     50589     50588     50590     50592     50591     50593     50595     50594     50596
     50598     50597     50599     50601     50600     50602     50604     50603     50605
     50607     50606     50608     50610     50609     50611     50613     50612     50614
     50616     50615     50617     50619     50618     50620     50622     50621     50623
     50625     50624     50626     50628     50627     50629     50631     50630     50632
     50634     50633     50635     50637     50636     50638     50640     50639     50641
     50643     50642     50644     50646     50645     50647     50649     50648     50650
     50652     50651     50653     50655     50654     50656     50658     50657     50659
     50661     50660     50662     50664     50663     50665     50667     50666     50668
     50670     50669     50671     50673     50672     50674     50676     50675     50677
     50679     50678     50680     50682     50681     50683     50685     50684     50686
     50688     50687     50689     50691     50690     50692     50694     50693     50695
     50697     50696     50698     50700     50699     50701     50703     50702     50704
     50706     50705     50707     50709     50708     50710     50712     50711     50713
     50715     50714     50716     50718     50717     50719     50721     50720     50722
     50724     50723     50725     50727     50726     50728     50730     50729     50731
     50733     50732     50734     50736     50735     50737     50739     50738     50740
     50742     50741     50743     50745     50744     50746     50748     50747     50749
     50751     50750     50752     50754     50753     50755     50757     50756     50758
     50760     50759     50761     50763     50762     50764     50766     50765     50767
     50769     50768     50770     50772     50771     50773     50775     50774     50776
     50778     50777     50779     50781     50780     50782     50784     50783     50785
     50787     50786     50788     50790     50789     50791     50793     50792     50794
     50796     50795     50797     50799     50798     50800     50802     50801     50803
     50805     50804     50806     50808     50807     50809     50811     50810     50812
     50814     50813     50815     50817     50816     50818     50820     50819     50821
     50823     50822     50824     50826     50825     50827     50829     50828     50830
     50832     50831     50833     50835     50834     50836     50838     50837     50839
     50841     50840     50842     50844     50843     50845     50847     50846     50848
     50850     50849     50851     50853     50852     50854     50856     50855     50857
     50859     50858     50860     50862     50861     50863     50865     50864     50866
     50868     50867     50869     50871     50870     50872     50874     50873     50875
     50877     50876     50878     50880     50879     50881     50883     50882     50884
     50886     50885     50887     50889     50888     50890     50892     50891     50893
     50895     50894     50896     50898     50897     50899     50901     50900     50902
     50904     50903     50905     50907     50906     50908     50910     50909     50911
     50913     50912     50914     50916     50915     50917     50919     50918     50920
     50922     50921     50923     50925     50924     50926     50928     50927     50929
     50931     50930     50932     50934     50933     50935     50937     50936     50938
     50940     50939     50941     50943     50942     50944     50946     50945     50947
     50949     50948     50950     50952     50951     50953     50955     50954     50956
     50958     50957     50959     50961     50960     50962     50964     50963     50965
     50967     50966     50968     50970     50969     50971     50973     50972     50974
     50976     50975     50977     50979     50978     50980     50982     50981     50983
     50985     50984     50986     50988     50987     50989     50991     50990     50992
     50994     50993     50995     50997     50996     50998     51000     50999     51001
     51003     51002     51004     51006     51005     51007     51009     51008     51010
     51012     51011     51013     51015     51014     51016     51018     51017     51019
     51021     51020     51022     51024     51023     51025     51027     51026     51028
     51030     51029     51031     51033     51032     51034     51036     51035     51037
     51039     51038     51040     51042     51041     51043     51045     51044     51046
     51048     51047     51049     51051     51050     51052     51054     51053     51055
     51057     51056     51058     51060     51059     51061     51063     51062     51064
     51066     51065     51067     51069     51068     51070     51072     51071     51073
     51075     51074     51076     51078     51077     51079     51081     51080     51082
     51084     51083     51085     51087     51086     51088     51090     51089     51091
     51093     51092     51094     51096     51095     51097     51099     51098     51100
     51102     51101     51103     51105     51104     51106     51108     51107     51109
     51111     51110     51112     51114     51113     51115     51117     51116     51118
     51120     51119     51121     51123     51122     51124     51126     51125     51127
     51129     51128     51130     51132     51131     51133     51135     51134     51136
     51138     51137     51139     51141     51140     51142     51144     51143     51145
     51147     51146     51148     51150     51149     51151     51153     51152     51154
     51156     51155     51157     51159     51158     51160     51162     51161     51163
     51165     51164     51166     51168     51167     51169     51171     51170     51172
     51174     51173     51175     51177     51176     51178     51180     51179     51181
     51183     51182     51184     51186     51185     51187     51189     51188     51190
     51192     51191     51193     51195     51194     51196     51198     51197     51199
     51201     51200     51202     51204     51203     51205     51207     51206     51208
     51210     51209     51211     51213     51212     51214     51216     51215     51217
     51219     51218     51220     51222     51221     51223     51225     51224     51226
     51228     51227     51229     51231     51230     51232     51234     51233     51235
     51237     51236     51238     51240     51239     51241     51243     51242     51244
     51246     51245     51247     51249     51248     51250     51252     51251     51253
     51255     51254     51256     51258     51257     51259     51261     51260     51262
     51264     51263     51265     51267     51266     51268     51270     51269     51271
     51273     51272     51274     51276     51275     51277     51279     51278     51280
     51282     51281     51283     51285     51284     51286     51288     51287     51289
     51291     51290     51292     51294     51293     51295     51297     51296     51298
     51300     51299     51301     51303     51302     51304     51306     51305     51307
     51309     51308     51310     51312     51311     51313     51315     51314     51316
     51318     51317     51319     51321     51320     51322     51324     51323     51325
     51327     51326     51328     51330     51329     51331     51333     51332     51334
     51336     51335     51337     51339     51338     51340     51342     51341     51343
     51345     51344     51346     51348     51347     51349     51351     51350     51352
     51354     51353     51355     51357     51356     51358     51360     51359     51361
     51363     51362     51364     51366     51365     51367     51369     51368     51370
     51372     51371     51373     51375     51374     51376     51378     51377     51379
     51381     51380     51382     51384     51383     51385     51387     51386     51388
     51390     51389     51391     51393     51392     51394     51396     51395     51397
     51399     51398     51400     51402     51401     51403     51405     51404     51406
     51408     51407     51409     51411     51410     51412     51414     51413     51415
     51417     51416     51418     51420     51419     51421     51423     51422     51424
     51426     51425     51427     51429     51428     51430     51432     51431     51433
     51435     51434     51436     51438     51437     51439     51441     51440     51442
     51444     51443     51445     51447     51446     51448     51450     51449     51451
     51453     51452     51454     51456     51455     51457     51459     51458     51460
     51462     51461     51463     51465     51464     51466     51468     51467     51469
     51471     51470     51472     51474     51473     51475     51477     51476     51478
     51480     51479     51481     51483     51482     51484     51486     51485     51487
     51489     51488     51490     51492     51491     51493     51495     51494     51496
     51498     51497     51499     51501     51500     51502     51504     51503     51505
     51507     51506     51508     51510     51509     51511     51513     51512     51514
     51516     51515     51517     51519     51518     51520     51522     51521     51523
     51525     51524     51526     51528     51527     51529     51531     51530     51532
     51534     51533     51535     51537     51536     51538     51540     51539     51541
     51543     51542     51544     51546     51545     51547     51549     51548     51550
     51552     51551     51553     51555     51554     51556     51558     51557     51559
     51561     51560     51562     51564     51563     51565     51567     51566     51568
     51570     51569     51571     51573     51572     51574     51576     51575     51577
     51579     51578     51580     51582     51581     51583     51585     51584     51586
     51588     51587     51589     51591     51590     51592     51594     51593     51595
     51597     51596     51598     51600     51599     51601     51603     51602     51604
     51606     51605     51607     51609     51608     51610     51612     51611     51613
     51615     51614     51616     51618     51617     51619     51621     51620     51622
     51624     51623     51625     51627     51626     51628     51630     51629     51631
     51633     51632     51634     51636     51635     51637     51639     51638     51640
     51642     51641     51643     51645     51644     51646     51648     51647     51649
     51651     51650     51652     51654     51653     51655     51657     51656     51658
     51660     51659     51661     51663     51662     51664     51666     51665     51667
     51669     51668     51670     51672     51671     51673     51675     51674     51676
     51678     51677     51679     51681     51680     51682     51684     51683     51685
     51687     51686     51688     51690     51689     51691     51693     51692     51694
     51696     51695     51697     51699     51698     51700     51702     51701     51703
     51705     51704     51706     51708     51707     51709     51711     51710     51712
     51714     51713     51715     51717     51716     51718     51720     51719     51721
     51723     51722     51724     51726     51725     51727     51729     51728     51730
     51732     51731     51733     51735     51734     51736     51738     51737     51739
     51741     51740     51742     51744     51743     51745     51747     51746     51748
     51750     51749     51751     51753     51752     51754     51756     51755     51757
     51759     51758     51760     51762     51761     51763     51765     51764     51766
     51768     51767     51769     51771     51770     51772     51774     51773     51775
     51777     51776     51778     51780     51779     51781     51783     51782     51784
     51786     51785     51787     51789     51788     51790     51792     51791     51793
     51795     51794     51796     51798     51797     51799     51801     51800     51802
     51804     51803     51805     51807     51806     51808     51810     51809     51811
     51813     51812     51814     51816     51815     51817     51819     51818     51820
     51822     51821     51823     51825     51824     51826     51828     51827     51829
     51831     51830     51832     51834     51833     51835     51837     51836     51838
     51840     51839     51841     51843     51842     51844     51846     51845     51847
     51849     51848     51850     51852     51851     51853     51855     51854     51856
     51858     51857     51859     51861     51860     51862     51864     51863     51865
     51867     51866     51868     51870     51869     51871     51873     51872     51874
     51876     51875     51877     51879     51878     51880     51882     51881     51883
     51885     51884     51886     51888     51887     51889     51891     51890     51892
     51894     51893     51895     51897     51896     51898     51900     51899     51901
     51903     51902     51904     51906     51905     51907     51909     51908     51910
     51912     51911     51913     51915     51914     51916     51918     51917     51919
     51921     51920     51922     51924     51923     51925     51927     51926     51928
     51930     51929     51931     51933     51932     51934     51936     51935     51937
     51939     51938     51940     51942     51941     51943     51945     51944     51946
     51948     51947     51949     51951     51950     51952     51954     51953     51955
     51957     51956     51958     51960     51959     51961     51963     51962     51964
     51966     51965     51967     51969     51968     51970     51972     51971     51973
     51975     51974     51976     51978     51977     51979     51981     51980     51982
     51984     51983     51985     51987     51986     51988     51990     51989     51991
     51993     51992     51994     51996     51995     51997     51999     51998     52000
     52002     52001     52003     52005     52004     52006     52008     52007     52009
     52011     52010     52012     52014     52013     52015     52017     52016     52018
     52020     52019     52021     52023     52022     52024     52026     52025     52027
     52029     52028     52030     52032     52031     52033     52035     52034     52036
     52038     52037     52039     52041     52040     52042     52044     52043     52045
     52047     52046     52048     52050     52049     52051     52053     52052     52054
     52056     52055     52057     52059     52058     52060     52062     52061     52063
     52065     52064     52066     52068     52067     52069     52071     52070     52072
     52074     52073     52075     52077     52076     52078     52080     52079     52081
     52083     52082     52084     52086     52085     52087     52089     52088     52090
     52092     52091     52093     52095     52094     52096     52098     52097     52099
     52101     52100     52102     52104     52103     52105     52107     52106     52108
     52110     52109     52111     52113     52112     52114     52116     52115     52117
     52119     52118     52120     52122     52121     52123     52125     52124     52126
     52128     52127     52129     52131     52130     52132     52134     52133     52135
     52137     52136     52138     52140     52139     52141     52143     52142     52144
     52146     52145     52147     52149     52148     52150     52152     52151     52153
     52155     52154     52156     52158     52157     52159     52161     52160     52162
     52164     52163     52165     52167     52166     52168     52170     52169     52171
     52173     52172     52174     52176     52175     52177     52179     52178     52180
     52182     52181     52183     52185     52184     52186     52188     52187     52189
     52191     52190     52192     52194     52193     52195     52197     52196     52198
     52200     52199     52201     52203     52202     52204     52206     52205     52207
     52209     52208     52210     52212     52211     52213     52215     52214     52216
     52218     52217     52219     52221     52220     52222     52224     52223     52225
     52227     52226     52228     52230     52229     52231     52233     52232     52234
     52236     52235     52237     52239     52238     52240     52242     52241     52243
     52245     52244     52246     52248     52247     52249     52251     52250     52252
     52254     52253     52255     52257     52256     52258     52260     52259     52261
     52263     52262     52264     52266     52265     52267     52269     52268     52270
     52272     52271     52273     52275     52274     52276     52278     52277     52279
     52281     52280     52282     52284     52283     52285     52287     52286     52288
     52290     52289     52291     52293     52292     52294     52296     52295     52297
     52299     52298     52300     52302     52301     52303     52305     52304     52306
     52308     52307     52309     52311     52310     52312     52314     52313     52315
     52317     52316     52318     52320     52319     52321     52323     52322     52324
     52326     52325     52327     52329     52328     52330     52332     52331     52333
     52335     52334     52336     52338     52337     52339     52341     52340     52342
     52344     52343     52345     52347     52346     52348     52350     52349     52351
     52353     52352     52354     52356     52355     52357     52359     52358     52360
     52362     52361     52363     52365     52364     52366     52368     52367     52369
     52371     52370     52372     52374     52373     52375     52377     52376     52378
     52380     52379     52381     52383     52382     52384     52386     52385     52387
     52389     52388     52390     52392     52391     52393     52395     52394     52396
     52398     52397     52399     52401     52400     52402     52404     52403     52405
     52407     52406     52408     52410     52409     52411     52413     52412     52414
     52416     52415     52417     52419     52418     52420     52422     52421     52423
     52425     52424     52426     52428     52427     52429     52431     52430     52432
     52434     52433     52435     52437     52436     52438     52440     52439     52441
     52443     52442     52444     52446     52445     52447     52449     52448     52450
     52452     52451     52453     52455     52454     52456     52458     52457     52459
     52461     52460     52462     52464     52463     52465     52467     52466     52468
     52470     52469     52471     52473     52472     52474     52476     52475     52477
     52479     52478     52480     52482     52481     52483     52485     52484     52486
     52488     52487     52489     52491     52490     52492     52494     52493     52495
     52497     52496     52498     52500     52499     52501     52503     52502     52504
     52506     52505     52507     52509     52508     52510     52512     52511     52513
     52515     52514     52516     52518     52517     52519     52521     52520     52522
     52524     52523     52525     52527     52526     52528     52530     52529     52531
     52533     52532     52534     52536     52535     52537     52539     52538     52540
     52542     52541     52543     52545     52544     52546     52548     52547     52549
     52551     52550     52552     52554     52553     52555     52557     52556     52558
     52560     52559     52561     52563     52562     52564     52566     52565     52567
     52569     52568     52570     52572     52571     52573     52575     52574     52576
     52578     52577     52579     52581     52580     52582     52584     52583     52585
     52587     52586     52588     52590     52589     52591     52593     52592     52594
     52596     52595     52597     52599     52598     52600     52602     52601     52603
     52605     52604     52606     52608     52607     52609     52611     52610     52612
     52614     52613     52615     52617     52616     52618     52620     52619     52621
     52623     52622     52624     52626     52625     52627     52629     52628     52630
     52632     52631     52633     52635     52634     52636     52638     52637     52639
     52641     52640     52642     52644     52643     52645     52647     52646     52648
     52650     52649     52651     52653     52652     52654     52656     52655     52657
     52659     52658     52660     52662     52661     52663     52665     52664     52666
     52668     52667     52669     52671     52670     52672     52674     52673     52675
     52677     52676     52678     52680     52679     52681     52683     52682     52684
     52686     52685     52687     52689     52688     52690     52692     52691     52693
     52695     52694     52696     52698     52697     52699     52701     52700     52702
     52704     52703     52705     52707     52706     52708     52710     52709     52711
     52713     52712     52714     52716     52715     52717     52719     52718     52720
     52722     52721     52723     52725     52724     52726     52728     52727     52729
     52731     52730     52732     52734     52733     52735     52737     52736     52738
     52740     52739     52741     52743     52742     52744     52746     52745     52747
     52749     52748     52750     52752     52751     52753     52755     52754     52756
     52758     52757     52759     52761     52760     52762     52764     52763     52765
     52767     52766     52768     52770     52769     52771     52773     52772     52774
     52776     52775     52777     52779     52778     52780     52782     52781     52783
     52785     52784     52786     52788     52787     52789     52791     52790     52792
     52794     52793     52795     52797     52796     52798     52800     52799     52801
     52803     52802     52804     52806     52805     52807     52809     52808     52810
     52812     52811     52813     52815     52814     52816     52818     52817     52819
     52821     52820     52822     52824     52823     52825     52827     52826     52828
     52830     52829     52831     52833     52832     52834     52836     52835     52837
     52839     52838     52840     52842     52841     52843     52845     52844     52846
     52848     52847     52849     52851     52850     52852     52854     52853     52855
     52857     52856     52858     52860     52859     52861     52863     52862     52864
     52866     52865     52867     52869     52868     52870     52872     52871     52873
     52875     52874     52876     52878     52877     52879     52881     52880     52882
     52884     52883     52885     52887     52886     52888     52890     52889     52891
     52893     52892     52894     52896     52895     52897     52899     52898     52900
     52902     52901     52903     52905     52904     52906     52908     52907     52909
     52911     52910     52912     52914     52913     52915     52917     52916     52918
     52920     52919     52921     52923     52922     52924     52926     52925     52927
     52929     52928     52930     52932     52931     52933     52935     52934     52936
     52938     52937     52939     52941     52940     52942     52944     52943     52945
     52947     52946     52948     52950     52949     52951     52953     52952     52954
     52956     52955     52957     52959     52958     52960     52962     52961     52963
     52965     52964     52966     52968     52967     52969     52971     52970     52972
     52974     52973     52975     52977     52976     52978     52980     52979     52981
     52983     52982     52984     52986     52985     52987     52989     52988     52990
     52992     52991     52993     52995     52994     52996     52998     52997     52999
     53001     53000     53002     53004     53003     53005     53007     53006     53008
     53010     53009     53011     53013     53012     53014     53016     53015     53017
     53019     53018     53020     53022     53021     53023     53025     53024     53026
     53028     53027     53029     53031     53030     53032     53034     53033     53035
     53037     53036     53038     53040     53039     53041     53043     53042     53044
     53046     53045     53047     53049     53048     53050     53052     53051     53053
     53055     53054     53056     53058     53057     53059     53061     53060     53062
     53064     53063     53065     53067     53066     53068     53070     53069     53071
     53073     53072     53074     53076     53075     53077     53079     53078     53080
     53082     53081     53083     53085     53084     53086     53088     53087     53089
     53091     53090     53092     53094     53093     53095     53097     53096     53098
     53100     53099     53101     53103     53102     53104     53106     53105     53107
     53109     53108     53110     53112     53111     53113     53115     53114     53116
     53118     53117     53119     53121     53120     53122     53124     53123     53125
     53127     53126     53128     53130     53129     53131     53133     53132     53134
     53136     53135     53137     53139     53138     53140     53142     53141     53143
     53145     53144     53146     53148     53147     53149     53151     53150     53152
     53154     53153     53155     53157     53156     53158     53160     53159     53161
     53163     53162     53164     53166     53165     53167     53169     53168     53170
     53172     53171     53173     53175     53174     53176     53178     53177     53179
     53181     53180     53182     53184     53183     53185     53187     53186     53188
     53190     53189     53191     53193     53192     53194     53196     53195     53197
     53199     53198     53200     53202     53201     53203     53205     53204     53206
     53208     53207     53209     53211     53210     53212     53214     53213     53215
     53217     53216     53218     53220     53219     53221     53223     53222     53224
     53226     53225     53227     53229     53228     53230     53232     53231     53233
     53235     53234     53236     53238     53237     53239     53241     53240     53242
     53244     53243     53245     53247     53246     53248     53250     53249     53251
     53253     53252     53254     53256     53255     53257     53259     53258     53260
     53262     53261     53263     53265     53264     53266     53268     53267     53269
     53271     53270     53272     53274     53273     53275     53277     53276     53278
     53280     53279     53281     53283     53282     53284     53286     53285     53287
     53289     53288     53290     53292     53291     53293     53295     53294     53296
     53298     53297     53299     53301     53300     53302     53304     53303     53305
     53307     53306     53308     53310     53309     53311     53313     53312     53314
     53316     53315     53317     53319     53318     53320     53322     53321     53323
     53325     53324     53326     53328     53327     53329     53331     53330     53332
     53334     53333     53335     53337     53336     53338     53340     53339     53341
     53343     53342     53344     53346     53345     53347     53349     53348     53350
     53352     53351     53353     53355     53354     53356     53358     53357     53359
     53361     53360     53362     53364     53363     53365     53367     53366     53368
     53370     53369     53371     53373     53372     53374     53376     53375     53377
     53379     53378     53380     53382     53381     53383     53385     53384     53386
     53388     53387     53389     53391     53390     53392     53394     53393     53395
     53397     53396     53398     53400     53399     53401     53403     53402     53404
     53406     53405     53407     53409     53408     53410     53412     53411     53413
     53415     53414     53416     53418     53417     53419     53421     53420     53422
     53424     53423     53425     53427     53426     53428     53430     53429     53431
     53433     53432     53434     53436     53435     53437     53439     53438     53440
     53442     53441     53443     53445     53444     53446     53448     53447     53449
     53451     53450     53452     53454     53453     53455     53457     53456     53458
     53460     53459     53461     53463     53462     53464     53466     53465     53467
     53469     53468     53470     53472     53471     53473     53475     53474     53476
     53478     53477     53479     53481     53480     53482     53484     53483     53485
     53487     53486     53488     53490     53489     53491     53493     53492     53494
     53496     53495     53497     53499     53498     53500     53502     53501     53503
     53505     53504     53506     53508     53507     53509     53511     53510     53512
     53514     53513     53515     53517     53516     53518     53520     53519     53521
     53523     53522     53524     53526     53525     53527     53529     53528     53530
     53532     53531     53533     53535     53534     53536     53538     53537     53539
     53541     53540     53542     53544     53543     53545     53547     53546     53548
     53550     53549     53551     53553     53552     53554     53556     53555     53557
     53559     53558     53560     53562     53561     53563     53565     53564     53566
     53568     53567     53569     53571     53570     53572     53574     53573     53575
     53577     53576     53578     53580     53579     53581     53583     53582     53584
     53586     53585     53587     53589     53588     53590     53592     53591     53593
     53595     53594     53596     53598     53597     53599     53601     53600     53602
     53604     53603     53605     53607     53606     53608     53610     53609     53611
     53613     53612     53614     53616     53615     53617     53619     53618     53620
     53622     53621     53623     53625     53624     53626     53628     53627     53629
     53631     53630     53632     53634     53633     53635     53637     53636     53638
     53640     53639     53641     53643     53642     53644     53646     53645     53647
     53649     53648     53650     53652     53651     53653     53655     53654     53656
     53658     53657     53659     53661     53660     53662     53664     53663     53665
     53667     53666     53668     53670     53669     53671     53673     53672     53674
     53676     53675     53677     53679     53678     53680     53682     53681     53683
     53685     53684     53686     53688     53687     53689     53691     53690     53692
     53694     53693     53695     53697     53696     53698     53700     53699     53701
     53703     53702     53704     53706     53705     53707     53709     53708     53710
     53712     53711     53713     53715     53714     53716     53718     53717     53719
     53721     53720     53722     53724     53723     53725     53727     53726     53728
     53730     53729     53731     53733     53732     53734     53736     53735     53737
     53739     53738     53740     53742     53741     53743     53745     53744     53746
     53748     53747     53749     53751     53750     53752     53754     53753     53755
     53757     53756     53758     53760     53759     53761     53763     53762     53764
     53766     53765     53767     53769     53768     53770     53772     53771     53773
     53775     53774     53776     53778     53777     53779     53781     53780     53782
     53784     53783     53785     53787     53786     53788     53790     53789     53791
     53793     53792     53794     53796     53795     53797     53799     53798     53800
     53802     53801     53803     53805     53804     53806     53808     53807     53809
     53811     53810     53812     53814     53813     53815     53817     53816     53818
     53820     53819     53821     53823     53822     53824     53826     53825     53827
     53829     53828     53830     53832     53831     53833     53835     53834     53836
     53838     53837     53839     53841     53840     53842     53844     53843     53845
     53847     53846     53848     53850     53849     53851     53853     53852     53854
     53856     53855     53857     53859     53858     53860     53862     53861     53863
     53865     53864     53866     53868     53867     53869     53871     53870     53872
     53874     53873     53875     53877     53876     53878     53880     53879     53881
     53883     53882     53884     53886     53885     53887     53889     53888     53890
     53892     53891     53893     53895     53894     53896     53898     53897     53899
     53901     53900     53902     53904     53903     53905     53907     53906     53908
     53910     53909     53911     53913     53912     53914     53916     53915     53917
     53919     53918     53920     53922     53921     53923     53925     53924     53926
     53928     53927     53929     53931     53930     53932     53934     53933     53935
     53937     53936     53938     53940     53939     53941     53943     53942     53944
     53946     53945     53947     53949     53948     53950     53952     53951     53953
     53955     53954     53956     53958     53957     53959     53961     53960     53962
     53964     53963     53965     53967     53966     53968     53970     53969     53971
     53973     53972     53974     53976     53975     53977     53979     53978     53980
     53982     53981     53983     53985     53984     53986     53988     53987     53989
     53991     53990     53992     53994     53993     53995     53997     53996     53998
     54000     53999     54001     54003     54002     54004     54006     54005     54007
     54009     54008     54010     54012     54011     54013     54015     54014     54016
     54018     54017     54019     54021     54020     54022     54024     54023     54025
     54027     54026     54028     54030     54029     54031     54033     54032     54034
     54036     54035     54037     54039     54038     54040     54042     54041     54043
     54045     54044     54046     54048     54047     54049     54051     54050     54052
     54054     54053     54055     54057     54056     54058     54060     54059     54061
     54063     54062     54064     54066     54065     54067     54069     54068     54070
     54072     54071     54073     54075     54074     54076     54078     54077     54079
     54081     54080     54082     54084     54083     54085     54087     54086     54088
     54090     54089     54091     54093     54092     54094     54096     54095     54097
     54099     54098     54100     54102     54101     54103     54105     54104     54106
     54108     54107     54109     54111     54110     54112     54114     54113     54115
     54117     54116     54118     54120     54119     54121     54123     54122     54124
     54126     54125     54127     54129     54128     54130     54132     54131     54133
     54135     54134     54136     54138     54137     54139     54141     54140     54142
     54144     54143     54145     54147     54146     54148     54150     54149     54151
     54153     54152     54154     54156     54155     54157     54159     54158     54160
     54162     54161     54163     54165     54164     54166     54168     54167     54169
     54171     54170     54172     54174     54173     54175     54177     54176     54178
     54180     54179     54181     54183     54182     54184     54186     54185     54187
     54189     54188     54190     54192     54191     54193     54195     54194     54196
     54198     54197     54199     54201     54200     54202     54204     54203     54205
     54207     54206     54208     54210     54209     54211     54213     54212     54214
     54216     54215     54217     54219     54218     54220     54222     54221     54223
     54225     54224     54226     54228     54227     54229     54231     54230     54232
     54234     54233     54235     54237     54236     54238     54240     54239     54241
     54243     54242     54244     54246     54245     54247     54249     54248     54250
     54252     54251     54253     54255     54254     54256     54258     54257     54259
     54261     54260     54262     54264     54263     54265     54267     54266     54268
     54270     54269     54271     54273     54272     54274     54276     54275     54277
     54279     54278     54280     54282     54281     54283     54285     54284     54286
     54288     54287     54289     54291     54290     54292     54294     54293     54295
     54297     54296     54298     54300     54299     54301     54303     54302     54304
     54306     54305     54307     54309     54308     54310     54312     54311     54313
     54315     54314     54316     54318     54317     54319     54321     54320     54322
     54324     54323     54325     54327     54326     54328     54330     54329     54331
     54333     54332     54334     54336     54335     54337     54339     54338     54340
     54342     54341     54343     54345     54344     54346     54348     54347     54349
     54351     54350     54352     54354     54353     54355     54357     54356     54358
     54360     54359     54361     54363     54362     54364     54366     54365     54367
     54369     54368     54370     54372     54371     54373     54375     54374     54376
     54378     54377     54379     54381     54380     54382     54384     54383     54385
     54387     54386     54388     54390     54389     54391     54393     54392     54394
     54396     54395     54397     54399     54398     54400     54402     54401     54403
     54405     54404     54406     54408     54407     54409     54411     54410     54412
     54414     54413     54415     54417     54416     54418     54420     54419     54421
     54423     54422     54424     54426     54425     54427     54429     54428     54430
     54432     54431     54433     54435     54434     54436     54438     54437     54439
     54441     54440     54442     54444     54443     54445     54447     54446     54448
     54450     54449     54451     54453     54452     54454     54456     54455     54457
     54459     54458     54460     54462     54461     54463     54465     54464     54466
     54468     54467     54469     54471     54470     54472     54474     54473     54475
     54477     54476     54478     54480     54479     54481     54483     54482     54484
     54486     54485     54487     54489     54488     54490     54492     54491     54493
     54495     54494     54496     54498     54497     54499     54501     54500     54502
     54504     54503     54505     54507     54506     54508     54510     54509     54511
     54513     54512     54514     54516     54515     54517     54519     54518     54520
     54522     54521     54523     54525     54524     54526     54528     54527     54529
     54531     54530     54532     54534     54533     54535     54537     54536     54538
     54540     54539     54541     54543     54542     54544     54546     54545     54547
     54549     54548     54550     54552     54551     54553     54555     54554     54556
     54558     54557     54559     54561     54560     54562     54564     54563     54565
     54567     54566     54568     54570     54569     54571     54573     54572     54574
     54576     54575     54577     54579     54578     54580     54582     54581     54583
     54585     54584     54586     54588     54587     54589     54591     54590     54592
     54594     54593     54595     54597     54596     54598     54600     54599     54601
     54603     54602     54604     54606     54605     54607     54609     54608     54610
     54612     54611     54613     54615     54614     54616     54618     54617     54619
     54621     54620     54622     54624     54623     54625     54627     54626     54628
     54630     54629     54631     54633     54632     54634     54636     54635     54637
     54639     54638     54640     54642     54641     54643     54645     54644     54646
     54648     54647     54649     54651     54650     54652     54654     54653     54655
     54657     54656     54658     54660     54659     54661     54663     54662     54664
     54666     54665     54667     54669     54668     54670     54672     54671     54673
     54675     54674     54676     54678     54677     54679     54681     54680     54682
     54684     54683     54685     54687     54686     54688     54690     54689     54691
     54693     54692     54694     54696     54695     54697     54699     54698     54700
     54702     54701     54703     54705     54704     54706     54708     54707     54709
     54711     54710     54712     54714     54713     54715     54717     54716     54718
     54720     54719     54721     54723     54722     54724     54726     54725     54727
     54729     54728     54730     54732     54731     54733     54735     54734     54736
     54738     54737     54739     54741     54740     54742     54744     54743     54745
     54747     54746     54748     54750     54749     54751     54753     54752     54754
     54756     54755     54757     54759     54758     54760     54762     54761     54763
     54765     54764     54766     54768     54767     54769     54771     54770     54772
     54774     54773     54775     54777     54776     54778     54780     54779     54781
     54783     54782     54784     54786     54785     54787     54789     54788     54790
     54792     54791     54793     54795     54794     54796     54798     54797     54799
     54801     54800     54802     54804     54803     54805     54807     54806     54808
     54810     54809     54811     54813     54812     54814     54816     54815     54817
     54819     54818     54820     54822     54821     54823     54825     54824     54826
     54828     54827     54829     54831     54830     54832     54834     54833     54835
     54837     54836     54838     54840     54839     54841     54843     54842     54844
     54846     54845     54847     54849     54848     54850     54852     54851     54853
     54855     54854     54856     54858     54857     54859     54861     54860     54862
     54864     54863     54865     54867     54866     54868     54870     54869     54871
     54873     54872     54874     54876     54875     54877     54879     54878     54880
     54882     54881     54883     54885     54884     54886     54888     54887     54889
     54891     54890     54892     54894     54893     54895     54897     54896     54898
     54900     54899     54901     54903     54902     54904     54906     54905     54907
     54909     54908     54910     54912     54911     54913     54915     54914     54916
     54918     54917     54919     54921     54920     54922     54924     54923     54925
     54927     54926     54928     54930     54929     54931     54933     54932     54934
     54936     54935     54937     54939     54938     54940     54942     54941     54943
     54945     54944     54946     54948     54947     54949     54951     54950     54952
     54954     54953     54955     54957     54956     54958     54960     54959     54961
     54963     54962     54964     54966     54965     54967     54969     54968     54970
     54972     54971     54973     54975     54974     54976     54978     54977     54979
     54981     54980     54982     54984     54983     54985     54987     54986     54988
     54990     54989     54991     54993     54992     54994     54996     54995     54997
     54999     54998     55000     55002     55001     55003     55005     55004     55006
     55008     55007     55009     55011     55010     55012     55014     55013     55015
     55017     55016     55018     55020     55019     55021     55023     55022     55024
     55026     55025     55027     55029     55028     55030     55032     55031     55033
     55035     55034     55036     55038     55037     55039     55041     55040     55042
     55044     55043     55045     55047     55046     55048     55050     55049     55051
     55053     55052     55054     55056     55055     55057     55059     55058     55060
     55062     55061     55063     55065     55064     55066     55068     55067     55069
     55071     55070     55072     55074     55073     55075     55077     55076     55078
     55080     55079     55081     55083     55082     55084     55086     55085     55087
     55089     55088     55090     55092     55091     55093     55095     55094     55096
     55098     55097     55099     55101     55100     55102     55104     55103     55105
     55107     55106     55108     55110     55109     55111     55113     55112     55114
     55116     55115     55117     55119     55118     55120     55122     55121     55123
     55125     55124     55126     55128     55127     55129     55131     55130     55132
     55134     55133     55135     55137     55136     55138     55140     55139     55141
     55143     55142     55144     55146     55145     55147     55149     55148     55150
     55152     55151     55153     55155     55154     55156     55158     55157     55159
     55161     55160     55162     55164     55163     55165     55167     55166     55168
     55170     55169     55171     55173     55172     55174     55176     55175     55177
     55179     55178     55180     55182     55181     55183     55185     55184     55186
     55188     55187     55189     55191     55190     55192     55194     55193     55195
     55197     55196     55198     55200     55199     55201     55203     55202     55204
     55206     55205     55207     55209     55208     55210     55212     55211     55213
     55215     55214     55216     55218     55217     55219     55221     55220     55222
     55224     55223     55225     55227     55226     55228     55230     55229     55231
     55233     55232     55234     55236     55235     55237     55239     55238     55240
     55242     55241     55243     55245     55244     55246     55248     55247     55249
     55251     55250     55252     55254     55253     55255     55257     55256     55258
     55260     55259     55261     55263     55262     55264     55266     55265     55267
     55269     55268     55270     55272     55271     55273     55275     55274     55276
     55278     55277     55279     55281     55280     55282     55284     55283     55285
     55287     55286     55288     55290     55289     55291     55293     55292     55294
     55296     55295     55297     55299     55298     55300     55302     55301     55303
     55305     55304     55306     55308     55307     55309     55311     55310     55312
     55314     55313     55315     55317     55316     55318     55320     55319     55321
     55323     55322     55324     55326     55325     55327     55329     55328     55330
     55332     55331     55333     55335     55334     55336     55338     55337     55339
     55341     55340     55342     55344     55343     55345     55347     55346     55348
     55350     55349     55351     55353     55352     55354     55356     55355     55357
     55359     55358     55360     55362     55361     55363     55365     55364     55366
     55368     55367     55369     55371     55370     55372     55374     55373     55375
     55377     55376     55378     55380     55379     55381     55383     55382     55384
     55386     55385     55387     55389     55388     55390     55392     55391     55393
     55395     55394     55396     55398     55397     55399     55401     55400     55402
     55404     55403     55405     55407     55406     55408     55410     55409     55411
     55413     55412     55414     55416     55415     55417     55419     55418     55420
     55422     55421     55423     55425     55424     55426     55428     55427     55429
     55431     55430     55432     55434     55433     55435     55437     55436     55438
     55440     55439     55441     55443     55442     55444     55446     55445     55447
     55449     55448     55450     55452     55451     55453     55455     55454     55456
     55458     55457     55459     55461     55460     55462     55464     55463     55465
     55467     55466     55468     55470     55469     55471     55473     55472     55474
     55476     55475     55477     55479     55478     55480     55482     55481     55483
     55485     55484     55486     55488     55487     55489     55491     55490     55492
     55494     55493     55495     55497     55496     55498     55500     55499     55501
     55503     55502     55504     55506     55505     55507     55509     55508     55510
     55512     55511     55513     55515     55514     55516     55518     55517     55519
     55521     55520     55522     55524     55523     55525     55527     55526     55528
     55530     55529     55531     55533     55532     55534     55536     55535     55537
     55539     55538     55540     55542     55541     55543     55545     55544     55546
     55548     55547     55549     55551     55550     55552     55554     55553     55555
     55557     55556     55558     55560     55559     55561     55563     55562     55564
     55566     55565     55567     55569     55568     55570     55572     55571     55573
     55575     55574     55576     55578     55577     55579     55581     55580     55582
     55584     55583     55585     55587     55586     55588     55590     55589     55591
     55593     55592     55594     55596     55595     55597     55599     55598     55600
     55602     55601     55603     55605     55604     55606     55608     55607     55609
     55611     55610     55612     55614     55613     55615     55617     55616     55618
     55620     55619     55621     55623     55622     55624     55626     55625     55627
     55629     55628     55630     55632     55631     55633     55635     55634     55636
     55638     55637     55639     55641     55640     55642     55644     55643     55645
     55647     55646     55648     55650     55649     55651     55653     55652     55654
     55656     55655     55657     55659     55658     55660     55662     55661     55663
     55665     55664     55666     55668     55667     55669     55671     55670     55672
     55674     55673     55675     55677     55676     55678     55680     55679     55681
     55683     55682     55684     55686     55685     55687     55689     55688     55690
     55692     55691     55693     55695     55694     55696     55698     55697     55699
     55701     55700     55702     55704     55703     55705     55707     55706     55708
     55710     55709     55711     55713     55712     55714     55716     55715     55717
     55719     55718     55720     55722     55721     55723     55725     55724     55726
     55728     55727     55729     55731     55730     55732     55734     55733     55735
     55737     55736     55738     55740     55739     55741     55743     55742     55744
     55746     55745     55747     55749     55748     55750     55752     55751     55753
     55755     55754     55756     55758     55757     55759     55761     55760     55762
     55764     55763     55765     55767     55766     55768     55770     55769     55771
     55773     55772     55774     55776     55775     55777     55779     55778     55780
     55782     55781     55783     55785     55784     55786     55788     55787     55789
     55791     55790     55792     55794     55793     55795     55797     55796     55798
     55800     55799     55801     55803     55802     55804     55806     55805     55807
     55809     55808     55810     55812     55811     55813     55815     55814     55816
     55818     55817     55819     55821     55820     55822     55824     55823     55825
     55827     55826     55828     55830     55829     55831     55833     55832     55834
     55836     55835     55837     55839     55838     55840     55842     55841     55843
     55845     55844     55846     55848     55847     55849     55851     55850     55852
     55854     55853     55855     55857     55856     55858     55860     55859     55861
     55863     55862     55864     55866     55865     55867     55869     55868     55870
     55872     55871     55873     55875     55874     55876     55878     55877     55879
     55881     55880     55882     55884     55883     55885     55887     55886     55888
     55890     55889     55891     55893     55892     55894     55896     55895     55897
     55899     55898     55900     55902     55901     55903     55905     55904     55906
     55908     55907     55909     55911     55910     55912     55914     55913     55915
     55917     55916     55918     55920     55919     55921     55923     55922     55924
     55926     55925     55927     55929     55928     55930     55932     55931     55933
     55935     55934     55936     55938     55937     55939     55941     55940     55942
     55944     55943     55945     55947     55946     55948     55950     55949     55951
     55953     55952     55954     55956     55955     55957     55959     55958     55960
     55962     55961     55963     55965     55964     55966     55968     55967     55969
     55971     55970     55972     55974     55973     55975     55977     55976     55978
     55980     55979     55981     55983     55982     55984     55986     55985     55987
     55989     55988     55990     55992     55991     55993     55995     55994     55996
     55998     55997     55999     56001     56000     56002     56004     56003     56005
     56007     56006     56008     56010     56009     56011     56013     56012     56014
     56016     56015     56017     56019     56018     56020     56022     56021     56023
     56025     56024     56026     56028     56027     56029     56031     56030     56032
     56034     56033     56035     56037     56036     56038     56040     56039     56041
     56043     56042     56044     56046     56045     56047     56049     56048     56050
     56052     56051     56053     56055     56054     56056     56058     56057     56059
     56061     56060     56062     56064     56063     56065     56067     56066     56068
     56070     56069     56071     56073     56072     56074     56076     56075     56077
     56079     56078     56080     56082     56081     56083     56085     56084     56086
     56088     56087     56089     56091     56090     56092     56094     56093     56095
     56097     56096     56098     56100     56099     56101     56103     56102     56104
     56106     56105     56107     56109     56108     56110     56112     56111     56113
     56115     56114     56116     56118     56117     56119     56121     56120     56122
     56124     56123     56125     56127     56126     56128     56130     56129     56131
     56133     56132     56134     56136     56135     56137     56139     56138     56140
     56142     56141     56143     56145     56144     56146     56148     56147     56149
     56151     56150     56152     56154     56153     56155     56157     56156     56158
     56160     56159     56161     56163     56162     56164     56166     56165     56167
     56169     56168     56170     56172     56171     56173     56175     56174     56176
     56178     56177     56179     56181     56180     56182     56184     56183     56185
     56187     56186     56188     56190     56189     56191     56193     56192     56194
     56196     56195     56197     56199     56198     56200     56202     56201     56203
     56205     56204     56206     56208     56207     56209     56211     56210     56212
     56214     56213     56215     56217     56216     56218     56220     56219     56221
     56223     56222     56224     56226     56225     56227     56229     56228     56230
     56232     56231     56233     56235     56234     56236     56238     56237     56239
     56241     56240     56242     56244     56243     56245     56247     56246     56248
     56250     56249     56251     56253     56252     56254     56256     56255     56257
     56259     56258     56260     56262     56261     56263     56265     56264     56266
     56268     56267     56269     56271     56270     56272     56274     56273     56275
     56277     56276     56278     56280     56279     56281     56283     56282     56284
     56286     56285     56287     56289     56288     56290     56292     56291     56293
     56295     56294     56296     56298     56297     56299     56301     56300     56302
     56304     56303     56305     56307     56306     56308     56310     56309     56311
     56313     56312     56314     56316     56315     56317     56319     56318     56320
     56322     56321     56323     56325     56324     56326     56328     56327     56329
     56331     56330     56332     56334     56333     56335     56337     56336     56338
     56340     56339     56341     56343     56342     56344     56346     56345     56347
     56349     56348     56350     56352     56351     56353     56355     56354     56356
     56358     56357     56359     56361     56360     56362     56364     56363     56365
     56367     56366     56368     56370     56369     56371     56373     56372     56374
     56376     56375     56377     56379     56378     56380     56382     56381     56383
     56385     56384     56386     56388     56387     56389     56391     56390     56392
     56394     56393     56395     56397     56396     56398     56400     56399     56401
     56403     56402     56404     56406     56405     56407     56409     56408     56410
     56412     56411     56413     56415     56414     56416     56418     56417     56419
     56421     56420     56422     56424     56423     56425     56427     56426     56428
     56430     56429     56431     56433     56432     56434     56436     56435     56437
     56439     56438     56440     56442     56441     56443     56445     56444     56446
     56448     56447     56449     56451     56450     56452     56454     56453     56455
     56457     56456     56458     56460     56459     56461     56463     56462     56464
     56466     56465     56467     56469     56468     56470     56472     56471     56473
     56475     56474     56476     56478     56477     56479     56481     56480     56482
     56484     56483     56485     56487     56486     56488     56490     56489     56491
     56493     56492     56494     56496     56495     56497     56499     56498     56500
     56502     56501     56503     56505     56504     56506     56508     56507     56509
     56511     56510     56512     56514     56513     56515     56517     56516     56518
     56520     56519     56521     56523     56522     56524     56526     56525     56527
     56529     56528     56530     56532     56531     56533     56535     56534     56536
     56538     56537     56539     56541     56540     56542     56544     56543     56545
     56547     56546     56548     56550     56549     56551     56553     56552     56554
     56556     56555     56557     56559     56558     56560     56562     56561     56563
     56565     56564     56566     56568     56567     56569     56571     56570     56572
     56574     56573     56575     56577     56576     56578     56580     56579     56581
     56583     56582     56584     56586     56585     56587     56589     56588     56590
     56592     56591     56593     56595     56594     56596     56598     56597     56599
     56601     56600     56602     56604     56603     56605     56607     56606     56608
     56610     56609     56611     56613     56612     56614     56616     56615     56617
     56619     56618     56620     56622     56621     56623     56625     56624     56626
     56628     56627     56629     56631     56630     56632     56634     56633     56635
     56637     56636     56638     56640     56639     56641     56643     56642     56644
     56646     56645     56647     56649     56648     56650     56652     56651     56653
     56655     56654     56656     56658     56657     56659     56661     56660     56662
     56664     56663     56665     56667     56666     56668     56670     56669     56671
     56673     56672     56674     56676     56675     56677     56679     56678     56680
     56682     56681     56683     56685     56684     56686     56688     56687     56689
     56691     56690     56692     56694     56693     56695     56697     56696     56698
     56700     56699     56701     56703     56702     56704     56706     56705     56707
     56709     56708     56710     56712     56711     56713     56715     56714     56716
     56718     56717     56719     56721     56720     56722     56724     56723     56725
     56727     56726     56728     56730     56729     56731     56733     56732     56734
     56736     56735     56737     56739     56738     56740     56742     56741     56743
     56745     56744     56746     56748     56747     56749     56751     56750     56752
     56754     56753     56755     56757     56756     56758     56760     56759     56761
     56763     56762     56764     56766     56765     56767     56769     56768     56770
     56772     56771     56773     56775     56774     56776     56778     56777     56779
     56781     56780     56782     56784     56783     56785     56787     56786     56788
     56790     56789     56791     56793     56792     56794     56796     56795     56797
     56799     56798     56800     56802     56801     56803     56805     56804     56806
     56808     56807     56809     56811     56810     56812     56814     56813     56815
     56817     56816     56818     56820     56819     56821     56823     56822     56824
     56826     56825     56827     56829     56828     56830     56832     56831     56833
     56835     56834     56836     56838     56837     56839     56841     56840     56842
     56844     56843     56845     56847     56846     56848     56850     56849     56851
     56853     56852     56854     56856     56855     56857     56859     56858     56860
     56862     56861     56863     56865     56864     56866     56868     56867     56869
     56871     56870     56872     56874     56873     56875     56877     56876     56878
     56880     56879     56881     56883     56882     56884     56886     56885     56887
     56889     56888     56890     56892     56891     56893     56895     56894     56896
     56898     56897     56899     56901     56900     56902     56904     56903     56905
     56907     56906     56908     56910     56909     56911     56913     56912     56914
     56916     56915     56917     56919     56918     56920     56922     56921     56923
     56925     56924     56926     56928     56927     56929     56931     56930     56932
     56934     56933     56935     56937     56936     56938     56940     56939     56941
     56943     56942     56944     56946     56945     56947     56949     56948     56950
     56952     56951     56953     56955     56954     56956     56958     56957     56959
     56961     56960     56962     56964     56963     56965     56967     56966     56968
     56970     56969     56971     56973     56972     56974     56976     56975     56977
     56979     56978     56980     56982     56981     56983     56985     56984     56986
     56988     56987     56989     56991     56990     56992     56994     56993     56995
     56997     56996     56998     57000     56999     57001     57003     57002     57004
     57006     57005     57007     57009     57008     57010     57012     57011     57013
     57015     57014     57016     57018     57017     57019     57021     57020     57022
     57024     57023     57025     57027     57026     57028     57030     57029     57031
     57033     57032     57034     57036     57035     57037     57039     57038     57040
     57042     57041     57043     57045     57044     57046     57048     57047     57049
     57051     57050     57052     57054     57053     57055     57057     57056     57058
     57060     57059     57061     57063     57062     57064     57066     57065     57067
     57069     57068     57070     57072     57071     57073     57075     57074     57076
     57078     57077     57079     57081     57080     57082     57084     57083     57085
     57087     57086     57088     57090     57089     57091     57093     57092     57094
     57096     57095     57097     57099     57098     57100     57102     57101     57103
     57105     57104     57106     57108     57107     57109     57111     57110     57112
     57114     57113     57115     57117     57116     57118     57120     57119     57121
     57123     57122     57124     57126     57125     57127     57129     57128     57130
     57132     57131     57133     57135     57134     57136     57138     57137     57139
     57141     57140     57142     57144     57143     57145     57147     57146     57148
     57150     57149     57151     57153     57152     57154     57156     57155     57157
     57159     57158     57160     57162     57161     57163     57165     57164     57166
     57168     57167     57169     57171     57170     57172     57174     57173     57175
     57177     57176     57178     57180     57179     57181     57183     57182     57184
     57186     57185     57187     57189     57188     57190     57192     57191     57193
     57195     57194     57196     57198     57197     57199     57201     57200     57202
     57204     57203     57205     57207     57206     57208     57210     57209     57211
     57213     57212     57214     57216     57215     57217     57219     57218     57220
     57222     57221     57223     57225     57224     57226     57228     57227     57229
     57231     57230     57232     57234     57233     57235     57237     57236     57238
     57240     57239     57241     57243     57242     57244     57246     57245     57247
     57249     57248     57250     57252     57251     57253     57255     57254     57256
     57258     57257     57259     57261     57260     57262     57264     57263     57265
     57267     57266     57268     57270     57269     57271     57273     57272     57274
     57276     57275     57277     57279     57278     57280     57282     57281     57283
     57285     57284     57286     57288     57287     57289     57291     57290     57292
     57294     57293     57295     57297     57296     57298     57300     57299     57301
     57303     57302     57304     57306     57305     57307     57309     57308     57310
     57312     57311     57313     57315     57314     57316     57318     57317     57319
     57321     57320     57322     57324     57323     57325     57327     57326     57328
     57330     57329     57331     57333     57332     57334     57336     57335     57337
     57339     57338     57340     57342     57341     57343     57345     57344     57346
     57348     57347     57349     57351     57350     57352     57354     57353     57355
     57357     57356     57358     57360     57359     57361     57363     57362     57364
     57366     57365     57367     57369     57368     57370     57372     57371     57373
     57375     57374     57376     57378     57377     57379     57381     57380     57382
     57384     57383     57385     57387     57386     57388     57390     57389     57391
     57393     57392     57394     57396     57395     57397     57399     57398     57400
     57402     57401     57403     57405     57404     57406     57408     57407     57409
     57411     57410     57412     57414     57413     57415     57417     57416     57418
     57420     57419     57421     57423     57422     57424     57426     57425     57427
     57429     57428     57430     57432     57431     57433     57435     57434     57436
     57438     57437     57439     57441     57440     57442     57444     57443     57445
     57447     57446     57448     57450     57449     57451     57453     57452     57454
     57456     57455     57457     57459     57458     57460     57462     57461     57463
     57465     57464     57466     57468     57467     57469     57471     57470     57472
     57474     57473     57475     57477     57476     57478     57480     57479     57481
     57483     57482     57484     57486     57485     57487     57489     57488     57490
     57492     57491     57493     57495     57494     57496     57498     57497     57499
     57501     57500     57502     57504     57503     57505     57507     57506     57508
     57510     57509     57511     57513     57512     57514     57516     57515     57517
     57519     57518     57520     57522     57521     57523     57525     57524     57526
     57528     57527     57529     57531     57530     57532     57534     57533     57535
     57537     57536     57538     57540     57539     57541     57543     57542     57544
     57546     57545     57547     57549     57548     57550     57552     57551     57553
     57555     57554     57556     57558     57557     57559     57561     57560     57562
     57564     57563     57565     57567     57566     57568     57570     57569     57571
     57573     57572     57574     57576     57575     57577     57579     57578     57580
     57582     57581     57583     57585     57584     57586     57588     57587     57589
     57591     57590     57592     57594     57593     57595     57597     57596     57598
     57600     57599     57601     57603     57602     57604     57606     57605     57607
     57609     57608     57610     57612     57611     57613     57615     57614     57616
     57618     57617     57619     57621     57620     57622     57624     57623     57625
     57627     57626     57628     57630     57629     57631     57633     57632     57634
     57636     57635     57637     57639     57638     57640     57642     57641     57643
     57645     57644     57646     57648     57647     57649     57651     57650     57652
     57654     57653     57655     57657     57656     57658     57660     57659     57661
     57663     57662     57664     57666     57665     57667     57669     57668     57670
     57672     57671     57673     57675     57674     57676     57678     57677     57679
     57681     57680     57682     57684     57683     57685     57687     57686     57688
     57690     57689     57691     57693     57692     57694     57696     57695     57697
     57699     57698     57700     57702     57701     57703     57705     57704     57706
     57708     57707     57709     57711     57710     57712     57714     57713     57715
     57717     57716     57718     57720     57719     57721     57723     57722     57724
     57726     57725     57727     57729     57728     57730     57732     57731     57733
     57735     57734     57736     57738     57737     57739     57741     57740     57742
     57744     57743     57745     57747     57746     57748     57750     57749     57751
     57753     57752     57754     57756     57755     57757     57759     57758     57760
     57762     57761     57763     57765     57764     57766     57768     57767     57769
     57771     57770     57772     57774     57773     57775     57777     57776     57778
     57780     57779     57781     57783     57782     57784     57786     57785     57787
     57789     57788     57790     57792     57791     57793     57795     57794     57796
     57798     57797     57799     57801     57800     57802     57804     57803     57805
     57807     57806     57808     57810     57809     57811     57813     57812     57814
     57816     57815     57817     57819     57818     57820     57822     57821     57823
     57825     57824     57826     57828     57827     57829     57831     57830     57832
     57834     57833     57835     57837     57836     57838     57840     57839     57841
     57843     57842     57844     57846     57845     57847     57849     57848     57850
     57852     57851     57853     57855     57854     57856     57858     57857     57859
     57861     57860     57862     57864     57863     57865     57867     57866     57868
     57870     57869     57871     57873     57872     57874     57876     57875     57877
     57879     57878     57880     57882     57881     57883     57885     57884     57886
     57888     57887     57889     57891     57890     57892     57894     57893     57895
     57897     57896     57898     57900     57899     57901     57903     57902     57904
     57906     57905     57907     57909     57908     57910     57912     57911     57913
     57915     57914     57916     57918     57917     57919     57921     57920     57922
     57924     57923     57925     57927     57926     57928     57930     57929     57931
     57933     57932     57934     57936     57935     57937     57939     57938     57940
     57942     57941     57943     57945     57944     57946     57948     57947     57949
     57951     57950     57952     57954     57953     57955     57957     57956     57958
     57960     57959     57961     57963     57962     57964     57966     57965     57967
     57969     57968     57970     57972     57971     57973     57975     57974     57976
     57978     57977     57979     57981     57980     57982     57984     57983     57985
     57987     57986     57988     57990     57989     57991     57993     57992     57994
     57996     57995     57997     57999     57998     58000     58002     58001     58003
     58005     58004     58006     58008     58007     58009     58011     58010     58012
     58014     58013     58015     58017     58016     58018     58020     58019     58021
     58023     58022     58024     58026     58025     58027     58029     58028     58030
     58032     58031     58033     58035     58034     58036     58038     58037     58039
     58041     58040     58042     58044     58043     58045     58047     58046     58048
     58050     58049     58051     58053     58052     58054     58056     58055     58057
     58059     58058     58060     58062     58061     58063     58065     58064     58066
     58068     58067     58069     58071     58070     58072     58074     58073     58075
     58077     58076     58078     58080     58079     58081     58083     58082     58084
     58086     58085     58087     58089     58088     58090     58092     58091     58093
     58095     58094     58096     58098     58097     58099     58101     58100     58102
     58104     58103     58105     58107     58106     58108     58110     58109     58111
     58113     58112     58114     58116     58115     58117     58119     58118     58120
     58122     58121     58123     58125     58124     58126     58128     58127     58129
     58131     58130     58132     58134     58133     58135     58137     58136     58138
     58140     58139     58141     58143     58142     58144     58146     58145     58147
     58149     58148     58150     58152     58151     58153     58155     58154     58156
     58158     58157     58159     58161     58160     58162     58164     58163     58165
     58167     58166     58168     58170     58169     58171     58173     58172     58174
     58176     58175     58177     58179     58178     58180     58182     58181     58183
     58185     58184     58186     58188     58187     58189     58191     58190     58192
     58194     58193     58195     58197     58196     58198     58200     58199     58201
     58203     58202     58204     58206     58205     58207     58209     58208     58210
     58212     58211     58213     58215     58214     58216     58218     58217     58219
     58221     58220     58222     58224     58223     58225     58227     58226     58228
     58230     58229     58231     58233     58232     58234     58236     58235     58237
     58239     58238     58240     58242     58241     58243     58245     58244     58246
     58248     58247     58249     58251     58250     58252     58254     58253     58255
     58257     58256     58258     58260     58259     58261     58263     58262     58264
     58266     58265     58267     58269     58268     58270     58272     58271     58273
     58275     58274     58276     58278     58277     58279     58281     58280     58282
     58284     58283     58285     58287     58286     58288     58290     58289     58291
     58293     58292     58294     58296     58295     58297     58299     58298     58300
     58302     58301     58303     58305     58304     58306     58308     58307     58309
     58311     58310     58312     58314     58313     58315     58317     58316     58318
     58320     58319     58321     58323     58322     58324     58326     58325     58327
     58329     58328     58330     58332     58331     58333     58335     58334     58336
     58338     58337     58339     58341     58340     58342     58344     58343     58345
     58347     58346     58348     58350     58349     58351     58353     58352     58354
     58356     58355     58357     58359     58358     58360     58362     58361     58363
     58365     58364     58366     58368     58367     58369     58371     58370     58372
     58374     58373     58375     58377     58376     58378     58380     58379     58381
     58383     58382     58384     58386     58385     58387     58389     58388     58390
     58392     58391     58393     58395     58394     58396     58398     58397     58399
     58401     58400     58402     58404     58403     58405     58407     58406     58408
     58410     58409     58411     58413     58412     58414     58416     58415     58417
     58419     58418     58420     58422     58421     58423     58425     58424     58426
     58428     58427     58429     58431     58430     58432     58434     58433     58435
     58437     58436     58438     58440     58439     58441     58443     58442     58444
     58446     58445     58447     58449     58448     58450     58452     58451     58453
     58455     58454     58456     58458     58457     58459     58461     58460     58462
     58464     58463     58465     58467     58466     58468     58470     58469     58471
     58473     58472     58474     58476     58475     58477     58479     58478     58480
     58482     58481     58483     58485     58484     58486     58488     58487     58489
     58491     58490     58492     58494     58493     58495     58497     58496     58498
     58500     58499     58501     58503     58502     58504     58506     58505     58507
     58509     58508     58510     58512     58511     58513     58515     58514     58516
     58518     58517     58519     58521     58520     58522     58524     58523     58525
     58527     58526     58528     58530     58529     58531     58533     58532     58534
     58536     58535     58537     58539     58538     58540     58542     58541     58543
     58545     58544     58546     58548     58547     58549     58551     58550     58552
     58554     58553     58555     58557     58556     58558     58560     58559     58561
     58563     58562     58564     58566     58565     58567     58569     58568     58570
     58572     58571     58573     58575     58574     58576     58578     58577     58579
     58581     58580     58582     58584     58583     58585     58587     58586     58588
     58590     58589     58591     58593     58592     58594     58596     58595     58597
     58599     58598     58600     58602     58601     58603     58605     58604     58606
     58608     58607     58609     58611     58610     58612     58614     58613     58615
     58617     58616     58618     58620     58619     58621     58623     58622     58624
     58626     58625     58627     58629     58628     58630     58632     58631     58633
     58635     58634     58636     58638     58637     58639     58641     58640     58642
     58644     58643     58645     58647     58646     58648     58650     58649     58651
     58653     58652     58654     58656     58655     58657     58659     58658     58660
     58662     58661     58663     58665     58664     58666     58668     58667     58669
     58671     58670     58672     58674     58673     58675     58677     58676     58678
     58680     58679     58681     58683     58682     58684     58686     58685     58687
     58689     58688     58690     58692     58691     58693     58695     58694     58696
     58698     58697     58699     58701     58700     58702     58704     58703     58705
     58707     58706     58708     58710     58709     58711     58713     58712     58714
     58716     58715     58717     58719     58718     58720     58722     58721     58723
     58725     58724     58726     58728     58727     58729     58731     58730     58732
     58734     58733     58735     58737     58736     58738     58740     58739     58741
     58743     58742     58744     58746     58745     58747     58749     58748     58750
     58752     58751     58753     58755     58754     58756     58758     58757     58759
     58761     58760     58762     58764     58763     58765     58767     58766     58768
     58770     58769     58771     58773     58772     58774     58776     58775     58777
     58779     58778     58780     58782     58781     58783     58785     58784     58786
     58788     58787     58789     58791     58790     58792     58794     58793     58795
     58797     58796     58798     58800     58799     58801     58803     58802     58804
     58806     58805     58807     58809     58808     58810     58812     58811     58813
     58815     58814     58816     58818     58817     58819     58821     58820     58822
     58824     58823     58825     58827     58826     58828     58830     58829     58831
     58833     58832     58834     58836     58835     58837     58839     58838     58840
     58842     58841     58843     58845     58844     58846     58848     58847     58849
     58851     58850     58852     58854     58853     58855     58857     58856     58858
     58860     58859     58861     58863     58862     58864     58866     58865     58867
     58869     58868     58870     58872     58871     58873     58875     58874     58876
     58878     58877     58879     58881     58880     58882     58884     58883     58885
     58887     58886     58888     58890     58889     58891     58893     58892     58894
     58896     58895     58897     58899     58898     58900     58902     58901     58903
     58905     58904     58906     58908     58907     58909     58911     58910     58912
     58914     58913     58915     58917     58916     58918     58920     58919     58921
     58923     58922     58924     58926     58925     58927     58929     58928     58930
     58932     58931     58933     58935     58934     58936     58938     58937     58939
     58941     58940     58942     58944     58943     58945     58947     58946     58948
     58950     58949     58951     58953     58952     58954     58956     58955     58957
     58959     58958     58960     58962     58961     58963     58965     58964     58966
     58968     58967     58969     58971     58970     58972     58974     58973     58975
     58977     58976     58978     58980     58979     58981     58983     58982     58984
     58986     58985     58987     58989     58988     58990     58992     58991     58993
     58995     58994     58996     58998     58997     58999     59001     59000     59002
     59004     59003     59005     59007     59006     59008     59010     59009     59011
     59013     59012     59014     59016     59015     59017     59019     59018     59020
     59022     59021     59023     59025     59024     59026     59028     59027     59029
     59031     59030     59032     59034     59033     59035     59037     59036     59038
     59040     59039     59041     59043     59042     59044     59046     59045     59047
     59049     59048     59050     59052     59051     59053     59055     59054     59056
     59058     59057     59059     59061     59060     59062     59064     59063     59065
     59067     59066     59068     59070     59069     59071     59073     59072     59074
     59076     59075     59077     59079     59078     59080     59082     59081     59083
     59085     59084     59086     59088     59087     59089     59091     59090     59092
     59094     59093     59095     59097     59096     59098     59100     59099     59101
     59103     59102     59104     59106     59105     59107     59109     59108     59110
     59112     59111     59113     59115     59114     59116     59118     59117     59119
     59121     59120     59122     59124     59123     59125     59127     59126     59128
     59130     59129     59131     59133     59132     59134     59136     59135     59137
     59139     59138     59140     59142     59141     59143     59145     59144     59146
     59148     59147     59149     59151     59150     59152     59154     59153     59155
     59157     59156     59158     59160     59159     59161     59163     59162     59164
     59166     59165     59167     59169     59168     59170     59172     59171     59173
     59175     59174     59176     59178     59177     59179     59181     59180     59182
     59184     59183     59185     59187     59186     59188     59190     59189     59191
     59193     59192     59194     59196     59195     59197     59199     59198     59200
     59202     59201     59203     59205     59204     59206     59208     59207     59209
     59211     59210     59212     59214     59213     59215     59217     59216     59218
     59220     59219     59221     59223     59222     59224     59226     59225     59227
     59229     59228     59230     59232     59231     59233     59235     59234     59236
     59238     59237     59239     59241     59240     59242     59244     59243     59245
     59247     59246     59248     59250     59249     59251     59253     59252     59254
     59256     59255     59257     59259     59258     59260     59262     59261     59263
     59265     59264     59266     59268     59267     59269     59271     59270     59272
     59274     59273     59275     59277     59276     59278     59280     59279     59281
     59283     59282     59284     59286     59285     59287     59289     59288     59290
     59292     59291     59293     59295     59294     59296     59298     59297     59299
     59301     59300     59302     59304     59303     59305     59307     59306     59308
     59310     59309     59311     59313     59312     59314     59316     59315     59317
     59319     59318     59320     59322     59321     59323     59325     59324     59326
     59328     59327     59329     59331     59330     59332     59334     59333     59335
     59337     59336     59338     59340     59339     59341     59343     59342     59344
     59346     59345     59347     59349     59348     59350     59352     59351     59353
     59355     59354     59356     59358     59357     59359     59361     59360     59362
     59364     59363     59365     59367     59366     59368     59370     59369     59371
     59373     59372     59374     59376     59375     59377     59379     59378     59380
     59382     59381     59383     59385     59384     59386     59388     59387     59389
     59391     59390     59392     59394     59393     59395     59397     59396     59398
     59400     59399     59401     59403     59402     59404     59406     59405     59407
     59409     59408     59410     59412     59411     59413     59415     59414     59416
     59418     59417     59419     59421     59420     59422     59424     59423     59425
     59427     59426     59428     59430     59429     59431     59433     59432     59434
     59436     59435     59437     59439     59438     59440     59442     59441     59443
     59445     59444     59446     59448     59447     59449     59451     59450     59452
     59454     59453     59455     59457     59456     59458     59460     59459     59461
     59463     59462     59464     59466     59465     59467     59469     59468     59470
     59472     59471     59473     59475     59474     59476     59478     59477     59479
     59481     59480     59482     59484     59483     59485     59487     59486     59488
     59490     59489     59491     59493     59492     59494     59496     59495     59497
     59499     59498     59500     59502     59501     59503     59505     59504     59506
     59508     59507     59509     59511     59510     59512     59514     59513     59515
     59517     59516     59518     59520     59519     59521     59523     59522     59524
     59526     59525     59527     59529     59528     59530     59532     59531     59533
     59535     59534     59536     59538     59537     59539     59541     59540     59542
     59544     59543     59545     59547     59546     59548     59550     59549     59551
     59553     59552     59554     59556     59555     59557     59559     59558     59560
     59562     59561     59563     59565     59564     59566

     67656 !NPHI: dihedrals
         1         5         8         9         1         5         8        10
         1         5         8        15         2         1         5         6
         2         1         5         7         2         1         5         8
         3         1         5         6         3         1         5         7
         3         1         5         8         4         1         5         6
         4         1         5         7         4         1         5         8
         5         8        15        11         6         5         8         9
         6         5         8        10         6         5         8        15
         7         5         8         9         7         5         8        10
         7         5         8        15         8        15        11        12
         8        15        11        13         8        15        11        14
         9         8        15        11        10         8        15        11
        11        14        16        17        11        14        16        18
        11        14        16        19        12        11        14        16
        13        11        14        16        14        16        19        20
        14        16        19        21        14        16        19        27
        15        11        14        16        16        19        21        22
        16        19        27        28        16        19        27        29
        16        19        27        30        17        16        19        20
        17        16        19        21        17        16        19        27
        18        16        19        20        18        16        19        21
        18        16        19        27        19        21        22        23
        19        21        22        24        19        27        30        31
        20        19        21        22        20        19        27        28
        20        19        27        29        20        19        27        30
        21        19        27        28        21        19        27        29
        21        19        27        30        21        22        24        25
        21        22        24        26        21        22        24        36
        22        21        19        27        22        24        36        37
        22        24        36        38        22        24        36        39
        23        22        24        25        23        22        24        26
        23        22        24        36        24        36        39        40
        24        36        39        41        24        36        39        42
        25        24        36        37        25        24        36        38
        25        24        36        39        26        24        36        37
        26        24        36        38        26        24        36        39
        27        30        31        32        27        30        31        33
        28        27        30        31        29        27        30        31
        30        31        33        34        30        31        33        35
        30        31        33        80        31        33        80        81
        31        33        80        82        31        33        80        83
        32        31        33        34        32        31        33        35
        32        31        33        80        33        80        83        84
        33        80        83        85        33        80        83        86
        34        33        80        81        34        33        80        82
        34        33        80        83        35        33        80        81
        35        33        80        82        35        33        80        83
        36        39        42        43        36        39        42        44
        36        39        42        45        37        36        39        40
        37        36        39        41        37        36        39        42
        38        36        39        40        38        36        39        41
        38        36        39        42        39        42        45        46
        39        42        45        47        39        42        45        48
        40        39        42        43        40        39        42        44
        40        39        42        45        41        39        42        43
        41        39        42        44        41        39        42        45
        42        45        48        49        42        45        48        50
        42        45        48        51        43        42        45        46
        43        42        45        47        43        42        45        48
        44        42        45        46        44        42        45        47
        44        42        45        48        45        48        51        52
        45        48        51        53        45        48        51        54
        46        45        48        49        46        45        48        50
        46        45        48        51        47        45        48        49
        47        45        48        50        47        45        48        51
        48        51        54        55        48        51        54        56
        48        51        54        59        49        48        51        52
        49        48        51        53        49        48        51        54
        50        48        51        52        50        48        51        53
        50        48        51        54        51        54        56        57
        51        54        56        58        51        54        56        59
        51        54        59        56        51        54        59        60
        51        54        59        61        52        51        54        55
        52        51        54        56        52        51        54        59
        53        51        54        55        53        51        54        56
        53        51        54        59        54        56        59        60
        54        56        59        61        54        59        56        57
        54        59        56        58        54        59        61        62
        54        59        61        63        54        59        61        64
        55        54        56        57        55        54        56        58
        55        54        56        59        55        54        59        56
        55        54        59        60        55        54        59        61
        56        54        59        60        56        54        59        61
        56        59        61        62        56        59        61        63
        56        59        61        64        57        56        54        59
        57        56        59        60        57        56        59        61
        58        56        54        59        58        56        59        60
        58        56        59        61        59        61        64        65
        59        61        64        66        59        61        64        67
        60        59        61        62        60        59        61        63
        60        59        61        64        61        64        67        68
        61        64        67        69        61        64        67        70
        62        61        64        65        62        61        64        66
        62        61        64        67        63        61        64        65
        63        61        64        66        63        61        64        67
        64        67        70        71        64        67        70        72
        64        67        70        73        65        64        67        68
        65        64        67        69        65        64        67        70
        66        64        67        68        66        64        67        69
        66        64        67        70        67        70        73        74
        67        70        73        75        67        70        73        76
        68        67        70        71        68        67        70        72
        68        67        70        73        69        67        70        71
        69        67        70        72        69        67        70        73
        70        73        76        77        70        73        76        78
        70        73        76        79        71        70        73        74
        71        70        73        75        71        70        73        76
        72        70        73        74        72        70        73        75
        72        70        73        76        74        73        76        77
        74        73        76        78        74        73        76        79
        75        73        76        77        75        73        76        78
        75        73        76        79        80        83        86        87
        80        83        86        88        80        83        86        89
        81        80        83        84        81        80        83        85
        81        80        83        86        82        80        83        84
        82        80        83        85        82        80        83        86
        83        86        89        90        83        86        89        91
        83        86        89        92        84        83        86        87
        84        83        86        88        84        83        86        89
        85        83        86        87        85        83        86        88
        85        83        86        89        86        89        92        93
        86        89        92        94        86        89        92        95
        87        86        89        90        87        86        89        91
        87        86        89        92        88        86        89        90
        88        86        89        91        88        86        89        92
        89        92        95        96        89        92        95        97
        89        92        95        98        90        89        92        93
        90        89        92        94        90        89        92        95
        91        89        92        93        91        89        92        94
        91        89        92        95        92        95        98        99
        92        95        98       100        92        95        98       101
        93        92        95        96        93        92        95        97
        93        92        95        98        94        92        95        96
        94        92        95        97        94        92        95        98
        95        98       101       102        95        98       101       103
        95        98       101       104        96        95        98        99
        96        95        98       100        96        95        98       101
        97        95        98        99        97        95        98       100
        97        95        98       101        98       101       104       105
        98       101       104       106        98       101       104       107
        99        98       101       102        99        98       101       103
        99        98       101       104       100        98       101       102
       100        98       101       103       100        98       101       104
       101       104       107       108       101       104       107       109
       101       104       107       110       102       101       104       105
       102       101       104       106       102       101       104       107
       103       101       104       105       103       101       104       106
       103       101       104       107       104       107       110       111
       104       107       110       112       104       107       110       113
       105       104       107       108       105       104       107       109
       105       104       107       110       106       104       107       108
       106       104       107       109       106       104       107       110
       107       110       113       114       107       110       113       115
       107       110       113       116       108       107       110       111
       108       107       110       112       108       107       110       113
       109       107       110       111       109       107       110       112
       109       107       110       113       110       113       116       117
       110       113       116       118       110       113       116       119
       111       110       113       114       111       110       113       115
       111       110       113       116       112       110       113       114
       112       110       113       115       112       110       113       116
       114       113       116       117       114       113       116       118
       114       113       116       119       115       113       116       117
       115       113       116       118       115       113       116       119
       120       124       127       128       120       124       127       129
       120       124       127       134       121       120       124       125
       121       120       124       126       121       120       124       127
       122       120       124       125       122       120       124       126
       122       120       124       127       123       120       124       125
       123       120       124       126       123       120       124       127
       124       127       134       130       125       124       127       128
       125       124       127       129       125       124       127       134
       126       124       127       128       126       124       127       129
       126       124       127       134       127       134       130       131
       127       134       130       132       127       134       130       133
       128       127       134       130       129       127       134       130
       130       133       135       136       130       133       135       137
       130       133       135       138       131       130       133       135
       132       130       133       135       133       135       138       139
       133       135       138       140       133       135       138       146
       134       130       133       135       135       138       140       141
       135       138       146       147       135       138       146       148
       135       138       146       149       136       135       138       139
       136       135       138       140       136       135       138       146
       137       135       138       139       137       135       138       140
       137       135       138       146       138       140       141       142
       138       140       141       143       138       146       149       150
       139       138       140       141       139       138       146       147
       139       138       146       148       139       138       146       149
       140       138       146       147       140       138       146       148
       140       138       146       149       140       141       143       144
       140       141       143       145       140       141       143       155
       141       140       138       146       141       143       155       156
       141       143       155       157       141       143       155       158
       142       141       143       144       142       141       143       145
       142       141       143       155       143       155       158       159
       143       155       158       160       143       155       158       161
       144       143       155       156       144       143       155       157
       144       143       155       158       145       143       155       156
       145       143       155       157       145       143       155       158
       146       149       150       151       146       149       150       152
       147       146       149       150       148       146       149       150
       149       150       152       153       149       150       152       154
       149       150       152       199       150       152       199       200
       150       152       199       201       150       152       199       202
       151       150       152       153       151       150       152       154
       151       150       152       199       152       199       202       203
       152       199       202       204       152       199       202       205
       153       152       199       200       153       152       199       201
       153       152       199       202       154       152       199       200
       154       152       199       201       154       152       199       202
       155       158       161       162       155       158       161       163
       155       158       161       164       156       155       158       159
       156       155       158       160       156       155       158       161
       157       155       158       159       157       155       158       160
       157       155       158       161       158       161       164       165
       158       161       164       166       158       161       164       167
       159       158       161       162       159       158       161       163
       159       158       161       164       160       158       161       162
       160       158       161       163       160       158       161       164
       161       164       167       168       161       164       167       169
       161       164       167       170       162       161       164       165
       162       161       164       166       162       161       164       167
       163       161       164       165       163       161       164       166
       163       161       164       167       164       167       170       171
       164       167       170       172       164       167       170       173
       165       164       167       168       165       164       167       169
       165       164       167       170       166       164       167       168
       166       164       167       169       166       164       167       170
       167       170       173       174       167       170       173       175
       167       170       173       178       168       167       170       171
       168       167       170       172       168       167       170       173
       169       167       170       171       169       167       170       172
       169       167       170       173       170       173       175       176
       170       173       175       177       170       173       175       178
       170       173       178       175       170       173       178       179
       170       173       178       180       171       170       173       174
       171       170       173       175       171       170       173       178
       172       170       173       174       172       170       173       175
       172       170       173       178       173       175       178       179
       173       175       178       180       173       178       175       176
       173       178       175       177       173       178       180       181
       173       178       180       182       173       178       180       183
       174       173       175       176       174       173       175       177
       174       173       175       178       174       173       178       175
       174       173       178       179       174       173       178       180
       175       173       178       179       175       173       178       180
       175       178       180       181       175       178       180       182
       175       178       180       183       176       175       173       178
       176       175       178       179       176       175       178       180
       177       175       173       178       177       175       178       179
       177       175       178       180       178       180       183       184
       178       180       183       185       178       180       183       186
       179       178       180       181       179       178       180       182
       179       178       180       183       180       183       186       187
       180       183       186       188       180       183       186       189
       181       180       183       184       181       180       183       185
       181       180       183       186       182       180       183       184
       182       180       183       185       182       180       183       186
       183       186       189       190       183       186       189       191
       183       186       189       192       184       183       186       187
       184       183       186       188       184       183       186       189
       185       183       186       187       185       183       186       188
       185       183       186       189       186       189       192       193
       186       189       192       194       186       189       192       195
       187       186       189       190       187       186       189       191
       187       186       189       192       188       186       189       190
       188       186       189       191       188       186       189       192
       189       192       195       196       189       192       195       197
       189       192       195       198       190       189       192       193
       190       189       192       194       190       189       192       195
       191       189       192       193       191       189       192       194
       191       189       192       195       193       192       195       196
       193       192       195       197       193       192       195       198
       194       192       195       196       194       192       195       197
       194       192       195       198       199       202       205       206
       199       202       205       207       199       202       205       208
       200       199       202       203       200       199       202       204
       200       199       202       205       201       199       202       203
       201       199       202       204       201       199       202       205
       202       205       208       209       202       205       208       210
       202       205       208       211       203       202       205       206
       203       202       205       207       203       202       205       208
       204       202       205       206       204       202       205       207
       204       202       205       208       205       208       211       212
       205       208       211       213       205       208       211       214
       206       205       208       209       206       205       208       210
       206       205       208       211       207       205       208       209
       207       205       208       210       207       205       208       211
       208       211       214       215       208       211       214       216
       208       211       214       217       209       208       211       212
       209       208       211       213       209       208       211       214
       210       208       211       212       210       208       211       213
       210       208       211       214       211       214       217       218
       211       214       217       219       211       214       217       220
       212       211       214       215       212       211       214       216
       212       211       214       217       213       211       214       215
       213       211       214       216       213       211       214       217
       214       217       220       221       214       217       220       222
       214       217       220       223       215       214       217       218
       215       214       217       219       215       214       217       220
       216       214       217       218       216       214       217       219
       216       214       217       220       217       220       223       224
       217       220       223       225       217       220       223       226
       218       217       220       221       218       217       220       222
       218       217       220       223       219       217       220       221
       219       217       220       222       219       217       220       223
       220       223       226       227       220       223       226       228
       220       223       226       229       221       220       223       224
       221       220       223       225       221       220       223       226
       222       220       223       224       222       220       223       225
       222       220       223       226       223       226       229       230
       223       226       229       231       223       226       229       232
       224       223       226       227       224       223       226       228
       224       223       226       229       225       223       226       227
       225       223       226       228       225       223       226       229
       226       229       232       233       226       229       232       234
       226       229       232       235       227       226       229       230
       227       226       229       231       227       226       229       232
       228       226       229       230       228       226       229       231
       228       226       229       232       229       232       235       236
       229       232       235       237       229       232       235       238
       230       229       232       233       230       229       232       234
       230       229       232       235       231       229       232       233
       231       229       232       234       231       229       232       235
       232       235       238       239       232       235       238       240
       232       235       238       241       233       232       235       236
       233       232       235       237       233       232       235       238
       234       232       235       236       234       232       235       237
       234       232       235       238       236       235       238       239
       236       235       238       240       236       235       238       241
       237       235       238       239       237       235       238       240
       237       235       238       241       242       247       249       250
       242       247       251       252       242       247       251       253
       242       247       251       258       243       242       245       246
       243       242       247       248       243       242       247       249
       243       242       247       251       244       242       245       246
       244       242       247       248       244       242       247       249
       244       242       247       251       245       242       247       248
       245       242       247       249       245       242       247       251
       246       245       242       247       247       251       258       254
       248       247       249       250       248       247       251       252
       248       247       251       253       248       247       251       258
       249       247       251       252       249       247       251       253
       249       247       251       258       250       249       247       251
       251       258       254       255       251       258       254       256
       251       258       254       257       252       251       258       254
       253       251       258       254       254       257       259       260
       254       257       259       261       254       257       259       262
       255       254       257       259       256       254       257       259
       257       259       262       263       257       259       262       264
       257       259       262       270       258       254       257       259
       259       262       264       265       259       262       270       271
       259       262       270       272       259       262       270       273
       260       259       262       263       260       259       262       264
       260       259       262       270       261       259       262       263
       261       259       262       264       261       259       262       270
       262       264       265       266       262       264       265       267
       262       270       273       274       263       262       264       265
       263       262       270       271       263       262       270       272
       263       262       270       273       264       262       270       271
       264       262       270       272       264       262       270       273
       264       265       267       268       264       265       267       269
       264       265       267       279       265       264       262       270
       265       267       279       280       265       267       279       281
       265       267       279       282       266       265       267       268
       266       265       267       269       266       265       267       279
       267       279       282       283       267       279       282       284
       267       279       282       285       268       267       279       280
       268       267       279       281       268       267       279       282
       269       267       279       280       269       267       279       281
       269       267       279       282       270       273       274       275
       270       273       274       276       271       270       273       274
       272       270       273       274       273       274       276       277
       273       274       276       278       273       274       276       320
       274       276       320       321       274       276       320       322
       274       276       320       323       275       274       276       277
       275       274       276       278       275       274       276       320
       276       320       323       324       276       320       323       325
       276       320       323       326       277       276       320       321
       277       276       320       322       277       276       320       323
       278       276       320       321       278       276       320       322
       278       276       320       323       279       282       285       286
       279       282       285       287       279       282       285       288
       280       279       282       283       280       279       282       284
       280       279       282       285       281       279       282       283
       281       279       282       284       281       279       282       285
       282       285       288       289       282       285       288       290
       282       285       288       291       283       282       285       286
       283       282       285       287       283       282       285       288
       284       282       285       286       284       282       285       287
       284       282       285       288       285       288       291       292
       285       288       291       293       285       288       291       294
       286       285       288       289       286       285       288       290
       286       285       288       291       287       285       288       289
       287       285       288       290       287       285       288       291
       288       291       294       295       288       291       294       296
       288       291       294       297       289       288       291       292
       289       288       291       293       289       288       291       294
       290       288       291       292       290       288       291       293
       290       288       291       294       291       294       297       298
       291       294       297       299       292       291       294       295
       292       291       294       296       292       291       294       297
       293       291       294       295       293       291       294       296
       293       291       294       297       294       297       299       300
       294       297       299       301       295       294       297       298
       295       294       297       299       296       294       297       298
       296       294       297       299       297       299       301       302
       297       299       301       303       297       299       301       304
       298       297       299       300       298       297       299       301
       299       301       304       305       299       301       304       306
       299       301       304       307       300       299       301       302
       300       299       301       303       300       299       301       304
       301       304       307       308       301       304       307       309
       301       304       307       310       302       301       304       305
       302       301       304       306       302       301       304       307
       303       301       304       305       303       301       304       306
       303       301       304       307       304       307       310       311
       304       307       310       312       304       307       310       313
       305       304       307       308       305       304       307       309
       305       304       307       310       306       304       307       308
       306       304       307       309       306       304       307       310
       307       310       313       314       307       310       313       315
       307       310       313       316       308       307       310       311
       308       307       310       312       308       307       310       313
       309       307       310       311       309       307       310       312
       309       307       310       313       310       313       316       317
       310       313       316       318       310       313       316       319
       311       310       313       314       311       310       313       315
       311       310       313       316       312       310       313       314
       312       310       313       315       312       310       313       316
       314       313       316       317       314       313       316       318
       314       313       316       319       315       313       316       317
       315       313       316       318       315       313       316       319
       320       323       326       327       320       323       326       328
       320       323       326       329       321       320       323       324
       321       320       323       325       321       320       323       326
       322       320       323       324       322       320       323       325
       322       320       323       326       323       326       329       330
       323       326       329       331       323       326       329       332
       324       323       326       327       324       323       326       328
       324       323       326       329       325       323       326       327
       325       323       326       328       325       323       326       329
       326       329       332       333       326       329       332       334
       326       329       332       335       327       326       329       330
       327       326       329       331       327       326       329       332
       328       326       329       330       328       326       329       331
       328       326       329       332       329       332       335       336
       329       332       335       337       329       332       335       338
       330       329       332       333       330       329       332       334
       330       329       332       335       331       329       332       333
       331       329       332       334       331       329       332       335
       332       335       338       339       332       335       338       340
       332       335       338       341       333       332       335       336
       333       332       335       337       333       332       335       338
       334       332       335       336       334       332       335       337
       334       332       335       338       335       338       341       342
       335       338       341       343       335       338       341       344
       336       335       338       339       336       335       338       340
       336       335       338       341       337       335       338       339
       337       335       338       340       337       335       338       341
       338       341       344       345       338       341       344       346
       338       341       344       347       339       338       341       342
       339       338       341       343       339       338       341       344
       340       338       341       342       340       338       341       343
       340       338       341       344       341       344       347       348
       341       344       347       349       341       344       347       350
       342       341       344       345       342       341       344       346
       342       341       344       347       343       341       344       345
       343       341       344       346       343       341       344       347
       344       347       350       351       344       347       350       352
       344       347       350       353       345       344       347       348
       345       344       347       349       345       344       347       350
       346       344       347       348       346       344       347       349
       346       344       347       350       347       350       353       354
       347       350       353       355       347       350       353       356
       348       347       350       351       348       347       350       352
       348       347       350       353       349       347       350       351
       349       347       350       352       349       347       350       353
       350       353       356       357       350       353       356       358
       350       353       356       359       351       350       353       354
       351       350       353       355       351       350       353       356
       352       350       353       354       352       350       353       355
       352       350       353       356       353       356       359       360
       353       356       359       361       353       356       359       362
       354       353       356       357       354       353       356       358
       354       353       356       359       355       353       356       357
       355       353       356       358       355       353       356       359
       357       356       359       360       357       356       359       361
       357       356       359       362       358       356       359       360
       358       356       359       361       358       356       359       362
       363       368       370       371       363       368       372       373
       363       368       372       374       363       368       372       379
       364       363       366       367       364       363       368       369
       364       363       368       370       364       363       368       372
       365       363       366       367       365       363       368       369
       365       363       368       370       365       363       368       372
       366       363       368       369       366       363       368       370
       366       363       368       372       367       366       363       368
       368       372       379       375       369       368       370       371
       369       368       372       373       369       368       372       374
       369       368       372       379       370       368       372       373
       370       368       372       374       370       368       372       379
       371       370       368       372       372       379       375       376
       372       379       375       377       372       379       375       378
       373       372       379       375       374       372       379       375
       375       378       380       381       375       378       380       382
       375       378       380       383       376       375       378       380
       377       375       378       380       378       380       383       384
       378       380       383       385       378       380       383       391
       379       375       378       380       380       383       385       386
       380       383       391       392       380       383       391       393
       380       383       391       394       381       380       383       384
       381       380       383       385       381       380       383       391
       382       380       383       384       382       380       383       385
       382       380       383       391       383       385       386       387
       383       385       386       388       383       391       394       395
       384       383       385       386       384       383       391       392
       384       383       391       393       384       383       391       394
       385       383       391       392       385       383       391       393
       385       383       391       394       385       386       388       389
       385       386       388       390       385       386       388       400
       386       385       383       391       386       388       400       401
       386       388       400       402       386       388       400       403
       387       386       388       389       387       386       388       390
       387       386       388       400       388       400       403       404
       388       400       403       405       388       400       403       406
       389       388       400       401       389       388       400       402
       389       388       400       403       390       388       400       401
       390       388       400       402       390       388       400       403
       391       394       395       396       391       394       395       397
       392       391       394       395       393       391       394       395
       394       395       397       398       394       395       397       399
       394       395       397       444       395       397       444       445
       395       397       444       446       395       397       444       447
       396       395       397       398       396       395       397       399
       396       395       397       444       397       444       447       448
       397       444       447       449       397       444       447       450
       398       397       444       445       398       397       444       446
       398       397       444       447       399       397       444       445
       399       397       444       446       399       397       444       447
       400       403       406       407       400       403       406       408
       400       403       406       409       401       400       403       404
       401       400       403       405       401       400       403       406
       402       400       403       404       402       400       403       405
       402       400       403       406       403       406       409       410
       403       406       409       411       403       406       409       412
       404       403       406       407       404       403       406       408
       404       403       406       409       405       403       406       407
       405       403       406       408       405       403       406       409
       406       409       412       413       406       409       412       414
       406       409       412       415       407       406       409       410
       407       406       409       411       407       406       409       412
       408       406       409       410       408       406       409       411
       408       406       409       412       409       412       415       416
       409       412       415       417       409       412       415       418
       410       409       412       413       410       409       412       414
       410       409       412       415       411       409       412       413
       411       409       412       414       411       409       412       415
       412       415       418       419       412       415       418       420
       412       415       418       423       413       412       415       416
       413       412       415       417       413       412       415       418
       414       412       415       416       414       412       415       417
       414       412       415       418       415       418       420       421
       415       418       420       422       415       418       420       423
       415       418       423       420       415       418       423       424
       415       418       423       425       416       415       418       419
       416       415       418       420       416       415       418       423
       417       415       418       419       417       415       418       420
       417       415       418       423       418       420       423       424
       418       420       423       425       418       423       420       421
       418       423       420       422       418       423       425       426
       418       423       425       427       418       423       425       428
       419       418       420       421       419       418       420       422
       419       418       420       423       419       418       423       420
       419       418       423       424       419       418       423       425
       420       418       423       424       420       418       423       425
       420       423       425       426       420       423       425       427
       420       423       425       428       421       420       418       423
       421       420       423       424       421       420       423       425
       422       420       418       423       422       420       423       424
       422       420       423       425       423       425       428       429
       423       425       428       430       423       425       428       431
       424       423       425       426       424       423       425       427
       424       423       425       428       425       428       431       432
       425       428       431       433       425       428       431       434
       426       425       428       429       426       425       428       430
       426       425       428       431       427       425       428       429
       427       425       428       430       427       425       428       431
       428       431       434       435       428       431       434       436
       428       431       434       437       429       428       431       432
       429       428       431       433       429       428       431       434
       430       428       431       432       430       428       431       433
       430       428       431       434       431       434       437       438
       431       434       437       439       431       434       437       440
       432       431       434       435       432       431       434       436
       432       431       434       437       433       431       434       435
       433       431       434       436       433       431       434       437
       434       437       440       441       434       437       440       442
       434       437       440       443       435       434       437       438
       435       434       437       439       435       434       437       440
       436       434       437       438       436       434       437       439
       436       434       437       440       438       437       440       441
       438       437       440       442       438       437       440       443
       439       437       440       441       439       437       440       442
       439       437       440       443       444       447       450       451
       444       447       450       452       444       447       450       453
       445       444       447       448       445       444       447       449
       445       444       447       450       446       444       447       448
       446       444       447       449       446       444       447       450
       447       450       453       454       447       450       453       455
       447       450       453       456       448       447       450       451
       448       447       450       452       448       447       450       453
       449       447       450       451       449       447       450       452
       449       447       450       453       450       453       456       457
       450       453       456       458       450       453       456       459
       451       450       453       454       451       450       453       455
       451       450       453       456       452       450       453       454
       452       450       453       455       452       450       453       456
       453       456       459       460       453       456       459       461
       453       456       459       462       454       453       456       457
       454       453       456       458       454       453       456       459
       455       453       456       457       455       453       456       458
       455       453       456       459       456       459       462       463
       456       459       462       464       456       459       462       465
       457       456       459       460       457       456       459       461
       457       456       459       462       458       456       459       460
       458       456       459       461       458       456       459       462
       459       462       465       466       459       462       465       467
       459       462       465       468       460       459       462       463
       460       459       462       464       460       459       462       465
       461       459       462       463       461       459       462       464
       461       459       462       465       462       465       468       469
       462       465       468       470       462       465       468       471
       463       462       465       466       463       462       465       467
       463       462       465       468       464       462       465       466
       464       462       465       467       464       462       465       468
       465       468       471       472       465       468       471       473
       465       468       471       474       466       465       468       469
       466       465       468       470       466       465       468       471
       467       465       468       469       467       465       468       470
       467       465       468       471       468       471       474       475
       468       471       474       476       468       471       474       477
       469       468       471       472       469       468       471       473
       469       468       471       474       470       468       471       472
       470       468       471       473       470       468       471       474
       471       474       477       478       471       474       477       479
       471       474       477       480       472       471       474       475
       472       471       474       476       472       471       474       477
       473       471       474       475       473       471       474       476
       473       471       474       477       474       477       480       481
       474       477       480       482       474       477       480       483
       475       474       477       478       475       474       477       479
       475       474       477       480       476       474       477       478
       476       474       477       479       476       474       477       480
       477       480       483       484       477       480       483       485
       477       480       483       486       478       477       480       481
       478       477       480       482       478       477       480       483
       479       477       480       481       479       477       480       482
       479       477       480       483       481       480       483       484
       481       480       483       485       481       480       483       486
       482       480       483       484       482       480       483       485
       482       480       483       486       487       491       494       495
       487       491       494       496       487       491       494       501
       488       487       491       492       488       487       491       493
       488       487       491       494       489       487       491       492
       489       487       491       493       489       487       491       494
       490       487       491       492       490       487       491       493
       490       487       491       494       491       494       501       497
       492       491       494       495       492       491       494       496
       492       491       494       501       493       491       494       495
       493       491       494       496       493       491       494       501
       494       501       497       498       494       501       497       499
       494       501       497       500       495       494       501       497
       496       494       501       497       497       500       502       503
       497       500       502       504       497       500       502       505
       498       497       500       502       499       497       500       502
       500       502       505       506       500       502       505       507
       500       502       505       513       501       497       500       502
       502       505       507       508       502       505       513       514
       502       505       513       515       502       505       513       516
       503       502       505       506       503       502       505       507
       503       502       505       513       504       502       505       506
       504       502       505       507       504       502       505       513
       505       507       508       509       505       507       508       510
       505       513       516       517       506       505       507       508
       506       505       513       514       506       505       513       515
       506       505       513       516       507       505       513       514
       507       505       513       515       507       505       513       516
       507       508       510       511       507       508       510       512
       507       508       510       522       508       507       505       513
       508       510       522       523       508       510       522       524
       508       510       522       525       509       508       510       511
       509       508       510       512       509       508       510       522
       510       522       525       526       510       522       525       527
       510       522       525       528       511       510       522       523
       511       510       522       524       511       510       522       525
       512       510       522       523       512       510       522       524
       512       510       522       525       513       516       517       518
       513       516       517       519       514       513       516       517
       515       513       516       517       516       517       519       520
       516       517       519       521       516       517       519       566
       517       519       566       567       517       519       566       568
       517       519       566       569       518       517       519       520
       518       517       519       521       518       517       519       566
       519       566       569       570       519       566       569       571
       519       566       569       572       520       519       566       567
       520       519       566       568       520       519       566       569
       521       519       566       567       521       519       566       568
       521       519       566       569       522       525       528       529
       522       525       528       530       522       525       528       531
       523       522       525       526       523       522       525       527
       523       522       525       528       524       522       525       526
       524       522       525       527       524       522       525       528
       525       528       531       532       525       528       531       533
       525       528       531       534       526       525       528       529
       526       525       528       530       526       525       528       531
       527       525       528       529       527       525       528       530
       527       525       528       531       528       531       534       535
       528       531       534       536       528       531       534       537
       529       528       531       532       529       528       531       533
       529       528       531       534       530       528       531       532
       530       528       531       533       530       528       531       534
       531       534       537       538       531       534       537       539
       531       534       537       540       532       531       534       535
       532       531       534       536       532       531       534       537
       533       531       534       535       533       531       534       536
       533       531       534       537       534       537       540       541
       534       537       540       542       534       537       540       545
       535       534       537       538       535       534       537       539
       535       534       537       540       536       534       537       538
       536       534       537       539       536       534       537       540
       537       540       542       543       537       540       542       544
       537       540       542       545       537       540       545       542
       537       540       545       546       537       540       545       547
       538       537       540       541       538       537       540       542
       538       537       540       545       539       537       540       541
       539       537       540       542       539       537       540       545
       540       542       545       546       540       542       545       547
       540       545       542       543       540       545       542       544
       540       545       547       548       540       545       547       549
       540       545       547       550       541       540       542       543
       541       540       542       544       541       540       542       545
       541       540       545       542       541       540       545       546
       541       540       545       547       542       540       545       546
       542       540       545       547       542       545       547       548
       542       545       547       549       542       545       547       550
       543       542       540       545       543       542       545       546
       543       542       545       547       544       542       540       545
       544       542       545       546       544       542       545       547
       545       547       550       551       545       547       550       552
       545       547       550       553       546       545       547       548
       546       545       547       549       546       545       547       550
       547       550       553       554       547       550       553       555
       547       550       553       556       548       547       550       551
       548       547       550       552       548       547       550       553
       549       547       550       551       549       547       550       552
       549       547       550       553       550       553       556       557
       550       553       556       558       550       553       556       559
       551       550       553       554       551       550       553       555
       551       550       553       556       552       550       553       554
       552       550       553       555       552       550       553       556
       553       556       559       560       553       556       559       561
       553       556       559       562       554       553       556       557
       554       553       556       558       554       553       556       559
       555       553       556       557       555       553       556       558
       555       553       556       559       556       559       562       563
       556       559       562       564       556       559       562       565
       557       556       559       560       557       556       559       561
       557       556       559       562       558       556       559       560
       558       556       559       561       558       556       559       562
       560       559       562       563       560       559       562       564
       560       559       562       565       561       559       562       563
       561       559       562       564       561       559       562       565
       566       569       572       573       566       569       572       574
       566       569       572       575       567       566       569       570
       567       566       569       571       567       566       569       572
       568       566       569       570       568       566       569       571
       568       566       569       572       569       572       575       576
       569       572       575       577       569       572       575       578
       570       569       572       573       570       569       572       574
       570       569       572       575       571       569       572       573
       571       569       572       574       571       569       572       575
       572       575       578       579       572       575       578       580
       572       575       578       581       573       572       575       576
       573       572       575       577       573       572       575       578
       574       572       575       576       574       572       575       577
       574       572       575       578       575       578       581       582
       575       578       581       583       575       578       581       584
       576       575       578       579       576       575       578       580
       576       575       578       581       577       575       578       579
       577       575       578       580       577       575       578       581
       578       581       584       585       578       581       584       586
       578       581       584       587       579       578       581       582
       579       578       581       583       579       578       581       584
       580       578       581       582       580       578       581       583
       580       578       581       584       581       584       587       588
       581       584       587       589       581       584       587       590
       582       581       584       585       582       581       584       586
       582       581       584       587       583       581       584       585
       583       581       584       586       583       581       584       587
       584       587       590       591       584       587       590       592
       584       587       590       593       585       584       587       588
       585       584       587       589       585       584       587       590
       586       584       587       588       586       584       587       589
       586       584       587       590       587       590       593       594
       587       590       593       595       587       590       593       596
       588       587       590       591       588       587       590       592
       588       587       590       593       589       587       590       591
       589       587       590       592       589       587       590       593
       590       593       596       597       590       593       596       598
       590       593       596       599       591       590       593       594
       591       590       593       595       591       590       593       596
       592       590       593       594       592       590       593       595
       592       590       593       596       593       596       599       600
       593       596       599       601       593       596       599       602
       594       593       596       597       594       593       596       598
       594       593       596       599       595       593       596       597
       595       593       596       598       595       593       596       599
       596       599       602       603       596       599       602       604
       596       599       602       605       597       596       599       600
       597       596       599       601       597       596       599       602
       598       596       599       600       598       596       599       601
       598       596       599       602       600       599       602       603
       600       599       602       604       600       599       602       605
       601       599       602       603       601       599       602       604
       601       599       602       605       606       610       613       614
       606       610       613       615       606       610       613       620
       607       606       610       611       607       606       610       612
       607       606       610       613       608       606       610       611
       608       606       610       612       608       606       610       613
       609       606       610       611       609       606       610       612
       609       606       610       613       610       613       620       616
       611       610       613       614       611       610       613       615
       611       610       613       620       612       610       613       614
       612       610       613       615       612       610       613       620
       613       620       616       617       613       620       616       618
       613       620       616       619       614       613       620       616
       615       613       620       616       616       619       621       622
       616       619       621       623       616       619       621       624
       617       616       619       621       618       616       619       621
       619       621       624       625       619       621       624       626
       619       621       624       632       620       616       619       621
       621       624       626       627       621       624       632       633
       621       624       632       634       621       624       632       635
       622       621       624       625       622       621       624       626
       622       621       624       632       623       621       624       625
       623       621       624       626       623       621       624       632
       624       626       627       628       624       626       627       629
       624       632       635       636       625       624       626       627
       625       624       632       633       625       624       632       634
       625       624       632       635       626       624       632       633
       626       624       632       634       626       624       632       635
       626       627       629       630       626       627       629       631
       626       627       629       641       627       626       624       632
       627       629       641       642       627       629       641       643
       627       629       641       644       628       627       629       630
       628       627       629       631       628       627       629       641
       629       641       644       645       629       641       644       646
       629       641       644       647       630       629       641       642
       630       629       641       643       630       629       641       644
       631       629       641       642       631       629       641       643
       631       629       641       644       632       635       636       637
       632       635       636       638       633       632       635       636
       634       632       635       636       635       636       638       639
       635       636       638       640       635       636       638       685
       636       638       685       686       636       638       685       687
       636       638       685       688       637       636       638       639
       637       636       638       640       637       636       638       685
       638       685       688       689       638       685       688       690
       638       685       688       691       639       638       685       686
       639       638       685       687       639       638       685       688
       640       638       685       686       640       638       685       687
       640       638       685       688       641       644       647       648
       641       644       647       649       641       644       647       650
       642       641       644       645       642       641       644       646
       642       641       644       647       643       641       644       645
       643       641       644       646       643       641       644       647
       644       647       650       651       644       647       650       652
       644       647       650       653       645       644       647       648
       645       644       647       649       645       644       647       650
       646       644       647       648       646       644       647       649
       646       644       647       650       647       650       653       654
       647       650       653       655       647       650       653       656
       648       647       650       651       648       647       650       652
       648       647       650       653       649       647       650       651
       649       647       650       652       649       647       650       653
       650       653       656       657       650       653       656       658
       650       653       656       659       651       650       653       654
       651       650       653       655       651       650       653       656
       652       650       653       654       652       650       653       655
       652       650       653       656       653       656       659       660
       653       656       659       661       653       656       659       664
       654       653       656       657       654       653       656       658
       654       653       656       659       655       653       656       657
       655       653       656       658       655       653       656       659
       656       659       661       662       656       659       661       663
       656       659       661       664       656       659       664       661
       656       659       664       665       656       659       664       666
       657       656       659       660       657       656       659       661
       657       656       659       664       658       656       659       660
       658       656       659       661       658       656       659       664
       659       661       664       665       659       661       664       666
       659       664       661       662       659       664       661       663
       659       664       666       667       659       664       666       668
       659       664       666       669       660       659       661       662
       660       659       661       663       660       659       661       664
       660       659       664       661       660       659       664       665
       660       659       664       666       661       659       664       665
       661       659       664       666       661       664       666       667
       661       664       666       668       661       664       666       669
       662       661       659       664       662       661       664       665
       662       661       664       666       663       661       659       664
       663       661       664       665       663       661       664       666
       664       666       669       670       664       666       669       671
       664       666       669       672       665       664       666       667
       665       664       666       668       665       664       666       669
       666       669       672       673       666       669       672       674
       666       669       672       675       667       666       669       670
       667       666       669       671       667       666       669       672
       668       666       669       670       668       666       669       671
       668       666       669       672       669       672       675       676
       669       672       675       677       669       672       675       678
       670       669       672       673       670       669       672       674
       670       669       672       675       671       669       672       673
       671       669       672       674       671       669       672       675
       672       675       678       679       672       675       678       680
       672       675       678       681       673       672       675       676
       673       672       675       677       673       672       675       678
       674       672       675       676       674       672       675       677
       674       672       675       678       675       678       681       682
       675       678       681       683       675       678       681       684
       676       675       678       679       676       675       678       680
       676       675       678       681       677       675       678       679
       677       675       678       680       677       675       678       681
       679       678       681       682       679       678       681       683
       679       678       681       684       680       678       681       682
       680       678       681       683       680       678       681       684
       685       688       691       692       685       688       691       693
       685       688       691       694       686       685       688       689
       686       685       688       690       686       685       688       691
       687       685       688       689       687       685       688       690
       687       685       688       691       688       691       694       695
       688       691       694       696       688       691       694       697
       689       688       691       692       689       688       691       693
       689       688       691       694       690       688       691       692
       690       688       691       693       690       688       691       694
       691       694       697       698       691       694       697       699
       691       694       697       700       692       691       694       695
       692       691       694       696       692       691       694       697
       693       691       694       695       693       691       694       696
       693       691       694       697       694       697       700       701
       694       697       700       702       694       697       700       703
       695       694       697       698       695       694       697       699
       695       694       697       700       696       694       697       698
       696       694       697       699       696       694       697       700
       697       700       703       704       697       700       703       705
       697       700       703       706       698       697       700       701
       698       697       700       702       698       697       700       703
       699       697       700       701       699       697       700       702
       699       697       700       703       700       703       706       707
       700       703       706       708       700       703       706       709
       701       700       703       704       701       700       703       705
       701       700       703       706       702       700       703       704
       702       700       703       705       702       700       703       706
       703       706       709       710       703       706       709       711
       703       706       709       712       704       703       706       707
       704       703       706       708       704       703       706       709
       705       703       706       707       705       703       706       708
       705       703       706       709       706       709       712       713
       706       709       712       714       706       709       712       715
       707       706       709       710       707       706       709       711
       707       706       709       712       708       706       709       710
       708       706       709       711       708       706       709       712
       709       712       715       716       709       712       715       717
       709       712       715       718       710       709       712       713
       710       709       712       714       710       709       712       715
       711       709       712       713       711       709       712       714
       711       709       712       715       712       715       718       719
       712       715       718       720       712       715       718       721
       713       712       715       716       713       712       715       717
       713       712       715       718       714       712       715       716
       714       712       715       717       714       712       715       718
       715       718       721       722       715       718       721       723
       715       718       721       724       716       715       718       719
       716       715       718       720       716       715       718       721
       717       715       718       719       717       715       718       720
       717       715       718       721       718       721       724       725
       718       721       724       726       718       721       724       727
       719       718       721       722       719       718       721       723
       719       718       721       724       720       718       721       722
       720       718       721       723       720       718       721       724
       722       721       724       725       722       721       724       726
       722       721       724       727       723       721       724       725
       723       721       724       726       723       721       724       727
       728       733       735       736       728       733       737       738
       728       733       737       739       728       733       737       744
       729       728       731       732       729       728       733       734
       729       728       733       735       729       728       733       737
       730       728       731       732       730       728       733       734
       730       728       733       735       730       728       733       737
       731       728       733       734       731       728       733       735
       731       728       733       737       732       731       728       733
       733       737       744       740       734       733       735       736
       734       733       737       738       734       733       737       739
       734       733       737       744       735       733       737       738
       735       733       737       739       735       733       737       744
       736       735       733       737       737       744       740       741
       737       744       740       742       737       744       740       743
       738       737       744       740       739       737       744       740
       740       743       745       746       740       743       745       747
       740       743       745       748       741       740       743       745
       742       740       743       745       743       745       748       749
       743       745       748       750       743       745       748       756
       744       740       743       745       745       748       750       751
       745       748       756       757       745       748       756       758
       745       748       756       759       746       745       748       749
       746       745       748       750       746       745       748       756
       747       745       748       749       747       745       748       750
       747       745       748       756       748       750       751       752
       748       750       751       753       748       756       759       760
       749       748       750       751       749       748       756       757
       749       748       756       758       749       748       756       759
       750       748       756       757       750       748       756       758
       750       748       756       759       750       751       753       754
       750       751       753       755       750       751       753       765
       751       750       748       756       751       753       765       766
       751       753       765       767       751       753       765       768
       752       751       753       754       752       751       753       755
       752       751       753       765       753       765       768       769
       753       765       768       770       753       765       768       771
       754       753       765       766       754       753       765       767
       754       753       765       768       755       753       765       766
       755       753       765       767       755       753       765       768
       756       759       760       761       756       759       760       762
       757       756       759       760       758       756       759       760
       759       760       762       763       759       760       762       764
       759       760       762       809       760       762       809       810
       760       762       809       811       760       762       809       812
       761       760       762       763       761       760       762       764
       761       760       762       809       762       809       812       813
       762       809       812       814       762       809       812       815
       763       762       809       810       763       762       809       811
       763       762       809       812       764       762       809       810
       764       762       809       811       764       762       809       812
       765       768       771       772       765       768       771       773
       765       768       771       774       766       765       768       769
       766       765       768       770       766       765       768       771
       767       765       768       769       767       765       768       770
       767       765       768       771       768       771       774       775
       768       771       774       776       768       771       774       777
       769       768       771       772       769       768       771       773
       769       768       771       774       770       768       771       772
       770       768       771       773       770       768       771       774
       771       774       777       778       771       774       777       779
       771       774       777       780       772       771       774       775
       772       771       774       776       772       771       774       777
       773       771       774       775       773       771       774       776
       773       771       774       777       774       777       780       781
       774       777       780       782       774       777       780       783
       775       774       777       778       775       774       777       779
       775       774       777       780       776       774       777       778
       776       774       777       779       776       774       777       780
       777       780       783       784       777       780       783       785
       777       780       783       788       778       777       780       781
       778       777       780       782       778       777       780       783
       779       777       780       781       779       777       780       782
       779       777       780       783       780       783       785       786
       780       783       785       787       780       783       785       788
       780       783       788       785       780       783       788       789
       780       783       788       790       781       780       783       784
       781       780       783       785       781       780       783       788
       782       780       783       784       782       780       783       785
       782       780       783       788       783       785       788       789
       783       785       788       790       783       788       785       786
       783       788       785       787       783       788       790       791
       783       788       790       792       783       788       790       793
       784       783       785       786       784       783       785       787
       784       783       785       788       784       783       788       785
       784       783       788       789       784       783       788       790
       785       783       788       789       785       783       788       790
       785       788       790       791       785       788       790       792
       785       788       790       793       786       785       783       788
       786       785       788       789       786       785       788       790
       787       785       783       788       787       785       788       789
       787       785       788       790       788       790       793       794
       788       790       793       795       788       790       793       796
       789       788       790       791       789       788       790       792
       789       788       790       793       790       793       796       797
       790       793       796       798       790       793       796       799
       791       790       793       794       791       790       793       795
       791       790       793       796       792       790       793       794
       792       790       793       795       792       790       793       796
       793       796       799       800       793       796       799       801
       793       796       799       802       794       793       796       797
       794       793       796       798       794       793       796       799
       795       793       796       797       795       793       796       798
       795       793       796       799       796       799       802       803
       796       799       802       804       796       799       802       805
       797       796       799       800       797       796       799       801
       797       796       799       802       798       796       799       800
       798       796       799       801       798       796       799       802
       799       802       805       806       799       802       805       807
       799       802       805       808       800       799       802       803
       800       799       802       804       800       799       802       805
       801       799       802       803       801       799       802       804
       801       799       802       805       803       802       805       806
       803       802       805       807       803       802       805       808
       804       802       805       806       804       802       805       807
       804       802       805       808       809       812       815       816
       809       812       815       817       809       812       815       818
       810       809       812       813       810       809       812       814
       810       809       812       815       811       809       812       813
       811       809       812       814       811       809       812       815
       812       815       818       819       812       815       818       820
       812       815       818       821       813       812       815       816
       813       812       815       817       813       812       815       818
       814       812       815       816       814       812       815       817
       814       812       815       818       815       818       821       822
       815       818       821       823       815       818       821       824
       816       815       818       819       816       815       818       820
       816       815       818       821       817       815       818       819
       817       815       818       820       817       815       818       821
       818       821       824       825       818       821       824       826
       818       821       824       827       819       818       821       822
       819       818       821       823       819       818       821       824
       820       818       821       822       820       818       821       823
       820       818       821       824       821       824       827       828
       821       824       827       829       821       824       827       830
       822       821       824       825       822       821       824       826
       822       821       824       827       823       821       824       825
       823       821       824       826       823       821       824       827
       824       827       830       831       824       827       830       832
       824       827       830       833       825       824       827       828
       825       824       827       829       825       824       827       830
       826       824       827       828       826       824       827       829
       826       824       827       830       827       830       833       834
       827       830       833       835       827       830       833       836
       828       827       830       831       828       827       830       832
       828       827       830       833       829       827       830       831
       829       827       830       832       829       827       830       833
       830       833       836       837       830       833       836       838
       830       833       836       839       831       830       833       834
       831       830       833       835       831       830       833       836
       832       830       833       834       832       830       833       835
       832       830       833       836       833       836       839       840
       833       836       839       841       833       836       839       842
       834       833       836       837       834       833       836       838
       834       833       836       839       835       833       836       837
       835       833       836       838       835       833       836       839
       836       839       842       843       836       839       842       844
       836       839       842       845       837       836       839       840
       837       836       839       841       837       836       839       842
       838       836       839       840       838       836       839       841
       838       836       839       842       839       842       845       846
       839       842       845       847       839       842       845       848
       840       839       842       843       840       839       842       844
       840       839       842       845       841       839       842       843
       841       839       842       844       841       839       842       845
       842       845       848       849       842       845       848       850
       842       845       848       851       843       842       845       846
       843       842       845       847       843       842       845       848
       844       842       845       846       844       842       845       847
       844       842       845       848       846       845       848       849
       846       845       848       850       846       845       848       851
       847       845       848       849       847       845       848       850
       847       845       848       851       852       857       859       860
       852       857       861       862       852       857       861       863
       852       857       861       868       853       852       855       856
       853       852       857       858       853       852       857       859
       853       852       857       861       854       852       855       856
       854       852       857       858       854       852       857       859
       854       852       857       861       855       852       857       858
       855       852       857       859       855       852       857       861
       856       855       852       857       857       861       868       864
       858       857       859       860       858       857       861       862
       858       857       861       863       858       857       861       868
       859       857       861       862       859       857       861       863
       859       857       861       868       860       859       857       861
       861       868       864       865       861       868       864       866
       861       868       864       867       862       861       868       864
       863       861       868       864       864       867       869       870
       864       867       869       871       864       867       869       872
       865       864       867       869       866       864       867       869
       867       869       872       873       867       869       872       874
       867       869       872       880       868       864       867       869
       869       872       874       875       869       872       880       881
       869       872       880       882       869       872       880       883
       870       869       872       873       870       869       872       874
       870       869       872       880       871       869       872       873
       871       869       872       874       871       869       872       880
       872       874       875       876       872       874       875       877
       872       880       883       884       873       872       874       875
       873       872       880       881       873       872       880       882
       873       872       880       883       874       872       880       881
       874       872       880       882       874       872       880       883
       874       875       877       878       874       875       877       879
       874       875       877       889       875       874       872       880
       875       877       889       890       875       877       889       891
       875       877       889       892       876       875       877       878
       876       875       877       879       876       875       877       889
       877       889       892       893       877       889       892       894
       877       889       892       895       878       877       889       890
       878       877       889       891       878       877       889       892
       879       877       889       890       879       877       889       891
       879       877       889       892       880       883       884       885
       880       883       884       886       881       880       883       884
       882       880       883       884       883       884       886       887
       883       884       886       888       883       884       886       930
       884       886       930       931       884       886       930       932
       884       886       930       933       885       884       886       887
       885       884       886       888       885       884       886       930
       886       930       933       934       886       930       933       935
       886       930       933       936       887       886       930       931
       887       886       930       932       887       886       930       933
       888       886       930       931       888       886       930       932
       888       886       930       933       889       892       895       896
       889       892       895       897       889       892       895       898
       890       889       892       893       890       889       892       894
       890       889       892       895       891       889       892       893
       891       889       892       894       891       889       892       895
       892       895       898       899       892       895       898       900
       892       895       898       901       893       892       895       896
       893       892       895       897       893       892       895       898
       894       892       895       896       894       892       895       897
       894       892       895       898       895       898       901       902
       895       898       901       903       895       898       901       904
       896       895       898       899       896       895       898       900
       896       895       898       901       897       895       898       899
       897       895       898       900       897       895       898       901
       898       901       904       905       898       901       904       906
       898       901       904       907       899       898       901       902
       899       898       901       903       899       898       901       904
       900       898       901       902       900       898       901       903
       900       898       901       904       901       904       907       908
       901       904       907       909       902       901       904       905
       902       901       904       906       902       901       904       907
       903       901       904       905       903       901       904       906
       903       901       904       907       904       907       909       910
       904       907       909       911       905       904       907       908
       905       904       907       909       906       904       907       908
       906       904       907       909       907       909       911       912
       907       909       911       913       907       909       911       914
       908       907       909       910       908       907       909       911
       909       911       914       915       909       911       914       916
       909       911       914       917       910       909       911       912
       910       909       911       913       910       909       911       914
       911       914       917       918       911       914       917       919
       911       914       917       920       912       911       914       915
       912       911       914       916       912       911       914       917
       913       911       914       915       913       911       914       916
       913       911       914       917       914       917       920       921
       914       917       920       922       914       917       920       923
       915       914       917       918       915       914       917       919
       915       914       917       920       916       914       917       918
       916       914       917       919       916       914       917       920
       917       920       923       924       917       920       923       925
       917       920       923       926       918       917       920       921
       918       917       920       922       918       917       920       923
       919       917       920       921       919       917       920       922
       919       917       920       923       920       923       926       927
       920       923       926       928       920       923       926       929
       921       920       923       924       921       920       923       925
       921       920       923       926       922       920       923       924
       922       920       923       925       922       920       923       926
       924       923       926       927       924       923       926       928
       924       923       926       929       925       923       926       927
       925       923       926       928       925       923       926       929
       930       933       936       937       930       933       936       938
       930       933       936       939       931       930       933       934
       931       930       933       935       931       930       933       936
       932       930       933       934       932       930       933       935
       932       930       933       936       933       936       939       940
       933       936       939       941       933       936       939       942
       934       933       936       937       934       933       936       938
       934       933       936       939       935       933       936       937
       935       933       936       938       935       933       936       939
       936       939       942       943       936       939       942       944
       936       939       942       945       937       936       939       940
       937       936       939       941       937       936       939       942
       938       936       939       940       938       936       939       941
       938       936       939       942       939       942       945       946
       939       942       945       947       939       942       945       948
       940       939       942       943       940       939       942       944
       940       939       942       945       941       939       942       943
       941       939       942       944       941       939       942       945
       942       945       948       949       942       945       948       950
       942       945       948       951       943       942       945       946
       943       942       945       947       943       942       945       948
       944       942       945       946       944       942       945       947
       944       942       945       948       945       948       951       952
       945       948       951       953       945       948       951       954
       946       945       948       949       946       945       948       950
       946       945       948       951       947       945       948       949
       947       945       948       950       947       945       948       951
       948       951       954       955       948       951       954       956
       948       951       954       957       949       948       951       952
       949       948       951       953       949       948       951       954
       950       948       951       952       950       948       951       953
       950       948       951       954       951       954       957       958
       951       954       957       959       951       954       957       960
       952       951       954       955       952       951       954       956
       952       951       954       957       953       951       954       955
       953       951       954       956       953       951       954       957
       954       957       960       961       954       957       960       962
       954       957       960       963       955       954       957       958
       955       954       957       959       955       954       957       960
       956       954       957       958       956       954       957       959
       956       954       957       960       957       960       963       964
       957       960       963       965       957       960       963       966
       958       957       960       961       958       957       960       962
       958       957       960       963       959       957       960       961
       959       957       960       962       959       957       960       963
       960       963       966       967       960       963       966       968
       960       963       966       969       961       960       963       964
       961       960       963       965       961       960       963       966
       962       960       963       964       962       960       963       965
       962       960       963       966       963       966       969       970
       963       966       969       971       963       966       969       972
       964       963       966       967       964       963       966       968
       964       963       966       969       965       963       966       967
       965       963       966       968       965       963       966       969
       967       966       969       970       967       966       969       971
       967       966       969       972       968       966       969       970
       968       966       969       971       968       966       969       972
       973       977       980       981       973       977       980       982
       973       977       980       987       974       973       977       978
       974       973       977       979       974       973       977       980
       975       973       977       978       975       973       977       979
       975       973       977       980       976       973       977       978
       976       973       977       979       976       973       977       980
       977       980       987       983       978       977       980       981
       978       977       980       982       978       977       980       987
       979       977       980       981       979       977       980       982
       979       977       980       987       980       987       983       984
       980       987       983       985       980       987       983       986
       981       980       987       983       982       980       987       983
       983       986       988       989       983       986       988       990
       983       986       988       991       984       983       986       988
       985       983       986       988       986       988       991       992
       986       988       991       993       986       988       991       999
       987       983       986       988       988       991       993       994
       988       991       999      1000       988       991       999      1001
       988       991       999      1002       989       988       991       992
       989       988       991       993       989       988       991       999
       990       988       991       992       990       988       991       993
       990       988       991       999       991       993       994       995
       991       993       994       996       991       999      1002      1003
       992       991       993       994       992       991       999      1000
       992       991       999      1001       992       991       999      1002
       993       991       999      1000       993       991       999      1001
       993       991       999      1002       993       994       996       997
       993       994       996       998       993       994       996      1008
       994       993       991       999       994       996      1008      1009
       994       996      1008      1010       994       996      1008      1011
       995       994       996       997       995       994       996       998
       995       994       996      1008       996      1008      1011      1012
       996      1008      1011      1013       996      1008      1011      1014
       997       996      1008      1009       997       996      1008      1010
       997       996      1008      1011       998       996      1008      1009
       998       996      1008      1010       998       996      1008      1011
       999      1002      1003      1004       999      1002      1003      1005
      1000       999      1002      1003      1001       999      1002      1003
      1002      1003      1005      1006      1002      1003      1005      1007
      1002      1003      1005      1052      1003      1005      1052      1053
      1003      1005      1052      1054      1003      1005      1052      1055
      1004      1003      1005      1006      1004      1003      1005      1007
      1004      1003      1005      1052      1005      1052      1055      1056
      1005      1052      1055      1057      1005      1052      1055      1058
      1006      1005      1052      1053      1006      1005      1052      1054
      1006      1005      1052      1055      1007      1005      1052      1053
      1007      1005      1052      1054      1007      1005      1052      1055
      1008      1011      1014      1015      1008      1011      1014      1016
      1008      1011      1014      1017      1009      1008      1011      1012
      1009      1008      1011      1013      1009      1008      1011      1014
      1010      1008      1011      1012      1010      1008      1011      1013
      1010      1008      1011      1014      1011      1014      1017      1018
      1011      1014      1017      1019      1011      1014      1017      1020
      1012      1011      1014      1015      1012      1011      1014      1016
      1012      1011      1014      1017      1013      1011      1014      1015
      1013      1011      1014      1016      1013      1011      1014      1017
      1014      1017      1020      1021      1014      1017      1020      1022
      1014      1017      1020      1023      1015      1014      1017      1018
      1015      1014      1017      1019      1015      1014      1017      1020
      1016      1014      1017      1018      1016      1014      1017      1019
      1016      1014      1017      1020      1017      1020      1023      1024
      1017      1020      1023      1025      1017      1020      1023      1026
      1018      1017      1020      1021      1018      1017      1020      1022
      1018      1017      1020      1023      1019      1017      1020      1021
      1019      1017      1020      1022      1019      1017      1020      1023
      1020      1023      1026      1027      1020      1023      1026      1028
      1020      1023      1026      1031      1021      1020      1023      1024
      1021      1020      1023      1025      1021      1020      1023      1026
      1022      1020      1023      1024      1022      1020      1023      1025
      1022      1020      1023      1026      1023      1026      1028      1029
      1023      1026      1028      1030      1023      1026      1028      1031
      1023      1026      1031      1028      1023      1026      1031      1032
      1023      1026      1031      1033      1024      1023      1026      1027
      1024      1023      1026      1028      1024      1023      1026      1031
      1025      1023      1026      1027      1025      1023      1026      1028
      1025      1023      1026      1031      1026      1028      1031      1032
      1026      1028      1031      1033      1026      1031      1028      1029
      1026      1031      1028      1030      1026      1031      1033      1034
      1026      1031      1033      1035      1026      1031      1033      1036
      1027      1026      1028      1029      1027      1026      1028      1030
      1027      1026      1028      1031      1027      1026      1031      1028
      1027      1026      1031      1032      1027      1026      1031      1033
      1028      1026      1031      1032      1028      1026      1031      1033
      1028      1031      1033      1034      1028      1031      1033      1035
      1028      1031      1033      1036      1029      1028      1026      1031
      1029      1028      1031      1032      1029      1028      1031      1033
      1030      1028      1026      1031      1030      1028      1031      1032
      1030      1028      1031      1033      1031      1033      1036      1037
      1031      1033      1036      1038      1031      1033      1036      1039
      1032      1031      1033      1034      1032      1031      1033      1035
      1032      1031      1033      1036      1033      1036      1039      1040
      1033      1036      1039      1041      1033      1036      1039      1042
      1034      1033      1036      1037      1034      1033      1036      1038
      1034      1033      1036      1039      1035      1033      1036      1037
      1035      1033      1036      1038      1035      1033      1036      1039
      1036      1039      1042      1043      1036      1039      1042      1044
      1036      1039      1042      1045      1037      1036      1039      1040
      1037      1036      1039      1041      1037      1036      1039      1042
      1038      1036      1039      1040      1038      1036      1039      1041
      1038      1036      1039      1042      1039      1042      1045      1046
      1039      1042      1045      1047      1039      1042      1045      1048
      1040      1039      1042      1043      1040      1039      1042      1044
      1040      1039      1042      1045      1041      1039      1042      1043
      1041      1039      1042      1044      1041      1039      1042      1045
      1042      1045      1048      1049      1042      1045      1048      1050
      1042      1045      1048      1051      1043      1042      1045      1046
      1043      1042      1045      1047      1043      1042      1045      1048
      1044      1042      1045      1046      1044      1042      1045      1047
      1044      1042      1045      1048      1046      1045      1048      1049
      1046      1045      1048      1050      1046      1045      1048      1051
      1047      1045      1048      1049      1047      1045      1048      1050
      1047      1045      1048      1051      1052      1055      1058      1059
      1052      1055      1058      1060      1052      1055      1058      1061
      1053      1052      1055      1056      1053      1052      1055      1057
      1053      1052      1055      1058      1054      1052      1055      1056
      1054      1052      1055      1057      1054      1052      1055      1058
      1055      1058      1061      1062      1055      1058      1061      1063
      1055      1058      1061      1064      1056      1055      1058      1059
      1056      1055      1058      1060      1056      1055      1058      1061
      1057      1055      1058      1059      1057      1055      1058      1060
      1057      1055      1058      1061      1058      1061      1064      1065
      1058      1061      1064      1066      1058      1061      1064      1067
      1059      1058      1061      1062      1059      1058      1061      1063
      1059      1058      1061      1064      1060      1058      1061      1062
      1060      1058      1061      1063      1060      1058      1061      1064
      1061      1064      1067      1068      1061      1064      1067      1069
      1061      1064      1067      1070      1062      1061      1064      1065
      1062      1061      1064      1066      1062      1061      1064      1067
      1063      1061      1064      1065      1063      1061      1064      1066
      1063      1061      1064      1067      1064      1067      1070      1071
      1064      1067      1070      1072      1064      1067      1070      1073
      1065      1064      1067      1068      1065      1064      1067      1069
      1065      1064      1067      1070      1066      1064      1067      1068
      1066      1064      1067      1069      1066      1064      1067      1070
      1067      1070      1073      1074      1067      1070      1073      1075
      1067      1070      1073      1076      1068      1067      1070      1071
      1068      1067      1070      1072      1068      1067      1070      1073
      1069      1067      1070      1071      1069      1067      1070      1072
      1069      1067      1070      1073      1070      1073      1076      1077
      1070      1073      1076      1078      1070      1073      1076      1079
      1071      1070      1073      1074      1071      1070      1073      1075
      1071      1070      1073      1076      1072      1070      1073      1074
      1072      1070      1073      1075      1072      1070      1073      1076
      1073      1076      1079      1080      1073      1076      1079      1081
      1073      1076      1079      1082      1074      1073      1076      1077
      1074      1073      1076      1078      1074      1073      1076      1079
      1075      1073      1076      1077      1075      1073      1076      1078
      1075      1073      1076      1079      1076      1079      1082      1083
      1076      1079      1082      1084      1076      1079      1082      1085
      1077      1076      1079      1080      1077      1076      1079      1081
      1077      1076      1079      1082      1078      1076      1079      1080
      1078      1076      1079      1081      1078      1076      1079      1082
      1079      1082      1085      1086      1079      1082      1085      1087
      1079      1082      1085      1088      1080      1079      1082      1083
      1080      1079      1082      1084      1080      1079      1082      1085
      1081      1079      1082      1083      1081      1079      1082      1084
      1081      1079      1082      1085      1082      1085      1088      1089
      1082      1085      1088      1090      1082      1085      1088      1091
      1083      1082      1085      1086      1083      1082      1085      1087
      1083      1082      1085      1088      1084      1082      1085      1086
      1084      1082      1085      1087      1084      1082      1085      1088
      1085      1088      1091      1092      1085      1088      1091      1093
      1085      1088      1091      1094      1086      1085      1088      1089
      1086      1085      1088      1090      1086      1085      1088      1091
      1087      1085      1088      1089      1087      1085      1088      1090
      1087      1085      1088      1091      1089      1088      1091      1092
      1089      1088      1091      1093      1089      1088      1091      1094
      1090      1088      1091      1092      1090      1088      1091      1093
      1090      1088      1091      1094      1095      1099      1102      1103
      1095      1099      1102      1104      1095      1099      1102      1109
      1096      1095      1099      1100      1096      1095      1099      1101
      1096      1095      1099      1102      1097      1095      1099      1100
      1097      1095      1099      1101      1097      1095      1099      1102
      1098      1095      1099      1100      1098      1095      1099      1101
      1098      1095      1099      1102      1099      1102      1109      1105
      1100      1099      1102      1103      1100      1099      1102      1104
      1100      1099      1102      1109      1101      1099      1102      1103
      1101      1099      1102      1104      1101      1099      1102      1109
      1102      1109      1105      1106      1102      1109      1105      1107
      1102      1109      1105      1108      1103      1102      1109      1105
      1104      1102      1109      1105      1105      1108      1110      1111
      1105      1108      1110      1112      1105      1108      1110      1113
      1106      1105      1108      1110      1107      1105      1108      1110
      1108      1110      1113      1114      1108      1110      1113      1115
      1108      1110      1113      1121      1109      1105      1108      1110
      1110      1113      1115      1116      1110      1113      1121      1122
      1110      1113      1121      1123      1110      1113      1121      1124
      1111      1110      1113      1114      1111      1110      1113      1115
      1111      1110      1113      1121      1112      1110      1113      1114
      1112      1110      1113      1115      1112      1110      1113      1121
      1113      1115      1116      1117      1113      1115      1116      1118
      1113      1121      1124      1125      1114      1113      1115      1116
      1114      1113      1121      1122      1114      1113      1121      1123
      1114      1113      1121      1124      1115      1113      1121      1122
      1115      1113      1121      1123      1115      1113      1121      1124
      1115      1116      1118      1119      1115      1116      1118      1120
      1115      1116      1118      1130      1116      1115      1113      1121
      1116      1118      1130      1131      1116      1118      1130      1132
      1116      1118      1130      1133      1117      1116      1118      1119
      1117      1116      1118      1120      1117      1116      1118      1130
      1118      1130      1133      1134      1118      1130      1133      1135
      1118      1130      1133      1136      1119      1118      1130      1131
      1119      1118      1130      1132      1119      1118      1130      1133
      1120      1118      1130      1131      1120      1118      1130      1132
      1120      1118      1130      1133      1121      1124      1125      1126
      1121      1124      1125      1127      1122      1121      1124      1125
      1123      1121      1124      1125      1124      1125      1127      1128
      1124      1125      1127      1129      1124      1125      1127      1177
      1125      1127      1177      1178      1125      1127      1177      1179
      1125      1127      1177      1180      1126      1125      1127      1128
      1126      1125      1127      1129      1126      1125      1127      1177
      1127      1177      1180      1181      1127      1177      1180      1182
      1127      1177      1180      1183      1128      1127      1177      1178
      1128      1127      1177      1179      1128      1127      1177      1180
      1129      1127      1177      1178      1129      1127      1177      1179
      1129      1127      1177      1180      1130      1133      1136      1137
      1130      1133      1136      1138      1130      1133      1136      1139
      1131      1130      1133      1134      1131      1130      1133      1135
      1131      1130      1133      1136      1132      1130      1133      1134
      1132      1130      1133      1135      1132      1130      1133      1136
      1133      1136      1139      1140      1133      1136      1139      1141
      1133      1136      1139      1142      1134      1133      1136      1137
      1134      1133      1136      1138      1134      1133      1136      1139
      1135      1133      1136      1137      1135      1133      1136      1138
      1135      1133      1136      1139      1136      1139      1142      1143
      1136      1139      1142      1144      1136      1139      1142      1145
      1137      1136      1139      1140      1137      1136      1139      1141
      1137      1136      1139      1142      1138      1136      1139      1140
      1138      1136      1139      1141      1138      1136      1139      1142
      1139      1142      1145      1146      1139      1142      1145      1147
      1139      1142      1145      1148      1140      1139      1142      1143
      1140      1139      1142      1144      1140      1139      1142      1145
      1141      1139      1142      1143      1141      1139      1142      1144
      1141      1139      1142      1145      1142      1145      1148      1149
      1142      1145      1148      1150      1143      1142      1145      1146
      1143      1142      1145      1147      1143      1142      1145      1148
      1144      1142      1145      1146      1144      1142      1145      1147
      1144      1142      1145      1148      1145      1148      1150      1151
      1145      1148      1150      1152      1146      1145      1148      1149
      1146      1145      1148      1150      1147      1145      1148      1149
      1147      1145      1148      1150      1148      1150      1152      1153
      1148      1150      1152      1154      1148      1150      1152      1155
      1149      1148      1150      1151      1149      1148      1150      1152
      1150      1152      1155      1156      1150      1152      1155      1157
      1150      1152      1155      1158      1151      1150      1152      1153
      1151      1150      1152      1154      1151      1150      1152      1155
      1152      1155      1158      1159      1152      1155      1158      1160
      1152      1155      1158      1161      1153      1152      1155      1156
      1153      1152      1155      1157      1153      1152      1155      1158
      1154      1152      1155      1156      1154      1152      1155      1157
      1154      1152      1155      1158      1155      1158      1161      1162
      1155      1158      1161      1163      1155      1158      1161      1164
      1156      1155      1158      1159      1156      1155      1158      1160
      1156      1155      1158      1161      1157      1155      1158      1159
      1157      1155      1158      1160      1157      1155      1158      1161
      1158      1161      1164      1165      1158      1161      1164      1166
      1158      1161      1164      1167      1159      1158      1161      1162
      1159      1158      1161      1163      1159      1158      1161      1164
      1160      1158      1161      1162      1160      1158      1161      1163
      1160      1158      1161      1164      1161      1164      1167      1168
      1161      1164      1167      1169      1161      1164      1167      1170
      1162      1161      1164      1165      1162      1161      1164      1166
      1162      1161      1164      1167      1163      1161      1164      1165
      1163      1161      1164      1166      1163      1161      1164      1167
      1164      1167      1170      1171      1164      1167      1170      1172
      1164      1167      1170      1173      1165      1164      1167      1168
      1165      1164      1167      1169      1165      1164      1167      1170
      1166      1164      1167      1168      1166      1164      1167      1169
      1166      1164      1167      1170      1167      1170      1173      1174
      1167      1170      1173      1175      1167      1170      1173      1176
      1168      1167      1170      1171      1168      1167      1170      1172
      1168      1167      1170      1173      1169      1167      1170      1171
      1169      1167      1170      1172      1169      1167      1170      1173
      1171      1170      1173      1174      1171      1170      1173      1175
      1171      1170      1173      1176      1172      1170      1173      1174
      1172      1170      1173      1175      1172      1170      1173      1176
      1177      1180      1183      1184      1177      1180      1183      1185
      1177      1180      1183      1186      1178      1177      1180      1181
      1178      1177      1180      1182      1178      1177      1180      1183
      1179      1177      1180      1181      1179      1177      1180      1182
      1179      1177      1180      1183      1180      1183      1186      1187
      1180      1183      1186      1188      1180      1183      1186      1189
      1181      1180      1183      1184      1181      1180      1183      1185
      1181      1180      1183      1186      1182      1180      1183      1184
      1182      1180      1183      1185      1182      1180      1183      1186
      1183      1186      1189      1190      1183      1186      1189      1191
      1183      1186      1189      1192      1184      1183      1186      1187
      1184      1183      1186      1188      1184      1183      1186      1189
      1185      1183      1186      1187      1185      1183      1186      1188
      1185      1183      1186      1189      1186      1189      1192      1193
      1186      1189      1192      1194      1186      1189      1192      1195
      1187      1186      1189      1190      1187      1186      1189      1191
      1187      1186      1189      1192      1188      1186      1189      1190
      1188      1186      1189      1191      1188      1186      1189      1192
      1189      1192      1195      1196      1189      1192      1195      1197
      1189      1192      1195      1198      1190      1189      1192      1193
      1190      1189      1192      1194      1190      1189      1192      1195
      1191      1189      1192      1193      1191      1189      1192      1194
      1191      1189      1192      1195      1192      1195      1198      1199
      1192      1195      1198      1200      1192      1195      1198      1201
      1193      1192      1195      1196      1193      1192      1195      1197
      1193      1192      1195      1198      1194      1192      1195      1196
      1194      1192      1195      1197      1194      1192      1195      1198
      1195      1198      1201      1202      1195      1198      1201      1203
      1195      1198      1201      1204      1196      1195      1198      1199
      1196      1195      1198      1200      1196      1195      1198      1201
      1197      1195      1198      1199      1197      1195      1198      1200
      1197      1195      1198      1201      1198      1201      1204      1205
      1198      1201      1204      1206      1198      1201      1204      1207
      1199      1198      1201      1202      1199      1198      1201      1203
      1199      1198      1201      1204      1200      1198      1201      1202
      1200      1198      1201      1203      1200      1198      1201      1204
      1201      1204      1207      1208      1201      1204      1207      1209
      1201      1204      1207      1210      1202      1201      1204      1205
      1202      1201      1204      1206      1202      1201      1204      1207
      1203      1201      1204      1205      1203      1201      1204      1206
      1203      1201      1204      1207      1204      1207      1210      1211
      1204      1207      1210      1212      1204      1207      1210      1213
      1205      1204      1207      1208      1205      1204      1207      1209
      1205      1204      1207      1210      1206      1204      1207      1208
      1206      1204      1207      1209      1206      1204      1207      1210
      1207      1210      1213      1214      1207      1210      1213      1215
      1207      1210      1213      1216      1208      1207      1210      1211
      1208      1207      1210      1212      1208      1207      1210      1213
      1209      1207      1210      1211      1209      1207      1210      1212
      1209      1207      1210      1213      1210      1213      1216      1217
      1210      1213      1216      1218      1210      1213      1216      1219
      1211      1210      1213      1214      1211      1210      1213      1215
      1211      1210      1213      1216      1212      1210      1213      1214
      1212      1210      1213      1215      1212      1210      1213      1216
      1214      1213      1216      1217      1214      1213      1216      1218
      1214      1213      1216      1219      1215      1213      1216      1217
      1215      1213      1216      1218      1215      1213      1216      1219
      1220      1224      1227      1228      1220      1224      1227      1229
      1220      1224      1227      1234      1221      1220      1224      1225
      1221      1220      1224      1226      1221      1220      1224      1227
      1222      1220      1224      1225      1222      1220      1224      1226
      1222      1220      1224      1227      1223      1220      1224      1225
      1223      1220      1224      1226      1223      1220      1224      1227
      1224      1227      1234      1230      1225      1224      1227      1228
      1225      1224      1227      1229      1225      1224      1227      1234
      1226      1224      1227      1228      1226      1224      1227      1229
      1226      1224      1227      1234      1227      1234      1230      1231
      1227      1234      1230      1232      1227      1234      1230      1233
      1228      1227      1234      1230      1229      1227      1234      1230
      1230      1233      1235      1236      1230      1233      1235      1237
      1230      1233      1235      1238      1231      1230      1233      1235
      1232      1230      1233      1235      1233      1235      1238      1239
      1233      1235      1238      1240      1233      1235      1238      1246
      1234      1230      1233      1235      1235      1238      1240      1241
      1235      1238      1246      1247      1235      1238      1246      1248
      1235      1238      1246      1249      1236      1235      1238      1239
      1236      1235      1238      1240      1236      1235      1238      1246
      1237      1235      1238      1239      1237      1235      1238      1240
      1237      1235      1238      1246      1238      1240      1241      1242
      1238      1240      1241      1243      1238      1246      1249      1250
      1239      1238      1240      1241      1239      1238      1246      1247
      1239      1238      1246      1248      1239      1238      1246      1249
      1240      1238      1246      1247      1240      1238      1246      1248
      1240      1238      1246      1249      1240      1241      1243      1244
      1240      1241      1243      1245      1240      1241      1243      1255
      1241      1240      1238      1246      1241      1243      1255      1256
      1241      1243      1255      1257      1241      1243      1255      1258
      1242      1241      1243      1244      1242      1241      1243      1245
      1242      1241      1243      1255      1243      1255      1258      1259
      1243      1255      1258      1260      1243      1255      1258      1261
      1244      1243      1255      1256      1244      1243      1255      1257
      1244      1243      1255      1258      1245      1243      1255      1256
      1245      1243      1255      1257      1245      1243      1255      1258
      1246      1249      1250      1251      1246      1249      1250      1252
      1247      1246      1249      1250      1248      1246      1249      1250
      1249      1250      1252      1253      1249      1250      1252      1254
      1249      1250      1252      1299      1250      1252      1299      1300
      1250      1252      1299      1301      1250      1252      1299      1302
      1251      1250      1252      1253      1251      1250      1252      1254
      1251      1250      1252      1299      1252      1299      1302      1303
      1252      1299      1302      1304      1252      1299      1302      1305
      1253      1252      1299      1300      1253      1252      1299      1301
      1253      1252      1299      1302      1254      1252      1299      1300
      1254      1252      1299      1301      1254      1252      1299      1302
      1255      1258      1261      1262      1255      1258      1261      1263
      1255      1258      1261      1264      1256      1255      1258      1259
      1256      1255      1258      1260      1256      1255      1258      1261
      1257      1255      1258      1259      1257      1255      1258      1260
      1257      1255      1258      1261      1258      1261      1264      1265
      1258      1261      1264      1266      1258      1261      1264      1267
      1259      1258      1261      1262      1259      1258      1261      1263
      1259      1258      1261      1264      1260      1258      1261      1262
      1260      1258      1261      1263      1260      1258      1261      1264
      1261      1264      1267      1268      1261      1264      1267      1269
      1261      1264      1267      1270      1262      1261      1264      1265
      1262      1261      1264      1266      1262      1261      1264      1267
      1263      1261      1264      1265      1263      1261      1264      1266
      1263      1261      1264      1267      1264      1267      1270      1271
      1264      1267      1270      1272      1264      1267      1270      1273
      1265      1264      1267      1268      1265      1264      1267      1269
      1265      1264      1267      1270      1266      1264      1267      1268
      1266      1264      1267      1269      1266      1264      1267      1270
      1267      1270      1273      1274      1267      1270      1273      1275
      1267      1270      1273      1278      1268      1267      1270      1271
      1268      1267      1270      1272      1268      1267      1270      1273
      1269      1267      1270      1271      1269      1267      1270      1272
      1269      1267      1270      1273      1270      1273      1275      1276
      1270      1273      1275      1277      1270      1273      1275      1278
      1270      1273      1278      1275      1270      1273      1278      1279
      1270      1273      1278      1280      1271      1270      1273      1274
      1271      1270      1273      1275      1271      1270      1273      1278
      1272      1270      1273      1274      1272      1270      1273      1275
      1272      1270      1273      1278      1273      1275      1278      1279
      1273      1275      1278      1280      1273      1278      1275      1276
      1273      1278      1275      1277      1273      1278      1280      1281
      1273      1278      1280      1282      1273      1278      1280      1283
      1274      1273      1275      1276      1274      1273      1275      1277
      1274      1273      1275      1278      1274      1273      1278      1275
      1274      1273      1278      1279      1274      1273      1278      1280
      1275      1273      1278      1279      1275      1273      1278      1280
      1275      1278      1280      1281      1275      1278      1280      1282
      1275      1278      1280      1283      1276      1275      1273      1278
      1276      1275      1278      1279      1276      1275      1278      1280
      1277      1275      1273      1278      1277      1275      1278      1279
      1277      1275      1278      1280      1278      1280      1283      1284
      1278      1280      1283      1285      1278      1280      1283      1286
      1279      1278      1280      1281      1279      1278      1280      1282
      1279      1278      1280      1283      1280      1283      1286      1287
      1280      1283      1286      1288      1280      1283      1286      1289
      1281      1280      1283      1284      1281      1280      1283      1285
      1281      1280      1283      1286      1282      1280      1283      1284
      1282      1280      1283      1285      1282      1280      1283      1286
      1283      1286      1289      1290      1283      1286      1289      1291
      1283      1286      1289      1292      1284      1283      1286      1287
      1284      1283      1286      1288      1284      1283      1286      1289
      1285      1283      1286      1287      1285      1283      1286      1288
      1285      1283      1286      1289      1286      1289      1292      1293
      1286      1289      1292      1294      1286      1289      1292      1295
      1287      1286      1289      1290      1287      1286      1289      1291
      1287      1286      1289      1292      1288      1286      1289      1290
      1288      1286      1289      1291      1288      1286      1289      1292
      1289      1292      1295      1296      1289      1292      1295      1297
      1289      1292      1295      1298      1290      1289      1292      1293
      1290      1289      1292      1294      1290      1289      1292      1295
      1291      1289      1292      1293      1291      1289      1292      1294
      1291      1289      1292      1295      1293      1292      1295      1296
      1293      1292      1295      1297      1293      1292      1295      1298
      1294      1292      1295      1296      1294      1292      1295      1297
      1294      1292      1295      1298      1299      1302      1305      1306
      1299      1302      1305      1307      1299      1302      1305      1308
      1300      1299      1302      1303      1300      1299      1302      1304
      1300      1299      1302      1305      1301      1299      1302      1303
      1301      1299      1302      1304      1301      1299      1302      1305
      1302      1305      1308      1309      1302      1305      1308      1310
      1302      1305      1308      1311      1303      1302      1305      1306
      1303      1302      1305      1307      1303      1302      1305      1308
      1304      1302      1305      1306      1304      1302      1305      1307
      1304      1302      1305      1308      1305      1308      1311      1312
      1305      1308      1311      1313      1305      1308      1311      1314
      1306      1305      1308      1309      1306      1305      1308      1310
      1306      1305      1308      1311      1307      1305      1308      1309
      1307      1305      1308      1310      1307      1305      1308      1311
      1308      1311      1314      1315      1308      1311      1314      1316
      1308      1311      1314      1317      1309      1308      1311      1312
      1309      1308      1311      1313      1309      1308      1311      1314
      1310      1308      1311      1312      1310      1308      1311      1313
      1310      1308      1311      1314      1311      1314      1317      1318
      1311      1314      1317      1319      1311      1314      1317      1320
      1312      1311      1314      1315      1312      1311      1314      1316
      1312      1311      1314      1317      1313      1311      1314      1315
      1313      1311      1314      1316      1313      1311      1314      1317
      1314      1317      1320      1321      1314      1317      1320      1322
      1314      1317      1320      1323      1315      1314      1317      1318
      1315      1314      1317      1319      1315      1314      1317      1320
      1316      1314      1317      1318      1316      1314      1317      1319
      1316      1314      1317      1320      1317      1320      1323      1324
      1317      1320      1323      1325      1317      1320      1323      1326
      1318      1317      1320      1321      1318      1317      1320      1322
      1318      1317      1320      1323      1319      1317      1320      1321
      1319      1317      1320      1322      1319      1317      1320      1323
      1320      1323      1326      1327      1320      1323      1326      1328
      1320      1323      1326      1329      1321      1320      1323      1324
      1321      1320      1323      1325      1321      1320      1323      1326
      1322      1320      1323      1324      1322      1320      1323      1325
      1322      1320      1323      1326      1323      1326      1329      1330
      1323      1326      1329      1331      1323      1326      1329      1332
      1324      1323      1326      1327      1324      1323      1326      1328
      1324      1323      1326      1329      1325      1323      1326      1327
      1325      1323      1326      1328      1325      1323      1326      1329
      1326      1329      1332      1333      1326      1329      1332      1334
      1326      1329      1332      1335      1327      1326      1329      1330
      1327      1326      1329      1331      1327      1326      1329      1332
      1328      1326      1329      1330      1328      1326      1329      1331
      1328      1326      1329      1332      1329      1332      1335      1336
      1329      1332      1335      1337      1329      1332      1335      1338
      1330      1329      1332      1333      1330      1329      1332      1334
      1330      1329      1332      1335      1331      1329      1332      1333
      1331      1329      1332      1334      1331      1329      1332      1335
      1332      1335      1338      1339      1332      1335      1338      1340
      1332      1335      1338      1341      1333      1332      1335      1336
      1333      1332      1335      1337      1333      1332      1335      1338
      1334      1332      1335      1336      1334      1332      1335      1337
      1334      1332      1335      1338      1336      1335      1338      1339
      1336      1335      1338      1340      1336      1335      1338      1341
      1337      1335      1338      1339      1337      1335      1338      1340
      1337      1335      1338      1341      1342      1346      1349      1350
      1342      1346      1349      1351      1342      1346      1349      1356
      1343      1342      1346      1347      1343      1342      1346      1348
      1343      1342      1346      1349      1344      1342      1346      1347
      1344      1342      1346      1348      1344      1342      1346      1349
      1345      1342      1346      1347      1345      1342      1346      1348
      1345      1342      1346      1349      1346      1349      1356      1352
      1347      1346      1349      1350      1347      1346      1349      1351
      1347      1346      1349      1356      1348      1346      1349      1350
      1348      1346      1349      1351      1348      1346      1349      1356
      1349      1356      1352      1353      1349      1356      1352      1354
      1349      1356      1352      1355      1350      1349      1356      1352
      1351      1349      1356      1352      1352      1355      1357      1358
      1352      1355      1357      1359      1352      1355      1357      1360
      1353      1352      1355      1357      1354      1352      1355      1357
      1355      1357      1360      1361      1355      1357      1360      1362
      1355      1357      1360      1368      1356      1352      1355      1357
      1357      1360      1362      1363      1357      1360      1368      1369
      1357      1360      1368      1370      1357      1360      1368      1371
      1358      1357      1360      1361      1358      1357      1360      1362
      1358      1357      1360      1368      1359      1357      1360      1361
      1359      1357      1360      1362      1359      1357      1360      1368
      1360      1362      1363      1364      1360      1362      1363      1365
      1360      1368      1371      1372      1361      1360      1362      1363
      1361      1360      1368      1369      1361      1360      1368      1370
      1361      1360      1368      1371      1362      1360      1368      1369
      1362      1360      1368      1370      1362      1360      1368      1371
      1362      1363      1365      1366      1362      1363      1365      1367
      1362      1363      1365      1377      1363      1362      1360      1368
      1363      1365      1377      1378      1363      1365      1377      1379
      1363      1365      1377      1380      1364      1363      1365      1366
      1364      1363      1365      1367      1364      1363      1365      1377
      1365      1377      1380      1381      1365      1377      1380      1382
      1365      1377      1380      1383      1366      1365      1377      1378
      1366      1365      1377      1379      1366      1365      1377      1380
      1367      1365      1377      1378      1367      1365      1377      1379
      1367      1365      1377      1380      1368      1371      1372      1373
      1368      1371      1372      1374      1369      1368      1371      1372
      1370      1368      1371      1372      1371      1372      1374      1375
      1371      1372      1374      1376      1371      1372      1374      1421
      1372      1374      1421      1422      1372      1374      1421      1423
      1372      1374      1421      1424      1373      1372      1374      1375
      1373      1372      1374      1376      1373      1372      1374      1421
      1374      1421      1424      1425      1374      1421      1424      1426
      1374      1421      1424      1427      1375      1374      1421      1422
      1375      1374      1421      1423      1375      1374      1421      1424
      1376      1374      1421      1422      1376      1374      1421      1423
      1376      1374      1421      1424      1377      1380      1383      1384
      1377      1380      1383      1385      1377      1380      1383      1386
      1378      1377      1380      1381      1378      1377      1380      1382
      1378      1377      1380      1383      1379      1377      1380      1381
      1379      1377      1380      1382      1379      1377      1380      1383
      1380      1383      1386      1387      1380      1383      1386      1388
      1380      1383      1386      1389      1381      1380      1383      1384
      1381      1380      1383      1385      1381      1380      1383      1386
      1382      1380      1383      1384      1382      1380      1383      1385
      1382      1380      1383      1386      1383      1386      1389      1390
      1383      1386      1389      1391      1383      1386      1389      1392
      1384      1383      1386      1387      1384      1383      1386      1388
      1384      1383      1386      1389      1385      1383      1386      1387
      1385      1383      1386      1388      1385      1383      1386      1389
      1386      1389      1392      1393      1386      1389      1392      1394
      1386      1389      1392      1395      1387      1386      1389      1390
      1387      1386      1389      1391      1387      1386      1389      1392
      1388      1386      1389      1390      1388      1386      1389      1391
      1388      1386      1389      1392      1389      1392      1395      1396
      1389      1392      1395      1397      1389      1392      1395      1400
      1390      1389      1392      1393      1390      1389      1392      1394
      1390      1389      1392      1395      1391      1389      1392      1393
      1391      1389      1392      1394      1391      1389      1392      1395
      1392      1395      1397      1398      1392      1395      1397      1399
      1392      1395      1397      1400      1392      1395      1400      1397
      1392      1395      1400      1401      1392      1395      1400      1402
      1393      1392      1395      1396      1393      1392      1395      1397
      1393      1392      1395      1400      1394      1392      1395      1396
      1394      1392      1395      1397      1394      1392      1395      1400
      1395      1397      1400      1401      1395      1397      1400      1402
      1395      1400      1397      1398      1395      1400      1397      1399
      1395      1400      1402      1403      1395      1400      1402      1404
      1395      1400      1402      1405      1396      1395      1397      1398
      1396      1395      1397      1399      1396      1395      1397      1400
      1396      1395      1400      1397      1396      1395      1400      1401
      1396      1395      1400      1402      1397      1395      1400      1401
      1397      1395      1400      1402      1397      1400      1402      1403
      1397      1400      1402      1404      1397      1400      1402      1405
      1398      1397      1395      1400      1398      1397      1400      1401
      1398      1397      1400      1402      1399      1397      1395      1400
      1399      1397      1400      1401      1399      1397      1400      1402
      1400      1402      1405      1406      1400      1402      1405      1407
      1400      1402      1405      1408      1401      1400      1402      1403
      1401      1400      1402      1404      1401      1400      1402      1405
      1402      1405      1408      1409      1402      1405      1408      1410
      1402      1405      1408      1411      1403      1402      1405      1406
      1403      1402      1405      1407      1403      1402      1405      1408
      1404      1402      1405      1406      1404      1402      1405      1407
      1404      1402      1405      1408      1405      1408      1411      1412
      1405      1408      1411      1413      1405      1408      1411      1414
      1406      1405      1408      1409      1406      1405      1408      1410
      1406      1405      1408      1411      1407      1405      1408      1409
      1407      1405      1408      1410      1407      1405      1408      1411
      1408      1411      1414      1415      1408      1411      1414      1416
      1408      1411      1414      1417      1409      1408      1411      1412
      1409      1408      1411      1413      1409      1408      1411      1414
      1410      1408      1411      1412      1410      1408      1411      1413
      1410      1408      1411      1414      1411      1414      1417      1418
      1411      1414      1417      1419      1411      1414      1417      1420
      1412      1411      1414      1415      1412      1411      1414      1416
      1412      1411      1414      1417      1413      1411      1414      1415
      1413      1411      1414      1416      1413      1411      1414      1417
      1415      1414      1417      1418      1415      1414      1417      1419
      1415      1414      1417      1420      1416      1414      1417      1418
      1416      1414      1417      1419      1416      1414      1417      1420
      1421      1424      1427      1428      1421      1424      1427      1429
      1421      1424      1427      1430      1422      1421      1424      1425
      1422      1421      1424      1426      1422      1421      1424      1427
      1423      1421      1424      1425      1423      1421      1424      1426
      1423      1421      1424      1427      1424      1427      1430      1431
      1424      1427      1430      1432      1424      1427      1430      1433
      1425      1424      1427      1428      1425      1424      1427      1429
      1425      1424      1427      1430      1426      1424      1427      1428
      1426      1424      1427      1429      1426      1424      1427      1430
      1427      1430      1433      1434      1427      1430      1433      1435
      1427      1430      1433      1436      1428      1427      1430      1431
      1428      1427      1430      1432      1428      1427      1430      1433
      1429      1427      1430      1431      1429      1427      1430      1432
      1429      1427      1430      1433      1430      1433      1436      1437
      1430      1433      1436      1438      1430      1433      1436      1439
      1431      1430      1433      1434      1431      1430      1433      1435
      1431      1430      1433      1436      1432      1430      1433      1434
      1432      1430      1433      1435      1432      1430      1433      1436
      1433      1436      1439      1440      1433      1436      1439      1441
      1433      1436      1439      1442      1434      1433      1436      1437
      1434      1433      1436      1438      1434      1433      1436      1439
      1435      1433      1436      1437      1435      1433      1436      1438
      1435      1433      1436      1439      1436      1439      1442      1443
      1436      1439      1442      1444      1436      1439      1442      1445
      1437      1436      1439      1440      1437      1436      1439      1441
      1437      1436      1439      1442      1438      1436      1439      1440
      1438      1436      1439      1441      1438      1436      1439      1442
      1439      1442      1445      1446      1439      1442      1445      1447
      1439      1442      1445      1448      1440      1439      1442      1443
      1440      1439      1442      1444      1440      1439      1442      1445
      1441      1439      1442      1443      1441      1439      1442      1444
      1441      1439      1442      1445      1442      1445      1448      1449
      1442      1445      1448      1450      1442      1445      1448      1451
      1443      1442      1445      1446      1443      1442      1445      1447
      1443      1442      1445      1448      1444      1442      1445      1446
      1444      1442      1445      1447      1444      1442      1445      1448
      1445      1448      1451      1452      1445      1448      1451      1453
      1445      1448      1451      1454      1446      1445      1448      1449
      1446      1445      1448      1450      1446      1445      1448      1451
      1447      1445      1448      1449      1447      1445      1448      1450
      1447      1445      1448      1451      1448      1451      1454      1455
      1448      1451      1454      1456      1448      1451      1454      1457
      1449      1448      1451      1452      1449      1448      1451      1453
      1449      1448      1451      1454      1450      1448      1451      1452
      1450      1448      1451      1453      1450      1448      1451      1454
      1451      1454      1457      1458      1451      1454      1457      1459
      1451      1454      1457      1460      1452      1451      1454      1455
      1452      1451      1454      1456      1452      1451      1454      1457
      1453      1451      1454      1455      1453      1451      1454      1456
      1453      1451      1454      1457      1454      1457      1460      1461
      1454      1457      1460      1462      1454      1457      1460      1463
      1455      1454      1457      1458      1455      1454      1457      1459
      1455      1454      1457      1460      1456      1454      1457      1458
      1456      1454      1457      1459      1456      1454      1457      1460
      1458      1457      1460      1461      1458      1457      1460      1462
      1458      1457      1460      1463      1459      1457      1460      1461
      1459      1457      1460      1462      1459      1457      1460      1463
      1464      1468      1471      1472      1464      1468      1471      1473
      1464      1468      1471      1478      1465      1464      1468      1469
      1465      1464      1468      1470      1465      1464      1468      1471
      1466      1464      1468      1469      1466      1464      1468      1470
      1466      1464      1468      1471      1467      1464      1468      1469
      1467      1464      1468      1470      1467      1464      1468      1471
      1468      1471      1478      1474      1469      1468      1471      1472
      1469      1468      1471      1473      1469      1468      1471      1478
      1470      1468      1471      1472      1470      1468      1471      1473
      1470      1468      1471      1478      1471      1478      1474      1475
      1471      1478      1474      1476      1471      1478      1474      1477
      1472      1471      1478      1474      1473      1471      1478      1474
      1474      1477      1479      1480      1474      1477      1479      1481
      1474      1477      1479      1482      1475      1474      1477      1479
      1476      1474      1477      1479      1477      1479      1482      1483
      1477      1479      1482      1484      1477      1479      1482      1490
      1478      1474      1477      1479      1479      1482      1484      1485
      1479      1482      1490      1491      1479      1482      1490      1492
      1479      1482      1490      1493      1480      1479      1482      1483
      1480      1479      1482      1484      1480      1479      1482      1490
      1481      1479      1482      1483      1481      1479      1482      1484
      1481      1479      1482      1490      1482      1484      1485      1486
      1482      1484      1485      1487      1482      1490      1493      1494
      1483      1482      1484      1485      1483      1482      1490      1491
      1483      1482      1490      1492      1483      1482      1490      1493
      1484      1482      1490      1491      1484      1482      1490      1492
      1484      1482      1490      1493      1484      1485      1487      1488
      1484      1485      1487      1489      1484      1485      1487      1499
      1485      1484      1482      1490      1485      1487      1499      1500
      1485      1487      1499      1501      1485      1487      1499      1502
      1486      1485      1487      1488      1486      1485      1487      1489
      1486      1485      1487      1499      1487      1499      1502      1503
      1487      1499      1502      1504      1487      1499      1502      1505
      1488      1487      1499      1500      1488      1487      1499      1501
      1488      1487      1499      1502      1489      1487      1499      1500
      1489      1487      1499      1501      1489      1487      1499      1502
      1490      1493      1494      1495      1490      1493      1494      1496
      1491      1490      1493      1494      1492      1490      1493      1494
      1493      1494      1496      1497      1493      1494      1496      1498
      1493      1494      1496      1546      1494      1496      1546      1547
      1494      1496      1546      1548      1494      1496      1546      1549
      1495      1494      1496      1497      1495      1494      1496      1498
      1495      1494      1496      1546      1496      1546      1549      1550
      1496      1546      1549      1551      1496      1546      1549      1552
      1497      1496      1546      1547      1497      1496      1546      1548
      1497      1496      1546      1549      1498      1496      1546      1547
      1498      1496      1546      1548      1498      1496      1546      1549
      1499      1502      1505      1506      1499      1502      1505      1507
      1499      1502      1505      1508      1500      1499      1502      1503
      1500      1499      1502      1504      1500      1499      1502      1505
      1501      1499      1502      1503      1501      1499      1502      1504
      1501      1499      1502      1505      1502      1505      1508      1509
      1502      1505      1508      1510      1502      1505      1508      1511
      1503      1502      1505      1506      1503      1502      1505      1507
      1503      1502      1505      1508      1504      1502      1505      1506
      1504      1502      1505      1507      1504      1502      1505      1508
      1505      1508      1511      1512      1505      1508      1511      1513
      1505      1508      1511      1514      1506      1505      1508      1509
      1506      1505      1508      1510      1506      1505      1508      1511
      1507      1505      1508      1509      1507      1505      1508      1510
      1507      1505      1508      1511      1508      1511      1514      1515
      1508      1511      1514      1516      1508      1511      1514      1517
      1509      1508      1511      1512      1509      1508      1511      1513
      1509      1508      1511      1514      1510      1508      1511      1512
      1510      1508      1511      1513      1510      1508      1511      1514
      1511      1514      1517      1518      1511      1514      1517      1519
      1512      1511      1514      1515      1512      1511      1514      1516
      1512      1511      1514      1517      1513      1511      1514      1515
      1513      1511      1514      1516      1513      1511      1514      1517
      1514      1517      1519      1520      1514      1517      1519      1521
      1515      1514      1517      1518      1515      1514      1517      1519
      1516      1514      1517      1518      1516      1514      1517      1519
      1517      1519      1521      1522      1517      1519      1521      1523
      1517      1519      1521      1524      1518      1517      1519      1520
      1518      1517      1519      1521      1519      1521      1524      1525
      1519      1521      1524      1526      1519      1521      1524      1527
      1520      1519      1521      1522      1520      1519      1521      1523
      1520      1519      1521      1524      1521      1524      1527      1528
      1521      1524      1527      1529      1521      1524      1527      1530
      1522      1521      1524      1525      1522      1521      1524      1526
      1522      1521      1524      1527      1523      1521      1524      1525
      1523      1521      1524      1526      1523      1521      1524      1527
      1524      1527      1530      1531      1524      1527      1530      1532
      1524      1527      1530      1533      1525      1524      1527      1528
      1525      1524      1527      1529      1525      1524      1527      1530
      1526      1524      1527      1528      1526      1524      1527      1529
      1526      1524      1527      1530      1527      1530      1533      1534
      1527      1530      1533      1535      1527      1530      1533      1536
      1528      1527      1530      1531      1528      1527      1530      1532
      1528      1527      1530      1533      1529      1527      1530      1531
      1529      1527      1530      1532      1529      1527      1530      1533
      1530      1533      1536      1537      1530      1533      1536      1538
      1530      1533      1536      1539      1531      1530      1533      1534
      1531      1530      1533      1535      1531      1530      1533      1536
      1532      1530      1533      1534      1532      1530      1533      1535
      1532      1530      1533      1536      1533      1536      1539      1540
      1533      1536      1539      1541      1533      1536      1539      1542
      1534      1533      1536      1537      1534      1533      1536      1538
      1534      1533      1536      1539      1535      1533      1536      1537
      1535      1533      1536      1538      1535      1533      1536      1539
      1536      1539      1542      1543      1536      1539      1542      1544
      1536      1539      1542      1545      1537      1536      1539      1540
      1537      1536      1539      1541      1537      1536      1539      1542
      1538      1536      1539      1540      1538      1536      1539      1541
      1538      1536      1539      1542      1540      1539      1542      1543
      1540      1539      1542      1544      1540      1539      1542      1545
      1541      1539      1542      1543      1541      1539      1542      1544
      1541      1539      1542      1545      1546      1549      1552      1553
      1546      1549      1552      1554      1546      1549      1552      1555
      1547      1546      1549      1550      1547      1546      1549      1551
      1547      1546      1549      1552      1548      1546      1549      1550
      1548      1546      1549      1551      1548      1546      1549      1552
      1549      1552      1555      1556      1549      1552      1555      1557
      1549      1552      1555      1558      1550      1549      1552      1553
      1550      1549      1552      1554      1550      1549      1552      1555
      1551      1549      1552      1553      1551      1549      1552      1554
      1551      1549      1552      1555      1552      1555      1558      1559
      1552      1555      1558      1560      1552      1555      1558      1561
      1553      1552      1555      1556      1553      1552      1555      1557
      1553      1552      1555      1558      1554      1552      1555      1556
      1554      1552      1555      1557      1554      1552      1555      1558
      1555      1558      1561      1562      1555      1558      1561      1563
      1555      1558      1561      1564      1556      1555      1558      1559
      1556      1555      1558      1560      1556      1555      1558      1561
      1557      1555      1558      1559      1557      1555      1558      1560
      1557      1555      1558      1561      1558      1561      1564      1565
      1558      1561      1564      1566      1558      1561      1564      1567
      1559      1558      1561      1562      1559      1558      1561      1563
      1559      1558      1561      1564      1560      1558      1561      1562
      1560      1558      1561      1563      1560      1558      1561      1564
      1561      1564      1567      1568      1561      1564      1567      1569
      1561      1564      1567      1570      1562      1561      1564      1565
      1562      1561      1564      1566      1562      1561      1564      1567
      1563      1561      1564      1565      1563      1561      1564      1566
      1563      1561      1564      1567      1564      1567      1570      1571
      1564      1567      1570      1572      1564      1567      1570      1573
      1565      1564      1567      1568      1565      1564      1567      1569
      1565      1564      1567      1570      1566      1564      1567      1568
      1566      1564      1567      1569      1566      1564      1567      1570
      1567      1570      1573      1574      1567      1570      1573      1575
      1567      1570      1573      1576      1568      1567      1570      1571
      1568      1567      1570      1572      1568      1567      1570      1573
      1569      1567      1570      1571      1569      1567      1570      1572
      1569      1567      1570      1573      1570      1573      1576      1577
      1570      1573      1576      1578      1570      1573      1576      1579
      1571      1570      1573      1574      1571      1570      1573      1575
      1571      1570      1573      1576      1572      1570      1573      1574
      1572      1570      1573      1575      1572      1570      1573      1576
      1573      1576      1579      1580      1573      1576      1579      1581
      1573      1576      1579      1582      1574      1573      1576      1577
      1574      1573      1576      1578      1574      1573      1576      1579
      1575      1573      1576      1577      1575      1573      1576      1578
      1575      1573      1576      1579      1576      1579      1582      1583
      1576      1579      1582      1584      1576      1579      1582      1585
      1577      1576      1579      1580      1577      1576      1579      1581
      1577      1576      1579      1582      1578      1576      1579      1580
      1578      1576      1579      1581      1578      1576      1579      1582
      1579      1582      1585      1586      1579      1582      1585      1587
      1579      1582      1585      1588      1580      1579      1582      1583
      1580      1579      1582      1584      1580      1579      1582      1585
      1581      1579      1582      1583      1581      1579      1582      1584
      1581      1579      1582      1585      1583      1582      1585      1586
      1583      1582      1585      1587      1583      1582      1585      1588
      1584      1582      1585      1586      1584      1582      1585      1587
      1584      1582      1585      1588      1589      1593      1596      1597
      1589      1593      1596      1598      1589      1593      1596      1603
      1590      1589      1593      1594      1590      1589      1593      1595
      1590      1589      1593      1596      1591      1589      1593      1594
      1591      1589      1593      1595      1591      1589      1593      1596
      1592      1589      1593      1594      1592      1589      1593      1595
      1592      1589      1593      1596      1593      1596      1603      1599
      1594      1593      1596      1597      1594      1593      1596      1598
      1594      1593      1596      1603      1595      1593      1596      1597
      1595      1593      1596      1598      1595      1593      1596      1603
      1596      1603      1599      1600      1596      1603      1599      1601
      1596      1603      1599      1602      1597      1596      1603      1599
      1598      1596      1603      1599      1599      1602      1604      1605
      1599      1602      1604      1606      1599      1602      1604      1607
      1600      1599      1602      1604      1601      1599      1602      1604
      1602      1604      1607      1608      1602      1604      1607      1609
      1602      1604      1607      1615      1603      1599      1602      1604
      1604      1607      1609      1610      1604      1607      1615      1616
      1604      1607      1615      1617      1604      1607      1615      1618
      1605      1604      1607      1608      1605      1604      1607      1609
      1605      1604      1607      1615      1606      1604      1607      1608
      1606      1604      1607      1609      1606      1604      1607      1615
      1607      1609      1610      1611      1607      1609      1610      1612
      1607      1615      1618      1619      1608      1607      1609      1610
      1608      1607      1615      1616      1608      1607      1615      1617
      1608      1607      1615      1618      1609      1607      1615      1616
      1609      1607      1615      1617      1609      1607      1615      1618
      1609      1610      1612      1613      1609      1610      1612      1614
      1609      1610      1612      1624      1610      1609      1607      1615
      1610      1612      1624      1625      1610      1612      1624      1626
      1610      1612      1624      1627      1611      1610      1612      1613
      1611      1610      1612      1614      1611      1610      1612      1624
      1612      1624      1627      1628      1612      1624      1627      1629
      1612      1624      1627      1630      1613      1612      1624      1625
      1613      1612      1624      1626      1613      1612      1624      1627
      1614      1612      1624      1625      1614      1612      1624      1626
      1614      1612      1624      1627      1615      1618      1619      1620
      1615      1618      1619      1621      1616      1615      1618      1619
      1617      1615      1618      1619      1618      1619      1621      1622
      1618      1619      1621      1623      1618      1619      1621      1668
      1619      1621      1668      1669      1619      1621      1668      1670
      1619      1621      1668      1671      1620      1619      1621      1622
      1620      1619      1621      1623      1620      1619      1621      1668
      1621      1668      1671      1672      1621      1668      1671      1673
      1621      1668      1671      1674      1622      1621      1668      1669
      1622      1621      1668      1670      1622      1621      1668      1671
      1623      1621      1668      1669      1623      1621      1668      1670
      1623      1621      1668      1671      1624      1627      1630      1631
      1624      1627      1630      1632      1624      1627      1630      1633
      1625      1624      1627      1628      1625      1624      1627      1629
      1625      1624      1627      1630      1626      1624      1627      1628
      1626      1624      1627      1629      1626      1624      1627      1630
      1627      1630      1633      1634      1627      1630      1633      1635
      1627      1630      1633      1636      1628      1627      1630      1631
      1628      1627      1630      1632      1628      1627      1630      1633
      1629      1627      1630      1631      1629      1627      1630      1632
      1629      1627      1630      1633      1630      1633      1636      1637
      1630      1633      1636      1638      1630      1633      1636      1639
      1631      1630      1633      1634      1631      1630      1633      1635
      1631      1630      1633      1636      1632      1630      1633      1634
      1632      1630      1633      1635      1632      1630      1633      1636
      1633      1636      1639      1640      1633      1636      1639      1641
      1633      1636      1639      1642      1634      1633      1636      1637
      1634      1633      1636      1638      1634      1633      1636      1639
      1635      1633      1636      1637      1635      1633      1636      1638
      1635      1633      1636      1639      1636      1639      1642      1643
      1636      1639      1642      1644      1636      1639      1642      1647
      1637      1636      1639      1640      1637      1636      1639      1641
      1637      1636      1639      1642      1638      1636      1639      1640
      1638      1636      1639      1641      1638      1636      1639      1642
      1639      1642      1644      1645      1639      1642      1644      1646
      1639      1642      1644      1647      1639      1642      1647      1644
      1639      1642      1647      1648      1639      1642      1647      1649
      1640      1639      1642      1643      1640      1639      1642      1644
      1640      1639      1642      1647      1641      1639      1642      1643
      1641      1639      1642      1644      1641      1639      1642      1647
      1642      1644      1647      1648      1642      1644      1647      1649
      1642      1647      1644      1645      1642      1647      1644      1646
      1642      1647      1649      1650      1642      1647      1649      1651
      1642      1647      1649      1652      1643      1642      1644      1645
      1643      1642      1644      1646      1643      1642      1644      1647
      1643      1642      1647      1644      1643      1642      1647      1648
      1643      1642      1647      1649      1644      1642      1647      1648
      1644      1642      1647      1649      1644      1647      1649      1650
      1644      1647      1649      1651      1644      1647      1649      1652
      1645      1644      1642      1647      1645      1644      1647      1648
      1645      1644      1647      1649      1646      1644      1642      1647
      1646      1644      1647      1648      1646      1644      1647      1649
      1647      1649      1652      1653      1647      1649      1652      1654
      1647      1649      1652      1655      1648      1647      1649      1650
      1648      1647      1649      1651      1648      1647      1649      1652
      1649      1652      1655      1656      1649      1652      1655      1657
      1649      1652      1655      1658      1650      1649      1652      1653
      1650      1649      1652      1654      1650      1649      1652      1655
      1651      1649      1652      1653      1651      1649      1652      1654
      1651      1649      1652      1655      1652      1655      1658      1659
      1652      1655      1658      1660      1652      1655      1658      1661
      1653      1652      1655      1656      1653      1652      1655      1657
      1653      1652      1655      1658      1654      1652      1655      1656
      1654      1652      1655      1657      1654      1652      1655      1658
      1655      1658      1661      1662      1655      1658      1661      1663
      1655      1658      1661      1664      1656      1655      1658      1659
      1656      1655      1658      1660      1656      1655      1658      1661
      1657      1655      1658      1659      1657      1655      1658      1660
      1657      1655      1658      1661      1658      1661      1664      1665
      1658      1661      1664      1666      1658      1661      1664      1667
      1659      1658      1661      1662      1659      1658      1661      1663
      1659      1658      1661      1664      1660      1658      1661      1662
      1660      1658      1661      1663      1660      1658      1661      1664
      1662      1661      1664      1665      1662      1661      1664      1666
      1662      1661      1664      1667      1663      1661      1664      1665
      1663      1661      1664      1666      1663      1661      1664      1667
      1668      1671      1674      1675      1668      1671      1674      1676
      1668      1671      1674      1677      1669      1668      1671      1672
      1669      1668      1671      1673      1669      1668      1671      1674
      1670      1668      1671      1672      1670      1668      1671      1673
      1670      1668      1671      1674      1671      1674      1677      1678
      1671      1674      1677      1679      1671      1674      1677      1680
      1672      1671      1674      1675      1672      1671      1674      1676
      1672      1671      1674      1677      1673      1671      1674      1675
      1673      1671      1674      1676      1673      1671      1674      1677
      1674      1677      1680      1681      1674      1677      1680      1682
      1674      1677      1680      1683      1675      1674      1677      1678
      1675      1674      1677      1679      1675      1674      1677      1680
      1676      1674      1677      1678      1676      1674      1677      1679
      1676      1674      1677      1680      1677      1680      1683      1684
      1677      1680      1683      1685      1677      1680      1683      1686
      1678      1677      1680      1681      1678      1677      1680      1682
      1678      1677      1680      1683      1679      1677      1680      1681
      1679      1677      1680      1682      1679      1677      1680      1683
      1680      1683      1686      1687      1680      1683      1686      1688
      1680      1683      1686      1689      1681      1680      1683      1684
      1681      1680      1683      1685      1681      1680      1683      1686
      1682      1680      1683      1684      1682      1680      1683      1685
      1682      1680      1683      1686      1683      1686      1689      1690
      1683      1686      1689      1691      1683      1686      1689      1692
      1684      1683      1686      1687      1684      1683      1686      1688
      1684      1683      1686      1689      1685      1683      1686      1687
      1685      1683      1686      1688      1685      1683      1686      1689
      1686      1689      1692      1693      1686      1689      1692      1694
      1686      1689      1692      1695      1687      1686      1689      1690
      1687      1686      1689      1691      1687      1686      1689      1692
      1688      1686      1689      1690      1688      1686      1689      1691
      1688      1686      1689      1692      1689      1692      1695      1696
      1689      1692      1695      1697      1689      1692      1695      1698
      1690      1689      1692      1693      1690      1689      1692      1694
      1690      1689      1692      1695      1691      1689      1692      1693
      1691      1689      1692      1694      1691      1689      1692      1695
      1692      1695      1698      1699      1692      1695      1698      1700
      1692      1695      1698      1701      1693      1692      1695      1696
      1693      1692      1695      1697      1693      1692      1695      1698
      1694      1692      1695      1696      1694      1692      1695      1697
      1694      1692      1695      1698      1695      1698      1701      1702
      1695      1698      1701      1703      1695      1698      1701      1704
      1696      1695      1698      1699      1696      1695      1698      1700
      1696      1695      1698      1701      1697      1695      1698      1699
      1697      1695      1698      1700      1697      1695      1698      1701
      1698      1701      1704      1705      1698      1701      1704      1706
      1698      1701      1704      1707      1699      1698      1701      1702
      1699      1698      1701      1703      1699      1698      1701      1704
      1700      1698      1701      1702      1700      1698      1701      1703
      1700      1698      1701      1704      1701      1704      1707      1708
      1701      1704      1707      1709      1701      1704      1707      1710
      1702      1701      1704      1705      1702      1701      1704      1706
      1702      1701      1704      1707      1703      1701      1704      1705
      1703      1701      1704      1706      1703      1701      1704      1707
      1705      1704      1707      1708      1705      1704      1707      1709
      1705      1704      1707      1710      1706      1704      1707      1708
      1706      1704      1707      1709      1706      1704      1707      1710
      1711      1715      1718      1719      1711      1715      1718      1720
      1711      1715      1718      1725      1712      1711      1715      1716
      1712      1711      1715      1717      1712      1711      1715      1718
      1713      1711      1715      1716      1713      1711      1715      1717
      1713      1711      1715      1718      1714      1711      1715      1716
      1714      1711      1715      1717      1714      1711      1715      1718
      1715      1718      1725      1721      1716      1715      1718      1719
      1716      1715      1718      1720      1716      1715      1718      1725
      1717      1715      1718      1719      1717      1715      1718      1720
      1717      1715      1718      1725      1718      1725      1721      1722
      1718      1725      1721      1723      1718      1725      1721      1724
      1719      1718      1725      1721      1720      1718      1725      1721
      1721      1724      1726      1727      1721      1724      1726      1728
      1721      1724      1726      1729      1722      1721      1724      1726
      1723      1721      1724      1726      1724      1726      1729      1730
      1724      1726      1729      1731      1724      1726      1729      1737
      1725      1721      1724      1726      1726      1729      1731      1732
      1726      1729      1737      1738      1726      1729      1737      1739
      1726      1729      1737      1740      1727      1726      1729      1730
      1727      1726      1729      1731      1727      1726      1729      1737
      1728      1726      1729      1730      1728      1726      1729      1731
      1728      1726      1729      1737      1729      1731      1732      1733
      1729      1731      1732      1734      1729      1737      1740      1741
      1730      1729      1731      1732      1730      1729      1737      1738
      1730      1729      1737      1739      1730      1729      1737      1740
      1731      1729      1737      1738      1731      1729      1737      1739
      1731      1729      1737      1740      1731      1732      1734      1735
      1731      1732      1734      1736      1731      1732      1734      1746
      1732      1731      1729      1737      1732      1734      1746      1747
      1732      1734      1746      1748      1732      1734      1746      1749
      1733      1732      1734      1735      1733      1732      1734      1736
      1733      1732      1734      1746      1734      1746      1749      1750
      1734      1746      1749      1751      1734      1746      1749      1752
      1735      1734      1746      1747      1735      1734      1746      1748
      1735      1734      1746      1749      1736      1734      1746      1747
      1736      1734      1746      1748      1736      1734      1746      1749
      1737      1740      1741      1742      1737      1740      1741      1743
      1738      1737      1740      1741      1739      1737      1740      1741
      1740      1741      1743      1744      1740      1741      1743      1745
      1740      1741      1743      1787      1741      1743      1787      1788
      1741      1743      1787      1789      1741      1743      1787      1790
      1742      1741      1743      1744      1742      1741      1743      1745
      1742      1741      1743      1787      1743      1787      1790      1791
      1743      1787      1790      1792      1743      1787      1790      1793
      1744      1743      1787      1788      1744      1743      1787      1789
      1744      1743      1787      1790      1745      1743      1787      1788
      1745      1743      1787      1789      1745      1743      1787      1790
      1746      1749      1752      1753      1746      1749      1752      1754
      1746      1749      1752      1755      1747      1746      1749      1750
      1747      1746      1749      1751      1747      1746      1749      1752
      1748      1746      1749      1750      1748      1746      1749      1751
      1748      1746      1749      1752      1749      1752      1755      1756
      1749      1752      1755      1757      1749      1752      1755      1758
      1750      1749      1752      1753      1750      1749      1752      1754
      1750      1749      1752      1755      1751      1749      1752      1753
      1751      1749      1752      1754      1751      1749      1752      1755
      1752      1755      1758      1759      1752      1755      1758      1760
      1752      1755      1758      1761      1753      1752      1755      1756
      1753      1752      1755      1757      1753      1752      1755      1758
      1754      1752      1755      1756      1754      1752      1755      1757
      1754      1752      1755      1758      1755      1758      1761      1762
      1755      1758      1761      1763      1755      1758      1761      1764
      1756      1755      1758      1759      1756      1755      1758      1760
      1756      1755      1758      1761      1757      1755      1758      1759
      1757      1755      1758      1760      1757      1755      1758      1761
      1758      1761      1764      1765      1758      1761      1764      1766
      1759      1758      1761      1762      1759      1758      1761      1763
      1759      1758      1761      1764      1760      1758      1761      1762
      1760      1758      1761      1763      1760      1758      1761      1764
      1761      1764      1766      1767      1761      1764      1766      1768
      1762      1761      1764      1765      1762      1761      1764      1766
      1763      1761      1764      1765      1763      1761      1764      1766
      1764      1766      1768      1769      1764      1766      1768      1770
      1764      1766      1768      1771      1765      1764      1766      1767
      1765      1764      1766      1768      1766      1768      1771      1772
      1766      1768      1771      1773      1766      1768      1771      1774
      1767      1766      1768      1769      1767      1766      1768      1770
      1767      1766      1768      1771      1768      1771      1774      1775
      1768      1771      1774      1776      1768      1771      1774      1777
      1769      1768      1771      1772      1769      1768      1771      1773
      1769      1768      1771      1774      1770      1768      1771      1772
      1770      1768      1771      1773      1770      1768      1771      1774
      1771      1774      1777      1778      1771      1774      1777      1779
      1771      1774      1777      1780      1772      1771      1774      1775
      1772      1771      1774      1776      1772      1771      1774      1777
      1773      1771      1774      1775      1773      1771      1774      1776
      1773      1771      1774      1777      1774      1777      1780      1781
      1774      1777      1780      1782      1774      1777      1780      1783
      1775      1774      1777      1778      1775      1774      1777      1779
      1775      1774      1777      1780      1776      1774      1777      1778
      1776      1774      1777      1779      1776      1774      1777      1780
      1777      1780      1783      1784      1777      1780      1783      1785
      1777      1780      1783      1786      1778      1777      1780      1781
      1778      1777      1780      1782      1778      1777      1780      1783
      1779      1777      1780      1781      1779      1777      1780      1782
      1779      1777      1780      1783      1781      1780      1783      1784
      1781      1780      1783      1785      1781      1780      1783      1786
      1782      1780      1783      1784      1782      1780      1783      1785
      1782      1780      1783      1786      1787      1790      1793      1794
      1787      1790      1793      1795      1787      1790      1793      1796
      1788      1787      1790      1791      1788      1787      1790      1792
      1788      1787      1790      1793      1789      1787      1790      1791
      1789      1787      1790      1792      1789      1787      1790      1793
      1790      1793      1796      1797      1790      1793      1796      1798
      1790      1793      1796      1799      1791      1790      1793      1794
      1791      1790      1793      1795      1791      1790      1793      1796
      1792      1790      1793      1794      1792      1790      1793      1795
      1792      1790      1793      1796      1793      1796      1799      1800
      1793      1796      1799      1801      1793      1796      1799      1802
      1794      1793      1796      1797      1794      1793      1796      1798
      1794      1793      1796      1799      1795      1793      1796      1797
      1795      1793      1796      1798      1795      1793      1796      1799
      1796      1799      1802      1803      1796      1799      1802      1804
      1796      1799      1802      1805      1797      1796      1799      1800
      1797      1796      1799      1801      1797      1796      1799      1802
      1798      1796      1799      1800      1798      1796      1799      1801
      1798      1796      1799      1802      1799      1802      1805      1806
      1799      1802      1805      1807      1800      1799      1802      1803
      1800      1799      1802      1804      1800      1799      1802      1805
      1801      1799      1802      1803      1801      1799      1802      1804
      1801      1799      1802      1805      1802      1805      1807      1808
      1802      1805      1807      1809      1803      1802      1805      1806
      1803      1802      1805      1807      1804      1802      1805      1806
      1804      1802      1805      1807      1805      1807      1809      1810
      1805      1807      1809      1811      1805      1807      1809      1812
      1806      1805      1807      1808      1806      1805      1807      1809
      1807      1809      1812      1813      1807      1809      1812      1814
      1807      1809      1812      1815      1808      1807      1809      1810
      1808      1807      1809      1811      1808      1807      1809      1812
      1809      1812      1815      1816      1809      1812      1815      1817
      1809      1812      1815      1818      1810      1809      1812      1813
      1810      1809      1812      1814      1810      1809      1812      1815
      1811      1809      1812      1813      1811      1809      1812      1814
      1811      1809      1812      1815      1812      1815      1818      1819
      1812      1815      1818      1820      1812      1815      1818      1821
      1813      1812      1815      1816      1813      1812      1815      1817
      1813      1812      1815      1818      1814      1812      1815      1816
      1814      1812      1815      1817      1814      1812      1815      1818
      1815      1818      1821      1822      1815      1818      1821      1823
      1815      1818      1821      1824      1816      1815      1818      1819
      1816      1815      1818      1820      1816      1815      1818      1821
      1817      1815      1818      1819      1817      1815      1818      1820
      1817      1815      1818      1821      1818      1821      1824      1825
      1818      1821      1824      1826      1818      1821      1824      1827
      1819      1818      1821      1822      1819      1818      1821      1823
      1819      1818      1821      1824      1820      1818      1821      1822
      1820      1818      1821      1823      1820      1818      1821      1824
      1821      1824      1827      1828      1821      1824      1827      1829
      1821      1824      1827      1830      1822      1821      1824      1825
      1822      1821      1824      1826      1822      1821      1824      1827
      1823      1821      1824      1825      1823      1821      1824      1826
      1823      1821      1824      1827      1824      1827      1830      1831
      1824      1827      1830      1832      1824      1827      1830      1833
      1825      1824      1827      1828      1825      1824      1827      1829
      1825      1824      1827      1830      1826      1824      1827      1828
      1826      1824      1827      1829      1826      1824      1827      1830
      1828      1827      1830      1831      1828      1827      1830      1832
      1828      1827      1830      1833      1829      1827      1830      1831
      1829      1827      1830      1832      1829      1827      1830      1833
      1834      1839      1841      1842      1834      1839      1843      1844
      1834      1839      1843      1845      1834      1839      1843      1850
      1835      1834      1837      1838      1835      1834      1839      1840
      1835      1834      1839      1841      1835      1834      1839      1843
      1836      1834      1837      1838      1836      1834      1839      1840
      1836      1834      1839      1841      1836      1834      1839      1843
      1837      1834      1839      1840      1837      1834      1839      1841
      1837      1834      1839      1843      1838      1837      1834      1839
      1839      1843      1850      1846      1840      1839      1841      1842
      1840      1839      1843      1844      1840      1839      1843      1845
      1840      1839      1843      1850      1841      1839      1843      1844
      1841      1839      1843      1845      1841      1839      1843      1850
      1842      1841      1839      1843      1843      1850      1846      1847
      1843      1850      1846      1848      1843      1850      1846      1849
      1844      1843      1850      1846      1845      1843      1850      1846
      1846      1849      1851      1852      1846      1849      1851      1853
      1846      1849      1851      1854      1847      1846      1849      1851
      1848      1846      1849      1851      1849      1851      1854      1855
      1849      1851      1854      1856      1849      1851      1854      1862
      1850      1846      1849      1851      1851      1854      1856      1857
      1851      1854      1862      1863      1851      1854      1862      1864
      1851      1854      1862      1865      1852      1851      1854      1855
      1852      1851      1854      1856      1852      1851      1854      1862
      1853      1851      1854      1855      1853      1851      1854      1856
      1853      1851      1854      1862      1854      1856      1857      1858
      1854      1856      1857      1859      1854      1862      1865      1866
      1855      1854      1856      1857      1855      1854      1862      1863
      1855      1854      1862      1864      1855      1854      1862      1865
      1856      1854      1862      1863      1856      1854      1862      1864
      1856      1854      1862      1865      1856      1857      1859      1860
      1856      1857      1859      1861      1856      1857      1859      1871
      1857      1856      1854      1862      1857      1859      1871      1872
      1857      1859      1871      1873      1857      1859      1871      1874
      1858      1857      1859      1860      1858      1857      1859      1861
      1858      1857      1859      1871      1859      1871      1874      1875
      1859      1871      1874      1876      1859      1871      1874      1877
      1860      1859      1871      1872      1860      1859      1871      1873
      1860      1859      1871      1874      1861      1859      1871      1872
      1861      1859      1871      1873      1861      1859      1871      1874
      1862      1865      1866      1867      1862      1865      1866      1868
      1863      1862      1865      1866      1864      1862      1865      1866
      1865      1866      1868      1869      1865      1866      1868      1870
      1865      1866      1868      1912      1866      1868      1912      1913
      1866      1868      1912      1914      1866      1868      1912      1915
      1867      1866      1868      1869      1867      1866      1868      1870
      1867      1866      1868      1912      1868      1912      1915      1916
      1868      1912      1915      1917      1868      1912      1915      1918
      1869      1868      1912      1913      1869      1868      1912      1914
      1869      1868      1912      1915      1870      1868      1912      1913
      1870      1868      1912      1914      1870      1868      1912      1915
      1871      1874      1877      1878      1871      1874      1877      1879
      1871      1874      1877      1880      1872      1871      1874      1875
      1872      1871      1874      1876      1872      1871      1874      1877
      1873      1871      1874      1875      1873      1871      1874      1876
      1873      1871      1874      1877      1874      1877      1880      1881
      1874      1877      1880      1882      1874      1877      1880      1883
      1875      1874      1877      1878      1875      1874      1877      1879
      1875      1874      1877      1880      1876      1874      1877      1878
      1876      1874      1877      1879      1876      1874      1877      1880
      1877      1880      1883      1884      1877      1880      1883      1885
      1877      1880      1883      1886      1878      1877      1880      1881
      1878      1877      1880      1882      1878      1877      1880      1883
      1879      1877      1880      1881      1879      1877      1880      1882
      1879      1877      1880      1883      1880      1883      1886      1887
      1880      1883      1886      1888      1880      1883      1886      1889
      1881      1880      1883      1884      1881      1880      1883      1885
      1881      1880      1883      1886      1882      1880      1883      1884
      1882      1880      1883      1885      1882      1880      1883      1886
      1883      1886      1889      1890      1883      1886      1889      1891
      1884      1883      1886      1887      1884      1883      1886      1888
      1884      1883      1886      1889      1885      1883      1886      1887
      1885      1883      1886      1888      1885      1883      1886      1889
      1886      1889      1891      1892      1886      1889      1891      1893
      1887      1886      1889      1890      1887      1886      1889      1891
      1888      1886      1889      1890      1888      1886      1889      1891
      1889      1891      1893      1894      1889      1891      1893      1895
      1889      1891      1893      1896      1890      1889      1891      1892
      1890      1889      1891      1893      1891      1893      1896      1897
      1891      1893      1896      1898      1891      1893      1896      1899
      1892      1891      1893      1894      1892      1891      1893      1895
      1892      1891      1893      1896      1893      1896      1899      1900
      1893      1896      1899      1901      1893      1896      1899      1902
      1894      1893      1896      1897      1894      1893      1896      1898
      1894      1893      1896      1899      1895      1893      1896      1897
      1895      1893      1896      1898      1895      1893      1896      1899
      1896      1899      1902      1903      1896      1899      1902      1904
      1896      1899      1902      1905      1897      1896      1899      1900
      1897      1896      1899      1901      1897      1896      1899      1902
      1898      1896      1899      1900      1898      1896      1899      1901
      1898      1896      1899      1902      1899      1902      1905      1906
      1899      1902      1905      1907      1899      1902      1905      1908
      1900      1899      1902      1903      1900      1899      1902      1904
      1900      1899      1902      1905      1901      1899      1902      1903
      1901      1899      1902      1904      1901      1899      1902      1905
      1902      1905      1908      1909      1902      1905      1908      1910
      1902      1905      1908      1911      1903      1902      1905      1906
      1903      1902      1905      1907      1903      1902      1905      1908
      1904      1902      1905      1906      1904      1902      1905      1907
      1904      1902      1905      1908      1906      1905      1908      1909
      1906      1905      1908      1910      1906      1905      1908      1911
      1907      1905      1908      1909      1907      1905      1908      1910
      1907      1905      1908      1911      1912      1915      1918      1919
      1912      1915      1918      1920      1912      1915      1918      1921
      1913      1912      1915      1916      1913      1912      1915      1917
      1913      1912      1915      1918      1914      1912      1915      1916
      1914      1912      1915      1917      1914      1912      1915      1918
      1915      1918      1921      1922      1915      1918      1921      1923
      1915      1918      1921      1924      1916      1915      1918      1919
      1916      1915      1918      1920      1916      1915      1918      1921
      1917      1915      1918      1919      1917      1915      1918      1920
      1917      1915      1918      1921      1918      1921      1924      1925
      1918      1921      1924      1926      1918      1921      1924      1927
      1919      1918      1921      1922      1919      1918      1921      1923
      1919      1918      1921      1924      1920      1918      1921      1922
      1920      1918      1921      1923      1920      1918      1921      1924
      1921      1924      1927      1928      1921      1924      1927      1929
      1921      1924      1927      1930      1922      1921      1924      1925
      1922      1921      1924      1926      1922      1921      1924      1927
      1923      1921      1924      1925      1923      1921      1924      1926
      1923      1921      1924      1927      1924      1927      1930      1931
      1924      1927      1930      1932      1924      1927      1930      1933
      1925      1924      1927      1928      1925      1924      1927      1929
      1925      1924      1927      1930      1926      1924      1927      1928
      1926      1924      1927      1929      1926      1924      1927      1930
      1927      1930      1933      1934      1927      1930      1933      1935
      1927      1930      1933      1936      1928      1927      1930      1931
      1928      1927      1930      1932      1928      1927      1930      1933
      1929      1927      1930      1931      1929      1927      1930      1932
      1929      1927      1930      1933      1930      1933      1936      1937
      1930      1933      1936      1938      1930      1933      1936      1939
      1931      1930      1933      1934      1931      1930      1933      1935
      1931      1930      1933      1936      1932      1930      1933      1934
      1932      1930      1933      1935      1932      1930      1933      1936
      1933      1936      1939      1940      1933      1936      1939      1941
      1933      1936      1939      1942      1934      1933      1936      1937
      1934      1933      1936      1938      1934      1933      1936      1939
      1935      1933      1936      1937      1935      1933      1936      1938
      1935      1933      1936      1939      1936      1939      1942      1943
      1936      1939      1942      1944      1936      1939      1942      1945
      1937      1936      1939      1940      1937      1936      1939      1941
      1937      1936      1939      1942      1938      1936      1939      1940
      1938      1936      1939      1941      1938      1936      1939      1942
      1939      1942      1945      1946      1939      1942      1945      1947
      1939      1942      1945      1948      1940      1939      1942      1943
      1940      1939      1942      1944      1940      1939      1942      1945
      1941      1939      1942      1943      1941      1939      1942      1944
      1941      1939      1942      1945      1942      1945      1948      1949
      1942      1945      1948      1950      1942      1945      1948      1951
      1943      1942      1945      1946      1943      1942      1945      1947
      1943      1942      1945      1948      1944      1942      1945      1946
      1944      1942      1945      1947      1944      1942      1945      1948
      1945      1948      1951      1952      1945      1948      1951      1953
      1945      1948      1951      1954      1946      1945      1948      1949
      1946      1945      1948      1950      1946      1945      1948      1951
      1947      1945      1948      1949      1947      1945      1948      1950
      1947      1945      1948      1951      1949      1948      1951      1952
      1949      1948      1951      1953      1949      1948      1951      1954
      1950      1948      1951      1952      1950      1948      1951      1953
      1950      1948      1951      1954      1955      1959      1962      1963
      1955      1959      1962      1964      1955      1959      1962      1969
      1956      1955      1959      1960      1956      1955      1959      1961
      1956      1955      1959      1962      1957      1955      1959      1960
      1957      1955      1959      1961      1957      1955      1959      1962
      1958      1955      1959      1960      1958      1955      1959      1961
      1958      1955      1959      1962      1959      1962      1969      1965
      1960      1959      1962      1963      1960      1959      1962      1964
      1960      1959      1962      1969      1961      1959      1962      1963
      1961      1959      1962      1964      1961      1959      1962      1969
      1962      1969      1965      1966      1962      1969      1965      1967
      1962      1969      1965      1968      1963      1962      1969      1965
      1964      1962      1969      1965      1965      1968      1970      1971
      1965      1968      1970      1972      1965      1968      1970      1973
      1966      1965      1968      1970      1967      1965      1968      1970
      1968      1970      1973      1974      1968      1970      1973      1975
      1968      1970      1973      1981      1969      1965      1968      1970
      1970      1973      1975      1976      1970      1973      1981      1982
      1970      1973      1981      1983      1970      1973      1981      1984
      1971      1970      1973      1974      1971      1970      1973      1975
      1971      1970      1973      1981      1972      1970      1973      1974
      1972      1970      1973      1975      1972      1970      1973      1981
      1973      1975      1976      1977      1973      1975      1976      1978
      1973      1981      1984      1985      1974      1973      1975      1976
      1974      1973      1981      1982      1974      1973      1981      1983
      1974      1973      1981      1984      1975      1973      1981      1982
      1975      1973      1981      1983      1975      1973      1981      1984
      1975      1976      1978      1979      1975      1976      1978      1980
      1975      1976      1978      1990      1976      1975      1973      1981
      1976      1978      1990      1991      1976      1978      1990      1992
      1976      1978      1990      1993      1977      1976      1978      1979
      1977      1976      1978      1980      1977      1976      1978      1990
      1978      1990      1993      1994      1978      1990      1993      1995
      1978      1990      1993      1996      1979      1978      1990      1991
      1979      1978      1990      1992      1979      1978      1990      1993
      1980      1978      1990      1991      1980      1978      1990      1992
      1980      1978      1990      1993      1981      1984      1985      1986
      1981      1984      1985      1987      1982      1981      1984      1985
      1983      1981      1984      1985      1984      1985      1987      1988
      1984      1985      1987      1989      1984      1985      1987      2034
      1985      1987      2034      2035      1985      1987      2034      2036
      1985      1987      2034      2037      1986      1985      1987      1988
      1986      1985      1987      1989      1986      1985      1987      2034
      1987      2034      2037      2038      1987      2034      2037      2039
      1987      2034      2037      2040      1988      1987      2034      2035
      1988      1987      2034      2036      1988      1987      2034      2037
      1989      1987      2034      2035      1989      1987      2034      2036
      1989      1987      2034      2037      1990      1993      1996      1997
      1990      1993      1996      1998      1990      1993      1996      1999
      1991      1990      1993      1994      1991      1990      1993      1995
      1991      1990      1993      1996      1992      1990      1993      1994
      1992      1990      1993      1995      1992      1990      1993      1996
      1993      1996      1999      2000      1993      1996      1999      2001
      1993      1996      1999      2002      1994      1993      1996      1997
      1994      1993      1996      1998      1994      1993      1996      1999
      1995      1993      1996      1997      1995      1993      1996      1998
      1995      1993      1996      1999      1996      1999      2002      2003
      1996      1999      2002      2004      1996      1999      2002      2005
      1997      1996      1999      2000      1997      1996      1999      2001
      1997      1996      1999      2002      1998      1996      1999      2000
      1998      1996      1999      2001      1998      1996      1999      2002
      1999      2002      2005      2006      1999      2002      2005      2007
      1999      2002      2005      2008      2000      1999      2002      2003
      2000      1999      2002      2004      2000      1999      2002      2005
      2001      1999      2002      2003      2001      1999      2002      2004
      2001      1999      2002      2005      2002      2005      2008      2009
      2002      2005      2008      2010      2002      2005      2008      2013
      2003      2002      2005      2006      2003      2002      2005      2007
      2003      2002      2005      2008      2004      2002      2005      2006
      2004      2002      2005      2007      2004      2002      2005      2008
      2005      2008      2010      2011      2005      2008      2010      2012
      2005      2008      2010      2013      2005      2008      2013      2010
      2005      2008      2013      2014      2005      2008      2013      2015
      2006      2005      2008      2009      2006      2005      2008      2010
      2006      2005      2008      2013      2007      2005      2008      2009
      2007      2005      2008      2010      2007      2005      2008      2013
      2008      2010      2013      2014      2008      2010      2013      2015
      2008      2013      2010      2011      2008      2013      2010      2012
      2008      2013      2015      2016      2008      2013      2015      2017
      2008      2013      2015      2018      2009      2008      2010      2011
      2009      2008      2010      2012      2009      2008      2010      2013
      2009      2008      2013      2010      2009      2008      2013      2014
      2009      2008      2013      2015      2010      2008      2013      2014
      2010      2008      2013      2015      2010      2013      2015      2016
      2010      2013      2015      2017      2010      2013      2015      2018
      2011      2010      2008      2013      2011      2010      2013      2014
      2011      2010      2013      2015      2012      2010      2008      2013
      2012      2010      2013      2014      2012      2010      2013      2015
      2013      2015      2018      2019      2013      2015      2018      2020
      2013      2015      2018      2021      2014      2013      2015      2016
      2014      2013      2015      2017      2014      2013      2015      2018
      2015      2018      2021      2022      2015      2018      2021      2023
      2015      2018      2021      2024      2016      2015      2018      2019
      2016      2015      2018      2020      2016      2015      2018      2021
      2017      2015      2018      2019      2017      2015      2018      2020
      2017      2015      2018      2021      2018      2021      2024      2025
      2018      2021      2024      2026      2018      2021      2024      2027
      2019      2018      2021      2022      2019      2018      2021      2023
      2019      2018      2021      2024      2020      2018      2021      2022
      2020      2018      2021      2023      2020      2018      2021      2024
      2021      2024      2027      2028      2021      2024      2027      2029
      2021      2024      2027      2030      2022      2021      2024      2025
      2022      2021      2024      2026      2022      2021      2024      2027
      2023      2021      2024      2025      2023      2021      2024      2026
      2023      2021      2024      2027      2024      2027      2030      2031
      2024      2027      2030      2032      2024      2027      2030      2033
      2025      2024      2027      2028      2025      2024      2027      2029
      2025      2024      2027      2030      2026      2024      2027      2028
      2026      2024      2027      2029      2026      2024      2027      2030
      2028      2027      2030      2031      2028      2027      2030      2032
      2028      2027      2030      2033      2029      2027      2030      2031
      2029      2027      2030      2032      2029      2027      2030      2033
      2034      2037      2040      2041      2034      2037      2040      2042
      2034      2037      2040      2043      2035      2034      2037      2038
      2035      2034      2037      2039      2035      2034      2037      2040
      2036      2034      2037      2038      2036      2034      2037      2039
      2036      2034      2037      2040      2037      2040      2043      2044
      2037      2040      2043      2045      2037      2040      2043      2046
      2038      2037      2040      2041      2038      2037      2040      2042
      2038      2037      2040      2043      2039      2037      2040      2041
      2039      2037      2040      2042      2039      2037      2040      2043
      2040      2043      2046      2047      2040      2043      2046      2048
      2040      2043      2046      2049      2041      2040      2043      2044
      2041      2040      2043      2045      2041      2040      2043      2046
      2042      2040      2043      2044      2042      2040      2043      2045
      2042      2040      2043      2046      2043      2046      2049      2050
      2043      2046      2049      2051      2043      2046      2049      2052
      2044      2043      2046      2047      2044      2043      2046      2048
      2044      2043      2046      2049      2045      2043      2046      2047
      2045      2043      2046      2048      2045      2043      2046      2049
      2046      2049      2052      2053      2046      2049      2052      2054
      2046      2049      2052      2055      2047      2046      2049      2050
      2047      2046      2049      2051      2047      2046      2049      2052
      2048      2046      2049      2050      2048      2046      2049      2051
      2048      2046      2049      2052      2049      2052      2055      2056
      2049      2052      2055      2057      2049      2052      2055      2058
      2050      2049      2052      2053      2050      2049      2052      2054
      2050      2049      2052      2055      2051      2049      2052      2053
      2051      2049      2052      2054      2051      2049      2052      2055
      2052      2055      2058      2059      2052      2055      2058      2060
      2052      2055      2058      2061      2053      2052      2055      2056
      2053      2052      2055      2057      2053      2052      2055      2058
      2054      2052      2055      2056      2054      2052      2055      2057
      2054      2052      2055      2058      2055      2058      2061      2062
      2055      2058      2061      2063      2055      2058      2061      2064
      2056      2055      2058      2059      2056      2055      2058      2060
      2056      2055      2058      2061      2057      2055      2058      2059
      2057      2055      2058      2060      2057      2055      2058      2061
      2058      2061      2064      2065      2058      2061      2064      2066
      2058      2061      2064      2067      2059      2058      2061      2062
      2059      2058      2061      2063      2059      2058      2061      2064
      2060      2058      2061      2062      2060      2058      2061      2063
      2060      2058      2061      2064      2061      2064      2067      2068
      2061      2064      2067      2069      2061      2064      2067      2070
      2062      2061      2064      2065      2062      2061      2064      2066
      2062      2061      2064      2067      2063      2061      2064      2065
      2063      2061      2064      2066      2063      2061      2064      2067
      2064      2067      2070      2071      2064      2067      2070      2072
      2064      2067      2070      2073      2065      2064      2067      2068
      2065      2064      2067      2069      2065      2064      2067      2070
      2066      2064      2067      2068      2066      2064      2067      2069
      2066      2064      2067      2070      2067      2070      2073      2074
      2067      2070      2073      2075      2067      2070      2073      2076
      2068      2067      2070      2071      2068      2067      2070      2072
      2068      2067      2070      2073      2069      2067      2070      2071
      2069      2067      2070      2072      2069      2067      2070      2073
      2071      2070      2073      2074      2071      2070      2073      2075
      2071      2070      2073      2076      2072      2070      2073      2074
      2072      2070      2073      2075      2072      2070      2073      2076
      2077      2081      2084      2085      2077      2081      2084      2086
      2077      2081      2084      2091      2078      2077      2081      2082
      2078      2077      2081      2083      2078      2077      2081      2084
      2079      2077      2081      2082      2079      2077      2081      2083
      2079      2077      2081      2084      2080      2077      2081      2082
      2080      2077      2081      2083      2080      2077      2081      2084
      2081      2084      2091      2087      2082      2081      2084      2085
      2082      2081      2084      2086      2082      2081      2084      2091
      2083      2081      2084      2085      2083      2081      2084      2086
      2083      2081      2084      2091      2084      2091      2087      2088
      2084      2091      2087      2089      2084      2091      2087      2090
      2085      2084      2091      2087      2086      2084      2091      2087
      2087      2090      2092      2093      2087      2090      2092      2094
      2087      2090      2092      2095      2088      2087      2090      2092
      2089      2087      2090      2092      2090      2092      2095      2096
      2090      2092      2095      2097      2090      2092      2095      2103
      2091      2087      2090      2092      2092      2095      2097      2098
      2092      2095      2103      2104      2092      2095      2103      2105
      2092      2095      2103      2106      2093      2092      2095      2096
      2093      2092      2095      2097      2093      2092      2095      2103
      2094      2092      2095      2096      2094      2092      2095      2097
      2094      2092      2095      2103      2095      2097      2098      2099
      2095      2097      2098      2100      2095      2103      2106      2107
      2096      2095      2097      2098      2096      2095      2103      2104
      2096      2095      2103      2105      2096      2095      2103      2106
      2097      2095      2103      2104      2097      2095      2103      2105
      2097      2095      2103      2106      2097      2098      2100      2101
      2097      2098      2100      2102      2097      2098      2100      2112
      2098      2097      2095      2103      2098      2100      2112      2113
      2098      2100      2112      2114      2098      2100      2112      2115
      2099      2098      2100      2101      2099      2098      2100      2102
      2099      2098      2100      2112      2100      2112      2115      2116
      2100      2112      2115      2117      2100      2112      2115      2118
      2101      2100      2112      2113      2101      2100      2112      2114
      2101      2100      2112      2115      2102      2100      2112      2113
      2102      2100      2112      2114      2102      2100      2112      2115
      2103      2106      2107      2108      2103      2106      2107      2109
      2104      2103      2106      2107      2105      2103      2106      2107
      2106      2107      2109      2110      2106      2107      2109      2111
      2106      2107      2109      2156      2107      2109      2156      2157
      2107      2109      2156      2158      2107      2109      2156      2159
      2108      2107      2109      2110      2108      2107      2109      2111
      2108      2107      2109      2156      2109      2156      2159      2160
      2109      2156      2159      2161      2109      2156      2159      2162
      2110      2109      2156      2157      2110      2109      2156      2158
      2110      2109      2156      2159      2111      2109      2156      2157
      2111      2109      2156      2158      2111      2109      2156      2159
      2112      2115      2118      2119      2112      2115      2118      2120
      2112      2115      2118      2121      2113      2112      2115      2116
      2113      2112      2115      2117      2113      2112      2115      2118
      2114      2112      2115      2116      2114      2112      2115      2117
      2114      2112      2115      2118      2115      2118      2121      2122
      2115      2118      2121      2123      2115      2118      2121      2124
      2116      2115      2118      2119      2116      2115      2118      2120
      2116      2115      2118      2121      2117      2115      2118      2119
      2117      2115      2118      2120      2117      2115      2118      2121
      2118      2121      2124      2125      2118      2121      2124      2126
      2118      2121      2124      2127      2119      2118      2121      2122
      2119      2118      2121      2123      2119      2118      2121      2124
      2120      2118      2121      2122      2120      2118      2121      2123
      2120      2118      2121      2124      2121      2124      2127      2128
      2121      2124      2127      2129      2121      2124      2127      2130
      2122      2121      2124      2125      2122      2121      2124      2126
      2122      2121      2124      2127      2123      2121      2124      2125
      2123      2121      2124      2126      2123      2121      2124      2127
      2124      2127      2130      2131      2124      2127      2130      2132
      2124      2127      2130      2135      2125      2124      2127      2128
      2125      2124      2127      2129      2125      2124      2127      2130
      2126      2124      2127      2128      2126      2124      2127      2129
      2126      2124      2127      2130      2127      2130      2132      2133
      2127      2130      2132      2134      2127      2130      2132      2135
      2127      2130      2135      2132      2127      2130      2135      2136
      2127      2130      2135      2137      2128      2127      2130      2131
      2128      2127      2130      2132      2128      2127      2130      2135
      2129      2127      2130      2131      2129      2127      2130      2132
      2129      2127      2130      2135      2130      2132      2135      2136
      2130      2132      2135      2137      2130      2135      2132      2133
      2130      2135      2132      2134      2130      2135      2137      2138
      2130      2135      2137      2139      2130      2135      2137      2140
      2131      2130      2132      2133      2131      2130      2132      2134
      2131      2130      2132      2135      2131      2130      2135      2132
      2131      2130      2135      2136      2131      2130      2135      2137
      2132      2130      2135      2136      2132      2130      2135      2137
      2132      2135      2137      2138      2132      2135      2137      2139
      2132      2135      2137      2140      2133      2132      2130      2135
      2133      2132      2135      2136      2133      2132      2135      2137
      2134      2132      2130      2135      2134      2132      2135      2136
      2134      2132      2135      2137      2135      2137      2140      2141
      2135      2137      2140      2142      2135      2137      2140      2143
      2136      2135      2137      2138      2136      2135      2137      2139
      2136      2135      2137      2140      2137      2140      2143      2144
      2137      2140      2143      2145      2137      2140      2143      2146
      2138      2137      2140      2141      2138      2137      2140      2142
      2138      2137      2140      2143      2139      2137      2140      2141
      2139      2137      2140      2142      2139      2137      2140      2143
      2140      2143      2146      2147      2140      2143      2146      2148
      2140      2143      2146      2149      2141      2140      2143      2144
      2141      2140      2143      2145      2141      2140      2143      2146
      2142      2140      2143      2144      2142      2140      2143      2145
      2142      2140      2143      2146      2143      2146      2149      2150
      2143      2146      2149      2151      2143      2146      2149      2152
      2144      2143      2146      2147      2144      2143      2146      2148
      2144      2143      2146      2149      2145      2143      2146      2147
      2145      2143      2146      2148      2145      2143      2146      2149
      2146      2149      2152      2153      2146      2149      2152      2154
      2146      2149      2152      2155      2147      2146      2149      2150
      2147      2146      2149      2151      2147      2146      2149      2152
      2148      2146      2149      2150      2148      2146      2149      2151
      2148      2146      2149      2152      2150      2149      2152      2153
      2150      2149      2152      2154      2150      2149      2152      2155
      2151      2149      2152      2153      2151      2149      2152      2154
      2151      2149      2152      2155      2156      2159      2162      2163
      2156      2159      2162      2164      2156      2159      2162      2165
      2157      2156      2159      2160      2157      2156      2159      2161
      2157      2156      2159      2162      2158      2156      2159      2160
      2158      2156      2159      2161      2158      2156      2159      2162
      2159      2162      2165      2166      2159      2162      2165      2167
      2159      2162      2165      2168      2160      2159      2162      2163
      2160      2159      2162      2164      2160      2159      2162      2165
      2161      2159      2162      2163      2161      2159      2162      2164
      2161      2159      2162      2165      2162      2165      2168      2169
      2162      2165      2168      2170      2162      2165      2168      2171
      2163      2162      2165      2166      2163      2162      2165      2167
      2163      2162      2165      2168      2164      2162      2165      2166
      2164      2162      2165      2167      2164      2162      2165      2168
      2165      2168      2171      2172      2165      2168      2171      2173
      2165      2168      2171      2174      2166      2165      2168      2169
      2166      2165      2168      2170      2166      2165      2168      2171
      2167      2165      2168      2169      2167      2165      2168      2170
      2167      2165      2168      2171      2168      2171      2174      2175
      2168      2171      2174      2176      2168      2171      2174      2177
      2169      2168      2171      2172      2169      2168      2171      2173
      2169      2168      2171      2174      2170      2168      2171      2172
      2170      2168      2171      2173      2170      2168      2171      2174
      2171      2174      2177      2178      2171      2174      2177      2179
      2171      2174      2177      2180      2172      2171      2174      2175
      2172      2171      2174      2176      2172      2171      2174      2177
      2173      2171      2174      2175      2173      2171      2174      2176
      2173      2171      2174      2177      2174      2177      2180      2181
      2174      2177      2180      2182      2174      2177      2180      2183
      2175      2174      2177      2178      2175      2174      2177      2179
      2175      2174      2177      2180      2176      2174      2177      2178
      2176      2174      2177      2179      2176      2174      2177      2180
      2177      2180      2183      2184      2177      2180      2183      2185
      2177      2180      2183      2186      2178      2177      2180      2181
      2178      2177      2180      2182      2178      2177      2180      2183
      2179      2177      2180      2181      2179      2177      2180      2182
      2179      2177      2180      2183      2180      2183      2186      2187
      2180      2183      2186      2188      2180      2183      2186      2189
      2181      2180      2183      2184      2181      2180      2183      2185
      2181      2180      2183      2186      2182      2180      2183      2184
      2182      2180      2183      2185      2182      2180      2183      2186
      2183      2186      2189      2190      2183      2186      2189      2191
      2183      2186      2189      2192      2184      2183      2186      2187
      2184      2183      2186      2188      2184      2183      2186      2189
      2185      2183      2186      2187      2185      2183      2186      2188
      2185      2183      2186      2189      2186      2189      2192      2193
      2186      2189      2192      2194      2186      2189      2192      2195
      2187      2186      2189      2190      2187      2186      2189      2191
      2187      2186      2189      2192      2188      2186      2189      2190
      2188      2186      2189      2191      2188      2186      2189      2192
      2190      2189      2192      2193      2190      2189      2192      2194
      2190      2189      2192      2195      2191      2189      2192      2193
      2191      2189      2192      2194      2191      2189      2192      2195
      2196      2200      2203      2204      2196      2200      2203      2205
      2196      2200      2203      2210      2197      2196      2200      2201
      2197      2196      2200      2202      2197      2196      2200      2203
      2198      2196      2200      2201      2198      2196      2200      2202
      2198      2196      2200      2203      2199      2196      2200      2201
      2199      2196      2200      2202      2199      2196      2200      2203
      2200      2203      2210      2206      2201      2200      2203      2204
      2201      2200      2203      2205      2201      2200      2203      2210
      2202      2200      2203      2204      2202      2200      2203      2205
      2202      2200      2203      2210      2203      2210      2206      2207
      2203      2210      2206      2208      2203      2210      2206      2209
      2204      2203      2210      2206      2205      2203      2210      2206
      2206      2209      2211      2212      2206      2209      2211      2213
      2206      2209      2211      2214      2207      2206      2209      2211
      2208      2206      2209      2211      2209      2211      2214      2215
      2209      2211      2214      2216      2209      2211      2214      2222
      2210      2206      2209      2211      2211      2214      2216      2217
      2211      2214      2222      2223      2211      2214      2222      2224
      2211      2214      2222      2225      2212      2211      2214      2215
      2212      2211      2214      2216      2212      2211      2214      2222
      2213      2211      2214      2215      2213      2211      2214      2216
      2213      2211      2214      2222      2214      2216      2217      2218
      2214      2216      2217      2219      2214      2222      2225      2226
      2215      2214      2216      2217      2215      2214      2222      2223
      2215      2214      2222      2224      2215      2214      2222      2225
      2216      2214      2222      2223      2216      2214      2222      2224
      2216      2214      2222      2225      2216      2217      2219      2220
      2216      2217      2219      2221      2216      2217      2219      2231
      2217      2216      2214      2222      2217      2219      2231      2232
      2217      2219      2231      2233      2217      2219      2231      2234
      2218      2217      2219      2220      2218      2217      2219      2221
      2218      2217      2219      2231      2219      2231      2234      2235
      2219      2231      2234      2236      2219      2231      2234      2237
      2220      2219      2231      2232      2220      2219      2231      2233
      2220      2219      2231      2234      2221      2219      2231      2232
      2221      2219      2231      2233      2221      2219      2231      2234
      2222      2225      2226      2227      2222      2225      2226      2228
      2223      2222      2225      2226      2224      2222      2225      2226
      2225      2226      2228      2229      2225      2226      2228      2230
      2225      2226      2228      2272      2226      2228      2272      2273
      2226      2228      2272      2274      2226      2228      2272      2275
      2227      2226      2228      2229      2227      2226      2228      2230
      2227      2226      2228      2272      2228      2272      2275      2276
      2228      2272      2275      2277      2228      2272      2275      2278
      2229      2228      2272      2273      2229      2228      2272      2274
      2229      2228      2272      2275      2230      2228      2272      2273
      2230      2228      2272      2274      2230      2228      2272      2275
      2231      2234      2237      2238      2231      2234      2237      2239
      2231      2234      2237      2240      2232      2231      2234      2235
      2232      2231      2234      2236      2232      2231      2234      2237
      2233      2231      2234      2235      2233      2231      2234      2236
      2233      2231      2234      2237      2234      2237      2240      2241
      2234      2237      2240      2242      2234      2237      2240      2243
      2235      2234      2237      2238      2235      2234      2237      2239
      2235      2234      2237      2240      2236      2234      2237      2238
      2236      2234      2237      2239      2236      2234      2237      2240
      2237      2240      2243      2244      2237      2240      2243      2245
      2237      2240      2243      2246      2238      2237      2240      2241
      2238      2237      2240      2242      2238      2237      2240      2243
      2239      2237      2240      2241      2239      2237      2240      2242
      2239      2237      2240      2243      2240      2243      2246      2247
      2240      2243      2246      2248      2240      2243      2246      2249
      2241      2240      2243      2244      2241      2240      2243      2245
      2241      2240      2243      2246      2242      2240      2243      2244
      2242      2240      2243      2245      2242      2240      2243      2246
      2243      2246      2249      2250      2243      2246      2249      2251
      2244      2243      2246      2247      2244      2243      2246      2248
      2244      2243      2246      2249      2245      2243      2246      2247
      2245      2243      2246      2248      2245      2243      2246      2249
      2246      2249      2251      2252      2246      2249      2251      2253
      2247      2246      2249      2250      2247      2246      2249      2251
      2248      2246      2249      2250      2248      2246      2249      2251
      2249      2251      2253      2254      2249      2251      2253      2255
      2249      2251      2253      2256      2250      2249      2251      2252
      2250      2249      2251      2253      2251      2253      2256      2257
      2251      2253      2256      2258      2251      2253      2256      2259
      2252      2251      2253      2254      2252      2251      2253      2255
      2252      2251      2253      2256      2253      2256      2259      2260
      2253      2256      2259      2261      2253      2256      2259      2262
      2254      2253      2256      2257      2254      2253      2256      2258
      2254      2253      2256      2259      2255      2253      2256      2257
      2255      2253      2256      2258      2255      2253      2256      2259
      2256      2259      2262      2263      2256      2259      2262      2264
      2256      2259      2262      2265      2257      2256      2259      2260
      2257      2256      2259      2261      2257      2256      2259      2262
      2258      2256      2259      2260      2258      2256      2259      2261
      2258      2256      2259      2262      2259      2262      2265      2266
      2259      2262      2265      2267      2259      2262      2265      2268
      2260      2259      2262      2263      2260      2259      2262      2264
      2260      2259      2262      2265      2261      2259      2262      2263
      2261      2259      2262      2264      2261      2259      2262      2265
      2262      2265      2268      2269      2262      2265      2268      2270
      2262      2265      2268      2271      2263      2262      2265      2266
      2263      2262      2265      2267      2263      2262      2265      2268
      2264      2262      2265      2266      2264      2262      2265      2267
      2264      2262      2265      2268      2266      2265      2268      2269
      2266      2265      2268      2270      2266      2265      2268      2271
      2267      2265      2268      2269      2267      2265      2268      2270
      2267      2265      2268      2271      2272      2275      2278      2279
      2272      2275      2278      2280      2272      2275      2278      2281
      2273      2272      2275      2276      2273      2272      2275      2277
      2273      2272      2275      2278      2274      2272      2275      2276
      2274      2272      2275      2277      2274      2272      2275      2278
      2275      2278      2281      2282      2275      2278      2281      2283
      2275      2278      2281      2284      2276      2275      2278      2279
      2276      2275      2278      2280      2276      2275      2278      2281
      2277      2275      2278      2279      2277      2275      2278      2280
      2277      2275      2278      2281      2278      2281      2284      2285
      2278      2281      2284      2286      2278      2281      2284      2287
      2279      2278      2281      2282      2279      2278      2281      2283
      2279      2278      2281      2284      2280      2278      2281      2282
      2280      2278      2281      2283      2280      2278      2281      2284
      2281      2284      2287      2288      2281      2284      2287      2289
      2281      2284      2287      2290      2282      2281      2284      2285
      2282      2281      2284      2286      2282      2281      2284      2287
      2283      2281      2284      2285      2283      2281      2284      2286
      2283      2281      2284      2287      2284      2287      2290      2291
      2284      2287      2290      2292      2285      2284      2287      2288
      2285      2284      2287      2289      2285      2284      2287      2290
      2286      2284      2287      2288      2286      2284      2287      2289
      2286      2284      2287      2290      2287      2290      2292      2293
      2287      2290      2292      2294      2288      2287      2290      2291
      2288      2287      2290      2292      2289      2287      2290      2291
      2289      2287      2290      2292      2290      2292      2294      2295
      2290      2292      2294      2296      2290      2292      2294      2297
      2291      2290      2292      2293      2291      2290      2292      2294
      2292      2294      2297      2298      2292      2294      2297      2299
      2292      2294      2297      2300      2293      2292      2294      2295
      2293      2292      2294      2296      2293      2292      2294      2297
      2294      2297      2300      2301      2294      2297      2300      2302
      2294      2297      2300      2303      2295      2294      2297      2298
      2295      2294      2297      2299      2295      2294      2297      2300
      2296      2294      2297      2298      2296      2294      2297      2299
      2296      2294      2297      2300      2297      2300      2303      2304
      2297      2300      2303      2305      2297      2300      2303      2306
      2298      2297      2300      2301      2298      2297      2300      2302
      2298      2297      2300      2303      2299      2297      2300      2301
      2299      2297      2300      2302      2299      2297      2300      2303
      2300      2303      2306      2307      2300      2303      2306      2308
      2300      2303      2306      2309      2301      2300      2303      2304
      2301      2300      2303      2305      2301      2300      2303      2306
      2302      2300      2303      2304      2302      2300      2303      2305
      2302      2300      2303      2306      2303      2306      2309      2310
      2303      2306      2309      2311      2303      2306      2309      2312
      2304      2303      2306      2307      2304      2303      2306      2308
      2304      2303      2306      2309      2305      2303      2306      2307
      2305      2303      2306      2308      2305      2303      2306      2309
      2306      2309      2312      2313      2306      2309      2312      2314
      2306      2309      2312      2315      2307      2306      2309      2310
      2307      2306      2309      2311      2307      2306      2309      2312
      2308      2306      2309      2310      2308      2306      2309      2311
      2308      2306      2309      2312      2309      2312      2315      2316
      2309      2312      2315      2317      2309      2312      2315      2318
      2310      2309      2312      2313      2310      2309      2312      2314
      2310      2309      2312      2315      2311      2309      2312      2313
      2311      2309      2312      2314      2311      2309      2312      2315
      2313      2312      2315      2316      2313      2312      2315      2317
      2313      2312      2315      2318      2314      2312      2315      2316
      2314      2312      2315      2317      2314      2312      2315      2318
      2319      2323      2326      2327      2319      2323      2326      2328
      2319      2323      2326      2333      2320      2319      2323      2324
      2320      2319      2323      2325      2320      2319      2323      2326
      2321      2319      2323      2324      2321      2319      2323      2325
      2321      2319      2323      2326      2322      2319      2323      2324
      2322      2319      2323      2325      2322      2319      2323      2326
      2323      2326      2333      2329      2324      2323      2326      2327
      2324      2323      2326      2328      2324      2323      2326      2333
      2325      2323      2326      2327      2325      2323      2326      2328
      2325      2323      2326      2333      2326      2333      2329      2330
      2326      2333      2329      2331      2326      2333      2329      2332
      2327      2326      2333      2329      2328      2326      2333      2329
      2329      2332      2334      2335      2329      2332      2334      2336
      2329      2332      2334      2337      2330      2329      2332      2334
      2331      2329      2332      2334      2332      2334      2337      2338
      2332      2334      2337      2339      2332      2334      2337      2345
      2333      2329      2332      2334      2334      2337      2339      2340
      2334      2337      2345      2346      2334      2337      2345      2347
      2334      2337      2345      2348      2335      2334      2337      2338
      2335      2334      2337      2339      2335      2334      2337      2345
      2336      2334      2337      2338      2336      2334      2337      2339
      2336      2334      2337      2345      2337      2339      2340      2341
      2337      2339      2340      2342      2337      2345      2348      2349
      2338      2337      2339      2340      2338      2337      2345      2346
      2338      2337      2345      2347      2338      2337      2345      2348
      2339      2337      2345      2346      2339      2337      2345      2347
      2339      2337      2345      2348      2339      2340      2342      2343
      2339      2340      2342      2344      2339      2340      2342      2354
      2340      2339      2337      2345      2340      2342      2354      2355
      2340      2342      2354      2356      2340      2342      2354      2357
      2341      2340      2342      2343      2341      2340      2342      2344
      2341      2340      2342      2354      2342      2354      2357      2358
      2342      2354      2357      2359      2342      2354      2357      2360
      2343      2342      2354      2355      2343      2342      2354      2356
      2343      2342      2354      2357      2344      2342      2354      2355
      2344      2342      2354      2356      2344      2342      2354      2357
      2345      2348      2349      2350      2345      2348      2349      2351
      2346      2345      2348      2349      2347      2345      2348      2349
      2348      2349      2351      2352      2348      2349      2351      2353
      2348      2349      2351      2401      2349      2351      2401      2402
      2349      2351      2401      2403      2349      2351      2401      2404
      2350      2349      2351      2352      2350      2349      2351      2353
      2350      2349      2351      2401      2351      2401      2404      2405
      2351      2401      2404      2406      2351      2401      2404      2407
      2352      2351      2401      2402      2352      2351      2401      2403
      2352      2351      2401      2404      2353      2351      2401      2402
      2353      2351      2401      2403      2353      2351      2401      2404
      2354      2357      2360      2361      2354      2357      2360      2362
      2354      2357      2360      2363      2355      2354      2357      2358
      2355      2354      2357      2359      2355      2354      2357      2360
      2356      2354      2357      2358      2356      2354      2357      2359
      2356      2354      2357      2360      2357      2360      2363      2364
      2357      2360      2363      2365      2357      2360      2363      2366
      2358      2357      2360      2361      2358      2357      2360      2362
      2358      2357      2360      2363      2359      2357      2360      2361
      2359      2357      2360      2362      2359      2357      2360      2363
      2360      2363      2366      2367      2360      2363      2366      2368
      2360      2363      2366      2369      2361      2360      2363      2364
      2361      2360      2363      2365      2361      2360      2363      2366
      2362      2360      2363      2364      2362      2360      2363      2365
      2362      2360      2363      2366      2363      2366      2369      2370
      2363      2366      2369      2371      2363      2366      2369      2372
      2364      2363      2366      2367      2364      2363      2366      2368
      2364      2363      2366      2369      2365      2363      2366      2367
      2365      2363      2366      2368      2365      2363      2366      2369
      2366      2369      2372      2373      2366      2369      2372      2374
      2367      2366      2369      2370      2367      2366      2369      2371
      2367      2366      2369      2372      2368      2366      2369      2370
      2368      2366      2369      2371      2368      2366      2369      2372
      2369      2372      2374      2375      2369      2372      2374      2376
      2370      2369      2372      2373      2370      2369      2372      2374
      2371      2369      2372      2373      2371      2369      2372      2374
      2372      2374      2376      2377      2372      2374      2376      2378
      2372      2374      2376      2379      2373      2372      2374      2375
      2373      2372      2374      2376      2374      2376      2379      2380
      2374      2376      2379      2381      2374      2376      2379      2382
      2375      2374      2376      2377      2375      2374      2376      2378
      2375      2374      2376      2379      2376      2379      2382      2383
      2376      2379      2382      2384      2376      2379      2382      2385
      2377      2376      2379      2380      2377      2376      2379      2381
      2377      2376      2379      2382      2378      2376      2379      2380
      2378      2376      2379      2381      2378      2376      2379      2382
      2379      2382      2385      2386      2379      2382      2385      2387
      2379      2382      2385      2388      2380      2379      2382      2383
      2380      2379      2382      2384      2380      2379      2382      2385
      2381      2379      2382      2383      2381      2379      2382      2384
      2381      2379      2382      2385      2382      2385      2388      2389
      2382      2385      2388      2390      2382      2385      2388      2391
      2383      2382      2385      2386      2383      2382      2385      2387
      2383      2382      2385      2388      2384      2382      2385      2386
      2384      2382      2385      2387      2384      2382      2385      2388
      2385      2388      2391      2392      2385      2388      2391      2393
      2385      2388      2391      2394      2386      2385      2388      2389
      2386      2385      2388      2390      2386      2385      2388      2391
      2387      2385      2388      2389      2387      2385      2388      2390
      2387      2385      2388      2391      2388      2391      2394      2395
      2388      2391      2394      2396      2388      2391      2394      2397
      2389      2388      2391      2392      2389      2388      2391      2393
      2389      2388      2391      2394      2390      2388      2391      2392
      2390      2388      2391      2393      2390      2388      2391      2394
      2391      2394      2397      2398      2391      2394      2397      2399
      2391      2394      2397      2400      2392      2391      2394      2395
      2392      2391      2394      2396      2392      2391      2394      2397
      2393      2391      2394      2395      2393      2391      2394      2396
      2393      2391      2394      2397      2395      2394      2397      2398
      2395      2394      2397      2399      2395      2394      2397      2400
      2396      2394      2397      2398      2396      2394      2397      2399
      2396      2394      2397      2400      2401      2404      2407      2408
      2401      2404      2407      2409      2401      2404      2407      2410
      2402      2401      2404      2405      2402      2401      2404      2406
      2402      2401      2404      2407      2403      2401      2404      2405
      2403      2401      2404      2406      2403      2401      2404      2407
      2404      2407      2410      2411      2404      2407      2410      2412
      2404      2407      2410      2413      2405      2404      2407      2408
      2405      2404      2407      2409      2405      2404      2407      2410
      2406      2404      2407      2408      2406      2404      2407      2409
      2406      2404      2407      2410      2407      2410      2413      2414
      2407      2410      2413      2415      2407      2410      2413      2416
      2408      2407      2410      2411      2408      2407      2410      2412
      2408      2407      2410      2413      2409      2407      2410      2411
      2409      2407      2410      2412      2409      2407      2410      2413
      2410      2413      2416      2417      2410      2413      2416      2418
      2410      2413      2416      2419      2411      2410      2413      2414
      2411      2410      2413      2415      2411      2410      2413      2416
      2412      2410      2413      2414      2412      2410      2413      2415
      2412      2410      2413      2416      2413      2416      2419      2420
      2413      2416      2419      2421      2413      2416      2419      2422
      2414      2413      2416      2417      2414      2413      2416      2418
      2414      2413      2416      2419      2415      2413      2416      2417
      2415      2413      2416      2418      2415      2413      2416      2419
      2416      2419      2422      2423      2416      2419      2422      2424
      2416      2419      2422      2425      2417      2416      2419      2420
      2417      2416      2419      2421      2417      2416      2419      2422
      2418      2416      2419      2420      2418      2416      2419      2421
      2418      2416      2419      2422      2419      2422      2425      2426
      2419      2422      2425      2427      2419      2422      2425      2428
      2420      2419      2422      2423      2420      2419      2422      2424
      2420      2419      2422      2425      2421      2419      2422      2423
      2421      2419      2422      2424      2421      2419      2422      2425
      2422      2425      2428      2429      2422      2425      2428      2430
      2422      2425      2428      2431      2423      2422      2425      2426
      2423      2422      2425      2427      2423      2422      2425      2428
      2424      2422      2425      2426      2424      2422      2425      2427
      2424      2422      2425      2428      2425      2428      2431      2432
      2425      2428      2431      2433      2425      2428      2431      2434
      2426      2425      2428      2429      2426      2425      2428      2430
      2426      2425      2428      2431      2427      2425      2428      2429
      2427      2425      2428      2430      2427      2425      2428      2431
      2428      2431      2434      2435      2428      2431      2434      2436
      2428      2431      2434      2437      2429      2428      2431      2432
      2429      2428      2431      2433      2429      2428      2431      2434
      2430      2428      2431      2432      2430      2428      2431      2433
      2430      2428      2431      2434      2431      2434      2437      2438
      2431      2434      2437      2439      2431      2434      2437      2440
      2432      2431      2434      2435      2432      2431      2434      2436
      2432      2431      2434      2437      2433      2431      2434      2435
      2433      2431      2434      2436      2433      2431      2434      2437
      2434      2437      2440      2441      2434      2437      2440      2442
      2434      2437      2440      2443      2435      2434      2437      2438
      2435      2434      2437      2439      2435      2434      2437      2440
      2436      2434      2437      2438      2436      2434      2437      2439
      2436      2434      2437      2440      2438      2437      2440      2441
      2438      2437      2440      2442      2438      2437      2440      2443
      2439      2437      2440      2441      2439      2437      2440      2442
      2439      2437      2440      2443      2444      2448      2451      2452
      2444      2448      2451      2453      2444      2448      2451      2458
      2445      2444      2448      2449      2445      2444      2448      2450
      2445      2444      2448      2451      2446      2444      2448      2449
      2446      2444      2448      2450      2446      2444      2448      2451
      2447      2444      2448      2449      2447      2444      2448      2450
      2447      2444      2448      2451      2448      2451      2458      2454
      2449      2448      2451      2452      2449      2448      2451      2453
      2449      2448      2451      2458      2450      2448      2451      2452
      2450      2448      2451      2453      2450      2448      2451      2458
      2451      2458      2454      2455      2451      2458      2454      2456
      2451      2458      2454      2457      2452      2451      2458      2454
      2453      2451      2458      2454      2454      2457      2459      2460
      2454      2457      2459      2461      2454      2457      2459      2462
      2455      2454      2457      2459      2456      2454      2457      2459
      2457      2459      2462      2463      2457      2459      2462      2464
      2457      2459      2462      2470      2458      2454      2457      2459
      2459      2462      2464      2465      2459      2462      2470      2471
      2459      2462      2470      2472      2459      2462      2470      2473
      2460      2459      2462      2463      2460      2459      2462      2464
      2460      2459      2462      2470      2461      2459      2462      2463
      2461      2459      2462      2464      2461      2459      2462      2470
      2462      2464      2465      2466      2462      2464      2465      2467
      2462      2470      2473      2474      2463      2462      2464      2465
      2463      2462      2470      2471      2463      2462      2470      2472
      2463      2462      2470      2473      2464      2462      2470      2471
      2464      2462      2470      2472      2464      2462      2470      2473
      2464      2465      2467      2468      2464      2465      2467      2469
      2464      2465      2467      2479      2465      2464      2462      2470
      2465      2467      2479      2480      2465      2467      2479      2481
      2465      2467      2479      2482      2466      2465      2467      2468
      2466      2465      2467      2469      2466      2465      2467      2479
      2467      2479      2482      2483      2467      2479      2482      2484
      2467      2479      2482      2485      2468      2467      2479      2480
      2468      2467      2479      2481      2468      2467      2479      2482
      2469      2467      2479      2480      2469      2467      2479      2481
      2469      2467      2479      2482      2470      2473      2474      2475
      2470      2473      2474      2476      2471      2470      2473      2474
      2472      2470      2473      2474      2473      2474      2476      2477
      2473      2474      2476      2478      2473      2474      2476      2520
      2474      2476      2520      2521      2474      2476      2520      2522
      2474      2476      2520      2523      2475      2474      2476      2477
      2475      2474      2476      2478      2475      2474      2476      2520
      2476      2520      2523      2524      2476      2520      2523      2525
      2476      2520      2523      2526      2477      2476      2520      2521
      2477      2476      2520      2522      2477      2476      2520      2523
      2478      2476      2520      2521      2478      2476      2520      2522
      2478      2476      2520      2523      2479      2482      2485      2486
      2479      2482      2485      2487      2479      2482      2485      2488
      2480      2479      2482      2483      2480      2479      2482      2484
      2480      2479      2482      2485      2481      2479      2482      2483
      2481      2479      2482      2484      2481      2479      2482      2485
      2482      2485      2488      2489      2482      2485      2488      2490
      2482      2485      2488      2491      2483      2482      2485      2486
      2483      2482      2485      2487      2483      2482      2485      2488
      2484      2482      2485      2486      2484      2482      2485      2487
      2484      2482      2485      2488      2485      2488      2491      2492
      2485      2488      2491      2493      2485      2488      2491      2494
      2486      2485      2488      2489      2486      2485      2488      2490
      2486      2485      2488      2491      2487      2485      2488      2489
      2487      2485      2488      2490      2487      2485      2488      2491
      2488      2491      2494      2495      2488      2491      2494      2496
      2488      2491      2494      2497      2489      2488      2491      2492
      2489      2488      2491      2493      2489      2488      2491      2494
      2490      2488      2491      2492      2490      2488      2491      2493
      2490      2488      2491      2494      2491      2494      2497      2498
      2491      2494      2497      2499      2492      2491      2494      2495
      2492      2491      2494      2496      2492      2491      2494      2497
      2493      2491      2494      2495      2493      2491      2494      2496
      2493      2491      2494      2497      2494      2497      2499      2500
      2494      2497      2499      2501      2495      2494      2497      2498
      2495      2494      2497      2499      2496      2494      2497      2498
      2496      2494      2497      2499      2497      2499      2501      2502
      2497      2499      2501      2503      2497      2499      2501      2504
      2498      2497      2499      2500      2498      2497      2499      2501
      2499      2501      2504      2505      2499      2501      2504      2506
      2499      2501      2504      2507      2500      2499      2501      2502
      2500      2499      2501      2503      2500      2499      2501      2504
      2501      2504      2507      2508      2501      2504      2507      2509
      2501      2504      2507      2510      2502      2501      2504      2505
      2502      2501      2504      2506      2502      2501      2504      2507
      2503      2501      2504      2505      2503      2501      2504      2506
      2503      2501      2504      2507      2504      2507      2510      2511
      2504      2507      2510      2512      2504      2507      2510      2513
      2505      2504      2507      2508      2505      2504      2507      2509
      2505      2504      2507      2510      2506      2504      2507      2508
      2506      2504      2507      2509      2506      2504      2507      2510
      2507      2510      2513      2514      2507      2510      2513      2515
      2507      2510      2513      2516      2508      2507      2510      2511
      2508      2507      2510      2512      2508      2507      2510      2513
      2509      2507      2510      2511      2509      2507      2510      2512
      2509      2507      2510      2513      2510      2513      2516      2517
      2510      2513      2516      2518      2510      2513      2516      2519
      2511      2510      2513      2514      2511      2510      2513      2515
      2511      2510      2513      2516      2512      2510      2513      2514
      2512      2510      2513      2515      2512      2510      2513      2516
      2514      2513      2516      2517      2514      2513      2516      2518
      2514      2513      2516      2519      2515      2513      2516      2517
      2515      2513      2516      2518      2515      2513      2516      2519
      2520      2523      2526      2527      2520      2523      2526      2528
      2520      2523      2526      2529      2521      2520      2523      2524
      2521      2520      2523      2525      2521      2520      2523      2526
      2522      2520      2523      2524      2522      2520      2523      2525
      2522      2520      2523      2526      2523      2526      2529      2530
      2523      2526      2529      2531      2523      2526      2529      2532
      2524      2523      2526      2527      2524      2523      2526      2528
      2524      2523      2526      2529      2525      2523      2526      2527
      2525      2523      2526      2528      2525      2523      2526      2529
      2526      2529      2532      2533      2526      2529      2532      2534
      2526      2529      2532      2535      2527      2526      2529      2530
      2527      2526      2529      2531      2527      2526      2529      2532
      2528      2526      2529      2530      2528      2526      2529      2531
      2528      2526      2529      2532      2529      2532      2535      2536
      2529      2532      2535      2537      2529      2532      2535      2538
      2530      2529      2532      2533      2530      2529      2532      2534
      2530      2529      2532      2535      2531      2529      2532      2533
      2531      2529      2532      2534      2531      2529      2532      2535
      2532      2535      2538      2539      2532      2535      2538      2540
      2533      2532      2535      2536      2533      2532      2535      2537
      2533      2532      2535      2538      2534      2532      2535      2536
      2534      2532      2535      2537      2534      2532      2535      2538
      2535      2538      2540      2541      2535      2538      2540      2542
      2536      2535      2538      2539      2536      2535      2538      2540
      2537      2535      2538      2539      2537      2535      2538      2540
      2538      2540      2542      2543      2538      2540      2542      2544
      2538      2540      2542      2545      2539      2538      2540      2541
      2539      2538      2540      2542      2540      2542      2545      2546
      2540      2542      2545      2547      2540      2542      2545      2548
      2541      2540      2542      2543      2541      2540      2542      2544
      2541      2540      2542      2545      2542      2545      2548      2549
      2542      2545      2548      2550      2542      2545      2548      2551
      2543      2542      2545      2546      2543      2542      2545      2547
      2543      2542      2545      2548      2544      2542      2545      2546
      2544      2542      2545      2547      2544      2542      2545      2548
      2545      2548      2551      2552      2545      2548      2551      2553
      2545      2548      2551      2554      2546      2545      2548      2549
      2546      2545      2548      2550      2546      2545      2548      2551
      2547      2545      2548      2549      2547      2545      2548      2550
      2547      2545      2548      2551      2548      2551      2554      2555
      2548      2551      2554      2556      2548      2551      2554      2557
      2549      2548      2551      2552      2549      2548      2551      2553
      2549      2548      2551      2554      2550      2548      2551      2552
      2550      2548      2551      2553      2550      2548      2551      2554
      2551      2554      2557      2558      2551      2554      2557      2559
      2551      2554      2557      2560      2552      2551      2554      2555
      2552      2551      2554      2556      2552      2551      2554      2557
      2553      2551      2554      2555      2553      2551      2554      2556
      2553      2551      2554      2557      2554      2557      2560      2561
      2554      2557      2560      2562      2554      2557      2560      2563
      2555      2554      2557      2558      2555      2554      2557      2559
      2555      2554      2557      2560      2556      2554      2557      2558
      2556      2554      2557      2559      2556      2554      2557      2560
      2557      2560      2563      2564      2557      2560      2563      2565
      2557      2560      2563      2566      2558      2557      2560      2561
      2558      2557      2560      2562      2558      2557      2560      2563
      2559      2557      2560      2561      2559      2557      2560      2562
      2559      2557      2560      2563      2561      2560      2563      2564
      2561      2560      2563      2565      2561      2560      2563      2566
      2562      2560      2563      2564      2562      2560      2563      2565
      2562      2560      2563      2566      2567      2571      2574      2575
      2567      2571      2574      2576      2567      2571      2574      2581
      2568      2567      2571      2572      2568      2567      2571      2573
      2568      2567      2571      2574      2569      2567      2571      2572
      2569      2567      2571      2573      2569      2567      2571      2574
      2570      2567      2571      2572      2570      2567      2571      2573
      2570      2567      2571      2574      2571      2574      2581      2577
      2572      2571      2574      2575      2572      2571      2574      2576
      2572      2571      2574      2581      2573      2571      2574      2575
      2573      2571      2574      2576      2573      2571      2574      2581
      2574      2581      2577      2578      2574      2581      2577      2579
      2574      2581      2577      2580      2575      2574      2581      2577
      2576      2574      2581      2577      2577      2580      2582      2583
      2577      2580      2582      2584      2577      2580      2582      2585
      2578      2577      2580      2582      2579      2577      2580      2582
      2580      2582      2585      2586      2580      2582      2585      2587
      2580      2582      2585      2593      2581      2577      2580      2582
      2582      2585      2587      2588      2582      2585      2593      2594
      2582      2585      2593      2595      2582      2585      2593      2596
      2583      2582      2585      2586      2583      2582      2585      2587
      2583      2582      2585      2593      2584      2582      2585      2586
      2584      2582      2585      2587      2584      2582      2585      2593
      2585      2587      2588      2589      2585      2587      2588      2590
      2585      2593      2596      2597      2586      2585      2587      2588
      2586      2585      2593      2594      2586      2585      2593      2595
      2586      2585      2593      2596      2587      2585      2593      2594
      2587      2585      2593      2595      2587      2585      2593      2596
      2587      2588      2590      2591      2587      2588      2590      2592
      2587      2588      2590      2602      2588      2587      2585      2593
      2588      2590      2602      2603      2588      2590      2602      2604
      2588      2590      2602      2605      2589      2588      2590      2591
      2589      2588      2590      2592      2589      2588      2590      2602
      2590      2602      2605      2606      2590      2602      2605      2607
      2590      2602      2605      2608      2591      2590      2602      2603
      2591      2590      2602      2604      2591      2590      2602      2605
      2592      2590      2602      2603      2592      2590      2602      2604
      2592      2590      2602      2605      2593      2596      2597      2598
      2593      2596      2597      2599      2594      2593      2596      2597
      2595      2593      2596      2597      2596      2597      2599      2600
      2596      2597      2599      2601      2596      2597      2599      2646
      2597      2599      2646      2647      2597      2599      2646      2648
      2597      2599      2646      2649      2598      2597      2599      2600
      2598      2597      2599      2601      2598      2597      2599      2646
      2599      2646      2649      2650      2599      2646      2649      2651
      2599      2646      2649      2652      2600      2599      2646      2647
      2600      2599      2646      2648      2600      2599      2646      2649
      2601      2599      2646      2647      2601      2599      2646      2648
      2601      2599      2646      2649      2602      2605      2608      2609
      2602      2605      2608      2610      2602      2605      2608      2611
      2603      2602      2605      2606      2603      2602      2605      2607
      2603      2602      2605      2608      2604      2602      2605      2606
      2604      2602      2605      2607      2604      2602      2605      2608
      2605      2608      2611      2612      2605      2608      2611      2613
      2605      2608      2611      2614      2606      2605      2608      2609
      2606      2605      2608      2610      2606      2605      2608      2611
      2607      2605      2608      2609      2607      2605      2608      2610
      2607      2605      2608      2611      2608      2611      2614      2615
      2608      2611      2614      2616      2608      2611      2614      2617
      2609      2608      2611      2612      2609      2608      2611      2613
      2609      2608      2611      2614      2610      2608      2611      2612
      2610      2608      2611      2613      2610      2608      2611      2614
      2611      2614      2617      2618      2611      2614      2617      2619
      2611      2614      2617      2620      2612      2611      2614      2615
      2612      2611      2614      2616      2612      2611      2614      2617
      2613      2611      2614      2615      2613      2611      2614      2616
      2613      2611      2614      2617      2614      2617      2620      2621
      2614      2617      2620      2622      2614      2617      2620      2625
      2615      2614      2617      2618      2615      2614      2617      2619
      2615      2614      2617      2620      2616      2614      2617      2618
      2616      2614      2617      2619      2616      2614      2617      2620
      2617      2620      2622      2623      2617      2620      2622      2624
      2617      2620      2622      2625      2617      2620      2625      2622
      2617      2620      2625      2626      2617      2620      2625      2627
      2618      2617      2620      2621      2618      2617      2620      2622
      2618      2617      2620      2625      2619      2617      2620      2621
      2619      2617      2620      2622      2619      2617      2620      2625
      2620      2622      2625      2626      2620      2622      2625      2627
      2620      2625      2622      2623      2620      2625      2622      2624
      2620      2625      2627      2628      2620      2625      2627      2629
      2620      2625      2627      2630      2621      2620      2622      2623
      2621      2620      2622      2624      2621      2620      2622      2625
      2621      2620      2625      2622      2621      2620      2625      2626
      2621      2620      2625      2627      2622      2620      2625      2626
      2622      2620      2625      2627      2622      2625      2627      2628
      2622      2625      2627      2629      2622      2625      2627      2630
      2623      2622      2620      2625      2623      2622      2625      2626
      2623      2622      2625      2627      2624      2622      2620      2625
      2624      2622      2625      2626      2624      2622      2625      2627
      2625      2627      2630      2631      2625      2627      2630      2632
      2625      2627      2630      2633      2626      2625      2627      2628
      2626      2625      2627      2629      2626      2625      2627      2630
      2627      2630      2633      2634      2627      2630      2633      2635
      2627      2630      2633      2636      2628      2627      2630      2631
      2628      2627      2630      2632      2628      2627      2630      2633
      2629      2627      2630      2631      2629      2627      2630      2632
      2629      2627      2630      2633      2630      2633      2636      2637
      2630      2633      2636      2638      2630      2633      2636      2639
      2631      2630      2633      2634      2631      2630      2633      2635
      2631      2630      2633      2636      2632      2630      2633      2634
      2632      2630      2633      2635      2632      2630      2633      2636
      2633      2636      2639      2640      2633      2636      2639      2641
      2633      2636      2639      2642      2634      2633      2636      2637
      2634      2633      2636      2638      2634      2633      2636      2639
      2635      2633      2636      2637      2635      2633      2636      2638
      2635      2633      2636      2639      2636      2639      2642      2643
      2636      2639      2642      2644      2636      2639      2642      2645
      2637      2636      2639      2640      2637      2636      2639      2641
      2637      2636      2639      2642      2638      2636      2639      2640
      2638      2636      2639      2641      2638      2636      2639      2642
      2640      2639      2642      2643      2640      2639      2642      2644
      2640      2639      2642      2645      2641      2639      2642      2643
      2641      2639      2642      2644      2641      2639      2642      2645
      2646      2649      2652      2653      2646      2649      2652      2654
      2646      2649      2652      2655      2647      2646      2649      2650
      2647      2646      2649      2651      2647      2646      2649      2652
      2648      2646      2649      2650      2648      2646      2649      2651
      2648      2646      2649      2652      2649      2652      2655      2656
      2649      2652      2655      2657      2649      2652      2655      2658
      2650      2649      2652      2653      2650      2649      2652      2654
      2650      2649      2652      2655      2651      2649      2652      2653
      2651      2649      2652      2654      2651      2649      2652      2655
      2652      2655      2658      2659      2652      2655      2658      2660
      2652      2655      2658      2661      2653      2652      2655      2656
      2653      2652      2655      2657      2653      2652      2655      2658
      2654      2652      2655      2656      2654      2652      2655      2657
      2654      2652      2655      2658      2655      2658      2661      2662
      2655      2658      2661      2663      2655      2658      2661      2664
      2656      2655      2658      2659      2656      2655      2658      2660
      2656      2655      2658      2661      2657      2655      2658      2659
      2657      2655      2658      2660      2657      2655      2658      2661
      2658      2661      2664      2665      2658      2661      2664      2666
      2658      2661      2664      2667      2659      2658      2661      2662
      2659      2658      2661      2663      2659      2658      2661      2664
      2660      2658      2661      2662      2660      2658      2661      2663
      2660      2658      2661      2664      2661      2664      2667      2668
      2661      2664      2667      2669      2661      2664      2667      2670
      2662      2661      2664      2665      2662      2661      2664      2666
      2662      2661      2664      2667      2663      2661      2664      2665
      2663      2661      2664      2666      2663      2661      2664      2667
      2664      2667      2670      2671      2664      2667      2670      2672
      2664      2667      2670      2673      2665      2664      2667      2668
      2665      2664      2667      2669      2665      2664      2667      2670
      2666      2664      2667      2668      2666      2664      2667      2669
      2666      2664      2667      2670      2667      2670      2673      2674
      2667      2670      2673      2675      2667      2670      2673      2676
      2668      2667      2670      2671      2668      2667      2670      2672
      2668      2667      2670      2673      2669      2667      2670      2671
      2669      2667      2670      2672      2669      2667      2670      2673
      2670      2673      2676      2677      2670      2673      2676      2678
      2670      2673      2676      2679      2671      2670      2673      2674
      2671      2670      2673      2675      2671      2670      2673      2676
      2672      2670      2673      2674      2672      2670      2673      2675
      2672      2670      2673      2676      2673      2676      2679      2680
      2673      2676      2679      2681      2673      2676      2679      2682
      2674      2673      2676      2677      2674      2673      2676      2678
      2674      2673      2676      2679      2675      2673      2676      2677
      2675      2673      2676      2678      2675      2673      2676      2679
      2676      2679      2682      2683      2676      2679      2682      2684
      2676      2679      2682      2685      2677      2676      2679      2680
      2677      2676      2679      2681      2677      2676      2679      2682
      2678      2676      2679      2680      2678      2676      2679      2681
      2678      2676      2679      2682      2679      2682      2685      2686
      2679      2682      2685      2687      2679      2682      2685      2688
      2680      2679      2682      2683      2680      2679      2682      2684
      2680      2679      2682      2685      2681      2679      2682      2683
      2681      2679      2682      2684      2681      2679      2682      2685
      2683      2682      2685      2686      2683      2682      2685      2687
      2683      2682      2685      2688      2684      2682      2685      2686
      2684      2682      2685      2687      2684      2682      2685      2688
      2689      2694      2696      2697      2689      2694      2698      2699
      2689      2694      2698      2700      2689      2694      2698      2705
      2690      2689      2692      2693      2690      2689      2694      2695
      2690      2689      2694      2696      2690      2689      2694      2698
      2691      2689      2692      2693      2691      2689      2694      2695
      2691      2689      2694      2696      2691      2689      2694      2698
      2692      2689      2694      2695      2692      2689      2694      2696
      2692      2689      2694      2698      2693      2692      2689      2694
      2694      2698      2705      2701      2695      2694      2696      2697
      2695      2694      2698      2699      2695      2694      2698      2700
      2695      2694      2698      2705      2696      2694      2698      2699
      2696      2694      2698      2700      2696      2694      2698      2705
      2697      2696      2694      2698      2698      2705      2701      2702
      2698      2705      2701      2703      2698      2705      2701      2704
      2699      2698      2705      2701      2700      2698      2705      2701
      2701      2704      2706      2707      2701      2704      2706      2708
      2701      2704      2706      2709      2702      2701      2704      2706
      2703      2701      2704      2706      2704      2706      2709      2710
      2704      2706      2709      2711      2704      2706      2709      2717
      2705      2701      2704      2706      2706      2709      2711      2712
      2706      2709      2717      2718      2706      2709      2717      2719
      2706      2709      2717      2720      2707      2706      2709      2710
      2707      2706      2709      2711      2707      2706      2709      2717
      2708      2706      2709      2710      2708      2706      2709      2711
      2708      2706      2709      2717      2709      2711      2712      2713
      2709      2711      2712      2714      2709      2717      2720      2721
      2710      2709      2711      2712      2710      2709      2717      2718
      2710      2709      2717      2719      2710      2709      2717      2720
      2711      2709      2717      2718      2711      2709      2717      2719
      2711      2709      2717      2720      2711      2712      2714      2715
      2711      2712      2714      2716      2711      2712      2714      2726
      2712      2711      2709      2717      2712      2714      2726      2727
      2712      2714      2726      2728      2712      2714      2726      2729
      2713      2712      2714      2715      2713      2712      2714      2716
      2713      2712      2714      2726      2714      2726      2729      2730
      2714      2726      2729      2731      2714      2726      2729      2732
      2715      2714      2726      2727      2715      2714      2726      2728
      2715      2714      2726      2729      2716      2714      2726      2727
      2716      2714      2726      2728      2716      2714      2726      2729
      2717      2720      2721      2722      2717      2720      2721      2723
      2718      2717      2720      2721      2719      2717      2720      2721
      2720      2721      2723      2724      2720      2721      2723      2725
      2720      2721      2723      2767      2721      2723      2767      2768
      2721      2723      2767      2769      2721      2723      2767      2770
      2722      2721      2723      2724      2722      2721      2723      2725
      2722      2721      2723      2767      2723      2767      2770      2771
      2723      2767      2770      2772      2723      2767      2770      2773
      2724      2723      2767      2768      2724      2723      2767      2769
      2724      2723      2767      2770      2725      2723      2767      2768
      2725      2723      2767      2769      2725      2723      2767      2770
      2726      2729      2732      2733      2726      2729      2732      2734
      2726      2729      2732      2735      2727      2726      2729      2730
      2727      2726      2729      2731      2727      2726      2729      2732
      2728      2726      2729      2730      2728      2726      2729      2731
      2728      2726      2729      2732      2729      2732      2735      2736
      2729      2732      2735      2737      2729      2732      2735      2738
      2730      2729      2732      2733      2730      2729      2732      2734
      2730      2729      2732      2735      2731      2729      2732      2733
      2731      2729      2732      2734      2731      2729      2732      2735
      2732      2735      2738      2739      2732      2735      2738      2740
      2732      2735      2738      2741      2733      2732      2735      2736
      2733      2732      2735      2737      2733      2732      2735      2738
      2734      2732      2735      2736      2734      2732      2735      2737
      2734      2732      2735      2738      2735      2738      2741      2742
      2735      2738      2741      2743      2735      2738      2741      2744
      2736      2735      2738      2739      2736      2735      2738      2740
      2736      2735      2738      2741      2737      2735      2738      2739
      2737      2735      2738      2740      2737      2735      2738      2741
      2738      2741      2744      2745      2738      2741      2744      2746
      2739      2738      2741      2742      2739      2738      2741      2743
      2739      2738      2741      2744      2740      2738      2741      2742
      2740      2738      2741      2743      2740      2738      2741      2744
      2741      2744      2746      2747      2741      2744      2746      2748
      2742      2741      2744      2745      2742      2741      2744      2746
      2743      2741      2744      2745      2743      2741      2744      2746
      2744      2746      2748      2749      2744      2746      2748      2750
      2744      2746      2748      2751      2745      2744      2746      2747
      2745      2744      2746      2748      2746      2748      2751      2752
      2746      2748      2751      2753      2746      2748      2751      2754
      2747      2746      2748      2749      2747      2746      2748      2750
      2747      2746      2748      2751      2748      2751      2754      2755
      2748      2751      2754      2756      2748      2751      2754      2757
      2749      2748      2751      2752      2749      2748      2751      2753
      2749      2748      2751      2754      2750      2748      2751      2752
      2750      2748      2751      2753      2750      2748      2751      2754
      2751      2754      2757      2758      2751      2754      2757      2759
      2751      2754      2757      2760      2752      2751      2754      2755
      2752      2751      2754      2756      2752      2751      2754      2757
      2753      2751      2754      2755      2753      2751      2754      2756
      2753      2751      2754      2757      2754      2757      2760      2761
      2754      2757      2760      2762      2754      2757      2760      2763
      2755      2754      2757      2758      2755      2754      2757      2759
      2755      2754      2757      2760      2756      2754      2757      2758
      2756      2754      2757      2759      2756      2754      2757      2760
      2757      2760      2763      2764      2757      2760      2763      2765
      2757      2760      2763      2766      2758      2757      2760      2761
      2758      2757      2760      2762      2758      2757      2760      2763
      2759      2757      2760      2761      2759      2757      2760      2762
      2759      2757      2760      2763      2761      2760      2763      2764
      2761      2760      2763      2765      2761      2760      2763      2766
      2762      2760      2763      2764      2762      2760      2763      2765
      2762      2760      2763      2766      2767      2770      2773      2774
      2767      2770      2773      2775      2767      2770      2773      2776
      2768      2767      2770      2771      2768      2767      2770      2772
      2768      2767      2770      2773      2769      2767      2770      2771
      2769      2767      2770      2772      2769      2767      2770      2773
      2770      2773      2776      2777      2770      2773      2776      2778
      2770      2773      2776      2779      2771      2770      2773      2774
      2771      2770      2773      2775      2771      2770      2773      2776
      2772      2770      2773      2774      2772      2770      2773      2775
      2772      2770      2773      2776      2773      2776      2779      2780
      2773      2776      2779      2781      2773      2776      2779      2782
      2774      2773      2776      2777      2774      2773      2776      2778
      2774      2773      2776      2779      2775      2773      2776      2777
      2775      2773      2776      2778      2775      2773      2776      2779
      2776      2779      2782      2783      2776      2779      2782      2784
      2776      2779      2782      2785      2777      2776      2779      2780
      2777      2776      2779      2781      2777      2776      2779      2782
      2778      2776      2779      2780      2778      2776      2779      2781
      2778      2776      2779      2782      2779      2782      2785      2786
      2779      2782      2785      2787      2779      2782      2785      2788
      2780      2779      2782      2783      2780      2779      2782      2784
      2780      2779      2782      2785      2781      2779      2782      2783
      2781      2779      2782      2784      2781      2779      2782      2785
      2782      2785      2788      2789      2782      2785      2788      2790
      2782      2785      2788      2791      2783      2782      2785      2786
      2783      2782      2785      2787      2783      2782      2785      2788
      2784      2782      2785      2786      2784      2782      2785      2787
      2784      2782      2785      2788      2785      2788      2791      2792
      2785      2788      2791      2793      2785      2788      2791      2794
      2786      2785      2788      2789      2786      2785      2788      2790
      2786      2785      2788      2791      2787      2785      2788      2789
      2787      2785      2788      2790      2787      2785      2788      2791
      2788      2791      2794      2795      2788      2791      2794      2796
      2788      2791      2794      2797      2789      2788      2791      2792
      2789      2788      2791      2793      2789      2788      2791      2794
      2790      2788      2791      2792      2790      2788      2791      2793
      2790      2788      2791      2794      2791      2794      2797      2798
      2791      2794      2797      2799      2791      2794      2797      2800
      2792      2791      2794      2795      2792      2791      2794      2796
      2792      2791      2794      2797      2793      2791      2794      2795
      2793      2791      2794      2796      2793      2791      2794      2797
      2794      2797      2800      2801      2794      2797      2800      2802
      2794      2797      2800      2803      2795      2794      2797      2798
      2795      2794      2797      2799      2795      2794      2797      2800
      2796      2794      2797      2798      2796      2794      2797      2799
      2796      2794      2797      2800      2797      2800      2803      2804
      2797      2800      2803      2805      2797      2800      2803      2806
      2798      2797      2800      2801      2798      2797      2800      2802
      2798      2797      2800      2803      2799      2797      2800      2801
      2799      2797      2800      2802      2799      2797      2800      2803
      2800      2803      2806      2807      2800      2803      2806      2808
      2800      2803      2806      2809      2801      2800      2803      2804
      2801      2800      2803      2805      2801      2800      2803      2806
      2802      2800      2803      2804      2802      2800      2803      2805
      2802      2800      2803      2806      2804      2803      2806      2807
      2804      2803      2806      2808      2804      2803      2806      2809
      2805      2803      2806      2807      2805      2803      2806      2808
      2805      2803      2806      2809      2810      2814      2817      2818
      2810      2814      2817      2819      2810      2814      2817      2824
      2811      2810      2814      2815      2811      2810      2814      2816
      2811      2810      2814      2817      2812      2810      2814      2815
      2812      2810      2814      2816      2812      2810      2814      2817
      2813      2810      2814      2815      2813      2810      2814      2816
      2813      2810      2814      2817      2814      2817      2824      2820
      2815      2814      2817      2818      2815      2814      2817      2819
      2815      2814      2817      2824      2816      2814      2817      2818
      2816      2814      2817      2819      2816      2814      2817      2824
      2817      2824      2820      2821      2817      2824      2820      2822
      2817      2824      2820      2823      2818      2817      2824      2820
      2819      2817      2824      2820      2820      2823      2825      2826
      2820      2823      2825      2827      2820      2823      2825      2828
      2821      2820      2823      2825      2822      2820      2823      2825
      2823      2825      2828      2829      2823      2825      2828      2830
      2823      2825      2828      2836      2824      2820      2823      2825
      2825      2828      2830      2831      2825      2828      2836      2837
      2825      2828      2836      2838      2825      2828      2836      2839
      2826      2825      2828      2829      2826      2825      2828      2830
      2826      2825      2828      2836      2827      2825      2828      2829
      2827      2825      2828      2830      2827      2825      2828      2836
      2828      2830      2831      2832      2828      2830      2831      2833
      2828      2836      2839      2840      2829      2828      2830      2831
      2829      2828      2836      2837      2829      2828      2836      2838
      2829      2828      2836      2839      2830      2828      2836      2837
      2830      2828      2836      2838      2830      2828      2836      2839
      2830      2831      2833      2834      2830      2831      2833      2835
      2830      2831      2833      2845      2831      2830      2828      2836
      2831      2833      2845      2846      2831      2833      2845      2847
      2831      2833      2845      2848      2832      2831      2833      2834
      2832      2831      2833      2835      2832      2831      2833      2845
      2833      2845      2848      2849      2833      2845      2848      2850
      2833      2845      2848      2851      2834      2833      2845      2846
      2834      2833      2845      2847      2834      2833      2845      2848
      2835      2833      2845      2846      2835      2833      2845      2847
      2835      2833      2845      2848      2836      2839      2840      2841
      2836      2839      2840      2842      2837      2836      2839      2840
      2838      2836      2839      2840      2839      2840      2842      2843
      2839      2840      2842      2844      2839      2840      2842      2889
      2840      2842      2889      2890      2840      2842      2889      2891
      2840      2842      2889      2892      2841      2840      2842      2843
      2841      2840      2842      2844      2841      2840      2842      2889
      2842      2889      2892      2893      2842      2889      2892      2894
      2842      2889      2892      2895      2843      2842      2889      2890
      2843      2842      2889      2891      2843      2842      2889      2892
      2844      2842      2889      2890      2844      2842      2889      2891
      2844      2842      2889      2892      2845      2848      2851      2852
      2845      2848      2851      2853      2845      2848      2851      2854
      2846      2845      2848      2849      2846      2845      2848      2850
      2846      2845      2848      2851      2847      2845      2848      2849
      2847      2845      2848      2850      2847      2845      2848      2851
      2848      2851      2854      2855      2848      2851      2854      2856
      2848      2851      2854      2857      2849      2848      2851      2852
      2849      2848      2851      2853      2849      2848      2851      2854
      2850      2848      2851      2852      2850      2848      2851      2853
      2850      2848      2851      2854      2851      2854      2857      2858
      2851      2854      2857      2859      2851      2854      2857      2860
      2852      2851      2854      2855      2852      2851      2854      2856
      2852      2851      2854      2857      2853      2851      2854      2855
      2853      2851      2854      2856      2853      2851      2854      2857
      2854      2857      2860      2861      2854      2857      2860      2862
      2854      2857      2860      2863      2855      2854      2857      2858
      2855      2854      2857      2859      2855      2854      2857      2860
      2856      2854      2857      2858      2856      2854      2857      2859
      2856      2854      2857      2860      2857      2860      2863      2864
      2857      2860      2863      2865      2857      2860      2863      2868
      2858      2857      2860      2861      2858      2857      2860      2862
      2858      2857      2860      2863      2859      2857      2860      2861
      2859      2857      2860      2862      2859      2857      2860      2863
      2860      2863      2865      2866      2860      2863      2865      2867
      2860      2863      2865      2868      2860      2863      2868      2865
      2860      2863      2868      2869      2860      2863      2868      2870
      2861      2860      2863      2864      2861      2860      2863      2865
      2861      2860      2863      2868      2862      2860      2863      2864
      2862      2860      2863      2865      2862      2860      2863      2868
      2863      2865      2868      2869      2863      2865      2868      2870
      2863      2868      2865      2866      2863      2868      2865      2867
      2863      2868      2870      2871      2863      2868      2870      2872
      2863      2868      2870      2873      2864      2863      2865      2866
      2864      2863      2865      2867      2864      2863      2865      2868
      2864      2863      2868      2865      2864      2863      2868      2869
      2864      2863      2868      2870      2865      2863      2868      2869
      2865      2863      2868      2870      2865      2868      2870      2871
      2865      2868      2870      2872      2865      2868      2870      2873
      2866      2865      2863      2868      2866      2865      2868      2869
      2866      2865      2868      2870      2867      2865      2863      2868
      2867      2865      2868      2869      2867      2865      2868      2870
      2868      2870      2873      2874      2868      2870      2873      2875
      2868      2870      2873      2876      2869      2868      2870      2871
      2869      2868      2870      2872      2869      2868      2870      2873
      2870      2873      2876      2877      2870      2873      2876      2878
      2870      2873      2876      2879      2871      2870      2873      2874
      2871      2870      2873      2875      2871      2870      2873      2876
      2872      2870      2873      2874      2872      2870      2873      2875
      2872      2870      2873      2876      2873      2876      2879      2880
      2873      2876      2879      2881      2873      2876      2879      2882
      2874      2873      2876      2877      2874      2873      2876      2878
      2874      2873      2876      2879      2875      2873      2876      2877
      2875      2873      2876      2878      2875      2873      2876      2879
      2876      2879      2882      2883      2876      2879      2882      2884
      2876      2879      2882      2885      2877      2876      2879      2880
      2877      2876      2879      2881      2877      2876      2879      2882
      2878      2876      2879      2880      2878      2876      2879      2881
      2878      2876      2879      2882      2879      2882      2885      2886
      2879      2882      2885      2887      2879      2882      2885      2888
      2880      2879      2882      2883      2880      2879      2882      2884
      2880      2879      2882      2885      2881      2879      2882      2883
      2881      2879      2882      2884      2881      2879      2882      2885
      2883      2882      2885      2886      2883      2882      2885      2887
      2883      2882      2885      2888      2884      2882      2885      2886
      2884      2882      2885      2887      2884      2882      2885      2888
      2889      2892      2895      2896      2889      2892      2895      2897
      2889      2892      2895      2898      2890      2889      2892      2893
      2890      2889      2892      2894      2890      2889      2892      2895
      2891      2889      2892      2893      2891      2889      2892      2894
      2891      2889      2892      2895      2892      2895      2898      2899
      2892      2895      2898      2900      2892      2895      2898      2901
      2893      2892      2895      2896      2893      2892      2895      2897
      2893      2892      2895      2898      2894      2892      2895      2896
      2894      2892      2895      2897      2894      2892      2895      2898
      2895      2898      2901      2902      2895      2898      2901      2903
      2895      2898      2901      2904      2896      2895      2898      2899
      2896      2895      2898      2900      2896      2895      2898      2901
      2897      2895      2898      2899      2897      2895      2898      2900
      2897      2895      2898      2901      2898      2901      2904      2905
      2898      2901      2904      2906      2898      2901      2904      2907
      2899      2898      2901      2902      2899      2898      2901      2903
      2899      2898      2901      2904      2900      2898      2901      2902
      2900      2898      2901      2903      2900      2898      2901      2904
      2901      2904      2907      2908      2901      2904      2907      2909
      2901      2904      2907      2910      2902      2901      2904      2905
      2902      2901      2904      2906      2902      2901      2904      2907
      2903      2901      2904      2905      2903      2901      2904      2906
      2903      2901      2904      2907      2904      2907      2910      2911
      2904      2907      2910      2912      2904      2907      2910      2913
      2905      2904      2907      2908      2905      2904      2907      2909
      2905      2904      2907      2910      2906      2904      2907      2908
      2906      2904      2907      2909      2906      2904      2907      2910
      2907      2910      2913      2914      2907      2910      2913      2915
      2907      2910      2913      2916      2908      2907      2910      2911
      2908      2907      2910      2912      2908      2907      2910      2913
      2909      2907      2910      2911      2909      2907      2910      2912
      2909      2907      2910      2913      2910      2913      2916      2917
      2910      2913      2916      2918      2910      2913      2916      2919
      2911      2910      2913      2914      2911      2910      2913      2915
      2911      2910      2913      2916      2912      2910      2913      2914
      2912      2910      2913      2915      2912      2910      2913      2916
      2913      2916      2919      2920      2913      2916      2919      2921
      2913      2916      2919      2922      2914      2913      2916      2917
      2914      2913      2916      2918      2914      2913      2916      2919
      2915      2913      2916      2917      2915      2913      2916      2918
      2915      2913      2916      2919      2916      2919      2922      2923
      2916      2919      2922      2924      2916      2919      2922      2925
      2917      2916      2919      2920      2917      2916      2919      2921
      2917      2916      2919      2922      2918      2916      2919      2920
      2918      2916      2919      2921      2918      2916      2919      2922
      2919      2922      2925      2926      2919      2922      2925      2927
      2919      2922      2925      2928      2920      2919      2922      2923
      2920      2919      2922      2924      2920      2919      2922      2925
      2921      2919      2922      2923      2921      2919      2922      2924
      2921      2919      2922      2925      2922      2925      2928      2929
      2922      2925      2928      2930      2922      2925      2928      2931
      2923      2922      2925      2926      2923      2922      2925      2927
      2923      2922      2925      2928      2924      2922      2925      2926
      2924      2922      2925      2927      2924      2922      2925      2928
      2926      2925      2928      2929      2926      2925      2928      2930
      2926      2925      2928      2931      2927      2925      2928      2929
      2927      2925      2928      2930      2927      2925      2928      2931
      2932      2936      2939      2940      2932      2936      2939      2941
      2932      2936      2939      2946      2933      2932      2936      2937
      2933      2932      2936      2938      2933      2932      2936      2939
      2934      2932      2936      2937      2934      2932      2936      2938
      2934      2932      2936      2939      2935      2932      2936      2937
      2935      2932      2936      2938      2935      2932      2936      2939
      2936      2939      2946      2942      2937      2936      2939      2940
      2937      2936      2939      2941      2937      2936      2939      2946
      2938      2936      2939      2940      2938      2936      2939      2941
      2938      2936      2939      2946      2939      2946      2942      2943
      2939      2946      2942      2944      2939      2946      2942      2945
      2940      2939      2946      2942      2941      2939      2946      2942
      2942      2945      2947      2948      2942      2945      2947      2949
      2942      2945      2947      2950      2943      2942      2945      2947
      2944      2942      2945      2947      2945      2947      2950      2951
      2945      2947      2950      2952      2945      2947      2950      2958
      2946      2942      2945      2947      2947      2950      2952      2953
      2947      2950      2958      2959      2947      2950      2958      2960
      2947      2950      2958      2961      2948      2947      2950      2951
      2948      2947      2950      2952      2948      2947      2950      2958
      2949      2947      2950      2951      2949      2947      2950      2952
      2949      2947      2950      2958      2950      2952      2953      2954
      2950      2952      2953      2955      2950      2958      2961      2962
      2951      2950      2952      2953      2951      2950      2958      2959
      2951      2950      2958      2960      2951      2950      2958      2961
      2952      2950      2958      2959      2952      2950      2958      2960
      2952      2950      2958      2961      2952      2953      2955      2956
      2952      2953      2955      2957      2952      2953      2955      2967
      2953      2952      2950      2958      2953      2955      2967      2968
      2953      2955      2967      2969      2953      2955      2967      2970
      2954      2953      2955      2956      2954      2953      2955      2957
      2954      2953      2955      2967      2955      2967      2970      2971
      2955      2967      2970      2972      2955      2967      2970      2973
      2956      2955      2967      2968      2956      2955      2967      2969
      2956      2955      2967      2970      2957      2955      2967      2968
      2957      2955      2967      2969      2957      2955      2967      2970
      2958      2961      2962      2963      2958      2961      2962      2964
      2959      2958      2961      2962      2960      2958      2961      2962
      2961      2962      2964      2965      2961      2962      2964      2966
      2961      2962      2964      3011      2962      2964      3011      3012
      2962      2964      3011      3013      2962      2964      3011      3014
      2963      2962      2964      2965      2963      2962      2964      2966
      2963      2962      2964      3011      2964      3011      3014      3015
      2964      3011      3014      3016      2964      3011      3014      3017
      2965      2964      3011      3012      2965      2964      3011      3013
      2965      2964      3011      3014      2966      2964      3011      3012
      2966      2964      3011      3013      2966      2964      3011      3014
      2967      2970      2973      2974      2967      2970      2973      2975
      2967      2970      2973      2976      2968      2967      2970      2971
      2968      2967      2970      2972      2968      2967      2970      2973
      2969      2967      2970      2971      2969      2967      2970      2972
      2969      2967      2970      2973      2970      2973      2976      2977
      2970      2973      2976      2978      2970      2973      2976      2979
      2971      2970      2973      2974      2971      2970      2973      2975
      2971      2970      2973      2976      2972      2970      2973      2974
      2972      2970      2973      2975      2972      2970      2973      2976
      2973      2976      2979      2980      2973      2976      2979      2981
      2973      2976      2979      2982      2974      2973      2976      2977
      2974      2973      2976      2978      2974      2973      2976      2979
      2975      2973      2976      2977      2975      2973      2976      2978
      2975      2973      2976      2979      2976      2979      2982      2983
      2976      2979      2982      2984      2976      2979      2982      2985
      2977      2976      2979      2980      2977      2976      2979      2981
      2977      2976      2979      2982      2978      2976      2979      2980
      2978      2976      2979      2981      2978      2976      2979      2982
      2979      2982      2985      2986      2979      2982      2985      2987
      2979      2982      2985      2990      2980      2979      2982      2983
      2980      2979      2982      2984      2980      2979      2982      2985
      2981      2979      2982      2983      2981      2979      2982      2984
      2981      2979      2982      2985      2982      2985      2987      2988
      2982      2985      2987      2989      2982      2985      2987      2990
      2982      2985      2990      2987      2982      2985      2990      2991
      2982      2985      2990      2992      2983      2982      2985      2986
      2983      2982      2985      2987      2983      2982      2985      2990
      2984      2982      2985      2986      2984      2982      2985      2987
      2984      2982      2985      2990      2985      2987      2990      2991
      2985      2987      2990      2992      2985      2990      2987      2988
      2985      2990      2987      2989      2985      2990      2992      2993
      2985      2990      2992      2994      2985      2990      2992      2995
      2986      2985      2987      2988      2986      2985      2987      2989
      2986      2985      2987      2990      2986      2985      2990      2987
      2986      2985      2990      2991      2986      2985      2990      2992
      2987      2985      2990      2991      2987      2985      2990      2992
      2987      2990      2992      2993      2987      2990      2992      2994
      2987      2990      2992      2995      2988      2987      2985      2990
      2988      2987      2990      2991      2988      2987      2990      2992
      2989      2987      2985      2990      2989      2987      2990      2991
      2989      2987      2990      2992      2990      2992      2995      2996
      2990      2992      2995      2997      2990      2992      2995      2998
      2991      2990      2992      2993      2991      2990      2992      2994
      2991      2990      2992      2995      2992      2995      2998      2999
      2992      2995      2998      3000      2992      2995      2998      3001
      2993      2992      2995      2996      2993      2992      2995      2997
      2993      2992      2995      2998      2994      2992      2995      2996
      2994      2992      2995      2997      2994      2992      2995      2998
      2995      2998      3001      3002      2995      2998      3001      3003
      2995      2998      3001      3004      2996      2995      2998      2999
      2996      2995      2998      3000      2996      2995      2998      3001
      2997      2995      2998      2999      2997      2995      2998      3000
      2997      2995      2998      3001      2998      3001      3004      3005
      2998      3001      3004      3006      2998      3001      3004      3007
      2999      2998      3001      3002      2999      2998      3001      3003
      2999      2998      3001      3004      3000      2998      3001      3002
      3000      2998      3001      3003      3000      2998      3001      3004
      3001      3004      3007      3008      3001      3004      3007      3009
      3001      3004      3007      3010      3002      3001      3004      3005
      3002      3001      3004      3006      3002      3001      3004      3007
      3003      3001      3004      3005      3003      3001      3004      3006
      3003      3001      3004      3007      3005      3004      3007      3008
      3005      3004      3007      3009      3005      3004      3007      3010
      3006      3004      3007      3008      3006      3004      3007      3009
      3006      3004      3007      3010      3011      3014      3017      3018
      3011      3014      3017      3019      3011      3014      3017      3020
      3012      3011      3014      3015      3012      3011      3014      3016
      3012      3011      3014      3017      3013      3011      3014      3015
      3013      3011      3014      3016      3013      3011      3014      3017
      3014      3017      3020      3021      3014      3017      3020      3022
      3014      3017      3020      3023      3015      3014      3017      3018
      3015      3014      3017      3019      3015      3014      3017      3020
      3016      3014      3017      3018      3016      3014      3017      3019
      3016      3014      3017      3020      3017      3020      3023      3024
      3017      3020      3023      3025      3017      3020      3023      3026
      3018      3017      3020      3021      3018      3017      3020      3022
      3018      3017      3020      3023      3019      3017      3020      3021
      3019      3017      3020      3022      3019      3017      3020      3023
      3020      3023      3026      3027      3020      3023      3026      3028
      3020      3023      3026      3029      3021      3020      3023      3024
      3021      3020      3023      3025      3021      3020      3023      3026
      3022      3020      3023      3024      3022      3020      3023      3025
      3022      3020      3023      3026      3023      3026      3029      3030
      3023      3026      3029      3031      3023      3026      3029      3032
      3024      3023      3026      3027      3024      3023      3026      3028
      3024      3023      3026      3029      3025      3023      3026      3027
      3025      3023      3026      3028      3025      3023      3026      3029
      3026      3029      3032      3033      3026      3029      3032      3034
      3026      3029      3032      3035      3027      3026      3029      3030
      3027      3026      3029      3031      3027      3026      3029      3032
      3028      3026      3029      3030      3028      3026      3029      3031
      3028      3026      3029      3032      3029      3032      3035      3036
      3029      3032      3035      3037      3029      3032      3035      3038
      3030      3029      3032      3033      3030      3029      3032      3034
      3030      3029      3032      3035      3031      3029      3032      3033
      3031      3029      3032      3034      3031      3029      3032      3035
      3032      3035      3038      3039      3032      3035      3038      3040
      3032      3035      3038      3041      3033      3032      3035      3036
      3033      3032      3035      3037      3033      3032      3035      3038
      3034      3032      3035      3036      3034      3032      3035      3037
      3034      3032      3035      3038      3035      3038      3041      3042
      3035      3038      3041      3043      3035      3038      3041      3044
      3036      3035      3038      3039      3036      3035      3038      3040
      3036      3035      3038      3041      3037      3035      3038      3039
      3037      3035      3038      3040      3037      3035      3038      3041
      3038      3041      3044      3045      3038      3041      3044      3046
      3038      3041      3044      3047      3039      3038      3041      3042
      3039      3038      3041      3043      3039      3038      3041      3044
      3040      3038      3041      3042      3040      3038      3041      3043
      3040      3038      3041      3044      3041      3044      3047      3048
      3041      3044      3047      3049      3041      3044      3047      3050
      3042      3041      3044      3045      3042      3041      3044      3046
      3042      3041      3044      3047      3043      3041      3044      3045
      3043      3041      3044      3046      3043      3041      3044      3047
      3044      3047      3050      3051      3044      3047      3050      3052
      3044      3047      3050      3053      3045      3044      3047      3048
      3045      3044      3047      3049      3045      3044      3047      3050
      3046      3044      3047      3048      3046      3044      3047      3049
      3046      3044      3047      3050      3048      3047      3050      3051
      3048      3047      3050      3052      3048      3047      3050      3053
      3049      3047      3050      3051      3049      3047      3050      3052
      3049      3047      3050      3053      3054      3058      3061      3062
      3054      3058      3061      3063      3054      3058      3061      3068
      3055      3054      3058      3059      3055      3054      3058      3060
      3055      3054      3058      3061      3056      3054      3058      3059
      3056      3054      3058      3060      3056      3054      3058      3061
      3057      3054      3058      3059      3057      3054      3058      3060
      3057      3054      3058      3061      3058      3061      3068      3064
      3059      3058      3061      3062      3059      3058      3061      3063
      3059      3058      3061      3068      3060      3058      3061      3062
      3060      3058      3061      3063      3060      3058      3061      3068
      3061      3068      3064      3065      3061      3068      3064      3066
      3061      3068      3064      3067      3062      3061      3068      3064
      3063      3061      3068      3064      3064      3067      3069      3070
      3064      3067      3069      3071      3064      3067      3069      3072
      3065      3064      3067      3069      3066      3064      3067      3069
      3067      3069      3072      3073      3067      3069      3072      3074
      3067      3069      3072      3080      3068      3064      3067      3069
      3069      3072      3074      3075      3069      3072      3080      3081
      3069      3072      3080      3082      3069      3072      3080      3083
      3070      3069      3072      3073      3070      3069      3072      3074
      3070      3069      3072      3080      3071      3069      3072      3073
      3071      3069      3072      3074      3071      3069      3072      3080
      3072      3074      3075      3076      3072      3074      3075      3077
      3072      3080      3083      3084      3073      3072      3074      3075
      3073      3072      3080      3081      3073      3072      3080      3082
      3073      3072      3080      3083      3074      3072      3080      3081
      3074      3072      3080      3082      3074      3072      3080      3083
      3074      3075      3077      3078      3074      3075      3077      3079
      3074      3075      3077      3089      3075      3074      3072      3080
      3075      3077      3089      3090      3075      3077      3089      3091
      3075      3077      3089      3092      3076      3075      3077      3078
      3076      3075      3077      3079      3076      3075      3077      3089
      3077      3089      3092      3093      3077      3089      3092      3094
      3077      3089      3092      3095      3078      3077      3089      3090
      3078      3077      3089      3091      3078      3077      3089      3092
      3079      3077      3089      3090      3079      3077      3089      3091
      3079      3077      3089      3092      3080      3083      3084      3085
      3080      3083      3084      3086      3081      3080      3083      3084
      3082      3080      3083      3084      3083      3084      3086      3087
      3083      3084      3086      3088      3083      3084      3086      3133
      3084      3086      3133      3134      3084      3086      3133      3135
      3084      3086      3133      3136      3085      3084      3086      3087
      3085      3084      3086      3088      3085      3084      3086      3133
      3086      3133      3136      3137      3086      3133      3136      3138
      3086      3133      3136      3139      3087      3086      3133      3134
      3087      3086      3133      3135      3087      3086      3133      3136
      3088      3086      3133      3134      3088      3086      3133      3135
      3088      3086      3133      3136      3089      3092      3095      3096
      3089      3092      3095      3097      3089      3092      3095      3098
      3090      3089      3092      3093      3090      3089      3092      3094
      3090      3089      3092      3095      3091      3089      3092      3093
      3091      3089      3092      3094      3091      3089      3092      3095
      3092      3095      3098      3099      3092      3095      3098      3100
      3092      3095      3098      3101      3093      3092      3095      3096
      3093      3092      3095      3097      3093      3092      3095      3098
      3094      3092      3095      3096      3094      3092      3095      3097
      3094      3092      3095      3098      3095      3098      3101      3102
      3095      3098      3101      3103      3095      3098      3101      3104
      3096      3095      3098      3099      3096      3095      3098      3100
      3096      3095      3098      3101      3097      3095      3098      3099
      3097      3095      3098      3100      3097      3095      3098      3101
      3098      3101      3104      3105      3098      3101      3104      3106
      3098      3101      3104      3107      3099      3098      3101      3102
      3099      3098      3101      3103      3099      3098      3101      3104
      3100      3098      3101      3102      3100      3098      3101      3103
      3100      3098      3101      3104      3101      3104      3107      3108
      3101      3104      3107      3109      3101      3104      3107      3112
      3102      3101      3104      3105      3102      3101      3104      3106
      3102      3101      3104      3107      3103      3101      3104      3105
      3103      3101      3104      3106      3103      3101      3104      3107
      3104      3107      3109      3110      3104      3107      3109      3111
      3104      3107      3109      3112      3104      3107      3112      3109
      3104      3107      3112      3113      3104      3107      3112      3114
      3105      3104      3107      3108      3105      3104      3107      3109
      3105      3104      3107      3112      3106      3104      3107      3108
      3106      3104      3107      3109      3106      3104      3107      3112
      3107      3109      3112      3113      3107      3109      3112      3114
      3107      3112      3109      3110      3107      3112      3109      3111
      3107      3112      3114      3115      3107      3112      3114      3116
      3107      3112      3114      3117      3108      3107      3109      3110
      3108      3107      3109      3111      3108      3107      3109      3112
      3108      3107      3112      3109      3108      3107      3112      3113
      3108      3107      3112      3114      3109      3107      3112      3113
      3109      3107      3112      3114      3109      3112      3114      3115
      3109      3112      3114      3116      3109      3112      3114      3117
      3110      3109      3107      3112      3110      3109      3112      3113
      3110      3109      3112      3114      3111      3109      3107      3112
      3111      3109      3112      3113      3111      3109      3112      3114
      3112      3114      3117      3118      3112      3114      3117      3119
      3112      3114      3117      3120      3113      3112      3114      3115
      3113      3112      3114      3116      3113      3112      3114      3117
      3114      3117      3120      3121      3114      3117      3120      3122
      3114      3117      3120      3123      3115      3114      3117      3118
      3115      3114      3117      3119      3115      3114      3117      3120
      3116      3114      3117      3118      3116      3114      3117      3119
      3116      3114      3117      3120      3117      3120      3123      3124
      3117      3120      3123      3125      3117      3120      3123      3126
      3118      3117      3120      3121      3118      3117      3120      3122
      3118      3117      3120      3123      3119      3117      3120      3121
      3119      3117      3120      3122      3119      3117      3120      3123
      3120      3123      3126      3127      3120      3123      3126      3128
      3120      3123      3126      3129      3121      3120      3123      3124
      3121      3120      3123      3125      3121      3120      3123      3126
      3122      3120      3123      3124      3122      3120      3123      3125
      3122      3120      3123      3126      3123      3126      3129      3130
      3123      3126      3129      3131      3123      3126      3129      3132
      3124      3123      3126      3127      3124      3123      3126      3128
      3124      3123      3126      3129      3125      3123      3126      3127
      3125      3123      3126      3128      3125      3123      3126      3129
      3127      3126      3129      3130      3127      3126      3129      3131
      3127      3126      3129      3132      3128      3126      3129      3130
      3128      3126      3129      3131      3128      3126      3129      3132
      3133      3136      3139      3140      3133      3136      3139      3141
      3133      3136      3139      3142      3134      3133      3136      3137
      3134      3133      3136      3138      3134      3133      3136      3139
      3135      3133      3136      3137      3135      3133      3136      3138
      3135      3133      3136      3139      3136      3139      3142      3143
      3136      3139      3142      3144      3136      3139      3142      3145
      3137      3136      3139      3140      3137      3136      3139      3141
      3137      3136      3139      3142      3138      3136      3139      3140
      3138      3136      3139      3141      3138      3136      3139      3142
      3139      3142      3145      3146      3139      3142      3145      3147
      3139      3142      3145      3148      3140      3139      3142      3143
      3140      3139      3142      3144      3140      3139      3142      3145
      3141      3139      3142      3143      3141      3139      3142      3144
      3141      3139      3142      3145      3142      3145      3148      3149
      3142      3145      3148      3150      3142      3145      3148      3151
      3143      3142      3145      3146      3143      3142      3145      3147
      3143      3142      3145      3148      3144      3142      3145      3146
      3144      3142      3145      3147      3144      3142      3145      3148
      3145      3148      3151      3152      3145      3148      3151      3153
      3145      3148      3151      3154      3146      3145      3148      3149
      3146      3145      3148      3150      3146      3145      3148      3151
      3147      3145      3148      3149      3147      3145      3148      3150
      3147      3145      3148      3151      3148      3151      3154      3155
      3148      3151      3154      3156      3148      3151      3154      3157
      3149      3148      3151      3152      3149      3148      3151      3153
      3149      3148      3151      3154      3150      3148      3151      3152
      3150      3148      3151      3153      3150      3148      3151      3154
      3151      3154      3157      3158      3151      3154      3157      3159
      3151      3154      3157      3160      3152      3151      3154      3155
      3152      3151      3154      3156      3152      3151      3154      3157
      3153      3151      3154      3155      3153      3151      3154      3156
      3153      3151      3154      3157      3154      3157      3160      3161
      3154      3157      3160      3162      3154      3157      3160      3163
      3155      3154      3157      3158      3155      3154      3157      3159
      3155      3154      3157      3160      3156      3154      3157      3158
      3156      3154      3157      3159      3156      3154      3157      3160
      3157      3160      3163      3164      3157      3160      3163      3165
      3157      3160      3163      3166      3158      3157      3160      3161
      3158      3157      3160      3162      3158      3157      3160      3163
      3159      3157      3160      3161      3159      3157      3160      3162
      3159      3157      3160      3163      3160      3163      3166      3167
      3160      3163      3166      3168      3160      3163      3166      3169
      3161      3160      3163      3164      3161      3160      3163      3165
      3161      3160      3163      3166      3162      3160      3163      3164
      3162      3160      3163      3165      3162      3160      3163      3166
      3163      3166      3169      3170      3163      3166      3169      3171
      3163      3166      3169      3172      3164      3163      3166      3167
      3164      3163      3166      3168      3164      3163      3166      3169
      3165      3163      3166      3167      3165      3163      3166      3168
      3165      3163      3166      3169      3166      3169      3172      3173
      3166      3169      3172      3174      3166      3169      3172      3175
      3167      3166      3169      3170      3167      3166      3169      3171
      3167      3166      3169      3172      3168      3166      3169      3170
      3168      3166      3169      3171      3168      3166      3169      3172
      3170      3169      3172      3173      3170      3169      3172      3174
      3170      3169      3172      3175      3171      3169      3172      3173
      3171      3169      3172      3174      3171      3169      3172      3175
      3176      3180      3183      3184      3176      3180      3183      3185
      3176      3180      3183      3190      3177      3176      3180      3181
      3177      3176      3180      3182      3177      3176      3180      3183
      3178      3176      3180      3181      3178      3176      3180      3182
      3178      3176      3180      3183      3179      3176      3180      3181
      3179      3176      3180      3182      3179      3176      3180      3183
      3180      3183      3190      3186      3181      3180      3183      3184
      3181      3180      3183      3185      3181      3180      3183      3190
      3182      3180      3183      3184      3182      3180      3183      3185
      3182      3180      3183      3190      3183      3190      3186      3187
      3183      3190      3186      3188      3183      3190      3186      3189
      3184      3183      3190      3186      3185      3183      3190      3186
      3186      3189      3191      3192      3186      3189      3191      3193
      3186      3189      3191      3194      3187      3186      3189      3191
      3188      3186      3189      3191      3189      3191      3194      3195
      3189      3191      3194      3196      3189      3191      3194      3202
      3190      3186      3189      3191      3191      3194      3196      3197
      3191      3194      3202      3203      3191      3194      3202      3204
      3191      3194      3202      3205      3192      3191      3194      3195
      3192      3191      3194      3196      3192      3191      3194      3202
      3193      3191      3194      3195      3193      3191      3194      3196
      3193      3191      3194      3202      3194      3196      3197      3198
      3194      3196      3197      3199      3194      3202      3205      3206
      3195      3194      3196      3197      3195      3194      3202      3203
      3195      3194      3202      3204      3195      3194      3202      3205
      3196      3194      3202      3203      3196      3194      3202      3204
      3196      3194      3202      3205      3196      3197      3199      3200
      3196      3197      3199      3201      3196      3197      3199      3211
      3197      3196      3194      3202      3197      3199      3211      3212
      3197      3199      3211      3213      3197      3199      3211      3214
      3198      3197      3199      3200      3198      3197      3199      3201
      3198      3197      3199      3211      3199      3211      3214      3215
      3199      3211      3214      3216      3199      3211      3214      3217
      3200      3199      3211      3212      3200      3199      3211      3213
      3200      3199      3211      3214      3201      3199      3211      3212
      3201      3199      3211      3213      3201      3199      3211      3214
      3202      3205      3206      3207      3202      3205      3206      3208
      3203      3202      3205      3206      3204      3202      3205      3206
      3205      3206      3208      3209      3205      3206      3208      3210
      3205      3206      3208      3255      3206      3208      3255      3256
      3206      3208      3255      3257      3206      3208      3255      3258
      3207      3206      3208      3209      3207      3206      3208      3210
      3207      3206      3208      3255      3208      3255      3258      3259
      3208      3255      3258      3260      3208      3255      3258      3261
      3209      3208      3255      3256      3209      3208      3255      3257
      3209      3208      3255      3258      3210      3208      3255      3256
      3210      3208      3255      3257      3210      3208      3255      3258
      3211      3214      3217      3218      3211      3214      3217      3219
      3211      3214      3217      3220      3212      3211      3214      3215
      3212      3211      3214      3216      3212      3211      3214      3217
      3213      3211      3214      3215      3213      3211      3214      3216
      3213      3211      3214      3217      3214      3217      3220      3221
      3214      3217      3220      3222      3214      3217      3220      3223
      3215      3214      3217      3218      3215      3214      3217      3219
      3215      3214      3217      3220      3216      3214      3217      3218
      3216      3214      3217      3219      3216      3214      3217      3220
      3217      3220      3223      3224      3217      3220      3223      3225
      3217      3220      3223      3226      3218      3217      3220      3221
      3218      3217      3220      3222      3218      3217      3220      3223
      3219      3217      3220      3221      3219      3217      3220      3222
      3219      3217      3220      3223      3220      3223      3226      3227
      3220      3223      3226      3228      3220      3223      3226      3229
      3221      3220      3223      3224      3221      3220      3223      3225
      3221      3220      3223      3226      3222      3220      3223      3224
      3222      3220      3223      3225      3222      3220      3223      3226
      3223      3226      3229      3230      3223      3226      3229      3231
      3223      3226      3229      3234      3224      3223      3226      3227
      3224      3223      3226      3228      3224      3223      3226      3229
      3225      3223      3226      3227      3225      3223      3226      3228
      3225      3223      3226      3229      3226      3229      3231      3232
      3226      3229      3231      3233      3226      3229      3231      3234
      3226      3229      3234      3231      3226      3229      3234      3235
      3226      3229      3234      3236      3227      3226      3229      3230
      3227      3226      3229      3231      3227      3226      3229      3234
      3228      3226      3229      3230      3228      3226      3229      3231
      3228      3226      3229      3234      3229      3231      3234      3235
      3229      3231      3234      3236      3229      3234      3231      3232
      3229      3234      3231      3233      3229      3234      3236      3237
      3229      3234      3236      3238      3229      3234      3236      3239
      3230      3229      3231      3232      3230      3229      3231      3233
      3230      3229      3231      3234      3230      3229      3234      3231
      3230      3229      3234      3235      3230      3229      3234      3236
      3231      3229      3234      3235      3231      3229      3234      3236
      3231      3234      3236      3237      3231      3234      3236      3238
      3231      3234      3236      3239      3232      3231      3229      3234
      3232      3231      3234      3235      3232      3231      3234      3236
      3233      3231      3229      3234      3233      3231      3234      3235
      3233      3231      3234      3236      3234      3236      3239      3240
      3234      3236      3239      3241      3234      3236      3239      3242
      3235      3234      3236      3237      3235      3234      3236      3238
      3235      3234      3236      3239      3236      3239      3242      3243
      3236      3239      3242      3244      3236      3239      3242      3245
      3237      3236      3239      3240      3237      3236      3239      3241
      3237      3236      3239      3242      3238      3236      3239      3240
      3238      3236      3239      3241      3238      3236      3239      3242
      3239      3242      3245      3246      3239      3242      3245      3247
      3239      3242      3245      3248      3240      3239      3242      3243
      3240      3239      3242      3244      3240      3239      3242      3245
      3241      3239      3242      3243      3241      3239      3242      3244
      3241      3239      3242      3245      3242      3245      3248      3249
      3242      3245      3248      3250      3242      3245      3248      3251
      3243      3242      3245      3246      3243      3242      3245      3247
      3243      3242      3245      3248      3244      3242      3245      3246
      3244      3242      3245      3247      3244      3242      3245      3248
      3245      3248      3251      3252      3245      3248      3251      3253
      3245      3248      3251      3254      3246      3245      3248      3249
      3246      3245      3248      3250      3246      3245      3248      3251
      3247      3245      3248      3249      3247      3245      3248      3250
      3247      3245      3248      3251      3249      3248      3251      3252
      3249      3248      3251      3253      3249      3248      3251      3254
      3250      3248      3251      3252      3250      3248      3251      3253
      3250      3248      3251      3254      3255      3258      3261      3262
      3255      3258      3261      3263      3255      3258      3261      3264
      3256      3255      3258      3259      3256      3255      3258      3260
      3256      3255      3258      3261      3257      3255      3258      3259
      3257      3255      3258      3260      3257      3255      3258      3261
      3258      3261      3264      3265      3258      3261      3264      3266
      3258      3261      3264      3267      3259      3258      3261      3262
      3259      3258      3261      3263      3259      3258      3261      3264
      3260      3258      3261      3262      3260      3258      3261      3263
      3260      3258      3261      3264      3261      3264      3267      3268
      3261      3264      3267      3269      3261      3264      3267      3270
      3262      3261      3264      3265      3262      3261      3264      3266
      3262      3261      3264      3267      3263      3261      3264      3265
      3263      3261      3264      3266      3263      3261      3264      3267
      3264      3267      3270      3271      3264      3267      3270      3272
      3264      3267      3270      3273      3265      3264      3267      3268
      3265      3264      3267      3269      3265      3264      3267      3270
      3266      3264      3267      3268      3266      3264      3267      3269
      3266      3264      3267      3270      3267      3270      3273      3274
      3267      3270      3273      3275      3267      3270      3273      3276
      3268      3267      3270      3271      3268      3267      3270      3272
      3268      3267      3270      3273      3269      3267      3270      3271
      3269      3267      3270      3272      3269      3267      3270      3273
      3270      3273      3276      3277      3270      3273      3276      3278
      3270      3273      3276      3279      3271      3270      3273      3274
      3271      3270      3273      3275      3271      3270      3273      3276
      3272      3270      3273      3274      3272      3270      3273      3275
      3272      3270      3273      3276      3273      3276      3279      3280
      3273      3276      3279      3281      3273      3276      3279      3282
      3274      3273      3276      3277      3274      3273      3276      3278
      3274      3273      3276      3279      3275      3273      3276      3277
      3275      3273      3276      3278      3275      3273      3276      3279
      3276      3279      3282      3283      3276      3279      3282      3284
      3276      3279      3282      3285      3277      3276      3279      3280
      3277      3276      3279      3281      3277      3276      3279      3282
      3278      3276      3279      3280      3278      3276      3279      3281
      3278      3276      3279      3282      3279      3282      3285      3286
      3279      3282      3285      3287      3279      3282      3285      3288
      3280      3279      3282      3283      3280      3279      3282      3284
      3280      3279      3282      3285      3281      3279      3282      3283
      3281      3279      3282      3284      3281      3279      3282      3285
      3282      3285      3288      3289      3282      3285      3288      3290
      3282      3285      3288      3291      3283      3282      3285      3286
      3283      3282      3285      3287      3283      3282      3285      3288
      3284      3282      3285      3286      3284      3282      3285      3287
      3284      3282      3285      3288      3285      3288      3291      3292
      3285      3288      3291      3293      3285      3288      3291      3294
      3286      3285      3288      3289      3286      3285      3288      3290
      3286      3285      3288      3291      3287      3285      3288      3289
      3287      3285      3288      3290      3287      3285      3288      3291
      3288      3291      3294      3295      3288      3291      3294      3296
      3288      3291      3294      3297      3289      3288      3291      3292
      3289      3288      3291      3293      3289      3288      3291      3294
      3290      3288      3291      3292      3290      3288      3291      3293
      3290      3288      3291      3294      3292      3291      3294      3295
      3292      3291      3294      3296      3292      3291      3294      3297
      3293      3291      3294      3295      3293      3291      3294      3296
      3293      3291      3294      3297      3298      3302      3305      3306
      3298      3302      3305      3307      3298      3302      3305      3312
      3299      3298      3302      3303      3299      3298      3302      3304
      3299      3298      3302      3305      3300      3298      3302      3303
      3300      3298      3302      3304      3300      3298      3302      3305
      3301      3298      3302      3303      3301      3298      3302      3304
      3301      3298      3302      3305      3302      3305      3312      3308
      3303      3302      3305      3306      3303      3302      3305      3307
      3303      3302      3305      3312      3304      3302      3305      3306
      3304      3302      3305      3307      3304      3302      3305      3312
      3305      3312      3308      3309      3305      3312      3308      3310
      3305      3312      3308      3311      3306      3305      3312      3308
      3307      3305      3312      3308      3308      3311      3313      3314
      3308      3311      3313      3315      3308      3311      3313      3316
      3309      3308      3311      3313      3310      3308      3311      3313
      3311      3313      3316      3317      3311      3313      3316      3318
      3311      3313      3316      3324      3312      3308      3311      3313
      3313      3316      3318      3319      3313      3316      3324      3325
      3313      3316      3324      3326      3313      3316      3324      3327
      3314      3313      3316      3317      3314      3313      3316      3318
      3314      3313      3316      3324      3315      3313      3316      3317
      3315      3313      3316      3318      3315      3313      3316      3324
      3316      3318      3319      3320      3316      3318      3319      3321
      3316      3324      3327      3328      3317      3316      3318      3319
      3317      3316      3324      3325      3317      3316      3324      3326
      3317      3316      3324      3327      3318      3316      3324      3325
      3318      3316      3324      3326      3318      3316      3324      3327
      3318      3319      3321      3322      3318      3319      3321      3323
      3318      3319      3321      3333      3319      3318      3316      3324
      3319      3321      3333      3334      3319      3321      3333      3335
      3319      3321      3333      3336      3320      3319      3321      3322
      3320      3319      3321      3323      3320      3319      3321      3333
      3321      3333      3336      3337      3321      3333      3336      3338
      3321      3333      3336      3339      3322      3321      3333      3334
      3322      3321      3333      3335      3322      3321      3333      3336
      3323      3321      3333      3334      3323      3321      3333      3335
      3323      3321      3333      3336      3324      3327      3328      3329
      3324      3327      3328      3330      3325      3324      3327      3328
      3326      3324      3327      3328      3327      3328      3330      3331
      3327      3328      3330      3332      3327      3328      3330      3377
      3328      3330      3377      3378      3328      3330      3377      3379
      3328      3330      3377      3380      3329      3328      3330      3331
      3329      3328      3330      3332      3329      3328      3330      3377
      3330      3377      3380      3381      3330      3377      3380      3382
      3330      3377      3380      3383      3331      3330      3377      3378
      3331      3330      3377      3379      3331      3330      3377      3380
      3332      3330      3377      3378      3332      3330      3377      3379
      3332      3330      3377      3380      3333      3336      3339      3340
      3333      3336      3339      3341      3333      3336      3339      3342
      3334      3333      3336      3337      3334      3333      3336      3338
      3334      3333      3336      3339      3335      3333      3336      3337
      3335      3333      3336      3338      3335      3333      3336      3339
      3336      3339      3342      3343      3336      3339      3342      3344
      3336      3339      3342      3345      3337      3336      3339      3340
      3337      3336      3339      3341      3337      3336      3339      3342
      3338      3336      3339      3340      3338      3336      3339      3341
      3338      3336      3339      3342      3339      3342      3345      3346
      3339      3342      3345      3347      3339      3342      3345      3348
      3340      3339      3342      3343      3340      3339      3342      3344
      3340      3339      3342      3345      3341      3339      3342      3343
      3341      3339      3342      3344      3341      3339      3342      3345
      3342      3345      3348      3349      3342      3345      3348      3350
      3342      3345      3348      3351      3343      3342      3345      3346
      3343      3342      3345      3347      3343      3342      3345      3348
      3344      3342      3345      3346      3344      3342      3345      3347
      3344      3342      3345      3348      3345      3348      3351      3352
      3345      3348      3351      3353      3345      3348      3351      3356
      3346      3345      3348      3349      3346      3345      3348      3350
      3346      3345      3348      3351      3347      3345      3348      3349
      3347      3345      3348      3350      3347      3345      3348      3351
      3348      3351      3353      3354      3348      3351      3353      3355
      3348      3351      3353      3356      3348      3351      3356      3353
      3348      3351      3356      3357      3348      3351      3356      3358
      3349      3348      3351      3352      3349      3348      3351      3353
      3349      3348      3351      3356      3350      3348      3351      3352
      3350      3348      3351      3353      3350      3348      3351      3356
      3351      3353      3356      3357      3351      3353      3356      3358
      3351      3356      3353      3354      3351      3356      3353      3355
      3351      3356      3358      3359      3351      3356      3358      3360
      3351      3356      3358      3361      3352      3351      3353      3354
      3352      3351      3353      3355      3352      3351      3353      3356
      3352      3351      3356      3353      3352      3351      3356      3357
      3352      3351      3356      3358      3353      3351      3356      3357
      3353      3351      3356      3358      3353      3356      3358      3359
      3353      3356      3358      3360      3353      3356      3358      3361
      3354      3353      3351      3356      3354      3353      3356      3357
      3354      3353      3356      3358      3355      3353      3351      3356
      3355      3353      3356      3357      3355      3353      3356      3358
      3356      3358      3361      3362      3356      3358      3361      3363
      3356      3358      3361      3364      3357      3356      3358      3359
      3357      3356      3358      3360      3357      3356      3358      3361
      3358      3361      3364      3365      3358      3361      3364      3366
      3358      3361      3364      3367      3359      3358      3361      3362
      3359      3358      3361      3363      3359      3358      3361      3364
      3360      3358      3361      3362      3360      3358      3361      3363
      3360      3358      3361      3364      3361      3364      3367      3368
      3361      3364      3367      3369      3361      3364      3367      3370
      3362      3361      3364      3365      3362      3361      3364      3366
      3362      3361      3364      3367      3363      3361      3364      3365
      3363      3361      3364      3366      3363      3361      3364      3367
      3364      3367      3370      3371      3364      3367      3370      3372
      3364      3367      3370      3373      3365      3364      3367      3368
      3365      3364      3367      3369      3365      3364      3367      3370
      3366      3364      3367      3368      3366      3364      3367      3369
      3366      3364      3367      3370      3367      3370      3373      3374
      3367      3370      3373      3375      3367      3370      3373      3376
      3368      3367      3370      3371      3368      3367      3370      3372
      3368      3367      3370      3373      3369      3367      3370      3371
      3369      3367      3370      3372      3369      3367      3370      3373
      3371      3370      3373      3374      3371      3370      3373      3375
      3371      3370      3373      3376      3372      3370      3373      3374
      3372      3370      3373      3375      3372      3370      3373      3376
      3377      3380      3383      3384      3377      3380      3383      3385
      3377      3380      3383      3386      3378      3377      3380      3381
      3378      3377      3380      3382      3378      3377      3380      3383
      3379      3377      3380      3381      3379      3377      3380      3382
      3379      3377      3380      3383      3380      3383      3386      3387
      3380      3383      3386      3388      3380      3383      3386      3389
      3381      3380      3383      3384      3381      3380      3383      3385
      3381      3380      3383      3386      3382      3380      3383      3384
      3382      3380      3383      3385      3382      3380      3383      3386
      3383      3386      3389      3390      3383      3386      3389      3391
      3383      3386      3389      3392      3384      3383      3386      3387
      3384      3383      3386      3388      3384      3383      3386      3389
      3385      3383      3386      3387      3385      3383      3386      3388
      3385      3383      3386      3389      3386      3389      3392      3393
      3386      3389      3392      3394      3386      3389      3392      3395
      3387      3386      3389      3390      3387      3386      3389      3391
      3387      3386      3389      3392      3388      3386      3389      3390
      3388      3386      3389      3391      3388      3386      3389      3392
      3389      3392      3395      3396      3389      3392      3395      3397
      3389      3392      3395      3398      3390      3389      3392      3393
      3390      3389      3392      3394      3390      3389      3392      3395
      3391      3389      3392      3393      3391      3389      3392      3394
      3391      3389      3392      3395      3392      3395      3398      3399
      3392      3395      3398      3400      3392      3395      3398      3401
      3393      3392      3395      3396      3393      3392      3395      3397
      3393      3392      3395      3398      3394      3392      3395      3396
      3394      3392      3395      3397      3394      3392      3395      3398
      3395      3398      3401      3402      3395      3398      3401      3403
      3395      3398      3401      3404      3396      3395      3398      3399
      3396      3395      3398      3400      3396      3395      3398      3401
      3397      3395      3398      3399      3397      3395      3398      3400
      3397      3395      3398      3401      3398      3401      3404      3405
      3398      3401      3404      3406      3398      3401      3404      3407
      3399      3398      3401      3402      3399      3398      3401      3403
      3399      3398      3401      3404      3400      3398      3401      3402
      3400      3398      3401      3403      3400      3398      3401      3404
      3401      3404      3407      3408      3401      3404      3407      3409
      3401      3404      3407      3410      3402      3401      3404      3405
      3402      3401      3404      3406      3402      3401      3404      3407
      3403      3401      3404      3405      3403      3401      3404      3406
      3403      3401      3404      3407      3404      3407      3410      3411
      3404      3407      3410      3412      3404      3407      3410      3413
      3405      3404      3407      3408      3405      3404      3407      3409
      3405      3404      3407      3410      3406      3404      3407      3408
      3406      3404      3407      3409      3406      3404      3407      3410
      3407      3410      3413      3414      3407      3410      3413      3415
      3407      3410      3413      3416      3408      3407      3410      3411
      3408      3407      3410      3412      3408      3407      3410      3413
      3409      3407      3410      3411      3409      3407      3410      3412
      3409      3407      3410      3413      3410      3413      3416      3417
      3410      3413      3416      3418      3410      3413      3416      3419
      3411      3410      3413      3414      3411      3410      3413      3415
      3411      3410      3413      3416      3412      3410      3413      3414
      3412      3410      3413      3415      3412      3410      3413      3416
      3414      3413      3416      3417      3414      3413      3416      3418
      3414      3413      3416      3419      3415      3413      3416      3417
      3415      3413      3416      3418      3415      3413      3416      3419
      3420      3425      3427      3428      3420      3425      3429      3430
      3420      3425      3429      3431      3420      3425      3429      3436
      3421      3420      3423      3424      3421      3420      3425      3426
      3421      3420      3425      3427      3421      3420      3425      3429
      3422      3420      3423      3424      3422      3420      3425      3426
      3422      3420      3425      3427      3422      3420      3425      3429
      3423      3420      3425      3426      3423      3420      3425      3427
      3423      3420      3425      3429      3424      3423      3420      3425
      3425      3429      3436      3432      3426      3425      3427      3428
      3426      3425      3429      3430      3426      3425      3429      3431
      3426      3425      3429      3436      3427      3425      3429      3430
      3427      3425      3429      3431      3427      3425      3429      3436
      3428      3427      3425      3429      3429      3436      3432      3433
      3429      3436      3432      3434      3429      3436      3432      3435
      3430      3429      3436      3432      3431      3429      3436      3432
      3432      3435      3437      3438      3432      3435      3437      3439
      3432      3435      3437      3440      3433      3432      3435      3437
      3434      3432      3435      3437      3435      3437      3440      3441
      3435      3437      3440      3442      3435      3437      3440      3448
      3436      3432      3435      3437      3437      3440      3442      3443
      3437      3440      3448      3449      3437      3440      3448      3450
      3437      3440      3448      3451      3438      3437      3440      3441
      3438      3437      3440      3442      3438      3437      3440      3448
      3439      3437      3440      3441      3439      3437      3440      3442
      3439      3437      3440      3448      3440      3442      3443      3444
      3440      3442      3443      3445      3440      3448      3451      3452
      3441      3440      3442      3443      3441      3440      3448      3449
      3441      3440      3448      3450      3441      3440      3448      3451
      3442      3440      3448      3449      3442      3440      3448      3450
      3442      3440      3448      3451      3442      3443      3445      3446
      3442      3443      3445      3447      3442      3443      3445      3457
      3443      3442      3440      3448      3443      3445      3457      3458
      3443      3445      3457      3459      3443      3445      3457      3460
      3444      3443      3445      3446      3444      3443      3445      3447
      3444      3443      3445      3457      3445      3457      3460      3461
      3445      3457      3460      3462      3445      3457      3460      3463
      3446      3445      3457      3458      3446      3445      3457      3459
      3446      3445      3457      3460      3447      3445      3457      3458
      3447      3445      3457      3459      3447      3445      3457      3460
      3448      3451      3452      3453      3448      3451      3452      3454
      3449      3448      3451      3452      3450      3448      3451      3452
      3451      3452      3454      3455      3451      3452      3454      3456
      3451      3452      3454      3501      3452      3454      3501      3502
      3452      3454      3501      3503      3452      3454      3501      3504
      3453      3452      3454      3455      3453      3452      3454      3456
      3453      3452      3454      3501      3454      3501      3504      3505
      3454      3501      3504      3506      3454      3501      3504      3507
      3455      3454      3501      3502      3455      3454      3501      3503
      3455      3454      3501      3504      3456      3454      3501      3502
      3456      3454      3501      3503      3456      3454      3501      3504
      3457      3460      3463      3464      3457      3460      3463      3465
      3457      3460      3463      3466      3458      3457      3460      3461
      3458      3457      3460      3462      3458      3457      3460      3463
      3459      3457      3460      3461      3459      3457      3460      3462
      3459      3457      3460      3463      3460      3463      3466      3467
      3460      3463      3466      3468      3460      3463      3466      3469
      3461      3460      3463      3464      3461      3460      3463      3465
      3461      3460      3463      3466      3462      3460      3463      3464
      3462      3460      3463      3465      3462      3460      3463      3466
      3463      3466      3469      3470      3463      3466      3469      3471
      3463      3466      3469      3472      3464      3463      3466      3467
      3464      3463      3466      3468      3464      3463      3466      3469
      3465      3463      3466      3467      3465      3463      3466      3468
      3465      3463      3466      3469      3466      3469      3472      3473
      3466      3469      3472      3474      3466      3469      3472      3475
      3467      3466      3469      3470      3467      3466      3469      3471
      3467      3466      3469      3472      3468      3466      3469      3470
      3468      3466      3469      3471      3468      3466      3469      3472
      3469      3472      3475      3476      3469      3472      3475      3477
      3469      3472      3475      3480      3470      3469      3472      3473
      3470      3469      3472      3474      3470      3469      3472      3475
      3471      3469      3472      3473      3471      3469      3472      3474
      3471      3469      3472      3475      3472      3475      3477      3478
      3472      3475      3477      3479      3472      3475      3477      3480
      3472      3475      3480      3477      3472      3475      3480      3481
      3472      3475      3480      3482      3473      3472      3475      3476
      3473      3472      3475      3477      3473      3472      3475      3480
      3474      3472      3475      3476      3474      3472      3475      3477
      3474      3472      3475      3480      3475      3477      3480      3481
      3475      3477      3480      3482      3475      3480      3477      3478
      3475      3480      3477      3479      3475      3480      3482      3483
      3475      3480      3482      3484      3475      3480      3482      3485
      3476      3475      3477      3478      3476      3475      3477      3479
      3476      3475      3477      3480      3476      3475      3480      3477
      3476      3475      3480      3481      3476      3475      3480      3482
      3477      3475      3480      3481      3477      3475      3480      3482
      3477      3480      3482      3483      3477      3480      3482      3484
      3477      3480      3482      3485      3478      3477      3475      3480
      3478      3477      3480      3481      3478      3477      3480      3482
      3479      3477      3475      3480      3479      3477      3480      3481
      3479      3477      3480      3482      3480      3482      3485      3486
      3480      3482      3485      3487      3480      3482      3485      3488
      3481      3480      3482      3483      3481      3480      3482      3484
      3481      3480      3482      3485      3482      3485      3488      3489
      3482      3485      3488      3490      3482      3485      3488      3491
      3483      3482      3485      3486      3483      3482      3485      3487
      3483      3482      3485      3488      3484      3482      3485      3486
      3484      3482      3485      3487      3484      3482      3485      3488
      3485      3488      3491      3492      3485      3488      3491      3493
      3485      3488      3491      3494      3486      3485      3488      3489
      3486      3485      3488      3490      3486      3485      3488      3491
      3487      3485      3488      3489      3487      3485      3488      3490
      3487      3485      3488      3491      3488      3491      3494      3495
      3488      3491      3494      3496      3488      3491      3494      3497
      3489      3488      3491      3492      3489      3488      3491      3493
      3489      3488      3491      3494      3490      3488      3491      3492
      3490      3488      3491      3493      3490      3488      3491      3494
      3491      3494      3497      3498      3491      3494      3497      3499
      3491      3494      3497      3500      3492      3491      3494      3495
      3492      3491      3494      3496      3492      3491      3494      3497
      3493      3491      3494      3495      3493      3491      3494      3496
      3493      3491      3494      3497      3495      3494      3497      3498
      3495      3494      3497      3499      3495      3494      3497      3500
      3496      3494      3497      3498      3496      3494      3497      3499
      3496      3494      3497      3500      3501      3504      3507      3508
      3501      3504      3507      3509      3501      3504      3507      3510
      3502      3501      3504      3505      3502      3501      3504      3506
      3502      3501      3504      3507      3503      3501      3504      3505
      3503      3501      3504      3506      3503      3501      3504      3507
      3504      3507      3510      3511      3504      3507      3510      3512
      3504      3507      3510      3513      3505      3504      3507      3508
      3505      3504      3507      3509      3505      3504      3507      3510
      3506      3504      3507      3508      3506      3504      3507      3509
      3506      3504      3507      3510      3507      3510      3513      3514
      3507      3510      3513      3515      3507      3510      3513      3516
      3508      3507      3510      3511      3508      3507      3510      3512
      3508      3507      3510      3513      3509      3507      3510      3511
      3509      3507      3510      3512      3509      3507      3510      3513
      3510      3513      3516      3517      3510      3513      3516      3518
      3510      3513      3516      3519      3511      3510      3513      3514
      3511      3510      3513      3515      3511      3510      3513      3516
      3512      3510      3513      3514      3512      3510      3513      3515
      3512      3510      3513      3516      3513      3516      3519      3520
      3513      3516      3519      3521      3513      3516      3519      3522
      3514      3513      3516      3517      3514      3513      3516      3518
      3514      3513      3516      3519      3515      3513      3516      3517
      3515      3513      3516      3518      3515      3513      3516      3519
      3516      3519      3522      3523      3516      3519      3522      3524
      3516      3519      3522      3525      3517      3516      3519      3520
      3517      3516      3519      3521      3517      3516      3519      3522
      3518      3516      3519      3520      3518      3516      3519      3521
      3518      3516      3519      3522      3519      3522      3525      3526
      3519      3522      3525      3527      3519      3522      3525      3528
      3520      3519      3522      3523      3520      3519      3522      3524
      3520      3519      3522      3525      3521      3519      3522      3523
      3521      3519      3522      3524      3521      3519      3522      3525
      3522      3525      3528      3529      3522      3525      3528      3530
      3522      3525      3528      3531      3523      3522      3525      3526
      3523      3522      3525      3527      3523      3522      3525      3528
      3524      3522      3525      3526      3524      3522      3525      3527
      3524      3522      3525      3528      3525      3528      3531      3532
      3525      3528      3531      3533      3525      3528      3531      3534
      3526      3525      3528      3529      3526      3525      3528      3530
      3526      3525      3528      3531      3527      3525      3528      3529
      3527      3525      3528      3530      3527      3525      3528      3531
      3528      3531      3534      3535      3528      3531      3534      3536
      3528      3531      3534      3537      3529      3528      3531      3532
      3529      3528      3531      3533      3529      3528      3531      3534
      3530      3528      3531      3532      3530      3528      3531      3533
      3530      3528      3531      3534      3531      3534      3537      3538
      3531      3534      3537      3539      3531      3534      3537      3540
      3532      3531      3534      3535      3532      3531      3534      3536
      3532      3531      3534      3537      3533      3531      3534      3535
      3533      3531      3534      3536      3533      3531      3534      3537
      3534      3537      3540      3541      3534      3537      3540      3542
      3534      3537      3540      3543      3535      3534      3537      3538
      3535      3534      3537      3539      3535      3534      3537      3540
      3536      3534      3537      3538      3536      3534      3537      3539
      3536      3534      3537      3540      3538      3537      3540      3541
      3538      3537      3540      3542      3538      3537      3540      3543
      3539      3537      3540      3541      3539      3537      3540      3542
      3539      3537      3540      3543      3544      3548      3551      3552
      3544      3548      3551      3553      3544      3548      3551      3558
      3545      3544      3548      3549      3545      3544      3548      3550
      3545      3544      3548      3551      3546      3544      3548      3549
      3546      3544      3548      3550      3546      3544      3548      3551
      3547      3544      3548      3549      3547      3544      3548      3550
      3547      3544      3548      3551      3548      3551      3558      3554
      3549      3548      3551      3552      3549      3548      3551      3553
      3549      3548      3551      3558      3550      3548      3551      3552
      3550      3548      3551      3553      3550      3548      3551      3558
      3551      3558      3554      3555      3551      3558      3554      3556
      3551      3558      3554      3557      3552      3551      3558      3554
      3553      3551      3558      3554      3554      3557      3559      3560
      3554      3557      3559      3561      3554      3557      3559      3562
      3555      3554      3557      3559      3556      3554      3557      3559
      3557      3559      3562      3563      3557      3559      3562      3564
      3557      3559      3562      3570      3558      3554      3557      3559
      3559      3562      3564      3565      3559      3562      3570      3571
      3559      3562      3570      3572      3559      3562      3570      3573
      3560      3559      3562      3563      3560      3559      3562      3564
      3560      3559      3562      3570      3561      3559      3562      3563
      3561      3559      3562      3564      3561      3559      3562      3570
      3562      3564      3565      3566      3562      3564      3565      3567
      3562      3570      3573      3574      3563      3562      3564      3565
      3563      3562      3570      3571      3563      3562      3570      3572
      3563      3562      3570      3573      3564      3562      3570      3571
      3564      3562      3570      3572      3564      3562      3570      3573
      3564      3565      3567      3568      3564      3565      3567      3569
      3564      3565      3567      3579      3565      3564      3562      3570
      3565      3567      3579      3580      3565      3567      3579      3581
      3565      3567      3579      3582      3566      3565      3567      3568
      3566      3565      3567      3569      3566      3565      3567      3579
      3567      3579      3582      3583      3567      3579      3582      3584
      3567      3579      3582      3585      3568      3567      3579      3580
      3568      3567      3579      3581      3568      3567      3579      3582
      3569      3567      3579      3580      3569      3567      3579      3581
      3569      3567      3579      3582      3570      3573      3574      3575
      3570      3573      3574      3576      3571      3570      3573      3574
      3572      3570      3573      3574      3573      3574      3576      3577
      3573      3574      3576      3578      3573      3574      3576      3623
      3574      3576      3623      3624      3574      3576      3623      3625
      3574      3576      3623      3626      3575      3574      3576      3577
      3575      3574      3576      3578      3575      3574      3576      3623
      3576      3623      3626      3627      3576      3623      3626      3628
      3576      3623      3626      3629      3577      3576      3623      3624
      3577      3576      3623      3625      3577      3576      3623      3626
      3578      3576      3623      3624      3578      3576      3623      3625
      3578      3576      3623      3626      3579      3582      3585      3586
      3579      3582      3585      3587      3579      3582      3585      3588
      3580      3579      3582      3583      3580      3579      3582      3584
      3580      3579      3582      3585      3581      3579      3582      3583
      3581      3579      3582      3584      3581      3579      3582      3585
      3582      3585      3588      3589      3582      3585      3588      3590
      3582      3585      3588      3591      3583      3582      3585      3586
      3583      3582      3585      3587      3583      3582      3585      3588
      3584      3582      3585      3586      3584      3582      3585      3587
      3584      3582      3585      3588      3585      3588      3591      3592
      3585      3588      3591      3593      3585      3588      3591      3594
      3586      3585      3588      3589      3586      3585      3588      3590
      3586      3585      3588      3591      3587      3585      3588      3589
      3587      3585      3588      3590      3587      3585      3588      3591
      3588      3591      3594      3595      3588      3591      3594      3596
      3588      3591      3594      3597      3589      3588      3591      3592
      3589      3588      3591      3593      3589      3588      3591      3594
      3590      3588      3591      3592      3590      3588      3591      3593
      3590      3588      3591      3594      3591      3594      3597      3598
      3591      3594      3597      3599      3591      3594      3597      3602
      3592      3591      3594      3595      3592      3591      3594      3596
      3592      3591      3594      3597      3593      3591      3594      3595
      3593      3591      3594      3596      3593      3591      3594      3597
      3594      3597      3599      3600      3594      3597      3599      3601
      3594      3597      3599      3602      3594      3597      3602      3599
      3594      3597      3602      3603      3594      3597      3602      3604
      3595      3594      3597      3598      3595      3594      3597      3599
      3595      3594      3597      3602      3596      3594      3597      3598
      3596      3594      3597      3599      3596      3594      3597      3602
      3597      3599      3602      3603      3597      3599      3602      3604
      3597      3602      3599      3600      3597      3602      3599      3601
      3597      3602      3604      3605      3597      3602      3604      3606
      3597      3602      3604      3607      3598      3597      3599      3600
      3598      3597      3599      3601      3598      3597      3599      3602
      3598      3597      3602      3599      3598      3597      3602      3603
      3598      3597      3602      3604      3599      3597      3602      3603
      3599      3597      3602      3604      3599      3602      3604      3605
      3599      3602      3604      3606      3599      3602      3604      3607
      3600      3599      3597      3602      3600      3599      3602      3603
      3600      3599      3602      3604      3601      3599      3597      3602
      3601      3599      3602      3603      3601      3599      3602      3604
      3602      3604      3607      3608      3602      3604      3607      3609
      3602      3604      3607      3610      3603      3602      3604      3605
      3603      3602      3604      3606      3603      3602      3604      3607
      3604      3607      3610      3611      3604      3607      3610      3612
      3604      3607      3610      3613      3605      3604      3607      3608
      3605      3604      3607      3609      3605      3604      3607      3610
      3606      3604      3607      3608      3606      3604      3607      3609
      3606      3604      3607      3610      3607      3610      3613      3614
      3607      3610      3613      3615      3607      3610      3613      3616
      3608      3607      3610      3611      3608      3607      3610      3612
      3608      3607      3610      3613      3609      3607      3610      3611
      3609      3607      3610      3612      3609      3607      3610      3613
      3610      3613      3616      3617      3610      3613      3616      3618
      3610      3613      3616      3619      3611      3610      3613      3614
      3611      3610      3613      3615      3611      3610      3613      3616
      3612      3610      3613      3614      3612      3610      3613      3615
      3612      3610      3613      3616      3613      3616      3619      3620
      3613      3616      3619      3621      3613      3616      3619      3622
      3614      3613      3616      3617      3614      3613      3616      3618
      3614      3613      3616      3619      3615      3613      3616      3617
      3615      3613      3616      3618      3615      3613      3616      3619
      3617      3616      3619      3620      3617      3616      3619      3621
      3617      3616      3619      3622      3618      3616      3619      3620
      3618      3616      3619      3621      3618      3616      3619      3622
      3623      3626      3629      3630      3623      3626      3629      3631
      3623      3626      3629      3632      3624      3623      3626      3627
      3624      3623      3626      3628      3624      3623      3626      3629
      3625      3623      3626      3627      3625      3623      3626      3628
      3625      3623      3626      3629      3626      3629      3632      3633
      3626      3629      3632      3634      3626      3629      3632      3635
      3627      3626      3629      3630      3627      3626      3629      3631
      3627      3626      3629      3632      3628      3626      3629      3630
      3628      3626      3629      3631      3628      3626      3629      3632
      3629      3632      3635      3636      3629      3632      3635      3637
      3629      3632      3635      3638      3630      3629      3632      3633
      3630      3629      3632      3634      3630      3629      3632      3635
      3631      3629      3632      3633      3631      3629      3632      3634
      3631      3629      3632      3635      3632      3635      3638      3639
      3632      3635      3638      3640      3632      3635      3638      3641
      3633      3632      3635      3636      3633      3632      3635      3637
      3633      3632      3635      3638      3634      3632      3635      3636
      3634      3632      3635      3637      3634      3632      3635      3638
      3635      3638      3641      3642      3635      3638      3641      3643
      3635      3638      3641      3644      3636      3635      3638      3639
      3636      3635      3638      3640      3636      3635      3638      3641
      3637      3635      3638      3639      3637      3635      3638      3640
      3637      3635      3638      3641      3638      3641      3644      3645
      3638      3641      3644      3646      3638      3641      3644      3647
      3639      3638      3641      3642      3639      3638      3641      3643
      3639      3638      3641      3644      3640      3638      3641      3642
      3640      3638      3641      3643      3640      3638      3641      3644
      3641      3644      3647      3648      3641      3644      3647      3649
      3641      3644      3647      3650      3642      3641      3644      3645
      3642      3641      3644      3646      3642      3641      3644      3647
      3643      3641      3644      3645      3643      3641      3644      3646
      3643      3641      3644      3647      3644      3647      3650      3651
      3644      3647      3650      3652      3644      3647      3650      3653
      3645      3644      3647      3648      3645      3644      3647      3649
      3645      3644      3647      3650      3646      3644      3647      3648
      3646      3644      3647      3649      3646      3644      3647      3650
      3647      3650      3653      3654      3647      3650      3653      3655
      3647      3650      3653      3656      3648      3647      3650      3651
      3648      3647      3650      3652      3648      3647      3650      3653
      3649      3647      3650      3651      3649      3647      3650      3652
      3649      3647      3650      3653      3650      3653      3656      3657
      3650      3653      3656      3658      3650      3653      3656      3659
      3651      3650      3653      3654      3651      3650      3653      3655
      3651      3650      3653      3656      3652      3650      3653      3654
      3652      3650      3653      3655      3652      3650      3653      3656
      3653      3656      3659      3660      3653      3656      3659      3661
      3653      3656      3659      3662      3654      3653      3656      3657
      3654      3653      3656      3658      3654      3653      3656      3659
      3655      3653      3656      3657      3655      3653      3656      3658
      3655      3653      3656      3659      3656      3659      3662      3663
      3656      3659      3662      3664      3656      3659      3662      3665
      3657      3656      3659      3660      3657      3656      3659      3661
      3657      3656      3659      3662      3658      3656      3659      3660
      3658      3656      3659      3661      3658      3656      3659      3662
      3660      3659      3662      3663      3660      3659      3662      3664
      3660      3659      3662      3665      3661      3659      3662      3663
      3661      3659      3662      3664      3661      3659      3662      3665
      3666      3671      3673      3674      3666      3671      3675      3676
      3666      3671      3675      3677      3666      3671      3675      3682
      3667      3666      3669      3670      3667      3666      3671      3672
      3667      3666      3671      3673      3667      3666      3671      3675
      3668      3666      3669      3670      3668      3666      3671      3672
      3668      3666      3671      3673      3668      3666      3671      3675
      3669      3666      3671      3672      3669      3666      3671      3673
      3669      3666      3671      3675      3670      3669      3666      3671
      3671      3675      3682      3678      3672      3671      3673      3674
      3672      3671      3675      3676      3672      3671      3675      3677
      3672      3671      3675      3682      3673      3671      3675      3676
      3673      3671      3675      3677      3673      3671      3675      3682
      3674      3673      3671      3675      3675      3682      3678      3679
      3675      3682      3678      3680      3675      3682      3678      3681
      3676      3675      3682      3678      3677      3675      3682      3678
      3678      3681      3683      3684      3678      3681      3683      3685
      3678      3681      3683      3686      3679      3678      3681      3683
      3680      3678      3681      3683      3681      3683      3686      3687
      3681      3683      3686      3688      3681      3683      3686      3694
      3682      3678      3681      3683      3683      3686      3688      3689
      3683      3686      3694      3695      3683      3686      3694      3696
      3683      3686      3694      3697      3684      3683      3686      3687
      3684      3683      3686      3688      3684      3683      3686      3694
      3685      3683      3686      3687      3685      3683      3686      3688
      3685      3683      3686      3694      3686      3688      3689      3690
      3686      3688      3689      3691      3686      3694      3697      3698
      3687      3686      3688      3689      3687      3686      3694      3695
      3687      3686      3694      3696      3687      3686      3694      3697
      3688      3686      3694      3695      3688      3686      3694      3696
      3688      3686      3694      3697      3688      3689      3691      3692
      3688      3689      3691      3693      3688      3689      3691      3703
      3689      3688      3686      3694      3689      3691      3703      3704
      3689      3691      3703      3705      3689      3691      3703      3706
      3690      3689      3691      3692      3690      3689      3691      3693
      3690      3689      3691      3703      3691      3703      3706      3707
      3691      3703      3706      3708      3691      3703      3706      3709
      3692      3691      3703      3704      3692      3691      3703      3705
      3692      3691      3703      3706      3693      3691      3703      3704
      3693      3691      3703      3705      3693      3691      3703      3706
      3694      3697      3698      3699      3694      3697      3698      3700
      3695      3694      3697      3698      3696      3694      3697      3698
      3697      3698      3700      3701      3697      3698      3700      3702
      3697      3698      3700      3744      3698      3700      3744      3745
      3698      3700      3744      3746      3698      3700      3744      3747
      3699      3698      3700      3701      3699      3698      3700      3702
      3699      3698      3700      3744      3700      3744      3747      3748
      3700      3744      3747      3749      3700      3744      3747      3750
      3701      3700      3744      3745      3701      3700      3744      3746
      3701      3700      3744      3747      3702      3700      3744      3745
      3702      3700      3744      3746      3702      3700      3744      3747
      3703      3706      3709      3710      3703      3706      3709      3711
      3703      3706      3709      3712      3704      3703      3706      3707
      3704      3703      3706      3708      3704      3703      3706      3709
      3705      3703      3706      3707      3705      3703      3706      3708
      3705      3703      3706      3709      3706      3709      3712      3713
      3706      3709      3712      3714      3706      3709      3712      3715
      3707      3706      3709      3710      3707      3706      3709      3711
      3707      3706      3709      3712      3708      3706      3709      3710
      3708      3706      3709      3711      3708      3706      3709      3712
      3709      3712      3715      3716      3709      3712      3715      3717
      3709      3712      3715      3718      3710      3709      3712      3713
      3710      3709      3712      3714      3710      3709      3712      3715
      3711      3709      3712      3713      3711      3709      3712      3714
      3711      3709      3712      3715      3712      3715      3718      3719
      3712      3715      3718      3720      3712      3715      3718      3721
      3713      3712      3715      3716      3713      3712      3715      3717
      3713      3712      3715      3718      3714      3712      3715      3716
      3714      3712      3715      3717      3714      3712      3715      3718
      3715      3718      3721      3722      3715      3718      3721      3723
      3716      3715      3718      3719      3716      3715      3718      3720
      3716      3715      3718      3721      3717      3715      3718      3719
      3717      3715      3718      3720      3717      3715      3718      3721
      3718      3721      3723      3724      3718      3721      3723      3725
      3719      3718      3721      3722      3719      3718      3721      3723
      3720      3718      3721      3722      3720      3718      3721      3723
      3721      3723      3725      3726      3721      3723      3725      3727
      3721      3723      3725      3728      3722      3721      3723      3724
      3722      3721      3723      3725      3723      3725      3728      3729
      3723      3725      3728      3730      3723      3725      3728      3731
      3724      3723      3725      3726      3724      3723      3725      3727
      3724      3723      3725      3728      3725      3728      3731      3732
      3725      3728      3731      3733      3725      3728      3731      3734
      3726      3725      3728      3729      3726      3725      3728      3730
      3726      3725      3728      3731      3727      3725      3728      3729
      3727      3725      3728      3730      3727      3725      3728      3731
      3728      3731      3734      3735      3728      3731      3734      3736
      3728      3731      3734      3737      3729      3728      3731      3732
      3729      3728      3731      3733      3729      3728      3731      3734
      3730      3728      3731      3732      3730      3728      3731      3733
      3730      3728      3731      3734      3731      3734      3737      3738
      3731      3734      3737      3739      3731      3734      3737      3740
      3732      3731      3734      3735      3732      3731      3734      3736
      3732      3731      3734      3737      3733      3731      3734      3735
      3733      3731      3734      3736      3733      3731      3734      3737
      3734      3737      3740      3741      3734      3737      3740      3742
      3734      3737      3740      3743      3735      3734      3737      3738
      3735      3734      3737      3739      3735      3734      3737      3740
      3736      3734      3737      3738      3736      3734      3737      3739
      3736      3734      3737      3740      3738      3737      3740      3741
      3738      3737      3740      3742      3738      3737      3740      3743
      3739      3737      3740      3741      3739      3737      3740      3742
      3739      3737      3740      3743      3744      3747      3750      3751
      3744      3747      3750      3752      3744      3747      3750      3753
      3745      3744      3747      3748      3745      3744      3747      3749
      3745      3744      3747      3750      3746      3744      3747      3748
      3746      3744      3747      3749      3746      3744      3747      3750
      3747      3750      3753      3754      3747      3750      3753      3755
      3747      3750      3753      3756      3748      3747      3750      3751
      3748      3747      3750      3752      3748      3747      3750      3753
      3749      3747      3750      3751      3749      3747      3750      3752
      3749      3747      3750      3753      3750      3753      3756      3757
      3750      3753      3756      3758      3750      3753      3756      3759
      3751      3750      3753      3754      3751      3750      3753      3755
      3751      3750      3753      3756      3752      3750      3753      3754
      3752      3750      3753      3755      3752      3750      3753      3756
      3753      3756      3759      3760      3753      3756      3759      3761
      3753      3756      3759      3762      3754      3753      3756      3757
      3754      3753      3756      3758      3754      3753      3756      3759
      3755      3753      3756      3757      3755      3753      3756      3758
      3755      3753      3756      3759      3756      3759      3762      3763
      3756      3759      3762      3764      3756      3759      3762      3765
      3757      3756      3759      3760      3757      3756      3759      3761
      3757      3756      3759      3762      3758      3756      3759      3760
      3758      3756      3759      3761      3758      3756      3759      3762
      3759      3762      3765      3766      3759      3762      3765      3767
      3759      3762      3765      3768      3760      3759      3762      3763
      3760      3759      3762      3764      3760      3759      3762      3765
      3761      3759      3762      3763      3761      3759      3762      3764
      3761      3759      3762      3765      3762      3765      3768      3769
      3762      3765      3768      3770      3762      3765      3768      3771
      3763      3762      3765      3766      3763      3762      3765      3767
      3763      3762      3765      3768      3764      3762      3765      3766
      3764      3762      3765      3767      3764      3762      3765      3768
      3765      3768      3771      3772      3765      3768      3771      3773
      3765      3768      3771      3774      3766      3765      3768      3769
      3766      3765      3768      3770      3766      3765      3768      3771
      3767      3765      3768      3769      3767      3765      3768      3770
      3767      3765      3768      3771      3768      3771      3774      3775
      3768      3771      3774      3776      3768      3771      3774      3777
      3769      3768      3771      3772      3769      3768      3771      3773
      3769      3768      3771      3774      3770      3768      3771      3772
      3770      3768      3771      3773      3770      3768      3771      3774
      3771      3774      3777      3778      3771      3774      3777      3779
      3771      3774      3777      3780      3772      3771      3774      3775
      3772      3771      3774      3776      3772      3771      3774      3777
      3773      3771      3774      3775      3773      3771      3774      3776
      3773      3771      3774      3777      3774      3777      3780      3781
      3774      3777      3780      3782      3774      3777      3780      3783
      3775      3774      3777      3778      3775      3774      3777      3779
      3775      3774      3777      3780      3776      3774      3777      3778
      3776      3774      3777      3779      3776      3774      3777      3780
      3777      3780      3783      3784      3777      3780      3783      3785
      3777      3780      3783      3786      3778      3777      3780      3781
      3778      3777      3780      3782      3778      3777      3780      3783
      3779      3777      3780      3781      3779      3777      3780      3782
      3779      3777      3780      3783      3781      3780      3783      3784
      3781      3780      3783      3785      3781      3780      3783      3786
      3782      3780      3783      3784      3782      3780      3783      3785
      3782      3780      3783      3786      3787      3791      3794      3795
      3787      3791      3794      3796      3787      3791      3794      3801
      3788      3787      3791      3792      3788      3787      3791      3793
      3788      3787      3791      3794      3789      3787      3791      3792
      3789      3787      3791      3793      3789      3787      3791      3794
      3790      3787      3791      3792      3790      3787      3791      3793
      3790      3787      3791      3794      3791      3794      3801      3797
      3792      3791      3794      3795      3792      3791      3794      3796
      3792      3791      3794      3801      3793      3791      3794      3795
      3793      3791      3794      3796      3793      3791      3794      3801
      3794      3801      3797      3798      3794      3801      3797      3799
      3794      3801      3797      3800      3795      3794      3801      3797
      3796      3794      3801      3797      3797      3800      3802      3803
      3797      3800      3802      3804      3797      3800      3802      3805
      3798      3797      3800      3802      3799      3797      3800      3802
      3800      3802      3805      3806      3800      3802      3805      3807
      3800      3802      3805      3813      3801      3797      3800      3802
      3802      3805      3807      3808      3802      3805      3813      3814
      3802      3805      3813      3815      3802      3805      3813      3816
      3803      3802      3805      3806      3803      3802      3805      3807
      3803      3802      3805      3813      3804      3802      3805      3806
      3804      3802      3805      3807      3804      3802      3805      3813
      3805      3807      3808      3809      3805      3807      3808      3810
      3805      3813      3816      3817      3806      3805      3807      3808
      3806      3805      3813      3814      3806      3805      3813      3815
      3806      3805      3813      3816      3807      3805      3813      3814
      3807      3805      3813      3815      3807      3805      3813      3816
      3807      3808      3810      3811      3807      3808      3810      3812
      3807      3808      3810      3822      3808      3807      3805      3813
      3808      3810      3822      3823      3808      3810      3822      3824
      3808      3810      3822      3825      3809      3808      3810      3811
      3809      3808      3810      3812      3809      3808      3810      3822
      3810      3822      3825      3826      3810      3822      3825      3827
      3810      3822      3825      3828      3811      3810      3822      3823
      3811      3810      3822      3824      3811      3810      3822      3825
      3812      3810      3822      3823      3812      3810      3822      3824
      3812      3810      3822      3825      3813      3816      3817      3818
      3813      3816      3817      3819      3814      3813      3816      3817
      3815      3813      3816      3817      3816      3817      3819      3820
      3816      3817      3819      3821      3816      3817      3819      3863
      3817      3819      3863      3864      3817      3819      3863      3865
      3817      3819      3863      3866      3818      3817      3819      3820
      3818      3817      3819      3821      3818      3817      3819      3863
      3819      3863      3866      3867      3819      3863      3866      3868
      3819      3863      3866      3869      3820      3819      3863      3864
      3820      3819      3863      3865      3820      3819      3863      3866
      3821      3819      3863      3864      3821      3819      3863      3865
      3821      3819      3863      3866      3822      3825      3828      3829
      3822      3825      3828      3830      3822      3825      3828      3831
      3823      3822      3825      3826      3823      3822      3825      3827
      3823      3822      3825      3828      3824      3822      3825      3826
      3824      3822      3825      3827      3824      3822      3825      3828
      3825      3828      3831      3832      3825      3828      3831      3833
      3825      3828      3831      3834      3826      3825      3828      3829
      3826      3825      3828      3830      3826      3825      3828      3831
      3827      3825      3828      3829      3827      3825      3828      3830
      3827      3825      3828      3831      3828      3831      3834      3835
      3828      3831      3834      3836      3828      3831      3834      3837
      3829      3828      3831      3832      3829      3828      3831      3833
      3829      3828      3831      3834      3830      3828      3831      3832
      3830      3828      3831      3833      3830      3828      3831      3834
      3831      3834      3837      3838      3831      3834      3837      3839
      3831      3834      3837      3840      3832      3831      3834      3835
      3832      3831      3834      3836      3832      3831      3834      3837
      3833      3831      3834      3835      3833      3831      3834      3836
      3833      3831      3834      3837      3834      3837      3840      3841
      3834      3837      3840      3842      3835      3834      3837      3838
      3835      3834      3837      3839      3835      3834      3837      3840
      3836      3834      3837      3838      3836      3834      3837      3839
      3836      3834      3837      3840      3837      3840      3842      3843
      3837      3840      3842      3844      3838      3837      3840      3841
      3838      3837      3840      3842      3839      3837      3840      3841
      3839      3837      3840      3842      3840      3842      3844      3845
      3840      3842      3844      3846      3840      3842      3844      3847
      3841      3840      3842      3843      3841      3840      3842      3844
      3842      3844      3847      3848      3842      3844      3847      3849
      3842      3844      3847      3850      3843      3842      3844      3845
      3843      3842      3844      3846      3843      3842      3844      3847
      3844      3847      3850      3851      3844      3847      3850      3852
      3844      3847      3850      3853      3845      3844      3847      3848
      3845      3844      3847      3849      3845      3844      3847      3850
      3846      3844      3847      3848      3846      3844      3847      3849
      3846      3844      3847      3850      3847      3850      3853      3854
      3847      3850      3853      3855      3847      3850      3853      3856
      3848      3847      3850      3851      3848      3847      3850      3852
      3848      3847      3850      3853      3849      3847      3850      3851
      3849      3847      3850      3852      3849      3847      3850      3853
      3850      3853      3856      3857      3850      3853      3856      3858
      3850      3853      3856      3859      3851      3850      3853      3854
      3851      3850      3853      3855      3851      3850      3853      3856
      3852      3850      3853      3854      3852      3850      3853      3855
      3852      3850      3853      3856      3853      3856      3859      3860
      3853      3856      3859      3861      3853      3856      3859      3862
      3854      3853      3856      3857      3854      3853      3856      3858
      3854      3853      3856      3859      3855      3853      3856      3857
      3855      3853      3856      3858      3855      3853      3856      3859
      3857      3856      3859      3860      3857      3856      3859      3861
      3857      3856      3859      3862      3858      3856      3859      3860
      3858      3856      3859      3861      3858      3856      3859      3862
      3863      3866      3869      3870      3863      3866      3869      3871
      3863      3866      3869      3872      3864      3863      3866      3867
      3864      3863      3866      3868      3864      3863      3866      3869
      3865      3863      3866      3867      3865      3863      3866      3868
      3865      3863      3866      3869      3866      3869      3872      3873
      3866      3869      3872      3874      3866      3869      3872      3875
      3867      3866      3869      3870      3867      3866      3869      3871
      3867      3866      3869      3872      3868      3866      3869      3870
      3868      3866      3869      3871      3868      3866      3869      3872
      3869      3872      3875      3876      3869      3872      3875      3877
      3869      3872      3875      3878      3870      3869      3872      3873
      3870      3869      3872      3874      3870      3869      3872      3875
      3871      3869      3872      3873      3871      3869      3872      3874
      3871      3869      3872      3875      3872      3875      3878      3879
      3872      3875      3878      3880      3872      3875      3878      3881
      3873      3872      3875      3876      3873      3872      3875      3877
      3873      3872      3875      3878      3874      3872      3875      3876
      3874      3872      3875      3877      3874      3872      3875      3878
      3875      3878      3881      3882      3875      3878      3881      3883
      3876      3875      3878      3879      3876      3875      3878      3880
      3876      3875      3878      3881      3877      3875      3878      3879
      3877      3875      3878      3880      3877      3875      3878      3881
      3878      3881      3883      3884      3878      3881      3883      3885
      3879      3878      3881      3882      3879      3878      3881      3883
      3880      3878      3881      3882      3880      3878      3881      3883
      3881      3883      3885      3886      3881      3883      3885      3887
      3881      3883      3885      3888      3882      3881      3883      3884
      3882      3881      3883      3885      3883      3885      3888      3889
      3883      3885      3888      3890      3883      3885      3888      3891
      3884      3883      3885      3886      3884      3883      3885      3887
      3884      3883      3885      3888      3885      3888      3891      3892
      3885      3888      3891      3893      3885      3888      3891      3894
      3886      3885      3888      3889      3886      3885      3888      3890
      3886      3885      3888      3891      3887      3885      3888      3889
      3887      3885      3888      3890      3887      3885      3888      3891
      3888      3891      3894      3895      3888      3891      3894      3896
      3888      3891      3894      3897      3889      3888      3891      3892
      3889      3888      3891      3893      3889      3888      3891      3894
      3890      3888      3891      3892      3890      3888      3891      3893
      3890      3888      3891      3894      3891      3894      3897      3898
      3891      3894      3897      3899      3891      3894      3897      3900
      3892      3891      3894      3895      3892      3891      3894      3896
      3892      3891      3894      3897      3893      3891      3894      3895
      3893      3891      3894      3896      3893      3891      3894      3897
      3894      3897      3900      3901      3894      3897      3900      3902
      3894      3897      3900      3903      3895      3894      3897      3898
      3895      3894      3897      3899      3895      3894      3897      3900
      3896      3894      3897      3898      3896      3894      3897      3899
      3896      3894      3897      3900      3897      3900      3903      3904
      3897      3900      3903      3905      3897      3900      3903      3906
      3898      3897      3900      3901      3898      3897      3900      3902
      3898      3897      3900      3903      3899      3897      3900      3901
      3899      3897      3900      3902      3899      3897      3900      3903
      3900      3903      3906      3907      3900      3903      3906      3908
      3900      3903      3906      3909      3901      3900      3903      3904
      3901      3900      3903      3905      3901      3900      3903      3906
      3902      3900      3903      3904      3902      3900      3903      3905
      3902      3900      3903      3906      3904      3903      3906      3907
      3904      3903      3906      3908      3904      3903      3906      3909
      3905      3903      3906      3907      3905      3903      3906      3908
      3905      3903      3906      3909      3910      3914      3917      3918
      3910      3914      3917      3919      3910      3914      3917      3924
      3911      3910      3914      3915      3911      3910      3914      3916
      3911      3910      3914      3917      3912      3910      3914      3915
      3912      3910      3914      3916      3912      3910      3914      3917
      3913      3910      3914      3915      3913      3910      3914      3916
      3913      3910      3914      3917      3914      3917      3924      3920
      3915      3914      3917      3918      3915      3914      3917      3919
      3915      3914      3917      3924      3916      3914      3917      3918
      3916      3914      3917      3919      3916      3914      3917      3924
      3917      3924      3920      3921      3917      3924      3920      3922
      3917      3924      3920      3923      3918      3917      3924      3920
      3919      3917      3924      3920      3920      3923      3925      3926
      3920      3923      3925      3927      3920      3923      3925      3928
      3921      3920      3923      3925      3922      3920      3923      3925
      3923      3925      3928      3929      3923      3925      3928      3930
      3923      3925      3928      3936      3924      3920      3923      3925
      3925      3928      3930      3931      3925      3928      3936      3937
      3925      3928      3936      3938      3925      3928      3936      3939
      3926      3925      3928      3929      3926      3925      3928      3930
      3926      3925      3928      3936      3927      3925      3928      3929
      3927      3925      3928      3930      3927      3925      3928      3936
      3928      3930      3931      3932      3928      3930      3931      3933
      3928      3936      3939      3940      3929      3928      3930      3931
      3929      3928      3936      3937      3929      3928      3936      3938
      3929      3928      3936      3939      3930      3928      3936      3937
      3930      3928      3936      3938      3930      3928      3936      3939
      3930      3931      3933      3934      3930      3931      3933      3935
      3930      3931      3933      3945      3931      3930      3928      3936
      3931      3933      3945      3946      3931      3933      3945      3947
      3931      3933      3945      3948      3932      3931      3933      3934
      3932      3931      3933      3935      3932      3931      3933      3945
      3933      3945      3948      3949      3933      3945      3948      3950
      3933      3945      3948      3951      3934      3933      3945      3946
      3934      3933      3945      3947      3934      3933      3945      3948
      3935      3933      3945      3946      3935      3933      3945      3947
      3935      3933      3945      3948      3936      3939      3940      3941
      3936      3939      3940      3942      3937      3936      3939      3940
      3938      3936      3939      3940      3939      3940      3942      3943
      3939      3940      3942      3944      3939      3940      3942      3986
      3940      3942      3986      3987      3940      3942      3986      3988
      3940      3942      3986      3989      3941      3940      3942      3943
      3941      3940      3942      3944      3941      3940      3942      3986
      3942      3986      3989      3990      3942      3986      3989      3991
      3942      3986      3989      3992      3943      3942      3986      3987
      3943      3942      3986      3988      3943      3942      3986      3989
      3944      3942      3986      3987      3944      3942      3986      3988
      3944      3942      3986      3989      3945      3948      3951      3952
      3945      3948      3951      3953      3945      3948      3951      3954
      3946      3945      3948      3949      3946      3945      3948      3950
      3946      3945      3948      3951      3947      3945      3948      3949
      3947      3945      3948      3950      3947      3945      3948      3951
      3948      3951      3954      3955      3948      3951      3954      3956
      3948      3951      3954      3957      3949      3948      3951      3952
      3949      3948      3951      3953      3949      3948      3951      3954
      3950      3948      3951      3952      3950      3948      3951      3953
      3950      3948      3951      3954      3951      3954      3957      3958
      3951      3954      3957      3959      3951      3954      3957      3960
      3952      3951      3954      3955      3952      3951      3954      3956
      3952      3951      3954      3957      3953      3951      3954      3955
      3953      3951      3954      3956      3953      3951      3954      3957
      3954      3957      3960      3961      3954      3957      3960      3962
      3954      3957      3960      3963      3955      3954      3957      3958
      3955      3954      3957      3959      3955      3954      3957      3960
      3956      3954      3957      3958      3956      3954      3957      3959
      3956      3954      3957      3960      3957      3960      3963      3964
      3957      3960      3963      3965      3958      3957      3960      3961
      3958      3957      3960      3962      3958      3957      3960      3963
      3959      3957      3960      3961      3959      3957      3960      3962
      3959      3957      3960      3963      3960      3963      3965      3966
      3960      3963      3965      3967      3961      3960      3963      3964
      3961      3960      3963      3965      3962      3960      3963      3964
      3962      3960      3963      3965      3963      3965      3967      3968
      3963      3965      3967      3969      3963      3965      3967      3970
      3964      3963      3965      3966      3964      3963      3965      3967
      3965      3967      3970      3971      3965      3967      3970      3972
      3965      3967      3970      3973      3966      3965      3967      3968
      3966      3965      3967      3969      3966      3965      3967      3970
      3967      3970      3973      3974      3967      3970      3973      3975
      3967      3970      3973      3976      3968      3967      3970      3971
      3968      3967      3970      3972      3968      3967      3970      3973
      3969      3967      3970      3971      3969      3967      3970      3972
      3969      3967      3970      3973      3970      3973      3976      3977
      3970      3973      3976      3978      3970      3973      3976      3979
      3971      3970      3973      3974      3971      3970      3973      3975
      3971      3970      3973      3976      3972      3970      3973      3974
      3972      3970      3973      3975      3972      3970      3973      3976
      3973      3976      3979      3980      3973      3976      3979      3981
      3973      3976      3979      3982      3974      3973      3976      3977
      3974      3973      3976      3978      3974      3973      3976      3979
      3975      3973      3976      3977      3975      3973      3976      3978
      3975      3973      3976      3979      3976      3979      3982      3983
      3976      3979      3982      3984      3976      3979      3982      3985
      3977      3976      3979      3980      3977      3976      3979      3981
      3977      3976      3979      3982      3978      3976      3979      3980
      3978      3976      3979      3981      3978      3976      3979      3982
      3980      3979      3982      3983      3980      3979      3982      3984
      3980      3979      3982      3985      3981      3979      3982      3983
      3981      3979      3982      3984      3981      3979      3982      3985
      3986      3989      3992      3993      3986      3989      3992      3994
      3986      3989      3992      3995      3987      3986      3989      3990
      3987      3986      3989      3991      3987      3986      3989      3992
      3988      3986      3989      3990      3988      3986      3989      3991
      3988      3986      3989      3992      3989      3992      3995      3996
      3989      3992      3995      3997      3989      3992      3995      3998
      3990      3989      3992      3993      3990      3989      3992      3994
      3990      3989      3992      3995      3991      3989      3992      3993
      3991      3989      3992      3994      3991      3989      3992      3995
      3992      3995      3998      3999      3992      3995      3998      4000
      3992      3995      3998      4001      3993      3992      3995      3996
      3993      3992      3995      3997      3993      3992      3995      3998
      3994      3992      3995      3996      3994      3992      3995      3997
      3994      3992      3995      3998      3995      3998      4001      4002
      3995      3998      4001      4003      3995      3998      4001      4004
      3996      3995      3998      3999      3996      3995      3998      4000
      3996      3995      3998      4001      3997      3995      3998      3999
      3997      3995      3998      4000      3997      3995      3998      4001
      3998      4001      4004      4005      3998      4001      4004      4006
      3999      3998      4001      4002      3999      3998      4001      4003
      3999      3998      4001      4004      4000      3998      4001      4002
      4000      3998      4001      4003      4000      3998      4001      4004
      4001      4004      4006      4007      4001      4004      4006      4008
      4002      4001      4004      4005      4002      4001      4004      4006
      4003      4001      4004      4005      4003      4001      4004      4006
      4004      4006      4008      4009      4004      4006      4008      4010
      4004      4006      4008      4011      4005      4004      4006      4007
      4005      4004      4006      4008      4006      4008      4011      4012
      4006      4008      4011      4013      4006      4008      4011      4014
      4007      4006      4008      4009      4007      4006      4008      4010
      4007      4006      4008      4011      4008      4011      4014      4015
      4008      4011      4014      4016      4008      4011      4014      4017
      4009      4008      4011      4012      4009      4008      4011      4013
      4009      4008      4011      4014      4010      4008      4011      4012
      4010      4008      4011      4013      4010      4008      4011      4014
      4011      4014      4017      4018      4011      4014      4017      4019
      4011      4014      4017      4020      4012      4011      4014      4015
      4012      4011      4014      4016      4012      4011      4014      4017
      4013      4011      4014      4015      4013      4011      4014      4016
      4013      4011      4014      4017      4014      4017      4020      4021
      4014      4017      4020      4022      4014      4017      4020      4023
      4015      4014      4017      4018      4015      4014      4017      4019
      4015      4014      4017      4020      4016      4014      4017      4018
      4016      4014      4017      4019      4016      4014      4017      4020
      4017      4020      4023      4024      4017      4020      4023      4025
      4017      4020      4023      4026      4018      4017      4020      4021
      4018      4017      4020      4022      4018      4017      4020      4023
      4019      4017      4020      4021      4019      4017      4020      4022
      4019      4017      4020      4023      4020      4023      4026      4027
      4020      4023      4026      4028      4020      4023      4026      4029
      4021      4020      4023      4024      4021      4020      4023      4025
      4021      4020      4023      4026      4022      4020      4023      4024
      4022      4020      4023      4025      4022      4020      4023      4026
      4023      4026      4029      4030      4023      4026      4029      4031
      4023      4026      4029      4032      4024      4023      4026      4027
      4024      4023      4026      4028      4024      4023      4026      4029
      4025      4023      4026      4027      4025      4023      4026      4028
      4025      4023      4026      4029      4027      4026      4029      4030
      4027      4026      4029      4031      4027      4026      4029      4032
      4028      4026      4029      4030      4028      4026      4029      4031
      4028      4026      4029      4032      4033      4038      4040      4041
      4033      4038      4042      4043      4033      4038      4042      4044
      4033      4038      4042      4049      4034      4033      4036      4037
      4034      4033      4038      4039      4034      4033      4038      4040
      4034      4033      4038      4042      4035      4033      4036      4037
      4035      4033      4038      4039      4035      4033      4038      4040
      4035      4033      4038      4042      4036      4033      4038      4039
      4036      4033      4038      4040      4036      4033      4038      4042
      4037      4036      4033      4038      4038      4042      4049      4045
      4039      4038      4040      4041      4039      4038      4042      4043
      4039      4038      4042      4044      4039      4038      4042      4049
      4040      4038      4042      4043      4040      4038      4042      4044
      4040      4038      4042      4049      4041      4040      4038      4042
      4042      4049      4045      4046      4042      4049      4045      4047
      4042      4049      4045      4048      4043      4042      4049      4045
      4044      4042      4049      4045      4045      4048      4050      4051
      4045      4048      4050      4052      4045      4048      4050      4053
      4046      4045      4048      4050      4047      4045      4048      4050
      4048      4050      4053      4054      4048      4050      4053      4055
      4048      4050      4053      4061      4049      4045      4048      4050
      4050      4053      4055      4056      4050      4053      4061      4062
      4050      4053      4061      4063      4050      4053      4061      4064
      4051      4050      4053      4054      4051      4050      4053      4055
      4051      4050      4053      4061      4052      4050      4053      4054
      4052      4050      4053      4055      4052      4050      4053      4061
      4053      4055      4056      4057      4053      4055      4056      4058
      4053      4061      4064      4065      4054      4053      4055      4056
      4054      4053      4061      4062      4054      4053      4061      4063
      4054      4053      4061      4064      4055      4053      4061      4062
      4055      4053      4061      4063      4055      4053      4061      4064
      4055      4056      4058      4059      4055      4056      4058      4060
      4055      4056      4058      4070      4056      4055      4053      4061
      4056      4058      4070      4071      4056      4058      4070      4072
      4056      4058      4070      4073      4057      4056      4058      4059
      4057      4056      4058      4060      4057      4056      4058      4070
      4058      4070      4073      4074      4058      4070      4073      4075
      4058      4070      4073      4076      4059      4058      4070      4071
      4059      4058      4070      4072      4059      4058      4070      4073
      4060      4058      4070      4071      4060      4058      4070      4072
      4060      4058      4070      4073      4061      4064      4065      4066
      4061      4064      4065      4067      4062      4061      4064      4065
      4063      4061      4064      4065      4064      4065      4067      4068
      4064      4065      4067      4069      4064      4065      4067      4114
      4065      4067      4114      4115      4065      4067      4114      4116
      4065      4067      4114      4117      4066      4065      4067      4068
      4066      4065      4067      4069      4066      4065      4067      4114
      4067      4114      4117      4118      4067      4114      4117      4119
      4067      4114      4117      4120      4068      4067      4114      4115
      4068      4067      4114      4116      4068      4067      4114      4117
      4069      4067      4114      4115      4069      4067      4114      4116
      4069      4067      4114      4117      4070      4073      4076      4077
      4070      4073      4076      4078      4070      4073      4076      4079
      4071      4070      4073      4074      4071      4070      4073      4075
      4071      4070      4073      4076      4072      4070      4073      4074
      4072      4070      4073      4075      4072      4070      4073      4076
      4073      4076      4079      4080      4073      4076      4079      4081
      4073      4076      4079      4082      4074      4073      4076      4077
      4074      4073      4076      4078      4074      4073      4076      4079
      4075      4073      4076      4077      4075      4073      4076      4078
      4075      4073      4076      4079      4076      4079      4082      4083
      4076      4079      4082      4084      4076      4079      4082      4085
      4077      4076      4079      4080      4077      4076      4079      4081
      4077      4076      4079      4082      4078      4076      4079      4080
      4078      4076      4079      4081      4078      4076      4079      4082
      4079      4082      4085      4086      4079      4082      4085      4087
      4079      4082      4085      4088      4080      4079      4082      4083
      4080      4079      4082      4084      4080      4079      4082      4085
      4081      4079      4082      4083      4081      4079      4082      4084
      4081      4079      4082      4085      4082      4085      4088      4089
      4082      4085      4088      4090      4082      4085      4088      4093
      4083      4082      4085      4086      4083      4082      4085      4087
      4083      4082      4085      4088      4084      4082      4085      4086
      4084      4082      4085      4087      4084      4082      4085      4088
      4085      4088      4090      4091      4085      4088      4090      4092
      4085      4088      4090      4093      4085      4088      4093      4090
      4085      4088      4093      4094      4085      4088      4093      4095
      4086      4085      4088      4089      4086      4085      4088      4090
      4086      4085      4088      4093      4087      4085      4088      4089
      4087      4085      4088      4090      4087      4085      4088      4093
      4088      4090      4093      4094      4088      4090      4093      4095
      4088      4093      4090      4091      4088      4093      4090      4092
      4088      4093      4095      4096      4088      4093      4095      4097
      4088      4093      4095      4098      4089      4088      4090      4091
      4089      4088      4090      4092      4089      4088      4090      4093
      4089      4088      4093      4090      4089      4088      4093      4094
      4089      4088      4093      4095      4090      4088      4093      4094
      4090      4088      4093      4095      4090      4093      4095      4096
      4090      4093      4095      4097      4090      4093      4095      4098
      4091      4090      4088      4093      4091      4090      4093      4094
      4091      4090      4093      4095      4092      4090      4088      4093
      4092      4090      4093      4094      4092      4090      4093      4095
      4093      4095      4098      4099      4093      4095      4098      4100
      4093      4095      4098      4101      4094      4093      4095      4096
      4094      4093      4095      4097      4094      4093      4095      4098
      4095      4098      4101      4102      4095      4098      4101      4103
      4095      4098      4101      4104      4096      4095      4098      4099
      4096      4095      4098      4100      4096      4095      4098      4101
      4097      4095      4098      4099      4097      4095      4098      4100
      4097      4095      4098      4101      4098      4101      4104      4105
      4098      4101      4104      4106      4098      4101      4104      4107
      4099      4098      4101      4102      4099      4098      4101      4103
      4099      4098      4101      4104      4100      4098      4101      4102
      4100      4098      4101      4103      4100      4098      4101      4104
      4101      4104      4107      4108      4101      4104      4107      4109
      4101      4104      4107      4110      4102      4101      4104      4105
      4102      4101      4104      4106      4102      4101      4104      4107
      4103      4101      4104      4105      4103      4101      4104      4106
      4103      4101      4104      4107      4104      4107      4110      4111
      4104      4107      4110      4112      4104      4107      4110      4113
      4105      4104      4107      4108      4105      4104      4107      4109
      4105      4104      4107      4110      4106      4104      4107      4108
      4106      4104      4107      4109      4106      4104      4107      4110
      4108      4107      4110      4111      4108      4107      4110      4112
      4108      4107      4110      4113      4109      4107      4110      4111
      4109      4107      4110      4112      4109      4107      4110      4113
      4114      4117      4120      4121      4114      4117      4120      4122
      4114      4117      4120      4123      4115      4114      4117      4118
      4115      4114      4117      4119      4115      4114      4117      4120
      4116      4114      4117      4118      4116      4114      4117      4119
      4116      4114      4117      4120      4117      4120      4123      4124
      4117      4120      4123      4125      4117      4120      4123      4126
      4118      4117      4120      4121      4118      4117      4120      4122
      4118      4117      4120      4123      4119      4117      4120      4121
      4119      4117      4120      4122      4119      4117      4120      4123
      4120      4123      4126      4127      4120      4123      4126      4128
      4120      4123      4126      4129      4121      4120      4123      4124
      4121      4120      4123      4125      4121      4120      4123      4126
      4122      4120      4123      4124      4122      4120      4123      4125
      4122      4120      4123      4126      4123      4126      4129      4130
      4123      4126      4129      4131      4123      4126      4129      4132
      4124      4123      4126      4127      4124      4123      4126      4128
      4124      4123      4126      4129      4125      4123      4126      4127
      4125      4123      4126      4128      4125      4123      4126      4129
      4126      4129      4132      4133      4126      4129      4132      4134
      4126      4129      4132      4135      4127      4126      4129      4130
      4127      4126      4129      4131      4127      4126      4129      4132
      4128      4126      4129      4130      4128      4126      4129      4131
      4128      4126      4129      4132      4129      4132      4135      4136
      4129      4132      4135      4137      4129      4132      4135      4138
      4130      4129      4132      4133      4130      4129      4132      4134
      4130      4129      4132      4135      4131      4129      4132      4133
      4131      4129      4132      4134      4131      4129      4132      4135
      4132      4135      4138      4139      4132      4135      4138      4140
      4132      4135      4138      4141      4133      4132      4135      4136
      4133      4132      4135      4137      4133      4132      4135      4138
      4134      4132      4135      4136      4134      4132      4135      4137
      4134      4132      4135      4138      4135      4138      4141      4142
      4135      4138      4141      4143      4135      4138      4141      4144
      4136      4135      4138      4139      4136      4135      4138      4140
      4136      4135      4138      4141      4137      4135      4138      4139
      4137      4135      4138      4140      4137      4135      4138      4141
      4138      4141      4144      4145      4138      4141      4144      4146
      4138      4141      4144      4147      4139      4138      4141      4142
      4139      4138      4141      4143      4139      4138      4141      4144
      4140      4138      4141      4142      4140      4138      4141      4143
      4140      4138      4141      4144      4141      4144      4147      4148
      4141      4144      4147      4149      4141      4144      4147      4150
      4142      4141      4144      4145      4142      4141      4144      4146
      4142      4141      4144      4147      4143      4141      4144      4145
      4143      4141      4144      4146      4143      4141      4144      4147
      4144      4147      4150      4151      4144      4147      4150      4152
      4144      4147      4150      4153      4145      4144      4147      4148
      4145      4144      4147      4149      4145      4144      4147      4150
      4146      4144      4147      4148      4146      4144      4147      4149
      4146      4144      4147      4150      4147      4150      4153      4154
      4147      4150      4153      4155      4147      4150      4153      4156
      4148      4147      4150      4151      4148      4147      4150      4152
      4148      4147      4150      4153      4149      4147      4150      4151
      4149      4147      4150      4152      4149      4147      4150      4153
      4151      4150      4153      4154      4151      4150      4153      4155
      4151      4150      4153      4156      4152      4150      4153      4154
      4152      4150      4153      4155      4152      4150      4153      4156
      4157      4161      4164      4165      4157      4161      4164      4166
      4157      4161      4164      4171      4158      4157      4161      4162
      4158      4157      4161      4163      4158      4157      4161      4164
      4159      4157      4161      4162      4159      4157      4161      4163
      4159      4157      4161      4164      4160      4157      4161      4162
      4160      4157      4161      4163      4160      4157      4161      4164
      4161      4164      4171      4167      4162      4161      4164      4165
      4162      4161      4164      4166      4162      4161      4164      4171
      4163      4161      4164      4165      4163      4161      4164      4166
      4163      4161      4164      4171      4164      4171      4167      4168
      4164      4171      4167      4169      4164      4171      4167      4170
      4165      4164      4171      4167      4166      4164      4171      4167
      4167      4170      4172      4173      4167      4170      4172      4174
      4167      4170      4172      4175      4168      4167      4170      4172
      4169      4167      4170      4172      4170      4172      4175      4176
      4170      4172      4175      4177      4170      4172      4175      4183
      4171      4167      4170      4172      4172      4175      4177      4178
      4172      4175      4183      4184      4172      4175      4183      4185
      4172      4175      4183      4186      4173      4172      4175      4176
      4173      4172      4175      4177      4173      4172      4175      4183
      4174      4172      4175      4176      4174      4172      4175      4177
      4174      4172      4175      4183      4175      4177      4178      4179
      4175      4177      4178      4180      4175      4183      4186      4187
      4176      4175      4177      4178      4176      4175      4183      4184
      4176      4175      4183      4185      4176      4175      4183      4186
      4177      4175      4183      4184      4177      4175      4183      4185
      4177      4175      4183      4186      4177      4178      4180      4181
      4177      4178      4180      4182      4177      4178      4180      4192
      4178      4177      4175      4183      4178      4180      4192      4193
      4178      4180      4192      4194      4178      4180      4192      4195
      4179      4178      4180      4181      4179      4178      4180      4182
      4179      4178      4180      4192      4180      4192      4195      4196
      4180      4192      4195      4197      4180      4192      4195      4198
      4181      4180      4192      4193      4181      4180      4192      4194
      4181      4180      4192      4195      4182      4180      4192      4193
      4182      4180      4192      4194      4182      4180      4192      4195
      4183      4186      4187      4188      4183      4186      4187      4189
      4184      4183      4186      4187      4185      4183      4186      4187
      4186      4187      4189      4190      4186      4187      4189      4191
      4186      4187      4189      4236      4187      4189      4236      4237
      4187      4189      4236      4238      4187      4189      4236      4239
      4188      4187      4189      4190      4188      4187      4189      4191
      4188      4187      4189      4236      4189      4236      4239      4240
      4189      4236      4239      4241      4189      4236      4239      4242
      4190      4189      4236      4237      4190      4189      4236      4238
      4190      4189      4236      4239      4191      4189      4236      4237
      4191      4189      4236      4238      4191      4189      4236      4239
      4192      4195      4198      4199      4192      4195      4198      4200
      4192      4195      4198      4201      4193      4192      4195      4196
      4193      4192      4195      4197      4193      4192      4195      4198
      4194      4192      4195      4196      4194      4192      4195      4197
      4194      4192      4195      4198      4195      4198      4201      4202
      4195      4198      4201      4203      4195      4198      4201      4204
      4196      4195      4198      4199      4196      4195      4198      4200
      4196      4195      4198      4201      4197      4195      4198      4199
      4197      4195      4198      4200      4197      4195      4198      4201
      4198      4201      4204      4205      4198      4201      4204      4206
      4198      4201      4204      4207      4199      4198      4201      4202
      4199      4198      4201      4203      4199      4198      4201      4204
      4200      4198      4201      4202      4200      4198      4201      4203
      4200      4198      4201      4204      4201      4204      4207      4208
      4201      4204      4207      4209      4201      4204      4207      4210
      4202      4201      4204      4205      4202      4201      4204      4206
      4202      4201      4204      4207      4203      4201      4204      4205
      4203      4201      4204      4206      4203      4201      4204      4207
      4204      4207      4210      4211      4204      4207      4210      4212
      4204      4207      4210      4215      4205      4204      4207      4208
      4205      4204      4207      4209      4205      4204      4207      4210
      4206      4204      4207      4208      4206      4204      4207      4209
      4206      4204      4207      4210      4207      4210      4212      4213
      4207      4210      4212      4214      4207      4210      4212      4215
      4207      4210      4215      4212      4207      4210      4215      4216
      4207      4210      4215      4217      4208      4207      4210      4211
      4208      4207      4210      4212      4208      4207      4210      4215
      4209      4207      4210      4211      4209      4207      4210      4212
      4209      4207      4210      4215      4210      4212      4215      4216
      4210      4212      4215      4217      4210      4215      4212      4213
      4210      4215      4212      4214      4210      4215      4217      4218
      4210      4215      4217      4219      4210      4215      4217      4220
      4211      4210      4212      4213      4211      4210      4212      4214
      4211      4210      4212      4215      4211      4210      4215      4212
      4211      4210      4215      4216      4211      4210      4215      4217
      4212      4210      4215      4216      4212      4210      4215      4217
      4212      4215      4217      4218      4212      4215      4217      4219
      4212      4215      4217      4220      4213      4212      4210      4215
      4213      4212      4215      4216      4213      4212      4215      4217
      4214      4212      4210      4215      4214      4212      4215      4216
      4214      4212      4215      4217      4215      4217      4220      4221
      4215      4217      4220      4222      4215      4217      4220      4223
      4216      4215      4217      4218      4216      4215      4217      4219
      4216      4215      4217      4220      4217      4220      4223      4224
      4217      4220      4223      4225      4217      4220      4223      4226
      4218      4217      4220      4221      4218      4217      4220      4222
      4218      4217      4220      4223      4219      4217      4220      4221
      4219      4217      4220      4222      4219      4217      4220      4223
      4220      4223      4226      4227      4220      4223      4226      4228
      4220      4223      4226      4229      4221      4220      4223      4224
      4221      4220      4223      4225      4221      4220      4223      4226
      4222      4220      4223      4224      4222      4220      4223      4225
      4222      4220      4223      4226      4223      4226      4229      4230
      4223      4226      4229      4231      4223      4226      4229      4232
      4224      4223      4226      4227      4224      4223      4226      4228
      4224      4223      4226      4229      4225      4223      4226      4227
      4225      4223      4226      4228      4225      4223      4226      4229
      4226      4229      4232      4233      4226      4229      4232      4234
      4226      4229      4232      4235      4227      4226      4229      4230
      4227      4226      4229      4231      4227      4226      4229      4232
      4228      4226      4229      4230      4228      4226      4229      4231
      4228      4226      4229      4232      4230      4229      4232      4233
      4230      4229      4232      4234      4230      4229      4232      4235
      4231      4229      4232      4233      4231      4229      4232      4234
      4231      4229      4232      4235      4236      4239      4242      4243
      4236      4239      4242      4244      4236      4239      4242      4245
      4237      4236      4239      4240      4237      4236      4239      4241
      4237      4236      4239      4242      4238      4236      4239      4240
      4238      4236      4239      4241      4238      4236      4239      4242
      4239      4242      4245      4246      4239      4242      4245      4247
      4239      4242      4245      4248      4240      4239      4242      4243
      4240      4239      4242      4244      4240      4239      4242      4245
      4241      4239      4242      4243      4241      4239      4242      4244
      4241      4239      4242      4245      4242      4245      4248      4249
      4242      4245      4248      4250      4242      4245      4248      4251
      4243      4242      4245      4246      4243      4242      4245      4247
      4243      4242      4245      4248      4244      4242      4245      4246
      4244      4242      4245      4247      4244      4242      4245      4248
      4245      4248      4251      4252      4245      4248      4251      4253
      4245      4248      4251      4254      4246      4245      4248      4249
      4246      4245      4248      4250      4246      4245      4248      4251
      4247      4245      4248      4249      4247      4245      4248      4250
      4247      4245      4248      4251      4248      4251      4254      4255
      4248      4251      4254      4256      4248      4251      4254      4257
      4249      4248      4251      4252      4249      4248      4251      4253
      4249      4248      4251      4254      4250      4248      4251      4252
      4250      4248      4251      4253      4250      4248      4251      4254
      4251      4254      4257      4258      4251      4254      4257      4259
      4251      4254      4257      4260      4252      4251      4254      4255
      4252      4251      4254      4256      4252      4251      4254      4257
      4253      4251      4254      4255      4253      4251      4254      4256
      4253      4251      4254      4257      4254      4257      4260      4261
      4254      4257      4260      4262      4254      4257      4260      4263
      4255      4254      4257      4258      4255      4254      4257      4259
      4255      4254      4257      4260      4256      4254      4257      4258
      4256      4254      4257      4259      4256      4254      4257      4260
      4257      4260      4263      4264      4257      4260      4263      4265
      4257      4260      4263      4266      4258      4257      4260      4261
      4258      4257      4260      4262      4258      4257      4260      4263
      4259      4257      4260      4261      4259      4257      4260      4262
      4259      4257      4260      4263      4260      4263      4266      4267
      4260      4263      4266      4268      4260      4263      4266      4269
      4261      4260      4263      4264      4261      4260      4263      4265
      4261      4260      4263      4266      4262      4260      4263      4264
      4262      4260      4263      4265      4262      4260      4263      4266
      4263      4266      4269      4270      4263      4266      4269      4271
      4263      4266      4269      4272      4264      4263      4266      4267
      4264      4263      4266      4268      4264      4263      4266      4269
      4265      4263      4266      4267      4265      4263      4266      4268
      4265      4263      4266      4269      4266      4269      4272      4273
      4266      4269      4272      4274      4266      4269      4272      4275
      4267      4266      4269      4270      4267      4266      4269      4271
      4267      4266      4269      4272      4268      4266      4269      4270
      4268      4266      4269      4271      4268      4266      4269      4272
      4269      4272      4275      4276      4269      4272      4275      4277
      4269      4272      4275      4278      4270      4269      4272      4273
      4270      4269      4272      4274      4270      4269      4272      4275
      4271      4269      4272      4273      4271      4269      4272      4274
      4271      4269      4272      4275      4273      4272      4275      4276
      4273      4272      4275      4277      4273      4272      4275      4278
      4274      4272      4275      4276      4274      4272      4275      4277
      4274      4272      4275      4278      4279      4283      4286      4287
      4279      4283      4286      4288      4279      4283      4286      4293
      4280      4279      4283      4284      4280      4279      4283      4285
      4280      4279      4283      4286      4281      4279      4283      4284
      4281      4279      4283      4285      4281      4279      4283      4286
      4282      4279      4283      4284      4282      4279      4283      4285
      4282      4279      4283      4286      4283      4286      4293      4289
      4284      4283      4286      4287      4284      4283      4286      4288
      4284      4283      4286      4293      4285      4283      4286      4287
      4285      4283      4286      4288      4285      4283      4286      4293
      4286      4293      4289      4290      4286      4293      4289      4291
      4286      4293      4289      4292      4287      4286      4293      4289
      4288      4286      4293      4289      4289      4292      4294      4295
      4289      4292      4294      4296      4289      4292      4294      4297
      4290      4289      4292      4294      4291      4289      4292      4294
      4292      4294      4297      4298      4292      4294      4297      4299
      4292      4294      4297      4305      4293      4289      4292      4294
      4294      4297      4299      4300      4294      4297      4305      4306
      4294      4297      4305      4307      4294      4297      4305      4308
      4295      4294      4297      4298      4295      4294      4297      4299
      4295      4294      4297      4305      4296      4294      4297      4298
      4296      4294      4297      4299      4296      4294      4297      4305
      4297      4299      4300      4301      4297      4299      4300      4302
      4297      4305      4308      4309      4298      4297      4299      4300
      4298      4297      4305      4306      4298      4297      4305      4307
      4298      4297      4305      4308      4299      4297      4305      4306
      4299      4297      4305      4307      4299      4297      4305      4308
      4299      4300      4302      4303      4299      4300      4302      4304
      4299      4300      4302      4314      4300      4299      4297      4305
      4300      4302      4314      4315      4300      4302      4314      4316
      4300      4302      4314      4317      4301      4300      4302      4303
      4301      4300      4302      4304      4301      4300      4302      4314
      4302      4314      4317      4318      4302      4314      4317      4319
      4302      4314      4317      4320      4303      4302      4314      4315
      4303      4302      4314      4316      4303      4302      4314      4317
      4304      4302      4314      4315      4304      4302      4314      4316
      4304      4302      4314      4317      4305      4308      4309      4310
      4305      4308      4309      4311      4306      4305      4308      4309
      4307      4305      4308      4309      4308      4309      4311      4312
      4308      4309      4311      4313      4308      4309      4311      4361
      4309      4311      4361      4362      4309      4311      4361      4363
      4309      4311      4361      4364      4310      4309      4311      4312
      4310      4309      4311      4313      4310      4309      4311      4361
      4311      4361      4364      4365      4311      4361      4364      4366
      4311      4361      4364      4367      4312      4311      4361      4362
      4312      4311      4361      4363      4312      4311      4361      4364
      4313      4311      4361      4362      4313      4311      4361      4363
      4313      4311      4361      4364      4314      4317      4320      4321
      4314      4317      4320      4322      4314      4317      4320      4323
      4315      4314      4317      4318      4315      4314      4317      4319
      4315      4314      4317      4320      4316      4314      4317      4318
      4316      4314      4317      4319      4316      4314      4317      4320
      4317      4320      4323      4324      4317      4320      4323      4325
      4317      4320      4323      4326      4318      4317      4320      4321
      4318      4317      4320      4322      4318      4317      4320      4323
      4319      4317      4320      4321      4319      4317      4320      4322
      4319      4317      4320      4323      4320      4323      4326      4327
      4320      4323      4326      4328      4320      4323      4326      4329
      4321      4320      4323      4324      4321      4320      4323      4325
      4321      4320      4323      4326      4322      4320      4323      4324
      4322      4320      4323      4325      4322      4320      4323      4326
      4323      4326      4329      4330      4323      4326      4329      4331
      4323      4326      4329      4332      4324      4323      4326      4327
      4324      4323      4326      4328      4324      4323      4326      4329
      4325      4323      4326      4327      4325      4323      4326      4328
      4325      4323      4326      4329      4326      4329      4332      4333
      4326      4329      4332      4334      4327      4326      4329      4330
      4327      4326      4329      4331      4327      4326      4329      4332
      4328      4326      4329      4330      4328      4326      4329      4331
      4328      4326      4329      4332      4329      4332      4334      4335
      4329      4332      4334      4336      4330      4329      4332      4333
      4330      4329      4332      4334      4331      4329      4332      4333
      4331      4329      4332      4334      4332      4334      4336      4337
      4332      4334      4336      4338      4332      4334      4336      4339
      4333      4332      4334      4335      4333      4332      4334      4336
      4334      4336      4339      4340      4334      4336      4339      4341
      4334      4336      4339      4342      4335      4334      4336      4337
      4335      4334      4336      4338      4335      4334      4336      4339
      4336      4339      4342      4343      4336      4339      4342      4344
      4336      4339      4342      4345      4337      4336      4339      4340
      4337      4336      4339      4341      4337      4336      4339      4342
      4338      4336      4339      4340      4338      4336      4339      4341
      4338      4336      4339      4342      4339      4342      4345      4346
      4339      4342      4345      4347      4339      4342      4345      4348
      4340      4339      4342      4343      4340      4339      4342      4344
      4340      4339      4342      4345      4341      4339      4342      4343
      4341      4339      4342      4344      4341      4339      4342      4345
      4342      4345      4348      4349      4342      4345      4348      4350
      4342      4345      4348      4351      4343      4342      4345      4346
      4343      4342      4345      4347      4343      4342      4345      4348
      4344      4342      4345      4346      4344      4342      4345      4347
      4344      4342      4345      4348      4345      4348      4351      4352
      4345      4348      4351      4353      4345      4348      4351      4354
      4346      4345      4348      4349      4346      4345      4348      4350
      4346      4345      4348      4351      4347      4345      4348      4349
      4347      4345      4348      4350      4347      4345      4348      4351
      4348      4351      4354      4355      4348      4351      4354      4356
      4348      4351      4354      4357      4349      4348      4351      4352
      4349      4348      4351      4353      4349      4348      4351      4354
      4350      4348      4351      4352      4350      4348      4351      4353
      4350      4348      4351      4354      4351      4354      4357      4358
      4351      4354      4357      4359      4351      4354      4357      4360
      4352      4351      4354      4355      4352      4351      4354      4356
      4352      4351      4354      4357      4353      4351      4354      4355
      4353      4351      4354      4356      4353      4351      4354      4357
      4355      4354      4357      4358      4355      4354      4357      4359
      4355      4354      4357      4360      4356      4354      4357      4358
      4356      4354      4357      4359      4356      4354      4357      4360
      4361      4364      4367      4368      4361      4364      4367      4369
      4361      4364      4367      4370      4362      4361      4364      4365
      4362      4361      4364      4366      4362      4361      4364      4367
      4363      4361      4364      4365      4363      4361      4364      4366
      4363      4361      4364      4367      4364      4367      4370      4371
      4364      4367      4370      4372      4364      4367      4370      4373
      4365      4364      4367      4368      4365      4364      4367      4369
      4365      4364      4367      4370      4366      4364      4367      4368
      4366      4364      4367      4369      4366      4364      4367      4370
      4367      4370      4373      4374      4367      4370      4373      4375
      4367      4370      4373      4376      4368      4367      4370      4371
      4368      4367      4370      4372      4368      4367      4370      4373
      4369      4367      4370      4371      4369      4367      4370      4372
      4369      4367      4370      4373      4370      4373      4376      4377
      4370      4373      4376      4378      4370      4373      4376      4379
      4371      4370      4373      4374      4371      4370      4373      4375
      4371      4370      4373      4376      4372      4370      4373      4374
      4372      4370      4373      4375      4372      4370      4373      4376
      4373      4376      4379      4380      4373      4376      4379      4381
      4373      4376      4379      4382      4374      4373      4376      4377
      4374      4373      4376      4378      4374      4373      4376      4379
      4375      4373      4376      4377      4375      4373      4376      4378
      4375      4373      4376      4379      4376      4379      4382      4383
      4376      4379      4382      4384      4376      4379      4382      4385
      4377      4376      4379      4380      4377      4376      4379      4381
      4377      4376      4379      4382      4378      4376      4379      4380
      4378      4376      4379      4381      4378      4376      4379      4382
      4379      4382      4385      4386      4379      4382      4385      4387
      4379      4382      4385      4388      4380      4379      4382      4383
      4380      4379      4382      4384      4380      4379      4382      4385
      4381      4379      4382      4383      4381      4379      4382      4384
      4381      4379      4382      4385      4382      4385      4388      4389
      4382      4385      4388      4390      4382      4385      4388      4391
      4383      4382      4385      4386      4383      4382      4385      4387
      4383      4382      4385      4388      4384      4382      4385      4386
      4384      4382      4385      4387      4384      4382      4385      4388
      4385      4388      4391      4392      4385      4388      4391      4393
      4385      4388      4391      4394      4386      4385      4388      4389
      4386      4385      4388      4390      4386      4385      4388      4391
      4387      4385      4388      4389      4387      4385      4388      4390
      4387      4385      4388      4391      4388      4391      4394      4395
      4388      4391      4394      4396      4388      4391      4394      4397
      4389      4388      4391      4392      4389      4388      4391      4393
      4389      4388      4391      4394      4390      4388      4391      4392
      4390      4388      4391      4393      4390      4388      4391      4394
      4391      4394      4397      4398      4391      4394      4397      4399
      4391      4394      4397      4400      4392      4391      4394      4395
      4392      4391      4394      4396      4392      4391      4394      4397
      4393      4391      4394      4395      4393      4391      4394      4396
      4393      4391      4394      4397      4394      4397      4400      4401
      4394      4397      4400      4402      4394      4397      4400      4403
      4395      4394      4397      4398      4395      4394      4397      4399
      4395      4394      4397      4400      4396      4394      4397      4398
      4396      4394      4397      4399      4396      4394      4397      4400
      4398      4397      4400      4401      4398      4397      4400      4402
      4398      4397      4400      4403      4399      4397      4400      4401
      4399      4397      4400      4402      4399      4397      4400      4403
      4404      4408      4411      4412      4404      4408      4411      4413
      4404      4408      4411      4418      4405      4404      4408      4409
      4405      4404      4408      4410      4405      4404      4408      4411
      4406      4404      4408      4409      4406      4404      4408      4410
      4406      4404      4408      4411      4407      4404      4408      4409
      4407      4404      4408      4410      4407      4404      4408      4411
      4408      4411      4418      4414      4409      4408      4411      4412
      4409      4408      4411      4413      4409      4408      4411      4418
      4410      4408      4411      4412      4410      4408      4411      4413
      4410      4408      4411      4418      4411      4418      4414      4415
      4411      4418      4414      4416      4411      4418      4414      4417
      4412      4411      4418      4414      4413      4411      4418      4414
      4414      4417      4419      4420      4414      4417      4419      4421
      4414      4417      4419      4422      4415      4414      4417      4419
      4416      4414      4417      4419      4417      4419      4422      4423
      4417      4419      4422      4424      4417      4419      4422      4430
      4418      4414      4417      4419      4419      4422      4424      4425
      4419      4422      4430      4431      4419      4422      4430      4432
      4419      4422      4430      4433      4420      4419      4422      4423
      4420      4419      4422      4424      4420      4419      4422      4430
      4421      4419      4422      4423      4421      4419      4422      4424
      4421      4419      4422      4430      4422      4424      4425      4426
      4422      4424      4425      4427      4422      4430      4433      4434
      4423      4422      4424      4425      4423      4422      4430      4431
      4423      4422      4430      4432      4423      4422      4430      4433
      4424      4422      4430      4431      4424      4422      4430      4432
      4424      4422      4430      4433      4424      4425      4427      4428
      4424      4425      4427      4429      4424      4425      4427      4439
      4425      4424      4422      4430      4425      4427      4439      4440
      4425      4427      4439      4441      4425      4427      4439      4442
      4426      4425      4427      4428      4426      4425      4427      4429
      4426      4425      4427      4439      4427      4439      4442      4443
      4427      4439      4442      4444      4427      4439      4442      4445
      4428      4427      4439      4440      4428      4427      4439      4441
      4428      4427      4439      4442      4429      4427      4439      4440
      4429      4427      4439      4441      4429      4427      4439      4442
      4430      4433      4434      4435      4430      4433      4434      4436
      4431      4430      4433      4434      4432      4430      4433      4434
      4433      4434      4436      4437      4433      4434      4436      4438
      4433      4434      4436      4480      4434      4436      4480      4481
      4434      4436      4480      4482      4434      4436      4480      4483
      4435      4434      4436      4437      4435      4434      4436      4438
      4435      4434      4436      4480      4436      4480      4483      4484
      4436      4480      4483      4485      4436      4480      4483      4486
      4437      4436      4480      4481      4437      4436      4480      4482
      4437      4436      4480      4483      4438      4436      4480      4481
      4438      4436      4480      4482      4438      4436      4480      4483
      4439      4442      4445      4446      4439      4442      4445      4447
      4439      4442      4445      4448      4440      4439      4442      4443
      4440      4439      4442      4444      4440      4439      4442      4445
      4441      4439      4442      4443      4441      4439      4442      4444
      4441      4439      4442      4445      4442      4445      4448      4449
      4442      4445      4448      4450      4442      4445      4448      4451
      4443      4442      4445      4446      4443      4442      4445      4447
      4443      4442      4445      4448      4444      4442      4445      4446
      4444      4442      4445      4447      4444      4442      4445      4448
      4445      4448      4451      4452      4445      4448      4451      4453
      4445      4448      4451      4454      4446      4445      4448      4449
      4446      4445      4448      4450      4446      4445      4448      4451
      4447      4445      4448      4449      4447      4445      4448      4450
      4447      4445      4448      4451      4448      4451      4454      4455
      4448      4451      4454      4456      4448      4451      4454      4457
      4449      4448      4451      4452      4449      4448      4451      4453
      4449      4448      4451      4454      4450      4448      4451      4452
      4450      4448      4451      4453      4450      4448      4451      4454
      4451      4454      4457      4458      4451      4454      4457      4459
      4452      4451      4454      4455      4452      4451      4454      4456
      4452      4451      4454      4457      4453      4451      4454      4455
      4453      4451      4454      4456      4453      4451      4454      4457
      4454      4457      4459      4460      4454      4457      4459      4461
      4455      4454      4457      4458      4455      4454      4457      4459
      4456      4454      4457      4458      4456      4454      4457      4459
      4457      4459      4461      4462      4457      4459      4461      4463
      4457      4459      4461      4464      4458      4457      4459      4460
      4458      4457      4459      4461      4459      4461      4464      4465
      4459      4461      4464      4466      4459      4461      4464      4467
      4460      4459      4461      4462      4460      4459      4461      4463
      4460      4459      4461      4464      4461      4464      4467      4468
      4461      4464      4467      4469      4461      4464      4467      4470
      4462      4461      4464      4465      4462      4461      4464      4466
      4462      4461      4464      4467      4463      4461      4464      4465
      4463      4461      4464      4466      4463      4461      4464      4467
      4464      4467      4470      4471      4464      4467      4470      4472
      4464      4467      4470      4473      4465      4464      4467      4468
      4465      4464      4467      4469      4465      4464      4467      4470
      4466      4464      4467      4468      4466      4464      4467      4469
      4466      4464      4467      4470      4467      4470      4473      4474
      4467      4470      4473      4475      4467      4470      4473      4476
      4468      4467      4470      4471      4468      4467      4470      4472
      4468      4467      4470      4473      4469      4467      4470      4471
      4469      4467      4470      4472      4469      4467      4470      4473
      4470      4473      4476      4477      4470      4473      4476      4478
      4470      4473      4476      4479      4471      4470      4473      4474
      4471      4470      4473      4475      4471      4470      4473      4476
      4472      4470      4473      4474      4472      4470      4473      4475
      4472      4470      4473      4476      4474      4473      4476      4477
      4474      4473      4476      4478      4474      4473      4476      4479
      4475      4473      4476      4477      4475      4473      4476      4478
      4475      4473      4476      4479      4480      4483      4486      4487
      4480      4483      4486      4488      4480      4483      4486      4489
      4481      4480      4483      4484      4481      4480      4483      4485
      4481      4480      4483      4486      4482      4480      4483      4484
      4482      4480      4483      4485      4482      4480      4483      4486
      4483      4486      4489      4490      4483      4486      4489      4491
      4483      4486      4489      4492      4484      4483      4486      4487
      4484      4483      4486      4488      4484      4483      4486      4489
      4485      4483      4486      4487      4485      4483      4486      4488
      4485      4483      4486      4489      4486      4489      4492      4493
      4486      4489      4492      4494      4486      4489      4492      4495
      4487      4486      4489      4490      4487      4486      4489      4491
      4487      4486      4489      4492      4488      4486      4489      4490
      4488      4486      4489      4491      4488      4486      4489      4492
      4489      4492      4495      4496      4489      4492      4495      4497
      4489      4492      4495      4498      4490      4489      4492      4493
      4490      4489      4492      4494      4490      4489      4492      4495
      4491      4489      4492      4493      4491      4489      4492      4494
      4491      4489      4492      4495      4492      4495      4498      4499
      4492      4495      4498      4500      4493      4492      4495      4496
      4493      4492      4495      4497      4493      4492      4495      4498
      4494      4492      4495      4496      4494      4492      4495      4497
      4494      4492      4495      4498      4495      4498      4500      4501
      4495      4498      4500      4502      4496      4495      4498      4499
      4496      4495      4498      4500      4497      4495      4498      4499
      4497      4495      4498      4500      4498      4500      4502      4503
      4498      4500      4502      4504      4498      4500      4502      4505
      4499      4498      4500      4501      4499      4498      4500      4502
      4500      4502      4505      4506      4500      4502      4505      4507
      4500      4502      4505      4508      4501      4500      4502      4503
      4501      4500      4502      4504      4501      4500      4502      4505
      4502      4505      4508      4509      4502      4505      4508      4510
      4502      4505      4508      4511      4503      4502      4505      4506
      4503      4502      4505      4507      4503      4502      4505      4508
      4504      4502      4505      4506      4504      4502      4505      4507
      4504      4502      4505      4508      4505      4508      4511      4512
      4505      4508      4511      4513      4505      4508      4511      4514
      4506      4505      4508      4509      4506      4505      4508      4510
      4506      4505      4508      4511      4507      4505      4508      4509
      4507      4505      4508      4510      4507      4505      4508      4511
      4508      4511      4514      4515      4508      4511      4514      4516
      4508      4511      4514      4517      4509      4508      4511      4512
      4509      4508      4511      4513      4509      4508      4511      4514
      4510      4508      4511      4512      4510      4508      4511      4513
      4510      4508      4511      4514      4511      4514      4517      4518
      4511      4514      4517      4519      4511      4514      4517      4520
      4512      4511      4514      4515      4512      4511      4514      4516
      4512      4511      4514      4517      4513      4511      4514      4515
      4513      4511      4514      4516      4513      4511      4514      4517
      4514      4517      4520      4521      4514      4517      4520      4522
      4514      4517      4520      4523      4515      4514      4517      4518
      4515      4514      4517      4519      4515      4514      4517      4520
      4516      4514      4517      4518      4516      4514      4517      4519
      4516      4514      4517      4520      4517      4520      4523      4524
      4517      4520      4523      4525      4517      4520      4523      4526
      4518      4517      4520      4521      4518      4517      4520      4522
      4518      4517      4520      4523      4519      4517      4520      4521
      4519      4517      4520      4522      4519      4517      4520      4523
      4521      4520      4523      4524      4521      4520      4523      4525
      4521      4520      4523      4526      4522      4520      4523      4524
      4522      4520      4523      4525      4522      4520      4523      4526
      4527      4531      4534      4535      4527      4531      4534      4536
      4527      4531      4534      4541      4528      4527      4531      4532
      4528      4527      4531      4533      4528      4527      4531      4534
      4529      4527      4531      4532      4529      4527      4531      4533
      4529      4527      4531      4534      4530      4527      4531      4532
      4530      4527      4531      4533      4530      4527      4531      4534
      4531      4534      4541      4537      4532      4531      4534      4535
      4532      4531      4534      4536      4532      4531      4534      4541
      4533      4531      4534      4535      4533      4531      4534      4536
      4533      4531      4534      4541      4534      4541      4537      4538
      4534      4541      4537      4539      4534      4541      4537      4540
      4535      4534      4541      4537      4536      4534      4541      4537
      4537      4540      4542      4543      4537      4540      4542      4544
      4537      4540      4542      4545      4538      4537      4540      4542
      4539      4537      4540      4542      4540      4542      4545      4546
      4540      4542      4545      4547      4540      4542      4545      4553
      4541      4537      4540      4542      4542      4545      4547      4548
      4542      4545      4553      4554      4542      4545      4553      4555
      4542      4545      4553      4556      4543      4542      4545      4546
      4543      4542      4545      4547      4543      4542      4545      4553
      4544      4542      4545      4546      4544      4542      4545      4547
      4544      4542      4545      4553      4545      4547      4548      4549
      4545      4547      4548      4550      4545      4553      4556      4557
      4546      4545      4547      4548      4546      4545      4553      4554
      4546      4545      4553      4555      4546      4545      4553      4556
      4547      4545      4553      4554      4547      4545      4553      4555
      4547      4545      4553      4556      4547      4548      4550      4551
      4547      4548      4550      4552      4547      4548      4550      4562
      4548      4547      4545      4553      4548      4550      4562      4563
      4548      4550      4562      4564      4548      4550      4562      4565
      4549      4548      4550      4551      4549      4548      4550      4552
      4549      4548      4550      4562      4550      4562      4565      4566
      4550      4562      4565      4567      4550      4562      4565      4568
      4551      4550      4562      4563      4551      4550      4562      4564
      4551      4550      4562      4565      4552      4550      4562      4563
      4552      4550      4562      4564      4552      4550      4562      4565
      4553      4556      4557      4558      4553      4556      4557      4559
      4554      4553      4556      4557      4555      4553      4556      4557
      4556      4557      4559      4560      4556      4557      4559      4561
      4556      4557      4559      4606      4557      4559      4606      4607
      4557      4559      4606      4608      4557      4559      4606      4609
      4558      4557      4559      4560      4558      4557      4559      4561
      4558      4557      4559      4606      4559      4606      4609      4610
      4559      4606      4609      4611      4559      4606      4609      4612
      4560      4559      4606      4607      4560      4559      4606      4608
      4560      4559      4606      4609      4561      4559      4606      4607
      4561      4559      4606      4608      4561      4559      4606      4609
      4562      4565      4568      4569      4562      4565      4568      4570
      4562      4565      4568      4571      4563      4562      4565      4566
      4563      4562      4565      4567      4563      4562      4565      4568
      4564      4562      4565      4566      4564      4562      4565      4567
      4564      4562      4565      4568      4565      4568      4571      4572
      4565      4568      4571      4573      4565      4568      4571      4574
      4566      4565      4568      4569      4566      4565      4568      4570
      4566      4565      4568      4571      4567      4565      4568      4569
      4567      4565      4568      4570      4567      4565      4568      4571
      4568      4571      4574      4575      4568      4571      4574      4576
      4568      4571      4574      4577      4569      4568      4571      4572
      4569      4568      4571      4573      4569      4568      4571      4574
      4570      4568      4571      4572      4570      4568      4571      4573
      4570      4568      4571      4574      4571      4574      4577      4578
      4571      4574      4577      4579      4571      4574      4577      4580
      4572      4571      4574      4575      4572      4571      4574      4576
      4572      4571      4574      4577      4573      4571      4574      4575
      4573      4571      4574      4576      4573      4571      4574      4577
      4574      4577      4580      4581      4574      4577      4580      4582
      4574      4577      4580      4585      4575      4574      4577      4578
      4575      4574      4577      4579      4575      4574      4577      4580
      4576      4574      4577      4578      4576      4574      4577      4579
      4576      4574      4577      4580      4577      4580      4582      4583
      4577      4580      4582      4584      4577      4580      4582      4585
      4577      4580      4585      4582      4577      4580      4585      4586
      4577      4580      4585      4587      4578      4577      4580      4581
      4578      4577      4580      4582      4578      4577      4580      4585
      4579      4577      4580      4581      4579      4577      4580      4582
      4579      4577      4580      4585      4580      4582      4585      4586
      4580      4582      4585      4587      4580      4585      4582      4583
      4580      4585      4582      4584      4580      4585      4587      4588
      4580      4585      4587      4589      4580      4585      4587      4590
      4581      4580      4582      4583      4581      4580      4582      4584
      4581      4580      4582      4585      4581      4580      4585      4582
      4581      4580      4585      4586      4581      4580      4585      4587
      4582      4580      4585      4586      4582      4580      4585      4587
      4582      4585      4587      4588      4582      4585      4587      4589
      4582      4585      4587      4590      4583      4582      4580      4585
      4583      4582      4585      4586      4583      4582      4585      4587
      4584      4582      4580      4585      4584      4582      4585      4586
      4584      4582      4585      4587      4585      4587      4590      4591
      4585      4587      4590      4592      4585      4587      4590      4593
      4586      4585      4587      4588      4586      4585      4587      4589
      4586      4585      4587      4590      4587      4590      4593      4594
      4587      4590      4593      4595      4587      4590      4593      4596
      4588      4587      4590      4591      4588      4587      4590      4592
      4588      4587      4590      4593      4589      4587      4590      4591
      4589      4587      4590      4592      4589      4587      4590      4593
      4590      4593      4596      4597      4590      4593      4596      4598
      4590      4593      4596      4599      4591      4590      4593      4594
      4591      4590      4593      4595      4591      4590      4593      4596
      4592      4590      4593      4594      4592      4590      4593      4595
      4592      4590      4593      4596      4593      4596      4599      4600
      4593      4596      4599      4601      4593      4596      4599      4602
      4594      4593      4596      4597      4594      4593      4596      4598
      4594      4593      4596      4599      4595      4593      4596      4597
      4595      4593      4596      4598      4595      4593      4596      4599
      4596      4599      4602      4603      4596      4599      4602      4604
      4596      4599      4602      4605      4597      4596      4599      4600
      4597      4596      4599      4601      4597      4596      4599      4602
      4598      4596      4599      4600      4598      4596      4599      4601
      4598      4596      4599      4602      4600      4599      4602      4603
      4600      4599      4602      4604      4600      4599      4602      4605
      4601      4599      4602      4603      4601      4599      4602      4604
      4601      4599      4602      4605      4606      4609      4612      4613
      4606      4609      4612      4614      4606      4609      4612      4615
      4607      4606      4609      4610      4607      4606      4609      4611
      4607      4606      4609      4612      4608      4606      4609      4610
      4608      4606      4609      4611      4608      4606      4609      4612
      4609      4612      4615      4616      4609      4612      4615      4617
      4609      4612      4615      4618      4610      4609      4612      4613
      4610      4609      4612      4614      4610      4609      4612      4615
      4611      4609      4612      4613      4611      4609      4612      4614
      4611      4609      4612      4615      4612      4615      4618      4619
      4612      4615      4618      4620      4612      4615      4618      4621
      4613      4612      4615      4616      4613      4612      4615      4617
      4613      4612      4615      4618      4614      4612      4615      4616
      4614      4612      4615      4617      4614      4612      4615      4618
      4615      4618      4621      4622      4615      4618      4621      4623
      4615      4618      4621      4624      4616      4615      4618      4619
      4616      4615      4618      4620      4616      4615      4618      4621
      4617      4615      4618      4619      4617      4615      4618      4620
      4617      4615      4618      4621      4618      4621      4624      4625
      4618      4621      4624      4626      4618      4621      4624      4627
      4619      4618      4621      4622      4619      4618      4621      4623
      4619      4618      4621      4624      4620      4618      4621      4622
      4620      4618      4621      4623      4620      4618      4621      4624
      4621      4624      4627      4628      4621      4624      4627      4629
      4621      4624      4627      4630      4622      4621      4624      4625
      4622      4621      4624      4626      4622      4621      4624      4627
      4623      4621      4624      4625      4623      4621      4624      4626
      4623      4621      4624      4627      4624      4627      4630      4631
      4624      4627      4630      4632      4624      4627      4630      4633
      4625      4624      4627      4628      4625      4624      4627      4629
      4625      4624      4627      4630      4626      4624      4627      4628
      4626      4624      4627      4629      4626      4624      4627      4630
      4627      4630      4633      4634      4627      4630      4633      4635
      4627      4630      4633      4636      4628      4627      4630      4631
      4628      4627      4630      4632      4628      4627      4630      4633
      4629      4627      4630      4631      4629      4627      4630      4632
      4629      4627      4630      4633      4630      4633      4636      4637
      4630      4633      4636      4638      4630      4633      4636      4639
      4631      4630      4633      4634      4631      4630      4633      4635
      4631      4630      4633      4636      4632      4630      4633      4634
      4632      4630      4633      4635      4632      4630      4633      4636
      4633      4636      4639      4640      4633      4636      4639      4641
      4633      4636      4639      4642      4634      4633      4636      4637
      4634      4633      4636      4638      4634      4633      4636      4639
      4635      4633      4636      4637      4635      4633      4636      4638
      4635      4633      4636      4639      4636      4639      4642      4643
      4636      4639      4642      4644      4636      4639      4642      4645
      4637      4636      4639      4640      4637      4636      4639      4641
      4637      4636      4639      4642      4638      4636      4639      4640
      4638      4636      4639      4641      4638      4636      4639      4642
      4639      4642      4645      4646      4639      4642      4645      4647
      4639      4642      4645      4648      4640      4639      4642      4643
      4640      4639      4642      4644      4640      4639      4642      4645
      4641      4639      4642      4643      4641      4639      4642      4644
      4641      4639      4642      4645      4643      4642      4645      4646
      4643      4642      4645      4647      4643      4642      4645      4648
      4644      4642      4645      4646      4644      4642      4645      4647
      4644      4642      4645      4648      4649      4653      4656      4657
      4649      4653      4656      4658      4649      4653      4656      4663
      4650      4649      4653      4654      4650      4649      4653      4655
      4650      4649      4653      4656      4651      4649      4653      4654
      4651      4649      4653      4655      4651      4649      4653      4656
      4652      4649      4653      4654      4652      4649      4653      4655
      4652      4649      4653      4656      4653      4656      4663      4659
      4654      4653      4656      4657      4654      4653      4656      4658
      4654      4653      4656      4663      4655      4653      4656      4657
      4655      4653      4656      4658      4655      4653      4656      4663
      4656      4663      4659      4660      4656      4663      4659      4661
      4656      4663      4659      4662      4657      4656      4663      4659
      4658      4656      4663      4659      4659      4662      4664      4665
      4659      4662      4664      4666      4659      4662      4664      4667
      4660      4659      4662      4664      4661      4659      4662      4664
      4662      4664      4667      4668      4662      4664      4667      4669
      4662      4664      4667      4675      4663      4659      4662      4664
      4664      4667      4669      4670      4664      4667      4675      4676
      4664      4667      4675      4677      4664      4667      4675      4678
      4665      4664      4667      4668      4665      4664      4667      4669
      4665      4664      4667      4675      4666      4664      4667      4668
      4666      4664      4667      4669      4666      4664      4667      4675
      4667      4669      4670      4671      4667      4669      4670      4672
      4667      4675      4678      4679      4668      4667      4669      4670
      4668      4667      4675      4676      4668      4667      4675      4677
      4668      4667      4675      4678      4669      4667      4675      4676
      4669      4667      4675      4677      4669      4667      4675      4678
      4669      4670      4672      4673      4669      4670      4672      4674
      4669      4670      4672      4684      4670      4669      4667      4675
      4670      4672      4684      4685      4670      4672      4684      4686
      4670      4672      4684      4687      4671      4670      4672      4673
      4671      4670      4672      4674      4671      4670      4672      4684
      4672      4684      4687      4688      4672      4684      4687      4689
      4672      4684      4687      4690      4673      4672      4684      4685
      4673      4672      4684      4686      4673      4672      4684      4687
      4674      4672      4684      4685      4674      4672      4684      4686
      4674      4672      4684      4687      4675      4678      4679      4680
      4675      4678      4679      4681      4676      4675      4678      4679
      4677      4675      4678      4679      4678      4679      4681      4682
      4678      4679      4681      4683      4678      4679      4681      4728
      4679      4681      4728      4729      4679      4681      4728      4730
      4679      4681      4728      4731      4680      4679      4681      4682
      4680      4679      4681      4683      4680      4679      4681      4728
      4681      4728      4731      4732      4681      4728      4731      4733
      4681      4728      4731      4734      4682      4681      4728      4729
      4682      4681      4728      4730      4682      4681      4728      4731
      4683      4681      4728      4729      4683      4681      4728      4730
      4683      4681      4728      4731      4684      4687      4690      4691
      4684      4687      4690      4692      4684      4687      4690      4693
      4685      4684      4687      4688      4685      4684      4687      4689
      4685      4684      4687      4690      4686      4684      4687      4688
      4686      4684      4687      4689      4686      4684      4687      4690
      4687      4690      4693      4694      4687      4690      4693      4695
      4687      4690      4693      4696      4688      4687      4690      4691
      4688      4687      4690      4692      4688      4687      4690      4693
      4689      4687      4690      4691      4689      4687      4690      4692
      4689      4687      4690      4693      4690      4693      4696      4697
      4690      4693      4696      4698      4690      4693      4696      4699
      4691      4690      4693      4694      4691      4690      4693      4695
      4691      4690      4693      4696      4692      4690      4693      4694
      4692      4690      4693      4695      4692      4690      4693      4696
      4693      4696      4699      4700      4693      4696      4699      4701
      4693      4696      4699      4702      4694      4693      4696      4697
      4694      4693      4696      4698      4694      4693      4696      4699
      4695      4693      4696      4697      4695      4693      4696      4698
      4695      4693      4696      4699      4696      4699      4702      4703
      4696      4699      4702      4704      4696      4699      4702      4707
      4697      4696      4699      4700      4697      4696      4699      4701
      4697      4696      4699      4702      4698      4696      4699      4700
      4698      4696      4699      4701      4698      4696      4699      4702
      4699      4702      4704      4705      4699      4702      4704      4706
      4699      4702      4704      4707      4699      4702      4707      4704
      4699      4702      4707      4708      4699      4702      4707      4709
      4700      4699      4702      4703      4700      4699      4702      4704
      4700      4699      4702      4707      4701      4699      4702      4703
      4701      4699      4702      4704      4701      4699      4702      4707
      4702      4704      4707      4708      4702      4704      4707      4709
      4702      4707      4704      4705      4702      4707      4704      4706
      4702      4707      4709      4710      4702      4707      4709      4711
      4702      4707      4709      4712      4703      4702      4704      4705
      4703      4702      4704      4706      4703      4702      4704      4707
      4703      4702      4707      4704      4703      4702      4707      4708
      4703      4702      4707      4709      4704      4702      4707      4708
      4704      4702      4707      4709      4704      4707      4709      4710
      4704      4707      4709      4711      4704      4707      4709      4712
      4705      4704      4702      4707      4705      4704      4707      4708
      4705      4704      4707      4709      4706      4704      4702      4707
      4706      4704      4707      4708      4706      4704      4707      4709
      4707      4709      4712      4713      4707      4709      4712      4714
      4707      4709      4712      4715      4708      4707      4709      4710
      4708      4707      4709      4711      4708      4707      4709      4712
      4709      4712      4715      4716      4709      4712      4715      4717
      4709      4712      4715      4718      4710      4709      4712      4713
      4710      4709      4712      4714      4710      4709      4712      4715
      4711      4709      4712      4713      4711      4709      4712      4714
      4711      4709      4712      4715      4712      4715      4718      4719
      4712      4715      4718      4720      4712      4715      4718      4721
      4713      4712      4715      4716      4713      4712      4715      4717
      4713      4712      4715      4718      4714      4712      4715      4716
      4714      4712      4715      4717      4714      4712      4715      4718
      4715      4718      4721      4722      4715      4718      4721      4723
      4715      4718      4721      4724      4716      4715      4718      4719
      4716      4715      4718      4720      4716      4715      4718      4721
      4717      4715      4718      4719      4717      4715      4718      4720
      4717      4715      4718      4721      4718      4721      4724      4725
      4718      4721      4724      4726      4718      4721      4724      4727
      4719      4718      4721      4722      4719      4718      4721      4723
      4719      4718      4721      4724      4720      4718      4721      4722
      4720      4718      4721      4723      4720      4718      4721      4724
      4722      4721      4724      4725      4722      4721      4724      4726
      4722      4721      4724      4727      4723      4721      4724      4725
      4723      4721      4724      4726      4723      4721      4724      4727
      4728      4731      4734      4735      4728      4731      4734      4736
      4728      4731      4734      4737      4729      4728      4731      4732
      4729      4728      4731      4733      4729      4728      4731      4734
      4730      4728      4731      4732      4730      4728      4731      4733
      4730      4728      4731      4734      4731      4734      4737      4738
      4731      4734      4737      4739      4731      4734      4737      4740
      4732      4731      4734      4735      4732      4731      4734      4736
      4732      4731      4734      4737      4733      4731      4734      4735
      4733      4731      4734      4736      4733      4731      4734      4737
      4734      4737      4740      4741      4734      4737      4740      4742
      4734      4737      4740      4743      4735      4734      4737      4738
      4735      4734      4737      4739      4735      4734      4737      4740
      4736      4734      4737      4738      4736      4734      4737      4739
      4736      4734      4737      4740      4737      4740      4743      4744
      4737      4740      4743      4745      4737      4740      4743      4746
      4738      4737      4740      4741      4738      4737      4740      4742
      4738      4737      4740      4743      4739      4737      4740      4741
      4739      4737      4740      4742      4739      4737      4740      4743
      4740      4743      4746      4747      4740      4743      4746      4748
      4740      4743      4746      4749      4741      4740      4743      4744
      4741      4740      4743      4745      4741      4740      4743      4746
      4742      4740      4743      4744      4742      4740      4743      4745
      4742      4740      4743      4746      4743      4746      4749      4750
      4743      4746      4749      4751      4743      4746      4749      4752
      4744      4743      4746      4747      4744      4743      4746      4748
      4744      4743      4746      4749      4745      4743      4746      4747
      4745      4743      4746      4748      4745      4743      4746      4749
      4746      4749      4752      4753      4746      4749      4752      4754
      4746      4749      4752      4755      4747      4746      4749      4750
      4747      4746      4749      4751      4747      4746      4749      4752
      4748      4746      4749      4750      4748      4746      4749      4751
      4748      4746      4749      4752      4749      4752      4755      4756
      4749      4752      4755      4757      4749      4752      4755      4758
      4750      4749      4752      4753      4750      4749      4752      4754
      4750      4749      4752      4755      4751      4749      4752      4753
      4751      4749      4752      4754      4751      4749      4752      4755
      4752      4755      4758      4759      4752      4755      4758      4760
      4752      4755      4758      4761      4753      4752      4755      4756
      4753      4752      4755      4757      4753      4752      4755      4758
      4754      4752      4755      4756      4754      4752      4755      4757
      4754      4752      4755      4758      4755      4758      4761      4762
      4755      4758      4761      4763      4755      4758      4761      4764
      4756      4755      4758      4759      4756      4755      4758      4760
      4756      4755      4758      4761      4757      4755      4758      4759
      4757      4755      4758      4760      4757      4755      4758      4761
      4758      4761      4764      4765      4758      4761      4764      4766
      4758      4761      4764      4767      4759      4758      4761      4762
      4759      4758      4761      4763      4759      4758      4761      4764
      4760      4758      4761      4762      4760      4758      4761      4763
      4760      4758      4761      4764      4761      4764      4767      4768
      4761      4764      4767      4769      4761      4764      4767      4770
      4762      4761      4764      4765      4762      4761      4764      4766
      4762      4761      4764      4767      4763      4761      4764      4765
      4763      4761      4764      4766      4763      4761      4764      4767
      4765      4764      4767      4768      4765      4764      4767      4769
      4765      4764      4767      4770      4766      4764      4767      4768
      4766      4764      4767      4769      4766      4764      4767      4770
      4771      4776      4778      4779      4771      4776      4780      4781
      4771      4776      4780      4782      4771      4776      4780      4787
      4772      4771      4774      4775      4772      4771      4776      4777
      4772      4771      4776      4778      4772      4771      4776      4780
      4773      4771      4774      4775      4773      4771      4776      4777
      4773      4771      4776      4778      4773      4771      4776      4780
      4774      4771      4776      4777      4774      4771      4776      4778
      4774      4771      4776      4780      4775      4774      4771      4776
      4776      4780      4787      4783      4777      4776      4778      4779
      4777      4776      4780      4781      4777      4776      4780      4782
      4777      4776      4780      4787      4778      4776      4780      4781
      4778      4776      4780      4782      4778      4776      4780      4787
      4779      4778      4776      4780      4780      4787      4783      4784
      4780      4787      4783      4785      4780      4787      4783      4786
      4781      4780      4787      4783      4782      4780      4787      4783
      4783      4786      4788      4789      4783      4786      4788      4790
      4783      4786      4788      4791      4784      4783      4786      4788
      4785      4783      4786      4788      4786      4788      4791      4792
      4786      4788      4791      4793      4786      4788      4791      4799
      4787      4783      4786      4788      4788      4791      4793      4794
      4788      4791      4799      4800      4788      4791      4799      4801
      4788      4791      4799      4802      4789      4788      4791      4792
      4789      4788      4791      4793      4789      4788      4791      4799
      4790      4788      4791      4792      4790      4788      4791      4793
      4790      4788      4791      4799      4791      4793      4794      4795
      4791      4793      4794      4796      4791      4799      4802      4803
      4792      4791      4793      4794      4792      4791      4799      4800
      4792      4791      4799      4801      4792      4791      4799      4802
      4793      4791      4799      4800      4793      4791      4799      4801
      4793      4791      4799      4802      4793      4794      4796      4797
      4793      4794      4796      4798      4793      4794      4796      4808
      4794      4793      4791      4799      4794      4796      4808      4809
      4794      4796      4808      4810      4794      4796      4808      4811
      4795      4794      4796      4797      4795      4794      4796      4798
      4795      4794      4796      4808      4796      4808      4811      4812
      4796      4808      4811      4813      4796      4808      4811      4814
      4797      4796      4808      4809      4797      4796      4808      4810
      4797      4796      4808      4811      4798      4796      4808      4809
      4798      4796      4808      4810      4798      4796      4808      4811
      4799      4802      4803      4804      4799      4802      4803      4805
      4800      4799      4802      4803      4801      4799      4802      4803
      4802      4803      4805      4806      4802      4803      4805      4807
      4802      4803      4805      4852      4803      4805      4852      4853
      4803      4805      4852      4854      4803      4805      4852      4855
      4804      4803      4805      4806      4804      4803      4805      4807
      4804      4803      4805      4852      4805      4852      4855      4856
      4805      4852      4855      4857      4805      4852      4855      4858
      4806      4805      4852      4853      4806      4805      4852      4854
      4806      4805      4852      4855      4807      4805      4852      4853
      4807      4805      4852      4854      4807      4805      4852      4855
      4808      4811      4814      4815      4808      4811      4814      4816
      4808      4811      4814      4817      4809      4808      4811      4812
      4809      4808      4811      4813      4809      4808      4811      4814
      4810      4808      4811      4812      4810      4808      4811      4813
      4810      4808      4811      4814      4811      4814      4817      4818
      4811      4814      4817      4819      4811      4814      4817      4820
      4812      4811      4814      4815      4812      4811      4814      4816
      4812      4811      4814      4817      4813      4811      4814      4815
      4813      4811      4814      4816      4813      4811      4814      4817
      4814      4817      4820      4821      4814      4817      4820      4822
      4814      4817      4820      4823      4815      4814      4817      4818
      4815      4814      4817      4819      4815      4814      4817      4820
      4816      4814      4817      4818      4816      4814      4817      4819
      4816      4814      4817      4820      4817      4820      4823      4824
      4817      4820      4823      4825      4817      4820      4823      4826
      4818      4817      4820      4821      4818      4817      4820      4822
      4818      4817      4820      4823      4819      4817      4820      4821
      4819      4817      4820      4822      4819      4817      4820      4823
      4820      4823      4826      4827      4820      4823      4826      4828
      4820      4823      4826      4831      4821      4820      4823      4824
      4821      4820      4823      4825      4821      4820      4823      4826
      4822      4820      4823      4824      4822      4820      4823      4825
      4822      4820      4823      4826      4823      4826      4828      4829
      4823      4826      4828      4830      4823      4826      4828      4831
      4823      4826      4831      4828      4823      4826      4831      4832
      4823      4826      4831      4833      4824      4823      4826      4827
      4824      4823      4826      4828      4824      4823      4826      4831
      4825      4823      4826      4827      4825      4823      4826      4828
      4825      4823      4826      4831      4826      4828      4831      4832
      4826      4828      4831      4833      4826      4831      4828      4829
      4826      4831      4828      4830      4826      4831      4833      4834
      4826      4831      4833      4835      4826      4831      4833      4836
      4827      4826      4828      4829      4827      4826      4828      4830
      4827      4826      4828      4831      4827      4826      4831      4828
      4827      4826      4831      4832      4827      4826      4831      4833
      4828      4826      4831      4832      4828      4826      4831      4833
      4828      4831      4833      4834      4828      4831      4833      4835
      4828      4831      4833      4836      4829      4828      4826      4831
      4829      4828      4831      4832      4829      4828      4831      4833
      4830      4828      4826      4831      4830      4828      4831      4832
      4830      4828      4831      4833      4831      4833      4836      4837
      4831      4833      4836      4838      4831      4833      4836      4839
      4832      4831      4833      4834      4832      4831      4833      4835
      4832      4831      4833      4836      4833      4836      4839      4840
      4833      4836      4839      4841      4833      4836      4839      4842
      4834      4833      4836      4837      4834      4833      4836      4838
      4834      4833      4836      4839      4835      4833      4836      4837
      4835      4833      4836      4838      4835      4833      4836      4839
      4836      4839      4842      4843      4836      4839      4842      4844
      4836      4839      4842      4845      4837      4836      4839      4840
      4837      4836      4839      4841      4837      4836      4839      4842
      4838      4836      4839      4840      4838      4836      4839      4841
      4838      4836      4839      4842      4839      4842      4845      4846
      4839      4842      4845      4847      4839      4842      4845      4848
      4840      4839      4842      4843      4840      4839      4842      4844
      4840      4839      4842      4845      4841      4839      4842      4843
      4841      4839      4842      4844      4841      4839      4842      4845
      4842      4845      4848      4849      4842      4845      4848      4850
      4842      4845      4848      4851      4843      4842      4845      4846
      4843      4842      4845      4847      4843      4842      4845      4848
      4844      4842      4845      4846      4844      4842      4845      4847
      4844      4842      4845      4848      4846      4845      4848      4849
      4846      4845      4848      4850      4846      4845      4848      4851
      4847      4845      4848      4849      4847      4845      4848      4850
      4847      4845      4848      4851      4852      4855      4858      4859
      4852      4855      4858      4860      4852      4855      4858      4861
      4853      4852      4855      4856      4853      4852      4855      4857
      4853      4852      4855      4858      4854      4852      4855      4856
      4854      4852      4855      4857      4854      4852      4855      4858
      4855      4858      4861      4862      4855      4858      4861      4863
      4855      4858      4861      4864      4856      4855      4858      4859
      4856      4855      4858      4860      4856      4855      4858      4861
      4857      4855      4858      4859      4857      4855      4858      4860
      4857      4855      4858      4861      4858      4861      4864      4865
      4858      4861      4864      4866      4858      4861      4864      4867
      4859      4858      4861      4862      4859      4858      4861      4863
      4859      4858      4861      4864      4860      4858      4861      4862
      4860      4858      4861      4863      4860      4858      4861      4864
      4861      4864      4867      4868      4861      4864      4867      4869
      4861      4864      4867      4870      4862      4861      4864      4865
      4862      4861      4864      4866      4862      4861      4864      4867
      4863      4861      4864      4865      4863      4861      4864      4866
      4863      4861      4864      4867      4864      4867      4870      4871
      4864      4867      4870      4872      4864      4867      4870      4873
      4865      4864      4867      4868      4865      4864      4867      4869
      4865      4864      4867      4870      4866      4864      4867      4868
      4866      4864      4867      4869      4866      4864      4867      4870
      4867      4870      4873      4874      4867      4870      4873      4875
      4867      4870      4873      4876      4868      4867      4870      4871
      4868      4867      4870      4872      4868      4867      4870      4873
      4869      4867      4870      4871      4869      4867      4870      4872
      4869      4867      4870      4873      4870      4873      4876      4877
      4870      4873      4876      4878      4870      4873      4876      4879
      4871      4870      4873      4874      4871      4870      4873      4875
      4871      4870      4873      4876      4872      4870      4873      4874
      4872      4870      4873      4875      4872      4870      4873      4876
      4873      4876      4879      4880      4873      4876      4879      4881
      4873      4876      4879      4882      4874      4873      4876      4877
      4874      4873      4876      4878      4874      4873      4876      4879
      4875      4873      4876      4877      4875      4873      4876      4878
      4875      4873      4876      4879      4876      4879      4882      4883
      4876      4879      4882      4884      4876      4879      4882      4885
      4877      4876      4879      4880      4877      4876      4879      4881
      4877      4876      4879      4882      4878      4876      4879      4880
      4878      4876      4879      4881      4878      4876      4879      4882
      4879      4882      4885      4886      4879      4882      4885      4887
      4879      4882      4885      4888      4880      4879      4882      4883
      4880      4879      4882      4884      4880      4879      4882      4885
      4881      4879      4882      4883      4881      4879      4882      4884
      4881      4879      4882      4885      4882      4885      4888      4889
      4882      4885      4888      4890      4882      4885      4888      4891
      4883      4882      4885      4886      4883      4882      4885      4887
      4883      4882      4885      4888      4884      4882      4885      4886
      4884      4882      4885      4887      4884      4882      4885      4888
      4885      4888      4891      4892      4885      4888      4891      4893
      4885      4888      4891      4894      4886      4885      4888      4889
      4886      4885      4888      4890      4886      4885      4888      4891
      4887      4885      4888      4889      4887      4885      4888      4890
      4887      4885      4888      4891      4889      4888      4891      4892
      4889      4888      4891      4893      4889      4888      4891      4894
      4890      4888      4891      4892      4890      4888      4891      4893
      4890      4888      4891      4894      4895      4899      4902      4903
      4895      4899      4902      4904      4895      4899      4902      4909
      4896      4895      4899      4900      4896      4895      4899      4901
      4896      4895      4899      4902      4897      4895      4899      4900
      4897      4895      4899      4901      4897      4895      4899      4902
      4898      4895      4899      4900      4898      4895      4899      4901
      4898      4895      4899      4902      4899      4902      4909      4905
      4900      4899      4902      4903      4900      4899      4902      4904
      4900      4899      4902      4909      4901      4899      4902      4903
      4901      4899      4902      4904      4901      4899      4902      4909
      4902      4909      4905      4906      4902      4909      4905      4907
      4902      4909      4905      4908      4903      4902      4909      4905
      4904      4902      4909      4905      4905      4908      4910      4911
      4905      4908      4910      4912      4905      4908      4910      4913
      4906      4905      4908      4910      4907      4905      4908      4910
      4908      4910      4913      4914      4908      4910      4913      4915
      4908      4910      4913      4921      4909      4905      4908      4910
      4910      4913      4915      4916      4910      4913      4921      4922
      4910      4913      4921      4923      4910      4913      4921      4924
      4911      4910      4913      4914      4911      4910      4913      4915
      4911      4910      4913      4921      4912      4910      4913      4914
      4912      4910      4913      4915      4912      4910      4913      4921
      4913      4915      4916      4917      4913      4915      4916      4918
      4913      4921      4924      4925      4914      4913      4915      4916
      4914      4913      4921      4922      4914      4913      4921      4923
      4914      4913      4921      4924      4915      4913      4921      4922
      4915      4913      4921      4923      4915      4913      4921      4924
      4915      4916      4918      4919      4915      4916      4918      4920
      4915      4916      4918      4930      4916      4915      4913      4921
      4916      4918      4930      4931      4916      4918      4930      4932
      4916      4918      4930      4933      4917      4916      4918      4919
      4917      4916      4918      4920      4917      4916      4918      4930
      4918      4930      4933      4934      4918      4930      4933      4935
      4918      4930      4933      4936      4919      4918      4930      4931
      4919      4918      4930      4932      4919      4918      4930      4933
      4920      4918      4930      4931      4920      4918      4930      4932
      4920      4918      4930      4933      4921      4924      4925      4926
      4921      4924      4925      4927      4922      4921      4924      4925
      4923      4921      4924      4925      4924      4925      4927      4928
      4924      4925      4927      4929      4924      4925      4927      4974
      4925      4927      4974      4975      4925      4927      4974      4976
      4925      4927      4974      4977      4926      4925      4927      4928
      4926      4925      4927      4929      4926      4925      4927      4974
      4927      4974      4977      4978      4927      4974      4977      4979
      4927      4974      4977      4980      4928      4927      4974      4975
      4928      4927      4974      4976      4928      4927      4974      4977
      4929      4927      4974      4975      4929      4927      4974      4976
      4929      4927      4974      4977      4930      4933      4936      4937
      4930      4933      4936      4938      4930      4933      4936      4939
      4931      4930      4933      4934      4931      4930      4933      4935
      4931      4930      4933      4936      4932      4930      4933      4934
      4932      4930      4933      4935      4932      4930      4933      4936
      4933      4936      4939      4940      4933      4936      4939      4941
      4933      4936      4939      4942      4934      4933      4936      4937
      4934      4933      4936      4938      4934      4933      4936      4939
      4935      4933      4936      4937      4935      4933      4936      4938
      4935      4933      4936      4939      4936      4939      4942      4943
      4936      4939      4942      4944      4936      4939      4942      4945
      4937      4936      4939      4940      4937      4936      4939      4941
      4937      4936      4939      4942      4938      4936      4939      4940
      4938      4936      4939      4941      4938      4936      4939      4942
      4939      4942      4945      4946      4939      4942      4945      4947
      4939      4942      4945      4948      4940      4939      4942      4943
      4940      4939      4942      4944      4940      4939      4942      4945
      4941      4939      4942      4943      4941      4939      4942      4944
      4941      4939      4942      4945      4942      4945      4948      4949
      4942      4945      4948      4950      4942      4945      4948      4953
      4943      4942      4945      4946      4943      4942      4945      4947
      4943      4942      4945      4948      4944      4942      4945      4946
      4944      4942      4945      4947      4944      4942      4945      4948
      4945      4948      4950      4951      4945      4948      4950      4952
      4945      4948      4950      4953      4945      4948      4953      4950
      4945      4948      4953      4954      4945      4948      4953      4955
      4946      4945      4948      4949      4946      4945      4948      4950
      4946      4945      4948      4953      4947      4945      4948      4949
      4947      4945      4948      4950      4947      4945      4948      4953
      4948      4950      4953      4954      4948      4950      4953      4955
      4948      4953      4950      4951      4948      4953      4950      4952
      4948      4953      4955      4956      4948      4953      4955      4957
      4948      4953      4955      4958      4949      4948      4950      4951
      4949      4948      4950      4952      4949      4948      4950      4953
      4949      4948      4953      4950      4949      4948      4953      4954
      4949      4948      4953      4955      4950      4948      4953      4954
      4950      4948      4953      4955      4950      4953      4955      4956
      4950      4953      4955      4957      4950      4953      4955      4958
      4951      4950      4948      4953      4951      4950      4953      4954
      4951      4950      4953      4955      4952      4950      4948      4953
      4952      4950      4953      4954      4952      4950      4953      4955
      4953      4955      4958      4959      4953      4955      4958      4960
      4953      4955      4958      4961      4954      4953      4955      4956
      4954      4953      4955      4957      4954      4953      4955      4958
      4955      4958      4961      4962      4955      4958      4961      4963
      4955      4958      4961      4964      4956      4955      4958      4959
      4956      4955      4958      4960      4956      4955      4958      4961
      4957      4955      4958      4959      4957      4955      4958      4960
      4957      4955      4958      4961      4958      4961      4964      4965
      4958      4961      4964      4966      4958      4961      4964      4967
      4959      4958      4961      4962      4959      4958      4961      4963
      4959      4958      4961      4964      4960      4958      4961      4962
      4960      4958      4961      4963      4960      4958      4961      4964
      4961      4964      4967      4968      4961      4964      4967      4969
      4961      4964      4967      4970      4962      4961      4964      4965
      4962      4961      4964      4966      4962      4961      4964      4967
      4963      4961      4964      4965      4963      4961      4964      4966
      4963      4961      4964      4967      4964      4967      4970      4971
      4964      4967      4970      4972      4964      4967      4970      4973
      4965      4964      4967      4968      4965      4964      4967      4969
      4965      4964      4967      4970      4966      4964      4967      4968
      4966      4964      4967      4969      4966      4964      4967      4970
      4968      4967      4970      4971      4968      4967      4970      4972
      4968      4967      4970      4973      4969      4967      4970      4971
      4969      4967      4970      4972      4969      4967      4970      4973
      4974      4977      4980      4981      4974      4977      4980      4982
      4974      4977      4980      4983      4975      4974      4977      4978
      4975      4974      4977      4979      4975      4974      4977      4980
      4976      4974      4977      4978      4976      4974      4977      4979
      4976      4974      4977      4980      4977      4980      4983      4984
      4977      4980      4983      4985      4977      4980      4983      4986
      4978      4977      4980      4981      4978      4977      4980      4982
      4978      4977      4980      4983      4979      4977      4980      4981
      4979      4977      4980      4982      4979      4977      4980      4983
      4980      4983      4986      4987      4980      4983      4986      4988
      4980      4983      4986      4989      4981      4980      4983      4984
      4981      4980      4983      4985      4981      4980      4983      4986
      4982      4980      4983      4984      4982      4980      4983      4985
      4982      4980      4983      4986      4983      4986      4989      4990
      4983      4986      4989      4991      4983      4986      4989      4992
      4984      4983      4986      4987      4984      4983      4986      4988
      4984      4983      4986      4989      4985      4983      4986      4987
      4985      4983      4986      4988      4985      4983      4986      4989
      4986      4989      4992      4993      4986      4989      4992      4994
      4986      4989      4992      4995      4987      4986      4989      4990
      4987      4986      4989      4991      4987      4986      4989      4992
      4988      4986      4989      4990      4988      4986      4989      4991
      4988      4986      4989      4992      4989      4992      4995      4996
      4989      4992      4995      4997      4989      4992      4995      4998
      4990      4989      4992      4993      4990      4989      4992      4994
      4990      4989      4992      4995      4991      4989      4992      4993
      4991      4989      4992      4994      4991      4989      4992      4995
      4992      4995      4998      4999      4992      4995      4998      5000
      4992      4995      4998      5001      4993      4992      4995      4996
      4993      4992      4995      4997      4993      4992      4995      4998
      4994      4992      4995      4996      4994      4992      4995      4997
      4994      4992      4995      4998      4995      4998      5001      5002
      4995      4998      5001      5003      4995      4998      5001      5004
      4996      4995      4998      4999      4996      4995      4998      5000
      4996      4995      4998      5001      4997      4995      4998      4999
      4997      4995      4998      5000      4997      4995      4998      5001
      4998      5001      5004      5005      4998      5001      5004      5006
      4998      5001      5004      5007      4999      4998      5001      5002
      4999      4998      5001      5003      4999      4998      5001      5004
      5000      4998      5001      5002      5000      4998      5001      5003
      5000      4998      5001      5004      5001      5004      5007      5008
      5001      5004      5007      5009      5001      5004      5007      5010
      5002      5001      5004      5005      5002      5001      5004      5006
      5002      5001      5004      5007      5003      5001      5004      5005
      5003      5001      5004      5006      5003      5001      5004      5007
      5004      5007      5010      5011      5004      5007      5010      5012
      5004      5007      5010      5013      5005      5004      5007      5008
      5005      5004      5007      5009      5005      5004      5007      5010
      5006      5004      5007      5008      5006      5004      5007      5009
      5006      5004      5007      5010      5008      5007      5010      5011
      5008      5007      5010      5012      5008      5007      5010      5013
      5009      5007      5010      5011      5009      5007      5010      5012
      5009      5007      5010      5013      5014      5018      5021      5022
      5014      5018      5021      5023      5014      5018      5021      5028
      5015      5014      5018      5019      5015      5014      5018      5020
      5015      5014      5018      5021      5016      5014      5018      5019
      5016      5014      5018      5020      5016      5014      5018      5021
      5017      5014      5018      5019      5017      5014      5018      5020
      5017      5014      5018      5021      5018      5021      5028      5024
      5019      5018      5021      5022      5019      5018      5021      5023
      5019      5018      5021      5028      5020      5018      5021      5022
      5020      5018      5021      5023      5020      5018      5021      5028
      5021      5028      5024      5025      5021      5028      5024      5026
      5021      5028      5024      5027      5022      5021      5028      5024
      5023      5021      5028      5024      5024      5027      5029      5030
      5024      5027      5029      5031      5024      5027      5029      5032
      5025      5024      5027      5029      5026      5024      5027      5029
      5027      5029      5032      5033      5027      5029      5032      5034
      5027      5029      5032      5040      5028      5024      5027      5029
      5029      5032      5034      5035      5029      5032      5040      5041
      5029      5032      5040      5042      5029      5032      5040      5043
      5030      5029      5032      5033      5030      5029      5032      5034
      5030      5029      5032      5040      5031      5029      5032      5033
      5031      5029      5032      5034      5031      5029      5032      5040
      5032      5034      5035      5036      5032      5034      5035      5037
      5032      5040      5043      5044      5033      5032      5034      5035
      5033      5032      5040      5041      5033      5032      5040      5042
      5033      5032      5040      5043      5034      5032      5040      5041
      5034      5032      5040      5042      5034      5032      5040      5043
      5034      5035      5037      5038      5034      5035      5037      5039
      5034      5035      5037      5049      5035      5034      5032      5040
      5035      5037      5049      5050      5035      5037      5049      5051
      5035      5037      5049      5052      5036      5035      5037      5038
      5036      5035      5037      5039      5036      5035      5037      5049
      5037      5049      5052      5053      5037      5049      5052      5054
      5037      5049      5052      5055      5038      5037      5049      5050
      5038      5037      5049      5051      5038      5037      5049      5052
      5039      5037      5049      5050      5039      5037      5049      5051
      5039      5037      5049      5052      5040      5043      5044      5045
      5040      5043      5044      5046      5041      5040      5043      5044
      5042      5040      5043      5044      5043      5044      5046      5047
      5043      5044      5046      5048      5043      5044      5046      5093
      5044      5046      5093      5094      5044      5046      5093      5095
      5044      5046      5093      5096      5045      5044      5046      5047
      5045      5044      5046      5048      5045      5044      5046      5093
      5046      5093      5096      5097      5046      5093      5096      5098
      5046      5093      5096      5099      5047      5046      5093      5094
      5047      5046      5093      5095      5047      5046      5093      5096
      5048      5046      5093      5094      5048      5046      5093      5095
      5048      5046      5093      5096      5049      5052      5055      5056
      5049      5052      5055      5057      5049      5052      5055      5058
      5050      5049      5052      5053      5050      5049      5052      5054
      5050      5049      5052      5055      5051      5049      5052      5053
      5051      5049      5052      5054      5051      5049      5052      5055
      5052      5055      5058      5059      5052      5055      5058      5060
      5052      5055      5058      5061      5053      5052      5055      5056
      5053      5052      5055      5057      5053      5052      5055      5058
      5054      5052      5055      5056      5054      5052      5055      5057
      5054      5052      5055      5058      5055      5058      5061      5062
      5055      5058      5061      5063      5055      5058      5061      5064
      5056      5055      5058      5059      5056      5055      5058      5060
      5056      5055      5058      5061      5057      5055      5058      5059
      5057      5055      5058      5060      5057      5055      5058      5061
      5058      5061      5064      5065      5058      5061      5064      5066
      5058      5061      5064      5067      5059      5058      5061      5062
      5059      5058      5061      5063      5059      5058      5061      5064
      5060      5058      5061      5062      5060      5058      5061      5063
      5060      5058      5061      5064      5061      5064      5067      5068
      5061      5064      5067      5069      5061      5064      5067      5072
      5062      5061      5064      5065      5062      5061      5064      5066
      5062      5061      5064      5067      5063      5061      5064      5065
      5063      5061      5064      5066      5063      5061      5064      5067
      5064      5067      5069      5070      5064      5067      5069      5071
      5064      5067      5069      5072      5064      5067      5072      5069
      5064      5067      5072      5073      5064      5067      5072      5074
      5065      5064      5067      5068      5065      5064      5067      5069
      5065      5064      5067      5072      5066      5064      5067      5068
      5066      5064      5067      5069      5066      5064      5067      5072
      5067      5069      5072      5073      5067      5069      5072      5074
      5067      5072      5069      5070      5067      5072      5069      5071
      5067      5072      5074      5075      5067      5072      5074      5076
      5067      5072      5074      5077      5068      5067      5069      5070
      5068      5067      5069      5071      5068      5067      5069      5072
      5068      5067      5072      5069      5068      5067      5072      5073
      5068      5067      5072      5074      5069      5067      5072      5073
      5069      5067      5072      5074      5069      5072      5074      5075
      5069      5072      5074      5076      5069      5072      5074      5077
      5070      5069      5067      5072      5070      5069      5072      5073
      5070      5069      5072      5074      5071      5069      5067      5072
      5071      5069      5072      5073      5071      5069      5072      5074
      5072      5074      5077      5078      5072      5074      5077      5079
      5072      5074      5077      5080      5073      5072      5074      5075
      5073      5072      5074      5076      5073      5072      5074      5077
      5074      5077      5080      5081      5074      5077      5080      5082
      5074      5077      5080      5083      5075      5074      5077      5078
      5075      5074      5077      5079      5075      5074      5077      5080
      5076      5074      5077      5078      5076      5074      5077      5079
      5076      5074      5077      5080      5077      5080      5083      5084
      5077      5080      5083      5085      5077      5080      5083      5086
      5078      5077      5080      5081      5078      5077      5080      5082
      5078      5077      5080      5083      5079      5077      5080      5081
      5079      5077      5080      5082      5079      5077      5080      5083
      5080      5083      5086      5087      5080      5083      5086      5088
      5080      5083      5086      5089      5081      5080      5083      5084
      5081      5080      5083      5085      5081      5080      5083      5086
      5082      5080      5083      5084      5082      5080      5083      5085
      5082      5080      5083      5086      5083      5086      5089      5090
      5083      5086      5089      5091      5083      5086      5089      5092
      5084      5083      5086      5087      5084      5083      5086      5088
      5084      5083      5086      5089      5085      5083      5086      5087
      5085      5083      5086      5088      5085      5083      5086      5089
      5087      5086      5089      5090      5087      5086      5089      5091
      5087      5086      5089      5092      5088      5086      5089      5090
      5088      5086      5089      5091      5088      5086      5089      5092
      5093      5096      5099      5100      5093      5096      5099      5101
      5093      5096      5099      5102      5094      5093      5096      5097
      5094      5093      5096      5098      5094      5093      5096      5099
      5095      5093      5096      5097      5095      5093      5096      5098
      5095      5093      5096      5099      5096      5099      5102      5103
      5096      5099      5102      5104      5096      5099      5102      5105
      5097      5096      5099      5100      5097      5096      5099      5101
      5097      5096      5099      5102      5098      5096      5099      5100
      5098      5096      5099      5101      5098      5096      5099      5102
      5099      5102      5105      5106      5099      5102      5105      5107
      5099      5102      5105      5108      5100      5099      5102      5103
      5100      5099      5102      5104      5100      5099      5102      5105
      5101      5099      5102      5103      5101      5099      5102      5104
      5101      5099      5102      5105      5102      5105      5108      5109
      5102      5105      5108      5110      5102      5105      5108      5111
      5103      5102      5105      5106      5103      5102      5105      5107
      5103      5102      5105      5108      5104      5102      5105      5106
      5104      5102      5105      5107      5104      5102      5105      5108
      5105      5108      5111      5112      5105      5108      5111      5113
      5105      5108      5111      5114      5106      5105      5108      5109
      5106      5105      5108      5110      5106      5105      5108      5111
      5107      5105      5108      5109      5107      5105      5108      5110
      5107      5105      5108      5111      5108      5111      5114      5115
      5108      5111      5114      5116      5108      5111      5114      5117
      5109      5108      5111      5112      5109      5108      5111      5113
      5109      5108      5111      5114      5110      5108      5111      5112
      5110      5108      5111      5113      5110      5108      5111      5114
      5111      5114      5117      5118      5111      5114      5117      5119
      5111      5114      5117      5120      5112      5111      5114      5115
      5112      5111      5114      5116      5112      5111      5114      5117
      5113      5111      5114      5115      5113      5111      5114      5116
      5113      5111      5114      5117      5114      5117      5120      5121
      5114      5117      5120      5122      5114      5117      5120      5123
      5115      5114      5117      5118      5115      5114      5117      5119
      5115      5114      5117      5120      5116      5114      5117      5118
      5116      5114      5117      5119      5116      5114      5117      5120
      5117      5120      5123      5124      5117      5120      5123      5125
      5117      5120      5123      5126      5118      5117      5120      5121
      5118      5117      5120      5122      5118      5117      5120      5123
      5119      5117      5120      5121      5119      5117      5120      5122
      5119      5117      5120      5123      5120      5123      5126      5127
      5120      5123      5126      5128      5120      5123      5126      5129
      5121      5120      5123      5124      5121      5120      5123      5125
      5121      5120      5123      5126      5122      5120      5123      5124
      5122      5120      5123      5125      5122      5120      5123      5126
      5123      5126      5129      5130      5123      5126      5129      5131
      5123      5126      5129      5132      5124      5123      5126      5127
      5124      5123      5126      5128      5124      5123      5126      5129
      5125      5123      5126      5127      5125      5123      5126      5128
      5125      5123      5126      5129      5126      5129      5132      5133
      5126      5129      5132      5134      5126      5129      5132      5135
      5127      5126      5129      5130      5127      5126      5129      5131
      5127      5126      5129      5132      5128      5126      5129      5130
      5128      5126      5129      5131      5128      5126      5129      5132
      5130      5129      5132      5133      5130      5129      5132      5134
      5130      5129      5132      5135      5131      5129      5132      5133
      5131      5129      5132      5134      5131      5129      5132      5135
      5136      5140      5143      5144      5136      5140      5143      5145
      5136      5140      5143      5150      5137      5136      5140      5141
      5137      5136      5140      5142      5137      5136      5140      5143
      5138      5136      5140      5141      5138      5136      5140      5142
      5138      5136      5140      5143      5139      5136      5140      5141
      5139      5136      5140      5142      5139      5136      5140      5143
      5140      5143      5150      5146      5141      5140      5143      5144
      5141      5140      5143      5145      5141      5140      5143      5150
      5142      5140      5143      5144      5142      5140      5143      5145
      5142      5140      5143      5150      5143      5150      5146      5147
      5143      5150      5146      5148      5143      5150      5146      5149
      5144      5143      5150      5146      5145      5143      5150      5146
      5146      5149      5151      5152      5146      5149      5151      5153
      5146      5149      5151      5154      5147      5146      5149      5151
      5148      5146      5149      5151      5149      5151      5154      5155
      5149      5151      5154      5156      5149      5151      5154      5162
      5150      5146      5149      5151      5151      5154      5156      5157
      5151      5154      5162      5163      5151      5154      5162      5164
      5151      5154      5162      5165      5152      5151      5154      5155
      5152      5151      5154      5156      5152      5151      5154      5162
      5153      5151      5154      5155      5153      5151      5154      5156
      5153      5151      5154      5162      5154      5156      5157      5158
      5154      5156      5157      5159      5154      5162      5165      5166
      5155      5154      5156      5157      5155      5154      5162      5163
      5155      5154      5162      5164      5155      5154      5162      5165
      5156      5154      5162      5163      5156      5154      5162      5164
      5156      5154      5162      5165      5156      5157      5159      5160
      5156      5157      5159      5161      5156      5157      5159      5171
      5157      5156      5154      5162      5157      5159      5171      5172
      5157      5159      5171      5173      5157      5159      5171      5174
      5158      5157      5159      5160      5158      5157      5159      5161
      5158      5157      5159      5171      5159      5171      5174      5175
      5159      5171      5174      5176      5159      5171      5174      5177
      5160      5159      5171      5172      5160      5159      5171      5173
      5160      5159      5171      5174      5161      5159      5171      5172
      5161      5159      5171      5173      5161      5159      5171      5174
      5162      5165      5166      5167      5162      5165      5166      5168
      5163      5162      5165      5166      5164      5162      5165      5166
      5165      5166      5168      5169      5165      5166      5168      5170
      5165      5166      5168      5215      5166      5168      5215      5216
      5166      5168      5215      5217      5166      5168      5215      5218
      5167      5166      5168      5169      5167      5166      5168      5170
      5167      5166      5168      5215      5168      5215      5218      5219
      5168      5215      5218      5220      5168      5215      5218      5221
      5169      5168      5215      5216      5169      5168      5215      5217
      5169      5168      5215      5218      5170      5168      5215      5216
      5170      5168      5215      5217      5170      5168      5215      5218
      5171      5174      5177      5178      5171      5174      5177      5179
      5171      5174      5177      5180      5172      5171      5174      5175
      5172      5171      5174      5176      5172      5171      5174      5177
      5173      5171      5174      5175      5173      5171      5174      5176
      5173      5171      5174      5177      5174      5177      5180      5181
      5174      5177      5180      5182      5174      5177      5180      5183
      5175      5174      5177      5178      5175      5174      5177      5179
      5175      5174      5177      5180      5176      5174      5177      5178
      5176      5174      5177      5179      5176      5174      5177      5180
      5177      5180      5183      5184      5177      5180      5183      5185
      5177      5180      5183      5186      5178      5177      5180      5181
      5178      5177      5180      5182      5178      5177      5180      5183
      5179      5177      5180      5181      5179      5177      5180      5182
      5179      5177      5180      5183      5180      5183      5186      5187
      5180      5183      5186      5188      5180      5183      5186      5189
      5181      5180      5183      5184      5181      5180      5183      5185
      5181      5180      5183      5186      5182      5180      5183      5184
      5182      5180      5183      5185      5182      5180      5183      5186
      5183      5186      5189      5190      5183      5186      5189      5191
      5183      5186      5189      5194      5184      5183      5186      5187
      5184      5183      5186      5188      5184      5183      5186      5189
      5185      5183      5186      5187      5185      5183      5186      5188
      5185      5183      5186      5189      5186      5189      5191      5192
      5186      5189      5191      5193      5186      5189      5191      5194
      5186      5189      5194      5191      5186      5189      5194      5195
      5186      5189      5194      5196      5187      5186      5189      5190
      5187      5186      5189      5191      5187      5186      5189      5194
      5188      5186      5189      5190      5188      5186      5189      5191
      5188      5186      5189      5194      5189      5191      5194      5195
      5189      5191      5194      5196      5189      5194      5191      5192
      5189      5194      5191      5193      5189      5194      5196      5197
      5189      5194      5196      5198      5189      5194      5196      5199
      5190      5189      5191      5192      5190      5189      5191      5193
      5190      5189      5191      5194      5190      5189      5194      5191
      5190      5189      5194      5195      5190      5189      5194      5196
      5191      5189      5194      5195      5191      5189      5194      5196
      5191      5194      5196      5197      5191      5194      5196      5198
      5191      5194      5196      5199      5192      5191      5189      5194
      5192      5191      5194      5195      5192      5191      5194      5196
      5193      5191      5189      5194      5193      5191      5194      5195
      5193      5191      5194      5196      5194      5196      5199      5200
      5194      5196      5199      5201      5194      5196      5199      5202
      5195      5194      5196      5197      5195      5194      5196      5198
      5195      5194      5196      5199      5196      5199      5202      5203
      5196      5199      5202      5204      5196      5199      5202      5205
      5197      5196      5199      5200      5197      5196      5199      5201
      5197      5196      5199      5202      5198      5196      5199      5200
      5198      5196      5199      5201      5198      5196      5199      5202
      5199      5202      5205      5206      5199      5202      5205      5207
      5199      5202      5205      5208      5200      5199      5202      5203
      5200      5199      5202      5204      5200      5199      5202      5205
      5201      5199      5202      5203      5201      5199      5202      5204
      5201      5199      5202      5205      5202      5205      5208      5209
      5202      5205      5208      5210      5202      5205      5208      5211
      5203      5202      5205      5206      5203      5202      5205      5207
      5203      5202      5205      5208      5204      5202      5205      5206
      5204      5202      5205      5207      5204      5202      5205      5208
      5205      5208      5211      5212      5205      5208      5211      5213
      5205      5208      5211      5214      5206      5205      5208      5209
      5206      5205      5208      5210      5206      5205      5208      5211
      5207      5205      5208      5209      5207      5205      5208      5210
      5207      5205      5208      5211      5209      5208      5211      5212
      5209      5208      5211      5213      5209      5208      5211      5214
      5210      5208      5211      5212      5210      5208      5211      5213
      5210      5208      5211      5214      5215      5218      5221      5222
      5215      5218      5221      5223      5215      5218      5221      5224
      5216      5215      5218      5219      5216      5215      5218      5220
      5216      5215      5218      5221      5217      5215      5218      5219
      5217      5215      5218      5220      5217      5215      5218      5221
      5218      5221      5224      5225      5218      5221      5224      5226
      5218      5221      5224      5227      5219      5218      5221      5222
      5219      5218      5221      5223      5219      5218      5221      5224
      5220      5218      5221      5222      5220      5218      5221      5223
      5220      5218      5221      5224      5221      5224      5227      5228
      5221      5224      5227      5229      5221      5224      5227      5230
      5222      5221      5224      5225      5222      5221      5224      5226
      5222      5221      5224      5227      5223      5221      5224      5225
      5223      5221      5224      5226      5223      5221      5224      5227
      5224      5227      5230      5231      5224      5227      5230      5232
      5224      5227      5230      5233      5225      5224      5227      5228
      5225      5224      5227      5229      5225      5224      5227      5230
      5226      5224      5227      5228      5226      5224      5227      5229
      5226      5224      5227      5230      5227      5230      5233      5234
      5227      5230      5233      5235      5227      5230      5233      5236
      5228      5227      5230      5231      5228      5227      5230      5232
      5228      5227      5230      5233      5229      5227      5230      5231
      5229      5227      5230      5232      5229      5227      5230      5233
      5230      5233      5236      5237      5230      5233      5236      5238
      5230      5233      5236      5239      5231      5230      5233      5234
      5231      5230      5233      5235      5231      5230      5233      5236
      5232      5230      5233      5234      5232      5230      5233      5235
      5232      5230      5233      5236      5233      5236      5239      5240
      5233      5236      5239      5241      5233      5236      5239      5242
      5234      5233      5236      5237      5234      5233      5236      5238
      5234      5233      5236      5239      5235      5233      5236      5237
      5235      5233      5236      5238      5235      5233      5236      5239
      5236      5239      5242      5243      5236      5239      5242      5244
      5236      5239      5242      5245      5237      5236      5239      5240
      5237      5236      5239      5241      5237      5236      5239      5242
      5238      5236      5239      5240      5238      5236      5239      5241
      5238      5236      5239      5242      5239      5242      5245      5246
      5239      5242      5245      5247      5239      5242      5245      5248
      5240      5239      5242      5243      5240      5239      5242      5244
      5240      5239      5242      5245      5241      5239      5242      5243
      5241      5239      5242      5244      5241      5239      5242      5245
      5242      5245      5248      5249      5242      5245      5248      5250
      5242      5245      5248      5251      5243      5242      5245      5246
      5243      5242      5245      5247      5243      5242      5245      5248
      5244      5242      5245      5246      5244      5242      5245      5247
      5244      5242      5245      5248      5245      5248      5251      5252
      5245      5248      5251      5253      5245      5248      5251      5254
      5246      5245      5248      5249      5246      5245      5248      5250
      5246      5245      5248      5251      5247      5245      5248      5249
      5247      5245      5248      5250      5247      5245      5248      5251
      5249      5248      5251      5252      5249      5248      5251      5253
      5249      5248      5251      5254      5250      5248      5251      5252
      5250      5248      5251      5253      5250      5248      5251      5254
      5255      5259      5262      5263      5255      5259      5262      5264
      5255      5259      5262      5269      5256      5255      5259      5260
      5256      5255      5259      5261      5256      5255      5259      5262
      5257      5255      5259      5260      5257      5255      5259      5261
      5257      5255      5259      5262      5258      5255      5259      5260
      5258      5255      5259      5261      5258      5255      5259      5262
      5259      5262      5269      5265      5260      5259      5262      5263
      5260      5259      5262      5264      5260      5259      5262      5269
      5261      5259      5262      5263      5261      5259      5262      5264
      5261      5259      5262      5269      5262      5269      5265      5266
      5262      5269      5265      5267      5262      5269      5265      5268
      5263      5262      5269      5265      5264      5262      5269      5265
      5265      5268      5270      5271      5265      5268      5270      5272
      5265      5268      5270      5273      5266      5265      5268      5270
      5267      5265      5268      5270      5268      5270      5273      5274
      5268      5270      5273      5275      5268      5270      5273      5281
      5269      5265      5268      5270      5270      5273      5275      5276
      5270      5273      5281      5282      5270      5273      5281      5283
      5270      5273      5281      5284      5271      5270      5273      5274
      5271      5270      5273      5275      5271      5270      5273      5281
      5272      5270      5273      5274      5272      5270      5273      5275
      5272      5270      5273      5281      5273      5275      5276      5277
      5273      5275      5276      5278      5273      5281      5284      5285
      5274      5273      5275      5276      5274      5273      5281      5282
      5274      5273      5281      5283      5274      5273      5281      5284
      5275      5273      5281      5282      5275      5273      5281      5283
      5275      5273      5281      5284      5275      5276      5278      5279
      5275      5276      5278      5280      5275      5276      5278      5290
      5276      5275      5273      5281      5276      5278      5290      5291
      5276      5278      5290      5292      5276      5278      5290      5293
      5277      5276      5278      5279      5277      5276      5278      5280
      5277      5276      5278      5290      5278      5290      5293      5294
      5278      5290      5293      5295      5278      5290      5293      5296
      5279      5278      5290      5291      5279      5278      5290      5292
      5279      5278      5290      5293      5280      5278      5290      5291
      5280      5278      5290      5292      5280      5278      5290      5293
      5281      5284      5285      5286      5281      5284      5285      5287
      5282      5281      5284      5285      5283      5281      5284      5285
      5284      5285      5287      5288      5284      5285      5287      5289
      5284      5285      5287      5334      5285      5287      5334      5335
      5285      5287      5334      5336      5285      5287      5334      5337
      5286      5285      5287      5288      5286      5285      5287      5289
      5286      5285      5287      5334      5287      5334      5337      5338
      5287      5334      5337      5339      5287      5334      5337      5340
      5288      5287      5334      5335      5288      5287      5334      5336
      5288      5287      5334      5337      5289      5287      5334      5335
      5289      5287      5334      5336      5289      5287      5334      5337
      5290      5293      5296      5297      5290      5293      5296      5298
      5290      5293      5296      5299      5291      5290      5293      5294
      5291      5290      5293      5295      5291      5290      5293      5296
      5292      5290      5293      5294      5292      5290      5293      5295
      5292      5290      5293      5296      5293      5296      5299      5300
      5293      5296      5299      5301      5293      5296      5299      5302
      5294      5293      5296      5297      5294      5293      5296      5298
      5294      5293      5296      5299      5295      5293      5296      5297
      5295      5293      5296      5298      5295      5293      5296      5299
      5296      5299      5302      5303      5296      5299      5302      5304
      5296      5299      5302      5305      5297      5296      5299      5300
      5297      5296      5299      5301      5297      5296      5299      5302
      5298      5296      5299      5300      5298      5296      5299      5301
      5298      5296      5299      5302      5299      5302      5305      5306
      5299      5302      5305      5307      5299      5302      5305      5308
      5300      5299      5302      5303      5300      5299      5302      5304
      5300      5299      5302      5305      5301      5299      5302      5303
      5301      5299      5302      5304      5301      5299      5302      5305
      5302      5305      5308      5309      5302      5305      5308      5310
      5302      5305      5308      5313      5303      5302      5305      5306
      5303      5302      5305      5307      5303      5302      5305      5308
      5304      5302      5305      5306      5304      5302      5305      5307
      5304      5302      5305      5308      5305      5308      5310      5311
      5305      5308      5310      5312      5305      5308      5310      5313
      5305      5308      5313      5310      5305      5308      5313      5314
      5305      5308      5313      5315      5306      5305      5308      5309
      5306      5305      5308      5310      5306      5305      5308      5313
      5307      5305      5308      5309      5307      5305      5308      5310
      5307      5305      5308      5313      5308      5310      5313      5314
      5308      5310      5313      5315      5308      5313      5310      5311
      5308      5313      5310      5312      5308      5313      5315      5316
      5308      5313      5315      5317      5308      5313      5315      5318
      5309      5308      5310      5311      5309      5308      5310      5312
      5309      5308      5310      5313      5309      5308      5313      5310
      5309      5308      5313      5314      5309      5308      5313      5315
      5310      5308      5313      5314      5310      5308      5313      5315
      5310      5313      5315      5316      5310      5313      5315      5317
      5310      5313      5315      5318      5311      5310      5308      5313
      5311      5310      5313      5314      5311      5310      5313      5315
      5312      5310      5308      5313      5312      5310      5313      5314
      5312      5310      5313      5315      5313      5315      5318      5319
      5313      5315      5318      5320      5313      5315      5318      5321
      5314      5313      5315      5316      5314      5313      5315      5317
      5314      5313      5315      5318      5315      5318      5321      5322
      5315      5318      5321      5323      5315      5318      5321      5324
      5316      5315      5318      5319      5316      5315      5318      5320
      5316      5315      5318      5321      5317      5315      5318      5319
      5317      5315      5318      5320      5317      5315      5318      5321
      5318      5321      5324      5325      5318      5321      5324      5326
      5318      5321      5324      5327      5319      5318      5321      5322
      5319      5318      5321      5323      5319      5318      5321      5324
      5320      5318      5321      5322      5320      5318      5321      5323
      5320      5318      5321      5324      5321      5324      5327      5328
      5321      5324      5327      5329      5321      5324      5327      5330
      5322      5321      5324      5325      5322      5321      5324      5326
      5322      5321      5324      5327      5323      5321      5324      5325
      5323      5321      5324      5326      5323      5321      5324      5327
      5324      5327      5330      5331      5324      5327      5330      5332
      5324      5327      5330      5333      5325      5324      5327      5328
      5325      5324      5327      5329      5325      5324      5327      5330
      5326      5324      5327      5328      5326      5324      5327      5329
      5326      5324      5327      5330      5328      5327      5330      5331
      5328      5327      5330      5332      5328      5327      5330      5333
      5329      5327      5330      5331      5329      5327      5330      5332
      5329      5327      5330      5333      5334      5337      5340      5341
      5334      5337      5340      5342      5334      5337      5340      5343
      5335      5334      5337      5338      5335      5334      5337      5339
      5335      5334      5337      5340      5336      5334      5337      5338
      5336      5334      5337      5339      5336      5334      5337      5340
      5337      5340      5343      5344      5337      5340      5343      5345
      5337      5340      5343      5346      5338      5337      5340      5341
      5338      5337      5340      5342      5338      5337      5340      5343
      5339      5337      5340      5341      5339      5337      5340      5342
      5339      5337      5340      5343      5340      5343      5346      5347
      5340      5343      5346      5348      5340      5343      5346      5349
      5341      5340      5343      5344      5341      5340      5343      5345
      5341      5340      5343      5346      5342      5340      5343      5344
      5342      5340      5343      5345      5342      5340      5343      5346
      5343      5346      5349      5350      5343      5346      5349      5351
      5343      5346      5349      5352      5344      5343      5346      5347
      5344      5343      5346      5348      5344      5343      5346      5349
      5345      5343      5346      5347      5345      5343      5346      5348
      5345      5343      5346      5349      5346      5349      5352      5353
      5346      5349      5352      5354      5346      5349      5352      5355
      5347      5346      5349      5350      5347      5346      5349      5351
      5347      5346      5349      5352      5348      5346      5349      5350
      5348      5346      5349      5351      5348      5346      5349      5352
      5349      5352      5355      5356      5349      5352      5355      5357
      5349      5352      5355      5358      5350      5349      5352      5353
      5350      5349      5352      5354      5350      5349      5352      5355
      5351      5349      5352      5353      5351      5349      5352      5354
      5351      5349      5352      5355      5352      5355      5358      5359
      5352      5355      5358      5360      5352      5355      5358      5361
      5353      5352      5355      5356      5353      5352      5355      5357
      5353      5352      5355      5358      5354      5352      5355      5356
      5354      5352      5355      5357      5354      5352      5355      5358
      5355      5358      5361      5362      5355      5358      5361      5363
      5355      5358      5361      5364      5356      5355      5358      5359
      5356      5355      5358      5360      5356      5355      5358      5361
      5357      5355      5358      5359      5357      5355      5358      5360
      5357      5355      5358      5361      5358      5361      5364      5365
      5358      5361      5364      5366      5358      5361      5364      5367
      5359      5358      5361      5362      5359      5358      5361      5363
      5359      5358      5361      5364      5360      5358      5361      5362
      5360      5358      5361      5363      5360      5358      5361      5364
      5361      5364      5367      5368      5361      5364      5367      5369
      5361      5364      5367      5370      5362      5361      5364      5365
      5362      5361      5364      5366      5362      5361      5364      5367
      5363      5361      5364      5365      5363      5361      5364      5366
      5363      5361      5364      5367      5364      5367      5370      5371
      5364      5367      5370      5372      5364      5367      5370      5373
      5365      5364      5367      5368      5365      5364      5367      5369
      5365      5364      5367      5370      5366      5364      5367      5368
      5366      5364      5367      5369      5366      5364      5367      5370
      5367      5370      5373      5374      5367      5370      5373      5375
      5367      5370      5373      5376      5368      5367      5370      5371
      5368      5367      5370      5372      5368      5367      5370      5373
      5369      5367      5370      5371      5369      5367      5370      5372
      5369      5367      5370      5373      5371      5370      5373      5374
      5371      5370      5373      5375      5371      5370      5373      5376
      5372      5370      5373      5374      5372      5370      5373      5375
      5372      5370      5373      5376      5377      5381      5384      5385
      5377      5381      5384      5386      5377      5381      5384      5391
      5378      5377      5381      5382      5378      5377      5381      5383
      5378      5377      5381      5384      5379      5377      5381      5382
      5379      5377      5381      5383      5379      5377      5381      5384
      5380      5377      5381      5382      5380      5377      5381      5383
      5380      5377      5381      5384      5381      5384      5391      5387
      5382      5381      5384      5385      5382      5381      5384      5386
      5382      5381      5384      5391      5383      5381      5384      5385
      5383      5381      5384      5386      5383      5381      5384      5391
      5384      5391      5387      5388      5384      5391      5387      5389
      5384      5391      5387      5390      5385      5384      5391      5387
      5386      5384      5391      5387      5387      5390      5392      5393
      5387      5390      5392      5394      5387      5390      5392      5395
      5388      5387      5390      5392      5389      5387      5390      5392
      5390      5392      5395      5396      5390      5392      5395      5397
      5390      5392      5395      5403      5391      5387      5390      5392
      5392      5395      5397      5398      5392      5395      5403      5404
      5392      5395      5403      5405      5392      5395      5403      5406
      5393      5392      5395      5396      5393      5392      5395      5397
      5393      5392      5395      5403      5394      5392      5395      5396
      5394      5392      5395      5397      5394      5392      5395      5403
      5395      5397      5398      5399      5395      5397      5398      5400
      5395      5403      5406      5407      5396      5395      5397      5398
      5396      5395      5403      5404      5396      5395      5403      5405
      5396      5395      5403      5406      5397      5395      5403      5404
      5397      5395      5403      5405      5397      5395      5403      5406
      5397      5398      5400      5401      5397      5398      5400      5402
      5397      5398      5400      5412      5398      5397      5395      5403
      5398      5400      5412      5413      5398      5400      5412      5414
      5398      5400      5412      5415      5399      5398      5400      5401
      5399      5398      5400      5402      5399      5398      5400      5412
      5400      5412      5415      5416      5400      5412      5415      5417
      5400      5412      5415      5418      5401      5400      5412      5413
      5401      5400      5412      5414      5401      5400      5412      5415
      5402      5400      5412      5413      5402      5400      5412      5414
      5402      5400      5412      5415      5403      5406      5407      5408
      5403      5406      5407      5409      5404      5403      5406      5407
      5405      5403      5406      5407      5406      5407      5409      5410
      5406      5407      5409      5411      5406      5407      5409      5456
      5407      5409      5456      5457      5407      5409      5456      5458
      5407      5409      5456      5459      5408      5407      5409      5410
      5408      5407      5409      5411      5408      5407      5409      5456
      5409      5456      5459      5460      5409      5456      5459      5461
      5409      5456      5459      5462      5410      5409      5456      5457
      5410      5409      5456      5458      5410      5409      5456      5459
      5411      5409      5456      5457      5411      5409      5456      5458
      5411      5409      5456      5459      5412      5415      5418      5419
      5412      5415      5418      5420      5412      5415      5418      5421
      5413      5412      5415      5416      5413      5412      5415      5417
      5413      5412      5415      5418      5414      5412      5415      5416
      5414      5412      5415      5417      5414      5412      5415      5418
      5415      5418      5421      5422      5415      5418      5421      5423
      5415      5418      5421      5424      5416      5415      5418      5419
      5416      5415      5418      5420      5416      5415      5418      5421
      5417      5415      5418      5419      5417      5415      5418      5420
      5417      5415      5418      5421      5418      5421      5424      5425
      5418      5421      5424      5426      5418      5421      5424      5427
      5419      5418      5421      5422      5419      5418      5421      5423
      5419      5418      5421      5424      5420      5418      5421      5422
      5420      5418      5421      5423      5420      5418      5421      5424
      5421      5424      5427      5428      5421      5424      5427      5429
      5421      5424      5427      5430      5422      5421      5424      5425
      5422      5421      5424      5426      5422      5421      5424      5427
      5423      5421      5424      5425      5423      5421      5424      5426
      5423      5421      5424      5427      5424      5427      5430      5431
      5424      5427      5430      5432      5424      5427      5430      5435
      5425      5424      5427      5428      5425      5424      5427      5429
      5425      5424      5427      5430      5426      5424      5427      5428
      5426      5424      5427      5429      5426      5424      5427      5430
      5427      5430      5432      5433      5427      5430      5432      5434
      5427      5430      5432      5435      5427      5430      5435      5432
      5427      5430      5435      5436      5427      5430      5435      5437
      5428      5427      5430      5431      5428      5427      5430      5432
      5428      5427      5430      5435      5429      5427      5430      5431
      5429      5427      5430      5432      5429      5427      5430      5435
      5430      5432      5435      5436      5430      5432      5435      5437
      5430      5435      5432      5433      5430      5435      5432      5434
      5430      5435      5437      5438      5430      5435      5437      5439
      5430      5435      5437      5440      5431      5430      5432      5433
      5431      5430      5432      5434      5431      5430      5432      5435
      5431      5430      5435      5432      5431      5430      5435      5436
      5431      5430      5435      5437      5432      5430      5435      5436
      5432      5430      5435      5437      5432      5435      5437      5438
      5432      5435      5437      5439      5432      5435      5437      5440
      5433      5432      5430      5435      5433      5432      5435      5436
      5433      5432      5435      5437      5434      5432      5430      5435
      5434      5432      5435      5436      5434      5432      5435      5437
      5435      5437      5440      5441      5435      5437      5440      5442
      5435      5437      5440      5443      5436      5435      5437      5438
      5436      5435      5437      5439      5436      5435      5437      5440
      5437      5440      5443      5444      5437      5440      5443      5445
      5437      5440      5443      5446      5438      5437      5440      5441
      5438      5437      5440      5442      5438      5437      5440      5443
      5439      5437      5440      5441      5439      5437      5440      5442
      5439      5437      5440      5443      5440      5443      5446      5447
      5440      5443      5446      5448      5440      5443      5446      5449
      5441      5440      5443      5444      5441      5440      5443      5445
      5441      5440      5443      5446      5442      5440      5443      5444
      5442      5440      5443      5445      5442      5440      5443      5446
      5443      5446      5449      5450      5443      5446      5449      5451
      5443      5446      5449      5452      5444      5443      5446      5447
      5444      5443      5446      5448      5444      5443      5446      5449
      5445      5443      5446      5447      5445      5443      5446      5448
      5445      5443      5446      5449      5446      5449      5452      5453
      5446      5449      5452      5454      5446      5449      5452      5455
      5447      5446      5449      5450      5447      5446      5449      5451
      5447      5446      5449      5452      5448      5446      5449      5450
      5448      5446      5449      5451      5448      5446      5449      5452
      5450      5449      5452      5453      5450      5449      5452      5454
      5450      5449      5452      5455      5451      5449      5452      5453
      5451      5449      5452      5454      5451      5449      5452      5455
      5456      5459      5462      5463      5456      5459      5462      5464
      5456      5459      5462      5465      5457      5456      5459      5460
      5457      5456      5459      5461      5457      5456      5459      5462
      5458      5456      5459      5460      5458      5456      5459      5461
      5458      5456      5459      5462      5459      5462      5465      5466
      5459      5462      5465      5467      5459      5462      5465      5468
      5460      5459      5462      5463      5460      5459      5462      5464
      5460      5459      5462      5465      5461      5459      5462      5463
      5461      5459      5462      5464      5461      5459      5462      5465
      5462      5465      5468      5469      5462      5465      5468      5470
      5462      5465      5468      5471      5463      5462      5465      5466
      5463      5462      5465      5467      5463      5462      5465      5468
      5464      5462      5465      5466      5464      5462      5465      5467
      5464      5462      5465      5468      5465      5468      5471      5472
      5465      5468      5471      5473      5465      5468      5471      5474
      5466      5465      5468      5469      5466      5465      5468      5470
      5466      5465      5468      5471      5467      5465      5468      5469
      5467      5465      5468      5470      5467      5465      5468      5471
      5468      5471      5474      5475      5468      5471      5474      5476
      5468      5471      5474      5477      5469      5468      5471      5472
      5469      5468      5471      5473      5469      5468      5471      5474
      5470      5468      5471      5472      5470      5468      5471      5473
      5470      5468      5471      5474      5471      5474      5477      5478
      5471      5474      5477      5479      5471      5474      5477      5480
      5472      5471      5474      5475      5472      5471      5474      5476
      5472      5471      5474      5477      5473      5471      5474      5475
      5473      5471      5474      5476      5473      5471      5474      5477
      5474      5477      5480      5481      5474      5477      5480      5482
      5474      5477      5480      5483      5475      5474      5477      5478
      5475      5474      5477      5479      5475      5474      5477      5480
      5476      5474      5477      5478      5476      5474      5477      5479
      5476      5474      5477      5480      5477      5480      5483      5484
      5477      5480      5483      5485      5477      5480      5483      5486
      5478      5477      5480      5481      5478      5477      5480      5482
      5478      5477      5480      5483      5479      5477      5480      5481
      5479      5477      5480      5482      5479      5477      5480      5483
      5480      5483      5486      5487      5480      5483      5486      5488
      5480      5483      5486      5489      5481      5480      5483      5484
      5481      5480      5483      5485      5481      5480      5483      5486
      5482      5480      5483      5484      5482      5480      5483      5485
      5482      5480      5483      5486      5483      5486      5489      5490
      5483      5486      5489      5491      5483      5486      5489      5492
      5484      5483      5486      5487      5484      5483      5486      5488
      5484      5483      5486      5489      5485      5483      5486      5487
      5485      5483      5486      5488      5485      5483      5486      5489
      5486      5489      5492      5493      5486      5489      5492      5494
      5486      5489      5492      5495      5487      5486      5489      5490
      5487      5486      5489      5491      5487      5486      5489      5492
      5488      5486      5489      5490      5488      5486      5489      5491
      5488      5486      5489      5492      5489      5492      5495      5496
      5489      5492      5495      5497      5489      5492      5495      5498
      5490      5489      5492      5493      5490      5489      5492      5494
      5490      5489      5492      5495      5491      5489      5492      5493
      5491      5489      5492      5494      5491      5489      5492      5495
      5493      5492      5495      5496      5493      5492      5495      5497
      5493      5492      5495      5498      5494      5492      5495      5496
      5494      5492      5495      5497      5494      5492      5495      5498
      5499      5503      5506      5507      5499      5503      5506      5508
      5499      5503      5506      5513      5500      5499      5503      5504
      5500      5499      5503      5505      5500      5499      5503      5506
      5501      5499      5503      5504      5501      5499      5503      5505
      5501      5499      5503      5506      5502      5499      5503      5504
      5502      5499      5503      5505      5502      5499      5503      5506
      5503      5506      5513      5509      5504      5503      5506      5507
      5504      5503      5506      5508      5504      5503      5506      5513
      5505      5503      5506      5507      5505      5503      5506      5508
      5505      5503      5506      5513      5506      5513      5509      5510
      5506      5513      5509      5511      5506      5513      5509      5512
      5507      5506      5513      5509      5508      5506      5513      5509
      5509      5512      5514      5515      5509      5512      5514      5516
      5509      5512      5514      5517      5510      5509      5512      5514
      5511      5509      5512      5514      5512      5514      5517      5518
      5512      5514      5517      5519      5512      5514      5517      5525
      5513      5509      5512      5514      5514      5517      5519      5520
      5514      5517      5525      5526      5514      5517      5525      5527
      5514      5517      5525      5528      5515      5514      5517      5518
      5515      5514      5517      5519      5515      5514      5517      5525
      5516      5514      5517      5518      5516      5514      5517      5519
      5516      5514      5517      5525      5517      5519      5520      5521
      5517      5519      5520      5522      5517      5525      5528      5529
      5518      5517      5519      5520      5518      5517      5525      5526
      5518      5517      5525      5527      5518      5517      5525      5528
      5519      5517      5525      5526      5519      5517      5525      5527
      5519      5517      5525      5528      5519      5520      5522      5523
      5519      5520      5522      5524      5519      5520      5522      5534
      5520      5519      5517      5525      5520      5522      5534      5535
      5520      5522      5534      5536      5520      5522      5534      5537
      5521      5520      5522      5523      5521      5520      5522      5524
      5521      5520      5522      5534      5522      5534      5537      5538
      5522      5534      5537      5539      5522      5534      5537      5540
      5523      5522      5534      5535      5523      5522      5534      5536
      5523      5522      5534      5537      5524      5522      5534      5535
      5524      5522      5534      5536      5524      5522      5534      5537
      5525      5528      5529      5530      5525      5528      5529      5531
      5526      5525      5528      5529      5527      5525      5528      5529
      5528      5529      5531      5532      5528      5529      5531      5533
      5528      5529      5531      5578      5529      5531      5578      5579
      5529      5531      5578      5580      5529      5531      5578      5581
      5530      5529      5531      5532      5530      5529      5531      5533
      5530      5529      5531      5578      5531      5578      5581      5582
      5531      5578      5581      5583      5531      5578      5581      5584
      5532      5531      5578      5579      5532      5531      5578      5580
      5532      5531      5578      5581      5533      5531      5578      5579
      5533      5531      5578      5580      5533      5531      5578      5581
      5534      5537      5540      5541      5534      5537      5540      5542
      5534      5537      5540      5543      5535      5534      5537      5538
      5535      5534      5537      5539      5535      5534      5537      5540
      5536      5534      5537      5538      5536      5534      5537      5539
      5536      5534      5537      5540      5537      5540      5543      5544
      5537      5540      5543      5545      5537      5540      5543      5546
      5538      5537      5540      5541      5538      5537      5540      5542
      5538      5537      5540      5543      5539      5537      5540      5541
      5539      5537      5540      5542      5539      5537      5540      5543
      5540      5543      5546      5547      5540      5543      5546      5548
      5540      5543      5546      5549      5541      5540      5543      5544
      5541      5540      5543      5545      5541      5540      5543      5546
      5542      5540      5543      5544      5542      5540      5543      5545
      5542      5540      5543      5546      5543      5546      5549      5550
      5543      5546      5549      5551      5543      5546      5549      5552
      5544      5543      5546      5547      5544      5543      5546      5548
      5544      5543      5546      5549      5545      5543      5546      5547
      5545      5543      5546      5548      5545      5543      5546      5549
      5546      5549      5552      5553      5546      5549      5552      5554
      5546      5549      5552      5557      5547      5546      5549      5550
      5547      5546      5549      5551      5547      5546      5549      5552
      5548      5546      5549      5550      5548      5546      5549      5551
      5548      5546      5549      5552      5549      5552      5554      5555
      5549      5552      5554      5556      5549      5552      5554      5557
      5549      5552      5557      5554      5549      5552      5557      5558
      5549      5552      5557      5559      5550      5549      5552      5553
      5550      5549      5552      5554      5550      5549      5552      5557
      5551      5549      5552      5553      5551      5549      5552      5554
      5551      5549      5552      5557      5552      5554      5557      5558
      5552      5554      5557      5559      5552      5557      5554      5555
      5552      5557      5554      5556      5552      5557      5559      5560
      5552      5557      5559      5561      5552      5557      5559      5562
      5553      5552      5554      5555      5553      5552      5554      5556
      5553      5552      5554      5557      5553      5552      5557      5554
      5553      5552      5557      5558      5553      5552      5557      5559
      5554      5552      5557      5558      5554      5552      5557      5559
      5554      5557      5559      5560      5554      5557      5559      5561
      5554      5557      5559      5562      5555      5554      5552      5557
      5555      5554      5557      5558      5555      5554      5557      5559
      5556      5554      5552      5557      5556      5554      5557      5558
      5556      5554      5557      5559      5557      5559      5562      5563
      5557      5559      5562      5564      5557      5559      5562      5565
      5558      5557      5559      5560      5558      5557      5559      5561
      5558      5557      5559      5562      5559      5562      5565      5566
      5559      5562      5565      5567      5559      5562      5565      5568
      5560      5559      5562      5563      5560      5559      5562      5564
      5560      5559      5562      5565      5561      5559      5562      5563
      5561      5559      5562      5564      5561      5559      5562      5565
      5562      5565      5568      5569      5562      5565      5568      5570
      5562      5565      5568      5571      5563      5562      5565      5566
      5563      5562      5565      5567      5563      5562      5565      5568
      5564      5562      5565      5566      5564      5562      5565      5567
      5564      5562      5565      5568      5565      5568      5571      5572
      5565      5568      5571      5573      5565      5568      5571      5574
      5566      5565      5568      5569      5566      5565      5568      5570
      5566      5565      5568      5571      5567      5565      5568      5569
      5567      5565      5568      5570      5567      5565      5568      5571
      5568      5571      5574      5575      5568      5571      5574      5576
      5568      5571      5574      5577      5569      5568      5571      5572
      5569      5568      5571      5573      5569      5568      5571      5574
      5570      5568      5571      5572      5570      5568      5571      5573
      5570      5568      5571      5574      5572      5571      5574      5575
      5572      5571      5574      5576      5572      5571      5574      5577
      5573      5571      5574      5575      5573      5571      5574      5576
      5573      5571      5574      5577      5578      5581      5584      5585
      5578      5581      5584      5586      5578      5581      5584      5587
      5579      5578      5581      5582      5579      5578      5581      5583
      5579      5578      5581      5584      5580      5578      5581      5582
      5580      5578      5581      5583      5580      5578      5581      5584
      5581      5584      5587      5588      5581      5584      5587      5589
      5581      5584      5587      5590      5582      5581      5584      5585
      5582      5581      5584      5586      5582      5581      5584      5587
      5583      5581      5584      5585      5583      5581      5584      5586
      5583      5581      5584      5587      5584      5587      5590      5591
      5584      5587      5590      5592      5584      5587      5590      5593
      5585      5584      5587      5588      5585      5584      5587      5589
      5585      5584      5587      5590      5586      5584      5587      5588
      5586      5584      5587      5589      5586      5584      5587      5590
      5587      5590      5593      5594      5587      5590      5593      5595
      5587      5590      5593      5596      5588      5587      5590      5591
      5588      5587      5590      5592      5588      5587      5590      5593
      5589      5587      5590      5591      5589      5587      5590      5592
      5589      5587      5590      5593      5590      5593      5596      5597
      5590      5593      5596      5598      5590      5593      5596      5599
      5591      5590      5593      5594      5591      5590      5593      5595
      5591      5590      5593      5596      5592      5590      5593      5594
      5592      5590      5593      5595      5592      5590      5593      5596
      5593      5596      5599      5600      5593      5596      5599      5601
      5593      5596      5599      5602      5594      5593      5596      5597
      5594      5593      5596      5598      5594      5593      5596      5599
      5595      5593      5596      5597      5595      5593      5596      5598
      5595      5593      5596      5599      5596      5599      5602      5603
      5596      5599      5602      5604      5596      5599      5602      5605
      5597      5596      5599      5600      5597      5596      5599      5601
      5597      5596      5599      5602      5598      5596      5599      5600
      5598      5596      5599      5601      5598      5596      5599      5602
      5599      5602      5605      5606      5599      5602      5605      5607
      5599      5602      5605      5608      5600      5599      5602      5603
      5600      5599      5602      5604      5600      5599      5602      5605
      5601      5599      5602      5603      5601      5599      5602      5604
      5601      5599      5602      5605      5602      5605      5608      5609
      5602      5605      5608      5610      5602      5605      5608      5611
      5603      5602      5605      5606      5603      5602      5605      5607
      5603      5602      5605      5608      5604      5602      5605      5606
      5604      5602      5605      5607      5604      5602      5605      5608
      5605      5608      5611      5612      5605      5608      5611      5613
      5605      5608      5611      5614      5606      5605      5608      5609
      5606      5605      5608      5610      5606      5605      5608      5611
      5607      5605      5608      5609      5607      5605      5608      5610
      5607      5605      5608      5611      5608      5611      5614      5615
      5608      5611      5614      5616      5608      5611      5614      5617
      5609      5608      5611      5612      5609      5608      5611      5613
      5609      5608      5611      5614      5610      5608      5611      5612
      5610      5608      5611      5613      5610      5608      5611      5614
      5611      5614      5617      5618      5611      5614      5617      5619
      5611      5614      5617      5620      5612      5611      5614      5615
      5612      5611      5614      5616      5612      5611      5614      5617
      5613      5611      5614      5615      5613      5611      5614      5616
      5613      5611      5614      5617      5615      5614      5617      5618
      5615      5614      5617      5619      5615      5614      5617      5620
      5616      5614      5617      5618      5616      5614      5617      5619
      5616      5614      5617      5620      5621      5626      5628      5629
      5621      5626      5630      5631      5621      5626      5630      5632
      5621      5626      5630      5637      5622      5621      5624      5625
      5622      5621      5626      5627      5622      5621      5626      5628
      5622      5621      5626      5630      5623      5621      5624      5625
      5623      5621      5626      5627      5623      5621      5626      5628
      5623      5621      5626      5630      5624      5621      5626      5627
      5624      5621      5626      5628      5624      5621      5626      5630
      5625      5624      5621      5626      5626      5630      5637      5633
      5627      5626      5628      5629      5627      5626      5630      5631
      5627      5626      5630      5632      5627      5626      5630      5637
      5628      5626      5630      5631      5628      5626      5630      5632
      5628      5626      5630      5637      5629      5628      5626      5630
      5630      5637      5633      5634      5630      5637      5633      5635
      5630      5637      5633      5636      5631      5630      5637      5633
      5632      5630      5637      5633      5633      5636      5638      5639
      5633      5636      5638      5640      5633      5636      5638      5641
      5634      5633      5636      5638      5635      5633      5636      5638
      5636      5638      5641      5642      5636      5638      5641      5643
      5636      5638      5641      5649      5637      5633      5636      5638
      5638      5641      5643      5644      5638      5641      5649      5650
      5638      5641      5649      5651      5638      5641      5649      5652
      5639      5638      5641      5642      5639      5638      5641      5643
      5639      5638      5641      5649      5640      5638      5641      5642
      5640      5638      5641      5643      5640      5638      5641      5649
      5641      5643      5644      5645      5641      5643      5644      5646
      5641      5649      5652      5653      5642      5641      5643      5644
      5642      5641      5649      5650      5642      5641      5649      5651
      5642      5641      5649      5652      5643      5641      5649      5650
      5643      5641      5649      5651      5643      5641      5649      5652
      5643      5644      5646      5647      5643      5644      5646      5648
      5643      5644      5646      5658      5644      5643      5641      5649
      5644      5646      5658      5659      5644      5646      5658      5660
      5644      5646      5658      5661      5645      5644      5646      5647
      5645      5644      5646      5648      5645      5644      5646      5658
      5646      5658      5661      5662      5646      5658      5661      5663
      5646      5658      5661      5664      5647      5646      5658      5659
      5647      5646      5658      5660      5647      5646      5658      5661
      5648      5646      5658      5659      5648      5646      5658      5660
      5648      5646      5658      5661      5649      5652      5653      5654
      5649      5652      5653      5655      5650      5649      5652      5653
      5651      5649      5652      5653      5652      5653      5655      5656
      5652      5653      5655      5657      5652      5653      5655      5702
      5653      5655      5702      5703      5653      5655      5702      5704
      5653      5655      5702      5705      5654      5653      5655      5656
      5654      5653      5655      5657      5654      5653      5655      5702
      5655      5702      5705      5706      5655      5702      5705      5707
      5655      5702      5705      5708      5656      5655      5702      5703
      5656      5655      5702      5704      5656      5655      5702      5705
      5657      5655      5702      5703      5657      5655      5702      5704
      5657      5655      5702      5705      5658      5661      5664      5665
      5658      5661      5664      5666      5658      5661      5664      5667
      5659      5658      5661      5662      5659      5658      5661      5663
      5659      5658      5661      5664      5660      5658      5661      5662
      5660      5658      5661      5663      5660      5658      5661      5664
      5661      5664      5667      5668      5661      5664      5667      5669
      5661      5664      5667      5670      5662      5661      5664      5665
      5662      5661      5664      5666      5662      5661      5664      5667
      5663      5661      5664      5665      5663      5661      5664      5666
      5663      5661      5664      5667      5664      5667      5670      5671
      5664      5667      5670      5672      5664      5667      5670      5673
      5665      5664      5667      5668      5665      5664      5667      5669
      5665      5664      5667      5670      5666      5664      5667      5668
      5666      5664      5667      5669      5666      5664      5667      5670
      5667      5670      5673      5674      5667      5670      5673      5675
      5667      5670      5673      5676      5668      5667      5670      5671
      5668      5667      5670      5672      5668      5667      5670      5673
      5669      5667      5670      5671      5669      5667      5670      5672
      5669      5667      5670      5673      5670      5673      5676      5677
      5670      5673      5676      5678      5670      5673      5676      5681
      5671      5670      5673      5674      5671      5670      5673      5675
      5671      5670      5673      5676      5672      5670      5673      5674
      5672      5670      5673      5675      5672      5670      5673      5676
      5673      5676      5678      5679      5673      5676      5678      5680
      5673      5676      5678      5681      5673      5676      5681      5678
      5673      5676      5681      5682      5673      5676      5681      5683
      5674      5673      5676      5677      5674      5673      5676      5678
      5674      5673      5676      5681      5675      5673      5676      5677
      5675      5673      5676      5678      5675      5673      5676      5681
      5676      5678      5681      5682      5676      5678      5681      5683
      5676      5681      5678      5679      5676      5681      5678      5680
      5676      5681      5683      5684      5676      5681      5683      5685
      5676      5681      5683      5686      5677      5676      5678      5679
      5677      5676      5678      5680      5677      5676      5678      5681
      5677      5676      5681      5678      5677      5676      5681      5682
      5677      5676      5681      5683      5678      5676      5681      5682
      5678      5676      5681      5683      5678      5681      5683      5684
      5678      5681      5683      5685      5678      5681      5683      5686
      5679      5678      5676      5681      5679      5678      5681      5682
      5679      5678      5681      5683      5680      5678      5676      5681
      5680      5678      5681      5682      5680      5678      5681      5683
      5681      5683      5686      5687      5681      5683      5686      5688
      5681      5683      5686      5689      5682      5681      5683      5684
      5682      5681      5683      5685      5682      5681      5683      5686
      5683      5686      5689      5690      5683      5686      5689      5691
      5683      5686      5689      5692      5684      5683      5686      5687
      5684      5683      5686      5688      5684      5683      5686      5689
      5685      5683      5686      5687      5685      5683      5686      5688
      5685      5683      5686      5689      5686      5689      5692      5693
      5686      5689      5692      5694      5686      5689      5692      5695
      5687      5686      5689      5690      5687      5686      5689      5691
      5687      5686      5689      5692      5688      5686      5689      5690
      5688      5686      5689      5691      5688      5686      5689      5692
      5689      5692      5695      5696      5689      5692      5695      5697
      5689      5692      5695      5698      5690      5689      5692      5693
      5690      5689      5692      5694      5690      5689      5692      5695
      5691      5689      5692      5693      5691      5689      5692      5694
      5691      5689      5692      5695      5692      5695      5698      5699
      5692      5695      5698      5700      5692      5695      5698      5701
      5693      5692      5695      5696      5693      5692      5695      5697
      5693      5692      5695      5698      5694      5692      5695      5696
      5694      5692      5695      5697      5694      5692      5695      5698
      5696      5695      5698      5699      5696      5695      5698      5700
      5696      5695      5698      5701      5697      5695      5698      5699
      5697      5695      5698      5700      5697      5695      5698      5701
      5702      5705      5708      5709      5702      5705      5708      5710
      5702      5705      5708      5711      5703      5702      5705      5706
      5703      5702      5705      5707      5703      5702      5705      5708
      5704      5702      5705      5706      5704      5702      5705      5707
      5704      5702      5705      5708      5705      5708      5711      5712
      5705      5708      5711      5713      5705      5708      5711      5714
      5706      5705      5708      5709      5706      5705      5708      5710
      5706      5705      5708      5711      5707      5705      5708      5709
      5707      5705      5708      5710      5707      5705      5708      5711
      5708      5711      5714      5715      5708      5711      5714      5716
      5708      5711      5714      5717      5709      5708      5711      5712
      5709      5708      5711      5713      5709      5708      5711      5714
      5710      5708      5711      5712      5710      5708      5711      5713
      5710      5708      5711      5714      5711      5714      5717      5718
      5711      5714      5717      5719      5711      5714      5717      5720
      5712      5711      5714      5715      5712      5711      5714      5716
      5712      5711      5714      5717      5713      5711      5714      5715
      5713      5711      5714      5716      5713      5711      5714      5717
      5714      5717      5720      5721      5714      5717      5720      5722
      5714      5717      5720      5723      5715      5714      5717      5718
      5715      5714      5717      5719      5715      5714      5717      5720
      5716      5714      5717      5718      5716      5714      5717      5719
      5716      5714      5717      5720      5717      5720      5723      5724
      5717      5720      5723      5725      5717      5720      5723      5726
      5718      5717      5720      5721      5718      5717      5720      5722
      5718      5717      5720      5723      5719      5717      5720      5721
      5719      5717      5720      5722      5719      5717      5720      5723
      5720      5723      5726      5727      5720      5723      5726      5728
      5720      5723      5726      5729      5721      5720      5723      5724
      5721      5720      5723      5725      5721      5720      5723      5726
      5722      5720      5723      5724      5722      5720      5723      5725
      5722      5720      5723      5726      5723      5726      5729      5730
      5723      5726      5729      5731      5723      5726      5729      5732
      5724      5723      5726      5727      5724      5723      5726      5728
      5724      5723      5726      5729      5725      5723      5726      5727
      5725      5723      5726      5728      5725      5723      5726      5729
      5726      5729      5732      5733      5726      5729      5732      5734
      5726      5729      5732      5735      5727      5726      5729      5730
      5727      5726      5729      5731      5727      5726      5729      5732
      5728      5726      5729      5730      5728      5726      5729      5731
      5728      5726      5729      5732      5729      5732      5735      5736
      5729      5732      5735      5737      5729      5732      5735      5738
      5730      5729      5732      5733      5730      5729      5732      5734
      5730      5729      5732      5735      5731      5729      5732      5733
      5731      5729      5732      5734      5731      5729      5732      5735
      5732      5735      5738      5739      5732      5735      5738      5740
      5732      5735      5738      5741      5733      5732      5735      5736
      5733      5732      5735      5737      5733      5732      5735      5738
      5734      5732      5735      5736      5734      5732      5735      5737
      5734      5732      5735      5738      5735      5738      5741      5742
      5735      5738      5741      5743      5735      5738      5741      5744
      5736      5735      5738      5739      5736      5735      5738      5740
      5736      5735      5738      5741      5737      5735      5738      5739
      5737      5735      5738      5740      5737      5735      5738      5741
      5739      5738      5741      5742      5739      5738      5741      5743
      5739      5738      5741      5744      5740      5738      5741      5742
      5740      5738      5741      5743      5740      5738      5741      5744
      5745      5750      5752      5753      5745      5750      5754      5755
      5745      5750      5754      5756      5745      5750      5754      5761
      5746      5745      5748      5749      5746      5745      5750      5751
      5746      5745      5750      5752      5746      5745      5750      5754
      5747      5745      5748      5749      5747      5745      5750      5751
      5747      5745      5750      5752      5747      5745      5750      5754
      5748      5745      5750      5751      5748      5745      5750      5752
      5748      5745      5750      5754      5749      5748      5745      5750
      5750      5754      5761      5757      5751      5750      5752      5753
      5751      5750      5754      5755      5751      5750      5754      5756
      5751      5750      5754      5761      5752      5750      5754      5755
      5752      5750      5754      5756      5752      5750      5754      5761
      5753      5752      5750      5754      5754      5761      5757      5758
      5754      5761      5757      5759      5754      5761      5757      5760
      5755      5754      5761      5757      5756      5754      5761      5757
      5757      5760      5762      5763      5757      5760      5762      5764
      5757      5760      5762      5765      5758      5757      5760      5762
      5759      5757      5760      5762      5760      5762      5765      5766
      5760      5762      5765      5767      5760      5762      5765      5773
      5761      5757      5760      5762      5762      5765      5767      5768
      5762      5765      5773      5774      5762      5765      5773      5775
      5762      5765      5773      5776      5763      5762      5765      5766
      5763      5762      5765      5767      5763      5762      5765      5773
      5764      5762      5765      5766      5764      5762      5765      5767
      5764      5762      5765      5773      5765      5767      5768      5769
      5765      5767      5768      5770      5765      5773      5776      5777
      5766      5765      5767      5768      5766      5765      5773      5774
      5766      5765      5773      5775      5766      5765      5773      5776
      5767      5765      5773      5774      5767      5765      5773      5775
      5767      5765      5773      5776      5767      5768      5770      5771
      5767      5768      5770      5772      5767      5768      5770      5782
      5768      5767      5765      5773      5768      5770      5782      5783
      5768      5770      5782      5784      5768      5770      5782      5785
      5769      5768      5770      5771      5769      5768      5770      5772
      5769      5768      5770      5782      5770      5782      5785      5786
      5770      5782      5785      5787      5770      5782      5785      5788
      5771      5770      5782      5783      5771      5770      5782      5784
      5771      5770      5782      5785      5772      5770      5782      5783
      5772      5770      5782      5784      5772      5770      5782      5785
      5773      5776      5777      5778      5773      5776      5777      5779
      5774      5773      5776      5777      5775      5773      5776      5777
      5776      5777      5779      5780      5776      5777      5779      5781
      5776      5777      5779      5823      5777      5779      5823      5824
      5777      5779      5823      5825      5777      5779      5823      5826
      5778      5777      5779      5780      5778      5777      5779      5781
      5778      5777      5779      5823      5779      5823      5826      5827
      5779      5823      5826      5828      5779      5823      5826      5829
      5780      5779      5823      5824      5780      5779      5823      5825
      5780      5779      5823      5826      5781      5779      5823      5824
      5781      5779      5823      5825      5781      5779      5823      5826
      5782      5785      5788      5789      5782      5785      5788      5790
      5782      5785      5788      5791      5783      5782      5785      5786
      5783      5782      5785      5787      5783      5782      5785      5788
      5784      5782      5785      5786      5784      5782      5785      5787
      5784      5782      5785      5788      5785      5788      5791      5792
      5785      5788      5791      5793      5785      5788      5791      5794
      5786      5785      5788      5789      5786      5785      5788      5790
      5786      5785      5788      5791      5787      5785      5788      5789
      5787      5785      5788      5790      5787      5785      5788      5791
      5788      5791      5794      5795      5788      5791      5794      5796
      5788      5791      5794      5797      5789      5788      5791      5792
      5789      5788      5791      5793      5789      5788      5791      5794
      5790      5788      5791      5792      5790      5788      5791      5793
      5790      5788      5791      5794      5791      5794      5797      5798
      5791      5794      5797      5799      5791      5794      5797      5800
      5792      5791      5794      5795      5792      5791      5794      5796
      5792      5791      5794      5797      5793      5791      5794      5795
      5793      5791      5794      5796      5793      5791      5794      5797
      5794      5797      5800      5801      5794      5797      5800      5802
      5795      5794      5797      5798      5795      5794      5797      5799
      5795      5794      5797      5800      5796      5794      5797      5798
      5796      5794      5797      5799      5796      5794      5797      5800
      5797      5800      5802      5803      5797      5800      5802      5804
      5798      5797      5800      5801      5798      5797      5800      5802
      5799      5797      5800      5801      5799      5797      5800      5802
      5800      5802      5804      5805      5800      5802      5804      5806
      5800      5802      5804      5807      5801      5800      5802      5803
      5801      5800      5802      5804      5802      5804      5807      5808
      5802      5804      5807      5809      5802      5804      5807      5810
      5803      5802      5804      5805      5803      5802      5804      5806
      5803      5802      5804      5807      5804      5807      5810      5811
      5804      5807      5810      5812      5804      5807      5810      5813
      5805      5804      5807      5808      5805      5804      5807      5809
      5805      5804      5807      5810      5806      5804      5807      5808
      5806      5804      5807      5809      5806      5804      5807      5810
      5807      5810      5813      5814      5807      5810      5813      5815
      5807      5810      5813      5816      5808      5807      5810      5811
      5808      5807      5810      5812      5808      5807      5810      5813
      5809      5807      5810      5811      5809      5807      5810      5812
      5809      5807      5810      5813      5810      5813      5816      5817
      5810      5813      5816      5818      5810      5813      5816      5819
      5811      5810      5813      5814      5811      5810      5813      5815
      5811      5810      5813      5816      5812      5810      5813      5814
      5812      5810      5813      5815      5812      5810      5813      5816
      5813      5816      5819      5820      5813      5816      5819      5821
      5813      5816      5819      5822      5814      5813      5816      5817
      5814      5813      5816      5818      5814      5813      5816      5819
      5815      5813      5816      5817      5815      5813      5816      5818
      5815      5813      5816      5819      5817      5816      5819      5820
      5817      5816      5819      5821      5817      5816      5819      5822
      5818      5816      5819      5820      5818      5816      5819      5821
      5818      5816      5819      5822      5823      5826      5829      5830
      5823      5826      5829      5831      5823      5826      5829      5832
      5824      5823      5826      5827      5824      5823      5826      5828
      5824      5823      5826      5829      5825      5823      5826      5827
      5825      5823      5826      5828      5825      5823      5826      5829
      5826      5829      5832      5833      5826      5829      5832      5834
      5826      5829      5832      5835      5827      5826      5829      5830
      5827      5826      5829      5831      5827      5826      5829      5832
      5828      5826      5829      5830      5828      5826      5829      5831
      5828      5826      5829      5832      5829      5832      5835      5836
      5829      5832      5835      5837      5829      5832      5835      5838
      5830      5829      5832      5833      5830      5829      5832      5834
      5830      5829      5832      5835      5831      5829      5832      5833
      5831      5829      5832      5834      5831      5829      5832      5835
      5832      5835      5838      5839      5832      5835      5838      5840
      5832      5835      5838      5841      5833      5832      5835      5836
      5833      5832      5835      5837      5833      5832      5835      5838
      5834      5832      5835      5836      5834      5832      5835      5837
      5834      5832      5835      5838      5835      5838      5841      5842
      5835      5838      5841      5843      5835      5838      5841      5844
      5836      5835      5838      5839      5836      5835      5838      5840
      5836      5835      5838      5841      5837      5835      5838      5839
      5837      5835      5838      5840      5837      5835      5838      5841
      5838      5841      5844      5845      5838      5841      5844      5846
      5838      5841      5844      5847      5839      5838      5841      5842
      5839      5838      5841      5843      5839      5838      5841      5844
      5840      5838      5841      5842      5840      5838      5841      5843
      5840      5838      5841      5844      5841      5844      5847      5848
      5841      5844      5847      5849      5841      5844      5847      5850
      5842      5841      5844      5845      5842      5841      5844      5846
      5842      5841      5844      5847      5843      5841      5844      5845
      5843      5841      5844      5846      5843      5841      5844      5847
      5844      5847      5850      5851      5844      5847      5850      5852
      5844      5847      5850      5853      5845      5844      5847      5848
      5845      5844      5847      5849      5845      5844      5847      5850
      5846      5844      5847      5848      5846      5844      5847      5849
      5846      5844      5847      5850      5847      5850      5853      5854
      5847      5850      5853      5855      5847      5850      5853      5856
      5848      5847      5850      5851      5848      5847      5850      5852
      5848      5847      5850      5853      5849      5847      5850      5851
      5849      5847      5850      5852      5849      5847      5850      5853
      5850      5853      5856      5857      5850      5853      5856      5858
      5850      5853      5856      5859      5851      5850      5853      5854
      5851      5850      5853      5855      5851      5850      5853      5856
      5852      5850      5853      5854      5852      5850      5853      5855
      5852      5850      5853      5856      5853      5856      5859      5860
      5853      5856      5859      5861      5853      5856      5859      5862
      5854      5853      5856      5857      5854      5853      5856      5858
      5854      5853      5856      5859      5855      5853      5856      5857
      5855      5853      5856      5858      5855      5853      5856      5859
      5856      5859      5862      5863      5856      5859      5862      5864
      5856      5859      5862      5865      5857      5856      5859      5860
      5857      5856      5859      5861      5857      5856      5859      5862
      5858      5856      5859      5860      5858      5856      5859      5861
      5858      5856      5859      5862      5860      5859      5862      5863
      5860      5859      5862      5864      5860      5859      5862      5865
      5861      5859      5862      5863      5861      5859      5862      5864
      5861      5859      5862      5865      5866      5871      5873      5874
      5866      5871      5875      5876      5866      5871      5875      5877
      5866      5871      5875      5882      5867      5866      5869      5870
      5867      5866      5871      5872      5867      5866      5871      5873
      5867      5866      5871      5875      5868      5866      5869      5870
      5868      5866      5871      5872      5868      5866      5871      5873
      5868      5866      5871      5875      5869      5866      5871      5872
      5869      5866      5871      5873      5869      5866      5871      5875
      5870      5869      5866      5871      5871      5875      5882      5878
      5872      5871      5873      5874      5872      5871      5875      5876
      5872      5871      5875      5877      5872      5871      5875      5882
      5873      5871      5875      5876      5873      5871      5875      5877
      5873      5871      5875      5882      5874      5873      5871      5875
      5875      5882      5878      5879      5875      5882      5878      5880
      5875      5882      5878      5881      5876      5875      5882      5878
      5877      5875      5882      5878      5878      5881      5883      5884
      5878      5881      5883      5885      5878      5881      5883      5886
      5879      5878      5881      5883      5880      5878      5881      5883
      5881      5883      5886      5887      5881      5883      5886      5888
      5881      5883      5886      5894      5882      5878      5881      5883
      5883      5886      5888      5889      5883      5886      5894      5895
      5883      5886      5894      5896      5883      5886      5894      5897
      5884      5883      5886      5887      5884      5883      5886      5888
      5884      5883      5886      5894      5885      5883      5886      5887
      5885      5883      5886      5888      5885      5883      5886      5894
      5886      5888      5889      5890      5886      5888      5889      5891
      5886      5894      5897      5898      5887      5886      5888      5889
      5887      5886      5894      5895      5887      5886      5894      5896
      5887      5886      5894      5897      5888      5886      5894      5895
      5888      5886      5894      5896      5888      5886      5894      5897
      5888      5889      5891      5892      5888      5889      5891      5893
      5888      5889      5891      5903      5889      5888      5886      5894
      5889      5891      5903      5904      5889      5891      5903      5905
      5889      5891      5903      5906      5890      5889      5891      5892
      5890      5889      5891      5893      5890      5889      5891      5903
      5891      5903      5906      5907      5891      5903      5906      5908
      5891      5903      5906      5909      5892      5891      5903      5904
      5892      5891      5903      5905      5892      5891      5903      5906
      5893      5891      5903      5904      5893      5891      5903      5905
      5893      5891      5903      5906      5894      5897      5898      5899
      5894      5897      5898      5900      5895      5894      5897      5898
      5896      5894      5897      5898      5897      5898      5900      5901
      5897      5898      5900      5902      5897      5898      5900      5947
      5898      5900      5947      5948      5898      5900      5947      5949
      5898      5900      5947      5950      5899      5898      5900      5901
      5899      5898      5900      5902      5899      5898      5900      5947
      5900      5947      5950      5951      5900      5947      5950      5952
      5900      5947      5950      5953      5901      5900      5947      5948
      5901      5900      5947      5949      5901      5900      5947      5950
      5902      5900      5947      5948      5902      5900      5947      5949
      5902      5900      5947      5950      5903      5906      5909      5910
      5903      5906      5909      5911      5903      5906      5909      5912
      5904      5903      5906      5907      5904      5903      5906      5908
      5904      5903      5906      5909      5905      5903      5906      5907
      5905      5903      5906      5908      5905      5903      5906      5909
      5906      5909      5912      5913      5906      5909      5912      5914
      5906      5909      5912      5915      5907      5906      5909      5910
      5907      5906      5909      5911      5907      5906      5909      5912
      5908      5906      5909      5910      5908      5906      5909      5911
      5908      5906      5909      5912      5909      5912      5915      5916
      5909      5912      5915      5917      5909      5912      5915      5918
      5910      5909      5912      5913      5910      5909      5912      5914
      5910      5909      5912      5915      5911      5909      5912      5913
      5911      5909      5912      5914      5911      5909      5912      5915
      5912      5915      5918      5919      5912      5915      5918      5920
      5912      5915      5918      5921      5913      5912      5915      5916
      5913      5912      5915      5917      5913      5912      5915      5918
      5914      5912      5915      5916      5914      5912      5915      5917
      5914      5912      5915      5918      5915      5918      5921      5922
      5915      5918      5921      5923      5915      5918      5921      5926
      5916      5915      5918      5919      5916      5915      5918      5920
      5916      5915      5918      5921      5917      5915      5918      5919
      5917      5915      5918      5920      5917      5915      5918      5921
      5918      5921      5923      5924      5918      5921      5923      5925
      5918      5921      5923      5926      5918      5921      5926      5923
      5918      5921      5926      5927      5918      5921      5926      5928
      5919      5918      5921      5922      5919      5918      5921      5923
      5919      5918      5921      5926      5920      5918      5921      5922
      5920      5918      5921      5923      5920      5918      5921      5926
      5921      5923      5926      5927      5921      5923      5926      5928
      5921      5926      5923      5924      5921      5926      5923      5925
      5921      5926      5928      5929      5921      5926      5928      5930
      5921      5926      5928      5931      5922      5921      5923      5924
      5922      5921      5923      5925      5922      5921      5923      5926
      5922      5921      5926      5923      5922      5921      5926      5927
      5922      5921      5926      5928      5923      5921      5926      5927
      5923      5921      5926      5928      5923      5926      5928      5929
      5923      5926      5928      5930      5923      5926      5928      5931
      5924      5923      5921      5926      5924      5923      5926      5927
      5924      5923      5926      5928      5925      5923      5921      5926
      5925      5923      5926      5927      5925      5923      5926      5928
      5926      5928      5931      5932      5926      5928      5931      5933
      5926      5928      5931      5934      5927      5926      5928      5929
      5927      5926      5928      5930      5927      5926      5928      5931
      5928      5931      5934      5935      5928      5931      5934      5936
      5928      5931      5934      5937      5929      5928      5931      5932
      5929      5928      5931      5933      5929      5928      5931      5934
      5930      5928      5931      5932      5930      5928      5931      5933
      5930      5928      5931      5934      5931      5934      5937      5938
      5931      5934      5937      5939      5931      5934      5937      5940
      5932      5931      5934      5935      5932      5931      5934      5936
      5932      5931      5934      5937      5933      5931      5934      5935
      5933      5931      5934      5936      5933      5931      5934      5937
      5934      5937      5940      5941      5934      5937      5940      5942
      5934      5937      5940      5943      5935      5934      5937      5938
      5935      5934      5937      5939      5935      5934      5937      5940
      5936      5934      5937      5938      5936      5934      5937      5939
      5936      5934      5937      5940      5937      5940      5943      5944
      5937      5940      5943      5945      5937      5940      5943      5946
      5938      5937      5940      5941      5938      5937      5940      5942
      5938      5937      5940      5943      5939      5937      5940      5941
      5939      5937      5940      5942      5939      5937      5940      5943
      5941      5940      5943      5944      5941      5940      5943      5945
      5941      5940      5943      5946      5942      5940      5943      5944
      5942      5940      5943      5945      5942      5940      5943      5946
      5947      5950      5953      5954      5947      5950      5953      5955
      5947      5950      5953      5956      5948      5947      5950      5951
      5948      5947      5950      5952      5948      5947      5950      5953
      5949      5947      5950      5951      5949      5947      5950      5952
      5949      5947      5950      5953      5950      5953      5956      5957
      5950      5953      5956      5958      5950      5953      5956      5959
      5951      5950      5953      5954      5951      5950      5953      5955
      5951      5950      5953      5956      5952      5950      5953      5954
      5952      5950      5953      5955      5952      5950      5953      5956
      5953      5956      5959      5960      5953      5956      5959      5961
      5953      5956      5959      5962      5954      5953      5956      5957
      5954      5953      5956      5958      5954      5953      5956      5959
      5955      5953      5956      5957      5955      5953      5956      5958
      5955      5953      5956      5959      5956      5959      5962      5963
      5956      5959      5962      5964      5956      5959      5962      5965
      5957      5956      5959      5960      5957      5956      5959      5961
      5957      5956      5959      5962      5958      5956      5959      5960
      5958      5956      5959      5961      5958      5956      5959      5962
      5959      5962      5965      5966      5959      5962      5965      5967
      5959      5962      5965      5968      5960      5959      5962      5963
      5960      5959      5962      5964      5960      5959      5962      5965
      5961      5959      5962      5963      5961      5959      5962      5964
      5961      5959      5962      5965      5962      5965      5968      5969
      5962      5965      5968      5970      5962      5965      5968      5971
      5963      5962      5965      5966      5963      5962      5965      5967
      5963      5962      5965      5968      5964      5962      5965      5966
      5964      5962      5965      5967      5964      5962      5965      5968
      5965      5968      5971      5972      5965      5968      5971      5973
      5965      5968      5971      5974      5966      5965      5968      5969
      5966      5965      5968      5970      5966      5965      5968      5971
      5967      5965      5968      5969      5967      5965      5968      5970
      5967      5965      5968      5971      5968      5971      5974      5975
      5968      5971      5974      5976      5968      5971      5974      5977
      5969      5968      5971      5972      5969      5968      5971      5973
      5969      5968      5971      5974      5970      5968      5971      5972
      5970      5968      5971      5973      5970      5968      5971      5974
      5971      5974      5977      5978      5971      5974      5977      5979
      5971      5974      5977      5980      5972      5971      5974      5975
      5972      5971      5974      5976      5972      5971      5974      5977
      5973      5971      5974      5975      5973      5971      5974      5976
      5973      5971      5974      5977      5974      5977      5980      5981
      5974      5977      5980      5982      5974      5977      5980      5983
      5975      5974      5977      5978      5975      5974      5977      5979
      5975      5974      5977      5980      5976      5974      5977      5978
      5976      5974      5977      5979      5976      5974      5977      5980
      5977      5980      5983      5984      5977      5980      5983      5985
      5977      5980      5983      5986      5978      5977      5980      5981
      5978      5977      5980      5982      5978      5977      5980      5983
      5979      5977      5980      5981      5979      5977      5980      5982
      5979      5977      5980      5983      5980      5983      5986      5987
      5980      5983      5986      5988      5980      5983      5986      5989
      5981      5980      5983      5984      5981      5980      5983      5985
      5981      5980      5983      5986      5982      5980      5983      5984
      5982      5980      5983      5985      5982      5980      5983      5986
      5984      5983      5986      5987      5984      5983      5986      5988
      5984      5983      5986      5989      5985      5983      5986      5987
      5985      5983      5986      5988      5985      5983      5986      5989
      5990      5994      5997      5998      5990      5994      5997      5999
      5990      5994      5997      6004      5991      5990      5994      5995
      5991      5990      5994      5996      5991      5990      5994      5997
      5992      5990      5994      5995      5992      5990      5994      5996
      5992      5990      5994      5997      5993      5990      5994      5995
      5993      5990      5994      5996      5993      5990      5994      5997
      5994      5997      6004      6000      5995      5994      5997      5998
      5995      5994      5997      5999      5995      5994      5997      6004
      5996      5994      5997      5998      5996      5994      5997      5999
      5996      5994      5997      6004      5997      6004      6000      6001
      5997      6004      6000      6002      5997      6004      6000      6003
      5998      5997      6004      6000      5999      5997      6004      6000
      6000      6003      6005      6006      6000      6003      6005      6007
      6000      6003      6005      6008      6001      6000      6003      6005
      6002      6000      6003      6005      6003      6005      6008      6009
      6003      6005      6008      6010      6003      6005      6008      6016
      6004      6000      6003      6005      6005      6008      6010      6011
      6005      6008      6016      6017      6005      6008      6016      6018
      6005      6008      6016      6019      6006      6005      6008      6009
      6006      6005      6008      6010      6006      6005      6008      6016
      6007      6005      6008      6009      6007      6005      6008      6010
      6007      6005      6008      6016      6008      6010      6011      6012
      6008      6010      6011      6013      6008      6016      6019      6020
      6009      6008      6010      6011      6009      6008      6016      6017
      6009      6008      6016      6018      6009      6008      6016      6019
      6010      6008      6016      6017      6010      6008      6016      6018
      6010      6008      6016      6019      6010      6011      6013      6014
      6010      6011      6013      6015      6010      6011      6013      6025
      6011      6010      6008      6016      6011      6013      6025      6026
      6011      6013      6025      6027      6011      6013      6025      6028
      6012      6011      6013      6014      6012      6011      6013      6015
      6012      6011      6013      6025      6013      6025      6028      6029
      6013      6025      6028      6030      6013      6025      6028      6031
      6014      6013      6025      6026      6014      6013      6025      6027
      6014      6013      6025      6028      6015      6013      6025      6026
      6015      6013      6025      6027      6015      6013      6025      6028
      6016      6019      6020      6021      6016      6019      6020      6022
      6017      6016      6019      6020      6018      6016      6019      6020
      6019      6020      6022      6023      6019      6020      6022      6024
      6019      6020      6022      6069      6020      6022      6069      6070
      6020      6022      6069      6071      6020      6022      6069      6072
      6021      6020      6022      6023      6021      6020      6022      6024
      6021      6020      6022      6069      6022      6069      6072      6073
      6022      6069      6072      6074      6022      6069      6072      6075
      6023      6022      6069      6070      6023      6022      6069      6071
      6023      6022      6069      6072      6024      6022      6069      6070
      6024      6022      6069      6071      6024      6022      6069      6072
      6025      6028      6031      6032      6025      6028      6031      6033
      6025      6028      6031      6034      6026      6025      6028      6029
      6026      6025      6028      6030      6026      6025      6028      6031
      6027      6025      6028      6029      6027      6025      6028      6030
      6027      6025      6028      6031      6028      6031      6034      6035
      6028      6031      6034      6036      6028      6031      6034      6037
      6029      6028      6031      6032      6029      6028      6031      6033
      6029      6028      6031      6034      6030      6028      6031      6032
      6030      6028      6031      6033      6030      6028      6031      6034
      6031      6034      6037      6038      6031      6034      6037      6039
      6031      6034      6037      6040      6032      6031      6034      6035
      6032      6031      6034      6036      6032      6031      6034      6037
      6033      6031      6034      6035      6033      6031      6034      6036
      6033      6031      6034      6037      6034      6037      6040      6041
      6034      6037      6040      6042      6034      6037      6040      6043
      6035      6034      6037      6038      6035      6034      6037      6039
      6035      6034      6037      6040      6036      6034      6037      6038
      6036      6034      6037      6039      6036      6034      6037      6040
      6037      6040      6043      6044      6037      6040      6043      6045
      6037      6040      6043      6048      6038      6037      6040      6041
      6038      6037      6040      6042      6038      6037      6040      6043
      6039      6037      6040      6041      6039      6037      6040      6042
      6039      6037      6040      6043      6040      6043      6045      6046
      6040      6043      6045      6047      6040      6043      6045      6048
      6040      6043      6048      6045      6040      6043      6048      6049
      6040      6043      6048      6050      6041      6040      6043      6044
      6041      6040      6043      6045      6041      6040      6043      6048
      6042      6040      6043      6044      6042      6040      6043      6045
      6042      6040      6043      6048      6043      6045      6048      6049
      6043      6045      6048      6050      6043      6048      6045      6046
      6043      6048      6045      6047      6043      6048      6050      6051
      6043      6048      6050      6052      6043      6048      6050      6053
      6044      6043      6045      6046      6044      6043      6045      6047
      6044      6043      6045      6048      6044      6043      6048      6045
      6044      6043      6048      6049      6044      6043      6048      6050
      6045      6043      6048      6049      6045      6043      6048      6050
      6045      6048      6050      6051      6045      6048      6050      6052
      6045      6048      6050      6053      6046      6045      6043      6048
      6046      6045      6048      6049      6046      6045      6048      6050
      6047      6045      6043      6048      6047      6045      6048      6049
      6047      6045      6048      6050      6048      6050      6053      6054
      6048      6050      6053      6055      6048      6050      6053      6056
      6049      6048      6050      6051      6049      6048      6050      6052
      6049      6048      6050      6053      6050      6053      6056      6057
      6050      6053      6056      6058      6050      6053      6056      6059
      6051      6050      6053      6054      6051      6050      6053      6055
      6051      6050      6053      6056      6052      6050      6053      6054
      6052      6050      6053      6055      6052      6050      6053      6056
      6053      6056      6059      6060      6053      6056      6059      6061
      6053      6056      6059      6062      6054      6053      6056      6057
      6054      6053      6056      6058      6054      6053      6056      6059
      6055      6053      6056      6057      6055      6053      6056      6058
      6055      6053      6056      6059      6056      6059      6062      6063
      6056      6059      6062      6064      6056      6059      6062      6065
      6057      6056      6059      6060      6057      6056      6059      6061
      6057      6056      6059      6062      6058      6056      6059      6060
      6058      6056      6059      6061      6058      6056      6059      6062
      6059      6062      6065      6066      6059      6062      6065      6067
      6059      6062      6065      6068      6060      6059      6062      6063
      6060      6059      6062      6064      6060      6059      6062      6065
      6061      6059      6062      6063      6061      6059      6062      6064
      6061      6059      6062      6065      6063      6062      6065      6066
      6063      6062      6065      6067      6063      6062      6065      6068
      6064      6062      6065      6066      6064      6062      6065      6067
      6064      6062      6065      6068      6069      6072      6075      6076
      6069      6072      6075      6077      6069      6072      6075      6078
      6070      6069      6072      6073      6070      6069      6072      6074
      6070      6069      6072      6075      6071      6069      6072      6073
      6071      6069      6072      6074      6071      6069      6072      6075
      6072      6075      6078      6079      6072      6075      6078      6080
      6072      6075      6078      6081      6073      6072      6075      6076
      6073      6072      6075      6077      6073      6072      6075      6078
      6074      6072      6075      6076      6074      6072      6075      6077
      6074      6072      6075      6078      6075      6078      6081      6082
      6075      6078      6081      6083      6075      6078      6081      6084
      6076      6075      6078      6079      6076      6075      6078      6080
      6076      6075      6078      6081      6077      6075      6078      6079
      6077      6075      6078      6080      6077      6075      6078      6081
      6078      6081      6084      6085      6078      6081      6084      6086
      6078      6081      6084      6087      6079      6078      6081      6082
      6079      6078      6081      6083      6079      6078      6081      6084
      6080      6078      6081      6082      6080      6078      6081      6083
      6080      6078      6081      6084      6081      6084      6087      6088
      6081      6084      6087      6089      6081      6084      6087      6090
      6082      6081      6084      6085      6082      6081      6084      6086
      6082      6081      6084      6087      6083      6081      6084      6085
      6083      6081      6084      6086      6083      6081      6084      6087
      6084      6087      6090      6091      6084      6087      6090      6092
      6084      6087      6090      6093      6085      6084      6087      6088
      6085      6084      6087      6089      6085      6084      6087      6090
      6086      6084      6087      6088      6086      6084      6087      6089
      6086      6084      6087      6090      6087      6090      6093      6094
      6087      6090      6093      6095      6087      6090      6093      6096
      6088      6087      6090      6091      6088      6087      6090      6092
      6088      6087      6090      6093      6089      6087      6090      6091
      6089      6087      6090      6092      6089      6087      6090      6093
      6090      6093      6096      6097      6090      6093      6096      6098
      6090      6093      6096      6099      6091      6090      6093      6094
      6091      6090      6093      6095      6091      6090      6093      6096
      6092      6090      6093      6094      6092      6090      6093      6095
      6092      6090      6093      6096      6093      6096      6099      6100
      6093      6096      6099      6101      6093      6096      6099      6102
      6094      6093      6096      6097      6094      6093      6096      6098
      6094      6093      6096      6099      6095      6093      6096      6097
      6095      6093      6096      6098      6095      6093      6096      6099
      6096      6099      6102      6103      6096      6099      6102      6104
      6096      6099      6102      6105      6097      6096      6099      6100
      6097      6096      6099      6101      6097      6096      6099      6102
      6098      6096      6099      6100      6098      6096      6099      6101
      6098      6096      6099      6102      6099      6102      6105      6106
      6099      6102      6105      6107      6099      6102      6105      6108
      6100      6099      6102      6103      6100      6099      6102      6104
      6100      6099      6102      6105      6101      6099      6102      6103
      6101      6099      6102      6104      6101      6099      6102      6105
      6102      6105      6108      6109      6102      6105      6108      6110
      6102      6105      6108      6111      6103      6102      6105      6106
      6103      6102      6105      6107      6103      6102      6105      6108
      6104      6102      6105      6106      6104      6102      6105      6107
      6104      6102      6105      6108      6106      6105      6108      6109
      6106      6105      6108      6110      6106      6105      6108      6111
      6107      6105      6108      6109      6107      6105      6108      6110
      6107      6105      6108      6111      6112      6116      6119      6120
      6112      6116      6119      6121      6112      6116      6119      6126
      6113      6112      6116      6117      6113      6112      6116      6118
      6113      6112      6116      6119      6114      6112      6116      6117
      6114      6112      6116      6118      6114      6112      6116      6119
      6115      6112      6116      6117      6115      6112      6116      6118
      6115      6112      6116      6119      6116      6119      6126      6122
      6117      6116      6119      6120      6117      6116      6119      6121
      6117      6116      6119      6126      6118      6116      6119      6120
      6118      6116      6119      6121      6118      6116      6119      6126
      6119      6126      6122      6123      6119      6126      6122      6124
      6119      6126      6122      6125      6120      6119      6126      6122
      6121      6119      6126      6122      6122      6125      6127      6128
      6122      6125      6127      6129      6122      6125      6127      6130
      6123      6122      6125      6127      6124      6122      6125      6127
      6125      6127      6130      6131      6125      6127      6130      6132
      6125      6127      6130      6138      6126      6122      6125      6127
      6127      6130      6132      6133      6127      6130      6138      6139
      6127      6130      6138      6140      6127      6130      6138      6141
      6128      6127      6130      6131      6128      6127      6130      6132
      6128      6127      6130      6138      6129      6127      6130      6131
      6129      6127      6130      6132      6129      6127      6130      6138
      6130      6132      6133      6134      6130      6132      6133      6135
      6130      6138      6141      6142      6131      6130      6132      6133
      6131      6130      6138      6139      6131      6130      6138      6140
      6131      6130      6138      6141      6132      6130      6138      6139
      6132      6130      6138      6140      6132      6130      6138      6141
      6132      6133      6135      6136      6132      6133      6135      6137
      6132      6133      6135      6147      6133      6132      6130      6138
      6133      6135      6147      6148      6133      6135      6147      6149
      6133      6135      6147      6150      6134      6133      6135      6136
      6134      6133      6135      6137      6134      6133      6135      6147
      6135      6147      6150      6151      6135      6147      6150      6152
      6135      6147      6150      6153      6136      6135      6147      6148
      6136      6135      6147      6149      6136      6135      6147      6150
      6137      6135      6147      6148      6137      6135      6147      6149
      6137      6135      6147      6150      6138      6141      6142      6143
      6138      6141      6142      6144      6139      6138      6141      6142
      6140      6138      6141      6142      6141      6142      6144      6145
      6141      6142      6144      6146      6141      6142      6144      6191
      6142      6144      6191      6192      6142      6144      6191      6193
      6142      6144      6191      6194      6143      6142      6144      6145
      6143      6142      6144      6146      6143      6142      6144      6191
      6144      6191      6194      6195      6144      6191      6194      6196
      6144      6191      6194      6197      6145      6144      6191      6192
      6145      6144      6191      6193      6145      6144      6191      6194
      6146      6144      6191      6192      6146      6144      6191      6193
      6146      6144      6191      6194      6147      6150      6153      6154
      6147      6150      6153      6155      6147      6150      6153      6156
      6148      6147      6150      6151      6148      6147      6150      6152
      6148      6147      6150      6153      6149      6147      6150      6151
      6149      6147      6150      6152      6149      6147      6150      6153
      6150      6153      6156      6157      6150      6153      6156      6158
      6150      6153      6156      6159      6151      6150      6153      6154
      6151      6150      6153      6155      6151      6150      6153      6156
      6152      6150      6153      6154      6152      6150      6153      6155
      6152      6150      6153      6156      6153      6156      6159      6160
      6153      6156      6159      6161      6153      6156      6159      6162
      6154      6153      6156      6157      6154      6153      6156      6158
      6154      6153      6156      6159      6155      6153      6156      6157
      6155      6153      6156      6158      6155      6153      6156      6159
      6156      6159      6162      6163      6156      6159      6162      6164
      6156      6159      6162      6165      6157      6156      6159      6160
      6157      6156      6159      6161      6157      6156      6159      6162
      6158      6156      6159      6160      6158      6156      6159      6161
      6158      6156      6159      6162      6159      6162      6165      6166
      6159      6162      6165      6167      6159      6162      6165      6170
      6160      6159      6162      6163      6160      6159      6162      6164
      6160      6159      6162      6165      6161      6159      6162      6163
      6161      6159      6162      6164      6161      6159      6162      6165
      6162      6165      6167      6168      6162      6165      6167      6169
      6162      6165      6167      6170      6162      6165      6170      6167
      6162      6165      6170      6171      6162      6165      6170      6172
      6163      6162      6165      6166      6163      6162      6165      6167
      6163      6162      6165      6170      6164      6162      6165      6166
      6164      6162      6165      6167      6164      6162      6165      6170
      6165      6167      6170      6171      6165      6167      6170      6172
      6165      6170      6167      6168      6165      6170      6167      6169
      6165      6170      6172      6173      6165      6170      6172      6174
      6165      6170      6172      6175      6166      6165      6167      6168
      6166      6165      6167      6169      6166      6165      6167      6170
      6166      6165      6170      6167      6166      6165      6170      6171
      6166      6165      6170      6172      6167      6165      6170      6171
      6167      6165      6170      6172      6167      6170      6172      6173
      6167      6170      6172      6174      6167      6170      6172      6175
      6168      6167      6165      6170      6168      6167      6170      6171
      6168      6167      6170      6172      6169      6167      6165      6170
      6169      6167      6170      6171      6169      6167      6170      6172
      6170      6172      6175      6176      6170      6172      6175      6177
      6170      6172      6175      6178      6171      6170      6172      6173
      6171      6170      6172      6174      6171      6170      6172      6175
      6172      6175      6178      6179      6172      6175      6178      6180
      6172      6175      6178      6181      6173      6172      6175      6176
      6173      6172      6175      6177      6173      6172      6175      6178
      6174      6172      6175      6176      6174      6172      6175      6177
      6174      6172      6175      6178      6175      6178      6181      6182
      6175      6178      6181      6183      6175      6178      6181      6184
      6176      6175      6178      6179      6176      6175      6178      6180
      6176      6175      6178      6181      6177      6175      6178      6179
      6177      6175      6178      6180      6177      6175      6178      6181
      6178      6181      6184      6185      6178      6181      6184      6186
      6178      6181      6184      6187      6179      6178      6181      6182
      6179      6178      6181      6183      6179      6178      6181      6184
      6180      6178      6181      6182      6180      6178      6181      6183
      6180      6178      6181      6184      6181      6184      6187      6188
      6181      6184      6187      6189      6181      6184      6187      6190
      6182      6181      6184      6185      6182      6181      6184      6186
      6182      6181      6184      6187      6183      6181      6184      6185
      6183      6181      6184      6186      6183      6181      6184      6187
      6185      6184      6187      6188      6185      6184      6187      6189
      6185      6184      6187      6190      6186      6184      6187      6188
      6186      6184      6187      6189      6186      6184      6187      6190
      6191      6194      6197      6198      6191      6194      6197      6199
      6191      6194      6197      6200      6192      6191      6194      6195
      6192      6191      6194      6196      6192      6191      6194      6197
      6193      6191      6194      6195      6193      6191      6194      6196
      6193      6191      6194      6197      6194      6197      6200      6201
      6194      6197      6200      6202      6194      6197      6200      6203
      6195      6194      6197      6198      6195      6194      6197      6199
      6195      6194      6197      6200      6196      6194      6197      6198
      6196      6194      6197      6199      6196      6194      6197      6200
      6197      6200      6203      6204      6197      6200      6203      6205
      6197      6200      6203      6206      6198      6197      6200      6201
      6198      6197      6200      6202      6198      6197      6200      6203
      6199      6197      6200      6201      6199      6197      6200      6202
      6199      6197      6200      6203      6200      6203      6206      6207
      6200      6203      6206      6208      6200      6203      6206      6209
      6201      6200      6203      6204      6201      6200      6203      6205
      6201      6200      6203      6206      6202      6200      6203      6204
      6202      6200      6203      6205      6202      6200      6203      6206
      6203      6206      6209      6210      6203      6206      6209      6211
      6203      6206      6209      6212      6204      6203      6206      6207
      6204      6203      6206      6208      6204      6203      6206      6209
      6205      6203      6206      6207      6205      6203      6206      6208
      6205      6203      6206      6209      6206      6209      6212      6213
      6206      6209      6212      6214      6206      6209      6212      6215
      6207      6206      6209      6210      6207      6206      6209      6211
      6207      6206      6209      6212      6208      6206      6209      6210
      6208      6206      6209      6211      6208      6206      6209      6212
      6209      6212      6215      6216      6209      6212      6215      6217
      6209      6212      6215      6218      6210      6209      6212      6213
      6210      6209      6212      6214      6210      6209      6212      6215
      6211      6209      6212      6213      6211      6209      6212      6214
      6211      6209      6212      6215      6212      6215      6218      6219
      6212      6215      6218      6220      6212      6215      6218      6221
      6213      6212      6215      6216      6213      6212      6215      6217
      6213      6212      6215      6218      6214      6212      6215      6216
      6214      6212      6215      6217      6214      6212      6215      6218
      6215      6218      6221      6222      6215      6218      6221      6223
      6215      6218      6221      6224      6216      6215      6218      6219
      6216      6215      6218      6220      6216      6215      6218      6221
      6217      6215      6218      6219      6217      6215      6218      6220
      6217      6215      6218      6221      6218      6221      6224      6225
      6218      6221      6224      6226      6218      6221      6224      6227
      6219      6218      6221      6222      6219      6218      6221      6223
      6219      6218      6221      6224      6220      6218      6221      6222
      6220      6218      6221      6223      6220      6218      6221      6224
      6221      6224      6227      6228      6221      6224      6227      6229
      6221      6224      6227      6230      6222      6221      6224      6225
      6222      6221      6224      6226      6222      6221      6224      6227
      6223      6221      6224      6225      6223      6221      6224      6226
      6223      6221      6224      6227      6224      6227      6230      6231
      6224      6227      6230      6232      6224      6227      6230      6233
      6225      6224      6227      6228      6225      6224      6227      6229
      6225      6224      6227      6230      6226      6224      6227      6228
      6226      6224      6227      6229      6226      6224      6227      6230
      6228      6227      6230      6231      6228      6227      6230      6232
      6228      6227      6230      6233      6229      6227      6230      6231
      6229      6227      6230      6232      6229      6227      6230      6233
      6234      6238      6241      6242      6234      6238      6241      6243
      6234      6238      6241      6248      6235      6234      6238      6239
      6235      6234      6238      6240      6235      6234      6238      6241
      6236      6234      6238      6239      6236      6234      6238      6240
      6236      6234      6238      6241      6237      6234      6238      6239
      6237      6234      6238      6240      6237      6234      6238      6241
      6238      6241      6248      6244      6239      6238      6241      6242
      6239      6238      6241      6243      6239      6238      6241      6248
      6240      6238      6241      6242      6240      6238      6241      6243
      6240      6238      6241      6248      6241      6248      6244      6245
      6241      6248      6244      6246      6241      6248      6244      6247
      6242      6241      6248      6244      6243      6241      6248      6244
      6244      6247      6249      6250      6244      6247      6249      6251
      6244      6247      6249      6252      6245      6244      6247      6249
      6246      6244      6247      6249      6247      6249      6252      6253
      6247      6249      6252      6254      6247      6249      6252      6260
      6248      6244      6247      6249      6249      6252      6254      6255
      6249      6252      6260      6261      6249      6252      6260      6262
      6249      6252      6260      6263      6250      6249      6252      6253
      6250      6249      6252      6254      6250      6249      6252      6260
      6251      6249      6252      6253      6251      6249      6252      6254
      6251      6249      6252      6260      6252      6254      6255      6256
      6252      6254      6255      6257      6252      6260      6263      6264
      6253      6252      6254      6255      6253      6252      6260      6261
      6253      6252      6260      6262      6253      6252      6260      6263
      6254      6252      6260      6261      6254      6252      6260      6262
      6254      6252      6260      6263      6254      6255      6257      6258
      6254      6255      6257      6259      6254      6255      6257      6269
      6255      6254      6252      6260      6255      6257      6269      6270
      6255      6257      6269      6271      6255      6257      6269      6272
      6256      6255      6257      6258      6256      6255      6257      6259
      6256      6255      6257      6269      6257      6269      6272      6273
      6257      6269      6272      6274      6257      6269      6272      6275
      6258      6257      6269      6270      6258      6257      6269      6271
      6258      6257      6269      6272      6259      6257      6269      6270
      6259      6257      6269      6271      6259      6257      6269      6272
      6260      6263      6264      6265      6260      6263      6264      6266
      6261      6260      6263      6264      6262      6260      6263      6264
      6263      6264      6266      6267      6263      6264      6266      6268
      6263      6264      6266      6313      6264      6266      6313      6314
      6264      6266      6313      6315      6264      6266      6313      6316
      6265      6264      6266      6267      6265      6264      6266      6268
      6265      6264      6266      6313      6266      6313      6316      6317
      6266      6313      6316      6318      6266      6313      6316      6319
      6267      6266      6313      6314      6267      6266      6313      6315
      6267      6266      6313      6316      6268      6266      6313      6314
      6268      6266      6313      6315      6268      6266      6313      6316
      6269      6272      6275      6276      6269      6272      6275      6277
      6269      6272      6275      6278      6270      6269      6272      6273
      6270      6269      6272      6274      6270      6269      6272      6275
      6271      6269      6272      6273      6271      6269      6272      6274
      6271      6269      6272      6275      6272      6275      6278      6279
      6272      6275      6278      6280      6272      6275      6278      6281
      6273      6272      6275      6276      6273      6272      6275      6277
      6273      6272      6275      6278      6274      6272      6275      6276
      6274      6272      6275      6277      6274      6272      6275      6278
      6275      6278      6281      6282      6275      6278      6281      6283
      6275      6278      6281      6284      6276      6275      6278      6279
      6276      6275      6278      6280      6276      6275      6278      6281
      6277      6275      6278      6279      6277      6275      6278      6280
      6277      6275      6278      6281      6278      6281      6284      6285
      6278      6281      6284      6286      6278      6281      6284      6287
      6279      6278      6281      6282      6279      6278      6281      6283
      6279      6278      6281      6284      6280      6278      6281      6282
      6280      6278      6281      6283      6280      6278      6281      6284
      6281      6284      6287      6288      6281      6284      6287      6289
      6281      6284      6287      6292      6282      6281      6284      6285
      6282      6281      6284      6286      6282      6281      6284      6287
      6283      6281      6284      6285      6283      6281      6284      6286
      6283      6281      6284      6287      6284      6287      6289      6290
      6284      6287      6289      6291      6284      6287      6289      6292
      6284      6287      6292      6289      6284      6287      6292      6293
      6284      6287      6292      6294      6285      6284      6287      6288
      6285      6284      6287      6289      6285      6284      6287      6292
      6286      6284      6287      6288      6286      6284      6287      6289
      6286      6284      6287      6292      6287      6289      6292      6293
      6287      6289      6292      6294      6287      6292      6289      6290
      6287      6292      6289      6291      6287      6292      6294      6295
      6287      6292      6294      6296      6287      6292      6294      6297
      6288      6287      6289      6290      6288      6287      6289      6291
      6288      6287      6289      6292      6288      6287      6292      6289
      6288      6287      6292      6293      6288      6287      6292      6294
      6289      6287      6292      6293      6289      6287      6292      6294
      6289      6292      6294      6295      6289      6292      6294      6296
      6289      6292      6294      6297      6290      6289      6287      6292
      6290      6289      6292      6293      6290      6289      6292      6294
      6291      6289      6287      6292      6291      6289      6292      6293
      6291      6289      6292      6294      6292      6294      6297      6298
      6292      6294      6297      6299      6292      6294      6297      6300
      6293      6292      6294      6295      6293      6292      6294      6296
      6293      6292      6294      6297      6294      6297      6300      6301
      6294      6297      6300      6302      6294      6297      6300      6303
      6295      6294      6297      6298      6295      6294      6297      6299
      6295      6294      6297      6300      6296      6294      6297      6298
      6296      6294      6297      6299      6296      6294      6297      6300
      6297      6300      6303      6304      6297      6300      6303      6305
      6297      6300      6303      6306      6298      6297      6300      6301
      6298      6297      6300      6302      6298      6297      6300      6303
      6299      6297      6300      6301      6299      6297      6300      6302
      6299      6297      6300      6303      6300      6303      6306      6307
      6300      6303      6306      6308      6300      6303      6306      6309
      6301      6300      6303      6304      6301      6300      6303      6305
      6301      6300      6303      6306      6302      6300      6303      6304
      6302      6300      6303      6305      6302      6300      6303      6306
      6303      6306      6309      6310      6303      6306      6309      6311
      6303      6306      6309      6312      6304      6303      6306      6307
      6304      6303      6306      6308      6304      6303      6306      6309
      6305      6303      6306      6307      6305      6303      6306      6308
      6305      6303      6306      6309      6307      6306      6309      6310
      6307      6306      6309      6311      6307      6306      6309      6312
      6308      6306      6309      6310      6308      6306      6309      6311
      6308      6306      6309      6312      6313      6316      6319      6320
      6313      6316      6319      6321      6313      6316      6319      6322
      6314      6313      6316      6317      6314      6313      6316      6318
      6314      6313      6316      6319      6315      6313      6316      6317
      6315      6313      6316      6318      6315      6313      6316      6319
      6316      6319      6322      6323      6316      6319      6322      6324
      6316      6319      6322      6325      6317      6316      6319      6320
      6317      6316      6319      6321      6317      6316      6319      6322
      6318      6316      6319      6320      6318      6316      6319      6321
      6318      6316      6319      6322      6319      6322      6325      6326
      6319      6322      6325      6327      6319      6322      6325      6328
      6320      6319      6322      6323      6320      6319      6322      6324
      6320      6319      6322      6325      6321      6319      6322      6323
      6321      6319      6322      6324      6321      6319      6322      6325
      6322      6325      6328      6329      6322      6325      6328      6330
      6322      6325      6328      6331      6323      6322      6325      6326
      6323      6322      6325      6327      6323      6322      6325      6328
      6324      6322      6325      6326      6324      6322      6325      6327
      6324      6322      6325      6328      6325      6328      6331      6332
      6325      6328      6331      6333      6325      6328      6331      6334
      6326      6325      6328      6329      6326      6325      6328      6330
      6326      6325      6328      6331      6327      6325      6328      6329
      6327      6325      6328      6330      6327      6325      6328      6331
      6328      6331      6334      6335      6328      6331      6334      6336
      6328      6331      6334      6337      6329      6328      6331      6332
      6329      6328      6331      6333      6329      6328      6331      6334
      6330      6328      6331      6332      6330      6328      6331      6333
      6330      6328      6331      6334      6331      6334      6337      6338
      6331      6334      6337      6339      6331      6334      6337      6340
      6332      6331      6334      6335      6332      6331      6334      6336
      6332      6331      6334      6337      6333      6331      6334      6335
      6333      6331      6334      6336      6333      6331      6334      6337
      6334      6337      6340      6341      6334      6337      6340      6342
      6334      6337      6340      6343      6335      6334      6337      6338
      6335      6334      6337      6339      6335      6334      6337      6340
      6336      6334      6337      6338      6336      6334      6337      6339
      6336      6334      6337      6340      6337      6340      6343      6344
      6337      6340      6343      6345      6337      6340      6343      6346
      6338      6337      6340      6341      6338      6337      6340      6342
      6338      6337      6340      6343      6339      6337      6340      6341
      6339      6337      6340      6342      6339      6337      6340      6343
      6340      6343      6346      6347      6340      6343      6346      6348
      6340      6343      6346      6349      6341      6340      6343      6344
      6341      6340      6343      6345      6341      6340      6343      6346
      6342      6340      6343      6344      6342      6340      6343      6345
      6342      6340      6343      6346      6343      6346      6349      6350
      6343      6346      6349      6351      6343      6346      6349      6352
      6344      6343      6346      6347      6344      6343      6346      6348
      6344      6343      6346      6349      6345      6343      6346      6347
      6345      6343      6346      6348      6345      6343      6346      6349
      6346      6349      6352      6353      6346      6349      6352      6354
      6346      6349      6352      6355      6347      6346      6349      6350
      6347      6346      6349      6351      6347      6346      6349      6352
      6348      6346      6349      6350      6348      6346      6349      6351
      6348      6346      6349      6352      6350      6349      6352      6353
      6350      6349      6352      6354      6350      6349      6352      6355
      6351      6349      6352      6353      6351      6349      6352      6354
      6351      6349      6352      6355      6356      6360      6363      6364
      6356      6360      6363      6365      6356      6360      6363      6370
      6357      6356      6360      6361      6357      6356      6360      6362
      6357      6356      6360      6363      6358      6356      6360      6361
      6358      6356      6360      6362      6358      6356      6360      6363
      6359      6356      6360      6361      6359      6356      6360      6362
      6359      6356      6360      6363      6360      6363      6370      6366
      6361      6360      6363      6364      6361      6360      6363      6365
      6361      6360      6363      6370      6362      6360      6363      6364
      6362      6360      6363      6365      6362      6360      6363      6370
      6363      6370      6366      6367      6363      6370      6366      6368
      6363      6370      6366      6369      6364      6363      6370      6366
      6365      6363      6370      6366      6366      6369      6371      6372
      6366      6369      6371      6373      6366      6369      6371      6374
      6367      6366      6369      6371      6368      6366      6369      6371
      6369      6371      6374      6375      6369      6371      6374      6376
      6369      6371      6374      6382      6370      6366      6369      6371
      6371      6374      6376      6377      6371      6374      6382      6383
      6371      6374      6382      6384      6371      6374      6382      6385
      6372      6371      6374      6375      6372      6371      6374      6376
      6372      6371      6374      6382      6373      6371      6374      6375
      6373      6371      6374      6376      6373      6371      6374      6382
      6374      6376      6377      6378      6374      6376      6377      6379
      6374      6382      6385      6386      6375      6374      6376      6377
      6375      6374      6382      6383      6375      6374      6382      6384
      6375      6374      6382      6385      6376      6374      6382      6383
      6376      6374      6382      6384      6376      6374      6382      6385
      6376      6377      6379      6380      6376      6377      6379      6381
      6376      6377      6379      6391      6377      6376      6374      6382
      6377      6379      6391      6392      6377      6379      6391      6393
      6377      6379      6391      6394      6378      6377      6379      6380
      6378      6377      6379      6381      6378      6377      6379      6391
      6379      6391      6394      6395      6379      6391      6394      6396
      6379      6391      6394      6397      6380      6379      6391      6392
      6380      6379      6391      6393      6380      6379      6391      6394
      6381      6379      6391      6392      6381      6379      6391      6393
      6381      6379      6391      6394      6382      6385      6386      6387
      6382      6385      6386      6388      6383      6382      6385      6386
      6384      6382      6385      6386      6385      6386      6388      6389
      6385      6386      6388      6390      6385      6386      6388      6435
      6386      6388      6435      6436      6386      6388      6435      6437
      6386      6388      6435      6438      6387      6386      6388      6389
      6387      6386      6388      6390      6387      6386      6388      6435
      6388      6435      6438      6439      6388      6435      6438      6440
      6388      6435      6438      6441      6389      6388      6435      6436
      6389      6388      6435      6437      6389      6388      6435      6438
      6390      6388      6435      6436      6390      6388      6435      6437
      6390      6388      6435      6438      6391      6394      6397      6398
      6391      6394      6397      6399      6391      6394      6397      6400
      6392      6391      6394      6395      6392      6391      6394      6396
      6392      6391      6394      6397      6393      6391      6394      6395
      6393      6391      6394      6396      6393      6391      6394      6397
      6394      6397      6400      6401      6394      6397      6400      6402
      6394      6397      6400      6403      6395      6394      6397      6398
      6395      6394      6397      6399      6395      6394      6397      6400
      6396      6394      6397      6398      6396      6394      6397      6399
      6396      6394      6397      6400      6397      6400      6403      6404
      6397      6400      6403      6405      6397      6400      6403      6406
      6398      6397      6400      6401      6398      6397      6400      6402
      6398      6397      6400      6403      6399      6397      6400      6401
      6399      6397      6400      6402      6399      6397      6400      6403
      6400      6403      6406      6407      6400      6403      6406      6408
      6400      6403      6406      6409      6401      6400      6403      6404
      6401      6400      6403      6405      6401      6400      6403      6406
      6402      6400      6403      6404      6402      6400      6403      6405
      6402      6400      6403      6406      6403      6406      6409      6410
      6403      6406      6409      6411      6403      6406      6409      6414
      6404      6403      6406      6407      6404      6403      6406      6408
      6404      6403      6406      6409      6405      6403      6406      6407
      6405      6403      6406      6408      6405      6403      6406      6409
      6406      6409      6411      6412      6406      6409      6411      6413
      6406      6409      6411      6414      6406      6409      6414      6411
      6406      6409      6414      6415      6406      6409      6414      6416
      6407      6406      6409      6410      6407      6406      6409      6411
      6407      6406      6409      6414      6408      6406      6409      6410
      6408      6406      6409      6411      6408      6406      6409      6414
      6409      6411      6414      6415      6409      6411      6414      6416
      6409      6414      6411      6412      6409      6414      6411      6413
      6409      6414      6416      6417      6409      6414      6416      6418
      6409      6414      6416      6419      6410      6409      6411      6412
      6410      6409      6411      6413      6410      6409      6411      6414
      6410      6409      6414      6411      6410      6409      6414      6415
      6410      6409      6414      6416      6411      6409      6414      6415
      6411      6409      6414      6416      6411      6414      6416      6417
      6411      6414      6416      6418      6411      6414      6416      6419
      6412      6411      6409      6414      6412      6411      6414      6415
      6412      6411      6414      6416      6413      6411      6409      6414
      6413      6411      6414      6415      6413      6411      6414      6416
      6414      6416      6419      6420      6414      6416      6419      6421
      6414      6416      6419      6422      6415      6414      6416      6417
      6415      6414      6416      6418      6415      6414      6416      6419
      6416      6419      6422      6423      6416      6419      6422      6424
      6416      6419      6422      6425      6417      6416      6419      6420
      6417      6416      6419      6421      6417      6416      6419      6422
      6418      6416      6419      6420      6418      6416      6419      6421
      6418      6416      6419      6422      6419      6422      6425      6426
      6419      6422      6425      6427      6419      6422      6425      6428
      6420      6419      6422      6423      6420      6419      6422      6424
      6420      6419      6422      6425      6421      6419      6422      6423
      6421      6419      6422      6424      6421      6419      6422      6425
      6422      6425      6428      6429      6422      6425      6428      6430
      6422      6425      6428      6431      6423      6422      6425      6426
      6423      6422      6425      6427      6423      6422      6425      6428
      6424      6422      6425      6426      6424      6422      6425      6427
      6424      6422      6425      6428      6425      6428      6431      6432
      6425      6428      6431      6433      6425      6428      6431      6434
      6426      6425      6428      6429      6426      6425      6428      6430
      6426      6425      6428      6431      6427      6425      6428      6429
      6427      6425      6428      6430      6427      6425      6428      6431
      6429      6428      6431      6432      6429      6428      6431      6433
      6429      6428      6431      6434      6430      6428      6431      6432
      6430      6428      6431      6433      6430      6428      6431      6434
      6435      6438      6441      6442      6435      6438      6441      6443
      6435      6438      6441      6444      6436      6435      6438      6439
      6436      6435      6438      6440      6436      6435      6438      6441
      6437      6435      6438      6439      6437      6435      6438      6440
      6437      6435      6438      6441      6438      6441      6444      6445
      6438      6441      6444      6446      6438      6441      6444      6447
      6439      6438      6441      6442      6439      6438      6441      6443
      6439      6438      6441      6444      6440      6438      6441      6442
      6440      6438      6441      6443      6440      6438      6441      6444
      6441      6444      6447      6448      6441      6444      6447      6449
      6441      6444      6447      6450      6442      6441      6444      6445
      6442      6441      6444      6446      6442      6441      6444      6447
      6443      6441      6444      6445      6443      6441      6444      6446
      6443      6441      6444      6447      6444      6447      6450      6451
      6444      6447      6450      6452      6444      6447      6450      6453
      6445      6444      6447      6448      6445      6444      6447      6449
      6445      6444      6447      6450      6446      6444      6447      6448
      6446      6444      6447      6449      6446      6444      6447      6450
      6447      6450      6453      6454      6447      6450      6453      6455
      6447      6450      6453      6456      6448      6447      6450      6451
      6448      6447      6450      6452      6448      6447      6450      6453
      6449      6447      6450      6451      6449      6447      6450      6452
      6449      6447      6450      6453      6450      6453      6456      6457
      6450      6453      6456      6458      6450      6453      6456      6459
      6451      6450      6453      6454      6451      6450      6453      6455
      6451      6450      6453      6456      6452      6450      6453      6454
      6452      6450      6453      6455      6452      6450      6453      6456
      6453      6456      6459      6460      6453      6456      6459      6461
      6453      6456      6459      6462      6454      6453      6456      6457
      6454      6453      6456      6458      6454      6453      6456      6459
      6455      6453      6456      6457      6455      6453      6456      6458
      6455      6453      6456      6459      6456      6459      6462      6463
      6456      6459      6462      6464      6456      6459      6462      6465
      6457      6456      6459      6460      6457      6456      6459      6461
      6457      6456      6459      6462      6458      6456      6459      6460
      6458      6456      6459      6461      6458      6456      6459      6462
      6459      6462      6465      6466      6459      6462      6465      6467
      6459      6462      6465      6468      6460      6459      6462      6463
      6460      6459      6462      6464      6460      6459      6462      6465
      6461      6459      6462      6463      6461      6459      6462      6464
      6461      6459      6462      6465      6462      6465      6468      6469
      6462      6465      6468      6470      6462      6465      6468      6471
      6463      6462      6465      6466      6463      6462      6465      6467
      6463      6462      6465      6468      6464      6462      6465      6466
      6464      6462      6465      6467      6464      6462      6465      6468
      6465      6468      6471      6472      6465      6468      6471      6473
      6465      6468      6471      6474      6466      6465      6468      6469
      6466      6465      6468      6470      6466      6465      6468      6471
      6467      6465      6468      6469      6467      6465      6468      6470
      6467      6465      6468      6471      6468      6471      6474      6475
      6468      6471      6474      6476      6468      6471      6474      6477
      6469      6468      6471      6472      6469      6468      6471      6473
      6469      6468      6471      6474      6470      6468      6471      6472
      6470      6468      6471      6473      6470      6468      6471      6474
      6472      6471      6474      6475      6472      6471      6474      6476
      6472      6471      6474      6477      6473      6471      6474      6475
      6473      6471      6474      6476      6473      6471      6474      6477
      6478      6483      6485      6486      6478      6483      6487      6488
      6478      6483      6487      6489      6478      6483      6487      6494
      6479      6478      6481      6482      6479      6478      6483      6484
      6479      6478      6483      6485      6479      6478      6483      6487
      6480      6478      6481      6482      6480      6478      6483      6484
      6480      6478      6483      6485      6480      6478      6483      6487
      6481      6478      6483      6484      6481      6478      6483      6485
      6481      6478      6483      6487      6482      6481      6478      6483
      6483      6487      6494      6490      6484      6483      6485      6486
      6484      6483      6487      6488      6484      6483      6487      6489
      6484      6483      6487      6494      6485      6483      6487      6488
      6485      6483      6487      6489      6485      6483      6487      6494
      6486      6485      6483      6487      6487      6494      6490      6491
      6487      6494      6490      6492      6487      6494      6490      6493
      6488      6487      6494      6490      6489      6487      6494      6490
      6490      6493      6495      6496      6490      6493      6495      6497
      6490      6493      6495      6498      6491      6490      6493      6495
      6492      6490      6493      6495      6493      6495      6498      6499
      6493      6495      6498      6500      6493      6495      6498      6506
      6494      6490      6493      6495      6495      6498      6500      6501
      6495      6498      6506      6507      6495      6498      6506      6508
      6495      6498      6506      6509      6496      6495      6498      6499
      6496      6495      6498      6500      6496      6495      6498      6506
      6497      6495      6498      6499      6497      6495      6498      6500
      6497      6495      6498      6506      6498      6500      6501      6502
      6498      6500      6501      6503      6498      6506      6509      6510
      6499      6498      6500      6501      6499      6498      6506      6507
      6499      6498      6506      6508      6499      6498      6506      6509
      6500      6498      6506      6507      6500      6498      6506      6508
      6500      6498      6506      6509      6500      6501      6503      6504
      6500      6501      6503      6505      6500      6501      6503      6515
      6501      6500      6498      6506      6501      6503      6515      6516
      6501      6503      6515      6517      6501      6503      6515      6518
      6502      6501      6503      6504      6502      6501      6503      6505
      6502      6501      6503      6515      6503      6515      6518      6519
      6503      6515      6518      6520      6503      6515      6518      6521
      6504      6503      6515      6516      6504      6503      6515      6517
      6504      6503      6515      6518      6505      6503      6515      6516
      6505      6503      6515      6517      6505      6503      6515      6518
      6506      6509      6510      6511      6506      6509      6510      6512
      6507      6506      6509      6510      6508      6506      6509      6510
      6509      6510      6512      6513      6509      6510      6512      6514
      6509      6510      6512      6559      6510      6512      6559      6560
      6510      6512      6559      6561      6510      6512      6559      6562
      6511      6510      6512      6513      6511      6510      6512      6514
      6511      6510      6512      6559      6512      6559      6562      6563
      6512      6559      6562      6564      6512      6559      6562      6565
      6513      6512      6559      6560      6513      6512      6559      6561
      6513      6512      6559      6562      6514      6512      6559      6560
      6514      6512      6559      6561      6514      6512      6559      6562
      6515      6518      6521      6522      6515      6518      6521      6523
      6515      6518      6521      6524      6516      6515      6518      6519
      6516      6515      6518      6520      6516      6515      6518      6521
      6517      6515      6518      6519      6517      6515      6518      6520
      6517      6515      6518      6521      6518      6521      6524      6525
      6518      6521      6524      6526      6518      6521      6524      6527
      6519      6518      6521      6522      6519      6518      6521      6523
      6519      6518      6521      6524      6520      6518      6521      6522
      6520      6518      6521      6523      6520      6518      6521      6524
      6521      6524      6527      6528      6521      6524      6527      6529
      6521      6524      6527      6530      6522      6521      6524      6525
      6522      6521      6524      6526      6522      6521      6524      6527
      6523      6521      6524      6525      6523      6521      6524      6526
      6523      6521      6524      6527      6524      6527      6530      6531
      6524      6527      6530      6532      6524      6527      6530      6533
      6525      6524      6527      6528      6525      6524      6527      6529
      6525      6524      6527      6530      6526      6524      6527      6528
      6526      6524      6527      6529      6526      6524      6527      6530
      6527      6530      6533      6534      6527      6530      6533      6535
      6527      6530      6533      6538      6528      6527      6530      6531
      6528      6527      6530      6532      6528      6527      6530      6533
      6529      6527      6530      6531      6529      6527      6530      6532
      6529      6527      6530      6533      6530      6533      6535      6536
      6530      6533      6535      6537      6530      6533      6535      6538
      6530      6533      6538      6535      6530      6533      6538      6539
      6530      6533      6538      6540      6531      6530      6533      6534
      6531      6530      6533      6535      6531      6530      6533      6538
      6532      6530      6533      6534      6532      6530      6533      6535
      6532      6530      6533      6538      6533      6535      6538      6539
      6533      6535      6538      6540      6533      6538      6535      6536
      6533      6538      6535      6537      6533      6538      6540      6541
      6533      6538      6540      6542      6533      6538      6540      6543
      6534      6533      6535      6536      6534      6533      6535      6537
      6534      6533      6535      6538      6534      6533      6538      6535
      6534      6533      6538      6539      6534      6533      6538      6540
      6535      6533      6538      6539      6535      6533      6538      6540
      6535      6538      6540      6541      6535      6538      6540      6542
      6535      6538      6540      6543      6536      6535      6533      6538
      6536      6535      6538      6539      6536      6535      6538      6540
      6537      6535      6533      6538      6537      6535      6538      6539
      6537      6535      6538      6540      6538      6540      6543      6544
      6538      6540      6543      6545      6538      6540      6543      6546
      6539      6538      6540      6541      6539      6538      6540      6542
      6539      6538      6540      6543      6540      6543      6546      6547
      6540      6543      6546      6548      6540      6543      6546      6549
      6541      6540      6543      6544      6541      6540      6543      6545
      6541      6540      6543      6546      6542      6540      6543      6544
      6542      6540      6543      6545      6542      6540      6543      6546
      6543      6546      6549      6550      6543      6546      6549      6551
      6543      6546      6549      6552      6544      6543      6546      6547
      6544      6543      6546      6548      6544      6543      6546      6549
      6545      6543      6546      6547      6545      6543      6546      6548
      6545      6543      6546      6549      6546      6549      6552      6553
      6546      6549      6552      6554      6546      6549      6552      6555
      6547      6546      6549      6550      6547      6546      6549      6551
      6547      6546      6549      6552      6548      6546      6549      6550
      6548      6546      6549      6551      6548      6546      6549      6552
      6549      6552      6555      6556      6549      6552      6555      6557
      6549      6552      6555      6558      6550      6549      6552      6553
      6550      6549      6552      6554      6550      6549      6552      6555
      6551      6549      6552      6553      6551      6549      6552      6554
      6551      6549      6552      6555      6553      6552      6555      6556
      6553      6552      6555      6557      6553      6552      6555      6558
      6554      6552      6555      6556      6554      6552      6555      6557
      6554      6552      6555      6558      6559      6562      6565      6566
      6559      6562      6565      6567      6559      6562      6565      6568
      6560      6559      6562      6563      6560      6559      6562      6564
      6560      6559      6562      6565      6561      6559      6562      6563
      6561      6559      6562      6564      6561      6559      6562      6565
      6562      6565      6568      6569      6562      6565      6568      6570
      6562      6565      6568      6571      6563      6562      6565      6566
      6563      6562      6565      6567      6563      6562      6565      6568
      6564      6562      6565      6566      6564      6562      6565      6567
      6564      6562      6565      6568      6565      6568      6571      6572
      6565      6568      6571      6573      6565      6568      6571      6574
      6566      6565      6568      6569      6566      6565      6568      6570
      6566      6565      6568      6571      6567      6565      6568      6569
      6567      6565      6568      6570      6567      6565      6568      6571
      6568      6571      6574      6575      6568      6571      6574      6576
      6568      6571      6574      6577      6569      6568      6571      6572
      6569      6568      6571      6573      6569      6568      6571      6574
      6570      6568      6571      6572      6570      6568      6571      6573
      6570      6568      6571      6574      6571      6574      6577      6578
      6571      6574      6577      6579      6571      6574      6577      6580
      6572      6571      6574      6575      6572      6571      6574      6576
      6572      6571      6574      6577      6573      6571      6574      6575
      6573      6571      6574      6576      6573      6571      6574      6577
      6574      6577      6580      6581      6574      6577      6580      6582
      6574      6577      6580      6583      6575      6574      6577      6578
      6575      6574      6577      6579      6575      6574      6577      6580
      6576      6574      6577      6578      6576      6574      6577      6579
      6576      6574      6577      6580      6577      6580      6583      6584
      6577      6580      6583      6585      6577      6580      6583      6586
      6578      6577      6580      6581      6578      6577      6580      6582
      6578      6577      6580      6583      6579      6577      6580      6581
      6579      6577      6580      6582      6579      6577      6580      6583
      6580      6583      6586      6587      6580      6583      6586      6588
      6580      6583      6586      6589      6581      6580      6583      6584
      6581      6580      6583      6585      6581      6580      6583      6586
      6582      6580      6583      6584      6582      6580      6583      6585
      6582      6580      6583      6586      6583      6586      6589      6590
      6583      6586      6589      6591      6583      6586      6589      6592
      6584      6583      6586      6587      6584      6583      6586      6588
      6584      6583      6586      6589      6585      6583      6586      6587
      6585      6583      6586      6588      6585      6583      6586      6589
      6586      6589      6592      6593      6586      6589      6592      6594
      6586      6589      6592      6595      6587      6586      6589      6590
      6587      6586      6589      6591      6587      6586      6589      6592
      6588      6586      6589      6590      6588      6586      6589      6591
      6588      6586      6589      6592      6589      6592      6595      6596
      6589      6592      6595      6597      6589      6592      6595      6598
      6590      6589      6592      6593      6590      6589      6592      6594
      6590      6589      6592      6595      6591      6589      6592      6593
      6591      6589      6592      6594      6591      6589      6592      6595
      6592      6595      6598      6599      6592      6595      6598      6600
      6592      6595      6598      6601      6593      6592      6595      6596
      6593      6592      6595      6597      6593      6592      6595      6598
      6594      6592      6595      6596      6594      6592      6595      6597
      6594      6592      6595      6598      6596      6595      6598      6599
      6596      6595      6598      6600      6596      6595      6598      6601
      6597      6595      6598      6599      6597      6595      6598      6600
      6597      6595      6598      6601      6602      6607      6609      6610
      6602      6607      6611      6612      6602      6607      6611      6613
      6602      6607      6611      6618      6603      6602      6605      6606
      6603      6602      6607      6608      6603      6602      6607      6609
      6603      6602      6607      6611      6604      6602      6605      6606
      6604      6602      6607      6608      6604      6602      6607      6609
      6604      6602      6607      6611      6605      6602      6607      6608
      6605      6602      6607      6609      6605      6602      6607      6611
      6606      6605      6602      6607      6607      6611      6618      6614
      6608      6607      6609      6610      6608      6607      6611      6612
      6608      6607      6611      6613      6608      6607      6611      6618
      6609      6607      6611      6612      6609      6607      6611      6613
      6609      6607      6611      6618      6610      6609      6607      6611
      6611      6618      6614      6615      6611      6618      6614      6616
      6611      6618      6614      6617      6612      6611      6618      6614
      6613      6611      6618      6614      6614      6617      6619      6620
      6614      6617      6619      6621      6614      6617      6619      6622
      6615      6614      6617      6619      6616      6614      6617      6619
      6617      6619      6622      6623      6617      6619      6622      6624
      6617      6619      6622      6630      6618      6614      6617      6619
      6619      6622      6624      6625      6619      6622      6630      6631
      6619      6622      6630      6632      6619      6622      6630      6633
      6620      6619      6622      6623      6620      6619      6622      6624
      6620      6619      6622      6630      6621      6619      6622      6623
      6621      6619      6622      6624      6621      6619      6622      6630
      6622      6624      6625      6626      6622      6624      6625      6627
      6622      6630      6633      6634      6623      6622      6624      6625
      6623      6622      6630      6631      6623      6622      6630      6632
      6623      6622      6630      6633      6624      6622      6630      6631
      6624      6622      6630      6632      6624      6622      6630      6633
      6624      6625      6627      6628      6624      6625      6627      6629
      6624      6625      6627      6639      6625      6624      6622      6630
      6625      6627      6639      6640      6625      6627      6639      6641
      6625      6627      6639      6642      6626      6625      6627      6628
      6626      6625      6627      6629      6626      6625      6627      6639
      6627      6639      6642      6643      6627      6639      6642      6644
      6627      6639      6642      6645      6628      6627      6639      6640
      6628      6627      6639      6641      6628      6627      6639      6642
      6629      6627      6639      6640      6629      6627      6639      6641
      6629      6627      6639      6642      6630      6633      6634      6635
      6630      6633      6634      6636      6631      6630      6633      6634
      6632      6630      6633      6634      6633      6634      6636      6637
      6633      6634      6636      6638      6633      6634      6636      6683
      6634      6636      6683      6684      6634      6636      6683      6685
      6634      6636      6683      6686      6635      6634      6636      6637
      6635      6634      6636      6638      6635      6634      6636      6683
      6636      6683      6686      6687      6636      6683      6686      6688
      6636      6683      6686      6689      6637      6636      6683      6684
      6637      6636      6683      6685      6637      6636      6683      6686
      6638      6636      6683      6684      6638      6636      6683      6685
      6638      6636      6683      6686      6639      6642      6645      6646
      6639      6642      6645      6647      6639      6642      6645      6648
      6640      6639      6642      6643      6640      6639      6642      6644
      6640      6639      6642      6645      6641      6639      6642      6643
      6641      6639      6642      6644      6641      6639      6642      6645
      6642      6645      6648      6649      6642      6645      6648      6650
      6642      6645      6648      6651      6643      6642      6645      6646
      6643      6642      6645      6647      6643      6642      6645      6648
      6644      6642      6645      6646      6644      6642      6645      6647
      6644      6642      6645      6648      6645      6648      6651      6652
      6645      6648      6651      6653      6645      6648      6651      6654
      6646      6645      6648      6649      6646      6645      6648      6650
      6646      6645      6648      6651      6647      6645      6648      6649
      6647      6645      6648      6650      6647      6645      6648      6651
      6648      6651      6654      6655      6648      6651      6654      6656
      6648      6651      6654      6657      6649      6648      6651      6652
      6649      6648      6651      6653      6649      6648      6651      6654
      6650      6648      6651      6652      6650      6648      6651      6653
      6650      6648      6651      6654      6651      6654      6657      6658
      6651      6654      6657      6659      6651      6654      6657      6662
      6652      6651      6654      6655      6652      6651      6654      6656
      6652      6651      6654      6657      6653      6651      6654      6655
      6653      6651      6654      6656      6653      6651      6654      6657
      6654      6657      6659      6660      6654      6657      6659      6661
      6654      6657      6659      6662      6654      6657      6662      6659
      6654      6657      6662      6663      6654      6657      6662      6664
      6655      6654      6657      6658      6655      6654      6657      6659
      6655      6654      6657      6662      6656      6654      6657      6658
      6656      6654      6657      6659      6656      6654      6657      6662
      6657      6659      6662      6663      6657      6659      6662      6664
      6657      6662      6659      6660      6657      6662      6659      6661
      6657      6662      6664      6665      6657      6662      6664      6666
      6657      6662      6664      6667      6658      6657      6659      6660
      6658      6657      6659      6661      6658      6657      6659      6662
      6658      6657      6662      6659      6658      6657      6662      6663
      6658      6657      6662      6664      6659      6657      6662      6663
      6659      6657      6662      6664      6659      6662      6664      6665
      6659      6662      6664      6666      6659      6662      6664      6667
      6660      6659      6657      6662      6660      6659      6662      6663
      6660      6659      6662      6664      6661      6659      6657      6662
      6661      6659      6662      6663      6661      6659      6662      6664
      6662      6664      6667      6668      6662      6664      6667      6669
      6662      6664      6667      6670      6663      6662      6664      6665
      6663      6662      6664      6666      6663      6662      6664      6667
      6664      6667      6670      6671      6664      6667      6670      6672
      6664      6667      6670      6673      6665      6664      6667      6668
      6665      6664      6667      6669      6665      6664      6667      6670
      6666      6664      6667      6668      6666      6664      6667      6669
      6666      6664      6667      6670      6667      6670      6673      6674
      6667      6670      6673      6675      6667      6670      6673      6676
      6668      6667      6670      6671      6668      6667      6670      6672
      6668      6667      6670      6673      6669      6667      6670      6671
      6669      6667      6670      6672      6669      6667      6670      6673
      6670      6673      6676      6677      6670      6673      6676      6678
      6670      6673      6676      6679      6671      6670      6673      6674
      6671      6670      6673      6675      6671      6670      6673      6676
      6672      6670      6673      6674      6672      6670      6673      6675
      6672      6670      6673      6676      6673      6676      6679      6680
      6673      6676      6679      6681      6673      6676      6679      6682
      6674      6673      6676      6677      6674      6673      6676      6678
      6674      6673      6676      6679      6675      6673      6676      6677
      6675      6673      6676      6678      6675      6673      6676      6679
      6677      6676      6679      6680      6677      6676      6679      6681
      6677      6676      6679      6682      6678      6676      6679      6680
      6678      6676      6679      6681      6678      6676      6679      6682
      6683      6686      6689      6690      6683      6686      6689      6691
      6683      6686      6689      6692      6684      6683      6686      6687
      6684      6683      6686      6688      6684      6683      6686      6689
      6685      6683      6686      6687      6685      6683      6686      6688
      6685      6683      6686      6689      6686      6689      6692      6693
      6686      6689      6692      6694      6686      6689      6692      6695
      6687      6686      6689      6690      6687      6686      6689      6691
      6687      6686      6689      6692      6688      6686      6689      6690
      6688      6686      6689      6691      6688      6686      6689      6692
      6689      6692      6695      6696      6689      6692      6695      6697
      6689      6692      6695      6698      6690      6689      6692      6693
      6690      6689      6692      6694      6690      6689      6692      6695
      6691      6689      6692      6693      6691      6689      6692      6694
      6691      6689      6692      6695      6692      6695      6698      6699
      6692      6695      6698      6700      6692      6695      6698      6701
      6693      6692      6695      6696      6693      6692      6695      6697
      6693      6692      6695      6698      6694      6692      6695      6696
      6694      6692      6695      6697      6694      6692      6695      6698
      6695      6698      6701      6702      6695      6698      6701      6703
      6695      6698      6701      6704      6696      6695      6698      6699
      6696      6695      6698      6700      6696      6695      6698      6701
      6697      6695      6698      6699      6697      6695      6698      6700
      6697      6695      6698      6701      6698      6701      6704      6705
      6698      6701      6704      6706      6698      6701      6704      6707
      6699      6698      6701      6702      6699      6698      6701      6703
      6699      6698      6701      6704      6700      6698      6701      6702
      6700      6698      6701      6703      6700      6698      6701      6704
      6701      6704      6707      6708      6701      6704      6707      6709
      6701      6704      6707      6710      6702      6701      6704      6705
      6702      6701      6704      6706      6702      6701      6704      6707
      6703      6701      6704      6705      6703      6701      6704      6706
      6703      6701      6704      6707      6704      6707      6710      6711
      6704      6707      6710      6712      6704      6707      6710      6713
      6705      6704      6707      6708      6705      6704      6707      6709
      6705      6704      6707      6710      6706      6704      6707      6708
      6706      6704      6707      6709      6706      6704      6707      6710
      6707      6710      6713      6714      6707      6710      6713      6715
      6707      6710      6713      6716      6708      6707      6710      6711
      6708      6707      6710      6712      6708      6707      6710      6713
      6709      6707      6710      6711      6709      6707      6710      6712
      6709      6707      6710      6713      6710      6713      6716      6717
      6710      6713      6716      6718      6710      6713      6716      6719
      6711      6710      6713      6714      6711      6710      6713      6715
      6711      6710      6713      6716      6712      6710      6713      6714
      6712      6710      6713      6715      6712      6710      6713      6716
      6713      6716      6719      6720      6713      6716      6719      6721
      6713      6716      6719      6722      6714      6713      6716      6717
      6714      6713      6716      6718      6714      6713      6716      6719
      6715      6713      6716      6717      6715      6713      6716      6718
      6715      6713      6716      6719      6716      6719      6722      6723
      6716      6719      6722      6724      6716      6719      6722      6725
      6717      6716      6719      6720      6717      6716      6719      6721
      6717      6716      6719      6722      6718      6716      6719      6720
      6718      6716      6719      6721      6718      6716      6719      6722
      6720      6719      6722      6723      6720      6719      6722      6724
      6720      6719      6722      6725      6721      6719      6722      6723
      6721      6719      6722      6724      6721      6719      6722      6725
      6726      6730      6733      6734      6726      6730      6733      6735
      6726      6730      6733      6740      6727      6726      6730      6731
      6727      6726      6730      6732      6727      6726      6730      6733
      6728      6726      6730      6731      6728      6726      6730      6732
      6728      6726      6730      6733      6729      6726      6730      6731
      6729      6726      6730      6732      6729      6726      6730      6733
      6730      6733      6740      6736      6731      6730      6733      6734
      6731      6730      6733      6735      6731      6730      6733      6740
      6732      6730      6733      6734      6732      6730      6733      6735
      6732      6730      6733      6740      6733      6740      6736      6737
      6733      6740      6736      6738      6733      6740      6736      6739
      6734      6733      6740      6736      6735      6733      6740      6736
      6736      6739      6741      6742      6736      6739      6741      6743
      6736      6739      6741      6744      6737      6736      6739      6741
      6738      6736      6739      6741      6739      6741      6744      6745
      6739      6741      6744      6746      6739      6741      6744      6752
      6740      6736      6739      6741      6741      6744      6746      6747
      6741      6744      6752      6753      6741      6744      6752      6754
      6741      6744      6752      6755      6742      6741      6744      6745
      6742      6741      6744      6746      6742      6741      6744      6752
      6743      6741      6744      6745      6743      6741      6744      6746
      6743      6741      6744      6752      6744      6746      6747      6748
      6744      6746      6747      6749      6744      6752      6755      6756
      6745      6744      6746      6747      6745      6744      6752      6753
      6745      6744      6752      6754      6745      6744      6752      6755
      6746      6744      6752      6753      6746      6744      6752      6754
      6746      6744      6752      6755      6746      6747      6749      6750
      6746      6747      6749      6751      6746      6747      6749      6761
      6747      6746      6744      6752      6747      6749      6761      6762
      6747      6749      6761      6763      6747      6749      6761      6764
      6748      6747      6749      6750      6748      6747      6749      6751
      6748      6747      6749      6761      6749      6761      6764      6765
      6749      6761      6764      6766      6749      6761      6764      6767
      6750      6749      6761      6762      6750      6749      6761      6763
      6750      6749      6761      6764      6751      6749      6761      6762
      6751      6749      6761      6763      6751      6749      6761      6764
      6752      6755      6756      6757      6752      6755      6756      6758
      6753      6752      6755      6756      6754      6752      6755      6756
      6755      6756      6758      6759      6755      6756      6758      6760
      6755      6756      6758      6805      6756      6758      6805      6806
      6756      6758      6805      6807      6756      6758      6805      6808
      6757      6756      6758      6759      6757      6756      6758      6760
      6757      6756      6758      6805      6758      6805      6808      6809
      6758      6805      6808      6810      6758      6805      6808      6811
      6759      6758      6805      6806      6759      6758      6805      6807
      6759      6758      6805      6808      6760      6758      6805      6806
      6760      6758      6805      6807      6760      6758      6805      6808
      6761      6764      6767      6768      6761      6764      6767      6769
      6761      6764      6767      6770      6762      6761      6764      6765
      6762      6761      6764      6766      6762      6761      6764      6767
      6763      6761      6764      6765      6763      6761      6764      6766
      6763      6761      6764      6767      6764      6767      6770      6771
      6764      6767      6770      6772      6764      6767      6770      6773
      6765      6764      6767      6768      6765      6764      6767      6769
      6765      6764      6767      6770      6766      6764      6767      6768
      6766      6764      6767      6769      6766      6764      6767      6770
      6767      6770      6773      6774      6767      6770      6773      6775
      6767      6770      6773      6776      6768      6767      6770      6771
      6768      6767      6770      6772      6768      6767      6770      6773
      6769      6767      6770      6771      6769      6767      6770      6772
      6769      6767      6770      6773      6770      6773      6776      6777
      6770      6773      6776      6778      6770      6773      6776      6779
      6771      6770      6773      6774      6771      6770      6773      6775
      6771      6770      6773      6776      6772      6770      6773      6774
      6772      6770      6773      6775      6772      6770      6773      6776
      6773      6776      6779      6780      6773      6776      6779      6781
      6773      6776      6779      6784      6774      6773      6776      6777
      6774      6773      6776      6778      6774      6773      6776      6779
      6775      6773      6776      6777      6775      6773      6776      6778
      6775      6773      6776      6779      6776      6779      6781      6782
      6776      6779      6781      6783      6776      6779      6781      6784
      6776      6779      6784      6781      6776      6779      6784      6785
      6776      6779      6784      6786      6777      6776      6779      6780
      6777      6776      6779      6781      6777      6776      6779      6784
      6778      6776      6779      6780      6778      6776      6779      6781
      6778      6776      6779      6784      6779      6781      6784      6785
      6779      6781      6784      6786      6779      6784      6781      6782
      6779      6784      6781      6783      6779      6784      6786      6787
      6779      6784      6786      6788      6779      6784      6786      6789
      6780      6779      6781      6782      6780      6779      6781      6783
      6780      6779      6781      6784      6780      6779      6784      6781
      6780      6779      6784      6785      6780      6779      6784      6786
      6781      6779      6784      6785      6781      6779      6784      6786
      6781      6784      6786      6787      6781      6784      6786      6788
      6781      6784      6786      6789      6782      6781      6779      6784
      6782      6781      6784      6785      6782      6781      6784      6786
      6783      6781      6779      6784      6783      6781      6784      6785
      6783      6781      6784      6786      6784      6786      6789      6790
      6784      6786      6789      6791      6784      6786      6789      6792
      6785      6784      6786      6787      6785      6784      6786      6788
      6785      6784      6786      6789      6786      6789      6792      6793
      6786      6789      6792      6794      6786      6789      6792      6795
      6787      6786      6789      6790      6787      6786      6789      6791
      6787      6786      6789      6792      6788      6786      6789      6790
      6788      6786      6789      6791      6788      6786      6789      6792
      6789      6792      6795      6796      6789      6792      6795      6797
      6789      6792      6795      6798      6790      6789      6792      6793
      6790      6789      6792      6794      6790      6789      6792      6795
      6791      6789      6792      6793      6791      6789      6792      6794
      6791      6789      6792      6795      6792      6795      6798      6799
      6792      6795      6798      6800      6792      6795      6798      6801
      6793      6792      6795      6796      6793      6792      6795      6797
      6793      6792      6795      6798      6794      6792      6795      6796
      6794      6792      6795      6797      6794      6792      6795      6798
      6795      6798      6801      6802      6795      6798      6801      6803
      6795      6798      6801      6804      6796      6795      6798      6799
      6796      6795      6798      6800      6796      6795      6798      6801
      6797      6795      6798      6799      6797      6795      6798      6800
      6797      6795      6798      6801      6799      6798      6801      6802
      6799      6798      6801      6803      6799      6798      6801      6804
      6800      6798      6801      6802      6800      6798      6801      6803
      6800      6798      6801      6804      6805      6808      6811      6812
      6805      6808      6811      6813      6805      6808      6811      6814
      6806      6805      6808      6809      6806      6805      6808      6810
      6806      6805      6808      6811      6807      6805      6808      6809
      6807      6805      6808      6810      6807      6805      6808      6811
      6808      6811      6814      6815      6808      6811      6814      6816
      6808      6811      6814      6817      6809      6808      6811      6812
      6809      6808      6811      6813      6809      6808      6811      6814
      6810      6808      6811      6812      6810      6808      6811      6813
      6810      6808      6811      6814      6811      6814      6817      6818
      6811      6814      6817      6819      6811      6814      6817      6820
      6812      6811      6814      6815      6812      6811      6814      6816
      6812      6811      6814      6817      6813      6811      6814      6815
      6813      6811      6814      6816      6813      6811      6814      6817
      6814      6817      6820      6821      6814      6817      6820      6822
      6814      6817      6820      6823      6815      6814      6817      6818
      6815      6814      6817      6819      6815      6814      6817      6820
      6816      6814      6817      6818      6816      6814      6817      6819
      6816      6814      6817      6820      6817      6820      6823      6824
      6817      6820      6823      6825      6817      6820      6823      6826
      6818      6817      6820      6821      6818      6817      6820      6822
      6818      6817      6820      6823      6819      6817      6820      6821
      6819      6817      6820      6822      6819      6817      6820      6823
      6820      6823      6826      6827      6820      6823      6826      6828
      6820      6823      6826      6829      6821      6820      6823      6824
      6821      6820      6823      6825      6821      6820      6823      6826
      6822      6820      6823      6824      6822      6820      6823      6825
      6822      6820      6823      6826      6823      6826      6829      6830
      6823      6826      6829      6831      6823      6826      6829      6832
      6824      6823      6826      6827      6824      6823      6826      6828
      6824      6823      6826      6829      6825      6823      6826      6827
      6825      6823      6826      6828      6825      6823      6826      6829
      6826      6829      6832      6833      6826      6829      6832      6834
      6826      6829      6832      6835      6827      6826      6829      6830
      6827      6826      6829      6831      6827      6826      6829      6832
      6828      6826      6829      6830      6828      6826      6829      6831
      6828      6826      6829      6832      6829      6832      6835      6836
      6829      6832      6835      6837      6829      6832      6835      6838
      6830      6829      6832      6833      6830      6829      6832      6834
      6830      6829      6832      6835      6831      6829      6832      6833
      6831      6829      6832      6834      6831      6829      6832      6835
      6832      6835      6838      6839      6832      6835      6838      6840
      6832      6835      6838      6841      6833      6832      6835      6836
      6833      6832      6835      6837      6833      6832      6835      6838
      6834      6832      6835      6836      6834      6832      6835      6837
      6834      6832      6835      6838      6835      6838      6841      6842
      6835      6838      6841      6843      6835      6838      6841      6844
      6836      6835      6838      6839      6836      6835      6838      6840
      6836      6835      6838      6841      6837      6835      6838      6839
      6837      6835      6838      6840      6837      6835      6838      6841
      6839      6838      6841      6842      6839      6838      6841      6843
      6839      6838      6841      6844      6840      6838      6841      6842
      6840      6838      6841      6843      6840      6838      6841      6844
      6845      6849      6852      6853      6845      6849      6852      6854
      6845      6849      6852      6859      6846      6845      6849      6850
      6846      6845      6849      6851      6846      6845      6849      6852
      6847      6845      6849      6850      6847      6845      6849      6851
      6847      6845      6849      6852      6848      6845      6849      6850
      6848      6845      6849      6851      6848      6845      6849      6852
      6849      6852      6859      6855      6850      6849      6852      6853
      6850      6849      6852      6854      6850      6849      6852      6859
      6851      6849      6852      6853      6851      6849      6852      6854
      6851      6849      6852      6859      6852      6859      6855      6856
      6852      6859      6855      6857      6852      6859      6855      6858
      6853      6852      6859      6855      6854      6852      6859      6855
      6855      6858      6860      6861      6855      6858      6860      6862
      6855      6858      6860      6863      6856      6855      6858      6860
      6857      6855      6858      6860      6858      6860      6863      6864
      6858      6860      6863      6865      6858      6860      6863      6871
      6859      6855      6858      6860      6860      6863      6865      6866
      6860      6863      6871      6872      6860      6863      6871      6873
      6860      6863      6871      6874      6861      6860      6863      6864
      6861      6860      6863      6865      6861      6860      6863      6871
      6862      6860      6863      6864      6862      6860      6863      6865
      6862      6860      6863      6871      6863      6865      6866      6867
      6863      6865      6866      6868      6863      6871      6874      6875
      6864      6863      6865      6866      6864      6863      6871      6872
      6864      6863      6871      6873      6864      6863      6871      6874
      6865      6863      6871      6872      6865      6863      6871      6873
      6865      6863      6871      6874      6865      6866      6868      6869
      6865      6866      6868      6870      6865      6866      6868      6880
      6866      6865      6863      6871      6866      6868      6880      6881
      6866      6868      6880      6882      6866      6868      6880      6883
      6867      6866      6868      6869      6867      6866      6868      6870
      6867      6866      6868      6880      6868      6880      6883      6884
      6868      6880      6883      6885      6868      6880      6883      6886
      6869      6868      6880      6881      6869      6868      6880      6882
      6869      6868      6880      6883      6870      6868      6880      6881
      6870      6868      6880      6882      6870      6868      6880      6883
      6871      6874      6875      6876      6871      6874      6875      6877
      6872      6871      6874      6875      6873      6871      6874      6875
      6874      6875      6877      6878      6874      6875      6877      6879
      6874      6875      6877      6924      6875      6877      6924      6925
      6875      6877      6924      6926      6875      6877      6924      6927
      6876      6875      6877      6878      6876      6875      6877      6879
      6876      6875      6877      6924      6877      6924      6927      6928
      6877      6924      6927      6929      6877      6924      6927      6930
      6878      6877      6924      6925      6878      6877      6924      6926
      6878      6877      6924      6927      6879      6877      6924      6925
      6879      6877      6924      6926      6879      6877      6924      6927
      6880      6883      6886      6887      6880      6883      6886      6888
      6880      6883      6886      6889      6881      6880      6883      6884
      6881      6880      6883      6885      6881      6880      6883      6886
      6882      6880      6883      6884      6882      6880      6883      6885
      6882      6880      6883      6886      6883      6886      6889      6890
      6883      6886      6889      6891      6883      6886      6889      6892
      6884      6883      6886      6887      6884      6883      6886      6888
      6884      6883      6886      6889      6885      6883      6886      6887
      6885      6883      6886      6888      6885      6883      6886      6889
      6886      6889      6892      6893      6886      6889      6892      6894
      6886      6889      6892      6895      6887      6886      6889      6890
      6887      6886      6889      6891      6887      6886      6889      6892
      6888      6886      6889      6890      6888      6886      6889      6891
      6888      6886      6889      6892      6889      6892      6895      6896
      6889      6892      6895      6897      6889      6892      6895      6898
      6890      6889      6892      6893      6890      6889      6892      6894
      6890      6889      6892      6895      6891      6889      6892      6893
      6891      6889      6892      6894      6891      6889      6892      6895
      6892      6895      6898      6899      6892      6895      6898      6900
      6892      6895      6898      6903      6893      6892      6895      6896
      6893      6892      6895      6897      6893      6892      6895      6898
      6894      6892      6895      6896      6894      6892      6895      6897
      6894      6892      6895      6898      6895      6898      6900      6901
      6895      6898      6900      6902      6895      6898      6900      6903
      6895      6898      6903      6900      6895      6898      6903      6904
      6895      6898      6903      6905      6896      6895      6898      6899
      6896      6895      6898      6900      6896      6895      6898      6903
      6897      6895      6898      6899      6897      6895      6898      6900
      6897      6895      6898      6903      6898      6900      6903      6904
      6898      6900      6903      6905      6898      6903      6900      6901
      6898      6903      6900      6902      6898      6903      6905      6906
      6898      6903      6905      6907      6898      6903      6905      6908
      6899      6898      6900      6901      6899      6898      6900      6902
      6899      6898      6900      6903      6899      6898      6903      6900
      6899      6898      6903      6904      6899      6898      6903      6905
      6900      6898      6903      6904      6900      6898      6903      6905
      6900      6903      6905      6906      6900      6903      6905      6907
      6900      6903      6905      6908      6901      6900      6898      6903
      6901      6900      6903      6904      6901      6900      6903      6905
      6902      6900      6898      6903      6902      6900      6903      6904
      6902      6900      6903      6905      6903      6905      6908      6909
      6903      6905      6908      6910      6903      6905      6908      6911
      6904      6903      6905      6906      6904      6903      6905      6907
      6904      6903      6905      6908      6905      6908      6911      6912
      6905      6908      6911      6913      6905      6908      6911      6914
      6906      6905      6908      6909      6906      6905      6908      6910
      6906      6905      6908      6911      6907      6905      6908      6909
      6907      6905      6908      6910      6907      6905      6908      6911
      6908      6911      6914      6915      6908      6911      6914      6916
      6908      6911      6914      6917      6909      6908      6911      6912
      6909      6908      6911      6913      6909      6908      6911      6914
      6910      6908      6911      6912      6910      6908      6911      6913
      6910      6908      6911      6914      6911      6914      6917      6918
      6911      6914      6917      6919      6911      6914      6917      6920
      6912      6911      6914      6915      6912      6911      6914      6916
      6912      6911      6914      6917      6913      6911      6914      6915
      6913      6911      6914      6916      6913      6911      6914      6917
      6914      6917      6920      6921      6914      6917      6920      6922
      6914      6917      6920      6923      6915      6914      6917      6918
      6915      6914      6917      6919      6915      6914      6917      6920
      6916      6914      6917      6918      6916      6914      6917      6919
      6916      6914      6917      6920      6918      6917      6920      6921
      6918      6917      6920      6922      6918      6917      6920      6923
      6919      6917      6920      6921      6919      6917      6920      6922
      6919      6917      6920      6923      6924      6927      6930      6931
      6924      6927      6930      6932      6924      6927      6930      6933
      6925      6924      6927      6928      6925      6924      6927      6929
      6925      6924      6927      6930      6926      6924      6927      6928
      6926      6924      6927      6929      6926      6924      6927      6930
      6927      6930      6933      6934      6927      6930      6933      6935
      6927      6930      6933      6936      6928      6927      6930      6931
      6928      6927      6930      6932      6928      6927      6930      6933
      6929      6927      6930      6931      6929      6927      6930      6932
      6929      6927      6930      6933      6930      6933      6936      6937
      6930      6933      6936      6938      6930      6933      6936      6939
      6931      6930      6933      6934      6931      6930      6933      6935
      6931      6930      6933      6936      6932      6930      6933      6934
      6932      6930      6933      6935      6932      6930      6933      6936
      6933      6936      6939      6940      6933      6936      6939      6941
      6933      6936      6939      6942      6934      6933      6936      6937
      6934      6933      6936      6938      6934      6933      6936      6939
      6935      6933      6936      6937      6935      6933      6936      6938
      6935      6933      6936      6939      6936      6939      6942      6943
      6936      6939      6942      6944      6936      6939      6942      6945
      6937      6936      6939      6940      6937      6936      6939      6941
      6937      6936      6939      6942      6938      6936      6939      6940
      6938      6936      6939      6941      6938      6936      6939      6942
      6939      6942      6945      6946      6939      6942      6945      6947
      6939      6942      6945      6948      6940      6939      6942      6943
      6940      6939      6942      6944      6940      6939      6942      6945
      6941      6939      6942      6943      6941      6939      6942      6944
      6941      6939      6942      6945      6942      6945      6948      6949
      6942      6945      6948      6950      6942      6945      6948      6951
      6943      6942      6945      6946      6943      6942      6945      6947
      6943      6942      6945      6948      6944      6942      6945      6946
      6944      6942      6945      6947      6944      6942      6945      6948
      6945      6948      6951      6952      6945      6948      6951      6953
      6945      6948      6951      6954      6946      6945      6948      6949
      6946      6945      6948      6950      6946      6945      6948      6951
      6947      6945      6948      6949      6947      6945      6948      6950
      6947      6945      6948      6951      6948      6951      6954      6955
      6948      6951      6954      6956      6948      6951      6954      6957
      6949      6948      6951      6952      6949      6948      6951      6953
      6949      6948      6951      6954      6950      6948      6951      6952
      6950      6948      6951      6953      6950      6948      6951      6954
      6951      6954      6957      6958      6951      6954      6957      6959
      6951      6954      6957      6960      6952      6951      6954      6955
      6952      6951      6954      6956      6952      6951      6954      6957
      6953      6951      6954      6955      6953      6951      6954      6956
      6953      6951      6954      6957      6954      6957      6960      6961
      6954      6957      6960      6962      6954      6957      6960      6963
      6955      6954      6957      6958      6955      6954      6957      6959
      6955      6954      6957      6960      6956      6954      6957      6958
      6956      6954      6957      6959      6956      6954      6957      6960
      6957      6960      6963      6964      6957      6960      6963      6965
      6957      6960      6963      6966      6958      6957      6960      6961
      6958      6957      6960      6962      6958      6957      6960      6963
      6959      6957      6960      6961      6959      6957      6960      6962
      6959      6957      6960      6963      6961      6960      6963      6964
      6961      6960      6963      6965      6961      6960      6963      6966
      6962      6960      6963      6964      6962      6960      6963      6965
      6962      6960      6963      6966      6967      6971      6974      6975
      6967      6971      6974      6976      6967      6971      6974      6981
      6968      6967      6971      6972      6968      6967      6971      6973
      6968      6967      6971      6974      6969      6967      6971      6972
      6969      6967      6971      6973      6969      6967      6971      6974
      6970      6967      6971      6972      6970      6967      6971      6973
      6970      6967      6971      6974      6971      6974      6981      6977
      6972      6971      6974      6975      6972      6971      6974      6976
      6972      6971      6974      6981      6973      6971      6974      6975
      6973      6971      6974      6976      6973      6971      6974      6981
      6974      6981      6977      6978      6974      6981      6977      6979
      6974      6981      6977      6980      6975      6974      6981      6977
      6976      6974      6981      6977      6977      6980      6982      6983
      6977      6980      6982      6984      6977      6980      6982      6985
      6978      6977      6980      6982      6979      6977      6980      6982
      6980      6982      6985      6986      6980      6982      6985      6987
      6980      6982      6985      6993      6981      6977      6980      6982
      6982      6985      6987      6988      6982      6985      6993      6994
      6982      6985      6993      6995      6982      6985      6993      6996
      6983      6982      6985      6986      6983      6982      6985      6987
      6983      6982      6985      6993      6984      6982      6985      6986
      6984      6982      6985      6987      6984      6982      6985      6993
      6985      6987      6988      6989      6985      6987      6988      6990
      6985      6993      6996      6997      6986      6985      6987      6988
      6986      6985      6993      6994      6986      6985      6993      6995
      6986      6985      6993      6996      6987      6985      6993      6994
      6987      6985      6993      6995      6987      6985      6993      6996
      6987      6988      6990      6991      6987      6988      6990      6992
      6987      6988      6990      7002      6988      6987      6985      6993
      6988      6990      7002      7003      6988      6990      7002      7004
      6988      6990      7002      7005      6989      6988      6990      6991
      6989      6988      6990      6992      6989      6988      6990      7002
      6990      7002      7005      7006      6990      7002      7005      7007
      6990      7002      7005      7008      6991      6990      7002      7003
      6991      6990      7002      7004      6991      6990      7002      7005
      6992      6990      7002      7003      6992      6990      7002      7004
      6992      6990      7002      7005      6993      6996      6997      6998
      6993      6996      6997      6999      6994      6993      6996      6997
      6995      6993      6996      6997      6996      6997      6999      7000
      6996      6997      6999      7001      6996      6997      6999      7046
      6997      6999      7046      7047      6997      6999      7046      7048
      6997      6999      7046      7049      6998      6997      6999      7000
      6998      6997      6999      7001      6998      6997      6999      7046
      6999      7046      7049      7050      6999      7046      7049      7051
      6999      7046      7049      7052      7000      6999      7046      7047
      7000      6999      7046      7048      7000      6999      7046      7049
      7001      6999      7046      7047      7001      6999      7046      7048
      7001      6999      7046      7049      7002      7005      7008      7009
      7002      7005      7008      7010      7002      7005      7008      7011
      7003      7002      7005      7006      7003      7002      7005      7007
      7003      7002      7005      7008      7004      7002      7005      7006
      7004      7002      7005      7007      7004      7002      7005      7008
      7005      7008      7011      7012      7005      7008      7011      7013
      7005      7008      7011      7014      7006      7005      7008      7009
      7006      7005      7008      7010      7006      7005      7008      7011
      7007      7005      7008      7009      7007      7005      7008      7010
      7007      7005      7008      7011      7008      7011      7014      7015
      7008      7011      7014      7016      7008      7011      7014      7017
      7009      7008      7011      7012      7009      7008      7011      7013
      7009      7008      7011      7014      7010      7008      7011      7012
      7010      7008      7011      7013      7010      7008      7011      7014
      7011      7014      7017      7018      7011      7014      7017      7019
      7011      7014      7017      7020      7012      7011      7014      7015
      7012      7011      7014      7016      7012      7011      7014      7017
      7013      7011      7014      7015      7013      7011      7014      7016
      7013      7011      7014      7017      7014      7017      7020      7021
      7014      7017      7020      7022      7014      7017      7020      7025
      7015      7014      7017      7018      7015      7014      7017      7019
      7015      7014      7017      7020      7016      7014      7017      7018
      7016      7014      7017      7019      7016      7014      7017      7020
      7017      7020      7022      7023      7017      7020      7022      7024
      7017      7020      7022      7025      7017      7020      7025      7022
      7017      7020      7025      7026      7017      7020      7025      7027
      7018      7017      7020      7021      7018      7017      7020      7022
      7018      7017      7020      7025      7019      7017      7020      7021
      7019      7017      7020      7022      7019      7017      7020      7025
      7020      7022      7025      7026      7020      7022      7025      7027
      7020      7025      7022      7023      7020      7025      7022      7024
      7020      7025      7027      7028      7020      7025      7027      7029
      7020      7025      7027      7030      7021      7020      7022      7023
      7021      7020      7022      7024      7021      7020      7022      7025
      7021      7020      7025      7022      7021      7020      7025      7026
      7021      7020      7025      7027      7022      7020      7025      7026
      7022      7020      7025      7027      7022      7025      7027      7028
      7022      7025      7027      7029      7022      7025      7027      7030
      7023      7022      7020      7025      7023      7022      7025      7026
      7023      7022      7025      7027      7024      7022      7020      7025
      7024      7022      7025      7026      7024      7022      7025      7027
      7025      7027      7030      7031      7025      7027      7030      7032
      7025      7027      7030      7033      7026      7025      7027      7028
      7026      7025      7027      7029      7026      7025      7027      7030
      7027      7030      7033      7034      7027      7030      7033      7035
      7027      7030      7033      7036      7028      7027      7030      7031
      7028      7027      7030      7032      7028      7027      7030      7033
      7029      7027      7030      7031      7029      7027      7030      7032
      7029      7027      7030      7033      7030      7033      7036      7037
      7030      7033      7036      7038      7030      7033      7036      7039
      7031      7030      7033      7034      7031      7030      7033      7035
      7031      7030      7033      7036      7032      7030      7033      7034
      7032      7030      7033      7035      7032      7030      7033      7036
      7033      7036      7039      7040      7033      7036      7039      7041
      7033      7036      7039      7042      7034      7033      7036      7037
      7034      7033      7036      7038      7034      7033      7036      7039
      7035      7033      7036      7037      7035      7033      7036      7038
      7035      7033      7036      7039      7036      7039      7042      7043
      7036      7039      7042      7044      7036      7039      7042      7045
      7037      7036      7039      7040      7037      7036      7039      7041
      7037      7036      7039      7042      7038      7036      7039      7040
      7038      7036      7039      7041      7038      7036      7039      7042
      7040      7039      7042      7043      7040      7039      7042      7044
      7040      7039      7042      7045      7041      7039      7042      7043
      7041      7039      7042      7044      7041      7039      7042      7045
      7046      7049      7052      7053      7046      7049      7052      7054
      7046      7049      7052      7055      7047      7046      7049      7050
      7047      7046      7049      7051      7047      7046      7049      7052
      7048      7046      7049      7050      7048      7046      7049      7051
      7048      7046      7049      7052      7049      7052      7055      7056
      7049      7052      7055      7057      7049      7052      7055      7058
      7050      7049      7052      7053      7050      7049      7052      7054
      7050      7049      7052      7055      7051      7049      7052      7053
      7051      7049      7052      7054      7051      7049      7052      7055
      7052      7055      7058      7059      7052      7055      7058      7060
      7052      7055      7058      7061      7053      7052      7055      7056
      7053      7052      7055      7057      7053      7052      7055      7058
      7054      7052      7055      7056      7054      7052      7055      7057
      7054      7052      7055      7058      7055      7058      7061      7062
      7055      7058      7061      7063      7055      7058      7061      7064
      7056      7055      7058      7059      7056      7055      7058      7060
      7056      7055      7058      7061      7057      7055      7058      7059
      7057      7055      7058      7060      7057      7055      7058      7061
      7058      7061      7064      7065      7058      7061      7064      7066
      7058      7061      7064      7067      7059      7058      7061      7062
      7059      7058      7061      7063      7059      7058      7061      7064
      7060      7058      7061      7062      7060      7058      7061      7063
      7060      7058      7061      7064      7061      7064      7067      7068
      7061      7064      7067      7069      7061      7064      7067      7070
      7062      7061      7064      7065      7062      7061      7064      7066
      7062      7061      7064      7067      7063      7061      7064      7065
      7063      7061      7064      7066      7063      7061      7064      7067
      7064      7067      7070      7071      7064      7067      7070      7072
      7064      7067      7070      7073      7065      7064      7067      7068
      7065      7064      7067      7069      7065      7064      7067      7070
      7066      7064      7067      7068      7066      7064      7067      7069
      7066      7064      7067      7070      7067      7070      7073      7074
      7067      7070      7073      7075      7067      7070      7073      7076
      7068      7067      7070      7071      7068      7067      7070      7072
      7068      7067      7070      7073      7069      7067      7070      7071
      7069      7067      7070      7072      7069      7067      7070      7073
      7070      7073      7076      7077      7070      7073      7076      7078
      7070      7073      7076      7079      7071      7070      7073      7074
      7071      7070      7073      7075      7071      7070      7073      7076
      7072      7070      7073      7074      7072      7070      7073      7075
      7072      7070      7073      7076      7073      7076      7079      7080
      7073      7076      7079      7081      7073      7076      7079      7082
      7074      7073      7076      7077      7074      7073      7076      7078
      7074      7073      7076      7079      7075      7073      7076      7077
      7075      7073      7076      7078      7075      7073      7076      7079
      7076      7079      7082      7083      7076      7079      7082      7084
      7076      7079      7082      7085      7077      7076      7079      7080
      7077      7076      7079      7081      7077      7076      7079      7082
      7078      7076      7079      7080      7078      7076      7079      7081
      7078      7076      7079      7082      7079      7082      7085      7086
      7079      7082      7085      7087      7079      7082      7085      7088
      7080      7079      7082      7083      7080      7079      7082      7084
      7080      7079      7082      7085      7081      7079      7082      7083
      7081      7079      7082      7084      7081      7079      7082      7085
      7083      7082      7085      7086      7083      7082      7085      7087
      7083      7082      7085      7088      7084      7082      7085      7086
      7084      7082      7085      7087      7084      7082      7085      7088
      7089      7093      7096      7097      7089      7093      7096      7098
      7089      7093      7096      7103      7090      7089      7093      7094
      7090      7089      7093      7095      7090      7089      7093      7096
      7091      7089      7093      7094      7091      7089      7093      7095
      7091      7089      7093      7096      7092      7089      7093      7094
      7092      7089      7093      7095      7092      7089      7093      7096
      7093      7096      7103      7099      7094      7093      7096      7097
      7094      7093      7096      7098      7094      7093      7096      7103
      7095      7093      7096      7097      7095      7093      7096      7098
      7095      7093      7096      7103      7096      7103      7099      7100
      7096      7103      7099      7101      7096      7103      7099      7102
      7097      7096      7103      7099      7098      7096      7103      7099
      7099      7102      7104      7105      7099      7102      7104      7106
      7099      7102      7104      7107      7100      7099      7102      7104
      7101      7099      7102      7104      7102      7104      7107      7108
      7102      7104      7107      7109      7102      7104      7107      7115
      7103      7099      7102      7104      7104      7107      7109      7110
      7104      7107      7115      7116      7104      7107      7115      7117
      7104      7107      7115      7118      7105      7104      7107      7108
      7105      7104      7107      7109      7105      7104      7107      7115
      7106      7104      7107      7108      7106      7104      7107      7109
      7106      7104      7107      7115      7107      7109      7110      7111
      7107      7109      7110      7112      7107      7115      7118      7119
      7108      7107      7109      7110      7108      7107      7115      7116
      7108      7107      7115      7117      7108      7107      7115      7118
      7109      7107      7115      7116      7109      7107      7115      7117
      7109      7107      7115      7118      7109      7110      7112      7113
      7109      7110      7112      7114      7109      7110      7112      7124
      7110      7109      7107      7115      7110      7112      7124      7125
      7110      7112      7124      7126      7110      7112      7124      7127
      7111      7110      7112      7113      7111      7110      7112      7114
      7111      7110      7112      7124      7112      7124      7127      7128
      7112      7124      7127      7129      7112      7124      7127      7130
      7113      7112      7124      7125      7113      7112      7124      7126
      7113      7112      7124      7127      7114      7112      7124      7125
      7114      7112      7124      7126      7114      7112      7124      7127
      7115      7118      7119      7120      7115      7118      7119      7121
      7116      7115      7118      7119      7117      7115      7118      7119
      7118      7119      7121      7122      7118      7119      7121      7123
      7118      7119      7121      7168      7119      7121      7168      7169
      7119      7121      7168      7170      7119      7121      7168      7171
      7120      7119      7121      7122      7120      7119      7121      7123
      7120      7119      7121      7168      7121      7168      7171      7172
      7121      7168      7171      7173      7121      7168      7171      7174
      7122      7121      7168      7169      7122      7121      7168      7170
      7122      7121      7168      7171      7123      7121      7168      7169
      7123      7121      7168      7170      7123      7121      7168      7171
      7124      7127      7130      7131      7124      7127      7130      7132
      7124      7127      7130      7133      7125      7124      7127      7128
      7125      7124      7127      7129      7125      7124      7127      7130
      7126      7124      7127      7128      7126      7124      7127      7129
      7126      7124      7127      7130      7127      7130      7133      7134
      7127      7130      7133      7135      7127      7130      7133      7136
      7128      7127      7130      7131      7128      7127      7130      7132
      7128      7127      7130      7133      7129      7127      7130      7131
      7129      7127      7130      7132      7129      7127      7130      7133
      7130      7133      7136      7137      7130      7133      7136      7138
      7130      7133      7136      7139      7131      7130      7133      7134
      7131      7130      7133      7135      7131      7130      7133      7136
      7132      7130      7133      7134      7132      7130      7133      7135
      7132      7130      7133      7136      7133      7136      7139      7140
      7133      7136      7139      7141      7133      7136      7139      7142
      7134      7133      7136      7137      7134      7133      7136      7138
      7134      7133      7136      7139      7135      7133      7136      7137
      7135      7133      7136      7138      7135      7133      7136      7139
      7136      7139      7142      7143      7136      7139      7142      7144
      7136      7139      7142      7147      7137      7136      7139      7140
      7137      7136      7139      7141      7137      7136      7139      7142
      7138      7136      7139      7140      7138      7136      7139      7141
      7138      7136      7139      7142      7139      7142      7144      7145
      7139      7142      7144      7146      7139      7142      7144      7147
      7139      7142      7147      7144      7139      7142      7147      7148
      7139      7142      7147      7149      7140      7139      7142      7143
      7140      7139      7142      7144      7140      7139      7142      7147
      7141      7139      7142      7143      7141      7139      7142      7144
      7141      7139      7142      7147      7142      7144      7147      7148
      7142      7144      7147      7149      7142      7147      7144      7145
      7142      7147      7144      7146      7142      7147      7149      7150
      7142      7147      7149      7151      7142      7147      7149      7152
      7143      7142      7144      7145      7143      7142      7144      7146
      7143      7142      7144      7147      7143      7142      7147      7144
      7143      7142      7147      7148      7143      7142      7147      7149
      7144      7142      7147      7148      7144      7142      7147      7149
      7144      7147      7149      7150      7144      7147      7149      7151
      7144      7147      7149      7152      7145      7144      7142      7147
      7145      7144      7147      7148      7145      7144      7147      7149
      7146      7144      7142      7147      7146      7144      7147      7148
      7146      7144      7147      7149      7147      7149      7152      7153
      7147      7149      7152      7154      7147      7149      7152      7155
      7148      7147      7149      7150      7148      7147      7149      7151
      7148      7147      7149      7152      7149      7152      7155      7156
      7149      7152      7155      7157      7149      7152      7155      7158
      7150      7149      7152      7153      7150      7149      7152      7154
      7150      7149      7152      7155      7151      7149      7152      7153
      7151      7149      7152      7154      7151      7149      7152      7155
      7152      7155      7158      7159      7152      7155      7158      7160
      7152      7155      7158      7161      7153      7152      7155      7156
      7153      7152      7155      7157      7153      7152      7155      7158
      7154      7152      7155      7156      7154      7152      7155      7157
      7154      7152      7155      7158      7155      7158      7161      7162
      7155      7158      7161      7163      7155      7158      7161      7164
      7156      7155      7158      7159      7156      7155      7158      7160
      7156      7155      7158      7161      7157      7155      7158      7159
      7157      7155      7158      7160      7157      7155      7158      7161
      7158      7161      7164      7165      7158      7161      7164      7166
      7158      7161      7164      7167      7159      7158      7161      7162
      7159      7158      7161      7163      7159      7158      7161      7164
      7160      7158      7161      7162      7160      7158      7161      7163
      7160      7158      7161      7164      7162      7161      7164      7165
      7162      7161      7164      7166      7162      7161      7164      7167
      7163      7161      7164      7165      7163      7161      7164      7166
      7163      7161      7164      7167      7168      7171      7174      7175
      7168      7171      7174      7176      7168      7171      7174      7177
      7169      7168      7171      7172      7169      7168      7171      7173
      7169      7168      7171      7174      7170      7168      7171      7172
      7170      7168      7171      7173      7170      7168      7171      7174
      7171      7174      7177      7178      7171      7174      7177      7179
      7171      7174      7177      7180      7172      7171      7174      7175
      7172      7171      7174      7176      7172      7171      7174      7177
      7173      7171      7174      7175      7173      7171      7174      7176
      7173      7171      7174      7177      7174      7177      7180      7181
      7174      7177      7180      7182      7174      7177      7180      7183
      7175      7174      7177      7178      7175      7174      7177      7179
      7175      7174      7177      7180      7176      7174      7177      7178
      7176      7174      7177      7179      7176      7174      7177      7180
      7177      7180      7183      7184      7177      7180      7183      7185
      7177      7180      7183      7186      7178      7177      7180      7181
      7178      7177      7180      7182      7178      7177      7180      7183
      7179      7177      7180      7181      7179      7177      7180      7182
      7179      7177      7180      7183      7180      7183      7186      7187
      7180      7183      7186      7188      7180      7183      7186      7189
      7181      7180      7183      7184      7181      7180      7183      7185
      7181      7180      7183      7186      7182      7180      7183      7184
      7182      7180      7183      7185      7182      7180      7183      7186
      7183      7186      7189      7190      7183      7186      7189      7191
      7183      7186      7189      7192      7184      7183      7186      7187
      7184      7183      7186      7188      7184      7183      7186      7189
      7185      7183      7186      7187      7185      7183      7186      7188
      7185      7183      7186      7189      7186      7189      7192      7193
      7186      7189      7192      7194      7186      7189      7192      7195
      7187      7186      7189      7190      7187      7186      7189      7191
      7187      7186      7189      7192      7188      7186      7189      7190
      7188      7186      7189      7191      7188      7186      7189      7192
      7189      7192      7195      7196      7189      7192      7195      7197
      7189      7192      7195      7198      7190      7189      7192      7193
      7190      7189      7192      7194      7190      7189      7192      7195
      7191      7189      7192      7193      7191      7189      7192      7194
      7191      7189      7192      7195      7192      7195      7198      7199
      7192      7195      7198      7200      7192      7195      7198      7201
      7193      7192      7195      7196      7193      7192      7195      7197
      7193      7192      7195      7198      7194      7192      7195      7196
      7194      7192      7195      7197      7194      7192      7195      7198
      7195      7198      7201      7202      7195      7198      7201      7203
      7195      7198      7201      7204      7196      7195      7198      7199
      7196      7195      7198      7200      7196      7195      7198      7201
      7197      7195      7198      7199      7197      7195      7198      7200
      7197      7195      7198      7201      7198      7201      7204      7205
      7198      7201      7204      7206      7198      7201      7204      7207
      7199      7198      7201      7202      7199      7198      7201      7203
      7199      7198      7201      7204      7200      7198      7201      7202
      7200      7198      7201      7203      7200      7198      7201      7204
      7201      7204      7207      7208      7201      7204      7207      7209
      7201      7204      7207      7210      7202      7201      7204      7205
      7202      7201      7204      7206      7202      7201      7204      7207
      7203      7201      7204      7205      7203      7201      7204      7206
      7203      7201      7204      7207      7205      7204      7207      7208
      7205      7204      7207      7209      7205      7204      7207      7210
      7206      7204      7207      7208      7206      7204      7207      7209
      7206      7204      7207      7210      7211      7215      7218      7219
      7211      7215      7218      7220      7211      7215      7218      7225
      7212      7211      7215      7216      7212      7211      7215      7217
      7212      7211      7215      7218      7213      7211      7215      7216
      7213      7211      7215      7217      7213      7211      7215      7218
      7214      7211      7215      7216      7214      7211      7215      7217
      7214      7211      7215      7218      7215      7218      7225      7221
      7216      7215      7218      7219      7216      7215      7218      7220
      7216      7215      7218      7225      7217      7215      7218      7219
      7217      7215      7218      7220      7217      7215      7218      7225
      7218      7225      7221      7222      7218      7225      7221      7223
      7218      7225      7221      7224      7219      7218      7225      7221
      7220      7218      7225      7221      7221      7224      7226      7227
      7221      7224      7226      7228      7221      7224      7226      7229
      7222      7221      7224      7226      7223      7221      7224      7226
      7224      7226      7229      7230      7224      7226      7229      7231
      7224      7226      7229      7237      7225      7221      7224      7226
      7226      7229      7231      7232      7226      7229      7237      7238
      7226      7229      7237      7239      7226      7229      7237      7240
      7227      7226      7229      7230      7227      7226      7229      7231
      7227      7226      7229      7237      7228      7226      7229      7230
      7228      7226      7229      7231      7228      7226      7229      7237
      7229      7231      7232      7233      7229      7231      7232      7234
      7229      7237      7240      7241      7230      7229      7231      7232
      7230      7229      7237      7238      7230      7229      7237      7239
      7230      7229      7237      7240      7231      7229      7237      7238
      7231      7229      7237      7239      7231      7229      7237      7240
      7231      7232      7234      7235      7231      7232      7234      7236
      7231      7232      7234      7246      7232      7231      7229      7237
      7232      7234      7246      7247      7232      7234      7246      7248
      7232      7234      7246      7249      7233      7232      7234      7235
      7233      7232      7234      7236      7233      7232      7234      7246
      7234      7246      7249      7250      7234      7246      7249      7251
      7234      7246      7249      7252      7235      7234      7246      7247
      7235      7234      7246      7248      7235      7234      7246      7249
      7236      7234      7246      7247      7236      7234      7246      7248
      7236      7234      7246      7249      7237      7240      7241      7242
      7237      7240      7241      7243      7238      7237      7240      7241
      7239      7237      7240      7241      7240      7241      7243      7244
      7240      7241      7243      7245      7240      7241      7243      7290
      7241      7243      7290      7291      7241      7243      7290      7292
      7241      7243      7290      7293      7242      7241      7243      7244
      7242      7241      7243      7245      7242      7241      7243      7290
      7243      7290      7293      7294      7243      7290      7293      7295
      7243      7290      7293      7296      7244      7243      7290      7291
      7244      7243      7290      7292      7244      7243      7290      7293
      7245      7243      7290      7291      7245      7243      7290      7292
      7245      7243      7290      7293      7246      7249      7252      7253
      7246      7249      7252      7254      7246      7249      7252      7255
      7247      7246      7249      7250      7247      7246      7249      7251
      7247      7246      7249      7252      7248      7246      7249      7250
      7248      7246      7249      7251      7248      7246      7249      7252
      7249      7252      7255      7256      7249      7252      7255      7257
      7249      7252      7255      7258      7250      7249      7252      7253
      7250      7249      7252      7254      7250      7249      7252      7255
      7251      7249      7252      7253      7251      7249      7252      7254
      7251      7249      7252      7255      7252      7255      7258      7259
      7252      7255      7258      7260      7252      7255      7258      7261
      7253      7252      7255      7256      7253      7252      7255      7257
      7253      7252      7255      7258      7254      7252      7255      7256
      7254      7252      7255      7257      7254      7252      7255      7258
      7255      7258      7261      7262      7255      7258      7261      7263
      7255      7258      7261      7264      7256      7255      7258      7259
      7256      7255      7258      7260      7256      7255      7258      7261
      7257      7255      7258      7259      7257      7255      7258      7260
      7257      7255      7258      7261      7258      7261      7264      7265
      7258      7261      7264      7266      7258      7261      7264      7269
      7259      7258      7261      7262      7259      7258      7261      7263
      7259      7258      7261      7264      7260      7258      7261      7262
      7260      7258      7261      7263      7260      7258      7261      7264
      7261      7264      7266      7267      7261      7264      7266      7268
      7261      7264      7266      7269      7261      7264      7269      7266
      7261      7264      7269      7270      7261      7264      7269      7271
      7262      7261      7264      7265      7262      7261      7264      7266
      7262      7261      7264      7269      7263      7261      7264      7265
      7263      7261      7264      7266      7263      7261      7264      7269
      7264      7266      7269      7270      7264      7266      7269      7271
      7264      7269      7266      7267      7264      7269      7266      7268
      7264      7269      7271      7272      7264      7269      7271      7273
      7264      7269      7271      7274      7265      7264      7266      7267
      7265      7264      7266      7268      7265      7264      7266      7269
      7265      7264      7269      7266      7265      7264      7269      7270
      7265      7264      7269      7271      7266      7264      7269      7270
      7266      7264      7269      7271      7266      7269      7271      7272
      7266      7269      7271      7273      7266      7269      7271      7274
      7267      7266      7264      7269      7267      7266      7269      7270
      7267      7266      7269      7271      7268      7266      7264      7269
      7268      7266      7269      7270      7268      7266      7269      7271
      7269      7271      7274      7275      7269      7271      7274      7276
      7269      7271      7274      7277      7270      7269      7271      7272
      7270      7269      7271      7273      7270      7269      7271      7274
      7271      7274      7277      7278      7271      7274      7277      7279
      7271      7274      7277      7280      7272      7271      7274      7275
      7272      7271      7274      7276      7272      7271      7274      7277
      7273      7271      7274      7275      7273      7271      7274      7276
      7273      7271      7274      7277      7274      7277      7280      7281
      7274      7277      7280      7282      7274      7277      7280      7283
      7275      7274      7277      7278      7275      7274      7277      7279
      7275      7274      7277      7280      7276      7274      7277      7278
      7276      7274      7277      7279      7276      7274      7277      7280
      7277      7280      7283      7284      7277      7280      7283      7285
      7277      7280      7283      7286      7278      7277      7280      7281
      7278      7277      7280      7282      7278      7277      7280      7283
      7279      7277      7280      7281      7279      7277      7280      7282
      7279      7277      7280      7283      7280      7283      7286      7287
      7280      7283      7286      7288      7280      7283      7286      7289
      7281      7280      7283      7284      7281      7280      7283      7285
      7281      7280      7283      7286      7282      7280      7283      7284
      7282      7280      7283      7285      7282      7280      7283      7286
      7284      7283      7286      7287      7284      7283      7286      7288
      7284      7283      7286      7289      7285      7283      7286      7287
      7285      7283      7286      7288      7285      7283      7286      7289
      7290      7293      7296      7297      7290      7293      7296      7298
      7290      7293      7296      7299      7291      7290      7293      7294
      7291      7290      7293      7295      7291      7290      7293      7296
      7292      7290      7293      7294      7292      7290      7293      7295
      7292      7290      7293      7296      7293      7296      7299      7300
      7293      7296      7299      7301      7293      7296      7299      7302
      7294      7293      7296      7297      7294      7293      7296      7298
      7294      7293      7296      7299      7295      7293      7296      7297
      7295      7293      7296      7298      7295      7293      7296      7299
      7296      7299      7302      7303      7296      7299      7302      7304
      7296      7299      7302      7305      7297      7296      7299      7300
      7297      7296      7299      7301      7297      7296      7299      7302
      7298      7296      7299      7300      7298      7296      7299      7301
      7298      7296      7299      7302      7299      7302      7305      7306
      7299      7302      7305      7307      7299      7302      7305      7308
      7300      7299      7302      7303      7300      7299      7302      7304
      7300      7299      7302      7305      7301      7299      7302      7303
      7301      7299      7302      7304      7301      7299      7302      7305
      7302      7305      7308      7309      7302      7305      7308      7310
      7302      7305      7308      7311      7303      7302      7305      7306
      7303      7302      7305      7307      7303      7302      7305      7308
      7304      7302      7305      7306      7304      7302      7305      7307
      7304      7302      7305      7308      7305      7308      7311      7312
      7305      7308      7311      7313      7305      7308      7311      7314
      7306      7305      7308      7309      7306      7305      7308      7310
      7306      7305      7308      7311      7307      7305      7308      7309
      7307      7305      7308      7310      7307      7305      7308      7311
      7308      7311      7314      7315      7308      7311      7314      7316
      7308      7311      7314      7317      7309      7308      7311      7312
      7309      7308      7311      7313      7309      7308      7311      7314
      7310      7308      7311      7312      7310      7308      7311      7313
      7310      7308      7311      7314      7311      7314      7317      7318
      7311      7314      7317      7319      7311      7314      7317      7320
      7312      7311      7314      7315      7312      7311      7314      7316
      7312      7311      7314      7317      7313      7311      7314      7315
      7313      7311      7314      7316      7313      7311      7314      7317
      7314      7317      7320      7321      7314      7317      7320      7322
      7314      7317      7320      7323      7315      7314      7317      7318
      7315      7314      7317      7319      7315      7314      7317      7320
      7316      7314      7317      7318      7316      7314      7317      7319
      7316      7314      7317      7320      7317      7320      7323      7324
      7317      7320      7323      7325      7317      7320      7323      7326
      7318      7317      7320      7321      7318      7317      7320      7322
      7318      7317      7320      7323      7319      7317      7320      7321
      7319      7317      7320      7322      7319      7317      7320      7323
      7320      7323      7326      7327      7320      7323      7326      7328
      7320      7323      7326      7329      7321      7320      7323      7324
      7321      7320      7323      7325      7321      7320      7323      7326
      7322      7320      7323      7324      7322      7320      7323      7325
      7322      7320      7323      7326      7323      7326      7329      7330
      7323      7326      7329      7331      7323      7326      7329      7332
      7324      7323      7326      7327      7324      7323      7326      7328
      7324      7323      7326      7329      7325      7323      7326      7327
      7325      7323      7326      7328      7325      7323      7326      7329
      7327      7326      7329      7330      7327      7326      7329      7331
      7327      7326      7329      7332      7328      7326      7329      7330
      7328      7326      7329      7331      7328      7326      7329      7332
      7333      7337      7340      7341      7333      7337      7340      7342
      7333      7337      7340      7347      7334      7333      7337      7338
      7334      7333      7337      7339      7334      7333      7337      7340
      7335      7333      7337      7338      7335      7333      7337      7339
      7335      7333      7337      7340      7336      7333      7337      7338
      7336      7333      7337      7339      7336      7333      7337      7340
      7337      7340      7347      7343      7338      7337      7340      7341
      7338      7337      7340      7342      7338      7337      7340      7347
      7339      7337      7340      7341      7339      7337      7340      7342
      7339      7337      7340      7347      7340      7347      7343      7344
      7340      7347      7343      7345      7340      7347      7343      7346
      7341      7340      7347      7343      7342      7340      7347      7343
      7343      7346      7348      7349      7343      7346      7348      7350
      7343      7346      7348      7351      7344      7343      7346      7348
      7345      7343      7346      7348      7346      7348      7351      7352
      7346      7348      7351      7353      7346      7348      7351      7359
      7347      7343      7346      7348      7348      7351      7353      7354
      7348      7351      7359      7360      7348      7351      7359      7361
      7348      7351      7359      7362      7349      7348      7351      7352
      7349      7348      7351      7353      7349      7348      7351      7359
      7350      7348      7351      7352      7350      7348      7351      7353
      7350      7348      7351      7359      7351      7353      7354      7355
      7351      7353      7354      7356      7351      7359      7362      7363
      7352      7351      7353      7354      7352      7351      7359      7360
      7352      7351      7359      7361      7352      7351      7359      7362
      7353      7351      7359      7360      7353      7351      7359      7361
      7353      7351      7359      7362      7353      7354      7356      7357
      7353      7354      7356      7358      7353      7354      7356      7368
      7354      7353      7351      7359      7354      7356      7368      7369
      7354      7356      7368      7370      7354      7356      7368      7371
      7355      7354      7356      7357      7355      7354      7356      7358
      7355      7354      7356      7368      7356      7368      7371      7372
      7356      7368      7371      7373      7356      7368      7371      7374
      7357      7356      7368      7369      7357      7356      7368      7370
      7357      7356      7368      7371      7358      7356      7368      7369
      7358      7356      7368      7370      7358      7356      7368      7371
      7359      7362      7363      7364      7359      7362      7363      7365
      7360      7359      7362      7363      7361      7359      7362      7363
      7362      7363      7365      7366      7362      7363      7365      7367
      7362      7363      7365      7412      7363      7365      7412      7413
      7363      7365      7412      7414      7363      7365      7412      7415
      7364      7363      7365      7366      7364      7363      7365      7367
      7364      7363      7365      7412      7365      7412      7415      7416
      7365      7412      7415      7417      7365      7412      7415      7418
      7366      7365      7412      7413      7366      7365      7412      7414
      7366      7365      7412      7415      7367      7365      7412      7413
      7367      7365      7412      7414      7367      7365      7412      7415
      7368      7371      7374      7375      7368      7371      7374      7376
      7368      7371      7374      7377      7369      7368      7371      7372
      7369      7368      7371      7373      7369      7368      7371      7374
      7370      7368      7371      7372      7370      7368      7371      7373
      7370      7368      7371      7374      7371      7374      7377      7378
      7371      7374      7377      7379      7371      7374      7377      7380
      7372      7371      7374      7375      7372      7371      7374      7376
      7372      7371      7374      7377      7373      7371      7374      7375
      7373      7371      7374      7376      7373      7371      7374      7377
      7374      7377      7380      7381      7374      7377      7380      7382
      7374      7377      7380      7383      7375      7374      7377      7378
      7375      7374      7377      7379      7375      7374      7377      7380
      7376      7374      7377      7378      7376      7374      7377      7379
      7376      7374      7377      7380      7377      7380      7383      7384
      7377      7380      7383      7385      7377      7380      7383      7386
      7378      7377      7380      7381      7378      7377      7380      7382
      7378      7377      7380      7383      7379      7377      7380      7381
      7379      7377      7380      7382      7379      7377      7380      7383
      7380      7383      7386      7387      7380      7383      7386      7388
      7380      7383      7386      7391      7381      7380      7383      7384
      7381      7380      7383      7385      7381      7380      7383      7386
      7382      7380      7383      7384      7382      7380      7383      7385
      7382      7380      7383      7386      7383      7386      7388      7389
      7383      7386      7388      7390      7383      7386      7388      7391
      7383      7386      7391      7388      7383      7386      7391      7392
      7383      7386      7391      7393      7384      7383      7386      7387
      7384      7383      7386      7388      7384      7383      7386      7391
      7385      7383      7386      7387      7385      7383      7386      7388
      7385      7383      7386      7391      7386      7388      7391      7392
      7386      7388      7391      7393      7386      7391      7388      7389
      7386      7391      7388      7390      7386      7391      7393      7394
      7386      7391      7393      7395      7386      7391      7393      7396
      7387      7386      7388      7389      7387      7386      7388      7390
      7387      7386      7388      7391      7387      7386      7391      7388
      7387      7386      7391      7392      7387      7386      7391      7393
      7388      7386      7391      7392      7388      7386      7391      7393
      7388      7391      7393      7394      7388      7391      7393      7395
      7388      7391      7393      7396      7389      7388      7386      7391
      7389      7388      7391      7392      7389      7388      7391      7393
      7390      7388      7386      7391      7390      7388      7391      7392
      7390      7388      7391      7393      7391      7393      7396      7397
      7391      7393      7396      7398      7391      7393      7396      7399
      7392      7391      7393      7394      7392      7391      7393      7395
      7392      7391      7393      7396      7393      7396      7399      7400
      7393      7396      7399      7401      7393      7396      7399      7402
      7394      7393      7396      7397      7394      7393      7396      7398
      7394      7393      7396      7399      7395      7393      7396      7397
      7395      7393      7396      7398      7395      7393      7396      7399
      7396      7399      7402      7403      7396      7399      7402      7404
      7396      7399      7402      7405      7397      7396      7399      7400
      7397      7396      7399      7401      7397      7396      7399      7402
      7398      7396      7399      7400      7398      7396      7399      7401
      7398      7396      7399      7402      7399      7402      7405      7406
      7399      7402      7405      7407      7399      7402      7405      7408
      7400      7399      7402      7403      7400      7399      7402      7404
      7400      7399      7402      7405      7401      7399      7402      7403
      7401      7399      7402      7404      7401      7399      7402      7405
      7402      7405      7408      7409      7402      7405      7408      7410
      7402      7405      7408      7411      7403      7402      7405      7406
      7403      7402      7405      7407      7403      7402      7405      7408
      7404      7402      7405      7406      7404      7402      7405      7407
      7404      7402      7405      7408      7406      7405      7408      7409
      7406      7405      7408      7410      7406      7405      7408      7411
      7407      7405      7408      7409      7407      7405      7408      7410
      7407      7405      7408      7411      7412      7415      7418      7419
      7412      7415      7418      7420      7412      7415      7418      7421
      7413      7412      7415      7416      7413      7412      7415      7417
      7413      7412      7415      7418      7414      7412      7415      7416
      7414      7412      7415      7417      7414      7412      7415      7418
      7415      7418      7421      7422      7415      7418      7421      7423
      7415      7418      7421      7424      7416      7415      7418      7419
      7416      7415      7418      7420      7416      7415      7418      7421
      7417      7415      7418      7419      7417      7415      7418      7420
      7417      7415      7418      7421      7418      7421      7424      7425
      7418      7421      7424      7426      7418      7421      7424      7427
      7419      7418      7421      7422      7419      7418      7421      7423
      7419      7418      7421      7424      7420      7418      7421      7422
      7420      7418      7421      7423      7420      7418      7421      7424
      7421      7424      7427      7428      7421      7424      7427      7429
      7421      7424      7427      7430      7422      7421      7424      7425
      7422      7421      7424      7426      7422      7421      7424      7427
      7423      7421      7424      7425      7423      7421      7424      7426
      7423      7421      7424      7427      7424      7427      7430      7431
      7424      7427      7430      7432      7424      7427      7430      7433
      7425      7424      7427      7428      7425      7424      7427      7429
      7425      7424      7427      7430      7426      7424      7427      7428
      7426      7424      7427      7429      7426      7424      7427      7430
      7427      7430      7433      7434      7427      7430      7433      7435
      7427      7430      7433      7436      7428      7427      7430      7431
      7428      7427      7430      7432      7428      7427      7430      7433
      7429      7427      7430      7431      7429      7427      7430      7432
      7429      7427      7430      7433      7430      7433      7436      7437
      7430      7433      7436      7438      7430      7433      7436      7439
      7431      7430      7433      7434      7431      7430      7433      7435
      7431      7430      7433      7436      7432      7430      7433      7434
      7432      7430      7433      7435      7432      7430      7433      7436
      7433      7436      7439      7440      7433      7436      7439      7441
      7433      7436      7439      7442      7434      7433      7436      7437
      7434      7433      7436      7438      7434      7433      7436      7439
      7435      7433      7436      7437      7435      7433      7436      7438
      7435      7433      7436      7439      7436      7439      7442      7443
      7436      7439      7442      7444      7436      7439      7442      7445
      7437      7436      7439      7440      7437      7436      7439      7441
      7437      7436      7439      7442      7438      7436      7439      7440
      7438      7436      7439      7441      7438      7436      7439      7442
      7439      7442      7445      7446      7439      7442      7445      7447
      7439      7442      7445      7448      7440      7439      7442      7443
      7440      7439      7442      7444      7440      7439      7442      7445
      7441      7439      7442      7443      7441      7439      7442      7444
      7441      7439      7442      7445      7442      7445      7448      7449
      7442      7445      7448      7450      7442      7445      7448      7451
      7443      7442      7445      7446      7443      7442      7445      7447
      7443      7442      7445      7448      7444      7442      7445      7446
      7444      7442      7445      7447      7444      7442      7445      7448
      7445      7448      7451      7452      7445      7448      7451      7453
      7445      7448      7451      7454      7446      7445      7448      7449
      7446      7445      7448      7450      7446      7445      7448      7451
      7447      7445      7448      7449      7447      7445      7448      7450
      7447      7445      7448      7451      7449      7448      7451      7452
      7449      7448      7451      7453      7449      7448      7451      7454
      7450      7448      7451      7452      7450      7448      7451      7453
      7450      7448      7451      7454      7455      7460      7462      7463
      7455      7460      7464      7465      7455      7460      7464      7466
      7455      7460      7464      7471      7456      7455      7458      7459
      7456      7455      7460      7461      7456      7455      7460      7462
      7456      7455      7460      7464      7457      7455      7458      7459
      7457      7455      7460      7461      7457      7455      7460      7462
      7457      7455      7460      7464      7458      7455      7460      7461
      7458      7455      7460      7462      7458      7455      7460      7464
      7459      7458      7455      7460      7460      7464      7471      7467
      7461      7460      7462      7463      7461      7460      7464      7465
      7461      7460      7464      7466      7461      7460      7464      7471
      7462      7460      7464      7465      7462      7460      7464      7466
      7462      7460      7464      7471      7463      7462      7460      7464
      7464      7471      7467      7468      7464      7471      7467      7469
      7464      7471      7467      7470      7465      7464      7471      7467
      7466      7464      7471      7467      7467      7470      7472      7473
      7467      7470      7472      7474      7467      7470      7472      7475
      7468      7467      7470      7472      7469      7467      7470      7472
      7470      7472      7475      7476      7470      7472      7475      7477
      7470      7472      7475      7483      7471      7467      7470      7472
      7472      7475      7477      7478      7472      7475      7483      7484
      7472      7475      7483      7485      7472      7475      7483      7486
      7473      7472      7475      7476      7473      7472      7475      7477
      7473      7472      7475      7483      7474      7472      7475      7476
      7474      7472      7475      7477      7474      7472      7475      7483
      7475      7477      7478      7479      7475      7477      7478      7480
      7475      7483      7486      7487      7476      7475      7477      7478
      7476      7475      7483      7484      7476      7475      7483      7485
      7476      7475      7483      7486      7477      7475      7483      7484
      7477      7475      7483      7485      7477      7475      7483      7486
      7477      7478      7480      7481      7477      7478      7480      7482
      7477      7478      7480      7492      7478      7477      7475      7483
      7478      7480      7492      7493      7478      7480      7492      7494
      7478      7480      7492      7495      7479      7478      7480      7481
      7479      7478      7480      7482      7479      7478      7480      7492
      7480      7492      7495      7496      7480      7492      7495      7497
      7480      7492      7495      7498      7481      7480      7492      7493
      7481      7480      7492      7494      7481      7480      7492      7495
      7482      7480      7492      7493      7482      7480      7492      7494
      7482      7480      7492      7495      7483      7486      7487      7488
      7483      7486      7487      7489      7484      7483      7486      7487
      7485      7483      7486      7487      7486      7487      7489      7490
      7486      7487      7489      7491      7486      7487      7489      7536
      7487      7489      7536      7537      7487      7489      7536      7538
      7487      7489      7536      7539      7488      7487      7489      7490
      7488      7487      7489      7491      7488      7487      7489      7536
      7489      7536      7539      7540      7489      7536      7539      7541
      7489      7536      7539      7542      7490      7489      7536      7537
      7490      7489      7536      7538      7490      7489      7536      7539
      7491      7489      7536      7537      7491      7489      7536      7538
      7491      7489      7536      7539      7492      7495      7498      7499
      7492      7495      7498      7500      7492      7495      7498      7501
      7493      7492      7495      7496      7493      7492      7495      7497
      7493      7492      7495      7498      7494      7492      7495      7496
      7494      7492      7495      7497      7494      7492      7495      7498
      7495      7498      7501      7502      7495      7498      7501      7503
      7495      7498      7501      7504      7496      7495      7498      7499
      7496      7495      7498      7500      7496      7495      7498      7501
      7497      7495      7498      7499      7497      7495      7498      7500
      7497      7495      7498      7501      7498      7501      7504      7505
      7498      7501      7504      7506      7498      7501      7504      7507
      7499      7498      7501      7502      7499      7498      7501      7503
      7499      7498      7501      7504      7500      7498      7501      7502
      7500      7498      7501      7503      7500      7498      7501      7504
      7501      7504      7507      7508      7501      7504      7507      7509
      7501      7504      7507      7510      7502      7501      7504      7505
      7502      7501      7504      7506      7502      7501      7504      7507
      7503      7501      7504      7505      7503      7501      7504      7506
      7503      7501      7504      7507      7504      7507      7510      7511
      7504      7507      7510      7512      7504      7507      7510      7515
      7505      7504      7507      7508      7505      7504      7507      7509
      7505      7504      7507      7510      7506      7504      7507      7508
      7506      7504      7507      7509      7506      7504      7507      7510
      7507      7510      7512      7513      7507      7510      7512      7514
      7507      7510      7512      7515      7507      7510      7515      7512
      7507      7510      7515      7516      7507      7510      7515      7517
      7508      7507      7510      7511      7508      7507      7510      7512
      7508      7507      7510      7515      7509      7507      7510      7511
      7509      7507      7510      7512      7509      7507      7510      7515
      7510      7512      7515      7516      7510      7512      7515      7517
      7510      7515      7512      7513      7510      7515      7512      7514
      7510      7515      7517      7518      7510      7515      7517      7519
      7510      7515      7517      7520      7511      7510      7512      7513
      7511      7510      7512      7514      7511      7510      7512      7515
      7511      7510      7515      7512      7511      7510      7515      7516
      7511      7510      7515      7517      7512      7510      7515      7516
      7512      7510      7515      7517      7512      7515      7517      7518
      7512      7515      7517      7519      7512      7515      7517      7520
      7513      7512      7510      7515      7513      7512      7515      7516
      7513      7512      7515      7517      7514      7512      7510      7515
      7514      7512      7515      7516      7514      7512      7515      7517
      7515      7517      7520      7521      7515      7517      7520      7522
      7515      7517      7520      7523      7516      7515      7517      7518
      7516      7515      7517      7519      7516      7515      7517      7520
      7517      7520      7523      7524      7517      7520      7523      7525
      7517      7520      7523      7526      7518      7517      7520      7521
      7518      7517      7520      7522      7518      7517      7520      7523
      7519      7517      7520      7521      7519      7517      7520      7522
      7519      7517      7520      7523      7520      7523      7526      7527
      7520      7523      7526      7528      7520      7523      7526      7529
      7521      7520      7523      7524      7521      7520      7523      7525
      7521      7520      7523      7526      7522      7520      7523      7524
      7522      7520      7523      7525      7522      7520      7523      7526
      7523      7526      7529      7530      7523      7526      7529      7531
      7523      7526      7529      7532      7524      7523      7526      7527
      7524      7523      7526      7528      7524      7523      7526      7529
      7525      7523      7526      7527      7525      7523      7526      7528
      7525      7523      7526      7529      7526      7529      7532      7533
      7526      7529      7532      7534      7526      7529      7532      7535
      7527      7526      7529      7530      7527      7526      7529      7531
      7527      7526      7529      7532      7528      7526      7529      7530
      7528      7526      7529      7531      7528      7526      7529      7532
      7530      7529      7532      7533      7530      7529      7532      7534
      7530      7529      7532      7535      7531      7529      7532      7533
      7531      7529      7532      7534      7531      7529      7532      7535
      7536      7539      7542      7543      7536      7539      7542      7544
      7536      7539      7542      7545      7537      7536      7539      7540
      7537      7536      7539      7541      7537      7536      7539      7542
      7538      7536      7539      7540      7538      7536      7539      7541
      7538      7536      7539      7542      7539      7542      7545      7546
      7539      7542      7545      7547      7539      7542      7545      7548
      7540      7539      7542      7543      7540      7539      7542      7544
      7540      7539      7542      7545      7541      7539      7542      7543
      7541      7539      7542      7544      7541      7539      7542      7545
      7542      7545      7548      7549      7542      7545      7548      7550
      7542      7545      7548      7551      7543      7542      7545      7546
      7543      7542      7545      7547      7543      7542      7545      7548
      7544      7542      7545      7546      7544      7542      7545      7547
      7544      7542      7545      7548      7545      7548      7551      7552
      7545      7548      7551      7553      7545      7548      7551      7554
      7546      7545      7548      7549      7546      7545      7548      7550
      7546      7545      7548      7551      7547      7545      7548      7549
      7547      7545      7548      7550      7547      7545      7548      7551
      7548      7551      7554      7555      7548      7551      7554      7556
      7548      7551      7554      7557      7549      7548      7551      7552
      7549      7548      7551      7553      7549      7548      7551      7554
      7550      7548      7551      7552      7550      7548      7551      7553
      7550      7548      7551      7554      7551      7554      7557      7558
      7551      7554      7557      7559      7551      7554      7557      7560
      7552      7551      7554      7555      7552      7551      7554      7556
      7552      7551      7554      7557      7553      7551      7554      7555
      7553      7551      7554      7556      7553      7551      7554      7557
      7554      7557      7560      7561      7554      7557      7560      7562
      7554      7557      7560      7563      7555      7554      7557      7558
      7555      7554      7557      7559      7555      7554      7557      7560
      7556      7554      7557      7558      7556      7554      7557      7559
      7556      7554      7557      7560      7557      7560      7563      7564
      7557      7560      7563      7565      7557      7560      7563      7566
      7558      7557      7560      7561      7558      7557      7560      7562
      7558      7557      7560      7563      7559      7557      7560      7561
      7559      7557      7560      7562      7559      7557      7560      7563
      7560      7563      7566      7567      7560      7563      7566      7568
      7560      7563      7566      7569      7561      7560      7563      7564
      7561      7560      7563      7565      7561      7560      7563      7566
      7562      7560      7563      7564      7562      7560      7563      7565
      7562      7560      7563      7566      7563      7566      7569      7570
      7563      7566      7569      7571      7563      7566      7569      7572
      7564      7563      7566      7567      7564      7563      7566      7568
      7564      7563      7566      7569      7565      7563      7566      7567
      7565      7563      7566      7568      7565      7563      7566      7569
      7566      7569      7572      7573      7566      7569      7572      7574
      7566      7569      7572      7575      7567      7566      7569      7570
      7567      7566      7569      7571      7567      7566      7569      7572
      7568      7566      7569      7570      7568      7566      7569      7571
      7568      7566      7569      7572      7569      7572      7575      7576
      7569      7572      7575      7577      7569      7572      7575      7578
      7570      7569      7572      7573      7570      7569      7572      7574
      7570      7569      7572      7575      7571      7569      7572      7573
      7571      7569      7572      7574      7571      7569      7572      7575
      7573      7572      7575      7576      7573      7572      7575      7577
      7573      7572      7575      7578      7574      7572      7575      7576
      7574      7572      7575      7577      7574      7572      7575      7578
      7579      7583      7586      7587      7579      7583      7586      7588
      7579      7583      7586      7593      7580      7579      7583      7584
      7580      7579      7583      7585      7580      7579      7583      7586
      7581      7579      7583      7584      7581      7579      7583      7585
      7581      7579      7583      7586      7582      7579      7583      7584
      7582      7579      7583      7585      7582      7579      7583      7586
      7583      7586      7593      7589      7584      7583      7586      7587
      7584      7583      7586      7588      7584      7583      7586      7593
      7585      7583      7586      7587      7585      7583      7586      7588
      7585      7583      7586      7593      7586      7593      7589      7590
      7586      7593      7589      7591      7586      7593      7589      7592
      7587      7586      7593      7589      7588      7586      7593      7589
      7589      7592      7594      7595      7589      7592      7594      7596
      7589      7592      7594      7597      7590      7589      7592      7594
      7591      7589      7592      7594      7592      7594      7597      7598
      7592      7594      7597      7599      7592      7594      7597      7605
      7593      7589      7592      7594      7594      7597      7599      7600
      7594      7597      7605      7606      7594      7597      7605      7607
      7594      7597      7605      7608      7595      7594      7597      7598
      7595      7594      7597      7599      7595      7594      7597      7605
      7596      7594      7597      7598      7596      7594      7597      7599
      7596      7594      7597      7605      7597      7599      7600      7601
      7597      7599      7600      7602      7597      7605      7608      7609
      7598      7597      7599      7600      7598      7597      7605      7606
      7598      7597      7605      7607      7598      7597      7605      7608
      7599      7597      7605      7606      7599      7597      7605      7607
      7599      7597      7605      7608      7599      7600      7602      7603
      7599      7600      7602      7604      7599      7600      7602      7614
      7600      7599      7597      7605      7600      7602      7614      7615
      7600      7602      7614      7616      7600      7602      7614      7617
      7601      7600      7602      7603      7601      7600      7602      7604
      7601      7600      7602      7614      7602      7614      7617      7618
      7602      7614      7617      7619      7602      7614      7617      7620
      7603      7602      7614      7615      7603      7602      7614      7616
      7603      7602      7614      7617      7604      7602      7614      7615
      7604      7602      7614      7616      7604      7602      7614      7617
      7605      7608      7609      7610      7605      7608      7609      7611
      7606      7605      7608      7609      7607      7605      7608      7609
      7608      7609      7611      7612      7608      7609      7611      7613
      7608      7609      7611      7661      7609      7611      7661      7662
      7609      7611      7661      7663      7609      7611      7661      7664
      7610      7609      7611      7612      7610      7609      7611      7613
      7610      7609      7611      7661      7611      7661      7664      7665
      7611      7661      7664      7666      7611      7661      7664      7667
      7612      7611      7661      7662      7612      7611      7661      7663
      7612      7611      7661      7664      7613      7611      7661      7662
      7613      7611      7661      7663      7613      7611      7661      7664
      7614      7617      7620      7621      7614      7617      7620      7622
      7614      7617      7620      7623      7615      7614      7617      7618
      7615      7614      7617      7619      7615      7614      7617      7620
      7616      7614      7617      7618      7616      7614      7617      7619
      7616      7614      7617      7620      7617      7620      7623      7624
      7617      7620      7623      7625      7617      7620      7623      7626
      7618      7617      7620      7621      7618      7617      7620      7622
      7618      7617      7620      7623      7619      7617      7620      7621
      7619      7617      7620      7622      7619      7617      7620      7623
      7620      7623      7626      7627      7620      7623      7626      7628
      7620      7623      7626      7629      7621      7620      7623      7624
      7621      7620      7623      7625      7621      7620      7623      7626
      7622      7620      7623      7624      7622      7620      7623      7625
      7622      7620      7623      7626      7623      7626      7629      7630
      7623      7626      7629      7631      7623      7626      7629      7632
      7624      7623      7626      7627      7624      7623      7626      7628
      7624      7623      7626      7629      7625      7623      7626      7627
      7625      7623      7626      7628      7625      7623      7626      7629
      7626      7629      7632      7633      7626      7629      7632      7634
      7627      7626      7629      7630      7627      7626      7629      7631
      7627      7626      7629      7632      7628      7626      7629      7630
      7628      7626      7629      7631      7628      7626      7629      7632
      7629      7632      7634      7635      7629      7632      7634      7636
      7630      7629      7632      7633      7630      7629      7632      7634
      7631      7629      7632      7633      7631      7629      7632      7634
      7632      7634      7636      7637      7632      7634      7636      7638
      7632      7634      7636      7639      7633      7632      7634      7635
      7633      7632      7634      7636      7634      7636      7639      7640
      7634      7636      7639      7641      7634      7636      7639      7642
      7635      7634      7636      7637      7635      7634      7636      7638
      7635      7634      7636      7639      7636      7639      7642      7643
      7636      7639      7642      7644      7636      7639      7642      7645
      7637      7636      7639      7640      7637      7636      7639      7641
      7637      7636      7639      7642      7638      7636      7639      7640
      7638      7636      7639      7641      7638      7636      7639      7642
      7639      7642      7645      7646      7639      7642      7645      7647
      7639      7642      7645      7648      7640      7639      7642      7643
      7640      7639      7642      7644      7640      7639      7642      7645
      7641      7639      7642      7643      7641      7639      7642      7644
      7641      7639      7642      7645      7642      7645      7648      7649
      7642      7645      7648      7650      7642      7645      7648      7651
      7643      7642      7645      7646      7643      7642      7645      7647
      7643      7642      7645      7648      7644      7642      7645      7646
      7644      7642      7645      7647      7644      7642      7645      7648
      7645      7648      7651      7652      7645      7648      7651      7653
      7645      7648      7651      7654      7646      7645      7648      7649
      7646      7645      7648      7650      7646      7645      7648      7651
      7647      7645      7648      7649      7647      7645      7648      7650
      7647      7645      7648      7651      7648      7651      7654      7655
      7648      7651      7654      7656      7648      7651      7654      7657
      7649      7648      7651      7652      7649      7648      7651      7653
      7649      7648      7651      7654      7650      7648      7651      7652
      7650      7648      7651      7653      7650      7648      7651      7654
      7651      7654      7657      7658      7651      7654      7657      7659
      7651      7654      7657      7660      7652      7651      7654      7655
      7652      7651      7654      7656      7652      7651      7654      7657
      7653      7651      7654      7655      7653      7651      7654      7656
      7653      7651      7654      7657      7655      7654      7657      7658
      7655      7654      7657      7659      7655      7654      7657      7660
      7656      7654      7657      7658      7656      7654      7657      7659
      7656      7654      7657      7660      7661      7664      7667      7668
      7661      7664      7667      7669      7661      7664      7667      7670
      7662      7661      7664      7665      7662      7661      7664      7666
      7662      7661      7664      7667      7663      7661      7664      7665
      7663      7661      7664      7666      7663      7661      7664      7667
      7664      7667      7670      7671      7664      7667      7670      7672
      7664      7667      7670      7673      7665      7664      7667      7668
      7665      7664      7667      7669      7665      7664      7667      7670
      7666      7664      7667      7668      7666      7664      7667      7669
      7666      7664      7667      7670      7667      7670      7673      7674
      7667      7670      7673      7675      7667      7670      7673      7676
      7668      7667      7670      7671      7668      7667      7670      7672
      7668      7667      7670      7673      7669      7667      7670      7671
      7669      7667      7670      7672      7669      7667      7670      7673
      7670      7673      7676      7677      7670      7673      7676      7678
      7670      7673      7676      7679      7671      7670      7673      7674
      7671      7670      7673      7675      7671      7670      7673      7676
      7672      7670      7673      7674      7672      7670      7673      7675
      7672      7670      7673      7676      7673      7676      7679      7680
      7673      7676      7679      7681      7673      7676      7679      7682
      7674      7673      7676      7677      7674      7673      7676      7678
      7674      7673      7676      7679      7675      7673      7676      7677
      7675      7673      7676      7678      7675      7673      7676      7679
      7676      7679      7682      7683      7676      7679      7682      7684
      7676      7679      7682      7685      7677      7676      7679      7680
      7677      7676      7679      7681      7677      7676      7679      7682
      7678      7676      7679      7680      7678      7676      7679      7681
      7678      7676      7679      7682      7679      7682      7685      7686
      7679      7682      7685      7687      7679      7682      7685      7688
      7680      7679      7682      7683      7680      7679      7682      7684
      7680      7679      7682      7685      7681      7679      7682      7683
      7681      7679      7682      7684      7681      7679      7682      7685
      7682      7685      7688      7689      7682      7685      7688      7690
      7682      7685      7688      7691      7683      7682      7685      7686
      7683      7682      7685      7687      7683      7682      7685      7688
      7684      7682      7685      7686      7684      7682      7685      7687
      7684      7682      7685      7688      7685      7688      7691      7692
      7685      7688      7691      7693      7685      7688      7691      7694
      7686      7685      7688      7689      7686      7685      7688      7690
      7686      7685      7688      7691      7687      7685      7688      7689
      7687      7685      7688      7690      7687      7685      7688      7691
      7688      7691      7694      7695      7688      7691      7694      7696
      7688      7691      7694      7697      7689      7688      7691      7692
      7689      7688      7691      7693      7689      7688      7691      7694
      7690      7688      7691      7692      7690      7688      7691      7693
      7690      7688      7691      7694      7691      7694      7697      7698
      7691      7694      7697      7699      7691      7694      7697      7700
      7692      7691      7694      7695      7692      7691      7694      7696
      7692      7691      7694      7697      7693      7691      7694      7695
      7693      7691      7694      7696      7693      7691      7694      7697
      7694      7697      7700      7701      7694      7697      7700      7702
      7694      7697      7700      7703      7695      7694      7697      7698
      7695      7694      7697      7699      7695      7694      7697      7700
      7696      7694      7697      7698      7696      7694      7697      7699
      7696      7694      7697      7700      7698      7697      7700      7701
      7698      7697      7700      7702      7698      7697      7700      7703
      7699      7697      7700      7701      7699      7697      7700      7702
      7699      7697      7700      7703      7704      7710      7707      7708
      7704      7710      7707      7709      7704      7710      7707      7711
      7704      7715      7717      7718      7704      7715      7719      7720
      7704      7715      7719      7721      7704      7715      7719      7725
      7705      7704      7710      7707      7705      7704      7715      7716
      7705      7704      7715      7717      7705      7704      7715      7719
      7706      7704      7710      7707      7706      7704      7715      7716
      7706      7704      7715      7717      7706      7704      7715      7719
      7707      7710      7704      7715      7707      7711      7712      7713
      7707      7711      7712      7714      7707      7711      7712      7747
      7708      7707      7711      7712      7709      7707      7711      7712
      7710      7704      7715      7716      7710      7704      7715      7717
      7710      7704      7715      7719      7710      7707      7711      7712
      7711      7712      7747      7748      7711      7712      7747      7749
      7711      7712      7747      7755      7712      7747      7749      7750
      7712      7747      7755      7756      7712      7747      7755      7757
      7712      7747      7755      7758      7713      7712      7747      7748
      7713      7712      7747      7749      7713      7712      7747      7755
      7714      7712      7747      7748      7714      7712      7747      7749
      7714      7712      7747      7755      7715      7719      7725      7722
      7716      7715      7717      7718      7716      7715      7719      7720
      7716      7715      7719      7721      7716      7715      7719      7725
      7717      7715      7719      7720      7717      7715      7719      7721
      7717      7715      7719      7725      7718      7717      7715      7719
      7719      7725      7722      7723      7719      7725      7722      7724
      7719      7725      7722      7726      7720      7719      7725      7722
      7721      7719      7725      7722      7722      7726      7727      7728
      7722      7726      7727      7729      7722      7726      7727      7730
      7723      7722      7726      7727      7724      7722      7726      7727
      7725      7722      7726      7727      7726      7727      7730      7731
      7726      7727      7730      7732      7726      7727      7730      7738
      7727      7730      7732      7733      7727      7730      7738      7739
      7727      7730      7738      7740      7727      7730      7738      7741
      7728      7727      7730      7731      7728      7727      7730      7732
      7728      7727      7730      7738      7729      7727      7730      7731
      7729      7727      7730      7732      7729      7727      7730      7738
      7730      7732      7733      7734      7730      7732      7733      7735
      7730      7738      7741      7742      7731      7730      7732      7733
      7731      7730      7738      7739      7731      7730      7738      7740
      7731      7730      7738      7741      7732      7730      7738      7739
      7732      7730      7738      7740      7732      7730      7738      7741
      7732      7733      7735      7736      7732      7733      7735      7737
      7732      7733      7735      7764      7733      7732      7730      7738
      7733      7735      7764      7765      7733      7735      7764      7766
      7733      7735      7764      7767      7734      7733      7735      7736
      7734      7733      7735      7737      7734      7733      7735      7764
      7735      7764      7767      7768      7735      7764      7767      7769
      7735      7764      7767      7770      7736      7735      7764      7765
      7736      7735      7764      7766      7736      7735      7764      7767
      7737      7735      7764      7765      7737      7735      7764      7766
      7737      7735      7764      7767      7738      7741      7742      7743
      7738      7741      7742      7744      7739      7738      7741      7742
      7740      7738      7741      7742      7741      7742      7744      7745
      7741      7742      7744      7746      7741      7742      7744      7811
      7742      7744      7811      7812      7742      7744      7811      7813
      7742      7744      7811      7814      7743      7742      7744      7745
      7743      7742      7744      7746      7743      7742      7744      7811
      7744      7811      7814      7815      7744      7811      7814      7816
      7744      7811      7814      7817      7745      7744      7811      7812
      7745      7744      7811      7813      7745      7744      7811      7814
      7746      7744      7811      7812      7746      7744      7811      7813
      7746      7744      7811      7814      7747      7749      7750      7751
      7747      7749      7750      7752      7747      7755      7758      7759
      7748      7747      7749      7750      7748      7747      7755      7756
      7748      7747      7755      7757      7748      7747      7755      7758
      7749      7747      7755      7756      7749      7747      7755      7757
      7749      7747      7755      7758      7749      7750      7752      7753
      7749      7750      7752      7754      7749      7750      7752      7854
      7750      7749      7747      7755      7750      7752      7854      7855
      7750      7752      7854      7856      7750      7752      7854      7857
      7751      7750      7752      7753      7751      7750      7752      7754
      7751      7750      7752      7854      7752      7854      7857      7858
      7752      7854      7857      7859      7752      7854      7857      7860
      7753      7752      7854      7855      7753      7752      7854      7856
      7753      7752      7854      7857      7754      7752      7854      7855
      7754      7752      7854      7856      7754      7752      7854      7857
      7755      7758      7759      7760      7755      7758      7759      7761
      7756      7755      7758      7759      7757      7755      7758      7759
      7758      7759      7761      7762      7758      7759      7761      7763
      7758      7759      7761      7901      7759      7761      7901      7902
      7759      7761      7901      7903      7759      7761      7901      7904
      7760      7759      7761      7762      7760      7759      7761      7763
      7760      7759      7761      7901      7761      7901      7904      7905
      7761      7901      7904      7906      7761      7901      7904      7907
      7762      7761      7901      7902      7762      7761      7901      7903
      7762      7761      7901      7904      7763      7761      7901      7902
      7763      7761      7901      7903      7763      7761      7901      7904
      7764      7767      7770      7771      7764      7767      7770      7772
      7764      7767      7770      7773      7765      7764      7767      7768
      7765      7764      7767      7769      7765      7764      7767      7770
      7766      7764      7767      7768      7766      7764      7767      7769
      7766      7764      7767      7770      7767      7770      7773      7774
      7767      7770      7773      7775      7767      7770      7773      7776
      7768      7767      7770      7771      7768      7767      7770      7772
      7768      7767      7770      7773      7769      7767      7770      7771
      7769      7767      7770      7772      7769      7767      7770      7773
      7770      7773      7776      7777      7770      7773      7776      7778
      7770      7773      7776      7779      7771      7770      7773      7774
      7771      7770      7773      7775      7771      7770      7773      7776
      7772      7770      7773      7774      7772      7770      7773      7775
      7772      7770      7773      7776      7773      7776      7779      7780
      7773      7776      7779      7781      7773      7776      7779      7782
      7774      7773      7776      7777      7774      7773      7776      7778
      7774      7773      7776      7779      7775      7773      7776      7777
      7775      7773      7776      7778      7775      7773      7776      7779
      7776      7779      7782      7783      7776      7779      7782      7784
      7776      7779      7782      7785      7777      7776      7779      7780
      7777      7776      7779      7781      7777      7776      7779      7782
      7778      7776      7779      7780      7778      7776      7779      7781
      7778      7776      7779      7782      7779      7782      7785      7786
      7779      7782      7785      7787      7779      7782      7785      7788
      7780      7779      7782      7783      7780      7779      7782      7784
      7780      7779      7782      7785      7781      7779      7782      7783
      7781      7779      7782      7784      7781      7779      7782      7785
      7782      7785      7788      7789      7782      7785      7788      7790
      7783      7782      7785      7786      7783      7782      7785      7787
      7783      7782      7785      7788      7784      7782      7785      7786
      7784      7782      7785      7787      7784      7782      7785      7788
      7785      7788      7790      7791      7785      7788      7790      7792
      7786      7785      7788      7789      7786      7785      7788      7790
      7787      7785      7788      7789      7787      7785      7788      7790
      7788      7790      7792      7793      7788      7790      7792      7794
      7788      7790      7792      7795      7789      7788      7790      7791
      7789      7788      7790      7792      7790      7792      7795      7796
      7790      7792      7795      7797      7790      7792      7795      7798
      7791      7790      7792      7793      7791      7790      7792      7794
      7791      7790      7792      7795      7792      7795      7798      7799
      7792      7795      7798      7800      7792      7795      7798      7801
      7793      7792      7795      7796      7793      7792      7795      7797
      7793      7792      7795      7798      7794      7792      7795      7796
      7794      7792      7795      7797      7794      7792      7795      7798
      7795      7798      7801      7802      7795      7798      7801      7803
      7795      7798      7801      7804      7796      7795      7798      7799
      7796      7795      7798      7800      7796      7795      7798      7801
      7797      7795      7798      7799      7797      7795      7798      7800
      7797      7795      7798      7801      7798      7801      7804      7805
      7798      7801      7804      7806      7798      7801      7804      7807
      7799      7798      7801      7802      7799      7798      7801      7803
      7799      7798      7801      7804      7800      7798      7801      7802
      7800      7798      7801      7803      7800      7798      7801      7804
      7801      7804      7807      7808      7801      7804      7807      7809
      7801      7804      7807      7810      7802      7801      7804      7805
      7802      7801      7804      7806      7802      7801      7804      7807
      7803      7801      7804      7805      7803      7801      7804      7806
      7803      7801      7804      7807      7805      7804      7807      7808
      7805      7804      7807      7809      7805      7804      7807      7810
      7806      7804      7807      7808      7806      7804      7807      7809
      7806      7804      7807      7810      7811      7814      7817      7818
      7811      7814      7817      7819      7811      7814      7817      7820
      7812      7811      7814      7815      7812      7811      7814      7816
      7812      7811      7814      7817      7813      7811      7814      7815
      7813      7811      7814      7816      7813      7811      7814      7817
      7814      7817      7820      7821      7814      7817      7820      7822
      7814      7817      7820      7823      7815      7814      7817      7818
      7815      7814      7817      7819      7815      7814      7817      7820
      7816      7814      7817      7818      7816      7814      7817      7819
      7816      7814      7817      7820      7817      7820      7823      7824
      7817      7820      7823      7825      7817      7820      7823      7826
      7818      7817      7820      7821      7818      7817      7820      7822
      7818      7817      7820      7823      7819      7817      7820      7821
      7819      7817      7820      7822      7819      7817      7820      7823
      7820      7823      7826      7827      7820      7823      7826      7828
      7820      7823      7826      7829      7821      7820      7823      7824
      7821      7820      7823      7825      7821      7820      7823      7826
      7822      7820      7823      7824      7822      7820      7823      7825
      7822      7820      7823      7826      7823      7826      7829      7830
      7823      7826      7829      7831      7823      7826      7829      7832
      7824      7823      7826      7827      7824      7823      7826      7828
      7824      7823      7826      7829      7825      7823      7826      7827
      7825      7823      7826      7828      7825      7823      7826      7829
      7826      7829      7832      7833      7826      7829      7832      7834
      7826      7829      7832      7835      7827      7826      7829      7830
      7827      7826      7829      7831      7827      7826      7829      7832
      7828      7826      7829      7830      7828      7826      7829      7831
      7828      7826      7829      7832      7829      7832      7835      7836
      7829      7832      7835      7837      7829      7832      7835      7838
      7830      7829      7832      7833      7830      7829      7832      7834
      7830      7829      7832      7835      7831      7829      7832      7833
      7831      7829      7832      7834      7831      7829      7832      7835
      7832      7835      7838      7839      7832      7835      7838      7840
      7832      7835      7838      7841      7833      7832      7835      7836
      7833      7832      7835      7837      7833      7832      7835      7838
      7834      7832      7835      7836      7834      7832      7835      7837
      7834      7832      7835      7838      7835      7838      7841      7842
      7835      7838      7841      7843      7835      7838      7841      7844
      7836      7835      7838      7839      7836      7835      7838      7840
      7836      7835      7838      7841      7837      7835      7838      7839
      7837      7835      7838      7840      7837      7835      7838      7841
      7838      7841      7844      7845      7838      7841      7844      7846
      7838      7841      7844      7847      7839      7838      7841      7842
      7839      7838      7841      7843      7839      7838      7841      7844
      7840      7838      7841      7842      7840      7838      7841      7843
      7840      7838      7841      7844      7841      7844      7847      7848
      7841      7844      7847      7849      7841      7844      7847      7850
      7842      7841      7844      7845      7842      7841      7844      7846
      7842      7841      7844      7847      7843      7841      7844      7845
      7843      7841      7844      7846      7843      7841      7844      7847
      7844      7847      7850      7851      7844      7847      7850      7852
      7844      7847      7850      7853      7845      7844      7847      7848
      7845      7844      7847      7849      7845      7844      7847      7850
      7846      7844      7847      7848      7846      7844      7847      7849
      7846      7844      7847      7850      7848      7847      7850      7851
      7848      7847      7850      7852      7848      7847      7850      7853
      7849      7847      7850      7851      7849      7847      7850      7852
      7849      7847      7850      7853      7854      7857      7860      7861
      7854      7857      7860      7862      7854      7857      7860      7863
      7855      7854      7857      7858      7855      7854      7857      7859
      7855      7854      7857      7860      7856      7854      7857      7858
      7856      7854      7857      7859      7856      7854      7857      7860
      7857      7860      7863      7864      7857      7860      7863      7865
      7857      7860      7863      7866      7858      7857      7860      7861
      7858      7857      7860      7862      7858      7857      7860      7863
      7859      7857      7860      7861      7859      7857      7860      7862
      7859      7857      7860      7863      7860      7863      7866      7867
      7860      7863      7866      7868      7860      7863      7866      7869
      7861      7860      7863      7864      7861      7860      7863      7865
      7861      7860      7863      7866      7862      7860      7863      7864
      7862      7860      7863      7865      7862      7860      7863      7866
      7863      7866      7869      7870      7863      7866      7869      7871
      7863      7866      7869      7872      7864      7863      7866      7867
      7864      7863      7866      7868      7864      7863      7866      7869
      7865      7863      7866      7867      7865      7863      7866      7868
      7865      7863      7866      7869      7866      7869      7872      7873
      7866      7869      7872      7874      7866      7869      7872      7875
      7867      7866      7869      7870      7867      7866      7869      7871
      7867      7866      7869      7872      7868      7866      7869      7870
      7868      7866      7869      7871      7868      7866      7869      7872
      7869      7872      7875      7876      7869      7872      7875      7877
      7869      7872      7875      7878      7870      7869      7872      7873
      7870      7869      7872      7874      7870      7869      7872      7875
      7871      7869      7872      7873      7871      7869      7872      7874
      7871      7869      7872      7875      7872      7875      7878      7879
      7872      7875      7878      7880      7873      7872      7875      7876
      7873      7872      7875      7877      7873      7872      7875      7878
      7874      7872      7875      7876      7874      7872      7875      7877
      7874      7872      7875      7878      7875      7878      7880      7881
      7875      7878      7880      7882      7876      7875      7878      7879
      7876      7875      7878      7880      7877      7875      7878      7879
      7877      7875      7878      7880      7878      7880      7882      7883
      7878      7880      7882      7884      7878      7880      7882      7885
      7879      7878      7880      7881      7879      7878      7880      7882
      7880      7882      7885      7886      7880      7882      7885      7887
      7880      7882      7885      7888      7881      7880      7882      7883
      7881      7880      7882      7884      7881      7880      7882      7885
      7882      7885      7888      7889      7882      7885      7888      7890
      7882      7885      7888      7891      7883      7882      7885      7886
      7883      7882      7885      7887      7883      7882      7885      7888
      7884      7882      7885      7886      7884      7882      7885      7887
      7884      7882      7885      7888      7885      7888      7891      7892
      7885      7888      7891      7893      7885      7888      7891      7894
      7886      7885      7888      7889      7886      7885      7888      7890
      7886      7885      7888      7891      7887      7885      7888      7889
      7887      7885      7888      7890      7887      7885      7888      7891
      7888      7891      7894      7895      7888      7891      7894      7896
      7888      7891      7894      7897      7889      7888      7891      7892
      7889      7888      7891      7893      7889      7888      7891      7894
      7890      7888      7891      7892      7890      7888      7891      7893
      7890      7888      7891      7894      7891      7894      7897      7898
      7891      7894      7897      7899      7891      7894      7897      7900
      7892      7891      7894      7895      7892      7891      7894      7896
      7892      7891      7894      7897      7893      7891      7894      7895
      7893      7891      7894      7896      7893      7891      7894      7897
      7895      7894      7897      7898      7895      7894      7897      7899
      7895      7894      7897      7900      7896      7894      7897      7898
      7896      7894      7897      7899      7896      7894      7897      7900
      7901      7904      7907      7908      7901      7904      7907      7909
      7901      7904      7907      7910      7902      7901      7904      7905
      7902      7901      7904      7906      7902      7901      7904      7907
      7903      7901      7904      7905      7903      7901      7904      7906
      7903      7901      7904      7907      7904      7907      7910      7911
      7904      7907      7910      7912      7904      7907      7910      7913
      7905      7904      7907      7908      7905      7904      7907      7909
      7905      7904      7907      7910      7906      7904      7907      7908
      7906      7904      7907      7909      7906      7904      7907      7910
      7907      7910      7913      7914      7907      7910      7913      7915
      7907      7910      7913      7916      7908      7907      7910      7911
      7908      7907      7910      7912      7908      7907      7910      7913
      7909      7907      7910      7911      7909      7907      7910      7912
      7909      7907      7910      7913      7910      7913      7916      7917
      7910      7913      7916      7918      7910      7913      7916      7919
      7911      7910      7913      7914      7911      7910      7913      7915
      7911      7910      7913      7916      7912      7910      7913      7914
      7912      7910      7913      7915      7912      7910      7913      7916
      7913      7916      7919      7920      7913      7916      7919      7921
      7913      7916      7919      7922      7914      7913      7916      7917
      7914      7913      7916      7918      7914      7913      7916      7919
      7915      7913      7916      7917      7915      7913      7916      7918
      7915      7913      7916      7919      7916      7919      7922      7923
      7916      7919      7922      7924      7916      7919      7922      7925
      7917      7916      7919      7920      7917      7916      7919      7921
      7917      7916      7919      7922      7918      7916      7919      7920
      7918      7916      7919      7921      7918      7916      7919      7922
      7919      7922      7925      7926      7919      7922      7925      7927
      7919      7922      7925      7928      7920      7919      7922      7923
      7920      7919      7922      7924      7920      7919      7922      7925
      7921      7919      7922      7923      7921      7919      7922      7924
      7921      7919      7922      7925      7922      7925      7928      7929
      7922      7925      7928      7930      7922      7925      7928      7931
      7923      7922      7925      7926      7923      7922      7925      7927
      7923      7922      7925      7928      7924      7922      7925      7926
      7924      7922      7925      7927      7924      7922      7925      7928
      7925      7928      7931      7932      7925      7928      7931      7933
      7925      7928      7931      7934      7926      7925      7928      7929
      7926      7925      7928      7930      7926      7925      7928      7931
      7927      7925      7928      7929      7927      7925      7928      7930
      7927      7925      7928      7931      7928      7931      7934      7935
      7928      7931      7934      7936      7928      7931      7934      7937
      7929      7928      7931      7932      7929      7928      7931      7933
      7929      7928      7931      7934      7930      7928      7931      7932
      7930      7928      7931      7933      7930      7928      7931      7934
      7931      7934      7937      7938      7931      7934      7937      7939
      7931      7934      7937      7940      7932      7931      7934      7935
      7932      7931      7934      7936      7932      7931      7934      7937
      7933      7931      7934      7935      7933      7931      7934      7936
      7933      7931      7934      7937      7934      7937      7940      7941
      7934      7937      7940      7942      7934      7937      7940      7943
      7935      7934      7937      7938      7935      7934      7937      7939
      7935      7934      7937      7940      7936      7934      7937      7938
      7936      7934      7937      7939      7936      7934      7937      7940
      7938      7937      7940      7941      7938      7937      7940      7942
      7938      7937      7940      7943      7939      7937      7940      7941
      7939      7937      7940      7942      7939      7937      7940      7943
      7944      7948      7951      7952      7944      7948      7951      7953
      7944      7948      7951      7958      7945      7944      7948      7949
      7945      7944      7948      7950      7945      7944      7948      7951
      7946      7944      7948      7949      7946      7944      7948      7950
      7946      7944      7948      7951      7947      7944      7948      7949
      7947      7944      7948      7950      7947      7944      7948      7951
      7948      7951      7958      7954      7949      7948      7951      7952
      7949      7948      7951      7953      7949      7948      7951      7958
      7950      7948      7951      7952      7950      7948      7951      7953
      7950      7948      7951      7958      7951      7958      7954      7955
      7951      7958      7954      7956      7951      7958      7954      7957
      7952      7951      7958      7954      7953      7951      7958      7954
      7954      7957      7959      7960      7954      7957      7959      7961
      7954      7957      7959      7962      7955      7954      7957      7959
      7956      7954      7957      7959      7957      7959      7962      7963
      7957      7959      7962      7964      7957      7959      7962      7970
      7958      7954      7957      7959      7959      7962      7964      7965
      7959      7962      7970      7971      7959      7962      7970      7972
      7959      7962      7970      7973      7960      7959      7962      7963
      7960      7959      7962      7964      7960      7959      7962      7970
      7961      7959      7962      7963      7961      7959      7962      7964
      7961      7959      7962      7970      7962      7964      7965      7966
      7962      7964      7965      7967      7962      7970      7973      7974
      7963      7962      7964      7965      7963      7962      7970      7971
      7963      7962      7970      7972      7963      7962      7970      7973
      7964      7962      7970      7971      7964      7962      7970      7972
      7964      7962      7970      7973      7964      7965      7967      7968
      7964      7965      7967      7969      7964      7965      7967      7979
      7965      7964      7962      7970      7965      7967      7979      7980
      7965      7967      7979      7981      7965      7967      7979      7982
      7966      7965      7967      7968      7966      7965      7967      7969
      7966      7965      7967      7979      7967      7979      7982      7983
      7967      7979      7982      7984      7967      7979      7982      7985
      7968      7967      7979      7980      7968      7967      7979      7981
      7968      7967      7979      7982      7969      7967      7979      7980
      7969      7967      7979      7981      7969      7967      7979      7982
      7970      7973      7974      7975      7970      7973      7974      7976
      7971      7970      7973      7974      7972      7970      7973      7974
      7973      7974      7976      7977      7973      7974      7976      7978
      7973      7974      7976      8026      7974      7976      8026      8027
      7974      7976      8026      8028      7974      7976      8026      8029
      7975      7974      7976      7977      7975      7974      7976      7978
      7975      7974      7976      8026      7976      8026      8029      8030
      7976      8026      8029      8031      7976      8026      8029      8032
      7977      7976      8026      8027      7977      7976      8026      8028
      7977      7976      8026      8029      7978      7976      8026      8027
      7978      7976      8026      8028      7978      7976      8026      8029
      7979      7982      7985      7986      7979      7982      7985      7987
      7979      7982      7985      7988      7980      7979      7982      7983
      7980      7979      7982      7984      7980      7979      7982      7985
      7981      7979      7982      7983      7981      7979      7982      7984
      7981      7979      7982      7985      7982      7985      7988      7989
      7982      7985      7988      7990      7982      7985      7988      7991
      7983      7982      7985      7986      7983      7982      7985      7987
      7983      7982      7985      7988      7984      7982      7985      7986
      7984      7982      7985      7987      7984      7982      7985      7988
      7985      7988      7991      7992      7985      7988      7991      7993
      7985      7988      7991      7994      7986      7985      7988      7989
      7986      7985      7988      7990      7986      7985      7988      7991
      7987      7985      7988      7989      7987      7985      7988      7990
      7987      7985      7988      7991      7988      7991      7994      7995
      7988      7991      7994      7996      7988      7991      7994      7997
      7989      7988      7991      7992      7989      7988      7991      7993
      7989      7988      7991      7994      7990      7988      7991      7992
      7990      7988      7991      7993      7990      7988      7991      7994
      7991      7994      7997      7998      7991      7994      7997      7999
      7992      7991      7994      7995      7992      7991      7994      7996
      7992      7991      7994      7997      7993      7991      7994      7995
      7993      7991      7994      7996      7993      7991      7994      7997
      7994      7997      7999      8000      7994      7997      7999      8001
      7995      7994      7997      7998      7995      7994      7997      7999
      7996      7994      7997      7998      7996      7994      7997      7999
      7997      7999      8001      8002      7997      7999      8001      8003
      7997      7999      8001      8004      7998      7997      7999      8000
      7998      7997      7999      8001      7999      8001      8004      8005
      7999      8001      8004      8006      7999      8001      8004      8007
      8000      7999      8001      8002      8000      7999      8001      8003
      8000      7999      8001      8004      8001      8004      8007      8008
      8001      8004      8007      8009      8001      8004      8007      8010
      8002      8001      8004      8005      8002      8001      8004      8006
      8002      8001      8004      8007      8003      8001      8004      8005
      8003      8001      8004      8006      8003      8001      8004      8007
      8004      8007      8010      8011      8004      8007      8010      8012
      8004      8007      8010      8013      8005      8004      8007      8008
      8005      8004      8007      8009      8005      8004      8007      8010
      8006      8004      8007      8008      8006      8004      8007      8009
      8006      8004      8007      8010      8007      8010      8013      8014
      8007      8010      8013      8015      8007      8010      8013      8016
      8008      8007      8010      8011      8008      8007      8010      8012
      8008      8007      8010      8013      8009      8007      8010      8011
      8009      8007      8010      8012      8009      8007      8010      8013
      8010      8013      8016      8017      8010      8013      8016      8018
      8010      8013      8016      8019      8011      8010      8013      8014
      8011      8010      8013      8015      8011      8010      8013      8016
      8012      8010      8013      8014      8012      8010      8013      8015
      8012      8010      8013      8016      8013      8016      8019      8020
      8013      8016      8019      8021      8013      8016      8019      8022
      8014      8013      8016      8017      8014      8013      8016      8018
      8014      8013      8016      8019      8015      8013      8016      8017
      8015      8013      8016      8018      8015      8013      8016      8019
      8016      8019      8022      8023      8016      8019      8022      8024
      8016      8019      8022      8025      8017      8016      8019      8020
      8017      8016      8019      8021      8017      8016      8019      8022
      8018      8016      8019      8020      8018      8016      8019      8021
      8018      8016      8019      8022      8020      8019      8022      8023
      8020      8019      8022      8024      8020      8019      8022      8025
      8021      8019      8022      8023      8021      8019      8022      8024
      8021      8019      8022      8025      8026      8029      8032      8033
      8026      8029      8032      8034      8026      8029      8032      8035
      8027      8026      8029      8030      8027      8026      8029      8031
      8027      8026      8029      8032      8028      8026      8029      8030
      8028      8026      8029      8031      8028      8026      8029      8032
      8029      8032      8035      8036      8029      8032      8035      8037
      8029      8032      8035      8038      8030      8029      8032      8033
      8030      8029      8032      8034      8030      8029      8032      8035
      8031      8029      8032      8033      8031      8029      8032      8034
      8031      8029      8032      8035      8032      8035      8038      8039
      8032      8035      8038      8040      8032      8035      8038      8041
      8033      8032      8035      8036      8033      8032      8035      8037
      8033      8032      8035      8038      8034      8032      8035      8036
      8034      8032      8035      8037      8034      8032      8035      8038
      8035      8038      8041      8042      8035      8038      8041      8043
      8035      8038      8041      8044      8036      8035      8038      8039
      8036      8035      8038      8040      8036      8035      8038      8041
      8037      8035      8038      8039      8037      8035      8038      8040
      8037      8035      8038      8041      8038      8041      8044      8045
      8038      8041      8044      8046      8038      8041      8044      8047
      8039      8038      8041      8042      8039      8038      8041      8043
      8039      8038      8041      8044      8040      8038      8041      8042
      8040      8038      8041      8043      8040      8038      8041      8044
      8041      8044      8047      8048      8041      8044      8047      8049
      8041      8044      8047      8050      8042      8041      8044      8045
      8042      8041      8044      8046      8042      8041      8044      8047
      8043      8041      8044      8045      8043      8041      8044      8046
      8043      8041      8044      8047      8044      8047      8050      8051
      8044      8047      8050      8052      8044      8047      8050      8053
      8045      8044      8047      8048      8045      8044      8047      8049
      8045      8044      8047      8050      8046      8044      8047      8048
      8046      8044      8047      8049      8046      8044      8047      8050
      8047      8050      8053      8054      8047      8050      8053      8055
      8047      8050      8053      8056      8048      8047      8050      8051
      8048      8047      8050      8052      8048      8047      8050      8053
      8049      8047      8050      8051      8049      8047      8050      8052
      8049      8047      8050      8053      8050      8053      8056      8057
      8050      8053      8056      8058      8050      8053      8056      8059
      8051      8050      8053      8054      8051      8050      8053      8055
      8051      8050      8053      8056      8052      8050      8053      8054
      8052      8050      8053      8055      8052      8050      8053      8056
      8053      8056      8059      8060      8053      8056      8059      8061
      8053      8056      8059      8062      8054      8053      8056      8057
      8054      8053      8056      8058      8054      8053      8056      8059
      8055      8053      8056      8057      8055      8053      8056      8058
      8055      8053      8056      8059      8056      8059      8062      8063
      8056      8059      8062      8064      8056      8059      8062      8065
      8057      8056      8059      8060      8057      8056      8059      8061
      8057      8056      8059      8062      8058      8056      8059      8060
      8058      8056      8059      8061      8058      8056      8059      8062
      8059      8062      8065      8066      8059      8062      8065      8067
      8059      8062      8065      8068      8060      8059      8062      8063
      8060      8059      8062      8064      8060      8059      8062      8065
      8061      8059      8062      8063      8061      8059      8062      8064
      8061      8059      8062      8065      8063      8062      8065      8066
      8063      8062      8065      8067      8063      8062      8065      8068
      8064      8062      8065      8066      8064      8062      8065      8067
      8064      8062      8065      8068      8069      8073      8076      8077
      8069      8073      8076      8078      8069      8073      8076      8083
      8070      8069      8073      8074      8070      8069      8073      8075
      8070      8069      8073      8076      8071      8069      8073      8074
      8071      8069      8073      8075      8071      8069      8073      8076
      8072      8069      8073      8074      8072      8069      8073      8075
      8072      8069      8073      8076      8073      8076      8083      8079
      8074      8073      8076      8077      8074      8073      8076      8078
      8074      8073      8076      8083      8075      8073      8076      8077
      8075      8073      8076      8078      8075      8073      8076      8083
      8076      8083      8079      8080      8076      8083      8079      8081
      8076      8083      8079      8082      8077      8076      8083      8079
      8078      8076      8083      8079      8079      8082      8084      8085
      8079      8082      8084      8086      8079      8082      8084      8087
      8080      8079      8082      8084      8081      8079      8082      8084
      8082      8084      8087      8088      8082      8084      8087      8089
      8082      8084      8087      8095      8083      8079      8082      8084
      8084      8087      8089      8090      8084      8087      8095      8096
      8084      8087      8095      8097      8084      8087      8095      8098
      8085      8084      8087      8088      8085      8084      8087      8089
      8085      8084      8087      8095      8086      8084      8087      8088
      8086      8084      8087      8089      8086      8084      8087      8095
      8087      8089      8090      8091      8087      8089      8090      8092
      8087      8095      8098      8099      8088      8087      8089      8090
      8088      8087      8095      8096      8088      8087      8095      8097
      8088      8087      8095      8098      8089      8087      8095      8096
      8089      8087      8095      8097      8089      8087      8095      8098
      8089      8090      8092      8093      8089      8090      8092      8094
      8089      8090      8092      8104      8090      8089      8087      8095
      8090      8092      8104      8105      8090      8092      8104      8106
      8090      8092      8104      8107      8091      8090      8092      8093
      8091      8090      8092      8094      8091      8090      8092      8104
      8092      8104      8107      8108      8092      8104      8107      8109
      8092      8104      8107      8110      8093      8092      8104      8105
      8093      8092      8104      8106      8093      8092      8104      8107
      8094      8092      8104      8105      8094      8092      8104      8106
      8094      8092      8104      8107      8095      8098      8099      8100
      8095      8098      8099      8101      8096      8095      8098      8099
      8097      8095      8098      8099      8098      8099      8101      8102
      8098      8099      8101      8103      8098      8099      8101      8145
      8099      8101      8145      8146      8099      8101      8145      8147
      8099      8101      8145      8148      8100      8099      8101      8102
      8100      8099      8101      8103      8100      8099      8101      8145
      8101      8145      8148      8149      8101      8145      8148      8150
      8101      8145      8148      8151      8102      8101      8145      8146
      8102      8101      8145      8147      8102      8101      8145      8148
      8103      8101      8145      8146      8103      8101      8145      8147
      8103      8101      8145      8148      8104      8107      8110      8111
      8104      8107      8110      8112      8104      8107      8110      8113
      8105      8104      8107      8108      8105      8104      8107      8109
      8105      8104      8107      8110      8106      8104      8107      8108
      8106      8104      8107      8109      8106      8104      8107      8110
      8107      8110      8113      8114      8107      8110      8113      8115
      8107      8110      8113      8116      8108      8107      8110      8111
      8108      8107      8110      8112      8108      8107      8110      8113
      8109      8107      8110      8111      8109      8107      8110      8112
      8109      8107      8110      8113      8110      8113      8116      8117
      8110      8113      8116      8118      8110      8113      8116      8119
      8111      8110      8113      8114      8111      8110      8113      8115
      8111      8110      8113      8116      8112      8110      8113      8114
      8112      8110      8113      8115      8112      8110      8113      8116
      8113      8116      8119      8120      8113      8116      8119      8121
      8113      8116      8119      8122      8114      8113      8116      8117
      8114      8113      8116      8118      8114      8113      8116      8119
      8115      8113      8116      8117      8115      8113      8116      8118
      8115      8113      8116      8119      8116      8119      8122      8123
      8116      8119      8122      8124      8117      8116      8119      8120
      8117      8116      8119      8121      8117      8116      8119      8122
      8118      8116      8119      8120      8118      8116      8119      8121
      8118      8116      8119      8122      8119      8122      8124      8125
      8119      8122      8124      8126      8120      8119      8122      8123
      8120      8119      8122      8124      8121      8119      8122      8123
      8121      8119      8122      8124      8122      8124      8126      8127
      8122      8124      8126      8128      8122      8124      8126      8129
      8123      8122      8124      8125      8123      8122      8124      8126
      8124      8126      8129      8130      8124      8126      8129      8131
      8124      8126      8129      8132      8125      8124      8126      8127
      8125      8124      8126      8128      8125      8124      8126      8129
      8126      8129      8132      8133      8126      8129      8132      8134
      8126      8129      8132      8135      8127      8126      8129      8130
      8127      8126      8129      8131      8127      8126      8129      8132
      8128      8126      8129      8130      8128      8126      8129      8131
      8128      8126      8129      8132      8129      8132      8135      8136
      8129      8132      8135      8137      8129      8132      8135      8138
      8130      8129      8132      8133      8130      8129      8132      8134
      8130      8129      8132      8135      8131      8129      8132      8133
      8131      8129      8132      8134      8131      8129      8132      8135
      8132      8135      8138      8139      8132      8135      8138      8140
      8132      8135      8138      8141      8133      8132      8135      8136
      8133      8132      8135      8137      8133      8132      8135      8138
      8134      8132      8135      8136      8134      8132      8135      8137
      8134      8132      8135      8138      8135      8138      8141      8142
      8135      8138      8141      8143      8135      8138      8141      8144
      8136      8135      8138      8139      8136      8135      8138      8140
      8136      8135      8138      8141      8137      8135      8138      8139
      8137      8135      8138      8140      8137      8135      8138      8141
      8139      8138      8141      8142      8139      8138      8141      8143
      8139      8138      8141      8144      8140      8138      8141      8142
      8140      8138      8141      8143      8140      8138      8141      8144
      8145      8148      8151      8152      8145      8148      8151      8153
      8145      8148      8151      8154      8146      8145      8148      8149
      8146      8145      8148      8150      8146      8145      8148      8151
      8147      8145      8148      8149      8147      8145      8148      8150
      8147      8145      8148      8151      8148      8151      8154      8155
      8148      8151      8154      8156      8148      8151      8154      8157
      8149      8148      8151      8152      8149      8148      8151      8153
      8149      8148      8151      8154      8150      8148      8151      8152
      8150      8148      8151      8153      8150      8148      8151      8154
      8151      8154      8157      8158      8151      8154      8157      8159
      8151      8154      8157      8160      8152      8151      8154      8155
      8152      8151      8154      8156      8152      8151      8154      8157
      8153      8151      8154      8155      8153      8151      8154      8156
      8153      8151      8154      8157      8154      8157      8160      8161
      8154      8157      8160      8162      8154      8157      8160      8163
      8155      8154      8157      8158      8155      8154      8157      8159
      8155      8154      8157      8160      8156      8154      8157      8158
      8156      8154      8157      8159      8156      8154      8157      8160
      8157      8160      8163      8164      8157      8160      8163      8165
      8158      8157      8160      8161      8158      8157      8160      8162
      8158      8157      8160      8163      8159      8157      8160      8161
      8159      8157      8160      8162      8159      8157      8160      8163
      8160      8163      8165      8166      8160      8163      8165      8167
      8161      8160      8163      8164      8161      8160      8163      8165
      8162      8160      8163      8164      8162      8160      8163      8165
      8163      8165      8167      8168      8163      8165      8167      8169
      8163      8165      8167      8170      8164      8163      8165      8166
      8164      8163      8165      8167      8165      8167      8170      8171
      8165      8167      8170      8172      8165      8167      8170      8173
      8166      8165      8167      8168      8166      8165      8167      8169
      8166      8165      8167      8170      8167      8170      8173      8174
      8167      8170      8173      8175      8167      8170      8173      8176
      8168      8167      8170      8171      8168      8167      8170      8172
      8168      8167      8170      8173      8169      8167      8170      8171
      8169      8167      8170      8172      8169      8167      8170      8173
      8170      8173      8176      8177      8170      8173      8176      8178
      8170      8173      8176      8179      8171      8170      8173      8174
      8171      8170      8173      8175      8171      8170      8173      8176
      8172      8170      8173      8174      8172      8170      8173      8175
      8172      8170      8173      8176      8173      8176      8179      8180
      8173      8176      8179      8181      8173      8176      8179      8182
      8174      8173      8176      8177      8174      8173      8176      8178
      8174      8173      8176      8179      8175      8173      8176      8177
      8175      8173      8176      8178      8175      8173      8176      8179
      8176      8179      8182      8183      8176      8179      8182      8184
      8176      8179      8182      8185      8177      8176      8179      8180
      8177      8176      8179      8181      8177      8176      8179      8182
      8178      8176      8179      8180      8178      8176      8179      8181
      8178      8176      8179      8182      8179      8182      8185      8186
      8179      8182      8185      8187      8179      8182      8185      8188
      8180      8179      8182      8183      8180      8179      8182      8184
      8180      8179      8182      8185      8181      8179      8182      8183
      8181      8179      8182      8184      8181      8179      8182      8185
      8182      8185      8188      8189      8182      8185      8188      8190
      8182      8185      8188      8191      8183      8182      8185      8186
      8183      8182      8185      8187      8183      8182      8185      8188
      8184      8182      8185      8186      8184      8182      8185      8187
      8184      8182      8185      8188      8186      8185      8188      8189
      8186      8185      8188      8190      8186      8185      8188      8191
      8187      8185      8188      8189      8187      8185      8188      8190
      8187      8185      8188      8191      8192      8196      8199      8200
      8192      8196      8199      8201      8192      8196      8199      8206
      8193      8192      8196      8197      8193      8192      8196      8198
      8193      8192      8196      8199      8194      8192      8196      8197
      8194      8192      8196      8198      8194      8192      8196      8199
      8195      8192      8196      8197      8195      8192      8196      8198
      8195      8192      8196      8199      8196      8199      8206      8202
      8197      8196      8199      8200      8197      8196      8199      8201
      8197      8196      8199      8206      8198      8196      8199      8200
      8198      8196      8199      8201      8198      8196      8199      8206
      8199      8206      8202      8203      8199      8206      8202      8204
      8199      8206      8202      8205      8200      8199      8206      8202
      8201      8199      8206      8202      8202      8205      8207      8208
      8202      8205      8207      8209      8202      8205      8207      8210
      8203      8202      8205      8207      8204      8202      8205      8207
      8205      8207      8210      8211      8205      8207      8210      8212
      8205      8207      8210      8218      8206      8202      8205      8207
      8207      8210      8212      8213      8207      8210      8218      8219
      8207      8210      8218      8220      8207      8210      8218      8221
      8208      8207      8210      8211      8208      8207      8210      8212
      8208      8207      8210      8218      8209      8207      8210      8211
      8209      8207      8210      8212      8209      8207      8210      8218
      8210      8212      8213      8214      8210      8212      8213      8215
      8210      8218      8221      8222      8211      8210      8212      8213
      8211      8210      8218      8219      8211      8210      8218      8220
      8211      8210      8218      8221      8212      8210      8218      8219
      8212      8210      8218      8220      8212      8210      8218      8221
      8212      8213      8215      8216      8212      8213      8215      8217
      8212      8213      8215      8227      8213      8212      8210      8218
      8213      8215      8227      8228      8213      8215      8227      8229
      8213      8215      8227      8230      8214      8213      8215      8216
      8214      8213      8215      8217      8214      8213      8215      8227
      8215      8227      8230      8231      8215      8227      8230      8232
      8215      8227      8230      8233      8216      8215      8227      8228
      8216      8215      8227      8229      8216      8215      8227      8230
      8217      8215      8227      8228      8217      8215      8227      8229
      8217      8215      8227      8230      8218      8221      8222      8223
      8218      8221      8222      8224      8219      8218      8221      8222
      8220      8218      8221      8222      8221      8222      8224      8225
      8221      8222      8224      8226      8221      8222      8224      8271
      8222      8224      8271      8272      8222      8224      8271      8273
      8222      8224      8271      8274      8223      8222      8224      8225
      8223      8222      8224      8226      8223      8222      8224      8271
      8224      8271      8274      8275      8224      8271      8274      8276
      8224      8271      8274      8277      8225      8224      8271      8272
      8225      8224      8271      8273      8225      8224      8271      8274
      8226      8224      8271      8272      8226      8224      8271      8273
      8226      8224      8271      8274      8227      8230      8233      8234
      8227      8230      8233      8235      8227      8230      8233      8236
      8228      8227      8230      8231      8228      8227      8230      8232
      8228      8227      8230      8233      8229      8227      8230      8231
      8229      8227      8230      8232      8229      8227      8230      8233
      8230      8233      8236      8237      8230      8233      8236      8238
      8230      8233      8236      8239      8231      8230      8233      8234
      8231      8230      8233      8235      8231      8230      8233      8236
      8232      8230      8233      8234      8232      8230      8233      8235
      8232      8230      8233      8236      8233      8236      8239      8240
      8233      8236      8239      8241      8233      8236      8239      8242
      8234      8233      8236      8237      8234      8233      8236      8238
      8234      8233      8236      8239      8235      8233      8236      8237
      8235      8233      8236      8238      8235      8233      8236      8239
      8236      8239      8242      8243      8236      8239      8242      8244
      8236      8239      8242      8245      8237      8236      8239      8240
      8237      8236      8239      8241      8237      8236      8239      8242
      8238      8236      8239      8240      8238      8236      8239      8241
      8238      8236      8239      8242      8239      8242      8245      8246
      8239      8242      8245      8247      8239      8242      8245      8250
      8240      8239      8242      8243      8240      8239      8242      8244
      8240      8239      8242      8245      8241      8239      8242      8243
      8241      8239      8242      8244      8241      8239      8242      8245
      8242      8245      8247      8248      8242      8245      8247      8249
      8242      8245      8247      8250      8242      8245      8250      8247
      8242      8245      8250      8251      8242      8245      8250      8252
      8243      8242      8245      8246      8243      8242      8245      8247
      8243      8242      8245      8250      8244      8242      8245      8246
      8244      8242      8245      8247      8244      8242      8245      8250
      8245      8247      8250      8251      8245      8247      8250      8252
      8245      8250      8247      8248      8245      8250      8247      8249
      8245      8250      8252      8253      8245      8250      8252      8254
      8245      8250      8252      8255      8246      8245      8247      8248
      8246      8245      8247      8249      8246      8245      8247      8250
      8246      8245      8250      8247      8246      8245      8250      8251
      8246      8245      8250      8252      8247      8245      8250      8251
      8247      8245      8250      8252      8247      8250      8252      8253
      8247      8250      8252      8254      8247      8250      8252      8255
      8248      8247      8245      8250      8248      8247      8250      8251
      8248      8247      8250      8252      8249      8247      8245      8250
      8249      8247      8250      8251      8249      8247      8250      8252
      8250      8252      8255      8256      8250      8252      8255      8257
      8250      8252      8255      8258      8251      8250      8252      8253
      8251      8250      8252      8254      8251      8250      8252      8255
      8252      8255      8258      8259      8252      8255      8258      8260
      8252      8255      8258      8261      8253      8252      8255      8256
      8253      8252      8255      8257      8253      8252      8255      8258
      8254      8252      8255      8256      8254      8252      8255      8257
      8254      8252      8255      8258      8255      8258      8261      8262
      8255      8258      8261      8263      8255      8258      8261      8264
      8256      8255      8258      8259      8256      8255      8258      8260
      8256      8255      8258      8261      8257      8255      8258      8259
      8257      8255      8258      8260      8257      8255      8258      8261
      8258      8261      8264      8265      8258      8261      8264      8266
      8258      8261      8264      8267      8259      8258      8261      8262
      8259      8258      8261      8263      8259      8258      8261      8264
      8260      8258      8261      8262      8260      8258      8261      8263
      8260      8258      8261      8264      8261      8264      8267      8268
      8261      8264      8267      8269      8261      8264      8267      8270
      8262      8261      8264      8265      8262      8261      8264      8266
      8262      8261      8264      8267      8263      8261      8264      8265
      8263      8261      8264      8266      8263      8261      8264      8267
      8265      8264      8267      8268      8265      8264      8267      8269
      8265      8264      8267      8270      8266      8264      8267      8268
      8266      8264      8267      8269      8266      8264      8267      8270
      8271      8274      8277      8278      8271      8274      8277      8279
      8271      8274      8277      8280      8272      8271      8274      8275
      8272      8271      8274      8276      8272      8271      8274      8277
      8273      8271      8274      8275      8273      8271      8274      8276
      8273      8271      8274      8277      8274      8277      8280      8281
      8274      8277      8280      8282      8274      8277      8280      8283
      8275      8274      8277      8278      8275      8274      8277      8279
      8275      8274      8277      8280      8276      8274      8277      8278
      8276      8274      8277      8279      8276      8274      8277      8280
      8277      8280      8283      8284      8277      8280      8283      8285
      8277      8280      8283      8286      8278      8277      8280      8281
      8278      8277      8280      8282      8278      8277      8280      8283
      8279      8277      8280      8281      8279      8277      8280      8282
      8279      8277      8280      8283      8280      8283      8286      8287
      8280      8283      8286      8288      8280      8283      8286      8289
      8281      8280      8283      8284      8281      8280      8283      8285
      8281      8280      8283      8286      8282      8280      8283      8284
      8282      8280      8283      8285      8282      8280      8283      8286
      8283      8286      8289      8290      8283      8286      8289      8291
      8283      8286      8289      8292      8284      8283      8286      8287
      8284      8283      8286      8288      8284      8283      8286      8289
      8285      8283      8286      8287      8285      8283      8286      8288
      8285      8283      8286      8289      8286      8289      8292      8293
      8286      8289      8292      8294      8286      8289      8292      8295
      8287      8286      8289      8290      8287      8286      8289      8291
      8287      8286      8289      8292      8288      8286      8289      8290
      8288      8286      8289      8291      8288      8286      8289      8292
      8289      8292      8295      8296      8289      8292      8295      8297
      8289      8292      8295      8298      8290      8289      8292      8293
      8290      8289      8292      8294      8290      8289      8292      8295
      8291      8289      8292      8293      8291      8289      8292      8294
      8291      8289      8292      8295      8292      8295      8298      8299
      8292      8295      8298      8300      8292      8295      8298      8301
      8293      8292      8295      8296      8293      8292      8295      8297
      8293      8292      8295      8298      8294      8292      8295      8296
      8294      8292      8295      8297      8294      8292      8295      8298
      8295      8298      8301      8302      8295      8298      8301      8303
      8295      8298      8301      8304      8296      8295      8298      8299
      8296      8295      8298      8300      8296      8295      8298      8301
      8297      8295      8298      8299      8297      8295      8298      8300
      8297      8295      8298      8301      8298      8301      8304      8305
      8298      8301      8304      8306      8298      8301      8304      8307
      8299      8298      8301      8302      8299      8298      8301      8303
      8299      8298      8301      8304      8300      8298      8301      8302
      8300      8298      8301      8303      8300      8298      8301      8304
      8301      8304      8307      8308      8301      8304      8307      8309
      8301      8304      8307      8310      8302      8301      8304      8305
      8302      8301      8304      8306      8302      8301      8304      8307
      8303      8301      8304      8305      8303      8301      8304      8306
      8303      8301      8304      8307      8304      8307      8310      8311
      8304      8307      8310      8312      8304      8307      8310      8313
      8305      8304      8307      8308      8305      8304      8307      8309
      8305      8304      8307      8310      8306      8304      8307      8308
      8306      8304      8307      8309      8306      8304      8307      8310
      8308      8307      8310      8311      8308      8307      8310      8312
      8308      8307      8310      8313      8309      8307      8310      8311
      8309      8307      8310      8312      8309      8307      8310      8313
      8314      8319      8321      8322      8314      8319      8323      8324
      8314      8319      8323      8325      8314      8319      8323      8330
      8315      8314      8317      8318      8315      8314      8319      8320
      8315      8314      8319      8321      8315      8314      8319      8323
      8316      8314      8317      8318      8316      8314      8319      8320
      8316      8314      8319      8321      8316      8314      8319      8323
      8317      8314      8319      8320      8317      8314      8319      8321
      8317      8314      8319      8323      8318      8317      8314      8319
      8319      8323      8330      8326      8320      8319      8321      8322
      8320      8319      8323      8324      8320      8319      8323      8325
      8320      8319      8323      8330      8321      8319      8323      8324
      8321      8319      8323      8325      8321      8319      8323      8330
      8322      8321      8319      8323      8323      8330      8326      8327
      8323      8330      8326      8328      8323      8330      8326      8329
      8324      8323      8330      8326      8325      8323      8330      8326
      8326      8329      8331      8332      8326      8329      8331      8333
      8326      8329      8331      8334      8327      8326      8329      8331
      8328      8326      8329      8331      8329      8331      8334      8335
      8329      8331      8334      8336      8329      8331      8334      8342
      8330      8326      8329      8331      8331      8334      8336      8337
      8331      8334      8342      8343      8331      8334      8342      8344
      8331      8334      8342      8345      8332      8331      8334      8335
      8332      8331      8334      8336      8332      8331      8334      8342
      8333      8331      8334      8335      8333      8331      8334      8336
      8333      8331      8334      8342      8334      8336      8337      8338
      8334      8336      8337      8339      8334      8342      8345      8346
      8335      8334      8336      8337      8335      8334      8342      8343
      8335      8334      8342      8344      8335      8334      8342      8345
      8336      8334      8342      8343      8336      8334      8342      8344
      8336      8334      8342      8345      8336      8337      8339      8340
      8336      8337      8339      8341      8336      8337      8339      8351
      8337      8336      8334      8342      8337      8339      8351      8352
      8337      8339      8351      8353      8337      8339      8351      8354
      8338      8337      8339      8340      8338      8337      8339      8341
      8338      8337      8339      8351      8339      8351      8354      8355
      8339      8351      8354      8356      8339      8351      8354      8357
      8340      8339      8351      8352      8340      8339      8351      8353
      8340      8339      8351      8354      8341      8339      8351      8352
      8341      8339      8351      8353      8341      8339      8351      8354
      8342      8345      8346      8347      8342      8345      8346      8348
      8343      8342      8345      8346      8344      8342      8345      8346
      8345      8346      8348      8349      8345      8346      8348      8350
      8345      8346      8348      8392      8346      8348      8392      8393
      8346      8348      8392      8394      8346      8348      8392      8395
      8347      8346      8348      8349      8347      8346      8348      8350
      8347      8346      8348      8392      8348      8392      8395      8396
      8348      8392      8395      8397      8348      8392      8395      8398
      8349      8348      8392      8393      8349      8348      8392      8394
      8349      8348      8392      8395      8350      8348      8392      8393
      8350      8348      8392      8394      8350      8348      8392      8395
      8351      8354      8357      8358      8351      8354      8357      8359
      8351      8354      8357      8360      8352      8351      8354      8355
      8352      8351      8354      8356      8352      8351      8354      8357
      8353      8351      8354      8355      8353      8351      8354      8356
      8353      8351      8354      8357      8354      8357      8360      8361
      8354      8357      8360      8362      8354      8357      8360      8363
      8355      8354      8357      8358      8355      8354      8357      8359
      8355      8354      8357      8360      8356      8354      8357      8358
      8356      8354      8357      8359      8356      8354      8357      8360
      8357      8360      8363      8364      8357      8360      8363      8365
      8357      8360      8363      8366      8358      8357      8360      8361
      8358      8357      8360      8362      8358      8357      8360      8363
      8359      8357      8360      8361      8359      8357      8360      8362
      8359      8357      8360      8363      8360      8363      8366      8367
      8360      8363      8366      8368      8360      8363      8366      8369
      8361      8360      8363      8364      8361      8360      8363      8365
      8361      8360      8363      8366      8362      8360      8363      8364
      8362      8360      8363      8365      8362      8360      8363      8366
      8363      8366      8369      8370      8363      8366      8369      8371
      8364      8363      8366      8367      8364      8363      8366      8368
      8364      8363      8366      8369      8365      8363      8366      8367
      8365      8363      8366      8368      8365      8363      8366      8369
      8366      8369      8371      8372      8366      8369      8371      8373
      8367      8366      8369      8370      8367      8366      8369      8371
      8368      8366      8369      8370      8368      8366      8369      8371
      8369      8371      8373      8374      8369      8371      8373      8375
      8369      8371      8373      8376      8370      8369      8371      8372
      8370      8369      8371      8373      8371      8373      8376      8377
      8371      8373      8376      8378      8371      8373      8376      8379
      8372      8371      8373      8374      8372      8371      8373      8375
      8372      8371      8373      8376      8373      8376      8379      8380
      8373      8376      8379      8381      8373      8376      8379      8382
      8374      8373      8376      8377      8374      8373      8376      8378
      8374      8373      8376      8379      8375      8373      8376      8377
      8375      8373      8376      8378      8375      8373      8376      8379
      8376      8379      8382      8383      8376      8379      8382      8384
      8376      8379      8382      8385      8377      8376      8379      8380
      8377      8376      8379      8381      8377      8376      8379      8382
      8378      8376      8379      8380      8378      8376      8379      8381
      8378      8376      8379      8382      8379      8382      8385      8386
      8379      8382      8385      8387      8379      8382      8385      8388
      8380      8379      8382      8383      8380      8379      8382      8384
      8380      8379      8382      8385      8381      8379      8382      8383
      8381      8379      8382      8384      8381      8379      8382      8385
      8382      8385      8388      8389      8382      8385      8388      8390
      8382      8385      8388      8391      8383      8382      8385      8386
      8383      8382      8385      8387      8383      8382      8385      8388
      8384      8382      8385      8386      8384      8382      8385      8387
      8384      8382      8385      8388      8386      8385      8388      8389
      8386      8385      8388      8390      8386      8385      8388      8391
      8387      8385      8388      8389      8387      8385      8388      8390
      8387      8385      8388      8391      8392      8395      8398      8399
      8392      8395      8398      8400      8392      8395      8398      8401
      8393      8392      8395      8396      8393      8392      8395      8397
      8393      8392      8395      8398      8394      8392      8395      8396
      8394      8392      8395      8397      8394      8392      8395      8398
      8395      8398      8401      8402      8395      8398      8401      8403
      8395      8398      8401      8404      8396      8395      8398      8399
      8396      8395      8398      8400      8396      8395      8398      8401
      8397      8395      8398      8399      8397      8395      8398      8400
      8397      8395      8398      8401      8398      8401      8404      8405
      8398      8401      8404      8406      8398      8401      8404      8407
      8399      8398      8401      8402      8399      8398      8401      8403
      8399      8398      8401      8404      8400      8398      8401      8402
      8400      8398      8401      8403      8400      8398      8401      8404
      8401      8404      8407      8408      8401      8404      8407      8409
      8401      8404      8407      8410      8402      8401      8404      8405
      8402      8401      8404      8406      8402      8401      8404      8407
      8403      8401      8404      8405      8403      8401      8404      8406
      8403      8401      8404      8407      8404      8407      8410      8411
      8404      8407      8410      8412      8404      8407      8410      8413
      8405      8404      8407      8408      8405      8404      8407      8409
      8405      8404      8407      8410      8406      8404      8407      8408
      8406      8404      8407      8409      8406      8404      8407      8410
      8407      8410      8413      8414      8407      8410      8413      8415
      8407      8410      8413      8416      8408      8407      8410      8411
      8408      8407      8410      8412      8408      8407      8410      8413
      8409      8407      8410      8411      8409      8407      8410      8412
      8409      8407      8410      8413      8410      8413      8416      8417
      8410      8413      8416      8418      8410      8413      8416      8419
      8411      8410      8413      8414      8411      8410      8413      8415
      8411      8410      8413      8416      8412      8410      8413      8414
      8412      8410      8413      8415      8412      8410      8413      8416
      8413      8416      8419      8420      8413      8416      8419      8421
      8413      8416      8419      8422      8414      8413      8416      8417
      8414      8413      8416      8418      8414      8413      8416      8419
      8415      8413      8416      8417      8415      8413      8416      8418
      8415      8413      8416      8419      8416      8419      8422      8423
      8416      8419      8422      8424      8416      8419      8422      8425
      8417      8416      8419      8420      8417      8416      8419      8421
      8417      8416      8419      8422      8418      8416      8419      8420
      8418      8416      8419      8421      8418      8416      8419      8422
      8419      8422      8425      8426      8419      8422      8425      8427
      8419      8422      8425      8428      8420      8419      8422      8423
      8420      8419      8422      8424      8420      8419      8422      8425
      8421      8419      8422      8423      8421      8419      8422      8424
      8421      8419      8422      8425      8422      8425      8428      8429
      8422      8425      8428      8430      8422      8425      8428      8431
      8423      8422      8425      8426      8423      8422      8425      8427
      8423      8422      8425      8428      8424      8422      8425      8426
      8424      8422      8425      8427      8424      8422      8425      8428
      8425      8428      8431      8432      8425      8428      8431      8433
      8425      8428      8431      8434      8426      8425      8428      8429
      8426      8425      8428      8430      8426      8425      8428      8431
      8427      8425      8428      8429      8427      8425      8428      8430
      8427      8425      8428      8431      8429      8428      8431      8432
      8429      8428      8431      8433      8429      8428      8431      8434
      8430      8428      8431      8432      8430      8428      8431      8433
      8430      8428      8431      8434      8435      8439      8442      8443
      8435      8439      8442      8444      8435      8439      8442      8449
      8436      8435      8439      8440      8436      8435      8439      8441
      8436      8435      8439      8442      8437      8435      8439      8440
      8437      8435      8439      8441      8437      8435      8439      8442
      8438      8435      8439      8440      8438      8435      8439      8441
      8438      8435      8439      8442      8439      8442      8449      8445
      8440      8439      8442      8443      8440      8439      8442      8444
      8440      8439      8442      8449      8441      8439      8442      8443
      8441      8439      8442      8444      8441      8439      8442      8449
      8442      8449      8445      8446      8442      8449      8445      8447
      8442      8449      8445      8448      8443      8442      8449      8445
      8444      8442      8449      8445      8445      8448      8450      8451
      8445      8448      8450      8452      8445      8448      8450      8453
      8446      8445      8448      8450      8447      8445      8448      8450
      8448      8450      8453      8454      8448      8450      8453      8455
      8448      8450      8453      8461      8449      8445      8448      8450
      8450      8453      8455      8456      8450      8453      8461      8462
      8450      8453      8461      8463      8450      8453      8461      8464
      8451      8450      8453      8454      8451      8450      8453      8455
      8451      8450      8453      8461      8452      8450      8453      8454
      8452      8450      8453      8455      8452      8450      8453      8461
      8453      8455      8456      8457      8453      8455      8456      8458
      8453      8461      8464      8465      8454      8453      8455      8456
      8454      8453      8461      8462      8454      8453      8461      8463
      8454      8453      8461      8464      8455      8453      8461      8462
      8455      8453      8461      8463      8455      8453      8461      8464
      8455      8456      8458      8459      8455      8456      8458      8460
      8455      8456      8458      8470      8456      8455      8453      8461
      8456      8458      8470      8471      8456      8458      8470      8472
      8456      8458      8470      8473      8457      8456      8458      8459
      8457      8456      8458      8460      8457      8456      8458      8470
      8458      8470      8473      8474      8458      8470      8473      8475
      8458      8470      8473      8476      8459      8458      8470      8471
      8459      8458      8470      8472      8459      8458      8470      8473
      8460      8458      8470      8471      8460      8458      8470      8472
      8460      8458      8470      8473      8461      8464      8465      8466
      8461      8464      8465      8467      8462      8461      8464      8465
      8463      8461      8464      8465      8464      8465      8467      8468
      8464      8465      8467      8469      8464      8465      8467      8514
      8465      8467      8514      8515      8465      8467      8514      8516
      8465      8467      8514      8517      8466      8465      8467      8468
      8466      8465      8467      8469      8466      8465      8467      8514
      8467      8514      8517      8518      8467      8514      8517      8519
      8467      8514      8517      8520      8468      8467      8514      8515
      8468      8467      8514      8516      8468      8467      8514      8517
      8469      8467      8514      8515      8469      8467      8514      8516
      8469      8467      8514      8517      8470      8473      8476      8477
      8470      8473      8476      8478      8470      8473      8476      8479
      8471      8470      8473      8474      8471      8470      8473      8475
      8471      8470      8473      8476      8472      8470      8473      8474
      8472      8470      8473      8475      8472      8470      8473      8476
      8473      8476      8479      8480      8473      8476      8479      8481
      8473      8476      8479      8482      8474      8473      8476      8477
      8474      8473      8476      8478      8474      8473      8476      8479
      8475      8473      8476      8477      8475      8473      8476      8478
      8475      8473      8476      8479      8476      8479      8482      8483
      8476      8479      8482      8484      8476      8479      8482      8485
      8477      8476      8479      8480      8477      8476      8479      8481
      8477      8476      8479      8482      8478      8476      8479      8480
      8478      8476      8479      8481      8478      8476      8479      8482
      8479      8482      8485      8486      8479      8482      8485      8487
      8479      8482      8485      8488      8480      8479      8482      8483
      8480      8479      8482      8484      8480      8479      8482      8485
      8481      8479      8482      8483      8481      8479      8482      8484
      8481      8479      8482      8485      8482      8485      8488      8489
      8482      8485      8488      8490      8482      8485      8488      8493
      8483      8482      8485      8486      8483      8482      8485      8487
      8483      8482      8485      8488      8484      8482      8485      8486
      8484      8482      8485      8487      8484      8482      8485      8488
      8485      8488      8490      8491      8485      8488      8490      8492
      8485      8488      8490      8493      8485      8488      8493      8490
      8485      8488      8493      8494      8485      8488      8493      8495
      8486      8485      8488      8489      8486      8485      8488      8490
      8486      8485      8488      8493      8487      8485      8488      8489
      8487      8485      8488      8490      8487      8485      8488      8493
      8488      8490      8493      8494      8488      8490      8493      8495
      8488      8493      8490      8491      8488      8493      8490      8492
      8488      8493      8495      8496      8488      8493      8495      8497
      8488      8493      8495      8498      8489      8488      8490      8491
      8489      8488      8490      8492      8489      8488      8490      8493
      8489      8488      8493      8490      8489      8488      8493      8494
      8489      8488      8493      8495      8490      8488      8493      8494
      8490      8488      8493      8495      8490      8493      8495      8496
      8490      8493      8495      8497      8490      8493      8495      8498
      8491      8490      8488      8493      8491      8490      8493      8494
      8491      8490      8493      8495      8492      8490      8488      8493
      8492      8490      8493      8494      8492      8490      8493      8495
      8493      8495      8498      8499      8493      8495      8498      8500
      8493      8495      8498      8501      8494      8493      8495      8496
      8494      8493      8495      8497      8494      8493      8495      8498
      8495      8498      8501      8502      8495      8498      8501      8503
      8495      8498      8501      8504      8496      8495      8498      8499
      8496      8495      8498      8500      8496      8495      8498      8501
      8497      8495      8498      8499      8497      8495      8498      8500
      8497      8495      8498      8501      8498      8501      8504      8505
      8498      8501      8504      8506      8498      8501      8504      8507
      8499      8498      8501      8502      8499      8498      8501      8503
      8499      8498      8501      8504      8500      8498      8501      8502
      8500      8498      8501      8503      8500      8498      8501      8504
      8501      8504      8507      8508      8501      8504      8507      8509
      8501      8504      8507      8510      8502      8501      8504      8505
      8502      8501      8504      8506      8502      8501      8504      8507
      8503      8501      8504      8505      8503      8501      8504      8506
      8503      8501      8504      8507      8504      8507      8510      8511
      8504      8507      8510      8512      8504      8507      8510      8513
      8505      8504      8507      8508      8505      8504      8507      8509
      8505      8504      8507      8510      8506      8504      8507      8508
      8506      8504      8507      8509      8506      8504      8507      8510
      8508      8507      8510      8511      8508      8507      8510      8512
      8508      8507      8510      8513      8509      8507      8510      8511
      8509      8507      8510      8512      8509      8507      8510      8513
      8514      8517      8520      8521      8514      8517      8520      8522
      8514      8517      8520      8523      8515      8514      8517      8518
      8515      8514      8517      8519      8515      8514      8517      8520
      8516      8514      8517      8518      8516      8514      8517      8519
      8516      8514      8517      8520      8517      8520      8523      8524
      8517      8520      8523      8525      8517      8520      8523      8526
      8518      8517      8520      8521      8518      8517      8520      8522
      8518      8517      8520      8523      8519      8517      8520      8521
      8519      8517      8520      8522      8519      8517      8520      8523
      8520      8523      8526      8527      8520      8523      8526      8528
      8520      8523      8526      8529      8521      8520      8523      8524
      8521      8520      8523      8525      8521      8520      8523      8526
      8522      8520      8523      8524      8522      8520      8523      8525
      8522      8520      8523      8526      8523      8526      8529      8530
      8523      8526      8529      8531      8523      8526      8529      8532
      8524      8523      8526      8527      8524      8523      8526      8528
      8524      8523      8526      8529      8525      8523      8526      8527
      8525      8523      8526      8528      8525      8523      8526      8529
      8526      8529      8532      8533      8526      8529      8532      8534
      8526      8529      8532      8535      8527      8526      8529      8530
      8527      8526      8529      8531      8527      8526      8529      8532
      8528      8526      8529      8530      8528      8526      8529      8531
      8528      8526      8529      8532      8529      8532      8535      8536
      8529      8532      8535      8537      8529      8532      8535      8538
      8530      8529      8532      8533      8530      8529      8532      8534
      8530      8529      8532      8535      8531      8529      8532      8533
      8531      8529      8532      8534      8531      8529      8532      8535
      8532      8535      8538      8539      8532      8535      8538      8540
      8532      8535      8538      8541      8533      8532      8535      8536
      8533      8532      8535      8537      8533      8532      8535      8538
      8534      8532      8535      8536      8534      8532      8535      8537
      8534      8532      8535      8538      8535      8538      8541      8542
      8535      8538      8541      8543      8535      8538      8541      8544
      8536      8535      8538      8539      8536      8535      8538      8540
      8536      8535      8538      8541      8537      8535      8538      8539
      8537      8535      8538      8540      8537      8535      8538      8541
      8538      8541      8544      8545      8538      8541      8544      8546
      8538      8541      8544      8547      8539      8538      8541      8542
      8539      8538      8541      8543      8539      8538      8541      8544
      8540      8538      8541      8542      8540      8538      8541      8543
      8540      8538      8541      8544      8541      8544      8547      8548
      8541      8544      8547      8549      8541      8544      8547      8550
      8542      8541      8544      8545      8542      8541      8544      8546
      8542      8541      8544      8547      8543      8541      8544      8545
      8543      8541      8544      8546      8543      8541      8544      8547
      8544      8547      8550      8551      8544      8547      8550      8552
      8544      8547      8550      8553      8545      8544      8547      8548
      8545      8544      8547      8549      8545      8544      8547      8550
      8546      8544      8547      8548      8546      8544      8547      8549
      8546      8544      8547      8550      8547      8550      8553      8554
      8547      8550      8553      8555      8547      8550      8553      8556
      8548      8547      8550      8551      8548      8547      8550      8552
      8548      8547      8550      8553      8549      8547      8550      8551
      8549      8547      8550      8552      8549      8547      8550      8553
      8551      8550      8553      8554      8551      8550      8553      8555
      8551      8550      8553      8556      8552      8550      8553      8554
      8552      8550      8553      8555      8552      8550      8553      8556
      8557      8561      8564      8565      8557      8561      8564      8566
      8557      8561      8564      8571      8558      8557      8561      8562
      8558      8557      8561      8563      8558      8557      8561      8564
      8559      8557      8561      8562      8559      8557      8561      8563
      8559      8557      8561      8564      8560      8557      8561      8562
      8560      8557      8561      8563      8560      8557      8561      8564
      8561      8564      8571      8567      8562      8561      8564      8565
      8562      8561      8564      8566      8562      8561      8564      8571
      8563      8561      8564      8565      8563      8561      8564      8566
      8563      8561      8564      8571      8564      8571      8567      8568
      8564      8571      8567      8569      8564      8571      8567      8570
      8565      8564      8571      8567      8566      8564      8571      8567
      8567      8570      8572      8573      8567      8570      8572      8574
      8567      8570      8572      8575      8568      8567      8570      8572
      8569      8567      8570      8572      8570      8572      8575      8576
      8570      8572      8575      8577      8570      8572      8575      8583
      8571      8567      8570      8572      8572      8575      8577      8578
      8572      8575      8583      8584      8572      8575      8583      8585
      8572      8575      8583      8586      8573      8572      8575      8576
      8573      8572      8575      8577      8573      8572      8575      8583
      8574      8572      8575      8576      8574      8572      8575      8577
      8574      8572      8575      8583      8575      8577      8578      8579
      8575      8577      8578      8580      8575      8583      8586      8587
      8576      8575      8577      8578      8576      8575      8583      8584
      8576      8575      8583      8585      8576      8575      8583      8586
      8577      8575      8583      8584      8577      8575      8583      8585
      8577      8575      8583      8586      8577      8578      8580      8581
      8577      8578      8580      8582      8577      8578      8580      8592
      8578      8577      8575      8583      8578      8580      8592      8593
      8578      8580      8592      8594      8578      8580      8592      8595
      8579      8578      8580      8581      8579      8578      8580      8582
      8579      8578      8580      8592      8580      8592      8595      8596
      8580      8592      8595      8597      8580      8592      8595      8598
      8581      8580      8592      8593      8581      8580      8592      8594
      8581      8580      8592      8595      8582      8580      8592      8593
      8582      8580      8592      8594      8582      8580      8592      8595
      8583      8586      8587      8588      8583      8586      8587      8589
      8584      8583      8586      8587      8585      8583      8586      8587
      8586      8587      8589      8590      8586      8587      8589      8591
      8586      8587      8589      8636      8587      8589      8636      8637
      8587      8589      8636      8638      8587      8589      8636      8639
      8588      8587      8589      8590      8588      8587      8589      8591
      8588      8587      8589      8636      8589      8636      8639      8640
      8589      8636      8639      8641      8589      8636      8639      8642
      8590      8589      8636      8637      8590      8589      8636      8638
      8590      8589      8636      8639      8591      8589      8636      8637
      8591      8589      8636      8638      8591      8589      8636      8639
      8592      8595      8598      8599      8592      8595      8598      8600
      8592      8595      8598      8601      8593      8592      8595      8596
      8593      8592      8595      8597      8593      8592      8595      8598
      8594      8592      8595      8596      8594      8592      8595      8597
      8594      8592      8595      8598      8595      8598      8601      8602
      8595      8598      8601      8603      8595      8598      8601      8604
      8596      8595      8598      8599      8596      8595      8598      8600
      8596      8595      8598      8601      8597      8595      8598      8599
      8597      8595      8598      8600      8597      8595      8598      8601
      8598      8601      8604      8605      8598      8601      8604      8606
      8598      8601      8604      8607      8599      8598      8601      8602
      8599      8598      8601      8603      8599      8598      8601      8604
      8600      8598      8601      8602      8600      8598      8601      8603
      8600      8598      8601      8604      8601      8604      8607      8608
      8601      8604      8607      8609      8601      8604      8607      8610
      8602      8601      8604      8605      8602      8601      8604      8606
      8602      8601      8604      8607      8603      8601      8604      8605
      8603      8601      8604      8606      8603      8601      8604      8607
      8604      8607      8610      8611      8604      8607      8610      8612
      8604      8607      8610      8615      8605      8604      8607      8608
      8605      8604      8607      8609      8605      8604      8607      8610
      8606      8604      8607      8608      8606      8604      8607      8609
      8606      8604      8607      8610      8607      8610      8612      8613
      8607      8610      8612      8614      8607      8610      8612      8615
      8607      8610      8615      8612      8607      8610      8615      8616
      8607      8610      8615      8617      8608      8607      8610      8611
      8608      8607      8610      8612      8608      8607      8610      8615
      8609      8607      8610      8611      8609      8607      8610      8612
      8609      8607      8610      8615      8610      8612      8615      8616
      8610      8612      8615      8617      8610      8615      8612      8613
      8610      8615      8612      8614      8610      8615      8617      8618
      8610      8615      8617      8619      8610      8615      8617      8620
      8611      8610      8612      8613      8611      8610      8612      8614
      8611      8610      8612      8615      8611      8610      8615      8612
      8611      8610      8615      8616      8611      8610      8615      8617
      8612      8610      8615      8616      8612      8610      8615      8617
      8612      8615      8617      8618      8612      8615      8617      8619
      8612      8615      8617      8620      8613      8612      8610      8615
      8613      8612      8615      8616      8613      8612      8615      8617
      8614      8612      8610      8615      8614      8612      8615      8616
      8614      8612      8615      8617      8615      8617      8620      8621
      8615      8617      8620      8622      8615      8617      8620      8623
      8616      8615      8617      8618      8616      8615      8617      8619
      8616      8615      8617      8620      8617      8620      8623      8624
      8617      8620      8623      8625      8617      8620      8623      8626
      8618      8617      8620      8621      8618      8617      8620      8622
      8618      8617      8620      8623      8619      8617      8620      8621
      8619      8617      8620      8622      8619      8617      8620      8623
      8620      8623      8626      8627      8620      8623      8626      8628
      8620      8623      8626      8629      8621      8620      8623      8624
      8621      8620      8623      8625      8621      8620      8623      8626
      8622      8620      8623      8624      8622      8620      8623      8625
      8622      8620      8623      8626      8623      8626      8629      8630
      8623      8626      8629      8631      8623      8626      8629      8632
      8624      8623      8626      8627      8624      8623      8626      8628
      8624      8623      8626      8629      8625      8623      8626      8627
      8625      8623      8626      8628      8625      8623      8626      8629
      8626      8629      8632      8633      8626      8629      8632      8634
      8626      8629      8632      8635      8627      8626      8629      8630
      8627      8626      8629      8631      8627      8626      8629      8632
      8628      8626      8629      8630      8628      8626      8629      8631
      8628      8626      8629      8632      8630      8629      8632      8633
      8630      8629      8632      8634      8630      8629      8632      8635
      8631      8629      8632      8633      8631      8629      8632      8634
      8631      8629      8632      8635      8636      8639      8642      8643
      8636      8639      8642      8644      8636      8639      8642      8645
      8637      8636      8639      8640      8637      8636      8639      8641
      8637      8636      8639      8642      8638      8636      8639      8640
      8638      8636      8639      8641      8638      8636      8639      8642
      8639      8642      8645      8646      8639      8642      8645      8647
      8639      8642      8645      8648      8640      8639      8642      8643
      8640      8639      8642      8644      8640      8639      8642      8645
      8641      8639      8642      8643      8641      8639      8642      8644
      8641      8639      8642      8645      8642      8645      8648      8649
      8642      8645      8648      8650      8642      8645      8648      8651
      8643      8642      8645      8646      8643      8642      8645      8647
      8643      8642      8645      8648      8644      8642      8645      8646
      8644      8642      8645      8647      8644      8642      8645      8648
      8645      8648      8651      8652      8645      8648      8651      8653
      8645      8648      8651      8654      8646      8645      8648      8649
      8646      8645      8648      8650      8646      8645      8648      8651
      8647      8645      8648      8649      8647      8645      8648      8650
      8647      8645      8648      8651      8648      8651      8654      8655
      8648      8651      8654      8656      8648      8651      8654      8657
      8649      8648      8651      8652      8649      8648      8651      8653
      8649      8648      8651      8654      8650      8648      8651      8652
      8650      8648      8651      8653      8650      8648      8651      8654
      8651      8654      8657      8658      8651      8654      8657      8659
      8651      8654      8657      8660      8652      8651      8654      8655
      8652      8651      8654      8656      8652      8651      8654      8657
      8653      8651      8654      8655      8653      8651      8654      8656
      8653      8651      8654      8657      8654      8657      8660      8661
      8654      8657      8660      8662      8654      8657      8660      8663
      8655      8654      8657      8658      8655      8654      8657      8659
      8655      8654      8657      8660      8656      8654      8657      8658
      8656      8654      8657      8659      8656      8654      8657      8660
      8657      8660      8663      8664      8657      8660      8663      8665
      8657      8660      8663      8666      8658      8657      8660      8661
      8658      8657      8660      8662      8658      8657      8660      8663
      8659      8657      8660      8661      8659      8657      8660      8662
      8659      8657      8660      8663      8660      8663      8666      8667
      8660      8663      8666      8668      8660      8663      8666      8669
      8661      8660      8663      8664      8661      8660      8663      8665
      8661      8660      8663      8666      8662      8660      8663      8664
      8662      8660      8663      8665      8662      8660      8663      8666
      8663      8666      8669      8670      8663      8666      8669      8671
      8663      8666      8669      8672      8664      8663      8666      8667
      8664      8663      8666      8668      8664      8663      8666      8669
      8665      8663      8666      8667      8665      8663      8666      8668
      8665      8663      8666      8669      8666      8669      8672      8673
      8666      8669      8672      8674      8666      8669      8672      8675
      8667      8666      8669      8670      8667      8666      8669      8671
      8667      8666      8669      8672      8668      8666      8669      8670
      8668      8666      8669      8671      8668      8666      8669      8672
      8669      8672      8675      8676      8669      8672      8675      8677
      8669      8672      8675      8678      8670      8669      8672      8673
      8670      8669      8672      8674      8670      8669      8672      8675
      8671      8669      8672      8673      8671      8669      8672      8674
      8671      8669      8672      8675      8673      8672      8675      8676
      8673      8672      8675      8677      8673      8672      8675      8678
      8674      8672      8675      8676      8674      8672      8675      8677
      8674      8672      8675      8678      8679      8683      8686      8687
      8679      8683      8686      8688      8679      8683      8686      8693
      8680      8679      8683      8684      8680      8679      8683      8685
      8680      8679      8683      8686      8681      8679      8683      8684
      8681      8679      8683      8685      8681      8679      8683      8686
      8682      8679      8683      8684      8682      8679      8683      8685
      8682      8679      8683      8686      8683      8686      8693      8689
      8684      8683      8686      8687      8684      8683      8686      8688
      8684      8683      8686      8693      8685      8683      8686      8687
      8685      8683      8686      8688      8685      8683      8686      8693
      8686      8693      8689      8690      8686      8693      8689      8691
      8686      8693      8689      8692      8687      8686      8693      8689
      8688      8686      8693      8689      8689      8692      8694      8695
      8689      8692      8694      8696      8689      8692      8694      8697
      8690      8689      8692      8694      8691      8689      8692      8694
      8692      8694      8697      8698      8692      8694      8697      8699
      8692      8694      8697      8705      8693      8689      8692      8694
      8694      8697      8699      8700      8694      8697      8705      8706
      8694      8697      8705      8707      8694      8697      8705      8708
      8695      8694      8697      8698      8695      8694      8697      8699
      8695      8694      8697      8705      8696      8694      8697      8698
      8696      8694      8697      8699      8696      8694      8697      8705
      8697      8699      8700      8701      8697      8699      8700      8702
      8697      8705      8708      8709      8698      8697      8699      8700
      8698      8697      8705      8706      8698      8697      8705      8707
      8698      8697      8705      8708      8699      8697      8705      8706
      8699      8697      8705      8707      8699      8697      8705      8708
      8699      8700      8702      8703      8699      8700      8702      8704
      8699      8700      8702      8714      8700      8699      8697      8705
      8700      8702      8714      8715      8700      8702      8714      8716
      8700      8702      8714      8717      8701      8700      8702      8703
      8701      8700      8702      8704      8701      8700      8702      8714
      8702      8714      8717      8718      8702      8714      8717      8719
      8702      8714      8717      8720      8703      8702      8714      8715
      8703      8702      8714      8716      8703      8702      8714      8717
      8704      8702      8714      8715      8704      8702      8714      8716
      8704      8702      8714      8717      8705      8708      8709      8710
      8705      8708      8709      8711      8706      8705      8708      8709
      8707      8705      8708      8709      8708      8709      8711      8712
      8708      8709      8711      8713      8708      8709      8711      8758
      8709      8711      8758      8759      8709      8711      8758      8760
      8709      8711      8758      8761      8710      8709      8711      8712
      8710      8709      8711      8713      8710      8709      8711      8758
      8711      8758      8761      8762      8711      8758      8761      8763
      8711      8758      8761      8764      8712      8711      8758      8759
      8712      8711      8758      8760      8712      8711      8758      8761
      8713      8711      8758      8759      8713      8711      8758      8760
      8713      8711      8758      8761      8714      8717      8720      8721
      8714      8717      8720      8722      8714      8717      8720      8723
      8715      8714      8717      8718      8715      8714      8717      8719
      8715      8714      8717      8720      8716      8714      8717      8718
      8716      8714      8717      8719      8716      8714      8717      8720
      8717      8720      8723      8724      8717      8720      8723      8725
      8717      8720      8723      8726      8718      8717      8720      8721
      8718      8717      8720      8722      8718      8717      8720      8723
      8719      8717      8720      8721      8719      8717      8720      8722
      8719      8717      8720      8723      8720      8723      8726      8727
      8720      8723      8726      8728      8720      8723      8726      8729
      8721      8720      8723      8724      8721      8720      8723      8725
      8721      8720      8723      8726      8722      8720      8723      8724
      8722      8720      8723      8725      8722      8720      8723      8726
      8723      8726      8729      8730      8723      8726      8729      8731
      8723      8726      8729      8732      8724      8723      8726      8727
      8724      8723      8726      8728      8724      8723      8726      8729
      8725      8723      8726      8727      8725      8723      8726      8728
      8725      8723      8726      8729      8726      8729      8732      8733
      8726      8729      8732      8734      8726      8729      8732      8737
      8727      8726      8729      8730      8727      8726      8729      8731
      8727      8726      8729      8732      8728      8726      8729      8730
      8728      8726      8729      8731      8728      8726      8729      8732
      8729      8732      8734      8735      8729      8732      8734      8736
      8729      8732      8734      8737      8729      8732      8737      8734
      8729      8732      8737      8738      8729      8732      8737      8739
      8730      8729      8732      8733      8730      8729      8732      8734
      8730      8729      8732      8737      8731      8729      8732      8733
      8731      8729      8732      8734      8731      8729      8732      8737
      8732      8734      8737      8738      8732      8734      8737      8739
      8732      8737      8734      8735      8732      8737      8734      8736
      8732      8737      8739      8740      8732      8737      8739      8741
      8732      8737      8739      8742      8733      8732      8734      8735
      8733      8732      8734      8736      8733      8732      8734      8737
      8733      8732      8737      8734      8733      8732      8737      8738
      8733      8732      8737      8739      8734      8732      8737      8738
      8734      8732      8737      8739      8734      8737      8739      8740
      8734      8737      8739      8741      8734      8737      8739      8742
      8735      8734      8732      8737      8735      8734      8737      8738
      8735      8734      8737      8739      8736      8734      8732      8737
      8736      8734      8737      8738      8736      8734      8737      8739
      8737      8739      8742      8743      8737      8739      8742      8744
      8737      8739      8742      8745      8738      8737      8739      8740
      8738      8737      8739      8741      8738      8737      8739      8742
      8739      8742      8745      8746      8739      8742      8745      8747
      8739      8742      8745      8748      8740      8739      8742      8743
      8740      8739      8742      8744      8740      8739      8742      8745
      8741      8739      8742      8743      8741      8739      8742      8744
      8741      8739      8742      8745      8742      8745      8748      8749
      8742      8745      8748      8750      8742      8745      8748      8751
      8743      8742      8745      8746      8743      8742      8745      8747
      8743      8742      8745      8748      8744      8742      8745      8746
      8744      8742      8745      8747      8744      8742      8745      8748
      8745      8748      8751      8752      8745      8748      8751      8753
      8745      8748      8751      8754      8746      8745      8748      8749
      8746      8745      8748      8750      8746      8745      8748      8751
      8747      8745      8748      8749      8747      8745      8748      8750
      8747      8745      8748      8751      8748      8751      8754      8755
      8748      8751      8754      8756      8748      8751      8754      8757
      8749      8748      8751      8752      8749      8748      8751      8753
      8749      8748      8751      8754      8750      8748      8751      8752
      8750      8748      8751      8753      8750      8748      8751      8754
      8752      8751      8754      8755      8752      8751      8754      8756
      8752      8751      8754      8757      8753      8751      8754      8755
      8753      8751      8754      8756      8753      8751      8754      8757
      8758      8761      8764      8765      8758      8761      8764      8766
      8758      8761      8764      8767      8759      8758      8761      8762
      8759      8758      8761      8763      8759      8758      8761      8764
      8760      8758      8761      8762      8760      8758      8761      8763
      8760      8758      8761      8764      8761      8764      8767      8768
      8761      8764      8767      8769      8761      8764      8767      8770
      8762      8761      8764      8765      8762      8761      8764      8766
      8762      8761      8764      8767      8763      8761      8764      8765
      8763      8761      8764      8766      8763      8761      8764      8767
      8764      8767      8770      8771      8764      8767      8770      8772
      8764      8767      8770      8773      8765      8764      8767      8768
      8765      8764      8767      8769      8765      8764      8767      8770
      8766      8764      8767      8768      8766      8764      8767      8769
      8766      8764      8767      8770      8767      8770      8773      8774
      8767      8770      8773      8775      8767      8770      8773      8776
      8768      8767      8770      8771      8768      8767      8770      8772
      8768      8767      8770      8773      8769      8767      8770      8771
      8769      8767      8770      8772      8769      8767      8770      8773
      8770      8773      8776      8777      8770      8773      8776      8778
      8770      8773      8776      8779      8771      8770      8773      8774
      8771      8770      8773      8775      8771      8770      8773      8776
      8772      8770      8773      8774      8772      8770      8773      8775
      8772      8770      8773      8776      8773      8776      8779      8780
      8773      8776      8779      8781      8773      8776      8779      8782
      8774      8773      8776      8777      8774      8773      8776      8778
      8774      8773      8776      8779      8775      8773      8776      8777
      8775      8773      8776      8778      8775      8773      8776      8779
      8776      8779      8782      8783      8776      8779      8782      8784
      8776      8779      8782      8785      8777      8776      8779      8780
      8777      8776      8779      8781      8777      8776      8779      8782
      8778      8776      8779      8780      8778      8776      8779      8781
      8778      8776      8779      8782      8779      8782      8785      8786
      8779      8782      8785      8787      8779      8782      8785      8788
      8780      8779      8782      8783      8780      8779      8782      8784
      8780      8779      8782      8785      8781      8779      8782      8783
      8781      8779      8782      8784      8781      8779      8782      8785
      8782      8785      8788      8789      8782      8785      8788      8790
      8782      8785      8788      8791      8783      8782      8785      8786
      8783      8782      8785      8787      8783      8782      8785      8788
      8784      8782      8785      8786      8784      8782      8785      8787
      8784      8782      8785      8788      8785      8788      8791      8792
      8785      8788      8791      8793      8785      8788      8791      8794
      8786      8785      8788      8789      8786      8785      8788      8790
      8786      8785      8788      8791      8787      8785      8788      8789
      8787      8785      8788      8790      8787      8785      8788      8791
      8788      8791      8794      8795      8788      8791      8794      8796
      8788      8791      8794      8797      8789      8788      8791      8792
      8789      8788      8791      8793      8789      8788      8791      8794
      8790      8788      8791      8792      8790      8788      8791      8793
      8790      8788      8791      8794      8791      8794      8797      8798
      8791      8794      8797      8799      8791      8794      8797      8800
      8792      8791      8794      8795      8792      8791      8794      8796
      8792      8791      8794      8797      8793      8791      8794      8795
      8793      8791      8794      8796      8793      8791      8794      8797
      8795      8794      8797      8798      8795      8794      8797      8799
      8795      8794      8797      8800      8796      8794      8797      8798
      8796      8794      8797      8799      8796      8794      8797      8800
      8801      8805      8808      8809      8801      8805      8808      8810
      8801      8805      8808      8815      8802      8801      8805      8806
      8802      8801      8805      8807      8802      8801      8805      8808
      8803      8801      8805      8806      8803      8801      8805      8807
      8803      8801      8805      8808      8804      8801      8805      8806
      8804      8801      8805      8807      8804      8801      8805      8808
      8805      8808      8815      8811      8806      8805      8808      8809
      8806      8805      8808      8810      8806      8805      8808      8815
      8807      8805      8808      8809      8807      8805      8808      8810
      8807      8805      8808      8815      8808      8815      8811      8812
      8808      8815      8811      8813      8808      8815      8811      8814
      8809      8808      8815      8811      8810      8808      8815      8811
      8811      8814      8816      8817      8811      8814      8816      8818
      8811      8814      8816      8819      8812      8811      8814      8816
      8813      8811      8814      8816      8814      8816      8819      8820
      8814      8816      8819      8821      8814      8816      8819      8827
      8815      8811      8814      8816      8816      8819      8821      8822
      8816      8819      8827      8828      8816      8819      8827      8829
      8816      8819      8827      8830      8817      8816      8819      8820
      8817      8816      8819      8821      8817      8816      8819      8827
      8818      8816      8819      8820      8818      8816      8819      8821
      8818      8816      8819      8827      8819      8821      8822      8823
      8819      8821      8822      8824      8819      8827      8830      8831
      8820      8819      8821      8822      8820      8819      8827      8828
      8820      8819      8827      8829      8820      8819      8827      8830
      8821      8819      8827      8828      8821      8819      8827      8829
      8821      8819      8827      8830      8821      8822      8824      8825
      8821      8822      8824      8826      8821      8822      8824      8836
      8822      8821      8819      8827      8822      8824      8836      8837
      8822      8824      8836      8838      8822      8824      8836      8839
      8823      8822      8824      8825      8823      8822      8824      8826
      8823      8822      8824      8836      8824      8836      8839      8840
      8824      8836      8839      8841      8824      8836      8839      8842
      8825      8824      8836      8837      8825      8824      8836      8838
      8825      8824      8836      8839      8826      8824      8836      8837
      8826      8824      8836      8838      8826      8824      8836      8839
      8827      8830      8831      8832      8827      8830      8831      8833
      8828      8827      8830      8831      8829      8827      8830      8831
      8830      8831      8833      8834      8830      8831      8833      8835
      8830      8831      8833      8880      8831      8833      8880      8881
      8831      8833      8880      8882      8831      8833      8880      8883
      8832      8831      8833      8834      8832      8831      8833      8835
      8832      8831      8833      8880      8833      8880      8883      8884
      8833      8880      8883      8885      8833      8880      8883      8886
      8834      8833      8880      8881      8834      8833      8880      8882
      8834      8833      8880      8883      8835      8833      8880      8881
      8835      8833      8880      8882      8835      8833      8880      8883
      8836      8839      8842      8843      8836      8839      8842      8844
      8836      8839      8842      8845      8837      8836      8839      8840
      8837      8836      8839      8841      8837      8836      8839      8842
      8838      8836      8839      8840      8838      8836      8839      8841
      8838      8836      8839      8842      8839      8842      8845      8846
      8839      8842      8845      8847      8839      8842      8845      8848
      8840      8839      8842      8843      8840      8839      8842      8844
      8840      8839      8842      8845      8841      8839      8842      8843
      8841      8839      8842      8844      8841      8839      8842      8845
      8842      8845      8848      8849      8842      8845      8848      8850
      8842      8845      8848      8851      8843      8842      8845      8846
      8843      8842      8845      8847      8843      8842      8845      8848
      8844      8842      8845      8846      8844      8842      8845      8847
      8844      8842      8845      8848      8845      8848      8851      8852
      8845      8848      8851      8853      8845      8848      8851      8854
      8846      8845      8848      8849      8846      8845      8848      8850
      8846      8845      8848      8851      8847      8845      8848      8849
      8847      8845      8848      8850      8847      8845      8848      8851
      8848      8851      8854      8855      8848      8851      8854      8856
      8848      8851      8854      8859      8849      8848      8851      8852
      8849      8848      8851      8853      8849      8848      8851      8854
      8850      8848      8851      8852      8850      8848      8851      8853
      8850      8848      8851      8854      8851      8854      8856      8857
      8851      8854      8856      8858      8851      8854      8856      8859
      8851      8854      8859      8856      8851      8854      8859      8860
      8851      8854      8859      8861      8852      8851      8854      8855
      8852      8851      8854      8856      8852      8851      8854      8859
      8853      8851      8854      8855      8853      8851      8854      8856
      8853      8851      8854      8859      8854      8856      8859      8860
      8854      8856      8859      8861      8854      8859      8856      8857
      8854      8859      8856      8858      8854      8859      8861      8862
      8854      8859      8861      8863      8854      8859      8861      8864
      8855      8854      8856      8857      8855      8854      8856      8858
      8855      8854      8856      8859      8855      8854      8859      8856
      8855      8854      8859      8860      8855      8854      8859      8861
      8856      8854      8859      8860      8856      8854      8859      8861
      8856      8859      8861      8862      8856      8859      8861      8863
      8856      8859      8861      8864      8857      8856      8854      8859
      8857      8856      8859      8860      8857      8856      8859      8861
      8858      8856      8854      8859      8858      8856      8859      8860
      8858      8856      8859      8861      8859      8861      8864      8865
      8859      8861      8864      8866      8859      8861      8864      8867
      8860      8859      8861      8862      8860      8859      8861      8863
      8860      8859      8861      8864      8861      8864      8867      8868
      8861      8864      8867      8869      8861      8864      8867      8870
      8862      8861      8864      8865      8862      8861      8864      8866
      8862      8861      8864      8867      8863      8861      8864      8865
      8863      8861      8864      8866      8863      8861      8864      8867
      8864      8867      8870      8871      8864      8867      8870      8872
      8864      8867      8870      8873      8865      8864      8867      8868
      8865      8864      8867      8869      8865      8864      8867      8870
      8866      8864      8867      8868      8866      8864      8867      8869
      8866      8864      8867      8870      8867      8870      8873      8874
      8867      8870      8873      8875      8867      8870      8873      8876
      8868      8867      8870      8871      8868      8867      8870      8872
      8868      8867      8870      8873      8869      8867      8870      8871
      8869      8867      8870      8872      8869      8867      8870      8873
      8870      8873      8876      8877      8870      8873      8876      8878
      8870      8873      8876      8879      8871      8870      8873      8874
      8871      8870      8873      8875      8871      8870      8873      8876
      8872      8870      8873      8874      8872      8870      8873      8875
      8872      8870      8873      8876      8874      8873      8876      8877
      8874      8873      8876      8878      8874      8873      8876      8879
      8875      8873      8876      8877      8875      8873      8876      8878
      8875      8873      8876      8879      8880      8883      8886      8887
      8880      8883      8886      8888      8880      8883      8886      8889
      8881      8880      8883      8884      8881      8880      8883      8885
      8881      8880      8883      8886      8882      8880      8883      8884
      8882      8880      8883      8885      8882      8880      8883      8886
      8883      8886      8889      8890      8883      8886      8889      8891
      8883      8886      8889      8892      8884      8883      8886      8887
      8884      8883      8886      8888      8884      8883      8886      8889
      8885      8883      8886      8887      8885      8883      8886      8888
      8885      8883      8886      8889      8886      8889      8892      8893
      8886      8889      8892      8894      8886      8889      8892      8895
      8887      8886      8889      8890      8887      8886      8889      8891
      8887      8886      8889      8892      8888      8886      8889      8890
      8888      8886      8889      8891      8888      8886      8889      8892
      8889      8892      8895      8896      8889      8892      8895      8897
      8889      8892      8895      8898      8890      8889      8892      8893
      8890      8889      8892      8894      8890      8889      8892      8895
      8891      8889      8892      8893      8891      8889      8892      8894
      8891      8889      8892      8895      8892      8895      8898      8899
      8892      8895      8898      8900      8892      8895      8898      8901
      8893      8892      8895      8896      8893      8892      8895      8897
      8893      8892      8895      8898      8894      8892      8895      8896
      8894      8892      8895      8897      8894      8892      8895      8898
      8895      8898      8901      8902      8895      8898      8901      8903
      8895      8898      8901      8904      8896      8895      8898      8899
      8896      8895      8898      8900      8896      8895      8898      8901
      8897      8895      8898      8899      8897      8895      8898      8900
      8897      8895      8898      8901      8898      8901      8904      8905
      8898      8901      8904      8906      8898      8901      8904      8907
      8899      8898      8901      8902      8899      8898      8901      8903
      8899      8898      8901      8904      8900      8898      8901      8902
      8900      8898      8901      8903      8900      8898      8901      8904
      8901      8904      8907      8908      8901      8904      8907      8909
      8901      8904      8907      8910      8902      8901      8904      8905
      8902      8901      8904      8906      8902      8901      8904      8907
      8903      8901      8904      8905      8903      8901      8904      8906
      8903      8901      8904      8907      8904      8907      8910      8911
      8904      8907      8910      8912      8904      8907      8910      8913
      8905      8904      8907      8908      8905      8904      8907      8909
      8905      8904      8907      8910      8906      8904      8907      8908
      8906      8904      8907      8909      8906      8904      8907      8910
      8907      8910      8913      8914      8907      8910      8913      8915
      8907      8910      8913      8916      8908      8907      8910      8911
      8908      8907      8910      8912      8908      8907      8910      8913
      8909      8907      8910      8911      8909      8907      8910      8912
      8909      8907      8910      8913      8910      8913      8916      8917
      8910      8913      8916      8918      8910      8913      8916      8919
      8911      8910      8913      8914      8911      8910      8913      8915
      8911      8910      8913      8916      8912      8910      8913      8914
      8912      8910      8913      8915      8912      8910      8913      8916
      8913      8916      8919      8920      8913      8916      8919      8921
      8913      8916      8919      8922      8914      8913      8916      8917
      8914      8913      8916      8918      8914      8913      8916      8919
      8915      8913      8916      8917      8915      8913      8916      8918
      8915      8913      8916      8919      8917      8916      8919      8920
      8917      8916      8919      8921      8917      8916      8919      8922
      8918      8916      8919      8920      8918      8916      8919      8921
      8918      8916      8919      8922      8923      8927      8930      8931
      8923      8927      8930      8932      8923      8927      8930      8937
      8924      8923      8927      8928      8924      8923      8927      8929
      8924      8923      8927      8930      8925      8923      8927      8928
      8925      8923      8927      8929      8925      8923      8927      8930
      8926      8923      8927      8928      8926      8923      8927      8929
      8926      8923      8927      8930      8927      8930      8937      8933
      8928      8927      8930      8931      8928      8927      8930      8932
      8928      8927      8930      8937      8929      8927      8930      8931
      8929      8927      8930      8932      8929      8927      8930      8937
      8930      8937      8933      8934      8930      8937      8933      8935
      8930      8937      8933      8936      8931      8930      8937      8933
      8932      8930      8937      8933      8933      8936      8938      8939
      8933      8936      8938      8940      8933      8936      8938      8941
      8934      8933      8936      8938      8935      8933      8936      8938
      8936      8938      8941      8942      8936      8938      8941      8943
      8936      8938      8941      8949      8937      8933      8936      8938
      8938      8941      8943      8944      8938      8941      8949      8950
      8938      8941      8949      8951      8938      8941      8949      8952
      8939      8938      8941      8942      8939      8938      8941      8943
      8939      8938      8941      8949      8940      8938      8941      8942
      8940      8938      8941      8943      8940      8938      8941      8949
      8941      8943      8944      8945      8941      8943      8944      8946
      8941      8949      8952      8953      8942      8941      8943      8944
      8942      8941      8949      8950      8942      8941      8949      8951
      8942      8941      8949      8952      8943      8941      8949      8950
      8943      8941      8949      8951      8943      8941      8949      8952
      8943      8944      8946      8947      8943      8944      8946      8948
      8943      8944      8946      8958      8944      8943      8941      8949
      8944      8946      8958      8959      8944      8946      8958      8960
      8944      8946      8958      8961      8945      8944      8946      8947
      8945      8944      8946      8948      8945      8944      8946      8958
      8946      8958      8961      8962      8946      8958      8961      8963
      8946      8958      8961      8964      8947      8946      8958      8959
      8947      8946      8958      8960      8947      8946      8958      8961
      8948      8946      8958      8959      8948      8946      8958      8960
      8948      8946      8958      8961      8949      8952      8953      8954
      8949      8952      8953      8955      8950      8949      8952      8953
      8951      8949      8952      8953      8952      8953      8955      8956
      8952      8953      8955      8957      8952      8953      8955      9002
      8953      8955      9002      9003      8953      8955      9002      9004
      8953      8955      9002      9005      8954      8953      8955      8956
      8954      8953      8955      8957      8954      8953      8955      9002
      8955      9002      9005      9006      8955      9002      9005      9007
      8955      9002      9005      9008      8956      8955      9002      9003
      8956      8955      9002      9004      8956      8955      9002      9005
      8957      8955      9002      9003      8957      8955      9002      9004
      8957      8955      9002      9005      8958      8961      8964      8965
      8958      8961      8964      8966      8958      8961      8964      8967
      8959      8958      8961      8962      8959      8958      8961      8963
      8959      8958      8961      8964      8960      8958      8961      8962
      8960      8958      8961      8963      8960      8958      8961      8964
      8961      8964      8967      8968      8961      8964      8967      8969
      8961      8964      8967      8970      8962      8961      8964      8965
      8962      8961      8964      8966      8962      8961      8964      8967
      8963      8961      8964      8965      8963      8961      8964      8966
      8963      8961      8964      8967      8964      8967      8970      8971
      8964      8967      8970      8972      8964      8967      8970      8973
      8965      8964      8967      8968      8965      8964      8967      8969
      8965      8964      8967      8970      8966      8964      8967      8968
      8966      8964      8967      8969      8966      8964      8967      8970
      8967      8970      8973      8974      8967      8970      8973      8975
      8967      8970      8973      8976      8968      8967      8970      8971
      8968      8967      8970      8972      8968      8967      8970      8973
      8969      8967      8970      8971      8969      8967      8970      8972
      8969      8967      8970      8973      8970      8973      8976      8977
      8970      8973      8976      8978      8970      8973      8976      8981
      8971      8970      8973      8974      8971      8970      8973      8975
      8971      8970      8973      8976      8972      8970      8973      8974
      8972      8970      8973      8975      8972      8970      8973      8976
      8973      8976      8978      8979      8973      8976      8978      8980
      8973      8976      8978      8981      8973      8976      8981      8978
      8973      8976      8981      8982      8973      8976      8981      8983
      8974      8973      8976      8977      8974      8973      8976      8978
      8974      8973      8976      8981      8975      8973      8976      8977
      8975      8973      8976      8978      8975      8973      8976      8981
      8976      8978      8981      8982      8976      8978      8981      8983
      8976      8981      8978      8979      8976      8981      8978      8980
      8976      8981      8983      8984      8976      8981      8983      8985
      8976      8981      8983      8986      8977      8976      8978      8979
      8977      8976      8978      8980      8977      8976      8978      8981
      8977      8976      8981      8978      8977      8976      8981      8982
      8977      8976      8981      8983      8978      8976      8981      8982
      8978      8976      8981      8983      8978      8981      8983      8984
      8978      8981      8983      8985      8978      8981      8983      8986
      8979      8978      8976      8981      8979      8978      8981      8982
      8979      8978      8981      8983      8980      8978      8976      8981
      8980      8978      8981      8982      8980      8978      8981      8983
      8981      8983      8986      8987      8981      8983      8986      8988
      8981      8983      8986      8989      8982      8981      8983      8984
      8982      8981      8983      8985      8982      8981      8983      8986
      8983      8986      8989      8990      8983      8986      8989      8991
      8983      8986      8989      8992      8984      8983      8986      8987
      8984      8983      8986      8988      8984      8983      8986      8989
      8985      8983      8986      8987      8985      8983      8986      8988
      8985      8983      8986      8989      8986      8989      8992      8993
      8986      8989      8992      8994      8986      8989      8992      8995
      8987      8986      8989      8990      8987      8986      8989      8991
      8987      8986      8989      8992      8988      8986      8989      8990
      8988      8986      8989      8991      8988      8986      8989      8992
      8989      8992      8995      8996      8989      8992      8995      8997
      8989      8992      8995      8998      8990      8989      8992      8993
      8990      8989      8992      8994      8990      8989      8992      8995
      8991      8989      8992      8993      8991      8989      8992      8994
      8991      8989      8992      8995      8992      8995      8998      8999
      8992      8995      8998      9000      8992      8995      8998      9001
      8993      8992      8995      8996      8993      8992      8995      8997
      8993      8992      8995      8998      8994      8992      8995      8996
      8994      8992      8995      8997      8994      8992      8995      8998
      8996      8995      8998      8999      8996      8995      8998      9000
      8996      8995      8998      9001      8997      8995      8998      8999
      8997      8995      8998      9000      8997      8995      8998      9001
      9002      9005      9008      9009      9002      9005      9008      9010
      9002      9005      9008      9011      9003      9002      9005      9006
      9003      9002      9005      9007      9003      9002      9005      9008
      9004      9002      9005      9006      9004      9002      9005      9007
      9004      9002      9005      9008      9005      9008      9011      9012
      9005      9008      9011      9013      9005      9008      9011      9014
      9006      9005      9008      9009      9006      9005      9008      9010
      9006      9005      9008      9011      9007      9005      9008      9009
      9007      9005      9008      9010      9007      9005      9008      9011
      9008      9011      9014      9015      9008      9011      9014      9016
      9008      9011      9014      9017      9009      9008      9011      9012
      9009      9008      9011      9013      9009      9008      9011      9014
      9010      9008      9011      9012      9010      9008      9011      9013
      9010      9008      9011      9014      9011      9014      9017      9018
      9011      9014      9017      9019      9011      9014      9017      9020
      9012      9011      9014      9015      9012      9011      9014      9016
      9012      9011      9014      9017      9013      9011      9014      9015
      9013      9011      9014      9016      9013      9011      9014      9017
      9014      9017      9020      9021      9014      9017      9020      9022
      9014      9017      9020      9023      9015      9014      9017      9018
      9015      9014      9017      9019      9015      9014      9017      9020
      9016      9014      9017      9018      9016      9014      9017      9019
      9016      9014      9017      9020      9017      9020      9023      9024
      9017      9020      9023      9025      9017      9020      9023      9026
      9018      9017      9020      9021      9018      9017      9020      9022
      9018      9017      9020      9023      9019      9017      9020      9021
      9019      9017      9020      9022      9019      9017      9020      9023
      9020      9023      9026      9027      9020      9023      9026      9028
      9020      9023      9026      9029      9021      9020      9023      9024
      9021      9020      9023      9025      9021      9020      9023      9026
      9022      9020      9023      9024      9022      9020      9023      9025
      9022      9020      9023      9026      9023      9026      9029      9030
      9023      9026      9029      9031      9023      9026      9029      9032
      9024      9023      9026      9027      9024      9023      9026      9028
      9024      9023      9026      9029      9025      9023      9026      9027
      9025      9023      9026      9028      9025      9023      9026      9029
      9026      9029      9032      9033      9026      9029      9032      9034
      9026      9029      9032      9035      9027      9026      9029      9030
      9027      9026      9029      9031      9027      9026      9029      9032
      9028      9026      9029      9030      9028      9026      9029      9031
      9028      9026      9029      9032      9029      9032      9035      9036
      9029      9032      9035      9037      9029      9032      9035      9038
      9030      9029      9032      9033      9030      9029      9032      9034
      9030      9029      9032      9035      9031      9029      9032      9033
      9031      9029      9032      9034      9031      9029      9032      9035
      9032      9035      9038      9039      9032      9035      9038      9040
      9032      9035      9038      9041      9033      9032      9035      9036
      9033      9032      9035      9037      9033      9032      9035      9038
      9034      9032      9035      9036      9034      9032      9035      9037
      9034      9032      9035      9038      9035      9038      9041      9042
      9035      9038      9041      9043      9035      9038      9041      9044
      9036      9035      9038      9039      9036      9035      9038      9040
      9036      9035      9038      9041      9037      9035      9038      9039
      9037      9035      9038      9040      9037      9035      9038      9041
      9039      9038      9041      9042      9039      9038      9041      9043
      9039      9038      9041      9044      9040      9038      9041      9042
      9040      9038      9041      9043      9040      9038      9041      9044
      9045      9050      9052      9053      9045      9050      9054      9055
      9045      9050      9054      9056      9045      9050      9054      9061
      9046      9045      9048      9049      9046      9045      9050      9051
      9046      9045      9050      9052      9046      9045      9050      9054
      9047      9045      9048      9049      9047      9045      9050      9051
      9047      9045      9050      9052      9047      9045      9050      9054
      9048      9045      9050      9051      9048      9045      9050      9052
      9048      9045      9050      9054      9049      9048      9045      9050
      9050      9054      9061      9057      9051      9050      9052      9053
      9051      9050      9054      9055      9051      9050      9054      9056
      9051      9050      9054      9061      9052      9050      9054      9055
      9052      9050      9054      9056      9052      9050      9054      9061
      9053      9052      9050      9054      9054      9061      9057      9058
      9054      9061      9057      9059      9054      9061      9057      9060
      9055      9054      9061      9057      9056      9054      9061      9057
      9057      9060      9062      9063      9057      9060      9062      9064
      9057      9060      9062      9065      9058      9057      9060      9062
      9059      9057      9060      9062      9060      9062      9065      9066
      9060      9062      9065      9067      9060      9062      9065      9073
      9061      9057      9060      9062      9062      9065      9067      9068
      9062      9065      9073      9074      9062      9065      9073      9075
      9062      9065      9073      9076      9063      9062      9065      9066
      9063      9062      9065      9067      9063      9062      9065      9073
      9064      9062      9065      9066      9064      9062      9065      9067
      9064      9062      9065      9073      9065      9067      9068      9069
      9065      9067      9068      9070      9065      9073      9076      9077
      9066      9065      9067      9068      9066      9065      9073      9074
      9066      9065      9073      9075      9066      9065      9073      9076
      9067      9065      9073      9074      9067      9065      9073      9075
      9067      9065      9073      9076      9067      9068      9070      9071
      9067      9068      9070      9072      9067      9068      9070      9082
      9068      9067      9065      9073      9068      9070      9082      9083
      9068      9070      9082      9084      9068      9070      9082      9085
      9069      9068      9070      9071      9069      9068      9070      9072
      9069      9068      9070      9082      9070      9082      9085      9086
      9070      9082      9085      9087      9070      9082      9085      9088
      9071      9070      9082      9083      9071      9070      9082      9084
      9071      9070      9082      9085      9072      9070      9082      9083
      9072      9070      9082      9084      9072      9070      9082      9085
      9073      9076      9077      9078      9073      9076      9077      9079
      9074      9073      9076      9077      9075      9073      9076      9077
      9076      9077      9079      9080      9076      9077      9079      9081
      9076      9077      9079      9123      9077      9079      9123      9124
      9077      9079      9123      9125      9077      9079      9123      9126
      9078      9077      9079      9080      9078      9077      9079      9081
      9078      9077      9079      9123      9079      9123      9126      9127
      9079      9123      9126      9128      9079      9123      9126      9129
      9080      9079      9123      9124      9080      9079      9123      9125
      9080      9079      9123      9126      9081      9079      9123      9124
      9081      9079      9123      9125      9081      9079      9123      9126
      9082      9085      9088      9089      9082      9085      9088      9090
      9082      9085      9088      9091      9083      9082      9085      9086
      9083      9082      9085      9087      9083      9082      9085      9088
      9084      9082      9085      9086      9084      9082      9085      9087
      9084      9082      9085      9088      9085      9088      9091      9092
      9085      9088      9091      9093      9085      9088      9091      9094
      9086      9085      9088      9089      9086      9085      9088      9090
      9086      9085      9088      9091      9087      9085      9088      9089
      9087      9085      9088      9090      9087      9085      9088      9091
      9088      9091      9094      9095      9088      9091      9094      9096
      9088      9091      9094      9097      9089      9088      9091      9092
      9089      9088      9091      9093      9089      9088      9091      9094
      9090      9088      9091      9092      9090      9088      9091      9093
      9090      9088      9091      9094      9091      9094      9097      9098
      9091      9094      9097      9099      9091      9094      9097      9100
      9092      9091      9094      9095      9092      9091      9094      9096
      9092      9091      9094      9097      9093      9091      9094      9095
      9093      9091      9094      9096      9093      9091      9094      9097
      9094      9097      9100      9101      9094      9097      9100      9102
      9095      9094      9097      9098      9095      9094      9097      9099
      9095      9094      9097      9100      9096      9094      9097      9098
      9096      9094      9097      9099      9096      9094      9097      9100
      9097      9100      9102      9103      9097      9100      9102      9104
      9098      9097      9100      9101      9098      9097      9100      9102
      9099      9097      9100      9101      9099      9097      9100      9102
      9100      9102      9104      9105      9100      9102      9104      9106
      9100      9102      9104      9107      9101      9100      9102      9103
      9101      9100      9102      9104      9102      9104      9107      9108
      9102      9104      9107      9109      9102      9104      9107      9110
      9103      9102      9104      9105      9103      9102      9104      9106
      9103      9102      9104      9107      9104      9107      9110      9111
      9104      9107      9110      9112      9104      9107      9110      9113
      9105      9104      9107      9108      9105      9104      9107      9109
      9105      9104      9107      9110      9106      9104      9107      9108
      9106      9104      9107      9109      9106      9104      9107      9110
      9107      9110      9113      9114      9107      9110      9113      9115
      9107      9110      9113      9116      9108      9107      9110      9111
      9108      9107      9110      9112      9108      9107      9110      9113
      9109      9107      9110      9111      9109      9107      9110      9112
      9109      9107      9110      9113      9110      9113      9116      9117
      9110      9113      9116      9118      9110      9113      9116      9119
      9111      9110      9113      9114      9111      9110      9113      9115
      9111      9110      9113      9116      9112      9110      9113      9114
      9112      9110      9113      9115      9112      9110      9113      9116
      9113      9116      9119      9120      9113      9116      9119      9121
      9113      9116      9119      9122      9114      9113      9116      9117
      9114      9113      9116      9118      9114      9113      9116      9119
      9115      9113      9116      9117      9115      9113      9116      9118
      9115      9113      9116      9119      9117      9116      9119      9120
      9117      9116      9119      9121      9117      9116      9119      9122
      9118      9116      9119      9120      9118      9116      9119      9121
      9118      9116      9119      9122      9123      9126      9129      9130
      9123      9126      9129      9131      9123      9126      9129      9132
      9124      9123      9126      9127      9124      9123      9126      9128
      9124      9123      9126      9129      9125      9123      9126      9127
      9125      9123      9126      9128      9125      9123      9126      9129
      9126      9129      9132      9133      9126      9129      9132      9134
      9126      9129      9132      9135      9127      9126      9129      9130
      9127      9126      9129      9131      9127      9126      9129      9132
      9128      9126      9129      9130      9128      9126      9129      9131
      9128      9126      9129      9132      9129      9132      9135      9136
      9129      9132      9135      9137      9129      9132      9135      9138
      9130      9129      9132      9133      9130      9129      9132      9134
      9130      9129      9132      9135      9131      9129      9132      9133
      9131      9129      9132      9134      9131      9129      9132      9135
      9132      9135      9138      9139      9132      9135      9138      9140
      9132      9135      9138      9141      9133      9132      9135      9136
      9133      9132      9135      9137      9133      9132      9135      9138
      9134      9132      9135      9136      9134      9132      9135      9137
      9134      9132      9135      9138      9135      9138      9141      9142
      9135      9138      9141      9143      9135      9138      9141      9144
      9136      9135      9138      9139      9136      9135      9138      9140
      9136      9135      9138      9141      9137      9135      9138      9139
      9137      9135      9138      9140      9137      9135      9138      9141
      9138      9141      9144      9145      9138      9141      9144      9146
      9138      9141      9144      9147      9139      9138      9141      9142
      9139      9138      9141      9143      9139      9138      9141      9144
      9140      9138      9141      9142      9140      9138      9141      9143
      9140      9138      9141      9144      9141      9144      9147      9148
      9141      9144      9147      9149      9141      9144      9147      9150
      9142      9141      9144      9145      9142      9141      9144      9146
      9142      9141      9144      9147      9143      9141      9144      9145
      9143      9141      9144      9146      9143      9141      9144      9147
      9144      9147      9150      9151      9144      9147      9150      9152
      9144      9147      9150      9153      9145      9144      9147      9148
      9145      9144      9147      9149      9145      9144      9147      9150
      9146      9144      9147      9148      9146      9144      9147      9149
      9146      9144      9147      9150      9147      9150      9153      9154
      9147      9150      9153      9155      9147      9150      9153      9156
      9148      9147      9150      9151      9148      9147      9150      9152
      9148      9147      9150      9153      9149      9147      9150      9151
      9149      9147      9150      9152      9149      9147      9150      9153
      9150      9153      9156      9157      9150      9153      9156      9158
      9150      9153      9156      9159      9151      9150      9153      9154
      9151      9150      9153      9155      9151      9150      9153      9156
      9152      9150      9153      9154      9152      9150      9153      9155
      9152      9150      9153      9156      9153      9156      9159      9160
      9153      9156      9159      9161      9153      9156      9159      9162
      9154      9153      9156      9157      9154      9153      9156      9158
      9154      9153      9156      9159      9155      9153      9156      9157
      9155      9153      9156      9158      9155      9153      9156      9159
      9156      9159      9162      9163      9156      9159      9162      9164
      9156      9159      9162      9165      9157      9156      9159      9160
      9157      9156      9159      9161      9157      9156      9159      9162
      9158      9156      9159      9160      9158      9156      9159      9161
      9158      9156      9159      9162      9160      9159      9162      9163
      9160      9159      9162      9164      9160      9159      9162      9165
      9161      9159      9162      9163      9161      9159      9162      9164
      9161      9159      9162      9165      9166      9170      9173      9174
      9166      9170      9173      9175      9166      9170      9173      9180
      9167      9166      9170      9171      9167      9166      9170      9172
      9167      9166      9170      9173      9168      9166      9170      9171
      9168      9166      9170      9172      9168      9166      9170      9173
      9169      9166      9170      9171      9169      9166      9170      9172
      9169      9166      9170      9173      9170      9173      9180      9176
      9171      9170      9173      9174      9171      9170      9173      9175
      9171      9170      9173      9180      9172      9170      9173      9174
      9172      9170      9173      9175      9172      9170      9173      9180
      9173      9180      9176      9177      9173      9180      9176      9178
      9173      9180      9176      9179      9174      9173      9180      9176
      9175      9173      9180      9176      9176      9179      9181      9182
      9176      9179      9181      9183      9176      9179      9181      9184
      9177      9176      9179      9181      9178      9176      9179      9181
      9179      9181      9184      9185      9179      9181      9184      9186
      9179      9181      9184      9192      9180      9176      9179      9181
      9181      9184      9186      9187      9181      9184      9192      9193
      9181      9184      9192      9194      9181      9184      9192      9195
      9182      9181      9184      9185      9182      9181      9184      9186
      9182      9181      9184      9192      9183      9181      9184      9185
      9183      9181      9184      9186      9183      9181      9184      9192
      9184      9186      9187      9188      9184      9186      9187      9189
      9184      9192      9195      9196      9185      9184      9186      9187
      9185      9184      9192      9193      9185      9184      9192      9194
      9185      9184      9192      9195      9186      9184      9192      9193
      9186      9184      9192      9194      9186      9184      9192      9195
      9186      9187      9189      9190      9186      9187      9189      9191
      9186      9187      9189      9201      9187      9186      9184      9192
      9187      9189      9201      9202      9187      9189      9201      9203
      9187      9189      9201      9204      9188      9187      9189      9190
      9188      9187      9189      9191      9188      9187      9189      9201
      9189      9201      9204      9205      9189      9201      9204      9206
      9189      9201      9204      9207      9190      9189      9201      9202
      9190      9189      9201      9203      9190      9189      9201      9204
      9191      9189      9201      9202      9191      9189      9201      9203
      9191      9189      9201      9204      9192      9195      9196      9197
      9192      9195      9196      9198      9193      9192      9195      9196
      9194      9192      9195      9196      9195      9196      9198      9199
      9195      9196      9198      9200      9195      9196      9198      9248
      9196      9198      9248      9249      9196      9198      9248      9250
      9196      9198      9248      9251      9197      9196      9198      9199
      9197      9196      9198      9200      9197      9196      9198      9248
      9198      9248      9251      9252      9198      9248      9251      9253
      9198      9248      9251      9254      9199      9198      9248      9249
      9199      9198      9248      9250      9199      9198      9248      9251
      9200      9198      9248      9249      9200      9198      9248      9250
      9200      9198      9248      9251      9201      9204      9207      9208
      9201      9204      9207      9209      9201      9204      9207      9210
      9202      9201      9204      9205      9202      9201      9204      9206
      9202      9201      9204      9207      9203      9201      9204      9205
      9203      9201      9204      9206      9203      9201      9204      9207
      9204      9207      9210      9211      9204      9207      9210      9212
      9204      9207      9210      9213      9205      9204      9207      9208
      9205      9204      9207      9209      9205      9204      9207      9210
      9206      9204      9207      9208      9206      9204      9207      9209
      9206      9204      9207      9210      9207      9210      9213      9214
      9207      9210      9213      9215      9207      9210      9213      9216
      9208      9207      9210      9211      9208      9207      9210      9212
      9208      9207      9210      9213      9209      9207      9210      9211
      9209      9207      9210      9212      9209      9207      9210      9213
      9210      9213      9216      9217      9210      9213      9216      9218
      9210      9213      9216      9219      9211      9210      9213      9214
      9211      9210      9213      9215      9211      9210      9213      9216
      9212      9210      9213      9214      9212      9210      9213      9215
      9212      9210      9213      9216      9213      9216      9219      9220
      9213      9216      9219      9221      9214      9213      9216      9217
      9214      9213      9216      9218      9214      9213      9216      9219
      9215      9213      9216      9217      9215      9213      9216      9218
      9215      9213      9216      9219      9216      9219      9221      9222
      9216      9219      9221      9223      9217      9216      9219      9220
      9217      9216      9219      9221      9218      9216      9219      9220
      9218      9216      9219      9221      9219      9221      9223      9224
      9219      9221      9223      9225      9219      9221      9223      9226
      9220      9219      9221      9222      9220      9219      9221      9223
      9221      9223      9226      9227      9221      9223      9226      9228
      9221      9223      9226      9229      9222      9221      9223      9224
      9222      9221      9223      9225      9222      9221      9223      9226
      9223      9226      9229      9230      9223      9226      9229      9231
      9223      9226      9229      9232      9224      9223      9226      9227
      9224      9223      9226      9228      9224      9223      9226      9229
      9225      9223      9226      9227      9225      9223      9226      9228
      9225      9223      9226      9229      9226      9229      9232      9233
      9226      9229      9232      9234      9226      9229      9232      9235
      9227      9226      9229      9230      9227      9226      9229      9231
      9227      9226      9229      9232      9228      9226      9229      9230
      9228      9226      9229      9231      9228      9226      9229      9232
      9229      9232      9235      9236      9229      9232      9235      9237
      9229      9232      9235      9238      9230      9229      9232      9233
      9230      9229      9232      9234      9230      9229      9232      9235
      9231      9229      9232      9233      9231      9229      9232      9234
      9231      9229      9232      9235      9232      9235      9238      9239
      9232      9235      9238      9240      9232      9235      9238      9241
      9233      9232      9235      9236      9233      9232      9235      9237
      9233      9232      9235      9238      9234      9232      9235      9236
      9234      9232      9235      9237      9234      9232      9235      9238
      9235      9238      9241      9242      9235      9238      9241      9243
      9235      9238      9241      9244      9236      9235      9238      9239
      9236      9235      9238      9240      9236      9235      9238      9241
      9237      9235      9238      9239      9237      9235      9238      9240
      9237      9235      9238      9241      9238      9241      9244      9245
      9238      9241      9244      9246      9238      9241      9244      9247
      9239      9238      9241      9242      9239      9238      9241      9243
      9239      9238      9241      9244      9240      9238      9241      9242
      9240      9238      9241      9243      9240      9238      9241      9244
      9242      9241      9244      9245      9242      9241      9244      9246
      9242      9241      9244      9247      9243      9241      9244      9245
      9243      9241      9244      9246      9243      9241      9244      9247
      9248      9251      9254      9255      9248      9251      9254      9256
      9248      9251      9254      9257      9249      9248      9251      9252
      9249      9248      9251      9253      9249      9248      9251      9254
      9250      9248      9251      9252      9250      9248      9251      9253
      9250      9248      9251      9254      9251      9254      9257      9258
      9251      9254      9257      9259      9251      9254      9257      9260
      9252      9251      9254      9255      9252      9251      9254      9256
      9252      9251      9254      9257      9253      9251      9254      9255
      9253      9251      9254      9256      9253      9251      9254      9257
      9254      9257      9260      9261      9254      9257      9260      9262
      9254      9257      9260      9263      9255      9254      9257      9258
      9255      9254      9257      9259      9255      9254      9257      9260
      9256      9254      9257      9258      9256      9254      9257      9259
      9256      9254      9257      9260      9257      9260      9263      9264
      9257      9260      9263      9265      9257      9260      9263      9266
      9258      9257      9260      9261      9258      9257      9260      9262
      9258      9257      9260      9263      9259      9257      9260      9261
      9259      9257      9260      9262      9259      9257      9260      9263
      9260      9263      9266      9267      9260      9263      9266      9268
      9260      9263      9266      9269      9261      9260      9263      9264
      9261      9260      9263      9265      9261      9260      9263      9266
      9262      9260      9263      9264      9262      9260      9263      9265
      9262      9260      9263      9266      9263      9266      9269      9270
      9263      9266      9269      9271      9263      9266      9269      9272
      9264      9263      9266      9267      9264      9263      9266      9268
      9264      9263      9266      9269      9265      9263      9266      9267
      9265      9263      9266      9268      9265      9263      9266      9269
      9266      9269      9272      9273      9266      9269      9272      9274
      9266      9269      9272      9275      9267      9266      9269      9270
      9267      9266      9269      9271      9267      9266      9269      9272
      9268      9266      9269      9270      9268      9266      9269      9271
      9268      9266      9269      9272      9269      9272      9275      9276
      9269      9272      9275      9277      9269      9272      9275      9278
      9270      9269      9272      9273      9270      9269      9272      9274
      9270      9269      9272      9275      9271      9269      9272      9273
      9271      9269      9272      9274      9271      9269      9272      9275
      9272      9275      9278      9279      9272      9275      9278      9280
      9272      9275      9278      9281      9273      9272      9275      9276
      9273      9272      9275      9277      9273      9272      9275      9278
      9274      9272      9275      9276      9274      9272      9275      9277
      9274      9272      9275      9278      9275      9278      9281      9282
      9275      9278      9281      9283      9275      9278      9281      9284
      9276      9275      9278      9279      9276      9275      9278      9280
      9276      9275      9278      9281      9277      9275      9278      9279
      9277      9275      9278      9280      9277      9275      9278      9281
      9278      9281      9284      9285      9278      9281      9284      9286
      9278      9281      9284      9287      9279      9278      9281      9282
      9279      9278      9281      9283      9279      9278      9281      9284
      9280      9278      9281      9282      9280      9278      9281      9283
      9280      9278      9281      9284      9281      9284      9287      9288
      9281      9284      9287      9289      9281      9284      9287      9290
      9282      9281      9284      9285      9282      9281      9284      9286
      9282      9281      9284      9287      9283      9281      9284      9285
      9283      9281      9284      9286      9283      9281      9284      9287
      9285      9284      9287      9288      9285      9284      9287      9289
      9285      9284      9287      9290      9286      9284      9287      9288
      9286      9284      9287      9289      9286      9284      9287      9290
      9291      9295      9298      9299      9291      9295      9298      9300
      9291      9295      9298      9305      9292      9291      9295      9296
      9292      9291      9295      9297      9292      9291      9295      9298
      9293      9291      9295      9296      9293      9291      9295      9297
      9293      9291      9295      9298      9294      9291      9295      9296
      9294      9291      9295      9297      9294      9291      9295      9298
      9295      9298      9305      9301      9296      9295      9298      9299
      9296      9295      9298      9300      9296      9295      9298      9305
      9297      9295      9298      9299      9297      9295      9298      9300
      9297      9295      9298      9305      9298      9305      9301      9302
      9298      9305      9301      9303      9298      9305      9301      9304
      9299      9298      9305      9301      9300      9298      9305      9301
      9301      9304      9306      9307      9301      9304      9306      9308
      9301      9304      9306      9309      9302      9301      9304      9306
      9303      9301      9304      9306      9304      9306      9309      9310
      9304      9306      9309      9311      9304      9306      9309      9317
      9305      9301      9304      9306      9306      9309      9311      9312
      9306      9309      9317      9318      9306      9309      9317      9319
      9306      9309      9317      9320      9307      9306      9309      9310
      9307      9306      9309      9311      9307      9306      9309      9317
      9308      9306      9309      9310      9308      9306      9309      9311
      9308      9306      9309      9317      9309      9311      9312      9313
      9309      9311      9312      9314      9309      9317      9320      9321
      9310      9309      9311      9312      9310      9309      9317      9318
      9310      9309      9317      9319      9310      9309      9317      9320
      9311      9309      9317      9318      9311      9309      9317      9319
      9311      9309      9317      9320      9311      9312      9314      9315
      9311      9312      9314      9316      9311      9312      9314      9326
      9312      9311      9309      9317      9312      9314      9326      9327
      9312      9314      9326      9328      9312      9314      9326      9329
      9313      9312      9314      9315      9313      9312      9314      9316
      9313      9312      9314      9326      9314      9326      9329      9330
      9314      9326      9329      9331      9314      9326      9329      9332
      9315      9314      9326      9327      9315      9314      9326      9328
      9315      9314      9326      9329      9316      9314      9326      9327
      9316      9314      9326      9328      9316      9314      9326      9329
      9317      9320      9321      9322      9317      9320      9321      9323
      9318      9317      9320      9321      9319      9317      9320      9321
      9320      9321      9323      9324      9320      9321      9323      9325
      9320      9321      9323      9370      9321      9323      9370      9371
      9321      9323      9370      9372      9321      9323      9370      9373
      9322      9321      9323      9324      9322      9321      9323      9325
      9322      9321      9323      9370      9323      9370      9373      9374
      9323      9370      9373      9375      9323      9370      9373      9376
      9324      9323      9370      9371      9324      9323      9370      9372
      9324      9323      9370      9373      9325      9323      9370      9371
      9325      9323      9370      9372      9325      9323      9370      9373
      9326      9329      9332      9333      9326      9329      9332      9334
      9326      9329      9332      9335      9327      9326      9329      9330
      9327      9326      9329      9331      9327      9326      9329      9332
      9328      9326      9329      9330      9328      9326      9329      9331
      9328      9326      9329      9332      9329      9332      9335      9336
      9329      9332      9335      9337      9329      9332      9335      9338
      9330      9329      9332      9333      9330      9329      9332      9334
      9330      9329      9332      9335      9331      9329      9332      9333
      9331      9329      9332      9334      9331      9329      9332      9335
      9332      9335      9338      9339      9332      9335      9338      9340
      9332      9335      9338      9341      9333      9332      9335      9336
      9333      9332      9335      9337      9333      9332      9335      9338
      9334      9332      9335      9336      9334      9332      9335      9337
      9334      9332      9335      9338      9335      9338      9341      9342
      9335      9338      9341      9343      9335      9338      9341      9344
      9336      9335      9338      9339      9336      9335      9338      9340
      9336      9335      9338      9341      9337      9335      9338      9339
      9337      9335      9338      9340      9337      9335      9338      9341
      9338      9341      9344      9345      9338      9341      9344      9346
      9338      9341      9344      9349      9339      9338      9341      9342
      9339      9338      9341      9343      9339      9338      9341      9344
      9340      9338      9341      9342      9340      9338      9341      9343
      9340      9338      9341      9344      9341      9344      9346      9347
      9341      9344      9346      9348      9341      9344      9346      9349
      9341      9344      9349      9346      9341      9344      9349      9350
      9341      9344      9349      9351      9342      9341      9344      9345
      9342      9341      9344      9346      9342      9341      9344      9349
      9343      9341      9344      9345      9343      9341      9344      9346
      9343      9341      9344      9349      9344      9346      9349      9350
      9344      9346      9349      9351      9344      9349      9346      9347
      9344      9349      9346      9348      9344      9349      9351      9352
      9344      9349      9351      9353      9344      9349      9351      9354
      9345      9344      9346      9347      9345      9344      9346      9348
      9345      9344      9346      9349      9345      9344      9349      9346
      9345      9344      9349      9350      9345      9344      9349      9351
      9346      9344      9349      9350      9346      9344      9349      9351
      9346      9349      9351      9352      9346      9349      9351      9353
      9346      9349      9351      9354      9347      9346      9344      9349
      9347      9346      9349      9350      9347      9346      9349      9351
      9348      9346      9344      9349      9348      9346      9349      9350
      9348      9346      9349      9351      9349      9351      9354      9355
      9349      9351      9354      9356      9349      9351      9354      9357
      9350      9349      9351      9352      9350      9349      9351      9353
      9350      9349      9351      9354      9351      9354      9357      9358
      9351      9354      9357      9359      9351      9354      9357      9360
      9352      9351      9354      9355      9352      9351      9354      9356
      9352      9351      9354      9357      9353      9351      9354      9355
      9353      9351      9354      9356      9353      9351      9354      9357
      9354      9357      9360      9361      9354      9357      9360      9362
      9354      9357      9360      9363      9355      9354      9357      9358
      9355      9354      9357      9359      9355      9354      9357      9360
      9356      9354      9357      9358      9356      9354      9357      9359
      9356      9354      9357      9360      9357      9360      9363      9364
      9357      9360      9363      9365      9357      9360      9363      9366
      9358      9357      9360      9361      9358      9357      9360      9362
      9358      9357      9360      9363      9359      9357      9360      9361
      9359      9357      9360      9362      9359      9357      9360      9363
      9360      9363      9366      9367      9360      9363      9366      9368
      9360      9363      9366      9369      9361      9360      9363      9364
      9361      9360      9363      9365      9361      9360      9363      9366
      9362      9360      9363      9364      9362      9360      9363      9365
      9362      9360      9363      9366      9364      9363      9366      9367
      9364      9363      9366      9368      9364      9363      9366      9369
      9365      9363      9366      9367      9365      9363      9366      9368
      9365      9363      9366      9369      9370      9373      9376      9377
      9370      9373      9376      9378      9370      9373      9376      9379
      9371      9370      9373      9374      9371      9370      9373      9375
      9371      9370      9373      9376      9372      9370      9373      9374
      9372      9370      9373      9375      9372      9370      9373      9376
      9373      9376      9379      9380      9373      9376      9379      9381
      9373      9376      9379      9382      9374      9373      9376      9377
      9374      9373      9376      9378      9374      9373      9376      9379
      9375      9373      9376      9377      9375      9373      9376      9378
      9375      9373      9376      9379      9376      9379      9382      9383
      9376      9379      9382      9384      9376      9379      9382      9385
      9377      9376      9379      9380      9377      9376      9379      9381
      9377      9376      9379      9382      9378      9376      9379      9380
      9378      9376      9379      9381      9378      9376      9379      9382
      9379      9382      9385      9386      9379      9382      9385      9387
      9379      9382      9385      9388      9380      9379      9382      9383
      9380      9379      9382      9384      9380      9379      9382      9385
      9381      9379      9382      9383      9381      9379      9382      9384
      9381      9379      9382      9385      9382      9385      9388      9389
      9382      9385      9388      9390      9382      9385      9388      9391
      9383      9382      9385      9386      9383      9382      9385      9387
      9383      9382      9385      9388      9384      9382      9385      9386
      9384      9382      9385      9387      9384      9382      9385      9388
      9385      9388      9391      9392      9385      9388      9391      9393
      9385      9388      9391      9394      9386      9385      9388      9389
      9386      9385      9388      9390      9386      9385      9388      9391
      9387      9385      9388      9389      9387      9385      9388      9390
      9387      9385      9388      9391      9388      9391      9394      9395
      9388      9391      9394      9396      9388      9391      9394      9397
      9389      9388      9391      9392      9389      9388      9391      9393
      9389      9388      9391      9394      9390      9388      9391      9392
      9390      9388      9391      9393      9390      9388      9391      9394
      9391      9394      9397      9398      9391      9394      9397      9399
      9391      9394      9397      9400      9392      9391      9394      9395
      9392      9391      9394      9396      9392      9391      9394      9397
      9393      9391      9394      9395      9393      9391      9394      9396
      9393      9391      9394      9397      9394      9397      9400      9401
      9394      9397      9400      9402      9394      9397      9400      9403
      9395      9394      9397      9398      9395      9394      9397      9399
      9395      9394      9397      9400      9396      9394      9397      9398
      9396      9394      9397      9399      9396      9394      9397      9400
      9397      9400      9403      9404      9397      9400      9403      9405
      9397      9400      9403      9406      9398      9397      9400      9401
      9398      9397      9400      9402      9398      9397      9400      9403
      9399      9397      9400      9401      9399      9397      9400      9402
      9399      9397      9400      9403      9400      9403      9406      9407
      9400      9403      9406      9408      9400      9403      9406      9409
      9401      9400      9403      9404      9401      9400      9403      9405
      9401      9400      9403      9406      9402      9400      9403      9404
      9402      9400      9403      9405      9402      9400      9403      9406
      9404      9403      9406      9407      9404      9403      9406      9408
      9404      9403      9406      9409      9405      9403      9406      9407
      9405      9403      9406      9408      9405      9403      9406      9409
      9410      9414      9417      9418      9410      9414      9417      9419
      9410      9414      9417      9424      9411      9410      9414      9415
      9411      9410      9414      9416      9411      9410      9414      9417
      9412      9410      9414      9415      9412      9410      9414      9416
      9412      9410      9414      9417      9413      9410      9414      9415
      9413      9410      9414      9416      9413      9410      9414      9417
      9414      9417      9424      9420      9415      9414      9417      9418
      9415      9414      9417      9419      9415      9414      9417      9424
      9416      9414      9417      9418      9416      9414      9417      9419
      9416      9414      9417      9424      9417      9424      9420      9421
      9417      9424      9420      9422      9417      9424      9420      9423
      9418      9417      9424      9420      9419      9417      9424      9420
      9420      9423      9425      9426      9420      9423      9425      9427
      9420      9423      9425      9428      9421      9420      9423      9425
      9422      9420      9423      9425      9423      9425      9428      9429
      9423      9425      9428      9430      9423      9425      9428      9436
      9424      9420      9423      9425      9425      9428      9430      9431
      9425      9428      9436      9437      9425      9428      9436      9438
      9425      9428      9436      9439      9426      9425      9428      9429
      9426      9425      9428      9430      9426      9425      9428      9436
      9427      9425      9428      9429      9427      9425      9428      9430
      9427      9425      9428      9436      9428      9430      9431      9432
      9428      9430      9431      9433      9428      9436      9439      9440
      9429      9428      9430      9431      9429      9428      9436      9437
      9429      9428      9436      9438      9429      9428      9436      9439
      9430      9428      9436      9437      9430      9428      9436      9438
      9430      9428      9436      9439      9430      9431      9433      9434
      9430      9431      9433      9435      9430      9431      9433      9445
      9431      9430      9428      9436      9431      9433      9445      9446
      9431      9433      9445      9447      9431      9433      9445      9448
      9432      9431      9433      9434      9432      9431      9433      9435
      9432      9431      9433      9445      9433      9445      9448      9449
      9433      9445      9448      9450      9433      9445      9448      9451
      9434      9433      9445      9446      9434      9433      9445      9447
      9434      9433      9445      9448      9435      9433      9445      9446
      9435      9433      9445      9447      9435      9433      9445      9448
      9436      9439      9440      9441      9436      9439      9440      9442
      9437      9436      9439      9440      9438      9436      9439      9440
      9439      9440      9442      9443      9439      9440      9442      9444
      9439      9440      9442      9489      9440      9442      9489      9490
      9440      9442      9489      9491      9440      9442      9489      9492
      9441      9440      9442      9443      9441      9440      9442      9444
      9441      9440      9442      9489      9442      9489      9492      9493
      9442      9489      9492      9494      9442      9489      9492      9495
      9443      9442      9489      9490      9443      9442      9489      9491
      9443      9442      9489      9492      9444      9442      9489      9490
      9444      9442      9489      9491      9444      9442      9489      9492
      9445      9448      9451      9452      9445      9448      9451      9453
      9445      9448      9451      9454      9446      9445      9448      9449
      9446      9445      9448      9450      9446      9445      9448      9451
      9447      9445      9448      9449      9447      9445      9448      9450
      9447      9445      9448      9451      9448      9451      9454      9455
      9448      9451      9454      9456      9448      9451      9454      9457
      9449      9448      9451      9452      9449      9448      9451      9453
      9449      9448      9451      9454      9450      9448      9451      9452
      9450      9448      9451      9453      9450      9448      9451      9454
      9451      9454      9457      9458      9451      9454      9457      9459
      9451      9454      9457      9460      9452      9451      9454      9455
      9452      9451      9454      9456      9452      9451      9454      9457
      9453      9451      9454      9455      9453      9451      9454      9456
      9453      9451      9454      9457      9454      9457      9460      9461
      9454      9457      9460      9462      9454      9457      9460      9463
      9455      9454      9457      9458      9455      9454      9457      9459
      9455      9454      9457      9460      9456      9454      9457      9458
      9456      9454      9457      9459      9456      9454      9457      9460
      9457      9460      9463      9464      9457      9460      9463      9465
      9457      9460      9463      9468      9458      9457      9460      9461
      9458      9457      9460      9462      9458      9457      9460      9463
      9459      9457      9460      9461      9459      9457      9460      9462
      9459      9457      9460      9463      9460      9463      9465      9466
      9460      9463      9465      9467      9460      9463      9465      9468
      9460      9463      9468      9465      9460      9463      9468      9469
      9460      9463      9468      9470      9461      9460      9463      9464
      9461      9460      9463      9465      9461      9460      9463      9468
      9462      9460      9463      9464      9462      9460      9463      9465
      9462      9460      9463      9468      9463      9465      9468      9469
      9463      9465      9468      9470      9463      9468      9465      9466
      9463      9468      9465      9467      9463      9468      9470      9471
      9463      9468      9470      9472      9463      9468      9470      9473
      9464      9463      9465      9466      9464      9463      9465      9467
      9464      9463      9465      9468      9464      9463      9468      9465
      9464      9463      9468      9469      9464      9463      9468      9470
      9465      9463      9468      9469      9465      9463      9468      9470
      9465      9468      9470      9471      9465      9468      9470      9472
      9465      9468      9470      9473      9466      9465      9463      9468
      9466      9465      9468      9469      9466      9465      9468      9470
      9467      9465      9463      9468      9467      9465      9468      9469
      9467      9465      9468      9470      9468      9470      9473      9474
      9468      9470      9473      9475      9468      9470      9473      9476
      9469      9468      9470      9471      9469      9468      9470      9472
      9469      9468      9470      9473      9470      9473      9476      9477
      9470      9473      9476      9478      9470      9473      9476      9479
      9471      9470      9473      9474      9471      9470      9473      9475
      9471      9470      9473      9476      9472      9470      9473      9474
      9472      9470      9473      9475      9472      9470      9473      9476
      9473      9476      9479      9480      9473      9476      9479      9481
      9473      9476      9479      9482      9474      9473      9476      9477
      9474      9473      9476      9478      9474      9473      9476      9479
      9475      9473      9476      9477      9475      9473      9476      9478
      9475      9473      9476      9479      9476      9479      9482      9483
      9476      9479      9482      9484      9476      9479      9482      9485
      9477      9476      9479      9480      9477      9476      9479      9481
      9477      9476      9479      9482      9478      9476      9479      9480
      9478      9476      9479      9481      9478      9476      9479      9482
      9479      9482      9485      9486      9479      9482      9485      9487
      9479      9482      9485      9488      9480      9479      9482      9483
      9480      9479      9482      9484      9480      9479      9482      9485
      9481      9479      9482      9483      9481      9479      9482      9484
      9481      9479      9482      9485      9483      9482      9485      9486
      9483      9482      9485      9487      9483      9482      9485      9488
      9484      9482      9485      9486      9484      9482      9485      9487
      9484      9482      9485      9488      9489      9492      9495      9496
      9489      9492      9495      9497      9489      9492      9495      9498
      9490      9489      9492      9493      9490      9489      9492      9494
      9490      9489      9492      9495      9491      9489      9492      9493
      9491      9489      9492      9494      9491      9489      9492      9495
      9492      9495      9498      9499      9492      9495      9498      9500
      9492      9495      9498      9501      9493      9492      9495      9496
      9493      9492      9495      9497      9493      9492      9495      9498
      9494      9492      9495      9496      9494      9492      9495      9497
      9494      9492      9495      9498      9495      9498      9501      9502
      9495      9498      9501      9503      9495      9498      9501      9504
      9496      9495      9498      9499      9496      9495      9498      9500
      9496      9495      9498      9501      9497      9495      9498      9499
      9497      9495      9498      9500      9497      9495      9498      9501
      9498      9501      9504      9505      9498      9501      9504      9506
      9498      9501      9504      9507      9499      9498      9501      9502
      9499      9498      9501      9503      9499      9498      9501      9504
      9500      9498      9501      9502      9500      9498      9501      9503
      9500      9498      9501      9504      9501      9504      9507      9508
      9501      9504      9507      9509      9501      9504      9507      9510
      9502      9501      9504      9505      9502      9501      9504      9506
      9502      9501      9504      9507      9503      9501      9504      9505
      9503      9501      9504      9506      9503      9501      9504      9507
      9504      9507      9510      9511      9504      9507      9510      9512
      9504      9507      9510      9513      9505      9504      9507      9508
      9505      9504      9507      9509      9505      9504      9507      9510
      9506      9504      9507      9508      9506      9504      9507      9509
      9506      9504      9507      9510      9507      9510      9513      9514
      9507      9510      9513      9515      9507      9510      9513      9516
      9508      9507      9510      9511      9508      9507      9510      9512
      9508      9507      9510      9513      9509      9507      9510      9511
      9509      9507      9510      9512      9509      9507      9510      9513
      9510      9513      9516      9517      9510      9513      9516      9518
      9510      9513      9516      9519      9511      9510      9513      9514
      9511      9510      9513      9515      9511      9510      9513      9516
      9512      9510      9513      9514      9512      9510      9513      9515
      9512      9510      9513      9516      9513      9516      9519      9520
      9513      9516      9519      9521      9513      9516      9519      9522
      9514      9513      9516      9517      9514      9513      9516      9518
      9514      9513      9516      9519      9515      9513      9516      9517
      9515      9513      9516      9518      9515      9513      9516      9519
      9516      9519      9522      9523      9516      9519      9522      9524
      9516      9519      9522      9525      9517      9516      9519      9520
      9517      9516      9519      9521      9517      9516      9519      9522
      9518      9516      9519      9520      9518      9516      9519      9521
      9518      9516      9519      9522      9519      9522      9525      9526
      9519      9522      9525      9527      9519      9522      9525      9528
      9520      9519      9522      9523      9520      9519      9522      9524
      9520      9519      9522      9525      9521      9519      9522      9523
      9521      9519      9522      9524      9521      9519      9522      9525
      9522      9525      9528      9529      9522      9525      9528      9530
      9522      9525      9528      9531      9523      9522      9525      9526
      9523      9522      9525      9527      9523      9522      9525      9528
      9524      9522      9525      9526      9524      9522      9525      9527
      9524      9522      9525      9528      9526      9525      9528      9529
      9526      9525      9528      9530      9526      9525      9528      9531
      9527      9525      9528      9529      9527      9525      9528      9530
      9527      9525      9528      9531      9532      9536      9539      9540
      9532      9536      9539      9541      9532      9536      9539      9546
      9533      9532      9536      9537      9533      9532      9536      9538
      9533      9532      9536      9539      9534      9532      9536      9537
      9534      9532      9536      9538      9534      9532      9536      9539
      9535      9532      9536      9537      9535      9532      9536      9538
      9535      9532      9536      9539      9536      9539      9546      9542
      9537      9536      9539      9540      9537      9536      9539      9541
      9537      9536      9539      9546      9538      9536      9539      9540
      9538      9536      9539      9541      9538      9536      9539      9546
      9539      9546      9542      9543      9539      9546      9542      9544
      9539      9546      9542      9545      9540      9539      9546      9542
      9541      9539      9546      9542      9542      9545      9547      9548
      9542      9545      9547      9549      9542      9545      9547      9550
      9543      9542      9545      9547      9544      9542      9545      9547
      9545      9547      9550      9551      9545      9547      9550      9552
      9545      9547      9550      9558      9546      9542      9545      9547
      9547      9550      9552      9553      9547      9550      9558      9559
      9547      9550      9558      9560      9547      9550      9558      9561
      9548      9547      9550      9551      9548      9547      9550      9552
      9548      9547      9550      9558      9549      9547      9550      9551
      9549      9547      9550      9552      9549      9547      9550      9558
      9550      9552      9553      9554      9550      9552      9553      9555
      9550      9558      9561      9562      9551      9550      9552      9553
      9551      9550      9558      9559      9551      9550      9558      9560
      9551      9550      9558      9561      9552      9550      9558      9559
      9552      9550      9558      9560      9552      9550      9558      9561
      9552      9553      9555      9556      9552      9553      9555      9557
      9552      9553      9555      9567      9553      9552      9550      9558
      9553      9555      9567      9568      9553      9555      9567      9569
      9553      9555      9567      9570      9554      9553      9555      9556
      9554      9553      9555      9557      9554      9553      9555      9567
      9555      9567      9570      9571      9555      9567      9570      9572
      9555      9567      9570      9573      9556      9555      9567      9568
      9556      9555      9567      9569      9556      9555      9567      9570
      9557      9555      9567      9568      9557      9555      9567      9569
      9557      9555      9567      9570      9558      9561      9562      9563
      9558      9561      9562      9564      9559      9558      9561      9562
      9560      9558      9561      9562      9561      9562      9564      9565
      9561      9562      9564      9566      9561      9562      9564      9614
      9562      9564      9614      9615      9562      9564      9614      9616
      9562      9564      9614      9617      9563      9562      9564      9565
      9563      9562      9564      9566      9563      9562      9564      9614
      9564      9614      9617      9618      9564      9614      9617      9619
      9564      9614      9617      9620      9565      9564      9614      9615
      9565      9564      9614      9616      9565      9564      9614      9617
      9566      9564      9614      9615      9566      9564      9614      9616
      9566      9564      9614      9617      9567      9570      9573      9574
      9567      9570      9573      9575      9567      9570      9573      9576
      9568      9567      9570      9571      9568      9567      9570      9572
      9568      9567      9570      9573      9569      9567      9570      9571
      9569      9567      9570      9572      9569      9567      9570      9573
      9570      9573      9576      9577      9570      9573      9576      9578
      9570      9573      9576      9579      9571      9570      9573      9574
      9571      9570      9573      9575      9571      9570      9573      9576
      9572      9570      9573      9574      9572      9570      9573      9575
      9572      9570      9573      9576      9573      9576      9579      9580
      9573      9576      9579      9581      9573      9576      9579      9582
      9574      9573      9576      9577      9574      9573      9576      9578
      9574      9573      9576      9579      9575      9573      9576      9577
      9575      9573      9576      9578      9575      9573      9576      9579
      9576      9579      9582      9583      9576      9579      9582      9584
      9576      9579      9582      9585      9577      9576      9579      9580
      9577      9576      9579      9581      9577      9576      9579      9582
      9578      9576      9579      9580      9578      9576      9579      9581
      9578      9576      9579      9582      9579      9582      9585      9586
      9579      9582      9585      9587      9580      9579      9582      9583
      9580      9579      9582      9584      9580      9579      9582      9585
      9581      9579      9582      9583      9581      9579      9582      9584
      9581      9579      9582      9585      9582      9585      9587      9588
      9582      9585      9587      9589      9583      9582      9585      9586
      9583      9582      9585      9587      9584      9582      9585      9586
      9584      9582      9585      9587      9585      9587      9589      9590
      9585      9587      9589      9591      9585      9587      9589      9592
      9586      9585      9587      9588      9586      9585      9587      9589
      9587      9589      9592      9593      9587      9589      9592      9594
      9587      9589      9592      9595      9588      9587      9589      9590
      9588      9587      9589      9591      9588      9587      9589      9592
      9589      9592      9595      9596      9589      9592      9595      9597
      9589      9592      9595      9598      9590      9589      9592      9593
      9590      9589      9592      9594      9590      9589      9592      9595
      9591      9589      9592      9593      9591      9589      9592      9594
      9591      9589      9592      9595      9592      9595      9598      9599
      9592      9595      9598      9600      9592      9595      9598      9601
      9593      9592      9595      9596      9593      9592      9595      9597
      9593      9592      9595      9598      9594      9592      9595      9596
      9594      9592      9595      9597      9594      9592      9595      9598
      9595      9598      9601      9602      9595      9598      9601      9603
      9595      9598      9601      9604      9596      9595      9598      9599
      9596      9595      9598      9600      9596      9595      9598      9601
      9597      9595      9598      9599      9597      9595      9598      9600
      9597      9595      9598      9601      9598      9601      9604      9605
      9598      9601      9604      9606      9598      9601      9604      9607
      9599      9598      9601      9602      9599      9598      9601      9603
      9599      9598      9601      9604      9600      9598      9601      9602
      9600      9598      9601      9603      9600      9598      9601      9604
      9601      9604      9607      9608      9601      9604      9607      9609
      9601      9604      9607      9610      9602      9601      9604      9605
      9602      9601      9604      9606      9602      9601      9604      9607
      9603      9601      9604      9605      9603      9601      9604      9606
      9603      9601      9604      9607      9604      9607      9610      9611
      9604      9607      9610      9612      9604      9607      9610      9613
      9605      9604      9607      9608      9605      9604      9607      9609
      9605      9604      9607      9610      9606      9604      9607      9608
      9606      9604      9607      9609      9606      9604      9607      9610
      9608      9607      9610      9611      9608      9607      9610      9612
      9608      9607      9610      9613      9609      9607      9610      9611
      9609      9607      9610      9612      9609      9607      9610      9613
      9614      9617      9620      9621      9614      9617      9620      9622
      9614      9617      9620      9623      9615      9614      9617      9618
      9615      9614      9617      9619      9615      9614      9617      9620
      9616      9614      9617      9618      9616      9614      9617      9619
      9616      9614      9617      9620      9617      9620      9623      9624
      9617      9620      9623      9625      9617      9620      9623      9626
      9618      9617      9620      9621      9618      9617      9620      9622
      9618      9617      9620      9623      9619      9617      9620      9621
      9619      9617      9620      9622      9619      9617      9620      9623
      9620      9623      9626      9627      9620      9623      9626      9628
      9620      9623      9626      9629      9621      9620      9623      9624
      9621      9620      9623      9625      9621      9620      9623      9626
      9622      9620      9623      9624      9622      9620      9623      9625
      9622      9620      9623      9626      9623      9626      9629      9630
      9623      9626      9629      9631      9623      9626      9629      9632
      9624      9623      9626      9627      9624      9623      9626      9628
      9624      9623      9626      9629      9625      9623      9626      9627
      9625      9623      9626      9628      9625      9623      9626      9629
      9626      9629      9632      9633      9626      9629      9632      9634
      9626      9629      9632      9635      9627      9626      9629      9630
      9627      9626      9629      9631      9627      9626      9629      9632
      9628      9626      9629      9630      9628      9626      9629      9631
      9628      9626      9629      9632      9629      9632      9635      9636
      9629      9632      9635      9637      9629      9632      9635      9638
      9630      9629      9632      9633      9630      9629      9632      9634
      9630      9629      9632      9635      9631      9629      9632      9633
      9631      9629      9632      9634      9631      9629      9632      9635
      9632      9635      9638      9639      9632      9635      9638      9640
      9632      9635      9638      9641      9633      9632      9635      9636
      9633      9632      9635      9637      9633      9632      9635      9638
      9634      9632      9635      9636      9634      9632      9635      9637
      9634      9632      9635      9638      9635      9638      9641      9642
      9635      9638      9641      9643      9635      9638      9641      9644
      9636      9635      9638      9639      9636      9635      9638      9640
      9636      9635      9638      9641      9637      9635      9638      9639
      9637      9635      9638      9640      9637      9635      9638      9641
      9638      9641      9644      9645      9638      9641      9644      9646
      9638      9641      9644      9647      9639      9638      9641      9642
      9639      9638      9641      9643      9639      9638      9641      9644
      9640      9638      9641      9642      9640      9638      9641      9643
      9640      9638      9641      9644      9641      9644      9647      9648
      9641      9644      9647      9649      9641      9644      9647      9650
      9642      9641      9644      9645      9642      9641      9644      9646
      9642      9641      9644      9647      9643      9641      9644      9645
      9643      9641      9644      9646      9643      9641      9644      9647
      9644      9647      9650      9651      9644      9647      9650      9652
      9644      9647      9650      9653      9645      9644      9647      9648
      9645      9644      9647      9649      9645      9644      9647      9650
      9646      9644      9647      9648      9646      9644      9647      9649
      9646      9644      9647      9650      9647      9650      9653      9654
      9647      9650      9653      9655      9647      9650      9653      9656
      9648      9647      9650      9651      9648      9647      9650      9652
      9648      9647      9650      9653      9649      9647      9650      9651
      9649      9647      9650      9652      9649      9647      9650      9653
      9651      9650      9653      9654      9651      9650      9653      9655
      9651      9650      9653      9656      9652      9650      9653      9654
      9652      9650      9653      9655      9652      9650      9653      9656
      9657      9661      9664      9665      9657      9661      9664      9666
      9657      9661      9664      9671      9658      9657      9661      9662
      9658      9657      9661      9663      9658      9657      9661      9664
      9659      9657      9661      9662      9659      9657      9661      9663
      9659      9657      9661      9664      9660      9657      9661      9662
      9660      9657      9661      9663      9660      9657      9661      9664
      9661      9664      9671      9667      9662      9661      9664      9665
      9662      9661      9664      9666      9662      9661      9664      9671
      9663      9661      9664      9665      9663      9661      9664      9666
      9663      9661      9664      9671      9664      9671      9667      9668
      9664      9671      9667      9669      9664      9671      9667      9670
      9665      9664      9671      9667      9666      9664      9671      9667
      9667      9670      9672      9673      9667      9670      9672      9674
      9667      9670      9672      9675      9668      9667      9670      9672
      9669      9667      9670      9672      9670      9672      9675      9676
      9670      9672      9675      9677      9670      9672      9675      9683
      9671      9667      9670      9672      9672      9675      9677      9678
      9672      9675      9683      9684      9672      9675      9683      9685
      9672      9675      9683      9686      9673      9672      9675      9676
      9673      9672      9675      9677      9673      9672      9675      9683
      9674      9672      9675      9676      9674      9672      9675      9677
      9674      9672      9675      9683      9675      9677      9678      9679
      9675      9677      9678      9680      9675      9683      9686      9687
      9676      9675      9677      9678      9676      9675      9683      9684
      9676      9675      9683      9685      9676      9675      9683      9686
      9677      9675      9683      9684      9677      9675      9683      9685
      9677      9675      9683      9686      9677      9678      9680      9681
      9677      9678      9680      9682      9677      9678      9680      9692
      9678      9677      9675      9683      9678      9680      9692      9693
      9678      9680      9692      9694      9678      9680      9692      9695
      9679      9678      9680      9681      9679      9678      9680      9682
      9679      9678      9680      9692      9680      9692      9695      9696
      9680      9692      9695      9697      9680      9692      9695      9698
      9681      9680      9692      9693      9681      9680      9692      9694
      9681      9680      9692      9695      9682      9680      9692      9693
      9682      9680      9692      9694      9682      9680      9692      9695
      9683      9686      9687      9688      9683      9686      9687      9689
      9684      9683      9686      9687      9685      9683      9686      9687
      9686      9687      9689      9690      9686      9687      9689      9691
      9686      9687      9689      9736      9687      9689      9736      9737
      9687      9689      9736      9738      9687      9689      9736      9739
      9688      9687      9689      9690      9688      9687      9689      9691
      9688      9687      9689      9736      9689      9736      9739      9740
      9689      9736      9739      9741      9689      9736      9739      9742
      9690      9689      9736      9737      9690      9689      9736      9738
      9690      9689      9736      9739      9691      9689      9736      9737
      9691      9689      9736      9738      9691      9689      9736      9739
      9692      9695      9698      9699      9692      9695      9698      9700
      9692      9695      9698      9701      9693      9692      9695      9696
      9693      9692      9695      9697      9693      9692      9695      9698
      9694      9692      9695      9696      9694      9692      9695      9697
      9694      9692      9695      9698      9695      9698      9701      9702
      9695      9698      9701      9703      9695      9698      9701      9704
      9696      9695      9698      9699      9696      9695      9698      9700
      9696      9695      9698      9701      9697      9695      9698      9699
      9697      9695      9698      9700      9697      9695      9698      9701
      9698      9701      9704      9705      9698      9701      9704      9706
      9698      9701      9704      9707      9699      9698      9701      9702
      9699      9698      9701      9703      9699      9698      9701      9704
      9700      9698      9701      9702      9700      9698      9701      9703
      9700      9698      9701      9704      9701      9704      9707      9708
      9701      9704      9707      9709      9701      9704      9707      9710
      9702      9701      9704      9705      9702      9701      9704      9706
      9702      9701      9704      9707      9703      9701      9704      9705
      9703      9701      9704      9706      9703      9701      9704      9707
      9704      9707      9710      9711      9704      9707      9710      9712
      9704      9707      9710      9715      9705      9704      9707      9708
      9705      9704      9707      9709      9705      9704      9707      9710
      9706      9704      9707      9708      9706      9704      9707      9709
      9706      9704      9707      9710      9707      9710      9712      9713
      9707      9710      9712      9714      9707      9710      9712      9715
      9707      9710      9715      9712      9707      9710      9715      9716
      9707      9710      9715      9717      9708      9707      9710      9711
      9708      9707      9710      9712      9708      9707      9710      9715
      9709      9707      9710      9711      9709      9707      9710      9712
      9709      9707      9710      9715      9710      9712      9715      9716
      9710      9712      9715      9717      9710      9715      9712      9713
      9710      9715      9712      9714      9710      9715      9717      9718
      9710      9715      9717      9719      9710      9715      9717      9720
      9711      9710      9712      9713      9711      9710      9712      9714
      9711      9710      9712      9715      9711      9710      9715      9712
      9711      9710      9715      9716      9711      9710      9715      9717
      9712      9710      9715      9716      9712      9710      9715      9717
      9712      9715      9717      9718      9712      9715      9717      9719
      9712      9715      9717      9720      9713      9712      9710      9715
      9713      9712      9715      9716      9713      9712      9715      9717
      9714      9712      9710      9715      9714      9712      9715      9716
      9714      9712      9715      9717      9715      9717      9720      9721
      9715      9717      9720      9722      9715      9717      9720      9723
      9716      9715      9717      9718      9716      9715      9717      9719
      9716      9715      9717      9720      9717      9720      9723      9724
      9717      9720      9723      9725      9717      9720      9723      9726
      9718      9717      9720      9721      9718      9717      9720      9722
      9718      9717      9720      9723      9719      9717      9720      9721
      9719      9717      9720      9722      9719      9717      9720      9723
      9720      9723      9726      9727      9720      9723      9726      9728
      9720      9723      9726      9729      9721      9720      9723      9724
      9721      9720      9723      9725      9721      9720      9723      9726
      9722      9720      9723      9724      9722      9720      9723      9725
      9722      9720      9723      9726      9723      9726      9729      9730
      9723      9726      9729      9731      9723      9726      9729      9732
      9724      9723      9726      9727      9724      9723      9726      9728
      9724      9723      9726      9729      9725      9723      9726      9727
      9725      9723      9726      9728      9725      9723      9726      9729
      9726      9729      9732      9733      9726      9729      9732      9734
      9726      9729      9732      9735      9727      9726      9729      9730
      9727      9726      9729      9731      9727      9726      9729      9732
      9728      9726      9729      9730      9728      9726      9729      9731
      9728      9726      9729      9732      9730      9729      9732      9733
      9730      9729      9732      9734      9730      9729      9732      9735
      9731      9729      9732      9733      9731      9729      9732      9734
      9731      9729      9732      9735      9736      9739      9742      9743
      9736      9739      9742      9744      9736      9739      9742      9745
      9737      9736      9739      9740      9737      9736      9739      9741
      9737      9736      9739      9742      9738      9736      9739      9740
      9738      9736      9739      9741      9738      9736      9739      9742
      9739      9742      9745      9746      9739      9742      9745      9747
      9739      9742      9745      9748      9740      9739      9742      9743
      9740      9739      9742      9744      9740      9739      9742      9745
      9741      9739      9742      9743      9741      9739      9742      9744
      9741      9739      9742      9745      9742      9745      9748      9749
      9742      9745      9748      9750      9742      9745      9748      9751
      9743      9742      9745      9746      9743      9742      9745      9747
      9743      9742      9745      9748      9744      9742      9745      9746
      9744      9742      9745      9747      9744      9742      9745      9748
      9745      9748      9751      9752      9745      9748      9751      9753
      9745      9748      9751      9754      9746      9745      9748      9749
      9746      9745      9748      9750      9746      9745      9748      9751
      9747      9745      9748      9749      9747      9745      9748      9750
      9747      9745      9748      9751      9748      9751      9754      9755
      9748      9751      9754      9756      9748      9751      9754      9757
      9749      9748      9751      9752      9749      9748      9751      9753
      9749      9748      9751      9754      9750      9748      9751      9752
      9750      9748      9751      9753      9750      9748      9751      9754
      9751      9754      9757      9758      9751      9754      9757      9759
      9751      9754      9757      9760      9752      9751      9754      9755
      9752      9751      9754      9756      9752      9751      9754      9757
      9753      9751      9754      9755      9753      9751      9754      9756
      9753      9751      9754      9757      9754      9757      9760      9761
      9754      9757      9760      9762      9754      9757      9760      9763
      9755      9754      9757      9758      9755      9754      9757      9759
      9755      9754      9757      9760      9756      9754      9757      9758
      9756      9754      9757      9759      9756      9754      9757      9760
      9757      9760      9763      9764      9757      9760      9763      9765
      9757      9760      9763      9766      9758      9757      9760      9761
      9758      9757      9760      9762      9758      9757      9760      9763
      9759      9757      9760      9761      9759      9757      9760      9762
      9759      9757      9760      9763      9760      9763      9766      9767
      9760      9763      9766      9768      9760      9763      9766      9769
      9761      9760      9763      9764      9761      9760      9763      9765
      9761      9760      9763      9766      9762      9760      9763      9764
      9762      9760      9763      9765      9762      9760      9763      9766
      9763      9766      9769      9770      9763      9766      9769      9771
      9763      9766      9769      9772      9764      9763      9766      9767
      9764      9763      9766      9768      9764      9763      9766      9769
      9765      9763      9766      9767      9765      9763      9766      9768
      9765      9763      9766      9769      9766      9769      9772      9773
      9766      9769      9772      9774      9766      9769      9772      9775
      9767      9766      9769      9770      9767      9766      9769      9771
      9767      9766      9769      9772      9768      9766      9769      9770
      9768      9766      9769      9771      9768      9766      9769      9772
      9770      9769      9772      9773      9770      9769      9772      9774
      9770      9769      9772      9775      9771      9769      9772      9773
      9771      9769      9772      9774      9771      9769      9772      9775
      9776      9780      9783      9784      9776      9780      9783      9785
      9776      9780      9783      9790      9777      9776      9780      9781
      9777      9776      9780      9782      9777      9776      9780      9783
      9778      9776      9780      9781      9778      9776      9780      9782
      9778      9776      9780      9783      9779      9776      9780      9781
      9779      9776      9780      9782      9779      9776      9780      9783
      9780      9783      9790      9786      9781      9780      9783      9784
      9781      9780      9783      9785      9781      9780      9783      9790
      9782      9780      9783      9784      9782      9780      9783      9785
      9782      9780      9783      9790      9783      9790      9786      9787
      9783      9790      9786      9788      9783      9790      9786      9789
      9784      9783      9790      9786      9785      9783      9790      9786
      9786      9789      9791      9792      9786      9789      9791      9793
      9786      9789      9791      9794      9787      9786      9789      9791
      9788      9786      9789      9791      9789      9791      9794      9795
      9789      9791      9794      9796      9789      9791      9794      9802
      9790      9786      9789      9791      9791      9794      9796      9797
      9791      9794      9802      9803      9791      9794      9802      9804
      9791      9794      9802      9805      9792      9791      9794      9795
      9792      9791      9794      9796      9792      9791      9794      9802
      9793      9791      9794      9795      9793      9791      9794      9796
      9793      9791      9794      9802      9794      9796      9797      9798
      9794      9796      9797      9799      9794      9802      9805      9806
      9795      9794      9796      9797      9795      9794      9802      9803
      9795      9794      9802      9804      9795      9794      9802      9805
      9796      9794      9802      9803      9796      9794      9802      9804
      9796      9794      9802      9805      9796      9797      9799      9800
      9796      9797      9799      9801      9796      9797      9799      9811
      9797      9796      9794      9802      9797      9799      9811      9812
      9797      9799      9811      9813      9797      9799      9811      9814
      9798      9797      9799      9800      9798      9797      9799      9801
      9798      9797      9799      9811      9799      9811      9814      9815
      9799      9811      9814      9816      9799      9811      9814      9817
      9800      9799      9811      9812      9800      9799      9811      9813
      9800      9799      9811      9814      9801      9799      9811      9812
      9801      9799      9811      9813      9801      9799      9811      9814
      9802      9805      9806      9807      9802      9805      9806      9808
      9803      9802      9805      9806      9804      9802      9805      9806
      9805      9806      9808      9809      9805      9806      9808      9810
      9805      9806      9808      9855      9806      9808      9855      9856
      9806      9808      9855      9857      9806      9808      9855      9858
      9807      9806      9808      9809      9807      9806      9808      9810
      9807      9806      9808      9855      9808      9855      9858      9859
      9808      9855      9858      9860      9808      9855      9858      9861
      9809      9808      9855      9856      9809      9808      9855      9857
      9809      9808      9855      9858      9810      9808      9855      9856
      9810      9808      9855      9857      9810      9808      9855      9858
      9811      9814      9817      9818      9811      9814      9817      9819
      9811      9814      9817      9820      9812      9811      9814      9815
      9812      9811      9814      9816      9812      9811      9814      9817
      9813      9811      9814      9815      9813      9811      9814      9816
      9813      9811      9814      9817      9814      9817      9820      9821
      9814      9817      9820      9822      9814      9817      9820      9823
      9815      9814      9817      9818      9815      9814      9817      9819
      9815      9814      9817      9820      9816      9814      9817      9818
      9816      9814      9817      9819      9816      9814      9817      9820
      9817      9820      9823      9824      9817      9820      9823      9825
      9817      9820      9823      9826      9818      9817      9820      9821
      9818      9817      9820      9822      9818      9817      9820      9823
      9819      9817      9820      9821      9819      9817      9820      9822
      9819      9817      9820      9823      9820      9823      9826      9827
      9820      9823      9826      9828      9820      9823      9826      9829
      9821      9820      9823      9824      9821      9820      9823      9825
      9821      9820      9823      9826      9822      9820      9823      9824
      9822      9820      9823      9825      9822      9820      9823      9826
      9823      9826      9829      9830      9823      9826      9829      9831
      9823      9826      9829      9834      9824      9823      9826      9827
      9824      9823      9826      9828      9824      9823      9826      9829
      9825      9823      9826      9827      9825      9823      9826      9828
      9825      9823      9826      9829      9826      9829      9831      9832
      9826      9829      9831      9833      9826      9829      9831      9834
      9826      9829      9834      9831      9826      9829      9834      9835
      9826      9829      9834      9836      9827      9826      9829      9830
      9827      9826      9829      9831      9827      9826      9829      9834
      9828      9826      9829      9830      9828      9826      9829      9831
      9828      9826      9829      9834      9829      9831      9834      9835
      9829      9831      9834      9836      9829      9834      9831      9832
      9829      9834      9831      9833      9829      9834      9836      9837
      9829      9834      9836      9838      9829      9834      9836      9839
      9830      9829      9831      9832      9830      9829      9831      9833
      9830      9829      9831      9834      9830      9829      9834      9831
      9830      9829      9834      9835      9830      9829      9834      9836
      9831      9829      9834      9835      9831      9829      9834      9836
      9831      9834      9836      9837      9831      9834      9836      9838
      9831      9834      9836      9839      9832      9831      9829      9834
      9832      9831      9834      9835      9832      9831      9834      9836
      9833      9831      9829      9834      9833      9831      9834      9835
      9833      9831      9834      9836      9834      9836      9839      9840
      9834      9836      9839      9841      9834      9836      9839      9842
      9835      9834      9836      9837      9835      9834      9836      9838
      9835      9834      9836      9839      9836      9839      9842      9843
      9836      9839      9842      9844      9836      9839      9842      9845
      9837      9836      9839      9840      9837      9836      9839      9841
      9837      9836      9839      9842      9838      9836      9839      9840
      9838      9836      9839      9841      9838      9836      9839      9842
      9839      9842      9845      9846      9839      9842      9845      9847
      9839      9842      9845      9848      9840      9839      9842      9843
      9840      9839      9842      9844      9840      9839      9842      9845
      9841      9839      9842      9843      9841      9839      9842      9844
      9841      9839      9842      9845      9842      9845      9848      9849
      9842      9845      9848      9850      9842      9845      9848      9851
      9843      9842      9845      9846      9843      9842      9845      9847
      9843      9842      9845      9848      9844      9842      9845      9846
      9844      9842      9845      9847      9844      9842      9845      9848
      9845      9848      9851      9852      9845      9848      9851      9853
      9845      9848      9851      9854      9846      9845      9848      9849
      9846      9845      9848      9850      9846      9845      9848      9851
      9847      9845      9848      9849      9847      9845      9848      9850
      9847      9845      9848      9851      9849      9848      9851      9852
      9849      9848      9851      9853      9849      9848      9851      9854
      9850      9848      9851      9852      9850      9848      9851      9853
      9850      9848      9851      9854      9855      9858      9861      9862
      9855      9858      9861      9863      9855      9858      9861      9864
      9856      9855      9858      9859      9856      9855      9858      9860
      9856      9855      9858      9861      9857      9855      9858      9859
      9857      9855      9858      9860      9857      9855      9858      9861
      9858      9861      9864      9865      9858      9861      9864      9866
      9858      9861      9864      9867      9859      9858      9861      9862
      9859      9858      9861      9863      9859      9858      9861      9864
      9860      9858      9861      9862      9860      9858      9861      9863
      9860      9858      9861      9864      9861      9864      9867      9868
      9861      9864      9867      9869      9861      9864      9867      9870
      9862      9861      9864      9865      9862      9861      9864      9866
      9862      9861      9864      9867      9863      9861      9864      9865
      9863      9861      9864      9866      9863      9861      9864      9867
      9864      9867      9870      9871      9864      9867      9870      9872
      9864      9867      9870      9873      9865      9864      9867      9868
      9865      9864      9867      9869      9865      9864      9867      9870
      9866      9864      9867      9868      9866      9864      9867      9869
      9866      9864      9867      9870      9867      9870      9873      9874
      9867      9870      9873      9875      9867      9870      9873      9876
      9868      9867      9870      9871      9868      9867      9870      9872
      9868      9867      9870      9873      9869      9867      9870      9871
      9869      9867      9870      9872      9869      9867      9870      9873
      9870      9873      9876      9877      9870      9873      9876      9878
      9870      9873      9876      9879      9871      9870      9873      9874
      9871      9870      9873      9875      9871      9870      9873      9876
      9872      9870      9873      9874      9872      9870      9873      9875
      9872      9870      9873      9876      9873      9876      9879      9880
      9873      9876      9879      9881      9873      9876      9879      9882
      9874      9873      9876      9877      9874      9873      9876      9878
      9874      9873      9876      9879      9875      9873      9876      9877
      9875      9873      9876      9878      9875      9873      9876      9879
      9876      9879      9882      9883      9876      9879      9882      9884
      9876      9879      9882      9885      9877      9876      9879      9880
      9877      9876      9879      9881      9877      9876      9879      9882
      9878      9876      9879      9880      9878      9876      9879      9881
      9878      9876      9879      9882      9879      9882      9885      9886
      9879      9882      9885      9887      9879      9882      9885      9888
      9880      9879      9882      9883      9880      9879      9882      9884
      9880      9879      9882      9885      9881      9879      9882      9883
      9881      9879      9882      9884      9881      9879      9882      9885
      9882      9885      9888      9889      9882      9885      9888      9890
      9882      9885      9888      9891      9883      9882      9885      9886
      9883      9882      9885      9887      9883      9882      9885      9888
      9884      9882      9885      9886      9884      9882      9885      9887
      9884      9882      9885      9888      9885      9888      9891      9892
      9885      9888      9891      9893      9885      9888      9891      9894
      9886      9885      9888      9889      9886      9885      9888      9890
      9886      9885      9888      9891      9887      9885      9888      9889
      9887      9885      9888      9890      9887      9885      9888      9891
      9888      9891      9894      9895      9888      9891      9894      9896
      9888      9891      9894      9897      9889      9888      9891      9892
      9889      9888      9891      9893      9889      9888      9891      9894
      9890      9888      9891      9892      9890      9888      9891      9893
      9890      9888      9891      9894      9892      9891      9894      9895
      9892      9891      9894      9896      9892      9891      9894      9897
      9893      9891      9894      9895      9893      9891      9894      9896
      9893      9891      9894      9897      9898      9902      9905      9906
      9898      9902      9905      9907      9898      9902      9905      9912
      9899      9898      9902      9903      9899      9898      9902      9904
      9899      9898      9902      9905      9900      9898      9902      9903
      9900      9898      9902      9904      9900      9898      9902      9905
      9901      9898      9902      9903      9901      9898      9902      9904
      9901      9898      9902      9905      9902      9905      9912      9908
      9903      9902      9905      9906      9903      9902      9905      9907
      9903      9902      9905      9912      9904      9902      9905      9906
      9904      9902      9905      9907      9904      9902      9905      9912
      9905      9912      9908      9909      9905      9912      9908      9910
      9905      9912      9908      9911      9906      9905      9912      9908
      9907      9905      9912      9908      9908      9911      9913      9914
      9908      9911      9913      9915      9908      9911      9913      9916
      9909      9908      9911      9913      9910      9908      9911      9913
      9911      9913      9916      9917      9911      9913      9916      9918
      9911      9913      9916      9924      9912      9908      9911      9913
      9913      9916      9918      9919      9913      9916      9924      9925
      9913      9916      9924      9926      9913      9916      9924      9927
      9914      9913      9916      9917      9914      9913      9916      9918
      9914      9913      9916      9924      9915      9913      9916      9917
      9915      9913      9916      9918      9915      9913      9916      9924
      9916      9918      9919      9920      9916      9918      9919      9921
      9916      9924      9927      9928      9917      9916      9918      9919
      9917      9916      9924      9925      9917      9916      9924      9926
      9917      9916      9924      9927      9918      9916      9924      9925
      9918      9916      9924      9926      9918      9916      9924      9927
      9918      9919      9921      9922      9918      9919      9921      9923
      9918      9919      9921      9933      9919      9918      9916      9924
      9919      9921      9933      9934      9919      9921      9933      9935
      9919      9921      9933      9936      9920      9919      9921      9922
      9920      9919      9921      9923      9920      9919      9921      9933
      9921      9933      9936      9937      9921      9933      9936      9938
      9921      9933      9936      9939      9922      9921      9933      9934
      9922      9921      9933      9935      9922      9921      9933      9936
      9923      9921      9933      9934      9923      9921      9933      9935
      9923      9921      9933      9936      9924      9927      9928      9929
      9924      9927      9928      9930      9925      9924      9927      9928
      9926      9924      9927      9928      9927      9928      9930      9931
      9927      9928      9930      9932      9927      9928      9930      9977
      9928      9930      9977      9978      9928      9930      9977      9979
      9928      9930      9977      9980      9929      9928      9930      9931
      9929      9928      9930      9932      9929      9928      9930      9977
      9930      9977      9980      9981      9930      9977      9980      9982
      9930      9977      9980      9983      9931      9930      9977      9978
      9931      9930      9977      9979      9931      9930      9977      9980
      9932      9930      9977      9978      9932      9930      9977      9979
      9932      9930      9977      9980      9933      9936      9939      9940
      9933      9936      9939      9941      9933      9936      9939      9942
      9934      9933      9936      9937      9934      9933      9936      9938
      9934      9933      9936      9939      9935      9933      9936      9937
      9935      9933      9936      9938      9935      9933      9936      9939
      9936      9939      9942      9943      9936      9939      9942      9944
      9936      9939      9942      9945      9937      9936      9939      9940
      9937      9936      9939      9941      9937      9936      9939      9942
      9938      9936      9939      9940      9938      9936      9939      9941
      9938      9936      9939      9942      9939      9942      9945      9946
      9939      9942      9945      9947      9939      9942      9945      9948
      9940      9939      9942      9943      9940      9939      9942      9944
      9940      9939      9942      9945      9941      9939      9942      9943
      9941      9939      9942      9944      9941      9939      9942      9945
      9942      9945      9948      9949      9942      9945      9948      9950
      9942      9945      9948      9951      9943      9942      9945      9946
      9943      9942      9945      9947      9943      9942      9945      9948
      9944      9942      9945      9946      9944      9942      9945      9947
      9944      9942      9945      9948      9945      9948      9951      9952
      9945      9948      9951      9953      9945      9948      9951      9956
      9946      9945      9948      9949      9946      9945      9948      9950
      9946      9945      9948      9951      9947      9945      9948      9949
      9947      9945      9948      9950      9947      9945      9948      9951
      9948      9951      9953      9954      9948      9951      9953      9955
      9948      9951      9953      9956      9948      9951      9956      9953
      9948      9951      9956      9957      9948      9951      9956      9958
      9949      9948      9951      9952      9949      9948      9951      9953
      9949      9948      9951      9956      9950      9948      9951      9952
      9950      9948      9951      9953      9950      9948      9951      9956
      9951      9953      9956      9957      9951      9953      9956      9958
      9951      9956      9953      9954      9951      9956      9953      9955
      9951      9956      9958      9959      9951      9956      9958      9960
      9951      9956      9958      9961      9952      9951      9953      9954
      9952      9951      9953      9955      9952      9951      9953      9956
      9952      9951      9956      9953      9952      9951      9956      9957
      9952      9951      9956      9958      9953      9951      9956      9957
      9953      9951      9956      9958      9953      9956      9958      9959
      9953      9956      9958      9960      9953      9956      9958      9961
      9954      9953      9951      9956      9954      9953      9956      9957
      9954      9953      9956      9958      9955      9953      9951      9956
      9955      9953      9956      9957      9955      9953      9956      9958
      9956      9958      9961      9962      9956      9958      9961      9963
      9956      9958      9961      9964      9957      9956      9958      9959
      9957      9956      9958      9960      9957      9956      9958      9961
      9958      9961      9964      9965      9958      9961      9964      9966
      9958      9961      9964      9967      9959      9958      9961      9962
      9959      9958      9961      9963      9959      9958      9961      9964
      9960      9958      9961      9962      9960      9958      9961      9963
      9960      9958      9961      9964      9961      9964      9967      9968
      9961      9964      9967      9969      9961      9964      9967      9970
      9962      9961      9964      9965      9962      9961      9964      9966
      9962      9961      9964      9967      9963      9961      9964      9965
      9963      9961      9964      9966      9963      9961      9964      9967
      9964      9967      9970      9971      9964      9967      9970      9972
      9964      9967      9970      9973      9965      9964      9967      9968
      9965      9964      9967      9969      9965      9964      9967      9970
      9966      9964      9967      9968      9966      9964      9967      9969
      9966      9964      9967      9970      9967      9970      9973      9974
      9967      9970      9973      9975      9967      9970      9973      9976
      9968      9967      9970      9971      9968      9967      9970      9972
      9968      9967      9970      9973      9969      9967      9970      9971
      9969      9967      9970      9972      9969      9967      9970      9973
      9971      9970      9973      9974      9971      9970      9973      9975
      9971      9970      9973      9976      9972      9970      9973      9974
      9972      9970      9973      9975      9972      9970      9973      9976
      9977      9980      9983      9984      9977      9980      9983      9985
      9977      9980      9983      9986      9978      9977      9980      9981
      9978      9977      9980      9982      9978      9977      9980      9983
      9979      9977      9980      9981      9979      9977      9980      9982
      9979      9977      9980      9983      9980      9983      9986      9987
      9980      9983      9986      9988      9980      9983      9986      9989
      9981      9980      9983      9984      9981      9980      9983      9985
      9981      9980      9983      9986      9982      9980      9983      9984
      9982      9980      9983      9985      9982      9980      9983      9986
      9983      9986      9989      9990      9983      9986      9989      9991
      9983      9986      9989      9992      9984      9983      9986      9987
      9984      9983      9986      9988      9984      9983      9986      9989
      9985      9983      9986      9987      9985      9983      9986      9988
      9985      9983      9986      9989      9986      9989      9992      9993
      9986      9989      9992      9994      9986      9989      9992      9995
      9987      9986      9989      9990      9987      9986      9989      9991
      9987      9986      9989      9992      9988      9986      9989      9990
      9988      9986      9989      9991      9988      9986      9989      9992
      9989      9992      9995      9996      9989      9992      9995      9997
      9989      9992      9995      9998      9990      9989      9992      9993
      9990      9989      9992      9994      9990      9989      9992      9995
      9991      9989      9992      9993      9991      9989      9992      9994
      9991      9989      9992      9995      9992      9995      9998      9999
      9992      9995      9998     10000      9992      9995      9998     10001
      9993      9992      9995      9996      9993      9992      9995      9997
      9993      9992      9995      9998      9994      9992      9995      9996
      9994      9992      9995      9997      9994      9992      9995      9998
      9995      9998     10001     10002      9995      9998     10001     10003
      9995      9998     10001     10004      9996      9995      9998      9999
      9996      9995      9998     10000      9996      9995      9998     10001
      9997      9995      9998      9999      9997      9995      9998     10000
      9997      9995      9998     10001      9998     10001     10004     10005
      9998     10001     10004     10006      9998     10001     10004     10007
      9999      9998     10001     10002      9999      9998     10001     10003
      9999      9998     10001     10004     10000      9998     10001     10002
     10000      9998     10001     10003     10000      9998     10001     10004
     10001     10004     10007     10008     10001     10004     10007     10009
     10001     10004     10007     10010     10002     10001     10004     10005
     10002     10001     10004     10006     10002     10001     10004     10007
     10003     10001     10004     10005     10003     10001     10004     10006
     10003     10001     10004     10007     10004     10007     10010     10011
     10004     10007     10010     10012     10004     10007     10010     10013
     10005     10004     10007     10008     10005     10004     10007     10009
     10005     10004     10007     10010     10006     10004     10007     10008
     10006     10004     10007     10009     10006     10004     10007     10010
     10007     10010     10013     10014     10007     10010     10013     10015
     10007     10010     10013     10016     10008     10007     10010     10011
     10008     10007     10010     10012     10008     10007     10010     10013
     10009     10007     10010     10011     10009     10007     10010     10012
     10009     10007     10010     10013     10011     10010     10013     10014
     10011     10010     10013     10015     10011     10010     10013     10016
     10012     10010     10013     10014     10012     10010     10013     10015
     10012     10010     10013     10016     10017     10021     10024     10025
     10017     10021     10024     10026     10017     10021     10024     10031
     10018     10017     10021     10022     10018     10017     10021     10023
     10018     10017     10021     10024     10019     10017     10021     10022
     10019     10017     10021     10023     10019     10017     10021     10024
     10020     10017     10021     10022     10020     10017     10021     10023
     10020     10017     10021     10024     10021     10024     10031     10027
     10022     10021     10024     10025     10022     10021     10024     10026
     10022     10021     10024     10031     10023     10021     10024     10025
     10023     10021     10024     10026     10023     10021     10024     10031
     10024     10031     10027     10028     10024     10031     10027     10029
     10024     10031     10027     10030     10025     10024     10031     10027
     10026     10024     10031     10027     10027     10030     10032     10033
     10027     10030     10032     10034     10027     10030     10032     10035
     10028     10027     10030     10032     10029     10027     10030     10032
     10030     10032     10035     10036     10030     10032     10035     10037
     10030     10032     10035     10043     10031     10027     10030     10032
     10032     10035     10037     10038     10032     10035     10043     10044
     10032     10035     10043     10045     10032     10035     10043     10046
     10033     10032     10035     10036     10033     10032     10035     10037
     10033     10032     10035     10043     10034     10032     10035     10036
     10034     10032     10035     10037     10034     10032     10035     10043
     10035     10037     10038     10039     10035     10037     10038     10040
     10035     10043     10046     10047     10036     10035     10037     10038
     10036     10035     10043     10044     10036     10035     10043     10045
     10036     10035     10043     10046     10037     10035     10043     10044
     10037     10035     10043     10045     10037     10035     10043     10046
     10037     10038     10040     10041     10037     10038     10040     10042
     10037     10038     10040     10052     10038     10037     10035     10043
     10038     10040     10052     10053     10038     10040     10052     10054
     10038     10040     10052     10055     10039     10038     10040     10041
     10039     10038     10040     10042     10039     10038     10040     10052
     10040     10052     10055     10056     10040     10052     10055     10057
     10040     10052     10055     10058     10041     10040     10052     10053
     10041     10040     10052     10054     10041     10040     10052     10055
     10042     10040     10052     10053     10042     10040     10052     10054
     10042     10040     10052     10055     10043     10046     10047     10048
     10043     10046     10047     10049     10044     10043     10046     10047
     10045     10043     10046     10047     10046     10047     10049     10050
     10046     10047     10049     10051     10046     10047     10049     10096
     10047     10049     10096     10097     10047     10049     10096     10098
     10047     10049     10096     10099     10048     10047     10049     10050
     10048     10047     10049     10051     10048     10047     10049     10096
     10049     10096     10099     10100     10049     10096     10099     10101
     10049     10096     10099     10102     10050     10049     10096     10097
     10050     10049     10096     10098     10050     10049     10096     10099
     10051     10049     10096     10097     10051     10049     10096     10098
     10051     10049     10096     10099     10052     10055     10058     10059
     10052     10055     10058     10060     10052     10055     10058     10061
     10053     10052     10055     10056     10053     10052     10055     10057
     10053     10052     10055     10058     10054     10052     10055     10056
     10054     10052     10055     10057     10054     10052     10055     10058
     10055     10058     10061     10062     10055     10058     10061     10063
     10055     10058     10061     10064     10056     10055     10058     10059
     10056     10055     10058     10060     10056     10055     10058     10061
     10057     10055     10058     10059     10057     10055     10058     10060
     10057     10055     10058     10061     10058     10061     10064     10065
     10058     10061     10064     10066     10058     10061     10064     10067
     10059     10058     10061     10062     10059     10058     10061     10063
     10059     10058     10061     10064     10060     10058     10061     10062
     10060     10058     10061     10063     10060     10058     10061     10064
     10061     10064     10067     10068     10061     10064     10067     10069
     10061     10064     10067     10070     10062     10061     10064     10065
     10062     10061     10064     10066     10062     10061     10064     10067
     10063     10061     10064     10065     10063     10061     10064     10066
     10063     10061     10064     10067     10064     10067     10070     10071
     10064     10067     10070     10072     10064     10067     10070     10075
     10065     10064     10067     10068     10065     10064     10067     10069
     10065     10064     10067     10070     10066     10064     10067     10068
     10066     10064     10067     10069     10066     10064     10067     10070
     10067     10070     10072     10073     10067     10070     10072     10074
     10067     10070     10072     10075     10067     10070     10075     10072
     10067     10070     10075     10076     10067     10070     10075     10077
     10068     10067     10070     10071     10068     10067     10070     10072
     10068     10067     10070     10075     10069     10067     10070     10071
     10069     10067     10070     10072     10069     10067     10070     10075
     10070     10072     10075     10076     10070     10072     10075     10077
     10070     10075     10072     10073     10070     10075     10072     10074
     10070     10075     10077     10078     10070     10075     10077     10079
     10070     10075     10077     10080     10071     10070     10072     10073
     10071     10070     10072     10074     10071     10070     10072     10075
     10071     10070     10075     10072     10071     10070     10075     10076
     10071     10070     10075     10077     10072     10070     10075     10076
     10072     10070     10075     10077     10072     10075     10077     10078
     10072     10075     10077     10079     10072     10075     10077     10080
     10073     10072     10070     10075     10073     10072     10075     10076
     10073     10072     10075     10077     10074     10072     10070     10075
     10074     10072     10075     10076     10074     10072     10075     10077
     10075     10077     10080     10081     10075     10077     10080     10082
     10075     10077     10080     10083     10076     10075     10077     10078
     10076     10075     10077     10079     10076     10075     10077     10080
     10077     10080     10083     10084     10077     10080     10083     10085
     10077     10080     10083     10086     10078     10077     10080     10081
     10078     10077     10080     10082     10078     10077     10080     10083
     10079     10077     10080     10081     10079     10077     10080     10082
     10079     10077     10080     10083     10080     10083     10086     10087
     10080     10083     10086     10088     10080     10083     10086     10089
     10081     10080     10083     10084     10081     10080     10083     10085
     10081     10080     10083     10086     10082     10080     10083     10084
     10082     10080     10083     10085     10082     10080     10083     10086
     10083     10086     10089     10090     10083     10086     10089     10091
     10083     10086     10089     10092     10084     10083     10086     10087
     10084     10083     10086     10088     10084     10083     10086     10089
     10085     10083     10086     10087     10085     10083     10086     10088
     10085     10083     10086     10089     10086     10089     10092     10093
     10086     10089     10092     10094     10086     10089     10092     10095
     10087     10086     10089     10090     10087     10086     10089     10091
     10087     10086     10089     10092     10088     10086     10089     10090
     10088     10086     10089     10091     10088     10086     10089     10092
     10090     10089     10092     10093     10090     10089     10092     10094
     10090     10089     10092     10095     10091     10089     10092     10093
     10091     10089     10092     10094     10091     10089     10092     10095
     10096     10099     10102     10103     10096     10099     10102     10104
     10096     10099     10102     10105     10097     10096     10099     10100
     10097     10096     10099     10101     10097     10096     10099     10102
     10098     10096     10099     10100     10098     10096     10099     10101
     10098     10096     10099     10102     10099     10102     10105     10106
     10099     10102     10105     10107     10099     10102     10105     10108
     10100     10099     10102     10103     10100     10099     10102     10104
     10100     10099     10102     10105     10101     10099     10102     10103
     10101     10099     10102     10104     10101     10099     10102     10105
     10102     10105     10108     10109     10102     10105     10108     10110
     10102     10105     10108     10111     10103     10102     10105     10106
     10103     10102     10105     10107     10103     10102     10105     10108
     10104     10102     10105     10106     10104     10102     10105     10107
     10104     10102     10105     10108     10105     10108     10111     10112
     10105     10108     10111     10113     10105     10108     10111     10114
     10106     10105     10108     10109     10106     10105     10108     10110
     10106     10105     10108     10111     10107     10105     10108     10109
     10107     10105     10108     10110     10107     10105     10108     10111
     10108     10111     10114     10115     10108     10111     10114     10116
     10108     10111     10114     10117     10109     10108     10111     10112
     10109     10108     10111     10113     10109     10108     10111     10114
     10110     10108     10111     10112     10110     10108     10111     10113
     10110     10108     10111     10114     10111     10114     10117     10118
     10111     10114     10117     10119     10111     10114     10117     10120
     10112     10111     10114     10115     10112     10111     10114     10116
     10112     10111     10114     10117     10113     10111     10114     10115
     10113     10111     10114     10116     10113     10111     10114     10117
     10114     10117     10120     10121     10114     10117     10120     10122
     10114     10117     10120     10123     10115     10114     10117     10118
     10115     10114     10117     10119     10115     10114     10117     10120
     10116     10114     10117     10118     10116     10114     10117     10119
     10116     10114     10117     10120     10117     10120     10123     10124
     10117     10120     10123     10125     10117     10120     10123     10126
     10118     10117     10120     10121     10118     10117     10120     10122
     10118     10117     10120     10123     10119     10117     10120     10121
     10119     10117     10120     10122     10119     10117     10120     10123
     10120     10123     10126     10127     10120     10123     10126     10128
     10120     10123     10126     10129     10121     10120     10123     10124
     10121     10120     10123     10125     10121     10120     10123     10126
     10122     10120     10123     10124     10122     10120     10123     10125
     10122     10120     10123     10126     10123     10126     10129     10130
     10123     10126     10129     10131     10123     10126     10129     10132
     10124     10123     10126     10127     10124     10123     10126     10128
     10124     10123     10126     10129     10125     10123     10126     10127
     10125     10123     10126     10128     10125     10123     10126     10129
     10126     10129     10132     10133     10126     10129     10132     10134
     10126     10129     10132     10135     10127     10126     10129     10130
     10127     10126     10129     10131     10127     10126     10129     10132
     10128     10126     10129     10130     10128     10126     10129     10131
     10128     10126     10129     10132     10129     10132     10135     10136
     10129     10132     10135     10137     10129     10132     10135     10138
     10130     10129     10132     10133     10130     10129     10132     10134
     10130     10129     10132     10135     10131     10129     10132     10133
     10131     10129     10132     10134     10131     10129     10132     10135
     10133     10132     10135     10136     10133     10132     10135     10137
     10133     10132     10135     10138     10134     10132     10135     10136
     10134     10132     10135     10137     10134     10132     10135     10138
     10139     10143     10146     10147     10139     10143     10146     10148
     10139     10143     10146     10153     10140     10139     10143     10144
     10140     10139     10143     10145     10140     10139     10143     10146
     10141     10139     10143     10144     10141     10139     10143     10145
     10141     10139     10143     10146     10142     10139     10143     10144
     10142     10139     10143     10145     10142     10139     10143     10146
     10143     10146     10153     10149     10144     10143     10146     10147
     10144     10143     10146     10148     10144     10143     10146     10153
     10145     10143     10146     10147     10145     10143     10146     10148
     10145     10143     10146     10153     10146     10153     10149     10150
     10146     10153     10149     10151     10146     10153     10149     10152
     10147     10146     10153     10149     10148     10146     10153     10149
     10149     10152     10154     10155     10149     10152     10154     10156
     10149     10152     10154     10157     10150     10149     10152     10154
     10151     10149     10152     10154     10152     10154     10157     10158
     10152     10154     10157     10159     10152     10154     10157     10165
     10153     10149     10152     10154     10154     10157     10159     10160
     10154     10157     10165     10166     10154     10157     10165     10167
     10154     10157     10165     10168     10155     10154     10157     10158
     10155     10154     10157     10159     10155     10154     10157     10165
     10156     10154     10157     10158     10156     10154     10157     10159
     10156     10154     10157     10165     10157     10159     10160     10161
     10157     10159     10160     10162     10157     10165     10168     10169
     10158     10157     10159     10160     10158     10157     10165     10166
     10158     10157     10165     10167     10158     10157     10165     10168
     10159     10157     10165     10166     10159     10157     10165     10167
     10159     10157     10165     10168     10159     10160     10162     10163
     10159     10160     10162     10164     10159     10160     10162     10174
     10160     10159     10157     10165     10160     10162     10174     10175
     10160     10162     10174     10176     10160     10162     10174     10177
     10161     10160     10162     10163     10161     10160     10162     10164
     10161     10160     10162     10174     10162     10174     10177     10178
     10162     10174     10177     10179     10162     10174     10177     10180
     10163     10162     10174     10175     10163     10162     10174     10176
     10163     10162     10174     10177     10164     10162     10174     10175
     10164     10162     10174     10176     10164     10162     10174     10177
     10165     10168     10169     10170     10165     10168     10169     10171
     10166     10165     10168     10169     10167     10165     10168     10169
     10168     10169     10171     10172     10168     10169     10171     10173
     10168     10169     10171     10218     10169     10171     10218     10219
     10169     10171     10218     10220     10169     10171     10218     10221
     10170     10169     10171     10172     10170     10169     10171     10173
     10170     10169     10171     10218     10171     10218     10221     10222
     10171     10218     10221     10223     10171     10218     10221     10224
     10172     10171     10218     10219     10172     10171     10218     10220
     10172     10171     10218     10221     10173     10171     10218     10219
     10173     10171     10218     10220     10173     10171     10218     10221
     10174     10177     10180     10181     10174     10177     10180     10182
     10174     10177     10180     10183     10175     10174     10177     10178
     10175     10174     10177     10179     10175     10174     10177     10180
     10176     10174     10177     10178     10176     10174     10177     10179
     10176     10174     10177     10180     10177     10180     10183     10184
     10177     10180     10183     10185     10177     10180     10183     10186
     10178     10177     10180     10181     10178     10177     10180     10182
     10178     10177     10180     10183     10179     10177     10180     10181
     10179     10177     10180     10182     10179     10177     10180     10183
     10180     10183     10186     10187     10180     10183     10186     10188
     10180     10183     10186     10189     10181     10180     10183     10184
     10181     10180     10183     10185     10181     10180     10183     10186
     10182     10180     10183     10184     10182     10180     10183     10185
     10182     10180     10183     10186     10183     10186     10189     10190
     10183     10186     10189     10191     10183     10186     10189     10192
     10184     10183     10186     10187     10184     10183     10186     10188
     10184     10183     10186     10189     10185     10183     10186     10187
     10185     10183     10186     10188     10185     10183     10186     10189
     10186     10189     10192     10193     10186     10189     10192     10194
     10186     10189     10192     10197     10187     10186     10189     10190
     10187     10186     10189     10191     10187     10186     10189     10192
     10188     10186     10189     10190     10188     10186     10189     10191
     10188     10186     10189     10192     10189     10192     10194     10195
     10189     10192     10194     10196     10189     10192     10194     10197
     10189     10192     10197     10194     10189     10192     10197     10198
     10189     10192     10197     10199     10190     10189     10192     10193
     10190     10189     10192     10194     10190     10189     10192     10197
     10191     10189     10192     10193     10191     10189     10192     10194
     10191     10189     10192     10197     10192     10194     10197     10198
     10192     10194     10197     10199     10192     10197     10194     10195
     10192     10197     10194     10196     10192     10197     10199     10200
     10192     10197     10199     10201     10192     10197     10199     10202
     10193     10192     10194     10195     10193     10192     10194     10196
     10193     10192     10194     10197     10193     10192     10197     10194
     10193     10192     10197     10198     10193     10192     10197     10199
     10194     10192     10197     10198     10194     10192     10197     10199
     10194     10197     10199     10200     10194     10197     10199     10201
     10194     10197     10199     10202     10195     10194     10192     10197
     10195     10194     10197     10198     10195     10194     10197     10199
     10196     10194     10192     10197     10196     10194     10197     10198
     10196     10194     10197     10199     10197     10199     10202     10203
     10197     10199     10202     10204     10197     10199     10202     10205
     10198     10197     10199     10200     10198     10197     10199     10201
     10198     10197     10199     10202     10199     10202     10205     10206
     10199     10202     10205     10207     10199     10202     10205     10208
     10200     10199     10202     10203     10200     10199     10202     10204
     10200     10199     10202     10205     10201     10199     10202     10203
     10201     10199     10202     10204     10201     10199     10202     10205
     10202     10205     10208     10209     10202     10205     10208     10210
     10202     10205     10208     10211     10203     10202     10205     10206
     10203     10202     10205     10207     10203     10202     10205     10208
     10204     10202     10205     10206     10204     10202     10205     10207
     10204     10202     10205     10208     10205     10208     10211     10212
     10205     10208     10211     10213     10205     10208     10211     10214
     10206     10205     10208     10209     10206     10205     10208     10210
     10206     10205     10208     10211     10207     10205     10208     10209
     10207     10205     10208     10210     10207     10205     10208     10211
     10208     10211     10214     10215     10208     10211     10214     10216
     10208     10211     10214     10217     10209     10208     10211     10212
     10209     10208     10211     10213     10209     10208     10211     10214
     10210     10208     10211     10212     10210     10208     10211     10213
     10210     10208     10211     10214     10212     10211     10214     10215
     10212     10211     10214     10216     10212     10211     10214     10217
     10213     10211     10214     10215     10213     10211     10214     10216
     10213     10211     10214     10217     10218     10221     10224     10225
     10218     10221     10224     10226     10218     10221     10224     10227
     10219     10218     10221     10222     10219     10218     10221     10223
     10219     10218     10221     10224     10220     10218     10221     10222
     10220     10218     10221     10223     10220     10218     10221     10224
     10221     10224     10227     10228     10221     10224     10227     10229
     10221     10224     10227     10230     10222     10221     10224     10225
     10222     10221     10224     10226     10222     10221     10224     10227
     10223     10221     10224     10225     10223     10221     10224     10226
     10223     10221     10224     10227     10224     10227     10230     10231
     10224     10227     10230     10232     10224     10227     10230     10233
     10225     10224     10227     10228     10225     10224     10227     10229
     10225     10224     10227     10230     10226     10224     10227     10228
     10226     10224     10227     10229     10226     10224     10227     10230
     10227     10230     10233     10234     10227     10230     10233     10235
     10227     10230     10233     10236     10228     10227     10230     10231
     10228     10227     10230     10232     10228     10227     10230     10233
     10229     10227     10230     10231     10229     10227     10230     10232
     10229     10227     10230     10233     10230     10233     10236     10237
     10230     10233     10236     10238     10230     10233     10236     10239
     10231     10230     10233     10234     10231     10230     10233     10235
     10231     10230     10233     10236     10232     10230     10233     10234
     10232     10230     10233     10235     10232     10230     10233     10236
     10233     10236     10239     10240     10233     10236     10239     10241
     10233     10236     10239     10242     10234     10233     10236     10237
     10234     10233     10236     10238     10234     10233     10236     10239
     10235     10233     10236     10237     10235     10233     10236     10238
     10235     10233     10236     10239     10236     10239     10242     10243
     10236     10239     10242     10244     10236     10239     10242     10245
     10237     10236     10239     10240     10237     10236     10239     10241
     10237     10236     10239     10242     10238     10236     10239     10240
     10238     10236     10239     10241     10238     10236     10239     10242
     10239     10242     10245     10246     10239     10242     10245     10247
     10239     10242     10245     10248     10240     10239     10242     10243
     10240     10239     10242     10244     10240     10239     10242     10245
     10241     10239     10242     10243     10241     10239     10242     10244
     10241     10239     10242     10245     10242     10245     10248     10249
     10242     10245     10248     10250     10242     10245     10248     10251
     10243     10242     10245     10246     10243     10242     10245     10247
     10243     10242     10245     10248     10244     10242     10245     10246
     10244     10242     10245     10247     10244     10242     10245     10248
     10245     10248     10251     10252     10245     10248     10251     10253
     10245     10248     10251     10254     10246     10245     10248     10249
     10246     10245     10248     10250     10246     10245     10248     10251
     10247     10245     10248     10249     10247     10245     10248     10250
     10247     10245     10248     10251     10248     10251     10254     10255
     10248     10251     10254     10256     10248     10251     10254     10257
     10249     10248     10251     10252     10249     10248     10251     10253
     10249     10248     10251     10254     10250     10248     10251     10252
     10250     10248     10251     10253     10250     10248     10251     10254
     10252     10251     10254     10255     10252     10251     10254     10256
     10252     10251     10254     10257     10253     10251     10254     10255
     10253     10251     10254     10256     10253     10251     10254     10257
     10258     10262     10265     10266     10258     10262     10265     10267
     10258     10262     10265     10272     10259     10258     10262     10263
     10259     10258     10262     10264     10259     10258     10262     10265
     10260     10258     10262     10263     10260     10258     10262     10264
     10260     10258     10262     10265     10261     10258     10262     10263
     10261     10258     10262     10264     10261     10258     10262     10265
     10262     10265     10272     10268     10263     10262     10265     10266
     10263     10262     10265     10267     10263     10262     10265     10272
     10264     10262     10265     10266     10264     10262     10265     10267
     10264     10262     10265     10272     10265     10272     10268     10269
     10265     10272     10268     10270     10265     10272     10268     10271
     10266     10265     10272     10268     10267     10265     10272     10268
     10268     10271     10273     10274     10268     10271     10273     10275
     10268     10271     10273     10276     10269     10268     10271     10273
     10270     10268     10271     10273     10271     10273     10276     10277
     10271     10273     10276     10278     10271     10273     10276     10284
     10272     10268     10271     10273     10273     10276     10278     10279
     10273     10276     10284     10285     10273     10276     10284     10286
     10273     10276     10284     10287     10274     10273     10276     10277
     10274     10273     10276     10278     10274     10273     10276     10284
     10275     10273     10276     10277     10275     10273     10276     10278
     10275     10273     10276     10284     10276     10278     10279     10280
     10276     10278     10279     10281     10276     10284     10287     10288
     10277     10276     10278     10279     10277     10276     10284     10285
     10277     10276     10284     10286     10277     10276     10284     10287
     10278     10276     10284     10285     10278     10276     10284     10286
     10278     10276     10284     10287     10278     10279     10281     10282
     10278     10279     10281     10283     10278     10279     10281     10293
     10279     10278     10276     10284     10279     10281     10293     10294
     10279     10281     10293     10295     10279     10281     10293     10296
     10280     10279     10281     10282     10280     10279     10281     10283
     10280     10279     10281     10293     10281     10293     10296     10297
     10281     10293     10296     10298     10281     10293     10296     10299
     10282     10281     10293     10294     10282     10281     10293     10295
     10282     10281     10293     10296     10283     10281     10293     10294
     10283     10281     10293     10295     10283     10281     10293     10296
     10284     10287     10288     10289     10284     10287     10288     10290
     10285     10284     10287     10288     10286     10284     10287     10288
     10287     10288     10290     10291     10287     10288     10290     10292
     10287     10288     10290     10340     10288     10290     10340     10341
     10288     10290     10340     10342     10288     10290     10340     10343
     10289     10288     10290     10291     10289     10288     10290     10292
     10289     10288     10290     10340     10290     10340     10343     10344
     10290     10340     10343     10345     10290     10340     10343     10346
     10291     10290     10340     10341     10291     10290     10340     10342
     10291     10290     10340     10343     10292     10290     10340     10341
     10292     10290     10340     10342     10292     10290     10340     10343
     10293     10296     10299     10300     10293     10296     10299     10301
     10293     10296     10299     10302     10294     10293     10296     10297
     10294     10293     10296     10298     10294     10293     10296     10299
     10295     10293     10296     10297     10295     10293     10296     10298
     10295     10293     10296     10299     10296     10299     10302     10303
     10296     10299     10302     10304     10296     10299     10302     10305
     10297     10296     10299     10300     10297     10296     10299     10301
     10297     10296     10299     10302     10298     10296     10299     10300
     10298     10296     10299     10301     10298     10296     10299     10302
     10299     10302     10305     10306     10299     10302     10305     10307
     10299     10302     10305     10308     10300     10299     10302     10303
     10300     10299     10302     10304     10300     10299     10302     10305
     10301     10299     10302     10303     10301     10299     10302     10304
     10301     10299     10302     10305     10302     10305     10308     10309
     10302     10305     10308     10310     10302     10305     10308     10311
     10303     10302     10305     10306     10303     10302     10305     10307
     10303     10302     10305     10308     10304     10302     10305     10306
     10304     10302     10305     10307     10304     10302     10305     10308
     10305     10308     10311     10312     10305     10308     10311     10313
     10306     10305     10308     10309     10306     10305     10308     10310
     10306     10305     10308     10311     10307     10305     10308     10309
     10307     10305     10308     10310     10307     10305     10308     10311
     10308     10311     10313     10314     10308     10311     10313     10315
     10309     10308     10311     10312     10309     10308     10311     10313
     10310     10308     10311     10312     10310     10308     10311     10313
     10311     10313     10315     10316     10311     10313     10315     10317
     10311     10313     10315     10318     10312     10311     10313     10314
     10312     10311     10313     10315     10313     10315     10318     10319
     10313     10315     10318     10320     10313     10315     10318     10321
     10314     10313     10315     10316     10314     10313     10315     10317
     10314     10313     10315     10318     10315     10318     10321     10322
     10315     10318     10321     10323     10315     10318     10321     10324
     10316     10315     10318     10319     10316     10315     10318     10320
     10316     10315     10318     10321     10317     10315     10318     10319
     10317     10315     10318     10320     10317     10315     10318     10321
     10318     10321     10324     10325     10318     10321     10324     10326
     10318     10321     10324     10327     10319     10318     10321     10322
     10319     10318     10321     10323     10319     10318     10321     10324
     10320     10318     10321     10322     10320     10318     10321     10323
     10320     10318     10321     10324     10321     10324     10327     10328
     10321     10324     10327     10329     10321     10324     10327     10330
     10322     10321     10324     10325     10322     10321     10324     10326
     10322     10321     10324     10327     10323     10321     10324     10325
     10323     10321     10324     10326     10323     10321     10324     10327
     10324     10327     10330     10331     10324     10327     10330     10332
     10324     10327     10330     10333     10325     10324     10327     10328
     10325     10324     10327     10329     10325     10324     10327     10330
     10326     10324     10327     10328     10326     10324     10327     10329
     10326     10324     10327     10330     10327     10330     10333     10334
     10327     10330     10333     10335     10327     10330     10333     10336
     10328     10327     10330     10331     10328     10327     10330     10332
     10328     10327     10330     10333     10329     10327     10330     10331
     10329     10327     10330     10332     10329     10327     10330     10333
     10330     10333     10336     10337     10330     10333     10336     10338
     10330     10333     10336     10339     10331     10330     10333     10334
     10331     10330     10333     10335     10331     10330     10333     10336
     10332     10330     10333     10334     10332     10330     10333     10335
     10332     10330     10333     10336     10334     10333     10336     10337
     10334     10333     10336     10338     10334     10333     10336     10339
     10335     10333     10336     10337     10335     10333     10336     10338
     10335     10333     10336     10339     10340     10343     10346     10347
     10340     10343     10346     10348     10340     10343     10346     10349
     10341     10340     10343     10344     10341     10340     10343     10345
     10341     10340     10343     10346     10342     10340     10343     10344
     10342     10340     10343     10345     10342     10340     10343     10346
     10343     10346     10349     10350     10343     10346     10349     10351
     10343     10346     10349     10352     10344     10343     10346     10347
     10344     10343     10346     10348     10344     10343     10346     10349
     10345     10343     10346     10347     10345     10343     10346     10348
     10345     10343     10346     10349     10346     10349     10352     10353
     10346     10349     10352     10354     10346     10349     10352     10355
     10347     10346     10349     10350     10347     10346     10349     10351
     10347     10346     10349     10352     10348     10346     10349     10350
     10348     10346     10349     10351     10348     10346     10349     10352
     10349     10352     10355     10356     10349     10352     10355     10357
     10349     10352     10355     10358     10350     10349     10352     10353
     10350     10349     10352     10354     10350     10349     10352     10355
     10351     10349     10352     10353     10351     10349     10352     10354
     10351     10349     10352     10355     10352     10355     10358     10359
     10352     10355     10358     10360     10352     10355     10358     10361
     10353     10352     10355     10356     10353     10352     10355     10357
     10353     10352     10355     10358     10354     10352     10355     10356
     10354     10352     10355     10357     10354     10352     10355     10358
     10355     10358     10361     10362     10355     10358     10361     10363
     10355     10358     10361     10364     10356     10355     10358     10359
     10356     10355     10358     10360     10356     10355     10358     10361
     10357     10355     10358     10359     10357     10355     10358     10360
     10357     10355     10358     10361     10358     10361     10364     10365
     10358     10361     10364     10366     10358     10361     10364     10367
     10359     10358     10361     10362     10359     10358     10361     10363
     10359     10358     10361     10364     10360     10358     10361     10362
     10360     10358     10361     10363     10360     10358     10361     10364
     10361     10364     10367     10368     10361     10364     10367     10369
     10361     10364     10367     10370     10362     10361     10364     10365
     10362     10361     10364     10366     10362     10361     10364     10367
     10363     10361     10364     10365     10363     10361     10364     10366
     10363     10361     10364     10367     10364     10367     10370     10371
     10364     10367     10370     10372     10364     10367     10370     10373
     10365     10364     10367     10368     10365     10364     10367     10369
     10365     10364     10367     10370     10366     10364     10367     10368
     10366     10364     10367     10369     10366     10364     10367     10370
     10367     10370     10373     10374     10367     10370     10373     10375
     10367     10370     10373     10376     10368     10367     10370     10371
     10368     10367     10370     10372     10368     10367     10370     10373
     10369     10367     10370     10371     10369     10367     10370     10372
     10369     10367     10370     10373     10370     10373     10376     10377
     10370     10373     10376     10378     10370     10373     10376     10379
     10371     10370     10373     10374     10371     10370     10373     10375
     10371     10370     10373     10376     10372     10370     10373     10374
     10372     10370     10373     10375     10372     10370     10373     10376
     10373     10376     10379     10380     10373     10376     10379     10381
     10373     10376     10379     10382     10374     10373     10376     10377
     10374     10373     10376     10378     10374     10373     10376     10379
     10375     10373     10376     10377     10375     10373     10376     10378
     10375     10373     10376     10379     10377     10376     10379     10380
     10377     10376     10379     10381     10377     10376     10379     10382
     10378     10376     10379     10380     10378     10376     10379     10381
     10378     10376     10379     10382     10383     10387     10390     10391
     10383     10387     10390     10392     10383     10387     10390     10397
     10384     10383     10387     10388     10384     10383     10387     10389
     10384     10383     10387     10390     10385     10383     10387     10388
     10385     10383     10387     10389     10385     10383     10387     10390
     10386     10383     10387     10388     10386     10383     10387     10389
     10386     10383     10387     10390     10387     10390     10397     10393
     10388     10387     10390     10391     10388     10387     10390     10392
     10388     10387     10390     10397     10389     10387     10390     10391
     10389     10387     10390     10392     10389     10387     10390     10397
     10390     10397     10393     10394     10390     10397     10393     10395
     10390     10397     10393     10396     10391     10390     10397     10393
     10392     10390     10397     10393     10393     10396     10398     10399
     10393     10396     10398     10400     10393     10396     10398     10401
     10394     10393     10396     10398     10395     10393     10396     10398
     10396     10398     10401     10402     10396     10398     10401     10403
     10396     10398     10401     10409     10397     10393     10396     10398
     10398     10401     10403     10404     10398     10401     10409     10410
     10398     10401     10409     10411     10398     10401     10409     10412
     10399     10398     10401     10402     10399     10398     10401     10403
     10399     10398     10401     10409     10400     10398     10401     10402
     10400     10398     10401     10403     10400     10398     10401     10409
     10401     10403     10404     10405     10401     10403     10404     10406
     10401     10409     10412     10413     10402     10401     10403     10404
     10402     10401     10409     10410     10402     10401     10409     10411
     10402     10401     10409     10412     10403     10401     10409     10410
     10403     10401     10409     10411     10403     10401     10409     10412
     10403     10404     10406     10407     10403     10404     10406     10408
     10403     10404     10406     10418     10404     10403     10401     10409
     10404     10406     10418     10419     10404     10406     10418     10420
     10404     10406     10418     10421     10405     10404     10406     10407
     10405     10404     10406     10408     10405     10404     10406     10418
     10406     10418     10421     10422     10406     10418     10421     10423
     10406     10418     10421     10424     10407     10406     10418     10419
     10407     10406     10418     10420     10407     10406     10418     10421
     10408     10406     10418     10419     10408     10406     10418     10420
     10408     10406     10418     10421     10409     10412     10413     10414
     10409     10412     10413     10415     10410     10409     10412     10413
     10411     10409     10412     10413     10412     10413     10415     10416
     10412     10413     10415     10417     10412     10413     10415     10465
     10413     10415     10465     10466     10413     10415     10465     10467
     10413     10415     10465     10468     10414     10413     10415     10416
     10414     10413     10415     10417     10414     10413     10415     10465
     10415     10465     10468     10469     10415     10465     10468     10470
     10415     10465     10468     10471     10416     10415     10465     10466
     10416     10415     10465     10467     10416     10415     10465     10468
     10417     10415     10465     10466     10417     10415     10465     10467
     10417     10415     10465     10468     10418     10421     10424     10425
     10418     10421     10424     10426     10418     10421     10424     10427
     10419     10418     10421     10422     10419     10418     10421     10423
     10419     10418     10421     10424     10420     10418     10421     10422
     10420     10418     10421     10423     10420     10418     10421     10424
     10421     10424     10427     10428     10421     10424     10427     10429
     10421     10424     10427     10430     10422     10421     10424     10425
     10422     10421     10424     10426     10422     10421     10424     10427
     10423     10421     10424     10425     10423     10421     10424     10426
     10423     10421     10424     10427     10424     10427     10430     10431
     10424     10427     10430     10432     10424     10427     10430     10433
     10425     10424     10427     10428     10425     10424     10427     10429
     10425     10424     10427     10430     10426     10424     10427     10428
     10426     10424     10427     10429     10426     10424     10427     10430
     10427     10430     10433     10434     10427     10430     10433     10435
     10427     10430     10433     10436     10428     10427     10430     10431
     10428     10427     10430     10432     10428     10427     10430     10433
     10429     10427     10430     10431     10429     10427     10430     10432
     10429     10427     10430     10433     10430     10433     10436     10437
     10430     10433     10436     10438     10431     10430     10433     10434
     10431     10430     10433     10435     10431     10430     10433     10436
     10432     10430     10433     10434     10432     10430     10433     10435
     10432     10430     10433     10436     10433     10436     10438     10439
     10433     10436     10438     10440     10434     10433     10436     10437
     10434     10433     10436     10438     10435     10433     10436     10437
     10435     10433     10436     10438     10436     10438     10440     10441
     10436     10438     10440     10442     10436     10438     10440     10443
     10437     10436     10438     10439     10437     10436     10438     10440
     10438     10440     10443     10444     10438     10440     10443     10445
     10438     10440     10443     10446     10439     10438     10440     10441
     10439     10438     10440     10442     10439     10438     10440     10443
     10440     10443     10446     10447     10440     10443     10446     10448
     10440     10443     10446     10449     10441     10440     10443     10444
     10441     10440     10443     10445     10441     10440     10443     10446
     10442     10440     10443     10444     10442     10440     10443     10445
     10442     10440     10443     10446     10443     10446     10449     10450
     10443     10446     10449     10451     10443     10446     10449     10452
     10444     10443     10446     10447     10444     10443     10446     10448
     10444     10443     10446     10449     10445     10443     10446     10447
     10445     10443     10446     10448     10445     10443     10446     10449
     10446     10449     10452     10453     10446     10449     10452     10454
     10446     10449     10452     10455     10447     10446     10449     10450
     10447     10446     10449     10451     10447     10446     10449     10452
     10448     10446     10449     10450     10448     10446     10449     10451
     10448     10446     10449     10452     10449     10452     10455     10456
     10449     10452     10455     10457     10449     10452     10455     10458
     10450     10449     10452     10453     10450     10449     10452     10454
     10450     10449     10452     10455     10451     10449     10452     10453
     10451     10449     10452     10454     10451     10449     10452     10455
     10452     10455     10458     10459     10452     10455     10458     10460
     10452     10455     10458     10461     10453     10452     10455     10456
     10453     10452     10455     10457     10453     10452     10455     10458
     10454     10452     10455     10456     10454     10452     10455     10457
     10454     10452     10455     10458     10455     10458     10461     10462
     10455     10458     10461     10463     10455     10458     10461     10464
     10456     10455     10458     10459     10456     10455     10458     10460
     10456     10455     10458     10461     10457     10455     10458     10459
     10457     10455     10458     10460     10457     10455     10458     10461
     10459     10458     10461     10462     10459     10458     10461     10463
     10459     10458     10461     10464     10460     10458     10461     10462
     10460     10458     10461     10463     10460     10458     10461     10464
     10465     10468     10471     10472     10465     10468     10471     10473
     10465     10468     10471     10474     10466     10465     10468     10469
     10466     10465     10468     10470     10466     10465     10468     10471
     10467     10465     10468     10469     10467     10465     10468     10470
     10467     10465     10468     10471     10468     10471     10474     10475
     10468     10471     10474     10476     10468     10471     10474     10477
     10469     10468     10471     10472     10469     10468     10471     10473
     10469     10468     10471     10474     10470     10468     10471     10472
     10470     10468     10471     10473     10470     10468     10471     10474
     10471     10474     10477     10478     10471     10474     10477     10479
     10471     10474     10477     10480     10472     10471     10474     10475
     10472     10471     10474     10476     10472     10471     10474     10477
     10473     10471     10474     10475     10473     10471     10474     10476
     10473     10471     10474     10477     10474     10477     10480     10481
     10474     10477     10480     10482     10474     10477     10480     10483
     10475     10474     10477     10478     10475     10474     10477     10479
     10475     10474     10477     10480     10476     10474     10477     10478
     10476     10474     10477     10479     10476     10474     10477     10480
     10477     10480     10483     10484     10477     10480     10483     10485
     10477     10480     10483     10486     10478     10477     10480     10481
     10478     10477     10480     10482     10478     10477     10480     10483
     10479     10477     10480     10481     10479     10477     10480     10482
     10479     10477     10480     10483     10480     10483     10486     10487
     10480     10483     10486     10488     10480     10483     10486     10489
     10481     10480     10483     10484     10481     10480     10483     10485
     10481     10480     10483     10486     10482     10480     10483     10484
     10482     10480     10483     10485     10482     10480     10483     10486
     10483     10486     10489     10490     10483     10486     10489     10491
     10483     10486     10489     10492     10484     10483     10486     10487
     10484     10483     10486     10488     10484     10483     10486     10489
     10485     10483     10486     10487     10485     10483     10486     10488
     10485     10483     10486     10489     10486     10489     10492     10493
     10486     10489     10492     10494     10486     10489     10492     10495
     10487     10486     10489     10490     10487     10486     10489     10491
     10487     10486     10489     10492     10488     10486     10489     10490
     10488     10486     10489     10491     10488     10486     10489     10492
     10489     10492     10495     10496     10489     10492     10495     10497
     10489     10492     10495     10498     10490     10489     10492     10493
     10490     10489     10492     10494     10490     10489     10492     10495
     10491     10489     10492     10493     10491     10489     10492     10494
     10491     10489     10492     10495     10492     10495     10498     10499
     10492     10495     10498     10500     10492     10495     10498     10501
     10493     10492     10495     10496     10493     10492     10495     10497
     10493     10492     10495     10498     10494     10492     10495     10496
     10494     10492     10495     10497     10494     10492     10495     10498
     10495     10498     10501     10502     10495     10498     10501     10503
     10495     10498     10501     10504     10496     10495     10498     10499
     10496     10495     10498     10500     10496     10495     10498     10501
     10497     10495     10498     10499     10497     10495     10498     10500
     10497     10495     10498     10501     10498     10501     10504     10505
     10498     10501     10504     10506     10498     10501     10504     10507
     10499     10498     10501     10502     10499     10498     10501     10503
     10499     10498     10501     10504     10500     10498     10501     10502
     10500     10498     10501     10503     10500     10498     10501     10504
     10502     10501     10504     10505     10502     10501     10504     10506
     10502     10501     10504     10507     10503     10501     10504     10505
     10503     10501     10504     10506     10503     10501     10504     10507
     10508     10512     10515     10516     10508     10512     10515     10517
     10508     10512     10515     10522     10509     10508     10512     10513
     10509     10508     10512     10514     10509     10508     10512     10515
     10510     10508     10512     10513     10510     10508     10512     10514
     10510     10508     10512     10515     10511     10508     10512     10513
     10511     10508     10512     10514     10511     10508     10512     10515
     10512     10515     10522     10518     10513     10512     10515     10516
     10513     10512     10515     10517     10513     10512     10515     10522
     10514     10512     10515     10516     10514     10512     10515     10517
     10514     10512     10515     10522     10515     10522     10518     10519
     10515     10522     10518     10520     10515     10522     10518     10521
     10516     10515     10522     10518     10517     10515     10522     10518
     10518     10521     10523     10524     10518     10521     10523     10525
     10518     10521     10523     10526     10519     10518     10521     10523
     10520     10518     10521     10523     10521     10523     10526     10527
     10521     10523     10526     10528     10521     10523     10526     10534
     10522     10518     10521     10523     10523     10526     10528     10529
     10523     10526     10534     10535     10523     10526     10534     10536
     10523     10526     10534     10537     10524     10523     10526     10527
     10524     10523     10526     10528     10524     10523     10526     10534
     10525     10523     10526     10527     10525     10523     10526     10528
     10525     10523     10526     10534     10526     10528     10529     10530
     10526     10528     10529     10531     10526     10534     10537     10538
     10527     10526     10528     10529     10527     10526     10534     10535
     10527     10526     10534     10536     10527     10526     10534     10537
     10528     10526     10534     10535     10528     10526     10534     10536
     10528     10526     10534     10537     10528     10529     10531     10532
     10528     10529     10531     10533     10528     10529     10531     10543
     10529     10528     10526     10534     10529     10531     10543     10544
     10529     10531     10543     10545     10529     10531     10543     10546
     10530     10529     10531     10532     10530     10529     10531     10533
     10530     10529     10531     10543     10531     10543     10546     10547
     10531     10543     10546     10548     10531     10543     10546     10549
     10532     10531     10543     10544     10532     10531     10543     10545
     10532     10531     10543     10546     10533     10531     10543     10544
     10533     10531     10543     10545     10533     10531     10543     10546
     10534     10537     10538     10539     10534     10537     10538     10540
     10535     10534     10537     10538     10536     10534     10537     10538
     10537     10538     10540     10541     10537     10538     10540     10542
     10537     10538     10540     10587     10538     10540     10587     10588
     10538     10540     10587     10589     10538     10540     10587     10590
     10539     10538     10540     10541     10539     10538     10540     10542
     10539     10538     10540     10587     10540     10587     10590     10591
     10540     10587     10590     10592     10540     10587     10590     10593
     10541     10540     10587     10588     10541     10540     10587     10589
     10541     10540     10587     10590     10542     10540     10587     10588
     10542     10540     10587     10589     10542     10540     10587     10590
     10543     10546     10549     10550     10543     10546     10549     10551
     10543     10546     10549     10552     10544     10543     10546     10547
     10544     10543     10546     10548     10544     10543     10546     10549
     10545     10543     10546     10547     10545     10543     10546     10548
     10545     10543     10546     10549     10546     10549     10552     10553
     10546     10549     10552     10554     10546     10549     10552     10555
     10547     10546     10549     10550     10547     10546     10549     10551
     10547     10546     10549     10552     10548     10546     10549     10550
     10548     10546     10549     10551     10548     10546     10549     10552
     10549     10552     10555     10556     10549     10552     10555     10557
     10549     10552     10555     10558     10550     10549     10552     10553
     10550     10549     10552     10554     10550     10549     10552     10555
     10551     10549     10552     10553     10551     10549     10552     10554
     10551     10549     10552     10555     10552     10555     10558     10559
     10552     10555     10558     10560     10552     10555     10558     10561
     10553     10552     10555     10556     10553     10552     10555     10557
     10553     10552     10555     10558     10554     10552     10555     10556
     10554     10552     10555     10557     10554     10552     10555     10558
     10555     10558     10561     10562     10555     10558     10561     10563
     10555     10558     10561     10566     10556     10555     10558     10559
     10556     10555     10558     10560     10556     10555     10558     10561
     10557     10555     10558     10559     10557     10555     10558     10560
     10557     10555     10558     10561     10558     10561     10563     10564
     10558     10561     10563     10565     10558     10561     10563     10566
     10558     10561     10566     10563     10558     10561     10566     10567
     10558     10561     10566     10568     10559     10558     10561     10562
     10559     10558     10561     10563     10559     10558     10561     10566
     10560     10558     10561     10562     10560     10558     10561     10563
     10560     10558     10561     10566     10561     10563     10566     10567
     10561     10563     10566     10568     10561     10566     10563     10564
     10561     10566     10563     10565     10561     10566     10568     10569
     10561     10566     10568     10570     10561     10566     10568     10571
     10562     10561     10563     10564     10562     10561     10563     10565
     10562     10561     10563     10566     10562     10561     10566     10563
     10562     10561     10566     10567     10562     10561     10566     10568
     10563     10561     10566     10567     10563     10561     10566     10568
     10563     10566     10568     10569     10563     10566     10568     10570
     10563     10566     10568     10571     10564     10563     10561     10566
     10564     10563     10566     10567     10564     10563     10566     10568
     10565     10563     10561     10566     10565     10563     10566     10567
     10565     10563     10566     10568     10566     10568     10571     10572
     10566     10568     10571     10573     10566     10568     10571     10574
     10567     10566     10568     10569     10567     10566     10568     10570
     10567     10566     10568     10571     10568     10571     10574     10575
     10568     10571     10574     10576     10568     10571     10574     10577
     10569     10568     10571     10572     10569     10568     10571     10573
     10569     10568     10571     10574     10570     10568     10571     10572
     10570     10568     10571     10573     10570     10568     10571     10574
     10571     10574     10577     10578     10571     10574     10577     10579
     10571     10574     10577     10580     10572     10571     10574     10575
     10572     10571     10574     10576     10572     10571     10574     10577
     10573     10571     10574     10575     10573     10571     10574     10576
     10573     10571     10574     10577     10574     10577     10580     10581
     10574     10577     10580     10582     10574     10577     10580     10583
     10575     10574     10577     10578     10575     10574     10577     10579
     10575     10574     10577     10580     10576     10574     10577     10578
     10576     10574     10577     10579     10576     10574     10577     10580
     10577     10580     10583     10584     10577     10580     10583     10585
     10577     10580     10583     10586     10578     10577     10580     10581
     10578     10577     10580     10582     10578     10577     10580     10583
     10579     10577     10580     10581     10579     10577     10580     10582
     10579     10577     10580     10583     10581     10580     10583     10584
     10581     10580     10583     10585     10581     10580     10583     10586
     10582     10580     10583     10584     10582     10580     10583     10585
     10582     10580     10583     10586     10587     10590     10593     10594
     10587     10590     10593     10595     10587     10590     10593     10596
     10588     10587     10590     10591     10588     10587     10590     10592
     10588     10587     10590     10593     10589     10587     10590     10591
     10589     10587     10590     10592     10589     10587     10590     10593
     10590     10593     10596     10597     10590     10593     10596     10598
     10590     10593     10596     10599     10591     10590     10593     10594
     10591     10590     10593     10595     10591     10590     10593     10596
     10592     10590     10593     10594     10592     10590     10593     10595
     10592     10590     10593     10596     10593     10596     10599     10600
     10593     10596     10599     10601     10593     10596     10599     10602
     10594     10593     10596     10597     10594     10593     10596     10598
     10594     10593     10596     10599     10595     10593     10596     10597
     10595     10593     10596     10598     10595     10593     10596     10599
     10596     10599     10602     10603     10596     10599     10602     10604
     10596     10599     10602     10605     10597     10596     10599     10600
     10597     10596     10599     10601     10597     10596     10599     10602
     10598     10596     10599     10600     10598     10596     10599     10601
     10598     10596     10599     10602     10599     10602     10605     10606
     10599     10602     10605     10607     10599     10602     10605     10608
     10600     10599     10602     10603     10600     10599     10602     10604
     10600     10599     10602     10605     10601     10599     10602     10603
     10601     10599     10602     10604     10601     10599     10602     10605
     10602     10605     10608     10609     10602     10605     10608     10610
     10602     10605     10608     10611     10603     10602     10605     10606
     10603     10602     10605     10607     10603     10602     10605     10608
     10604     10602     10605     10606     10604     10602     10605     10607
     10604     10602     10605     10608     10605     10608     10611     10612
     10605     10608     10611     10613     10605     10608     10611     10614
     10606     10605     10608     10609     10606     10605     10608     10610
     10606     10605     10608     10611     10607     10605     10608     10609
     10607     10605     10608     10610     10607     10605     10608     10611
     10608     10611     10614     10615     10608     10611     10614     10616
     10608     10611     10614     10617     10609     10608     10611     10612
     10609     10608     10611     10613     10609     10608     10611     10614
     10610     10608     10611     10612     10610     10608     10611     10613
     10610     10608     10611     10614     10611     10614     10617     10618
     10611     10614     10617     10619     10611     10614     10617     10620
     10612     10611     10614     10615     10612     10611     10614     10616
     10612     10611     10614     10617     10613     10611     10614     10615
     10613     10611     10614     10616     10613     10611     10614     10617
     10614     10617     10620     10621     10614     10617     10620     10622
     10614     10617     10620     10623     10615     10614     10617     10618
     10615     10614     10617     10619     10615     10614     10617     10620
     10616     10614     10617     10618     10616     10614     10617     10619
     10616     10614     10617     10620     10617     10620     10623     10624
     10617     10620     10623     10625     10617     10620     10623     10626
     10618     10617     10620     10621     10618     10617     10620     10622
     10618     10617     10620     10623     10619     10617     10620     10621
     10619     10617     10620     10622     10619     10617     10620     10623
     10621     10620     10623     10624     10621     10620     10623     10625
     10621     10620     10623     10626     10622     10620     10623     10624
     10622     10620     10623     10625     10622     10620     10623     10626
     10627     10631     10634     10635     10627     10631     10634     10636
     10627     10631     10634     10641     10628     10627     10631     10632
     10628     10627     10631     10633     10628     10627     10631     10634
     10629     10627     10631     10632     10629     10627     10631     10633
     10629     10627     10631     10634     10630     10627     10631     10632
     10630     10627     10631     10633     10630     10627     10631     10634
     10631     10634     10641     10637     10632     10631     10634     10635
     10632     10631     10634     10636     10632     10631     10634     10641
     10633     10631     10634     10635     10633     10631     10634     10636
     10633     10631     10634     10641     10634     10641     10637     10638
     10634     10641     10637     10639     10634     10641     10637     10640
     10635     10634     10641     10637     10636     10634     10641     10637
     10637     10640     10642     10643     10637     10640     10642     10644
     10637     10640     10642     10645     10638     10637     10640     10642
     10639     10637     10640     10642     10640     10642     10645     10646
     10640     10642     10645     10647     10640     10642     10645     10653
     10641     10637     10640     10642     10642     10645     10647     10648
     10642     10645     10653     10654     10642     10645     10653     10655
     10642     10645     10653     10656     10643     10642     10645     10646
     10643     10642     10645     10647     10643     10642     10645     10653
     10644     10642     10645     10646     10644     10642     10645     10647
     10644     10642     10645     10653     10645     10647     10648     10649
     10645     10647     10648     10650     10645     10653     10656     10657
     10646     10645     10647     10648     10646     10645     10653     10654
     10646     10645     10653     10655     10646     10645     10653     10656
     10647     10645     10653     10654     10647     10645     10653     10655
     10647     10645     10653     10656     10647     10648     10650     10651
     10647     10648     10650     10652     10647     10648     10650     10662
     10648     10647     10645     10653     10648     10650     10662     10663
     10648     10650     10662     10664     10648     10650     10662     10665
     10649     10648     10650     10651     10649     10648     10650     10652
     10649     10648     10650     10662     10650     10662     10665     10666
     10650     10662     10665     10667     10650     10662     10665     10668
     10651     10650     10662     10663     10651     10650     10662     10664
     10651     10650     10662     10665     10652     10650     10662     10663
     10652     10650     10662     10664     10652     10650     10662     10665
     10653     10656     10657     10658     10653     10656     10657     10659
     10654     10653     10656     10657     10655     10653     10656     10657
     10656     10657     10659     10660     10656     10657     10659     10661
     10656     10657     10659     10706     10657     10659     10706     10707
     10657     10659     10706     10708     10657     10659     10706     10709
     10658     10657     10659     10660     10658     10657     10659     10661
     10658     10657     10659     10706     10659     10706     10709     10710
     10659     10706     10709     10711     10659     10706     10709     10712
     10660     10659     10706     10707     10660     10659     10706     10708
     10660     10659     10706     10709     10661     10659     10706     10707
     10661     10659     10706     10708     10661     10659     10706     10709
     10662     10665     10668     10669     10662     10665     10668     10670
     10662     10665     10668     10671     10663     10662     10665     10666
     10663     10662     10665     10667     10663     10662     10665     10668
     10664     10662     10665     10666     10664     10662     10665     10667
     10664     10662     10665     10668     10665     10668     10671     10672
     10665     10668     10671     10673     10665     10668     10671     10674
     10666     10665     10668     10669     10666     10665     10668     10670
     10666     10665     10668     10671     10667     10665     10668     10669
     10667     10665     10668     10670     10667     10665     10668     10671
     10668     10671     10674     10675     10668     10671     10674     10676
     10668     10671     10674     10677     10669     10668     10671     10672
     10669     10668     10671     10673     10669     10668     10671     10674
     10670     10668     10671     10672     10670     10668     10671     10673
     10670     10668     10671     10674     10671     10674     10677     10678
     10671     10674     10677     10679     10671     10674     10677     10680
     10672     10671     10674     10675     10672     10671     10674     10676
     10672     10671     10674     10677     10673     10671     10674     10675
     10673     10671     10674     10676     10673     10671     10674     10677
     10674     10677     10680     10681     10674     10677     10680     10682
     10674     10677     10680     10685     10675     10674     10677     10678
     10675     10674     10677     10679     10675     10674     10677     10680
     10676     10674     10677     10678     10676     10674     10677     10679
     10676     10674     10677     10680     10677     10680     10682     10683
     10677     10680     10682     10684     10677     10680     10682     10685
     10677     10680     10685     10682     10677     10680     10685     10686
     10677     10680     10685     10687     10678     10677     10680     10681
     10678     10677     10680     10682     10678     10677     10680     10685
     10679     10677     10680     10681     10679     10677     10680     10682
     10679     10677     10680     10685     10680     10682     10685     10686
     10680     10682     10685     10687     10680     10685     10682     10683
     10680     10685     10682     10684     10680     10685     10687     10688
     10680     10685     10687     10689     10680     10685     10687     10690
     10681     10680     10682     10683     10681     10680     10682     10684
     10681     10680     10682     10685     10681     10680     10685     10682
     10681     10680     10685     10686     10681     10680     10685     10687
     10682     10680     10685     10686     10682     10680     10685     10687
     10682     10685     10687     10688     10682     10685     10687     10689
     10682     10685     10687     10690     10683     10682     10680     10685
     10683     10682     10685     10686     10683     10682     10685     10687
     10684     10682     10680     10685     10684     10682     10685     10686
     10684     10682     10685     10687     10685     10687     10690     10691
     10685     10687     10690     10692     10685     10687     10690     10693
     10686     10685     10687     10688     10686     10685     10687     10689
     10686     10685     10687     10690     10687     10690     10693     10694
     10687     10690     10693     10695     10687     10690     10693     10696
     10688     10687     10690     10691     10688     10687     10690     10692
     10688     10687     10690     10693     10689     10687     10690     10691
     10689     10687     10690     10692     10689     10687     10690     10693
     10690     10693     10696     10697     10690     10693     10696     10698
     10690     10693     10696     10699     10691     10690     10693     10694
     10691     10690     10693     10695     10691     10690     10693     10696
     10692     10690     10693     10694     10692     10690     10693     10695
     10692     10690     10693     10696     10693     10696     10699     10700
     10693     10696     10699     10701     10693     10696     10699     10702
     10694     10693     10696     10697     10694     10693     10696     10698
     10694     10693     10696     10699     10695     10693     10696     10697
     10695     10693     10696     10698     10695     10693     10696     10699
     10696     10699     10702     10703     10696     10699     10702     10704
     10696     10699     10702     10705     10697     10696     10699     10700
     10697     10696     10699     10701     10697     10696     10699     10702
     10698     10696     10699     10700     10698     10696     10699     10701
     10698     10696     10699     10702     10700     10699     10702     10703
     10700     10699     10702     10704     10700     10699     10702     10705
     10701     10699     10702     10703     10701     10699     10702     10704
     10701     10699     10702     10705     10706     10709     10712     10713
     10706     10709     10712     10714     10706     10709     10712     10715
     10707     10706     10709     10710     10707     10706     10709     10711
     10707     10706     10709     10712     10708     10706     10709     10710
     10708     10706     10709     10711     10708     10706     10709     10712
     10709     10712     10715     10716     10709     10712     10715     10717
     10709     10712     10715     10718     10710     10709     10712     10713
     10710     10709     10712     10714     10710     10709     10712     10715
     10711     10709     10712     10713     10711     10709     10712     10714
     10711     10709     10712     10715     10712     10715     10718     10719
     10712     10715     10718     10720     10712     10715     10718     10721
     10713     10712     10715     10716     10713     10712     10715     10717
     10713     10712     10715     10718     10714     10712     10715     10716
     10714     10712     10715     10717     10714     10712     10715     10718
     10715     10718     10721     10722     10715     10718     10721     10723
     10715     10718     10721     10724     10716     10715     10718     10719
     10716     10715     10718     10720     10716     10715     10718     10721
     10717     10715     10718     10719     10717     10715     10718     10720
     10717     10715     10718     10721     10718     10721     10724     10725
     10718     10721     10724     10726     10718     10721     10724     10727
     10719     10718     10721     10722     10719     10718     10721     10723
     10719     10718     10721     10724     10720     10718     10721     10722
     10720     10718     10721     10723     10720     10718     10721     10724
     10721     10724     10727     10728     10721     10724     10727     10729
     10721     10724     10727     10730     10722     10721     10724     10725
     10722     10721     10724     10726     10722     10721     10724     10727
     10723     10721     10724     10725     10723     10721     10724     10726
     10723     10721     10724     10727     10724     10727     10730     10731
     10724     10727     10730     10732     10724     10727     10730     10733
     10725     10724     10727     10728     10725     10724     10727     10729
     10725     10724     10727     10730     10726     10724     10727     10728
     10726     10724     10727     10729     10726     10724     10727     10730
     10727     10730     10733     10734     10727     10730     10733     10735
     10727     10730     10733     10736     10728     10727     10730     10731
     10728     10727     10730     10732     10728     10727     10730     10733
     10729     10727     10730     10731     10729     10727     10730     10732
     10729     10727     10730     10733     10730     10733     10736     10737
     10730     10733     10736     10738     10730     10733     10736     10739
     10731     10730     10733     10734     10731     10730     10733     10735
     10731     10730     10733     10736     10732     10730     10733     10734
     10732     10730     10733     10735     10732     10730     10733     10736
     10733     10736     10739     10740     10733     10736     10739     10741
     10733     10736     10739     10742     10734     10733     10736     10737
     10734     10733     10736     10738     10734     10733     10736     10739
     10735     10733     10736     10737     10735     10733     10736     10738
     10735     10733     10736     10739     10736     10739     10742     10743
     10736     10739     10742     10744     10736     10739     10742     10745
     10737     10736     10739     10740     10737     10736     10739     10741
     10737     10736     10739     10742     10738     10736     10739     10740
     10738     10736     10739     10741     10738     10736     10739     10742
     10739     10742     10745     10746     10739     10742     10745     10747
     10739     10742     10745     10748     10740     10739     10742     10743
     10740     10739     10742     10744     10740     10739     10742     10745
     10741     10739     10742     10743     10741     10739     10742     10744
     10741     10739     10742     10745     10743     10742     10745     10746
     10743     10742     10745     10747     10743     10742     10745     10748
     10744     10742     10745     10746     10744     10742     10745     10747
     10744     10742     10745     10748     10749     10753     10756     10757
     10749     10753     10756     10758     10749     10753     10756     10763
     10750     10749     10753     10754     10750     10749     10753     10755
     10750     10749     10753     10756     10751     10749     10753     10754
     10751     10749     10753     10755     10751     10749     10753     10756
     10752     10749     10753     10754     10752     10749     10753     10755
     10752     10749     10753     10756     10753     10756     10763     10759
     10754     10753     10756     10757     10754     10753     10756     10758
     10754     10753     10756     10763     10755     10753     10756     10757
     10755     10753     10756     10758     10755     10753     10756     10763
     10756     10763     10759     10760     10756     10763     10759     10761
     10756     10763     10759     10762     10757     10756     10763     10759
     10758     10756     10763     10759     10759     10762     10764     10765
     10759     10762     10764     10766     10759     10762     10764     10767
     10760     10759     10762     10764     10761     10759     10762     10764
     10762     10764     10767     10768     10762     10764     10767     10769
     10762     10764     10767     10775     10763     10759     10762     10764
     10764     10767     10769     10770     10764     10767     10775     10776
     10764     10767     10775     10777     10764     10767     10775     10778
     10765     10764     10767     10768     10765     10764     10767     10769
     10765     10764     10767     10775     10766     10764     10767     10768
     10766     10764     10767     10769     10766     10764     10767     10775
     10767     10769     10770     10771     10767     10769     10770     10772
     10767     10775     10778     10779     10768     10767     10769     10770
     10768     10767     10775     10776     10768     10767     10775     10777
     10768     10767     10775     10778     10769     10767     10775     10776
     10769     10767     10775     10777     10769     10767     10775     10778
     10769     10770     10772     10773     10769     10770     10772     10774
     10769     10770     10772     10784     10770     10769     10767     10775
     10770     10772     10784     10785     10770     10772     10784     10786
     10770     10772     10784     10787     10771     10770     10772     10773
     10771     10770     10772     10774     10771     10770     10772     10784
     10772     10784     10787     10788     10772     10784     10787     10789
     10772     10784     10787     10790     10773     10772     10784     10785
     10773     10772     10784     10786     10773     10772     10784     10787
     10774     10772     10784     10785     10774     10772     10784     10786
     10774     10772     10784     10787     10775     10778     10779     10780
     10775     10778     10779     10781     10776     10775     10778     10779
     10777     10775     10778     10779     10778     10779     10781     10782
     10778     10779     10781     10783     10778     10779     10781     10828
     10779     10781     10828     10829     10779     10781     10828     10830
     10779     10781     10828     10831     10780     10779     10781     10782
     10780     10779     10781     10783     10780     10779     10781     10828
     10781     10828     10831     10832     10781     10828     10831     10833
     10781     10828     10831     10834     10782     10781     10828     10829
     10782     10781     10828     10830     10782     10781     10828     10831
     10783     10781     10828     10829     10783     10781     10828     10830
     10783     10781     10828     10831     10784     10787     10790     10791
     10784     10787     10790     10792     10784     10787     10790     10793
     10785     10784     10787     10788     10785     10784     10787     10789
     10785     10784     10787     10790     10786     10784     10787     10788
     10786     10784     10787     10789     10786     10784     10787     10790
     10787     10790     10793     10794     10787     10790     10793     10795
     10787     10790     10793     10796     10788     10787     10790     10791
     10788     10787     10790     10792     10788     10787     10790     10793
     10789     10787     10790     10791     10789     10787     10790     10792
     10789     10787     10790     10793     10790     10793     10796     10797
     10790     10793     10796     10798     10790     10793     10796     10799
     10791     10790     10793     10794     10791     10790     10793     10795
     10791     10790     10793     10796     10792     10790     10793     10794
     10792     10790     10793     10795     10792     10790     10793     10796
     10793     10796     10799     10800     10793     10796     10799     10801
     10793     10796     10799     10802     10794     10793     10796     10797
     10794     10793     10796     10798     10794     10793     10796     10799
     10795     10793     10796     10797     10795     10793     10796     10798
     10795     10793     10796     10799     10796     10799     10802     10803
     10796     10799     10802     10804     10796     10799     10802     10807
     10797     10796     10799     10800     10797     10796     10799     10801
     10797     10796     10799     10802     10798     10796     10799     10800
     10798     10796     10799     10801     10798     10796     10799     10802
     10799     10802     10804     10805     10799     10802     10804     10806
     10799     10802     10804     10807     10799     10802     10807     10804
     10799     10802     10807     10808     10799     10802     10807     10809
     10800     10799     10802     10803     10800     10799     10802     10804
     10800     10799     10802     10807     10801     10799     10802     10803
     10801     10799     10802     10804     10801     10799     10802     10807
     10802     10804     10807     10808     10802     10804     10807     10809
     10802     10807     10804     10805     10802     10807     10804     10806
     10802     10807     10809     10810     10802     10807     10809     10811
     10802     10807     10809     10812     10803     10802     10804     10805
     10803     10802     10804     10806     10803     10802     10804     10807
     10803     10802     10807     10804     10803     10802     10807     10808
     10803     10802     10807     10809     10804     10802     10807     10808
     10804     10802     10807     10809     10804     10807     10809     10810
     10804     10807     10809     10811     10804     10807     10809     10812
     10805     10804     10802     10807     10805     10804     10807     10808
     10805     10804     10807     10809     10806     10804     10802     10807
     10806     10804     10807     10808     10806     10804     10807     10809
     10807     10809     10812     10813     10807     10809     10812     10814
     10807     10809     10812     10815     10808     10807     10809     10810
     10808     10807     10809     10811     10808     10807     10809     10812
     10809     10812     10815     10816     10809     10812     10815     10817
     10809     10812     10815     10818     10810     10809     10812     10813
     10810     10809     10812     10814     10810     10809     10812     10815
     10811     10809     10812     10813     10811     10809     10812     10814
     10811     10809     10812     10815     10812     10815     10818     10819
     10812     10815     10818     10820     10812     10815     10818     10821
     10813     10812     10815     10816     10813     10812     10815     10817
     10813     10812     10815     10818     10814     10812     10815     10816
     10814     10812     10815     10817     10814     10812     10815     10818
     10815     10818     10821     10822     10815     10818     10821     10823
     10815     10818     10821     10824     10816     10815     10818     10819
     10816     10815     10818     10820     10816     10815     10818     10821
     10817     10815     10818     10819     10817     10815     10818     10820
     10817     10815     10818     10821     10818     10821     10824     10825
     10818     10821     10824     10826     10818     10821     10824     10827
     10819     10818     10821     10822     10819     10818     10821     10823
     10819     10818     10821     10824     10820     10818     10821     10822
     10820     10818     10821     10823     10820     10818     10821     10824
     10822     10821     10824     10825     10822     10821     10824     10826
     10822     10821     10824     10827     10823     10821     10824     10825
     10823     10821     10824     10826     10823     10821     10824     10827
     10828     10831     10834     10835     10828     10831     10834     10836
     10828     10831     10834     10837     10829     10828     10831     10832
     10829     10828     10831     10833     10829     10828     10831     10834
     10830     10828     10831     10832     10830     10828     10831     10833
     10830     10828     10831     10834     10831     10834     10837     10838
     10831     10834     10837     10839     10831     10834     10837     10840
     10832     10831     10834     10835     10832     10831     10834     10836
     10832     10831     10834     10837     10833     10831     10834     10835
     10833     10831     10834     10836     10833     10831     10834     10837
     10834     10837     10840     10841     10834     10837     10840     10842
     10834     10837     10840     10843     10835     10834     10837     10838
     10835     10834     10837     10839     10835     10834     10837     10840
     10836     10834     10837     10838     10836     10834     10837     10839
     10836     10834     10837     10840     10837     10840     10843     10844
     10837     10840     10843     10845     10837     10840     10843     10846
     10838     10837     10840     10841     10838     10837     10840     10842
     10838     10837     10840     10843     10839     10837     10840     10841
     10839     10837     10840     10842     10839     10837     10840     10843
     10840     10843     10846     10847     10840     10843     10846     10848
     10840     10843     10846     10849     10841     10840     10843     10844
     10841     10840     10843     10845     10841     10840     10843     10846
     10842     10840     10843     10844     10842     10840     10843     10845
     10842     10840     10843     10846     10843     10846     10849     10850
     10843     10846     10849     10851     10843     10846     10849     10852
     10844     10843     10846     10847     10844     10843     10846     10848
     10844     10843     10846     10849     10845     10843     10846     10847
     10845     10843     10846     10848     10845     10843     10846     10849
     10846     10849     10852     10853     10846     10849     10852     10854
     10846     10849     10852     10855     10847     10846     10849     10850
     10847     10846     10849     10851     10847     10846     10849     10852
     10848     10846     10849     10850     10848     10846     10849     10851
     10848     10846     10849     10852     10849     10852     10855     10856
     10849     10852     10855     10857     10849     10852     10855     10858
     10850     10849     10852     10853     10850     10849     10852     10854
     10850     10849     10852     10855     10851     10849     10852     10853
     10851     10849     10852     10854     10851     10849     10852     10855
     10852     10855     10858     10859     10852     10855     10858     10860
     10852     10855     10858     10861     10853     10852     10855     10856
     10853     10852     10855     10857     10853     10852     10855     10858
     10854     10852     10855     10856     10854     10852     10855     10857
     10854     10852     10855     10858     10855     10858     10861     10862
     10855     10858     10861     10863     10855     10858     10861     10864
     10856     10855     10858     10859     10856     10855     10858     10860
     10856     10855     10858     10861     10857     10855     10858     10859
     10857     10855     10858     10860     10857     10855     10858     10861
     10858     10861     10864     10865     10858     10861     10864     10866
     10858     10861     10864     10867     10859     10858     10861     10862
     10859     10858     10861     10863     10859     10858     10861     10864
     10860     10858     10861     10862     10860     10858     10861     10863
     10860     10858     10861     10864     10861     10864     10867     10868
     10861     10864     10867     10869     10861     10864     10867     10870
     10862     10861     10864     10865     10862     10861     10864     10866
     10862     10861     10864     10867     10863     10861     10864     10865
     10863     10861     10864     10866     10863     10861     10864     10867
     10865     10864     10867     10868     10865     10864     10867     10869
     10865     10864     10867     10870     10866     10864     10867     10868
     10866     10864     10867     10869     10866     10864     10867     10870
     10871     10875     10878     10879     10871     10875     10878     10880
     10871     10875     10878     10885     10872     10871     10875     10876
     10872     10871     10875     10877     10872     10871     10875     10878
     10873     10871     10875     10876     10873     10871     10875     10877
     10873     10871     10875     10878     10874     10871     10875     10876
     10874     10871     10875     10877     10874     10871     10875     10878
     10875     10878     10885     10881     10876     10875     10878     10879
     10876     10875     10878     10880     10876     10875     10878     10885
     10877     10875     10878     10879     10877     10875     10878     10880
     10877     10875     10878     10885     10878     10885     10881     10882
     10878     10885     10881     10883     10878     10885     10881     10884
     10879     10878     10885     10881     10880     10878     10885     10881
     10881     10884     10886     10887     10881     10884     10886     10888
     10881     10884     10886     10889     10882     10881     10884     10886
     10883     10881     10884     10886     10884     10886     10889     10890
     10884     10886     10889     10891     10884     10886     10889     10897
     10885     10881     10884     10886     10886     10889     10891     10892
     10886     10889     10897     10898     10886     10889     10897     10899
     10886     10889     10897     10900     10887     10886     10889     10890
     10887     10886     10889     10891     10887     10886     10889     10897
     10888     10886     10889     10890     10888     10886     10889     10891
     10888     10886     10889     10897     10889     10891     10892     10893
     10889     10891     10892     10894     10889     10897     10900     10901
     10890     10889     10891     10892     10890     10889     10897     10898
     10890     10889     10897     10899     10890     10889     10897     10900
     10891     10889     10897     10898     10891     10889     10897     10899
     10891     10889     10897     10900     10891     10892     10894     10895
     10891     10892     10894     10896     10891     10892     10894     10906
     10892     10891     10889     10897     10892     10894     10906     10907
     10892     10894     10906     10908     10892     10894     10906     10909
     10893     10892     10894     10895     10893     10892     10894     10896
     10893     10892     10894     10906     10894     10906     10909     10910
     10894     10906     10909     10911     10894     10906     10909     10912
     10895     10894     10906     10907     10895     10894     10906     10908
     10895     10894     10906     10909     10896     10894     10906     10907
     10896     10894     10906     10908     10896     10894     10906     10909
     10897     10900     10901     10902     10897     10900     10901     10903
     10898     10897     10900     10901     10899     10897     10900     10901
     10900     10901     10903     10904     10900     10901     10903     10905
     10900     10901     10903     10950     10901     10903     10950     10951
     10901     10903     10950     10952     10901     10903     10950     10953
     10902     10901     10903     10904     10902     10901     10903     10905
     10902     10901     10903     10950     10903     10950     10953     10954
     10903     10950     10953     10955     10903     10950     10953     10956
     10904     10903     10950     10951     10904     10903     10950     10952
     10904     10903     10950     10953     10905     10903     10950     10951
     10905     10903     10950     10952     10905     10903     10950     10953
     10906     10909     10912     10913     10906     10909     10912     10914
     10906     10909     10912     10915     10907     10906     10909     10910
     10907     10906     10909     10911     10907     10906     10909     10912
     10908     10906     10909     10910     10908     10906     10909     10911
     10908     10906     10909     10912     10909     10912     10915     10916
     10909     10912     10915     10917     10909     10912     10915     10918
     10910     10909     10912     10913     10910     10909     10912     10914
     10910     10909     10912     10915     10911     10909     10912     10913
     10911     10909     10912     10914     10911     10909     10912     10915
     10912     10915     10918     10919     10912     10915     10918     10920
     10912     10915     10918     10921     10913     10912     10915     10916
     10913     10912     10915     10917     10913     10912     10915     10918
     10914     10912     10915     10916     10914     10912     10915     10917
     10914     10912     10915     10918     10915     10918     10921     10922
     10915     10918     10921     10923     10915     10918     10921     10924
     10916     10915     10918     10919     10916     10915     10918     10920
     10916     10915     10918     10921     10917     10915     10918     10919
     10917     10915     10918     10920     10917     10915     10918     10921
     10918     10921     10924     10925     10918     10921     10924     10926
     10918     10921     10924     10929     10919     10918     10921     10922
     10919     10918     10921     10923     10919     10918     10921     10924
     10920     10918     10921     10922     10920     10918     10921     10923
     10920     10918     10921     10924     10921     10924     10926     10927
     10921     10924     10926     10928     10921     10924     10926     10929
     10921     10924     10929     10926     10921     10924     10929     10930
     10921     10924     10929     10931     10922     10921     10924     10925
     10922     10921     10924     10926     10922     10921     10924     10929
     10923     10921     10924     10925     10923     10921     10924     10926
     10923     10921     10924     10929     10924     10926     10929     10930
     10924     10926     10929     10931     10924     10929     10926     10927
     10924     10929     10926     10928     10924     10929     10931     10932
     10924     10929     10931     10933     10924     10929     10931     10934
     10925     10924     10926     10927     10925     10924     10926     10928
     10925     10924     10926     10929     10925     10924     10929     10926
     10925     10924     10929     10930     10925     10924     10929     10931
     10926     10924     10929     10930     10926     10924     10929     10931
     10926     10929     10931     10932     10926     10929     10931     10933
     10926     10929     10931     10934     10927     10926     10924     10929
     10927     10926     10929     10930     10927     10926     10929     10931
     10928     10926     10924     10929     10928     10926     10929     10930
     10928     10926     10929     10931     10929     10931     10934     10935
     10929     10931     10934     10936     10929     10931     10934     10937
     10930     10929     10931     10932     10930     10929     10931     10933
     10930     10929     10931     10934     10931     10934     10937     10938
     10931     10934     10937     10939     10931     10934     10937     10940
     10932     10931     10934     10935     10932     10931     10934     10936
     10932     10931     10934     10937     10933     10931     10934     10935
     10933     10931     10934     10936     10933     10931     10934     10937
     10934     10937     10940     10941     10934     10937     10940     10942
     10934     10937     10940     10943     10935     10934     10937     10938
     10935     10934     10937     10939     10935     10934     10937     10940
     10936     10934     10937     10938     10936     10934     10937     10939
     10936     10934     10937     10940     10937     10940     10943     10944
     10937     10940     10943     10945     10937     10940     10943     10946
     10938     10937     10940     10941     10938     10937     10940     10942
     10938     10937     10940     10943     10939     10937     10940     10941
     10939     10937     10940     10942     10939     10937     10940     10943
     10940     10943     10946     10947     10940     10943     10946     10948
     10940     10943     10946     10949     10941     10940     10943     10944
     10941     10940     10943     10945     10941     10940     10943     10946
     10942     10940     10943     10944     10942     10940     10943     10945
     10942     10940     10943     10946     10944     10943     10946     10947
     10944     10943     10946     10948     10944     10943     10946     10949
     10945     10943     10946     10947     10945     10943     10946     10948
     10945     10943     10946     10949     10950     10953     10956     10957
     10950     10953     10956     10958     10950     10953     10956     10959
     10951     10950     10953     10954     10951     10950     10953     10955
     10951     10950     10953     10956     10952     10950     10953     10954
     10952     10950     10953     10955     10952     10950     10953     10956
     10953     10956     10959     10960     10953     10956     10959     10961
     10953     10956     10959     10962     10954     10953     10956     10957
     10954     10953     10956     10958     10954     10953     10956     10959
     10955     10953     10956     10957     10955     10953     10956     10958
     10955     10953     10956     10959     10956     10959     10962     10963
     10956     10959     10962     10964     10956     10959     10962     10965
     10957     10956     10959     10960     10957     10956     10959     10961
     10957     10956     10959     10962     10958     10956     10959     10960
     10958     10956     10959     10961     10958     10956     10959     10962
     10959     10962     10965     10966     10959     10962     10965     10967
     10959     10962     10965     10968     10960     10959     10962     10963
     10960     10959     10962     10964     10960     10959     10962     10965
     10961     10959     10962     10963     10961     10959     10962     10964
     10961     10959     10962     10965     10962     10965     10968     10969
     10962     10965     10968     10970     10962     10965     10968     10971
     10963     10962     10965     10966     10963     10962     10965     10967
     10963     10962     10965     10968     10964     10962     10965     10966
     10964     10962     10965     10967     10964     10962     10965     10968
     10965     10968     10971     10972     10965     10968     10971     10973
     10965     10968     10971     10974     10966     10965     10968     10969
     10966     10965     10968     10970     10966     10965     10968     10971
     10967     10965     10968     10969     10967     10965     10968     10970
     10967     10965     10968     10971     10968     10971     10974     10975
     10968     10971     10974     10976     10968     10971     10974     10977
     10969     10968     10971     10972     10969     10968     10971     10973
     10969     10968     10971     10974     10970     10968     10971     10972
     10970     10968     10971     10973     10970     10968     10971     10974
     10971     10974     10977     10978     10971     10974     10977     10979
     10971     10974     10977     10980     10972     10971     10974     10975
     10972     10971     10974     10976     10972     10971     10974     10977
     10973     10971     10974     10975     10973     10971     10974     10976
     10973     10971     10974     10977     10974     10977     10980     10981
     10974     10977     10980     10982     10974     10977     10980     10983
     10975     10974     10977     10978     10975     10974     10977     10979
     10975     10974     10977     10980     10976     10974     10977     10978
     10976     10974     10977     10979     10976     10974     10977     10980
     10977     10980     10983     10984     10977     10980     10983     10985
     10977     10980     10983     10986     10978     10977     10980     10981
     10978     10977     10980     10982     10978     10977     10980     10983
     10979     10977     10980     10981     10979     10977     10980     10982
     10979     10977     10980     10983     10980     10983     10986     10987
     10980     10983     10986     10988     10980     10983     10986     10989
     10981     10980     10983     10984     10981     10980     10983     10985
     10981     10980     10983     10986     10982     10980     10983     10984
     10982     10980     10983     10985     10982     10980     10983     10986
     10983     10986     10989     10990     10983     10986     10989     10991
     10983     10986     10989     10992     10984     10983     10986     10987
     10984     10983     10986     10988     10984     10983     10986     10989
     10985     10983     10986     10987     10985     10983     10986     10988
     10985     10983     10986     10989     10987     10986     10989     10990
     10987     10986     10989     10991     10987     10986     10989     10992
     10988     10986     10989     10990     10988     10986     10989     10991
     10988     10986     10989     10992     10993     10999     10996     10997
     10993     10999     10996     10998     10993     10999     10996     11000
     10993     11004     11006     11007     10993     11004     11008     11009
     10993     11004     11008     11010     10993     11004     11008     11014
     10994     10993     10999     10996     10994     10993     11004     11005
     10994     10993     11004     11006     10994     10993     11004     11008
     10995     10993     10999     10996     10995     10993     11004     11005
     10995     10993     11004     11006     10995     10993     11004     11008
     10996     10999     10993     11004     10996     11000     11001     11002
     10996     11000     11001     11003     10996     11000     11001     11036
     10997     10996     11000     11001     10998     10996     11000     11001
     10999     10993     11004     11005     10999     10993     11004     11006
     10999     10993     11004     11008     10999     10996     11000     11001
     11000     11001     11036     11037     11000     11001     11036     11038
     11000     11001     11036     11044     11001     11036     11038     11039
     11001     11036     11044     11045     11001     11036     11044     11046
     11001     11036     11044     11047     11002     11001     11036     11037
     11002     11001     11036     11038     11002     11001     11036     11044
     11003     11001     11036     11037     11003     11001     11036     11038
     11003     11001     11036     11044     11004     11008     11014     11011
     11005     11004     11006     11007     11005     11004     11008     11009
     11005     11004     11008     11010     11005     11004     11008     11014
     11006     11004     11008     11009     11006     11004     11008     11010
     11006     11004     11008     11014     11007     11006     11004     11008
     11008     11014     11011     11012     11008     11014     11011     11013
     11008     11014     11011     11015     11009     11008     11014     11011
     11010     11008     11014     11011     11011     11015     11016     11017
     11011     11015     11016     11018     11011     11015     11016     11019
     11012     11011     11015     11016     11013     11011     11015     11016
     11014     11011     11015     11016     11015     11016     11019     11020
     11015     11016     11019     11021     11015     11016     11019     11027
     11016     11019     11021     11022     11016     11019     11027     11028
     11016     11019     11027     11029     11016     11019     11027     11030
     11017     11016     11019     11020     11017     11016     11019     11021
     11017     11016     11019     11027     11018     11016     11019     11020
     11018     11016     11019     11021     11018     11016     11019     11027
     11019     11021     11022     11023     11019     11021     11022     11024
     11019     11027     11030     11031     11020     11019     11021     11022
     11020     11019     11027     11028     11020     11019     11027     11029
     11020     11019     11027     11030     11021     11019     11027     11028
     11021     11019     11027     11029     11021     11019     11027     11030
     11021     11022     11024     11025     11021     11022     11024     11026
     11021     11022     11024     11053     11022     11021     11019     11027
     11022     11024     11053     11054     11022     11024     11053     11055
     11022     11024     11053     11056     11023     11022     11024     11025
     11023     11022     11024     11026     11023     11022     11024     11053
     11024     11053     11056     11057     11024     11053     11056     11058
     11024     11053     11056     11059     11025     11024     11053     11054
     11025     11024     11053     11055     11025     11024     11053     11056
     11026     11024     11053     11054     11026     11024     11053     11055
     11026     11024     11053     11056     11027     11030     11031     11032
     11027     11030     11031     11033     11028     11027     11030     11031
     11029     11027     11030     11031     11030     11031     11033     11034
     11030     11031     11033     11035     11030     11031     11033     11100
     11031     11033     11100     11101     11031     11033     11100     11102
     11031     11033     11100     11103     11032     11031     11033     11034
     11032     11031     11033     11035     11032     11031     11033     11100
     11033     11100     11103     11104     11033     11100     11103     11105
     11033     11100     11103     11106     11034     11033     11100     11101
     11034     11033     11100     11102     11034     11033     11100     11103
     11035     11033     11100     11101     11035     11033     11100     11102
     11035     11033     11100     11103     11036     11038     11039     11040
     11036     11038     11039     11041     11036     11044     11047     11048
     11037     11036     11038     11039     11037     11036     11044     11045
     11037     11036     11044     11046     11037     11036     11044     11047
     11038     11036     11044     11045     11038     11036     11044     11046
     11038     11036     11044     11047     11038     11039     11041     11042
     11038     11039     11041     11043     11038     11039     11041     11143
     11039     11038     11036     11044     11039     11041     11143     11144
     11039     11041     11143     11145     11039     11041     11143     11146
     11040     11039     11041     11042     11040     11039     11041     11043
     11040     11039     11041     11143     11041     11143     11146     11147
     11041     11143     11146     11148     11041     11143     11146     11149
     11042     11041     11143     11144     11042     11041     11143     11145
     11042     11041     11143     11146     11043     11041     11143     11144
     11043     11041     11143     11145     11043     11041     11143     11146
     11044     11047     11048     11049     11044     11047     11048     11050
     11045     11044     11047     11048     11046     11044     11047     11048
     11047     11048     11050     11051     11047     11048     11050     11052
     11047     11048     11050     11190     11048     11050     11190     11191
     11048     11050     11190     11192     11048     11050     11190     11193
     11049     11048     11050     11051     11049     11048     11050     11052
     11049     11048     11050     11190     11050     11190     11193     11194
     11050     11190     11193     11195     11050     11190     11193     11196
     11051     11050     11190     11191     11051     11050     11190     11192
     11051     11050     11190     11193     11052     11050     11190     11191
     11052     11050     11190     11192     11052     11050     11190     11193
     11053     11056     11059     11060     11053     11056     11059     11061
     11053     11056     11059     11062     11054     11053     11056     11057
     11054     11053     11056     11058     11054     11053     11056     11059
     11055     11053     11056     11057     11055     11053     11056     11058
     11055     11053     11056     11059     11056     11059     11062     11063
     11056     11059     11062     11064     11056     11059     11062     11065
     11057     11056     11059     11060     11057     11056     11059     11061
     11057     11056     11059     11062     11058     11056     11059     11060
     11058     11056     11059     11061     11058     11056     11059     11062
     11059     11062     11065     11066     11059     11062     11065     11067
     11059     11062     11065     11068     11060     11059     11062     11063
     11060     11059     11062     11064     11060     11059     11062     11065
     11061     11059     11062     11063     11061     11059     11062     11064
     11061     11059     11062     11065     11062     11065     11068     11069
     11062     11065     11068     11070     11062     11065     11068     11071
     11063     11062     11065     11066     11063     11062     11065     11067
     11063     11062     11065     11068     11064     11062     11065     11066
     11064     11062     11065     11067     11064     11062     11065     11068
     11065     11068     11071     11072     11065     11068     11071     11073
     11065     11068     11071     11074     11066     11065     11068     11069
     11066     11065     11068     11070     11066     11065     11068     11071
     11067     11065     11068     11069     11067     11065     11068     11070
     11067     11065     11068     11071     11068     11071     11074     11075
     11068     11071     11074     11076     11068     11071     11074     11077
     11069     11068     11071     11072     11069     11068     11071     11073
     11069     11068     11071     11074     11070     11068     11071     11072
     11070     11068     11071     11073     11070     11068     11071     11074
     11071     11074     11077     11078     11071     11074     11077     11079
     11072     11071     11074     11075     11072     11071     11074     11076
     11072     11071     11074     11077     11073     11071     11074     11075
     11073     11071     11074     11076     11073     11071     11074     11077
     11074     11077     11079     11080     11074     11077     11079     11081
     11075     11074     11077     11078     11075     11074     11077     11079
     11076     11074     11077     11078     11076     11074     11077     11079
     11077     11079     11081     11082     11077     11079     11081     11083
     11077     11079     11081     11084     11078     11077     11079     11080
     11078     11077     11079     11081     11079     11081     11084     11085
     11079     11081     11084     11086     11079     11081     11084     11087
     11080     11079     11081     11082     11080     11079     11081     11083
     11080     11079     11081     11084     11081     11084     11087     11088
     11081     11084     11087     11089     11081     11084     11087     11090
     11082     11081     11084     11085     11082     11081     11084     11086
     11082     11081     11084     11087     11083     11081     11084     11085
     11083     11081     11084     11086     11083     11081     11084     11087
     11084     11087     11090     11091     11084     11087     11090     11092
     11084     11087     11090     11093     11085     11084     11087     11088
     11085     11084     11087     11089     11085     11084     11087     11090
     11086     11084     11087     11088     11086     11084     11087     11089
     11086     11084     11087     11090     11087     11090     11093     11094
     11087     11090     11093     11095     11087     11090     11093     11096
     11088     11087     11090     11091     11088     11087     11090     11092
     11088     11087     11090     11093     11089     11087     11090     11091
     11089     11087     11090     11092     11089     11087     11090     11093
     11090     11093     11096     11097     11090     11093     11096     11098
     11090     11093     11096     11099     11091     11090     11093     11094
     11091     11090     11093     11095     11091     11090     11093     11096
     11092     11090     11093     11094     11092     11090     11093     11095
     11092     11090     11093     11096     11094     11093     11096     11097
     11094     11093     11096     11098     11094     11093     11096     11099
     11095     11093     11096     11097     11095     11093     11096     11098
     11095     11093     11096     11099     11100     11103     11106     11107
     11100     11103     11106     11108     11100     11103     11106     11109
     11101     11100     11103     11104     11101     11100     11103     11105
     11101     11100     11103     11106     11102     11100     11103     11104
     11102     11100     11103     11105     11102     11100     11103     11106
     11103     11106     11109     11110     11103     11106     11109     11111
     11103     11106     11109     11112     11104     11103     11106     11107
     11104     11103     11106     11108     11104     11103     11106     11109
     11105     11103     11106     11107     11105     11103     11106     11108
     11105     11103     11106     11109     11106     11109     11112     11113
     11106     11109     11112     11114     11106     11109     11112     11115
     11107     11106     11109     11110     11107     11106     11109     11111
     11107     11106     11109     11112     11108     11106     11109     11110
     11108     11106     11109     11111     11108     11106     11109     11112
     11109     11112     11115     11116     11109     11112     11115     11117
     11109     11112     11115     11118     11110     11109     11112     11113
     11110     11109     11112     11114     11110     11109     11112     11115
     11111     11109     11112     11113     11111     11109     11112     11114
     11111     11109     11112     11115     11112     11115     11118     11119
     11112     11115     11118     11120     11112     11115     11118     11121
     11113     11112     11115     11116     11113     11112     11115     11117
     11113     11112     11115     11118     11114     11112     11115     11116
     11114     11112     11115     11117     11114     11112     11115     11118
     11115     11118     11121     11122     11115     11118     11121     11123
     11115     11118     11121     11124     11116     11115     11118     11119
     11116     11115     11118     11120     11116     11115     11118     11121
     11117     11115     11118     11119     11117     11115     11118     11120
     11117     11115     11118     11121     11118     11121     11124     11125
     11118     11121     11124     11126     11118     11121     11124     11127
     11119     11118     11121     11122     11119     11118     11121     11123
     11119     11118     11121     11124     11120     11118     11121     11122
     11120     11118     11121     11123     11120     11118     11121     11124
     11121     11124     11127     11128     11121     11124     11127     11129
     11121     11124     11127     11130     11122     11121     11124     11125
     11122     11121     11124     11126     11122     11121     11124     11127
     11123     11121     11124     11125     11123     11121     11124     11126
     11123     11121     11124     11127     11124     11127     11130     11131
     11124     11127     11130     11132     11124     11127     11130     11133
     11125     11124     11127     11128     11125     11124     11127     11129
     11125     11124     11127     11130     11126     11124     11127     11128
     11126     11124     11127     11129     11126     11124     11127     11130
     11127     11130     11133     11134     11127     11130     11133     11135
     11127     11130     11133     11136     11128     11127     11130     11131
     11128     11127     11130     11132     11128     11127     11130     11133
     11129     11127     11130     11131     11129     11127     11130     11132
     11129     11127     11130     11133     11130     11133     11136     11137
     11130     11133     11136     11138     11130     11133     11136     11139
     11131     11130     11133     11134     11131     11130     11133     11135
     11131     11130     11133     11136     11132     11130     11133     11134
     11132     11130     11133     11135     11132     11130     11133     11136
     11133     11136     11139     11140     11133     11136     11139     11141
     11133     11136     11139     11142     11134     11133     11136     11137
     11134     11133     11136     11138     11134     11133     11136     11139
     11135     11133     11136     11137     11135     11133     11136     11138
     11135     11133     11136     11139     11137     11136     11139     11140
     11137     11136     11139     11141     11137     11136     11139     11142
     11138     11136     11139     11140     11138     11136     11139     11141
     11138     11136     11139     11142     11143     11146     11149     11150
     11143     11146     11149     11151     11143     11146     11149     11152
     11144     11143     11146     11147     11144     11143     11146     11148
     11144     11143     11146     11149     11145     11143     11146     11147
     11145     11143     11146     11148     11145     11143     11146     11149
     11146     11149     11152     11153     11146     11149     11152     11154
     11146     11149     11152     11155     11147     11146     11149     11150
     11147     11146     11149     11151     11147     11146     11149     11152
     11148     11146     11149     11150     11148     11146     11149     11151
     11148     11146     11149     11152     11149     11152     11155     11156
     11149     11152     11155     11157     11149     11152     11155     11158
     11150     11149     11152     11153     11150     11149     11152     11154
     11150     11149     11152     11155     11151     11149     11152     11153
     11151     11149     11152     11154     11151     11149     11152     11155
     11152     11155     11158     11159     11152     11155     11158     11160
     11152     11155     11158     11161     11153     11152     11155     11156
     11153     11152     11155     11157     11153     11152     11155     11158
     11154     11152     11155     11156     11154     11152     11155     11157
     11154     11152     11155     11158     11155     11158     11161     11162
     11155     11158     11161     11163     11155     11158     11161     11164
     11156     11155     11158     11159     11156     11155     11158     11160
     11156     11155     11158     11161     11157     11155     11158     11159
     11157     11155     11158     11160     11157     11155     11158     11161
     11158     11161     11164     11165     11158     11161     11164     11166
     11158     11161     11164     11167     11159     11158     11161     11162
     11159     11158     11161     11163     11159     11158     11161     11164
     11160     11158     11161     11162     11160     11158     11161     11163
     11160     11158     11161     11164     11161     11164     11167     11168
     11161     11164     11167     11169     11162     11161     11164     11165
     11162     11161     11164     11166     11162     11161     11164     11167
     11163     11161     11164     11165     11163     11161     11164     11166
     11163     11161     11164     11167     11164     11167     11169     11170
     11164     11167     11169     11171     11165     11164     11167     11168
     11165     11164     11167     11169     11166     11164     11167     11168
     11166     11164     11167     11169     11167     11169     11171     11172
     11167     11169     11171     11173     11167     11169     11171     11174
     11168     11167     11169     11170     11168     11167     11169     11171
     11169     11171     11174     11175     11169     11171     11174     11176
     11169     11171     11174     11177     11170     11169     11171     11172
     11170     11169     11171     11173     11170     11169     11171     11174
     11171     11174     11177     11178     11171     11174     11177     11179
     11171     11174     11177     11180     11172     11171     11174     11175
     11172     11171     11174     11176     11172     11171     11174     11177
     11173     11171     11174     11175     11173     11171     11174     11176
     11173     11171     11174     11177     11174     11177     11180     11181
     11174     11177     11180     11182     11174     11177     11180     11183
     11175     11174     11177     11178     11175     11174     11177     11179
     11175     11174     11177     11180     11176     11174     11177     11178
     11176     11174     11177     11179     11176     11174     11177     11180
     11177     11180     11183     11184     11177     11180     11183     11185
     11177     11180     11183     11186     11178     11177     11180     11181
     11178     11177     11180     11182     11178     11177     11180     11183
     11179     11177     11180     11181     11179     11177     11180     11182
     11179     11177     11180     11183     11180     11183     11186     11187
     11180     11183     11186     11188     11180     11183     11186     11189
     11181     11180     11183     11184     11181     11180     11183     11185
     11181     11180     11183     11186     11182     11180     11183     11184
     11182     11180     11183     11185     11182     11180     11183     11186
     11184     11183     11186     11187     11184     11183     11186     11188
     11184     11183     11186     11189     11185     11183     11186     11187
     11185     11183     11186     11188     11185     11183     11186     11189
     11190     11193     11196     11197     11190     11193     11196     11198
     11190     11193     11196     11199     11191     11190     11193     11194
     11191     11190     11193     11195     11191     11190     11193     11196
     11192     11190     11193     11194     11192     11190     11193     11195
     11192     11190     11193     11196     11193     11196     11199     11200
     11193     11196     11199     11201     11193     11196     11199     11202
     11194     11193     11196     11197     11194     11193     11196     11198
     11194     11193     11196     11199     11195     11193     11196     11197
     11195     11193     11196     11198     11195     11193     11196     11199
     11196     11199     11202     11203     11196     11199     11202     11204
     11196     11199     11202     11205     11197     11196     11199     11200
     11197     11196     11199     11201     11197     11196     11199     11202
     11198     11196     11199     11200     11198     11196     11199     11201
     11198     11196     11199     11202     11199     11202     11205     11206
     11199     11202     11205     11207     11199     11202     11205     11208
     11200     11199     11202     11203     11200     11199     11202     11204
     11200     11199     11202     11205     11201     11199     11202     11203
     11201     11199     11202     11204     11201     11199     11202     11205
     11202     11205     11208     11209     11202     11205     11208     11210
     11202     11205     11208     11211     11203     11202     11205     11206
     11203     11202     11205     11207     11203     11202     11205     11208
     11204     11202     11205     11206     11204     11202     11205     11207
     11204     11202     11205     11208     11205     11208     11211     11212
     11205     11208     11211     11213     11205     11208     11211     11214
     11206     11205     11208     11209     11206     11205     11208     11210
     11206     11205     11208     11211     11207     11205     11208     11209
     11207     11205     11208     11210     11207     11205     11208     11211
     11208     11211     11214     11215     11208     11211     11214     11216
     11208     11211     11214     11217     11209     11208     11211     11212
     11209     11208     11211     11213     11209     11208     11211     11214
     11210     11208     11211     11212     11210     11208     11211     11213
     11210     11208     11211     11214     11211     11214     11217     11218
     11211     11214     11217     11219     11211     11214     11217     11220
     11212     11211     11214     11215     11212     11211     11214     11216
     11212     11211     11214     11217     11213     11211     11214     11215
     11213     11211     11214     11216     11213     11211     11214     11217
     11214     11217     11220     11221     11214     11217     11220     11222
     11214     11217     11220     11223     11215     11214     11217     11218
     11215     11214     11217     11219     11215     11214     11217     11220
     11216     11214     11217     11218     11216     11214     11217     11219
     11216     11214     11217     11220     11217     11220     11223     11224
     11217     11220     11223     11225     11217     11220     11223     11226
     11218     11217     11220     11221     11218     11217     11220     11222
     11218     11217     11220     11223     11219     11217     11220     11221
     11219     11217     11220     11222     11219     11217     11220     11223
     11220     11223     11226     11227     11220     11223     11226     11228
     11220     11223     11226     11229     11221     11220     11223     11224
     11221     11220     11223     11225     11221     11220     11223     11226
     11222     11220     11223     11224     11222     11220     11223     11225
     11222     11220     11223     11226     11223     11226     11229     11230
     11223     11226     11229     11231     11223     11226     11229     11232
     11224     11223     11226     11227     11224     11223     11226     11228
     11224     11223     11226     11229     11225     11223     11226     11227
     11225     11223     11226     11228     11225     11223     11226     11229
     11227     11226     11229     11230     11227     11226     11229     11231
     11227     11226     11229     11232     11228     11226     11229     11230
     11228     11226     11229     11231     11228     11226     11229     11232
     11233     11237     11240     11241     11233     11237     11240     11242
     11233     11237     11240     11247     11234     11233     11237     11238
     11234     11233     11237     11239     11234     11233     11237     11240
     11235     11233     11237     11238     11235     11233     11237     11239
     11235     11233     11237     11240     11236     11233     11237     11238
     11236     11233     11237     11239     11236     11233     11237     11240
     11237     11240     11247     11243     11238     11237     11240     11241
     11238     11237     11240     11242     11238     11237     11240     11247
     11239     11237     11240     11241     11239     11237     11240     11242
     11239     11237     11240     11247     11240     11247     11243     11244
     11240     11247     11243     11245     11240     11247     11243     11246
     11241     11240     11247     11243     11242     11240     11247     11243
     11243     11246     11248     11249     11243     11246     11248     11250
     11243     11246     11248     11251     11244     11243     11246     11248
     11245     11243     11246     11248     11246     11248     11251     11252
     11246     11248     11251     11253     11246     11248     11251     11259
     11247     11243     11246     11248     11248     11251     11253     11254
     11248     11251     11259     11260     11248     11251     11259     11261
     11248     11251     11259     11262     11249     11248     11251     11252
     11249     11248     11251     11253     11249     11248     11251     11259
     11250     11248     11251     11252     11250     11248     11251     11253
     11250     11248     11251     11259     11251     11253     11254     11255
     11251     11253     11254     11256     11251     11259     11262     11263
     11252     11251     11253     11254     11252     11251     11259     11260
     11252     11251     11259     11261     11252     11251     11259     11262
     11253     11251     11259     11260     11253     11251     11259     11261
     11253     11251     11259     11262     11253     11254     11256     11257
     11253     11254     11256     11258     11253     11254     11256     11268
     11254     11253     11251     11259     11254     11256     11268     11269
     11254     11256     11268     11270     11254     11256     11268     11271
     11255     11254     11256     11257     11255     11254     11256     11258
     11255     11254     11256     11268     11256     11268     11271     11272
     11256     11268     11271     11273     11256     11268     11271     11274
     11257     11256     11268     11269     11257     11256     11268     11270
     11257     11256     11268     11271     11258     11256     11268     11269
     11258     11256     11268     11270     11258     11256     11268     11271
     11259     11262     11263     11264     11259     11262     11263     11265
     11260     11259     11262     11263     11261     11259     11262     11263
     11262     11263     11265     11266     11262     11263     11265     11267
     11262     11263     11265     11312     11263     11265     11312     11313
     11263     11265     11312     11314     11263     11265     11312     11315
     11264     11263     11265     11266     11264     11263     11265     11267
     11264     11263     11265     11312     11265     11312     11315     11316
     11265     11312     11315     11317     11265     11312     11315     11318
     11266     11265     11312     11313     11266     11265     11312     11314
     11266     11265     11312     11315     11267     11265     11312     11313
     11267     11265     11312     11314     11267     11265     11312     11315
     11268     11271     11274     11275     11268     11271     11274     11276
     11268     11271     11274     11277     11269     11268     11271     11272
     11269     11268     11271     11273     11269     11268     11271     11274
     11270     11268     11271     11272     11270     11268     11271     11273
     11270     11268     11271     11274     11271     11274     11277     11278
     11271     11274     11277     11279     11271     11274     11277     11280
     11272     11271     11274     11275     11272     11271     11274     11276
     11272     11271     11274     11277     11273     11271     11274     11275
     11273     11271     11274     11276     11273     11271     11274     11277
     11274     11277     11280     11281     11274     11277     11280     11282
     11274     11277     11280     11283     11275     11274     11277     11278
     11275     11274     11277     11279     11275     11274     11277     11280
     11276     11274     11277     11278     11276     11274     11277     11279
     11276     11274     11277     11280     11277     11280     11283     11284
     11277     11280     11283     11285     11277     11280     11283     11286
     11278     11277     11280     11281     11278     11277     11280     11282
     11278     11277     11280     11283     11279     11277     11280     11281
     11279     11277     11280     11282     11279     11277     11280     11283
     11280     11283     11286     11287     11280     11283     11286     11288
     11280     11283     11286     11291     11281     11280     11283     11284
     11281     11280     11283     11285     11281     11280     11283     11286
     11282     11280     11283     11284     11282     11280     11283     11285
     11282     11280     11283     11286     11283     11286     11288     11289
     11283     11286     11288     11290     11283     11286     11288     11291
     11283     11286     11291     11288     11283     11286     11291     11292
     11283     11286     11291     11293     11284     11283     11286     11287
     11284     11283     11286     11288     11284     11283     11286     11291
     11285     11283     11286     11287     11285     11283     11286     11288
     11285     11283     11286     11291     11286     11288     11291     11292
     11286     11288     11291     11293     11286     11291     11288     11289
     11286     11291     11288     11290     11286     11291     11293     11294
     11286     11291     11293     11295     11286     11291     11293     11296
     11287     11286     11288     11289     11287     11286     11288     11290
     11287     11286     11288     11291     11287     11286     11291     11288
     11287     11286     11291     11292     11287     11286     11291     11293
     11288     11286     11291     11292     11288     11286     11291     11293
     11288     11291     11293     11294     11288     11291     11293     11295
     11288     11291     11293     11296     11289     11288     11286     11291
     11289     11288     11291     11292     11289     11288     11291     11293
     11290     11288     11286     11291     11290     11288     11291     11292
     11290     11288     11291     11293     11291     11293     11296     11297
     11291     11293     11296     11298     11291     11293     11296     11299
     11292     11291     11293     11294     11292     11291     11293     11295
     11292     11291     11293     11296     11293     11296     11299     11300
     11293     11296     11299     11301     11293     11296     11299     11302
     11294     11293     11296     11297     11294     11293     11296     11298
     11294     11293     11296     11299     11295     11293     11296     11297
     11295     11293     11296     11298     11295     11293     11296     11299
     11296     11299     11302     11303     11296     11299     11302     11304
     11296     11299     11302     11305     11297     11296     11299     11300
     11297     11296     11299     11301     11297     11296     11299     11302
     11298     11296     11299     11300     11298     11296     11299     11301
     11298     11296     11299     11302     11299     11302     11305     11306
     11299     11302     11305     11307     11299     11302     11305     11308
     11300     11299     11302     11303     11300     11299     11302     11304
     11300     11299     11302     11305     11301     11299     11302     11303
     11301     11299     11302     11304     11301     11299     11302     11305
     11302     11305     11308     11309     11302     11305     11308     11310
     11302     11305     11308     11311     11303     11302     11305     11306
     11303     11302     11305     11307     11303     11302     11305     11308
     11304     11302     11305     11306     11304     11302     11305     11307
     11304     11302     11305     11308     11306     11305     11308     11309
     11306     11305     11308     11310     11306     11305     11308     11311
     11307     11305     11308     11309     11307     11305     11308     11310
     11307     11305     11308     11311     11312     11315     11318     11319
     11312     11315     11318     11320     11312     11315     11318     11321
     11313     11312     11315     11316     11313     11312     11315     11317
     11313     11312     11315     11318     11314     11312     11315     11316
     11314     11312     11315     11317     11314     11312     11315     11318
     11315     11318     11321     11322     11315     11318     11321     11323
     11315     11318     11321     11324     11316     11315     11318     11319
     11316     11315     11318     11320     11316     11315     11318     11321
     11317     11315     11318     11319     11317     11315     11318     11320
     11317     11315     11318     11321     11318     11321     11324     11325
     11318     11321     11324     11326     11318     11321     11324     11327
     11319     11318     11321     11322     11319     11318     11321     11323
     11319     11318     11321     11324     11320     11318     11321     11322
     11320     11318     11321     11323     11320     11318     11321     11324
     11321     11324     11327     11328     11321     11324     11327     11329
     11321     11324     11327     11330     11322     11321     11324     11325
     11322     11321     11324     11326     11322     11321     11324     11327
     11323     11321     11324     11325     11323     11321     11324     11326
     11323     11321     11324     11327     11324     11327     11330     11331
     11324     11327     11330     11332     11324     11327     11330     11333
     11325     11324     11327     11328     11325     11324     11327     11329
     11325     11324     11327     11330     11326     11324     11327     11328
     11326     11324     11327     11329     11326     11324     11327     11330
     11327     11330     11333     11334     11327     11330     11333     11335
     11327     11330     11333     11336     11328     11327     11330     11331
     11328     11327     11330     11332     11328     11327     11330     11333
     11329     11327     11330     11331     11329     11327     11330     11332
     11329     11327     11330     11333     11330     11333     11336     11337
     11330     11333     11336     11338     11330     11333     11336     11339
     11331     11330     11333     11334     11331     11330     11333     11335
     11331     11330     11333     11336     11332     11330     11333     11334
     11332     11330     11333     11335     11332     11330     11333     11336
     11333     11336     11339     11340     11333     11336     11339     11341
     11333     11336     11339     11342     11334     11333     11336     11337
     11334     11333     11336     11338     11334     11333     11336     11339
     11335     11333     11336     11337     11335     11333     11336     11338
     11335     11333     11336     11339     11336     11339     11342     11343
     11336     11339     11342     11344     11336     11339     11342     11345
     11337     11336     11339     11340     11337     11336     11339     11341
     11337     11336     11339     11342     11338     11336     11339     11340
     11338     11336     11339     11341     11338     11336     11339     11342
     11339     11342     11345     11346     11339     11342     11345     11347
     11339     11342     11345     11348     11340     11339     11342     11343
     11340     11339     11342     11344     11340     11339     11342     11345
     11341     11339     11342     11343     11341     11339     11342     11344
     11341     11339     11342     11345     11342     11345     11348     11349
     11342     11345     11348     11350     11342     11345     11348     11351
     11343     11342     11345     11346     11343     11342     11345     11347
     11343     11342     11345     11348     11344     11342     11345     11346
     11344     11342     11345     11347     11344     11342     11345     11348
     11345     11348     11351     11352     11345     11348     11351     11353
     11345     11348     11351     11354     11346     11345     11348     11349
     11346     11345     11348     11350     11346     11345     11348     11351
     11347     11345     11348     11349     11347     11345     11348     11350
     11347     11345     11348     11351     11349     11348     11351     11352
     11349     11348     11351     11353     11349     11348     11351     11354
     11350     11348     11351     11352     11350     11348     11351     11353
     11350     11348     11351     11354     11355     11359     11362     11363
     11355     11359     11362     11364     11355     11359     11362     11369
     11356     11355     11359     11360     11356     11355     11359     11361
     11356     11355     11359     11362     11357     11355     11359     11360
     11357     11355     11359     11361     11357     11355     11359     11362
     11358     11355     11359     11360     11358     11355     11359     11361
     11358     11355     11359     11362     11359     11362     11369     11365
     11360     11359     11362     11363     11360     11359     11362     11364
     11360     11359     11362     11369     11361     11359     11362     11363
     11361     11359     11362     11364     11361     11359     11362     11369
     11362     11369     11365     11366     11362     11369     11365     11367
     11362     11369     11365     11368     11363     11362     11369     11365
     11364     11362     11369     11365     11365     11368     11370     11371
     11365     11368     11370     11372     11365     11368     11370     11373
     11366     11365     11368     11370     11367     11365     11368     11370
     11368     11370     11373     11374     11368     11370     11373     11375
     11368     11370     11373     11381     11369     11365     11368     11370
     11370     11373     11375     11376     11370     11373     11381     11382
     11370     11373     11381     11383     11370     11373     11381     11384
     11371     11370     11373     11374     11371     11370     11373     11375
     11371     11370     11373     11381     11372     11370     11373     11374
     11372     11370     11373     11375     11372     11370     11373     11381
     11373     11375     11376     11377     11373     11375     11376     11378
     11373     11381     11384     11385     11374     11373     11375     11376
     11374     11373     11381     11382     11374     11373     11381     11383
     11374     11373     11381     11384     11375     11373     11381     11382
     11375     11373     11381     11383     11375     11373     11381     11384
     11375     11376     11378     11379     11375     11376     11378     11380
     11375     11376     11378     11390     11376     11375     11373     11381
     11376     11378     11390     11391     11376     11378     11390     11392
     11376     11378     11390     11393     11377     11376     11378     11379
     11377     11376     11378     11380     11377     11376     11378     11390
     11378     11390     11393     11394     11378     11390     11393     11395
     11378     11390     11393     11396     11379     11378     11390     11391
     11379     11378     11390     11392     11379     11378     11390     11393
     11380     11378     11390     11391     11380     11378     11390     11392
     11380     11378     11390     11393     11381     11384     11385     11386
     11381     11384     11385     11387     11382     11381     11384     11385
     11383     11381     11384     11385     11384     11385     11387     11388
     11384     11385     11387     11389     11384     11385     11387     11434
     11385     11387     11434     11435     11385     11387     11434     11436
     11385     11387     11434     11437     11386     11385     11387     11388
     11386     11385     11387     11389     11386     11385     11387     11434
     11387     11434     11437     11438     11387     11434     11437     11439
     11387     11434     11437     11440     11388     11387     11434     11435
     11388     11387     11434     11436     11388     11387     11434     11437
     11389     11387     11434     11435     11389     11387     11434     11436
     11389     11387     11434     11437     11390     11393     11396     11397
     11390     11393     11396     11398     11390     11393     11396     11399
     11391     11390     11393     11394     11391     11390     11393     11395
     11391     11390     11393     11396     11392     11390     11393     11394
     11392     11390     11393     11395     11392     11390     11393     11396
     11393     11396     11399     11400     11393     11396     11399     11401
     11393     11396     11399     11402     11394     11393     11396     11397
     11394     11393     11396     11398     11394     11393     11396     11399
     11395     11393     11396     11397     11395     11393     11396     11398
     11395     11393     11396     11399     11396     11399     11402     11403
     11396     11399     11402     11404     11396     11399     11402     11405
     11397     11396     11399     11400     11397     11396     11399     11401
     11397     11396     11399     11402     11398     11396     11399     11400
     11398     11396     11399     11401     11398     11396     11399     11402
     11399     11402     11405     11406     11399     11402     11405     11407
     11399     11402     11405     11408     11400     11399     11402     11403
     11400     11399     11402     11404     11400     11399     11402     11405
     11401     11399     11402     11403     11401     11399     11402     11404
     11401     11399     11402     11405     11402     11405     11408     11409
     11402     11405     11408     11410     11402     11405     11408     11413
     11403     11402     11405     11406     11403     11402     11405     11407
     11403     11402     11405     11408     11404     11402     11405     11406
     11404     11402     11405     11407     11404     11402     11405     11408
     11405     11408     11410     11411     11405     11408     11410     11412
     11405     11408     11410     11413     11405     11408     11413     11410
     11405     11408     11413     11414     11405     11408     11413     11415
     11406     11405     11408     11409     11406     11405     11408     11410
     11406     11405     11408     11413     11407     11405     11408     11409
     11407     11405     11408     11410     11407     11405     11408     11413
     11408     11410     11413     11414     11408     11410     11413     11415
     11408     11413     11410     11411     11408     11413     11410     11412
     11408     11413     11415     11416     11408     11413     11415     11417
     11408     11413     11415     11418     11409     11408     11410     11411
     11409     11408     11410     11412     11409     11408     11410     11413
     11409     11408     11413     11410     11409     11408     11413     11414
     11409     11408     11413     11415     11410     11408     11413     11414
     11410     11408     11413     11415     11410     11413     11415     11416
     11410     11413     11415     11417     11410     11413     11415     11418
     11411     11410     11408     11413     11411     11410     11413     11414
     11411     11410     11413     11415     11412     11410     11408     11413
     11412     11410     11413     11414     11412     11410     11413     11415
     11413     11415     11418     11419     11413     11415     11418     11420
     11413     11415     11418     11421     11414     11413     11415     11416
     11414     11413     11415     11417     11414     11413     11415     11418
     11415     11418     11421     11422     11415     11418     11421     11423
     11415     11418     11421     11424     11416     11415     11418     11419
     11416     11415     11418     11420     11416     11415     11418     11421
     11417     11415     11418     11419     11417     11415     11418     11420
     11417     11415     11418     11421     11418     11421     11424     11425
     11418     11421     11424     11426     11418     11421     11424     11427
     11419     11418     11421     11422     11419     11418     11421     11423
     11419     11418     11421     11424     11420     11418     11421     11422
     11420     11418     11421     11423     11420     11418     11421     11424
     11421     11424     11427     11428     11421     11424     11427     11429
     11421     11424     11427     11430     11422     11421     11424     11425
     11422     11421     11424     11426     11422     11421     11424     11427
     11423     11421     11424     11425     11423     11421     11424     11426
     11423     11421     11424     11427     11424     11427     11430     11431
     11424     11427     11430     11432     11424     11427     11430     11433
     11425     11424     11427     11428     11425     11424     11427     11429
     11425     11424     11427     11430     11426     11424     11427     11428
     11426     11424     11427     11429     11426     11424     11427     11430
     11428     11427     11430     11431     11428     11427     11430     11432
     11428     11427     11430     11433     11429     11427     11430     11431
     11429     11427     11430     11432     11429     11427     11430     11433
     11434     11437     11440     11441     11434     11437     11440     11442
     11434     11437     11440     11443     11435     11434     11437     11438
     11435     11434     11437     11439     11435     11434     11437     11440
     11436     11434     11437     11438     11436     11434     11437     11439
     11436     11434     11437     11440     11437     11440     11443     11444
     11437     11440     11443     11445     11437     11440     11443     11446
     11438     11437     11440     11441     11438     11437     11440     11442
     11438     11437     11440     11443     11439     11437     11440     11441
     11439     11437     11440     11442     11439     11437     11440     11443
     11440     11443     11446     11447     11440     11443     11446     11448
     11440     11443     11446     11449     11441     11440     11443     11444
     11441     11440     11443     11445     11441     11440     11443     11446
     11442     11440     11443     11444     11442     11440     11443     11445
     11442     11440     11443     11446     11443     11446     11449     11450
     11443     11446     11449     11451     11443     11446     11449     11452
     11444     11443     11446     11447     11444     11443     11446     11448
     11444     11443     11446     11449     11445     11443     11446     11447
     11445     11443     11446     11448     11445     11443     11446     11449
     11446     11449     11452     11453     11446     11449     11452     11454
     11446     11449     11452     11455     11447     11446     11449     11450
     11447     11446     11449     11451     11447     11446     11449     11452
     11448     11446     11449     11450     11448     11446     11449     11451
     11448     11446     11449     11452     11449     11452     11455     11456
     11449     11452     11455     11457     11449     11452     11455     11458
     11450     11449     11452     11453     11450     11449     11452     11454
     11450     11449     11452     11455     11451     11449     11452     11453
     11451     11449     11452     11454     11451     11449     11452     11455
     11452     11455     11458     11459     11452     11455     11458     11460
     11452     11455     11458     11461     11453     11452     11455     11456
     11453     11452     11455     11457     11453     11452     11455     11458
     11454     11452     11455     11456     11454     11452     11455     11457
     11454     11452     11455     11458     11455     11458     11461     11462
     11455     11458     11461     11463     11455     11458     11461     11464
     11456     11455     11458     11459     11456     11455     11458     11460
     11456     11455     11458     11461     11457     11455     11458     11459
     11457     11455     11458     11460     11457     11455     11458     11461
     11458     11461     11464     11465     11458     11461     11464     11466
     11458     11461     11464     11467     11459     11458     11461     11462
     11459     11458     11461     11463     11459     11458     11461     11464
     11460     11458     11461     11462     11460     11458     11461     11463
     11460     11458     11461     11464     11461     11464     11467     11468
     11461     11464     11467     11469     11461     11464     11467     11470
     11462     11461     11464     11465     11462     11461     11464     11466
     11462     11461     11464     11467     11463     11461     11464     11465
     11463     11461     11464     11466     11463     11461     11464     11467
     11464     11467     11470     11471     11464     11467     11470     11472
     11464     11467     11470     11473     11465     11464     11467     11468
     11465     11464     11467     11469     11465     11464     11467     11470
     11466     11464     11467     11468     11466     11464     11467     11469
     11466     11464     11467     11470     11467     11470     11473     11474
     11467     11470     11473     11475     11467     11470     11473     11476
     11468     11467     11470     11471     11468     11467     11470     11472
     11468     11467     11470     11473     11469     11467     11470     11471
     11469     11467     11470     11472     11469     11467     11470     11473
     11471     11470     11473     11474     11471     11470     11473     11475
     11471     11470     11473     11476     11472     11470     11473     11474
     11472     11470     11473     11475     11472     11470     11473     11476
     11477     11481     11484     11485     11477     11481     11484     11486
     11477     11481     11484     11491     11478     11477     11481     11482
     11478     11477     11481     11483     11478     11477     11481     11484
     11479     11477     11481     11482     11479     11477     11481     11483
     11479     11477     11481     11484     11480     11477     11481     11482
     11480     11477     11481     11483     11480     11477     11481     11484
     11481     11484     11491     11487     11482     11481     11484     11485
     11482     11481     11484     11486     11482     11481     11484     11491
     11483     11481     11484     11485     11483     11481     11484     11486
     11483     11481     11484     11491     11484     11491     11487     11488
     11484     11491     11487     11489     11484     11491     11487     11490
     11485     11484     11491     11487     11486     11484     11491     11487
     11487     11490     11492     11493     11487     11490     11492     11494
     11487     11490     11492     11495     11488     11487     11490     11492
     11489     11487     11490     11492     11490     11492     11495     11496
     11490     11492     11495     11497     11490     11492     11495     11503
     11491     11487     11490     11492     11492     11495     11497     11498
     11492     11495     11503     11504     11492     11495     11503     11505
     11492     11495     11503     11506     11493     11492     11495     11496
     11493     11492     11495     11497     11493     11492     11495     11503
     11494     11492     11495     11496     11494     11492     11495     11497
     11494     11492     11495     11503     11495     11497     11498     11499
     11495     11497     11498     11500     11495     11503     11506     11507
     11496     11495     11497     11498     11496     11495     11503     11504
     11496     11495     11503     11505     11496     11495     11503     11506
     11497     11495     11503     11504     11497     11495     11503     11505
     11497     11495     11503     11506     11497     11498     11500     11501
     11497     11498     11500     11502     11497     11498     11500     11512
     11498     11497     11495     11503     11498     11500     11512     11513
     11498     11500     11512     11514     11498     11500     11512     11515
     11499     11498     11500     11501     11499     11498     11500     11502
     11499     11498     11500     11512     11500     11512     11515     11516
     11500     11512     11515     11517     11500     11512     11515     11518
     11501     11500     11512     11513     11501     11500     11512     11514
     11501     11500     11512     11515     11502     11500     11512     11513
     11502     11500     11512     11514     11502     11500     11512     11515
     11503     11506     11507     11508     11503     11506     11507     11509
     11504     11503     11506     11507     11505     11503     11506     11507
     11506     11507     11509     11510     11506     11507     11509     11511
     11506     11507     11509     11556     11507     11509     11556     11557
     11507     11509     11556     11558     11507     11509     11556     11559
     11508     11507     11509     11510     11508     11507     11509     11511
     11508     11507     11509     11556     11509     11556     11559     11560
     11509     11556     11559     11561     11509     11556     11559     11562
     11510     11509     11556     11557     11510     11509     11556     11558
     11510     11509     11556     11559     11511     11509     11556     11557
     11511     11509     11556     11558     11511     11509     11556     11559
     11512     11515     11518     11519     11512     11515     11518     11520
     11512     11515     11518     11521     11513     11512     11515     11516
     11513     11512     11515     11517     11513     11512     11515     11518
     11514     11512     11515     11516     11514     11512     11515     11517
     11514     11512     11515     11518     11515     11518     11521     11522
     11515     11518     11521     11523     11515     11518     11521     11524
     11516     11515     11518     11519     11516     11515     11518     11520
     11516     11515     11518     11521     11517     11515     11518     11519
     11517     11515     11518     11520     11517     11515     11518     11521
     11518     11521     11524     11525     11518     11521     11524     11526
     11518     11521     11524     11527     11519     11518     11521     11522
     11519     11518     11521     11523     11519     11518     11521     11524
     11520     11518     11521     11522     11520     11518     11521     11523
     11520     11518     11521     11524     11521     11524     11527     11528
     11521     11524     11527     11529     11521     11524     11527     11530
     11522     11521     11524     11525     11522     11521     11524     11526
     11522     11521     11524     11527     11523     11521     11524     11525
     11523     11521     11524     11526     11523     11521     11524     11527
     11524     11527     11530     11531     11524     11527     11530     11532
     11524     11527     11530     11535     11525     11524     11527     11528
     11525     11524     11527     11529     11525     11524     11527     11530
     11526     11524     11527     11528     11526     11524     11527     11529
     11526     11524     11527     11530     11527     11530     11532     11533
     11527     11530     11532     11534     11527     11530     11532     11535
     11527     11530     11535     11532     11527     11530     11535     11536
     11527     11530     11535     11537     11528     11527     11530     11531
     11528     11527     11530     11532     11528     11527     11530     11535
     11529     11527     11530     11531     11529     11527     11530     11532
     11529     11527     11530     11535     11530     11532     11535     11536
     11530     11532     11535     11537     11530     11535     11532     11533
     11530     11535     11532     11534     11530     11535     11537     11538
     11530     11535     11537     11539     11530     11535     11537     11540
     11531     11530     11532     11533     11531     11530     11532     11534
     11531     11530     11532     11535     11531     11530     11535     11532
     11531     11530     11535     11536     11531     11530     11535     11537
     11532     11530     11535     11536     11532     11530     11535     11537
     11532     11535     11537     11538     11532     11535     11537     11539
     11532     11535     11537     11540     11533     11532     11530     11535
     11533     11532     11535     11536     11533     11532     11535     11537
     11534     11532     11530     11535     11534     11532     11535     11536
     11534     11532     11535     11537     11535     11537     11540     11541
     11535     11537     11540     11542     11535     11537     11540     11543
     11536     11535     11537     11538     11536     11535     11537     11539
     11536     11535     11537     11540     11537     11540     11543     11544
     11537     11540     11543     11545     11537     11540     11543     11546
     11538     11537     11540     11541     11538     11537     11540     11542
     11538     11537     11540     11543     11539     11537     11540     11541
     11539     11537     11540     11542     11539     11537     11540     11543
     11540     11543     11546     11547     11540     11543     11546     11548
     11540     11543     11546     11549     11541     11540     11543     11544
     11541     11540     11543     11545     11541     11540     11543     11546
     11542     11540     11543     11544     11542     11540     11543     11545
     11542     11540     11543     11546     11543     11546     11549     11550
     11543     11546     11549     11551     11543     11546     11549     11552
     11544     11543     11546     11547     11544     11543     11546     11548
     11544     11543     11546     11549     11545     11543     11546     11547
     11545     11543     11546     11548     11545     11543     11546     11549
     11546     11549     11552     11553     11546     11549     11552     11554
     11546     11549     11552     11555     11547     11546     11549     11550
     11547     11546     11549     11551     11547     11546     11549     11552
     11548     11546     11549     11550     11548     11546     11549     11551
     11548     11546     11549     11552     11550     11549     11552     11553
     11550     11549     11552     11554     11550     11549     11552     11555
     11551     11549     11552     11553     11551     11549     11552     11554
     11551     11549     11552     11555     11556     11559     11562     11563
     11556     11559     11562     11564     11556     11559     11562     11565
     11557     11556     11559     11560     11557     11556     11559     11561
     11557     11556     11559     11562     11558     11556     11559     11560
     11558     11556     11559     11561     11558     11556     11559     11562
     11559     11562     11565     11566     11559     11562     11565     11567
     11559     11562     11565     11568     11560     11559     11562     11563
     11560     11559     11562     11564     11560     11559     11562     11565
     11561     11559     11562     11563     11561     11559     11562     11564
     11561     11559     11562     11565     11562     11565     11568     11569
     11562     11565     11568     11570     11562     11565     11568     11571
     11563     11562     11565     11566     11563     11562     11565     11567
     11563     11562     11565     11568     11564     11562     11565     11566
     11564     11562     11565     11567     11564     11562     11565     11568
     11565     11568     11571     11572     11565     11568     11571     11573
     11565     11568     11571     11574     11566     11565     11568     11569
     11566     11565     11568     11570     11566     11565     11568     11571
     11567     11565     11568     11569     11567     11565     11568     11570
     11567     11565     11568     11571     11568     11571     11574     11575
     11568     11571     11574     11576     11568     11571     11574     11577
     11569     11568     11571     11572     11569     11568     11571     11573
     11569     11568     11571     11574     11570     11568     11571     11572
     11570     11568     11571     11573     11570     11568     11571     11574
     11571     11574     11577     11578     11571     11574     11577     11579
     11571     11574     11577     11580     11572     11571     11574     11575
     11572     11571     11574     11576     11572     11571     11574     11577
     11573     11571     11574     11575     11573     11571     11574     11576
     11573     11571     11574     11577     11574     11577     11580     11581
     11574     11577     11580     11582     11574     11577     11580     11583
     11575     11574     11577     11578     11575     11574     11577     11579
     11575     11574     11577     11580     11576     11574     11577     11578
     11576     11574     11577     11579     11576     11574     11577     11580
     11577     11580     11583     11584     11577     11580     11583     11585
     11577     11580     11583     11586     11578     11577     11580     11581
     11578     11577     11580     11582     11578     11577     11580     11583
     11579     11577     11580     11581     11579     11577     11580     11582
     11579     11577     11580     11583     11580     11583     11586     11587
     11580     11583     11586     11588     11580     11583     11586     11589
     11581     11580     11583     11584     11581     11580     11583     11585
     11581     11580     11583     11586     11582     11580     11583     11584
     11582     11580     11583     11585     11582     11580     11583     11586
     11583     11586     11589     11590     11583     11586     11589     11591
     11583     11586     11589     11592     11584     11583     11586     11587
     11584     11583     11586     11588     11584     11583     11586     11589
     11585     11583     11586     11587     11585     11583     11586     11588
     11585     11583     11586     11589     11586     11589     11592     11593
     11586     11589     11592     11594     11586     11589     11592     11595
     11587     11586     11589     11590     11587     11586     11589     11591
     11587     11586     11589     11592     11588     11586     11589     11590
     11588     11586     11589     11591     11588     11586     11589     11592
     11589     11592     11595     11596     11589     11592     11595     11597
     11589     11592     11595     11598     11590     11589     11592     11593
     11590     11589     11592     11594     11590     11589     11592     11595
     11591     11589     11592     11593     11591     11589     11592     11594
     11591     11589     11592     11595     11593     11592     11595     11596
     11593     11592     11595     11597     11593     11592     11595     11598
     11594     11592     11595     11596     11594     11592     11595     11597
     11594     11592     11595     11598     11599     11603     11606     11607
     11599     11603     11606     11608     11599     11603     11606     11613
     11600     11599     11603     11604     11600     11599     11603     11605
     11600     11599     11603     11606     11601     11599     11603     11604
     11601     11599     11603     11605     11601     11599     11603     11606
     11602     11599     11603     11604     11602     11599     11603     11605
     11602     11599     11603     11606     11603     11606     11613     11609
     11604     11603     11606     11607     11604     11603     11606     11608
     11604     11603     11606     11613     11605     11603     11606     11607
     11605     11603     11606     11608     11605     11603     11606     11613
     11606     11613     11609     11610     11606     11613     11609     11611
     11606     11613     11609     11612     11607     11606     11613     11609
     11608     11606     11613     11609     11609     11612     11614     11615
     11609     11612     11614     11616     11609     11612     11614     11617
     11610     11609     11612     11614     11611     11609     11612     11614
     11612     11614     11617     11618     11612     11614     11617     11619
     11612     11614     11617     11625     11613     11609     11612     11614
     11614     11617     11619     11620     11614     11617     11625     11626
     11614     11617     11625     11627     11614     11617     11625     11628
     11615     11614     11617     11618     11615     11614     11617     11619
     11615     11614     11617     11625     11616     11614     11617     11618
     11616     11614     11617     11619     11616     11614     11617     11625
     11617     11619     11620     11621     11617     11619     11620     11622
     11617     11625     11628     11629     11618     11617     11619     11620
     11618     11617     11625     11626     11618     11617     11625     11627
     11618     11617     11625     11628     11619     11617     11625     11626
     11619     11617     11625     11627     11619     11617     11625     11628
     11619     11620     11622     11623     11619     11620     11622     11624
     11619     11620     11622     11634     11620     11619     11617     11625
     11620     11622     11634     11635     11620     11622     11634     11636
     11620     11622     11634     11637     11621     11620     11622     11623
     11621     11620     11622     11624     11621     11620     11622     11634
     11622     11634     11637     11638     11622     11634     11637     11639
     11622     11634     11637     11640     11623     11622     11634     11635
     11623     11622     11634     11636     11623     11622     11634     11637
     11624     11622     11634     11635     11624     11622     11634     11636
     11624     11622     11634     11637     11625     11628     11629     11630
     11625     11628     11629     11631     11626     11625     11628     11629
     11627     11625     11628     11629     11628     11629     11631     11632
     11628     11629     11631     11633     11628     11629     11631     11681
     11629     11631     11681     11682     11629     11631     11681     11683
     11629     11631     11681     11684     11630     11629     11631     11632
     11630     11629     11631     11633     11630     11629     11631     11681
     11631     11681     11684     11685     11631     11681     11684     11686
     11631     11681     11684     11687     11632     11631     11681     11682
     11632     11631     11681     11683     11632     11631     11681     11684
     11633     11631     11681     11682     11633     11631     11681     11683
     11633     11631     11681     11684     11634     11637     11640     11641
     11634     11637     11640     11642     11634     11637     11640     11643
     11635     11634     11637     11638     11635     11634     11637     11639
     11635     11634     11637     11640     11636     11634     11637     11638
     11636     11634     11637     11639     11636     11634     11637     11640
     11637     11640     11643     11644     11637     11640     11643     11645
     11637     11640     11643     11646     11638     11637     11640     11641
     11638     11637     11640     11642     11638     11637     11640     11643
     11639     11637     11640     11641     11639     11637     11640     11642
     11639     11637     11640     11643     11640     11643     11646     11647
     11640     11643     11646     11648     11640     11643     11646     11649
     11641     11640     11643     11644     11641     11640     11643     11645
     11641     11640     11643     11646     11642     11640     11643     11644
     11642     11640     11643     11645     11642     11640     11643     11646
     11643     11646     11649     11650     11643     11646     11649     11651
     11643     11646     11649     11652     11644     11643     11646     11647
     11644     11643     11646     11648     11644     11643     11646     11649
     11645     11643     11646     11647     11645     11643     11646     11648
     11645     11643     11646     11649     11646     11649     11652     11653
     11646     11649     11652     11654     11647     11646     11649     11650
     11647     11646     11649     11651     11647     11646     11649     11652
     11648     11646     11649     11650     11648     11646     11649     11651
     11648     11646     11649     11652     11649     11652     11654     11655
     11649     11652     11654     11656     11650     11649     11652     11653
     11650     11649     11652     11654     11651     11649     11652     11653
     11651     11649     11652     11654     11652     11654     11656     11657
     11652     11654     11656     11658     11652     11654     11656     11659
     11653     11652     11654     11655     11653     11652     11654     11656
     11654     11656     11659     11660     11654     11656     11659     11661
     11654     11656     11659     11662     11655     11654     11656     11657
     11655     11654     11656     11658     11655     11654     11656     11659
     11656     11659     11662     11663     11656     11659     11662     11664
     11656     11659     11662     11665     11657     11656     11659     11660
     11657     11656     11659     11661     11657     11656     11659     11662
     11658     11656     11659     11660     11658     11656     11659     11661
     11658     11656     11659     11662     11659     11662     11665     11666
     11659     11662     11665     11667     11659     11662     11665     11668
     11660     11659     11662     11663     11660     11659     11662     11664
     11660     11659     11662     11665     11661     11659     11662     11663
     11661     11659     11662     11664     11661     11659     11662     11665
     11662     11665     11668     11669     11662     11665     11668     11670
     11662     11665     11668     11671     11663     11662     11665     11666
     11663     11662     11665     11667     11663     11662     11665     11668
     11664     11662     11665     11666     11664     11662     11665     11667
     11664     11662     11665     11668     11665     11668     11671     11672
     11665     11668     11671     11673     11665     11668     11671     11674
     11666     11665     11668     11669     11666     11665     11668     11670
     11666     11665     11668     11671     11667     11665     11668     11669
     11667     11665     11668     11670     11667     11665     11668     11671
     11668     11671     11674     11675     11668     11671     11674     11676
     11668     11671     11674     11677     11669     11668     11671     11672
     11669     11668     11671     11673     11669     11668     11671     11674
     11670     11668     11671     11672     11670     11668     11671     11673
     11670     11668     11671     11674     11671     11674     11677     11678
     11671     11674     11677     11679     11671     11674     11677     11680
     11672     11671     11674     11675     11672     11671     11674     11676
     11672     11671     11674     11677     11673     11671     11674     11675
     11673     11671     11674     11676     11673     11671     11674     11677
     11675     11674     11677     11678     11675     11674     11677     11679
     11675     11674     11677     11680     11676     11674     11677     11678
     11676     11674     11677     11679     11676     11674     11677     11680
     11681     11684     11687     11688     11681     11684     11687     11689
     11681     11684     11687     11690     11682     11681     11684     11685
     11682     11681     11684     11686     11682     11681     11684     11687
     11683     11681     11684     11685     11683     11681     11684     11686
     11683     11681     11684     11687     11684     11687     11690     11691
     11684     11687     11690     11692     11684     11687     11690     11693
     11685     11684     11687     11688     11685     11684     11687     11689
     11685     11684     11687     11690     11686     11684     11687     11688
     11686     11684     11687     11689     11686     11684     11687     11690
     11687     11690     11693     11694     11687     11690     11693     11695
     11687     11690     11693     11696     11688     11687     11690     11691
     11688     11687     11690     11692     11688     11687     11690     11693
     11689     11687     11690     11691     11689     11687     11690     11692
     11689     11687     11690     11693     11690     11693     11696     11697
     11690     11693     11696     11698     11690     11693     11696     11699
     11691     11690     11693     11694     11691     11690     11693     11695
     11691     11690     11693     11696     11692     11690     11693     11694
     11692     11690     11693     11695     11692     11690     11693     11696
     11693     11696     11699     11700     11693     11696     11699     11701
     11693     11696     11699     11702     11694     11693     11696     11697
     11694     11693     11696     11698     11694     11693     11696     11699
     11695     11693     11696     11697     11695     11693     11696     11698
     11695     11693     11696     11699     11696     11699     11702     11703
     11696     11699     11702     11704     11696     11699     11702     11705
     11697     11696     11699     11700     11697     11696     11699     11701
     11697     11696     11699     11702     11698     11696     11699     11700
     11698     11696     11699     11701     11698     11696     11699     11702
     11699     11702     11705     11706     11699     11702     11705     11707
     11699     11702     11705     11708     11700     11699     11702     11703
     11700     11699     11702     11704     11700     11699     11702     11705
     11701     11699     11702     11703     11701     11699     11702     11704
     11701     11699     11702     11705     11702     11705     11708     11709
     11702     11705     11708     11710     11702     11705     11708     11711
     11703     11702     11705     11706     11703     11702     11705     11707
     11703     11702     11705     11708     11704     11702     11705     11706
     11704     11702     11705     11707     11704     11702     11705     11708
     11705     11708     11711     11712     11705     11708     11711     11713
     11705     11708     11711     11714     11706     11705     11708     11709
     11706     11705     11708     11710     11706     11705     11708     11711
     11707     11705     11708     11709     11707     11705     11708     11710
     11707     11705     11708     11711     11708     11711     11714     11715
     11708     11711     11714     11716     11708     11711     11714     11717
     11709     11708     11711     11712     11709     11708     11711     11713
     11709     11708     11711     11714     11710     11708     11711     11712
     11710     11708     11711     11713     11710     11708     11711     11714
     11711     11714     11717     11718     11711     11714     11717     11719
     11711     11714     11717     11720     11712     11711     11714     11715
     11712     11711     11714     11716     11712     11711     11714     11717
     11713     11711     11714     11715     11713     11711     11714     11716
     11713     11711     11714     11717     11714     11717     11720     11721
     11714     11717     11720     11722     11714     11717     11720     11723
     11715     11714     11717     11718     11715     11714     11717     11719
     11715     11714     11717     11720     11716     11714     11717     11718
     11716     11714     11717     11719     11716     11714     11717     11720
     11718     11717     11720     11721     11718     11717     11720     11722
     11718     11717     11720     11723     11719     11717     11720     11721
     11719     11717     11720     11722     11719     11717     11720     11723
     11724     11728     11731     11732     11724     11728     11731     11733
     11724     11728     11731     11738     11725     11724     11728     11729
     11725     11724     11728     11730     11725     11724     11728     11731
     11726     11724     11728     11729     11726     11724     11728     11730
     11726     11724     11728     11731     11727     11724     11728     11729
     11727     11724     11728     11730     11727     11724     11728     11731
     11728     11731     11738     11734     11729     11728     11731     11732
     11729     11728     11731     11733     11729     11728     11731     11738
     11730     11728     11731     11732     11730     11728     11731     11733
     11730     11728     11731     11738     11731     11738     11734     11735
     11731     11738     11734     11736     11731     11738     11734     11737
     11732     11731     11738     11734     11733     11731     11738     11734
     11734     11737     11739     11740     11734     11737     11739     11741
     11734     11737     11739     11742     11735     11734     11737     11739
     11736     11734     11737     11739     11737     11739     11742     11743
     11737     11739     11742     11744     11737     11739     11742     11750
     11738     11734     11737     11739     11739     11742     11744     11745
     11739     11742     11750     11751     11739     11742     11750     11752
     11739     11742     11750     11753     11740     11739     11742     11743
     11740     11739     11742     11744     11740     11739     11742     11750
     11741     11739     11742     11743     11741     11739     11742     11744
     11741     11739     11742     11750     11742     11744     11745     11746
     11742     11744     11745     11747     11742     11750     11753     11754
     11743     11742     11744     11745     11743     11742     11750     11751
     11743     11742     11750     11752     11743     11742     11750     11753
     11744     11742     11750     11751     11744     11742     11750     11752
     11744     11742     11750     11753     11744     11745     11747     11748
     11744     11745     11747     11749     11744     11745     11747     11759
     11745     11744     11742     11750     11745     11747     11759     11760
     11745     11747     11759     11761     11745     11747     11759     11762
     11746     11745     11747     11748     11746     11745     11747     11749
     11746     11745     11747     11759     11747     11759     11762     11763
     11747     11759     11762     11764     11747     11759     11762     11765
     11748     11747     11759     11760     11748     11747     11759     11761
     11748     11747     11759     11762     11749     11747     11759     11760
     11749     11747     11759     11761     11749     11747     11759     11762
     11750     11753     11754     11755     11750     11753     11754     11756
     11751     11750     11753     11754     11752     11750     11753     11754
     11753     11754     11756     11757     11753     11754     11756     11758
     11753     11754     11756     11803     11754     11756     11803     11804
     11754     11756     11803     11805     11754     11756     11803     11806
     11755     11754     11756     11757     11755     11754     11756     11758
     11755     11754     11756     11803     11756     11803     11806     11807
     11756     11803     11806     11808     11756     11803     11806     11809
     11757     11756     11803     11804     11757     11756     11803     11805
     11757     11756     11803     11806     11758     11756     11803     11804
     11758     11756     11803     11805     11758     11756     11803     11806
     11759     11762     11765     11766     11759     11762     11765     11767
     11759     11762     11765     11768     11760     11759     11762     11763
     11760     11759     11762     11764     11760     11759     11762     11765
     11761     11759     11762     11763     11761     11759     11762     11764
     11761     11759     11762     11765     11762     11765     11768     11769
     11762     11765     11768     11770     11762     11765     11768     11771
     11763     11762     11765     11766     11763     11762     11765     11767
     11763     11762     11765     11768     11764     11762     11765     11766
     11764     11762     11765     11767     11764     11762     11765     11768
     11765     11768     11771     11772     11765     11768     11771     11773
     11765     11768     11771     11774     11766     11765     11768     11769
     11766     11765     11768     11770     11766     11765     11768     11771
     11767     11765     11768     11769     11767     11765     11768     11770
     11767     11765     11768     11771     11768     11771     11774     11775
     11768     11771     11774     11776     11768     11771     11774     11777
     11769     11768     11771     11772     11769     11768     11771     11773
     11769     11768     11771     11774     11770     11768     11771     11772
     11770     11768     11771     11773     11770     11768     11771     11774
     11771     11774     11777     11778     11771     11774     11777     11779
     11771     11774     11777     11782     11772     11771     11774     11775
     11772     11771     11774     11776     11772     11771     11774     11777
     11773     11771     11774     11775     11773     11771     11774     11776
     11773     11771     11774     11777     11774     11777     11779     11780
     11774     11777     11779     11781     11774     11777     11779     11782
     11774     11777     11782     11779     11774     11777     11782     11783
     11774     11777     11782     11784     11775     11774     11777     11778
     11775     11774     11777     11779     11775     11774     11777     11782
     11776     11774     11777     11778     11776     11774     11777     11779
     11776     11774     11777     11782     11777     11779     11782     11783
     11777     11779     11782     11784     11777     11782     11779     11780
     11777     11782     11779     11781     11777     11782     11784     11785
     11777     11782     11784     11786     11777     11782     11784     11787
     11778     11777     11779     11780     11778     11777     11779     11781
     11778     11777     11779     11782     11778     11777     11782     11779
     11778     11777     11782     11783     11778     11777     11782     11784
     11779     11777     11782     11783     11779     11777     11782     11784
     11779     11782     11784     11785     11779     11782     11784     11786
     11779     11782     11784     11787     11780     11779     11777     11782
     11780     11779     11782     11783     11780     11779     11782     11784
     11781     11779     11777     11782     11781     11779     11782     11783
     11781     11779     11782     11784     11782     11784     11787     11788
     11782     11784     11787     11789     11782     11784     11787     11790
     11783     11782     11784     11785     11783     11782     11784     11786
     11783     11782     11784     11787     11784     11787     11790     11791
     11784     11787     11790     11792     11784     11787     11790     11793
     11785     11784     11787     11788     11785     11784     11787     11789
     11785     11784     11787     11790     11786     11784     11787     11788
     11786     11784     11787     11789     11786     11784     11787     11790
     11787     11790     11793     11794     11787     11790     11793     11795
     11787     11790     11793     11796     11788     11787     11790     11791
     11788     11787     11790     11792     11788     11787     11790     11793
     11789     11787     11790     11791     11789     11787     11790     11792
     11789     11787     11790     11793     11790     11793     11796     11797
     11790     11793     11796     11798     11790     11793     11796     11799
     11791     11790     11793     11794     11791     11790     11793     11795
     11791     11790     11793     11796     11792     11790     11793     11794
     11792     11790     11793     11795     11792     11790     11793     11796
     11793     11796     11799     11800     11793     11796     11799     11801
     11793     11796     11799     11802     11794     11793     11796     11797
     11794     11793     11796     11798     11794     11793     11796     11799
     11795     11793     11796     11797     11795     11793     11796     11798
     11795     11793     11796     11799     11797     11796     11799     11800
     11797     11796     11799     11801     11797     11796     11799     11802
     11798     11796     11799     11800     11798     11796     11799     11801
     11798     11796     11799     11802     11803     11806     11809     11810
     11803     11806     11809     11811     11803     11806     11809     11812
     11804     11803     11806     11807     11804     11803     11806     11808
     11804     11803     11806     11809     11805     11803     11806     11807
     11805     11803     11806     11808     11805     11803     11806     11809
     11806     11809     11812     11813     11806     11809     11812     11814
     11806     11809     11812     11815     11807     11806     11809     11810
     11807     11806     11809     11811     11807     11806     11809     11812
     11808     11806     11809     11810     11808     11806     11809     11811
     11808     11806     11809     11812     11809     11812     11815     11816
     11809     11812     11815     11817     11809     11812     11815     11818
     11810     11809     11812     11813     11810     11809     11812     11814
     11810     11809     11812     11815     11811     11809     11812     11813
     11811     11809     11812     11814     11811     11809     11812     11815
     11812     11815     11818     11819     11812     11815     11818     11820
     11812     11815     11818     11821     11813     11812     11815     11816
     11813     11812     11815     11817     11813     11812     11815     11818
     11814     11812     11815     11816     11814     11812     11815     11817
     11814     11812     11815     11818     11815     11818     11821     11822
     11815     11818     11821     11823     11815     11818     11821     11824
     11816     11815     11818     11819     11816     11815     11818     11820
     11816     11815     11818     11821     11817     11815     11818     11819
     11817     11815     11818     11820     11817     11815     11818     11821
     11818     11821     11824     11825     11818     11821     11824     11826
     11818     11821     11824     11827     11819     11818     11821     11822
     11819     11818     11821     11823     11819     11818     11821     11824
     11820     11818     11821     11822     11820     11818     11821     11823
     11820     11818     11821     11824     11821     11824     11827     11828
     11821     11824     11827     11829     11821     11824     11827     11830
     11822     11821     11824     11825     11822     11821     11824     11826
     11822     11821     11824     11827     11823     11821     11824     11825
     11823     11821     11824     11826     11823     11821     11824     11827
     11824     11827     11830     11831     11824     11827     11830     11832
     11824     11827     11830     11833     11825     11824     11827     11828
     11825     11824     11827     11829     11825     11824     11827     11830
     11826     11824     11827     11828     11826     11824     11827     11829
     11826     11824     11827     11830     11827     11830     11833     11834
     11827     11830     11833     11835     11827     11830     11833     11836
     11828     11827     11830     11831     11828     11827     11830     11832
     11828     11827     11830     11833     11829     11827     11830     11831
     11829     11827     11830     11832     11829     11827     11830     11833
     11830     11833     11836     11837     11830     11833     11836     11838
     11830     11833     11836     11839     11831     11830     11833     11834
     11831     11830     11833     11835     11831     11830     11833     11836
     11832     11830     11833     11834     11832     11830     11833     11835
     11832     11830     11833     11836     11833     11836     11839     11840
     11833     11836     11839     11841     11833     11836     11839     11842
     11834     11833     11836     11837     11834     11833     11836     11838
     11834     11833     11836     11839     11835     11833     11836     11837
     11835     11833     11836     11838     11835     11833     11836     11839
     11836     11839     11842     11843     11836     11839     11842     11844
     11836     11839     11842     11845     11837     11836     11839     11840
     11837     11836     11839     11841     11837     11836     11839     11842
     11838     11836     11839     11840     11838     11836     11839     11841
     11838     11836     11839     11842     11840     11839     11842     11843
     11840     11839     11842     11844     11840     11839     11842     11845
     11841     11839     11842     11843     11841     11839     11842     11844
     11841     11839     11842     11845     11846     11850     11853     11854
     11846     11850     11853     11855     11846     11850     11853     11860
     11847     11846     11850     11851     11847     11846     11850     11852
     11847     11846     11850     11853     11848     11846     11850     11851
     11848     11846     11850     11852     11848     11846     11850     11853
     11849     11846     11850     11851     11849     11846     11850     11852
     11849     11846     11850     11853     11850     11853     11860     11856
     11851     11850     11853     11854     11851     11850     11853     11855
     11851     11850     11853     11860     11852     11850     11853     11854
     11852     11850     11853     11855     11852     11850     11853     11860
     11853     11860     11856     11857     11853     11860     11856     11858
     11853     11860     11856     11859     11854     11853     11860     11856
     11855     11853     11860     11856     11856     11859     11861     11862
     11856     11859     11861     11863     11856     11859     11861     11864
     11857     11856     11859     11861     11858     11856     11859     11861
     11859     11861     11864     11865     11859     11861     11864     11866
     11859     11861     11864     11872     11860     11856     11859     11861
     11861     11864     11866     11867     11861     11864     11872     11873
     11861     11864     11872     11874     11861     11864     11872     11875
     11862     11861     11864     11865     11862     11861     11864     11866
     11862     11861     11864     11872     11863     11861     11864     11865
     11863     11861     11864     11866     11863     11861     11864     11872
     11864     11866     11867     11868     11864     11866     11867     11869
     11864     11872     11875     11876     11865     11864     11866     11867
     11865     11864     11872     11873     11865     11864     11872     11874
     11865     11864     11872     11875     11866     11864     11872     11873
     11866     11864     11872     11874     11866     11864     11872     11875
     11866     11867     11869     11870     11866     11867     11869     11871
     11866     11867     11869     11881     11867     11866     11864     11872
     11867     11869     11881     11882     11867     11869     11881     11883
     11867     11869     11881     11884     11868     11867     11869     11870
     11868     11867     11869     11871     11868     11867     11869     11881
     11869     11881     11884     11885     11869     11881     11884     11886
     11869     11881     11884     11887     11870     11869     11881     11882
     11870     11869     11881     11883     11870     11869     11881     11884
     11871     11869     11881     11882     11871     11869     11881     11883
     11871     11869     11881     11884     11872     11875     11876     11877
     11872     11875     11876     11878     11873     11872     11875     11876
     11874     11872     11875     11876     11875     11876     11878     11879
     11875     11876     11878     11880     11875     11876     11878     11922
     11876     11878     11922     11923     11876     11878     11922     11924
     11876     11878     11922     11925     11877     11876     11878     11879
     11877     11876     11878     11880     11877     11876     11878     11922
     11878     11922     11925     11926     11878     11922     11925     11927
     11878     11922     11925     11928     11879     11878     11922     11923
     11879     11878     11922     11924     11879     11878     11922     11925
     11880     11878     11922     11923     11880     11878     11922     11924
     11880     11878     11922     11925     11881     11884     11887     11888
     11881     11884     11887     11889     11881     11884     11887     11890
     11882     11881     11884     11885     11882     11881     11884     11886
     11882     11881     11884     11887     11883     11881     11884     11885
     11883     11881     11884     11886     11883     11881     11884     11887
     11884     11887     11890     11891     11884     11887     11890     11892
     11884     11887     11890     11893     11885     11884     11887     11888
     11885     11884     11887     11889     11885     11884     11887     11890
     11886     11884     11887     11888     11886     11884     11887     11889
     11886     11884     11887     11890     11887     11890     11893     11894
     11887     11890     11893     11895     11887     11890     11893     11896
     11888     11887     11890     11891     11888     11887     11890     11892
     11888     11887     11890     11893     11889     11887     11890     11891
     11889     11887     11890     11892     11889     11887     11890     11893
     11890     11893     11896     11897     11890     11893     11896     11898
     11890     11893     11896     11899     11891     11890     11893     11894
     11891     11890     11893     11895     11891     11890     11893     11896
     11892     11890     11893     11894     11892     11890     11893     11895
     11892     11890     11893     11896     11893     11896     11899     11900
     11893     11896     11899     11901     11894     11893     11896     11897
     11894     11893     11896     11898     11894     11893     11896     11899
     11895     11893     11896     11897     11895     11893     11896     11898
     11895     11893     11896     11899     11896     11899     11901     11902
     11896     11899     11901     11903     11897     11896     11899     11900
     11897     11896     11899     11901     11898     11896     11899     11900
     11898     11896     11899     11901     11899     11901     11903     11904
     11899     11901     11903     11905     11899     11901     11903     11906
     11900     11899     11901     11902     11900     11899     11901     11903
     11901     11903     11906     11907     11901     11903     11906     11908
     11901     11903     11906     11909     11902     11901     11903     11904
     11902     11901     11903     11905     11902     11901     11903     11906
     11903     11906     11909     11910     11903     11906     11909     11911
     11903     11906     11909     11912     11904     11903     11906     11907
     11904     11903     11906     11908     11904     11903     11906     11909
     11905     11903     11906     11907     11905     11903     11906     11908
     11905     11903     11906     11909     11906     11909     11912     11913
     11906     11909     11912     11914     11906     11909     11912     11915
     11907     11906     11909     11910     11907     11906     11909     11911
     11907     11906     11909     11912     11908     11906     11909     11910
     11908     11906     11909     11911     11908     11906     11909     11912
     11909     11912     11915     11916     11909     11912     11915     11917
     11909     11912     11915     11918     11910     11909     11912     11913
     11910     11909     11912     11914     11910     11909     11912     11915
     11911     11909     11912     11913     11911     11909     11912     11914
     11911     11909     11912     11915     11912     11915     11918     11919
     11912     11915     11918     11920     11912     11915     11918     11921
     11913     11912     11915     11916     11913     11912     11915     11917
     11913     11912     11915     11918     11914     11912     11915     11916
     11914     11912     11915     11917     11914     11912     11915     11918
     11916     11915     11918     11919     11916     11915     11918     11920
     11916     11915     11918     11921     11917     11915     11918     11919
     11917     11915     11918     11920     11917     11915     11918     11921
     11922     11925     11928     11929     11922     11925     11928     11930
     11922     11925     11928     11931     11923     11922     11925     11926
     11923     11922     11925     11927     11923     11922     11925     11928
     11924     11922     11925     11926     11924     11922     11925     11927
     11924     11922     11925     11928     11925     11928     11931     11932
     11925     11928     11931     11933     11925     11928     11931     11934
     11926     11925     11928     11929     11926     11925     11928     11930
     11926     11925     11928     11931     11927     11925     11928     11929
     11927     11925     11928     11930     11927     11925     11928     11931
     11928     11931     11934     11935     11928     11931     11934     11936
     11928     11931     11934     11937     11929     11928     11931     11932
     11929     11928     11931     11933     11929     11928     11931     11934
     11930     11928     11931     11932     11930     11928     11931     11933
     11930     11928     11931     11934     11931     11934     11937     11938
     11931     11934     11937     11939     11931     11934     11937     11940
     11932     11931     11934     11935     11932     11931     11934     11936
     11932     11931     11934     11937     11933     11931     11934     11935
     11933     11931     11934     11936     11933     11931     11934     11937
     11934     11937     11940     11941     11934     11937     11940     11942
     11935     11934     11937     11938     11935     11934     11937     11939
     11935     11934     11937     11940     11936     11934     11937     11938
     11936     11934     11937     11939     11936     11934     11937     11940
     11937     11940     11942     11943     11937     11940     11942     11944
     11938     11937     11940     11941     11938     11937     11940     11942
     11939     11937     11940     11941     11939     11937     11940     11942
     11940     11942     11944     11945     11940     11942     11944     11946
     11940     11942     11944     11947     11941     11940     11942     11943
     11941     11940     11942     11944     11942     11944     11947     11948
     11942     11944     11947     11949     11942     11944     11947     11950
     11943     11942     11944     11945     11943     11942     11944     11946
     11943     11942     11944     11947     11944     11947     11950     11951
     11944     11947     11950     11952     11944     11947     11950     11953
     11945     11944     11947     11948     11945     11944     11947     11949
     11945     11944     11947     11950     11946     11944     11947     11948
     11946     11944     11947     11949     11946     11944     11947     11950
     11947     11950     11953     11954     11947     11950     11953     11955
     11947     11950     11953     11956     11948     11947     11950     11951
     11948     11947     11950     11952     11948     11947     11950     11953
     11949     11947     11950     11951     11949     11947     11950     11952
     11949     11947     11950     11953     11950     11953     11956     11957
     11950     11953     11956     11958     11950     11953     11956     11959
     11951     11950     11953     11954     11951     11950     11953     11955
     11951     11950     11953     11956     11952     11950     11953     11954
     11952     11950     11953     11955     11952     11950     11953     11956
     11953     11956     11959     11960     11953     11956     11959     11961
     11953     11956     11959     11962     11954     11953     11956     11957
     11954     11953     11956     11958     11954     11953     11956     11959
     11955     11953     11956     11957     11955     11953     11956     11958
     11955     11953     11956     11959     11956     11959     11962     11963
     11956     11959     11962     11964     11956     11959     11962     11965
     11957     11956     11959     11960     11957     11956     11959     11961
     11957     11956     11959     11962     11958     11956     11959     11960
     11958     11956     11959     11961     11958     11956     11959     11962
     11959     11962     11965     11966     11959     11962     11965     11967
     11959     11962     11965     11968     11960     11959     11962     11963
     11960     11959     11962     11964     11960     11959     11962     11965
     11961     11959     11962     11963     11961     11959     11962     11964
     11961     11959     11962     11965     11963     11962     11965     11966
     11963     11962     11965     11967     11963     11962     11965     11968
     11964     11962     11965     11966     11964     11962     11965     11967
     11964     11962     11965     11968     11969     11973     11976     11977
     11969     11973     11976     11978     11969     11973     11976     11983
     11970     11969     11973     11974     11970     11969     11973     11975
     11970     11969     11973     11976     11971     11969     11973     11974
     11971     11969     11973     11975     11971     11969     11973     11976
     11972     11969     11973     11974     11972     11969     11973     11975
     11972     11969     11973     11976     11973     11976     11983     11979
     11974     11973     11976     11977     11974     11973     11976     11978
     11974     11973     11976     11983     11975     11973     11976     11977
     11975     11973     11976     11978     11975     11973     11976     11983
     11976     11983     11979     11980     11976     11983     11979     11981
     11976     11983     11979     11982     11977     11976     11983     11979
     11978     11976     11983     11979     11979     11982     11984     11985
     11979     11982     11984     11986     11979     11982     11984     11987
     11980     11979     11982     11984     11981     11979     11982     11984
     11982     11984     11987     11988     11982     11984     11987     11989
     11982     11984     11987     11995     11983     11979     11982     11984
     11984     11987     11989     11990     11984     11987     11995     11996
     11984     11987     11995     11997     11984     11987     11995     11998
     11985     11984     11987     11988     11985     11984     11987     11989
     11985     11984     11987     11995     11986     11984     11987     11988
     11986     11984     11987     11989     11986     11984     11987     11995
     11987     11989     11990     11991     11987     11989     11990     11992
     11987     11995     11998     11999     11988     11987     11989     11990
     11988     11987     11995     11996     11988     11987     11995     11997
     11988     11987     11995     11998     11989     11987     11995     11996
     11989     11987     11995     11997     11989     11987     11995     11998
     11989     11990     11992     11993     11989     11990     11992     11994
     11989     11990     11992     12004     11990     11989     11987     11995
     11990     11992     12004     12005     11990     11992     12004     12006
     11990     11992     12004     12007     11991     11990     11992     11993
     11991     11990     11992     11994     11991     11990     11992     12004
     11992     12004     12007     12008     11992     12004     12007     12009
     11992     12004     12007     12010     11993     11992     12004     12005
     11993     11992     12004     12006     11993     11992     12004     12007
     11994     11992     12004     12005     11994     11992     12004     12006
     11994     11992     12004     12007     11995     11998     11999     12000
     11995     11998     11999     12001     11996     11995     11998     11999
     11997     11995     11998     11999     11998     11999     12001     12002
     11998     11999     12001     12003     11998     11999     12001     12048
     11999     12001     12048     12049     11999     12001     12048     12050
     11999     12001     12048     12051     12000     11999     12001     12002
     12000     11999     12001     12003     12000     11999     12001     12048
     12001     12048     12051     12052     12001     12048     12051     12053
     12001     12048     12051     12054     12002     12001     12048     12049
     12002     12001     12048     12050     12002     12001     12048     12051
     12003     12001     12048     12049     12003     12001     12048     12050
     12003     12001     12048     12051     12004     12007     12010     12011
     12004     12007     12010     12012     12004     12007     12010     12013
     12005     12004     12007     12008     12005     12004     12007     12009
     12005     12004     12007     12010     12006     12004     12007     12008
     12006     12004     12007     12009     12006     12004     12007     12010
     12007     12010     12013     12014     12007     12010     12013     12015
     12007     12010     12013     12016     12008     12007     12010     12011
     12008     12007     12010     12012     12008     12007     12010     12013
     12009     12007     12010     12011     12009     12007     12010     12012
     12009     12007     12010     12013     12010     12013     12016     12017
     12010     12013     12016     12018     12010     12013     12016     12019
     12011     12010     12013     12014     12011     12010     12013     12015
     12011     12010     12013     12016     12012     12010     12013     12014
     12012     12010     12013     12015     12012     12010     12013     12016
     12013     12016     12019     12020     12013     12016     12019     12021
     12013     12016     12019     12022     12014     12013     12016     12017
     12014     12013     12016     12018     12014     12013     12016     12019
     12015     12013     12016     12017     12015     12013     12016     12018
     12015     12013     12016     12019     12016     12019     12022     12023
     12016     12019     12022     12024     12016     12019     12022     12027
     12017     12016     12019     12020     12017     12016     12019     12021
     12017     12016     12019     12022     12018     12016     12019     12020
     12018     12016     12019     12021     12018     12016     12019     12022
     12019     12022     12024     12025     12019     12022     12024     12026
     12019     12022     12024     12027     12019     12022     12027     12024
     12019     12022     12027     12028     12019     12022     12027     12029
     12020     12019     12022     12023     12020     12019     12022     12024
     12020     12019     12022     12027     12021     12019     12022     12023
     12021     12019     12022     12024     12021     12019     12022     12027
     12022     12024     12027     12028     12022     12024     12027     12029
     12022     12027     12024     12025     12022     12027     12024     12026
     12022     12027     12029     12030     12022     12027     12029     12031
     12022     12027     12029     12032     12023     12022     12024     12025
     12023     12022     12024     12026     12023     12022     12024     12027
     12023     12022     12027     12024     12023     12022     12027     12028
     12023     12022     12027     12029     12024     12022     12027     12028
     12024     12022     12027     12029     12024     12027     12029     12030
     12024     12027     12029     12031     12024     12027     12029     12032
     12025     12024     12022     12027     12025     12024     12027     12028
     12025     12024     12027     12029     12026     12024     12022     12027
     12026     12024     12027     12028     12026     12024     12027     12029
     12027     12029     12032     12033     12027     12029     12032     12034
     12027     12029     12032     12035     12028     12027     12029     12030
     12028     12027     12029     12031     12028     12027     12029     12032
     12029     12032     12035     12036     12029     12032     12035     12037
     12029     12032     12035     12038     12030     12029     12032     12033
     12030     12029     12032     12034     12030     12029     12032     12035
     12031     12029     12032     12033     12031     12029     12032     12034
     12031     12029     12032     12035     12032     12035     12038     12039
     12032     12035     12038     12040     12032     12035     12038     12041
     12033     12032     12035     12036     12033     12032     12035     12037
     12033     12032     12035     12038     12034     12032     12035     12036
     12034     12032     12035     12037     12034     12032     12035     12038
     12035     12038     12041     12042     12035     12038     12041     12043
     12035     12038     12041     12044     12036     12035     12038     12039
     12036     12035     12038     12040     12036     12035     12038     12041
     12037     12035     12038     12039     12037     12035     12038     12040
     12037     12035     12038     12041     12038     12041     12044     12045
     12038     12041     12044     12046     12038     12041     12044     12047
     12039     12038     12041     12042     12039     12038     12041     12043
     12039     12038     12041     12044     12040     12038     12041     12042
     12040     12038     12041     12043     12040     12038     12041     12044
     12042     12041     12044     12045     12042     12041     12044     12046
     12042     12041     12044     12047     12043     12041     12044     12045
     12043     12041     12044     12046     12043     12041     12044     12047
     12048     12051     12054     12055     12048     12051     12054     12056
     12048     12051     12054     12057     12049     12048     12051     12052
     12049     12048     12051     12053     12049     12048     12051     12054
     12050     12048     12051     12052     12050     12048     12051     12053
     12050     12048     12051     12054     12051     12054     12057     12058
     12051     12054     12057     12059     12051     12054     12057     12060
     12052     12051     12054     12055     12052     12051     12054     12056
     12052     12051     12054     12057     12053     12051     12054     12055
     12053     12051     12054     12056     12053     12051     12054     12057
     12054     12057     12060     12061     12054     12057     12060     12062
     12054     12057     12060     12063     12055     12054     12057     12058
     12055     12054     12057     12059     12055     12054     12057     12060
     12056     12054     12057     12058     12056     12054     12057     12059
     12056     12054     12057     12060     12057     12060     12063     12064
     12057     12060     12063     12065     12057     12060     12063     12066
     12058     12057     12060     12061     12058     12057     12060     12062
     12058     12057     12060     12063     12059     12057     12060     12061
     12059     12057     12060     12062     12059     12057     12060     12063
     12060     12063     12066     12067     12060     12063     12066     12068
     12060     12063     12066     12069     12061     12060     12063     12064
     12061     12060     12063     12065     12061     12060     12063     12066
     12062     12060     12063     12064     12062     12060     12063     12065
     12062     12060     12063     12066     12063     12066     12069     12070
     12063     12066     12069     12071     12063     12066     12069     12072
     12064     12063     12066     12067     12064     12063     12066     12068
     12064     12063     12066     12069     12065     12063     12066     12067
     12065     12063     12066     12068     12065     12063     12066     12069
     12066     12069     12072     12073     12066     12069     12072     12074
     12066     12069     12072     12075     12067     12066     12069     12070
     12067     12066     12069     12071     12067     12066     12069     12072
     12068     12066     12069     12070     12068     12066     12069     12071
     12068     12066     12069     12072     12069     12072     12075     12076
     12069     12072     12075     12077     12069     12072     12075     12078
     12070     12069     12072     12073     12070     12069     12072     12074
     12070     12069     12072     12075     12071     12069     12072     12073
     12071     12069     12072     12074     12071     12069     12072     12075
     12072     12075     12078     12079     12072     12075     12078     12080
     12072     12075     12078     12081     12073     12072     12075     12076
     12073     12072     12075     12077     12073     12072     12075     12078
     12074     12072     12075     12076     12074     12072     12075     12077
     12074     12072     12075     12078     12075     12078     12081     12082
     12075     12078     12081     12083     12075     12078     12081     12084
     12076     12075     12078     12079     12076     12075     12078     12080
     12076     12075     12078     12081     12077     12075     12078     12079
     12077     12075     12078     12080     12077     12075     12078     12081
     12078     12081     12084     12085     12078     12081     12084     12086
     12078     12081     12084     12087     12079     12078     12081     12082
     12079     12078     12081     12083     12079     12078     12081     12084
     12080     12078     12081     12082     12080     12078     12081     12083
     12080     12078     12081     12084     12082     12081     12084     12085
     12082     12081     12084     12086     12082     12081     12084     12087
     12083     12081     12084     12085     12083     12081     12084     12086
     12083     12081     12084     12087     12088     12093     12095     12096
     12088     12093     12097     12098     12088     12093     12097     12099
     12088     12093     12097     12104     12089     12088     12091     12092
     12089     12088     12093     12094     12089     12088     12093     12095
     12089     12088     12093     12097     12090     12088     12091     12092
     12090     12088     12093     12094     12090     12088     12093     12095
     12090     12088     12093     12097     12091     12088     12093     12094
     12091     12088     12093     12095     12091     12088     12093     12097
     12092     12091     12088     12093     12093     12097     12104     12100
     12094     12093     12095     12096     12094     12093     12097     12098
     12094     12093     12097     12099     12094     12093     12097     12104
     12095     12093     12097     12098     12095     12093     12097     12099
     12095     12093     12097     12104     12096     12095     12093     12097
     12097     12104     12100     12101     12097     12104     12100     12102
     12097     12104     12100     12103     12098     12097     12104     12100
     12099     12097     12104     12100     12100     12103     12105     12106
     12100     12103     12105     12107     12100     12103     12105     12108
     12101     12100     12103     12105     12102     12100     12103     12105
     12103     12105     12108     12109     12103     12105     12108     12110
     12103     12105     12108     12116     12104     12100     12103     12105
     12105     12108     12110     12111     12105     12108     12116     12117
     12105     12108     12116     12118     12105     12108     12116     12119
     12106     12105     12108     12109     12106     12105     12108     12110
     12106     12105     12108     12116     12107     12105     12108     12109
     12107     12105     12108     12110     12107     12105     12108     12116
     12108     12110     12111     12112     12108     12110     12111     12113
     12108     12116     12119     12120     12109     12108     12110     12111
     12109     12108     12116     12117     12109     12108     12116     12118
     12109     12108     12116     12119     12110     12108     12116     12117
     12110     12108     12116     12118     12110     12108     12116     12119
     12110     12111     12113     12114     12110     12111     12113     12115
     12110     12111     12113     12125     12111     12110     12108     12116
     12111     12113     12125     12126     12111     12113     12125     12127
     12111     12113     12125     12128     12112     12111     12113     12114
     12112     12111     12113     12115     12112     12111     12113     12125
     12113     12125     12128     12129     12113     12125     12128     12130
     12113     12125     12128     12131     12114     12113     12125     12126
     12114     12113     12125     12127     12114     12113     12125     12128
     12115     12113     12125     12126     12115     12113     12125     12127
     12115     12113     12125     12128     12116     12119     12120     12121
     12116     12119     12120     12122     12117     12116     12119     12120
     12118     12116     12119     12120     12119     12120     12122     12123
     12119     12120     12122     12124     12119     12120     12122     12166
     12120     12122     12166     12167     12120     12122     12166     12168
     12120     12122     12166     12169     12121     12120     12122     12123
     12121     12120     12122     12124     12121     12120     12122     12166
     12122     12166     12169     12170     12122     12166     12169     12171
     12122     12166     12169     12172     12123     12122     12166     12167
     12123     12122     12166     12168     12123     12122     12166     12169
     12124     12122     12166     12167     12124     12122     12166     12168
     12124     12122     12166     12169     12125     12128     12131     12132
     12125     12128     12131     12133     12125     12128     12131     12134
     12126     12125     12128     12129     12126     12125     12128     12130
     12126     12125     12128     12131     12127     12125     12128     12129
     12127     12125     12128     12130     12127     12125     12128     12131
     12128     12131     12134     12135     12128     12131     12134     12136
     12128     12131     12134     12137     12129     12128     12131     12132
     12129     12128     12131     12133     12129     12128     12131     12134
     12130     12128     12131     12132     12130     12128     12131     12133
     12130     12128     12131     12134     12131     12134     12137     12138
     12131     12134     12137     12139     12131     12134     12137     12140
     12132     12131     12134     12135     12132     12131     12134     12136
     12132     12131     12134     12137     12133     12131     12134     12135
     12133     12131     12134     12136     12133     12131     12134     12137
     12134     12137     12140     12141     12134     12137     12140     12142
     12134     12137     12140     12143     12135     12134     12137     12138
     12135     12134     12137     12139     12135     12134     12137     12140
     12136     12134     12137     12138     12136     12134     12137     12139
     12136     12134     12137     12140     12137     12140     12143     12144
     12137     12140     12143     12145     12138     12137     12140     12141
     12138     12137     12140     12142     12138     12137     12140     12143
     12139     12137     12140     12141     12139     12137     12140     12142
     12139     12137     12140     12143     12140     12143     12145     12146
     12140     12143     12145     12147     12141     12140     12143     12144
     12141     12140     12143     12145     12142     12140     12143     12144
     12142     12140     12143     12145     12143     12145     12147     12148
     12143     12145     12147     12149     12143     12145     12147     12150
     12144     12143     12145     12146     12144     12143     12145     12147
     12145     12147     12150     12151     12145     12147     12150     12152
     12145     12147     12150     12153     12146     12145     12147     12148
     12146     12145     12147     12149     12146     12145     12147     12150
     12147     12150     12153     12154     12147     12150     12153     12155
     12147     12150     12153     12156     12148     12147     12150     12151
     12148     12147     12150     12152     12148     12147     12150     12153
     12149     12147     12150     12151     12149     12147     12150     12152
     12149     12147     12150     12153     12150     12153     12156     12157
     12150     12153     12156     12158     12150     12153     12156     12159
     12151     12150     12153     12154     12151     12150     12153     12155
     12151     12150     12153     12156     12152     12150     12153     12154
     12152     12150     12153     12155     12152     12150     12153     12156
     12153     12156     12159     12160     12153     12156     12159     12161
     12153     12156     12159     12162     12154     12153     12156     12157
     12154     12153     12156     12158     12154     12153     12156     12159
     12155     12153     12156     12157     12155     12153     12156     12158
     12155     12153     12156     12159     12156     12159     12162     12163
     12156     12159     12162     12164     12156     12159     12162     12165
     12157     12156     12159     12160     12157     12156     12159     12161
     12157     12156     12159     12162     12158     12156     12159     12160
     12158     12156     12159     12161     12158     12156     12159     12162
     12160     12159     12162     12163     12160     12159     12162     12164
     12160     12159     12162     12165     12161     12159     12162     12163
     12161     12159     12162     12164     12161     12159     12162     12165
     12166     12169     12172     12173     12166     12169     12172     12174
     12166     12169     12172     12175     12167     12166     12169     12170
     12167     12166     12169     12171     12167     12166     12169     12172
     12168     12166     12169     12170     12168     12166     12169     12171
     12168     12166     12169     12172     12169     12172     12175     12176
     12169     12172     12175     12177     12169     12172     12175     12178
     12170     12169     12172     12173     12170     12169     12172     12174
     12170     12169     12172     12175     12171     12169     12172     12173
     12171     12169     12172     12174     12171     12169     12172     12175
     12172     12175     12178     12179     12172     12175     12178     12180
     12172     12175     12178     12181     12173     12172     12175     12176
     12173     12172     12175     12177     12173     12172     12175     12178
     12174     12172     12175     12176     12174     12172     12175     12177
     12174     12172     12175     12178     12175     12178     12181     12182
     12175     12178     12181     12183     12175     12178     12181     12184
     12176     12175     12178     12179     12176     12175     12178     12180
     12176     12175     12178     12181     12177     12175     12178     12179
     12177     12175     12178     12180     12177     12175     12178     12181
     12178     12181     12184     12185     12178     12181     12184     12186
     12178     12181     12184     12187     12179     12178     12181     12182
     12179     12178     12181     12183     12179     12178     12181     12184
     12180     12178     12181     12182     12180     12178     12181     12183
     12180     12178     12181     12184     12181     12184     12187     12188
     12181     12184     12187     12189     12181     12184     12187     12190
     12182     12181     12184     12185     12182     12181     12184     12186
     12182     12181     12184     12187     12183     12181     12184     12185
     12183     12181     12184     12186     12183     12181     12184     12187
     12184     12187     12190     12191     12184     12187     12190     12192
     12184     12187     12190     12193     12185     12184     12187     12188
     12185     12184     12187     12189     12185     12184     12187     12190
     12186     12184     12187     12188     12186     12184     12187     12189
     12186     12184     12187     12190     12187     12190     12193     12194
     12187     12190     12193     12195     12187     12190     12193     12196
     12188     12187     12190     12191     12188     12187     12190     12192
     12188     12187     12190     12193     12189     12187     12190     12191
     12189     12187     12190     12192     12189     12187     12190     12193
     12190     12193     12196     12197     12190     12193     12196     12198
     12190     12193     12196     12199     12191     12190     12193     12194
     12191     12190     12193     12195     12191     12190     12193     12196
     12192     12190     12193     12194     12192     12190     12193     12195
     12192     12190     12193     12196     12193     12196     12199     12200
     12193     12196     12199     12201     12193     12196     12199     12202
     12194     12193     12196     12197     12194     12193     12196     12198
     12194     12193     12196     12199     12195     12193     12196     12197
     12195     12193     12196     12198     12195     12193     12196     12199
     12196     12199     12202     12203     12196     12199     12202     12204
     12196     12199     12202     12205     12197     12196     12199     12200
     12197     12196     12199     12201     12197     12196     12199     12202
     12198     12196     12199     12200     12198     12196     12199     12201
     12198     12196     12199     12202     12199     12202     12205     12206
     12199     12202     12205     12207     12199     12202     12205     12208
     12200     12199     12202     12203     12200     12199     12202     12204
     12200     12199     12202     12205     12201     12199     12202     12203
     12201     12199     12202     12204     12201     12199     12202     12205
     12203     12202     12205     12206     12203     12202     12205     12207
     12203     12202     12205     12208     12204     12202     12205     12206
     12204     12202     12205     12207     12204     12202     12205     12208
     12209     12213     12216     12217     12209     12213     12216     12218
     12209     12213     12216     12223     12210     12209     12213     12214
     12210     12209     12213     12215     12210     12209     12213     12216
     12211     12209     12213     12214     12211     12209     12213     12215
     12211     12209     12213     12216     12212     12209     12213     12214
     12212     12209     12213     12215     12212     12209     12213     12216
     12213     12216     12223     12219     12214     12213     12216     12217
     12214     12213     12216     12218     12214     12213     12216     12223
     12215     12213     12216     12217     12215     12213     12216     12218
     12215     12213     12216     12223     12216     12223     12219     12220
     12216     12223     12219     12221     12216     12223     12219     12222
     12217     12216     12223     12219     12218     12216     12223     12219
     12219     12222     12224     12225     12219     12222     12224     12226
     12219     12222     12224     12227     12220     12219     12222     12224
     12221     12219     12222     12224     12222     12224     12227     12228
     12222     12224     12227     12229     12222     12224     12227     12235
     12223     12219     12222     12224     12224     12227     12229     12230
     12224     12227     12235     12236     12224     12227     12235     12237
     12224     12227     12235     12238     12225     12224     12227     12228
     12225     12224     12227     12229     12225     12224     12227     12235
     12226     12224     12227     12228     12226     12224     12227     12229
     12226     12224     12227     12235     12227     12229     12230     12231
     12227     12229     12230     12232     12227     12235     12238     12239
     12228     12227     12229     12230     12228     12227     12235     12236
     12228     12227     12235     12237     12228     12227     12235     12238
     12229     12227     12235     12236     12229     12227     12235     12237
     12229     12227     12235     12238     12229     12230     12232     12233
     12229     12230     12232     12234     12229     12230     12232     12244
     12230     12229     12227     12235     12230     12232     12244     12245
     12230     12232     12244     12246     12230     12232     12244     12247
     12231     12230     12232     12233     12231     12230     12232     12234
     12231     12230     12232     12244     12232     12244     12247     12248
     12232     12244     12247     12249     12232     12244     12247     12250
     12233     12232     12244     12245     12233     12232     12244     12246
     12233     12232     12244     12247     12234     12232     12244     12245
     12234     12232     12244     12246     12234     12232     12244     12247
     12235     12238     12239     12240     12235     12238     12239     12241
     12236     12235     12238     12239     12237     12235     12238     12239
     12238     12239     12241     12242     12238     12239     12241     12243
     12238     12239     12241     12291     12239     12241     12291     12292
     12239     12241     12291     12293     12239     12241     12291     12294
     12240     12239     12241     12242     12240     12239     12241     12243
     12240     12239     12241     12291     12241     12291     12294     12295
     12241     12291     12294     12296     12241     12291     12294     12297
     12242     12241     12291     12292     12242     12241     12291     12293
     12242     12241     12291     12294     12243     12241     12291     12292
     12243     12241     12291     12293     12243     12241     12291     12294
     12244     12247     12250     12251     12244     12247     12250     12252
     12244     12247     12250     12253     12245     12244     12247     12248
     12245     12244     12247     12249     12245     12244     12247     12250
     12246     12244     12247     12248     12246     12244     12247     12249
     12246     12244     12247     12250     12247     12250     12253     12254
     12247     12250     12253     12255     12247     12250     12253     12256
     12248     12247     12250     12251     12248     12247     12250     12252
     12248     12247     12250     12253     12249     12247     12250     12251
     12249     12247     12250     12252     12249     12247     12250     12253
     12250     12253     12256     12257     12250     12253     12256     12258
     12250     12253     12256     12259     12251     12250     12253     12254
     12251     12250     12253     12255     12251     12250     12253     12256
     12252     12250     12253     12254     12252     12250     12253     12255
     12252     12250     12253     12256     12253     12256     12259     12260
     12253     12256     12259     12261     12253     12256     12259     12262
     12254     12253     12256     12257     12254     12253     12256     12258
     12254     12253     12256     12259     12255     12253     12256     12257
     12255     12253     12256     12258     12255     12253     12256     12259
     12256     12259     12262     12263     12256     12259     12262     12264
     12257     12256     12259     12260     12257     12256     12259     12261
     12257     12256     12259     12262     12258     12256     12259     12260
     12258     12256     12259     12261     12258     12256     12259     12262
     12259     12262     12264     12265     12259     12262     12264     12266
     12260     12259     12262     12263     12260     12259     12262     12264
     12261     12259     12262     12263     12261     12259     12262     12264
     12262     12264     12266     12267     12262     12264     12266     12268
     12262     12264     12266     12269     12263     12262     12264     12265
     12263     12262     12264     12266     12264     12266     12269     12270
     12264     12266     12269     12271     12264     12266     12269     12272
     12265     12264     12266     12267     12265     12264     12266     12268
     12265     12264     12266     12269     12266     12269     12272     12273
     12266     12269     12272     12274     12266     12269     12272     12275
     12267     12266     12269     12270     12267     12266     12269     12271
     12267     12266     12269     12272     12268     12266     12269     12270
     12268     12266     12269     12271     12268     12266     12269     12272
     12269     12272     12275     12276     12269     12272     12275     12277
     12269     12272     12275     12278     12270     12269     12272     12273
     12270     12269     12272     12274     12270     12269     12272     12275
     12271     12269     12272     12273     12271     12269     12272     12274
     12271     12269     12272     12275     12272     12275     12278     12279
     12272     12275     12278     12280     12272     12275     12278     12281
     12273     12272     12275     12276     12273     12272     12275     12277
     12273     12272     12275     12278     12274     12272     12275     12276
     12274     12272     12275     12277     12274     12272     12275     12278
     12275     12278     12281     12282     12275     12278     12281     12283
     12275     12278     12281     12284     12276     12275     12278     12279
     12276     12275     12278     12280     12276     12275     12278     12281
     12277     12275     12278     12279     12277     12275     12278     12280
     12277     12275     12278     12281     12278     12281     12284     12285
     12278     12281     12284     12286     12278     12281     12284     12287
     12279     12278     12281     12282     12279     12278     12281     12283
     12279     12278     12281     12284     12280     12278     12281     12282
     12280     12278     12281     12283     12280     12278     12281     12284
     12281     12284     12287     12288     12281     12284     12287     12289
     12281     12284     12287     12290     12282     12281     12284     12285
     12282     12281     12284     12286     12282     12281     12284     12287
     12283     12281     12284     12285     12283     12281     12284     12286
     12283     12281     12284     12287     12285     12284     12287     12288
     12285     12284     12287     12289     12285     12284     12287     12290
     12286     12284     12287     12288     12286     12284     12287     12289
     12286     12284     12287     12290     12291     12294     12297     12298
     12291     12294     12297     12299     12291     12294     12297     12300
     12292     12291     12294     12295     12292     12291     12294     12296
     12292     12291     12294     12297     12293     12291     12294     12295
     12293     12291     12294     12296     12293     12291     12294     12297
     12294     12297     12300     12301     12294     12297     12300     12302
     12294     12297     12300     12303     12295     12294     12297     12298
     12295     12294     12297     12299     12295     12294     12297     12300
     12296     12294     12297     12298     12296     12294     12297     12299
     12296     12294     12297     12300     12297     12300     12303     12304
     12297     12300     12303     12305     12297     12300     12303     12306
     12298     12297     12300     12301     12298     12297     12300     12302
     12298     12297     12300     12303     12299     12297     12300     12301
     12299     12297     12300     12302     12299     12297     12300     12303
     12300     12303     12306     12307     12300     12303     12306     12308
     12300     12303     12306     12309     12301     12300     12303     12304
     12301     12300     12303     12305     12301     12300     12303     12306
     12302     12300     12303     12304     12302     12300     12303     12305
     12302     12300     12303     12306     12303     12306     12309     12310
     12303     12306     12309     12311     12303     12306     12309     12312
     12304     12303     12306     12307     12304     12303     12306     12308
     12304     12303     12306     12309     12305     12303     12306     12307
     12305     12303     12306     12308     12305     12303     12306     12309
     12306     12309     12312     12313     12306     12309     12312     12314
     12306     12309     12312     12315     12307     12306     12309     12310
     12307     12306     12309     12311     12307     12306     12309     12312
     12308     12306     12309     12310     12308     12306     12309     12311
     12308     12306     12309     12312     12309     12312     12315     12316
     12309     12312     12315     12317     12309     12312     12315     12318
     12310     12309     12312     12313     12310     12309     12312     12314
     12310     12309     12312     12315     12311     12309     12312     12313
     12311     12309     12312     12314     12311     12309     12312     12315
     12312     12315     12318     12319     12312     12315     12318     12320
     12312     12315     12318     12321     12313     12312     12315     12316
     12313     12312     12315     12317     12313     12312     12315     12318
     12314     12312     12315     12316     12314     12312     12315     12317
     12314     12312     12315     12318     12315     12318     12321     12322
     12315     12318     12321     12323     12315     12318     12321     12324
     12316     12315     12318     12319     12316     12315     12318     12320
     12316     12315     12318     12321     12317     12315     12318     12319
     12317     12315     12318     12320     12317     12315     12318     12321
     12318     12321     12324     12325     12318     12321     12324     12326
     12318     12321     12324     12327     12319     12318     12321     12322
     12319     12318     12321     12323     12319     12318     12321     12324
     12320     12318     12321     12322     12320     12318     12321     12323
     12320     12318     12321     12324     12321     12324     12327     12328
     12321     12324     12327     12329     12321     12324     12327     12330
     12322     12321     12324     12325     12322     12321     12324     12326
     12322     12321     12324     12327     12323     12321     12324     12325
     12323     12321     12324     12326     12323     12321     12324     12327
     12324     12327     12330     12331     12324     12327     12330     12332
     12324     12327     12330     12333     12325     12324     12327     12328
     12325     12324     12327     12329     12325     12324     12327     12330
     12326     12324     12327     12328     12326     12324     12327     12329
     12326     12324     12327     12330     12328     12327     12330     12331
     12328     12327     12330     12332     12328     12327     12330     12333
     12329     12327     12330     12331     12329     12327     12330     12332
     12329     12327     12330     12333     12334     12338     12341     12342
     12334     12338     12341     12343     12334     12338     12341     12348
     12335     12334     12338     12339     12335     12334     12338     12340
     12335     12334     12338     12341     12336     12334     12338     12339
     12336     12334     12338     12340     12336     12334     12338     12341
     12337     12334     12338     12339     12337     12334     12338     12340
     12337     12334     12338     12341     12338     12341     12348     12344
     12339     12338     12341     12342     12339     12338     12341     12343
     12339     12338     12341     12348     12340     12338     12341     12342
     12340     12338     12341     12343     12340     12338     12341     12348
     12341     12348     12344     12345     12341     12348     12344     12346
     12341     12348     12344     12347     12342     12341     12348     12344
     12343     12341     12348     12344     12344     12347     12349     12350
     12344     12347     12349     12351     12344     12347     12349     12352
     12345     12344     12347     12349     12346     12344     12347     12349
     12347     12349     12352     12353     12347     12349     12352     12354
     12347     12349     12352     12360     12348     12344     12347     12349
     12349     12352     12354     12355     12349     12352     12360     12361
     12349     12352     12360     12362     12349     12352     12360     12363
     12350     12349     12352     12353     12350     12349     12352     12354
     12350     12349     12352     12360     12351     12349     12352     12353
     12351     12349     12352     12354     12351     12349     12352     12360
     12352     12354     12355     12356     12352     12354     12355     12357
     12352     12360     12363     12364     12353     12352     12354     12355
     12353     12352     12360     12361     12353     12352     12360     12362
     12353     12352     12360     12363     12354     12352     12360     12361
     12354     12352     12360     12362     12354     12352     12360     12363
     12354     12355     12357     12358     12354     12355     12357     12359
     12354     12355     12357     12369     12355     12354     12352     12360
     12355     12357     12369     12370     12355     12357     12369     12371
     12355     12357     12369     12372     12356     12355     12357     12358
     12356     12355     12357     12359     12356     12355     12357     12369
     12357     12369     12372     12373     12357     12369     12372     12374
     12357     12369     12372     12375     12358     12357     12369     12370
     12358     12357     12369     12371     12358     12357     12369     12372
     12359     12357     12369     12370     12359     12357     12369     12371
     12359     12357     12369     12372     12360     12363     12364     12365
     12360     12363     12364     12366     12361     12360     12363     12364
     12362     12360     12363     12364     12363     12364     12366     12367
     12363     12364     12366     12368     12363     12364     12366     12416
     12364     12366     12416     12417     12364     12366     12416     12418
     12364     12366     12416     12419     12365     12364     12366     12367
     12365     12364     12366     12368     12365     12364     12366     12416
     12366     12416     12419     12420     12366     12416     12419     12421
     12366     12416     12419     12422     12367     12366     12416     12417
     12367     12366     12416     12418     12367     12366     12416     12419
     12368     12366     12416     12417     12368     12366     12416     12418
     12368     12366     12416     12419     12369     12372     12375     12376
     12369     12372     12375     12377     12369     12372     12375     12378
     12370     12369     12372     12373     12370     12369     12372     12374
     12370     12369     12372     12375     12371     12369     12372     12373
     12371     12369     12372     12374     12371     12369     12372     12375
     12372     12375     12378     12379     12372     12375     12378     12380
     12372     12375     12378     12381     12373     12372     12375     12376
     12373     12372     12375     12377     12373     12372     12375     12378
     12374     12372     12375     12376     12374     12372     12375     12377
     12374     12372     12375     12378     12375     12378     12381     12382
     12375     12378     12381     12383     12375     12378     12381     12384
     12376     12375     12378     12379     12376     12375     12378     12380
     12376     12375     12378     12381     12377     12375     12378     12379
     12377     12375     12378     12380     12377     12375     12378     12381
     12378     12381     12384     12385     12378     12381     12384     12386
     12378     12381     12384     12387     12379     12378     12381     12382
     12379     12378     12381     12383     12379     12378     12381     12384
     12380     12378     12381     12382     12380     12378     12381     12383
     12380     12378     12381     12384     12381     12384     12387     12388
     12381     12384     12387     12389     12382     12381     12384     12385
     12382     12381     12384     12386     12382     12381     12384     12387
     12383     12381     12384     12385     12383     12381     12384     12386
     12383     12381     12384     12387     12384     12387     12389     12390
     12384     12387     12389     12391     12385     12384     12387     12388
     12385     12384     12387     12389     12386     12384     12387     12388
     12386     12384     12387     12389     12387     12389     12391     12392
     12387     12389     12391     12393     12387     12389     12391     12394
     12388     12387     12389     12390     12388     12387     12389     12391
     12389     12391     12394     12395     12389     12391     12394     12396
     12389     12391     12394     12397     12390     12389     12391     12392
     12390     12389     12391     12393     12390     12389     12391     12394
     12391     12394     12397     12398     12391     12394     12397     12399
     12391     12394     12397     12400     12392     12391     12394     12395
     12392     12391     12394     12396     12392     12391     12394     12397
     12393     12391     12394     12395     12393     12391     12394     12396
     12393     12391     12394     12397     12394     12397     12400     12401
     12394     12397     12400     12402     12394     12397     12400     12403
     12395     12394     12397     12398     12395     12394     12397     12399
     12395     12394     12397     12400     12396     12394     12397     12398
     12396     12394     12397     12399     12396     12394     12397     12400
     12397     12400     12403     12404     12397     12400     12403     12405
     12397     12400     12403     12406     12398     12397     12400     12401
     12398     12397     12400     12402     12398     12397     12400     12403
     12399     12397     12400     12401     12399     12397     12400     12402
     12399     12397     12400     12403     12400     12403     12406     12407
     12400     12403     12406     12408     12400     12403     12406     12409
     12401     12400     12403     12404     12401     12400     12403     12405
     12401     12400     12403     12406     12402     12400     12403     12404
     12402     12400     12403     12405     12402     12400     12403     12406
     12403     12406     12409     12410     12403     12406     12409     12411
     12403     12406     12409     12412     12404     12403     12406     12407
     12404     12403     12406     12408     12404     12403     12406     12409
     12405     12403     12406     12407     12405     12403     12406     12408
     12405     12403     12406     12409     12406     12409     12412     12413
     12406     12409     12412     12414     12406     12409     12412     12415
     12407     12406     12409     12410     12407     12406     12409     12411
     12407     12406     12409     12412     12408     12406     12409     12410
     12408     12406     12409     12411     12408     12406     12409     12412
     12410     12409     12412     12413     12410     12409     12412     12414
     12410     12409     12412     12415     12411     12409     12412     12413
     12411     12409     12412     12414     12411     12409     12412     12415
     12416     12419     12422     12423     12416     12419     12422     12424
     12416     12419     12422     12425     12417     12416     12419     12420
     12417     12416     12419     12421     12417     12416     12419     12422
     12418     12416     12419     12420     12418     12416     12419     12421
     12418     12416     12419     12422     12419     12422     12425     12426
     12419     12422     12425     12427     12419     12422     12425     12428
     12420     12419     12422     12423     12420     12419     12422     12424
     12420     12419     12422     12425     12421     12419     12422     12423
     12421     12419     12422     12424     12421     12419     12422     12425
     12422     12425     12428     12429     12422     12425     12428     12430
     12422     12425     12428     12431     12423     12422     12425     12426
     12423     12422     12425     12427     12423     12422     12425     12428
     12424     12422     12425     12426     12424     12422     12425     12427
     12424     12422     12425     12428     12425     12428     12431     12432
     12425     12428     12431     12433     12425     12428     12431     12434
     12426     12425     12428     12429     12426     12425     12428     12430
     12426     12425     12428     12431     12427     12425     12428     12429
     12427     12425     12428     12430     12427     12425     12428     12431
     12428     12431     12434     12435     12428     12431     12434     12436
     12428     12431     12434     12437     12429     12428     12431     12432
     12429     12428     12431     12433     12429     12428     12431     12434
     12430     12428     12431     12432     12430     12428     12431     12433
     12430     12428     12431     12434     12431     12434     12437     12438
     12431     12434     12437     12439     12431     12434     12437     12440
     12432     12431     12434     12435     12432     12431     12434     12436
     12432     12431     12434     12437     12433     12431     12434     12435
     12433     12431     12434     12436     12433     12431     12434     12437
     12434     12437     12440     12441     12434     12437     12440     12442
     12434     12437     12440     12443     12435     12434     12437     12438
     12435     12434     12437     12439     12435     12434     12437     12440
     12436     12434     12437     12438     12436     12434     12437     12439
     12436     12434     12437     12440     12437     12440     12443     12444
     12437     12440     12443     12445     12437     12440     12443     12446
     12438     12437     12440     12441     12438     12437     12440     12442
     12438     12437     12440     12443     12439     12437     12440     12441
     12439     12437     12440     12442     12439     12437     12440     12443
     12440     12443     12446     12447     12440     12443     12446     12448
     12440     12443     12446     12449     12441     12440     12443     12444
     12441     12440     12443     12445     12441     12440     12443     12446
     12442     12440     12443     12444     12442     12440     12443     12445
     12442     12440     12443     12446     12443     12446     12449     12450
     12443     12446     12449     12451     12443     12446     12449     12452
     12444     12443     12446     12447     12444     12443     12446     12448
     12444     12443     12446     12449     12445     12443     12446     12447
     12445     12443     12446     12448     12445     12443     12446     12449
     12446     12449     12452     12453     12446     12449     12452     12454
     12446     12449     12452     12455     12447     12446     12449     12450
     12447     12446     12449     12451     12447     12446     12449     12452
     12448     12446     12449     12450     12448     12446     12449     12451
     12448     12446     12449     12452     12449     12452     12455     12456
     12449     12452     12455     12457     12449     12452     12455     12458
     12450     12449     12452     12453     12450     12449     12452     12454
     12450     12449     12452     12455     12451     12449     12452     12453
     12451     12449     12452     12454     12451     12449     12452     12455
     12453     12452     12455     12456     12453     12452     12455     12457
     12453     12452     12455     12458     12454     12452     12455     12456
     12454     12452     12455     12457     12454     12452     12455     12458
     12459     12464     12466     12467     12459     12464     12468     12469
     12459     12464     12468     12470     12459     12464     12468     12475
     12460     12459     12462     12463     12460     12459     12464     12465
     12460     12459     12464     12466     12460     12459     12464     12468
     12461     12459     12462     12463     12461     12459     12464     12465
     12461     12459     12464     12466     12461     12459     12464     12468
     12462     12459     12464     12465     12462     12459     12464     12466
     12462     12459     12464     12468     12463     12462     12459     12464
     12464     12468     12475     12471     12465     12464     12466     12467
     12465     12464     12468     12469     12465     12464     12468     12470
     12465     12464     12468     12475     12466     12464     12468     12469
     12466     12464     12468     12470     12466     12464     12468     12475
     12467     12466     12464     12468     12468     12475     12471     12472
     12468     12475     12471     12473     12468     12475     12471     12474
     12469     12468     12475     12471     12470     12468     12475     12471
     12471     12474     12476     12477     12471     12474     12476     12478
     12471     12474     12476     12479     12472     12471     12474     12476
     12473     12471     12474     12476     12474     12476     12479     12480
     12474     12476     12479     12481     12474     12476     12479     12487
     12475     12471     12474     12476     12476     12479     12481     12482
     12476     12479     12487     12488     12476     12479     12487     12489
     12476     12479     12487     12490     12477     12476     12479     12480
     12477     12476     12479     12481     12477     12476     12479     12487
     12478     12476     12479     12480     12478     12476     12479     12481
     12478     12476     12479     12487     12479     12481     12482     12483
     12479     12481     12482     12484     12479     12487     12490     12491
     12480     12479     12481     12482     12480     12479     12487     12488
     12480     12479     12487     12489     12480     12479     12487     12490
     12481     12479     12487     12488     12481     12479     12487     12489
     12481     12479     12487     12490     12481     12482     12484     12485
     12481     12482     12484     12486     12481     12482     12484     12496
     12482     12481     12479     12487     12482     12484     12496     12497
     12482     12484     12496     12498     12482     12484     12496     12499
     12483     12482     12484     12485     12483     12482     12484     12486
     12483     12482     12484     12496     12484     12496     12499     12500
     12484     12496     12499     12501     12484     12496     12499     12502
     12485     12484     12496     12497     12485     12484     12496     12498
     12485     12484     12496     12499     12486     12484     12496     12497
     12486     12484     12496     12498     12486     12484     12496     12499
     12487     12490     12491     12492     12487     12490     12491     12493
     12488     12487     12490     12491     12489     12487     12490     12491
     12490     12491     12493     12494     12490     12491     12493     12495
     12490     12491     12493     12540     12491     12493     12540     12541
     12491     12493     12540     12542     12491     12493     12540     12543
     12492     12491     12493     12494     12492     12491     12493     12495
     12492     12491     12493     12540     12493     12540     12543     12544
     12493     12540     12543     12545     12493     12540     12543     12546
     12494     12493     12540     12541     12494     12493     12540     12542
     12494     12493     12540     12543     12495     12493     12540     12541
     12495     12493     12540     12542     12495     12493     12540     12543
     12496     12499     12502     12503     12496     12499     12502     12504
     12496     12499     12502     12505     12497     12496     12499     12500
     12497     12496     12499     12501     12497     12496     12499     12502
     12498     12496     12499     12500     12498     12496     12499     12501
     12498     12496     12499     12502     12499     12502     12505     12506
     12499     12502     12505     12507     12499     12502     12505     12508
     12500     12499     12502     12503     12500     12499     12502     12504
     12500     12499     12502     12505     12501     12499     12502     12503
     12501     12499     12502     12504     12501     12499     12502     12505
     12502     12505     12508     12509     12502     12505     12508     12510
     12502     12505     12508     12511     12503     12502     12505     12506
     12503     12502     12505     12507     12503     12502     12505     12508
     12504     12502     12505     12506     12504     12502     12505     12507
     12504     12502     12505     12508     12505     12508     12511     12512
     12505     12508     12511     12513     12505     12508     12511     12514
     12506     12505     12508     12509     12506     12505     12508     12510
     12506     12505     12508     12511     12507     12505     12508     12509
     12507     12505     12508     12510     12507     12505     12508     12511
     12508     12511     12514     12515     12508     12511     12514     12516
     12508     12511     12514     12519     12509     12508     12511     12512
     12509     12508     12511     12513     12509     12508     12511     12514
     12510     12508     12511     12512     12510     12508     12511     12513
     12510     12508     12511     12514     12511     12514     12516     12517
     12511     12514     12516     12518     12511     12514     12516     12519
     12511     12514     12519     12516     12511     12514     12519     12520
     12511     12514     12519     12521     12512     12511     12514     12515
     12512     12511     12514     12516     12512     12511     12514     12519
     12513     12511     12514     12515     12513     12511     12514     12516
     12513     12511     12514     12519     12514     12516     12519     12520
     12514     12516     12519     12521     12514     12519     12516     12517
     12514     12519     12516     12518     12514     12519     12521     12522
     12514     12519     12521     12523     12514     12519     12521     12524
     12515     12514     12516     12517     12515     12514     12516     12518
     12515     12514     12516     12519     12515     12514     12519     12516
     12515     12514     12519     12520     12515     12514     12519     12521
     12516     12514     12519     12520     12516     12514     12519     12521
     12516     12519     12521     12522     12516     12519     12521     12523
     12516     12519     12521     12524     12517     12516     12514     12519
     12517     12516     12519     12520     12517     12516     12519     12521
     12518     12516     12514     12519     12518     12516     12519     12520
     12518     12516     12519     12521     12519     12521     12524     12525
     12519     12521     12524     12526     12519     12521     12524     12527
     12520     12519     12521     12522     12520     12519     12521     12523
     12520     12519     12521     12524     12521     12524     12527     12528
     12521     12524     12527     12529     12521     12524     12527     12530
     12522     12521     12524     12525     12522     12521     12524     12526
     12522     12521     12524     12527     12523     12521     12524     12525
     12523     12521     12524     12526     12523     12521     12524     12527
     12524     12527     12530     12531     12524     12527     12530     12532
     12524     12527     12530     12533     12525     12524     12527     12528
     12525     12524     12527     12529     12525     12524     12527     12530
     12526     12524     12527     12528     12526     12524     12527     12529
     12526     12524     12527     12530     12527     12530     12533     12534
     12527     12530     12533     12535     12527     12530     12533     12536
     12528     12527     12530     12531     12528     12527     12530     12532
     12528     12527     12530     12533     12529     12527     12530     12531
     12529     12527     12530     12532     12529     12527     12530     12533
     12530     12533     12536     12537     12530     12533     12536     12538
     12530     12533     12536     12539     12531     12530     12533     12534
     12531     12530     12533     12535     12531     12530     12533     12536
     12532     12530     12533     12534     12532     12530     12533     12535
     12532     12530     12533     12536     12534     12533     12536     12537
     12534     12533     12536     12538     12534     12533     12536     12539
     12535     12533     12536     12537     12535     12533     12536     12538
     12535     12533     12536     12539     12540     12543     12546     12547
     12540     12543     12546     12548     12540     12543     12546     12549
     12541     12540     12543     12544     12541     12540     12543     12545
     12541     12540     12543     12546     12542     12540     12543     12544
     12542     12540     12543     12545     12542     12540     12543     12546
     12543     12546     12549     12550     12543     12546     12549     12551
     12543     12546     12549     12552     12544     12543     12546     12547
     12544     12543     12546     12548     12544     12543     12546     12549
     12545     12543     12546     12547     12545     12543     12546     12548
     12545     12543     12546     12549     12546     12549     12552     12553
     12546     12549     12552     12554     12546     12549     12552     12555
     12547     12546     12549     12550     12547     12546     12549     12551
     12547     12546     12549     12552     12548     12546     12549     12550
     12548     12546     12549     12551     12548     12546     12549     12552
     12549     12552     12555     12556     12549     12552     12555     12557
     12549     12552     12555     12558     12550     12549     12552     12553
     12550     12549     12552     12554     12550     12549     12552     12555
     12551     12549     12552     12553     12551     12549     12552     12554
     12551     12549     12552     12555     12552     12555     12558     12559
     12552     12555     12558     12560     12552     12555     12558     12561
     12553     12552     12555     12556     12553     12552     12555     12557
     12553     12552     12555     12558     12554     12552     12555     12556
     12554     12552     12555     12557     12554     12552     12555     12558
     12555     12558     12561     12562     12555     12558     12561     12563
     12555     12558     12561     12564     12556     12555     12558     12559
     12556     12555     12558     12560     12556     12555     12558     12561
     12557     12555     12558     12559     12557     12555     12558     12560
     12557     12555     12558     12561     12558     12561     12564     12565
     12558     12561     12564     12566     12558     12561     12564     12567
     12559     12558     12561     12562     12559     12558     12561     12563
     12559     12558     12561     12564     12560     12558     12561     12562
     12560     12558     12561     12563     12560     12558     12561     12564
     12561     12564     12567     12568     12561     12564     12567     12569
     12561     12564     12567     12570     12562     12561     12564     12565
     12562     12561     12564     12566     12562     12561     12564     12567
     12563     12561     12564     12565     12563     12561     12564     12566
     12563     12561     12564     12567     12564     12567     12570     12571
     12564     12567     12570     12572     12564     12567     12570     12573
     12565     12564     12567     12568     12565     12564     12567     12569
     12565     12564     12567     12570     12566     12564     12567     12568
     12566     12564     12567     12569     12566     12564     12567     12570
     12567     12570     12573     12574     12567     12570     12573     12575
     12567     12570     12573     12576     12568     12567     12570     12571
     12568     12567     12570     12572     12568     12567     12570     12573
     12569     12567     12570     12571     12569     12567     12570     12572
     12569     12567     12570     12573     12570     12573     12576     12577
     12570     12573     12576     12578     12570     12573     12576     12579
     12571     12570     12573     12574     12571     12570     12573     12575
     12571     12570     12573     12576     12572     12570     12573     12574
     12572     12570     12573     12575     12572     12570     12573     12576
     12573     12576     12579     12580     12573     12576     12579     12581
     12573     12576     12579     12582     12574     12573     12576     12577
     12574     12573     12576     12578     12574     12573     12576     12579
     12575     12573     12576     12577     12575     12573     12576     12578
     12575     12573     12576     12579     12577     12576     12579     12580
     12577     12576     12579     12581     12577     12576     12579     12582
     12578     12576     12579     12580     12578     12576     12579     12581
     12578     12576     12579     12582     12583     12587     12590     12591
     12583     12587     12590     12592     12583     12587     12590     12597
     12584     12583     12587     12588     12584     12583     12587     12589
     12584     12583     12587     12590     12585     12583     12587     12588
     12585     12583     12587     12589     12585     12583     12587     12590
     12586     12583     12587     12588     12586     12583     12587     12589
     12586     12583     12587     12590     12587     12590     12597     12593
     12588     12587     12590     12591     12588     12587     12590     12592
     12588     12587     12590     12597     12589     12587     12590     12591
     12589     12587     12590     12592     12589     12587     12590     12597
     12590     12597     12593     12594     12590     12597     12593     12595
     12590     12597     12593     12596     12591     12590     12597     12593
     12592     12590     12597     12593     12593     12596     12598     12599
     12593     12596     12598     12600     12593     12596     12598     12601
     12594     12593     12596     12598     12595     12593     12596     12598
     12596     12598     12601     12602     12596     12598     12601     12603
     12596     12598     12601     12609     12597     12593     12596     12598
     12598     12601     12603     12604     12598     12601     12609     12610
     12598     12601     12609     12611     12598     12601     12609     12612
     12599     12598     12601     12602     12599     12598     12601     12603
     12599     12598     12601     12609     12600     12598     12601     12602
     12600     12598     12601     12603     12600     12598     12601     12609
     12601     12603     12604     12605     12601     12603     12604     12606
     12601     12609     12612     12613     12602     12601     12603     12604
     12602     12601     12609     12610     12602     12601     12609     12611
     12602     12601     12609     12612     12603     12601     12609     12610
     12603     12601     12609     12611     12603     12601     12609     12612
     12603     12604     12606     12607     12603     12604     12606     12608
     12603     12604     12606     12618     12604     12603     12601     12609
     12604     12606     12618     12619     12604     12606     12618     12620
     12604     12606     12618     12621     12605     12604     12606     12607
     12605     12604     12606     12608     12605     12604     12606     12618
     12606     12618     12621     12622     12606     12618     12621     12623
     12606     12618     12621     12624     12607     12606     12618     12619
     12607     12606     12618     12620     12607     12606     12618     12621
     12608     12606     12618     12619     12608     12606     12618     12620
     12608     12606     12618     12621     12609     12612     12613     12614
     12609     12612     12613     12615     12610     12609     12612     12613
     12611     12609     12612     12613     12612     12613     12615     12616
     12612     12613     12615     12617     12612     12613     12615     12665
     12613     12615     12665     12666     12613     12615     12665     12667
     12613     12615     12665     12668     12614     12613     12615     12616
     12614     12613     12615     12617     12614     12613     12615     12665
     12615     12665     12668     12669     12615     12665     12668     12670
     12615     12665     12668     12671     12616     12615     12665     12666
     12616     12615     12665     12667     12616     12615     12665     12668
     12617     12615     12665     12666     12617     12615     12665     12667
     12617     12615     12665     12668     12618     12621     12624     12625
     12618     12621     12624     12626     12618     12621     12624     12627
     12619     12618     12621     12622     12619     12618     12621     12623
     12619     12618     12621     12624     12620     12618     12621     12622
     12620     12618     12621     12623     12620     12618     12621     12624
     12621     12624     12627     12628     12621     12624     12627     12629
     12621     12624     12627     12630     12622     12621     12624     12625
     12622     12621     12624     12626     12622     12621     12624     12627
     12623     12621     12624     12625     12623     12621     12624     12626
     12623     12621     12624     12627     12624     12627     12630     12631
     12624     12627     12630     12632     12624     12627     12630     12633
     12625     12624     12627     12628     12625     12624     12627     12629
     12625     12624     12627     12630     12626     12624     12627     12628
     12626     12624     12627     12629     12626     12624     12627     12630
     12627     12630     12633     12634     12627     12630     12633     12635
     12627     12630     12633     12636     12628     12627     12630     12631
     12628     12627     12630     12632     12628     12627     12630     12633
     12629     12627     12630     12631     12629     12627     12630     12632
     12629     12627     12630     12633     12630     12633     12636     12637
     12630     12633     12636     12638     12631     12630     12633     12634
     12631     12630     12633     12635     12631     12630     12633     12636
     12632     12630     12633     12634     12632     12630     12633     12635
     12632     12630     12633     12636     12633     12636     12638     12639
     12633     12636     12638     12640     12634     12633     12636     12637
     12634     12633     12636     12638     12635     12633     12636     12637
     12635     12633     12636     12638     12636     12638     12640     12641
     12636     12638     12640     12642     12636     12638     12640     12643
     12637     12636     12638     12639     12637     12636     12638     12640
     12638     12640     12643     12644     12638     12640     12643     12645
     12638     12640     12643     12646     12639     12638     12640     12641
     12639     12638     12640     12642     12639     12638     12640     12643
     12640     12643     12646     12647     12640     12643     12646     12648
     12640     12643     12646     12649     12641     12640     12643     12644
     12641     12640     12643     12645     12641     12640     12643     12646
     12642     12640     12643     12644     12642     12640     12643     12645
     12642     12640     12643     12646     12643     12646     12649     12650
     12643     12646     12649     12651     12643     12646     12649     12652
     12644     12643     12646     12647     12644     12643     12646     12648
     12644     12643     12646     12649     12645     12643     12646     12647
     12645     12643     12646     12648     12645     12643     12646     12649
     12646     12649     12652     12653     12646     12649     12652     12654
     12646     12649     12652     12655     12647     12646     12649     12650
     12647     12646     12649     12651     12647     12646     12649     12652
     12648     12646     12649     12650     12648     12646     12649     12651
     12648     12646     12649     12652     12649     12652     12655     12656
     12649     12652     12655     12657     12649     12652     12655     12658
     12650     12649     12652     12653     12650     12649     12652     12654
     12650     12649     12652     12655     12651     12649     12652     12653
     12651     12649     12652     12654     12651     12649     12652     12655
     12652     12655     12658     12659     12652     12655     12658     12660
     12652     12655     12658     12661     12653     12652     12655     12656
     12653     12652     12655     12657     12653     12652     12655     12658
     12654     12652     12655     12656     12654     12652     12655     12657
     12654     12652     12655     12658     12655     12658     12661     12662
     12655     12658     12661     12663     12655     12658     12661     12664
     12656     12655     12658     12659     12656     12655     12658     12660
     12656     12655     12658     12661     12657     12655     12658     12659
     12657     12655     12658     12660     12657     12655     12658     12661
     12659     12658     12661     12662     12659     12658     12661     12663
     12659     12658     12661     12664     12660     12658     12661     12662
     12660     12658     12661     12663     12660     12658     12661     12664
     12665     12668     12671     12672     12665     12668     12671     12673
     12665     12668     12671     12674     12666     12665     12668     12669
     12666     12665     12668     12670     12666     12665     12668     12671
     12667     12665     12668     12669     12667     12665     12668     12670
     12667     12665     12668     12671     12668     12671     12674     12675
     12668     12671     12674     12676     12668     12671     12674     12677
     12669     12668     12671     12672     12669     12668     12671     12673
     12669     12668     12671     12674     12670     12668     12671     12672
     12670     12668     12671     12673     12670     12668     12671     12674
     12671     12674     12677     12678     12671     12674     12677     12679
     12671     12674     12677     12680     12672     12671     12674     12675
     12672     12671     12674     12676     12672     12671     12674     12677
     12673     12671     12674     12675     12673     12671     12674     12676
     12673     12671     12674     12677     12674     12677     12680     12681
     12674     12677     12680     12682     12674     12677     12680     12683
     12675     12674     12677     12678     12675     12674     12677     12679
     12675     12674     12677     12680     12676     12674     12677     12678
     12676     12674     12677     12679     12676     12674     12677     12680
     12677     12680     12683     12684     12677     12680     12683     12685
     12677     12680     12683     12686     12678     12677     12680     12681
     12678     12677     12680     12682     12678     12677     12680     12683
     12679     12677     12680     12681     12679     12677     12680     12682
     12679     12677     12680     12683     12680     12683     12686     12687
     12680     12683     12686     12688     12680     12683     12686     12689
     12681     12680     12683     12684     12681     12680     12683     12685
     12681     12680     12683     12686     12682     12680     12683     12684
     12682     12680     12683     12685     12682     12680     12683     12686
     12683     12686     12689     12690     12683     12686     12689     12691
     12683     12686     12689     12692     12684     12683     12686     12687
     12684     12683     12686     12688     12684     12683     12686     12689
     12685     12683     12686     12687     12685     12683     12686     12688
     12685     12683     12686     12689     12686     12689     12692     12693
     12686     12689     12692     12694     12686     12689     12692     12695
     12687     12686     12689     12690     12687     12686     12689     12691
     12687     12686     12689     12692     12688     12686     12689     12690
     12688     12686     12689     12691     12688     12686     12689     12692
     12689     12692     12695     12696     12689     12692     12695     12697
     12689     12692     12695     12698     12690     12689     12692     12693
     12690     12689     12692     12694     12690     12689     12692     12695
     12691     12689     12692     12693     12691     12689     12692     12694
     12691     12689     12692     12695     12692     12695     12698     12699
     12692     12695     12698     12700     12692     12695     12698     12701
     12693     12692     12695     12696     12693     12692     12695     12697
     12693     12692     12695     12698     12694     12692     12695     12696
     12694     12692     12695     12697     12694     12692     12695     12698
     12695     12698     12701     12702     12695     12698     12701     12703
     12695     12698     12701     12704     12696     12695     12698     12699
     12696     12695     12698     12700     12696     12695     12698     12701
     12697     12695     12698     12699     12697     12695     12698     12700
     12697     12695     12698     12701     12698     12701     12704     12705
     12698     12701     12704     12706     12698     12701     12704     12707
     12699     12698     12701     12702     12699     12698     12701     12703
     12699     12698     12701     12704     12700     12698     12701     12702
     12700     12698     12701     12703     12700     12698     12701     12704
     12702     12701     12704     12705     12702     12701     12704     12706
     12702     12701     12704     12707     12703     12701     12704     12705
     12703     12701     12704     12706     12703     12701     12704     12707
     12708     12712     12715     12716     12708     12712     12715     12717
     12708     12712     12715     12722     12709     12708     12712     12713
     12709     12708     12712     12714     12709     12708     12712     12715
     12710     12708     12712     12713     12710     12708     12712     12714
     12710     12708     12712     12715     12711     12708     12712     12713
     12711     12708     12712     12714     12711     12708     12712     12715
     12712     12715     12722     12718     12713     12712     12715     12716
     12713     12712     12715     12717     12713     12712     12715     12722
     12714     12712     12715     12716     12714     12712     12715     12717
     12714     12712     12715     12722     12715     12722     12718     12719
     12715     12722     12718     12720     12715     12722     12718     12721
     12716     12715     12722     12718     12717     12715     12722     12718
     12718     12721     12723     12724     12718     12721     12723     12725
     12718     12721     12723     12726     12719     12718     12721     12723
     12720     12718     12721     12723     12721     12723     12726     12727
     12721     12723     12726     12728     12721     12723     12726     12734
     12722     12718     12721     12723     12723     12726     12728     12729
     12723     12726     12734     12735     12723     12726     12734     12736
     12723     12726     12734     12737     12724     12723     12726     12727
     12724     12723     12726     12728     12724     12723     12726     12734
     12725     12723     12726     12727     12725     12723     12726     12728
     12725     12723     12726     12734     12726     12728     12729     12730
     12726     12728     12729     12731     12726     12734     12737     12738
     12727     12726     12728     12729     12727     12726     12734     12735
     12727     12726     12734     12736     12727     12726     12734     12737
     12728     12726     12734     12735     12728     12726     12734     12736
     12728     12726     12734     12737     12728     12729     12731     12732
     12728     12729     12731     12733     12728     12729     12731     12743
     12729     12728     12726     12734     12729     12731     12743     12744
     12729     12731     12743     12745     12729     12731     12743     12746
     12730     12729     12731     12732     12730     12729     12731     12733
     12730     12729     12731     12743     12731     12743     12746     12747
     12731     12743     12746     12748     12731     12743     12746     12749
     12732     12731     12743     12744     12732     12731     12743     12745
     12732     12731     12743     12746     12733     12731     12743     12744
     12733     12731     12743     12745     12733     12731     12743     12746
     12734     12737     12738     12739     12734     12737     12738     12740
     12735     12734     12737     12738     12736     12734     12737     12738
     12737     12738     12740     12741     12737     12738     12740     12742
     12737     12738     12740     12787     12738     12740     12787     12788
     12738     12740     12787     12789     12738     12740     12787     12790
     12739     12738     12740     12741     12739     12738     12740     12742
     12739     12738     12740     12787     12740     12787     12790     12791
     12740     12787     12790     12792     12740     12787     12790     12793
     12741     12740     12787     12788     12741     12740     12787     12789
     12741     12740     12787     12790     12742     12740     12787     12788
     12742     12740     12787     12789     12742     12740     12787     12790
     12743     12746     12749     12750     12743     12746     12749     12751
     12743     12746     12749     12752     12744     12743     12746     12747
     12744     12743     12746     12748     12744     12743     12746     12749
     12745     12743     12746     12747     12745     12743     12746     12748
     12745     12743     12746     12749     12746     12749     12752     12753
     12746     12749     12752     12754     12746     12749     12752     12755
     12747     12746     12749     12750     12747     12746     12749     12751
     12747     12746     12749     12752     12748     12746     12749     12750
     12748     12746     12749     12751     12748     12746     12749     12752
     12749     12752     12755     12756     12749     12752     12755     12757
     12749     12752     12755     12758     12750     12749     12752     12753
     12750     12749     12752     12754     12750     12749     12752     12755
     12751     12749     12752     12753     12751     12749     12752     12754
     12751     12749     12752     12755     12752     12755     12758     12759
     12752     12755     12758     12760     12752     12755     12758     12761
     12753     12752     12755     12756     12753     12752     12755     12757
     12753     12752     12755     12758     12754     12752     12755     12756
     12754     12752     12755     12757     12754     12752     12755     12758
     12755     12758     12761     12762     12755     12758     12761     12763
     12755     12758     12761     12766     12756     12755     12758     12759
     12756     12755     12758     12760     12756     12755     12758     12761
     12757     12755     12758     12759     12757     12755     12758     12760
     12757     12755     12758     12761     12758     12761     12763     12764
     12758     12761     12763     12765     12758     12761     12763     12766
     12758     12761     12766     12763     12758     12761     12766     12767
     12758     12761     12766     12768     12759     12758     12761     12762
     12759     12758     12761     12763     12759     12758     12761     12766
     12760     12758     12761     12762     12760     12758     12761     12763
     12760     12758     12761     12766     12761     12763     12766     12767
     12761     12763     12766     12768     12761     12766     12763     12764
     12761     12766     12763     12765     12761     12766     12768     12769
     12761     12766     12768     12770     12761     12766     12768     12771
     12762     12761     12763     12764     12762     12761     12763     12765
     12762     12761     12763     12766     12762     12761     12766     12763
     12762     12761     12766     12767     12762     12761     12766     12768
     12763     12761     12766     12767     12763     12761     12766     12768
     12763     12766     12768     12769     12763     12766     12768     12770
     12763     12766     12768     12771     12764     12763     12761     12766
     12764     12763     12766     12767     12764     12763     12766     12768
     12765     12763     12761     12766     12765     12763     12766     12767
     12765     12763     12766     12768     12766     12768     12771     12772
     12766     12768     12771     12773     12766     12768     12771     12774
     12767     12766     12768     12769     12767     12766     12768     12770
     12767     12766     12768     12771     12768     12771     12774     12775
     12768     12771     12774     12776     12768     12771     12774     12777
     12769     12768     12771     12772     12769     12768     12771     12773
     12769     12768     12771     12774     12770     12768     12771     12772
     12770     12768     12771     12773     12770     12768     12771     12774
     12771     12774     12777     12778     12771     12774     12777     12779
     12771     12774     12777     12780     12772     12771     12774     12775
     12772     12771     12774     12776     12772     12771     12774     12777
     12773     12771     12774     12775     12773     12771     12774     12776
     12773     12771     12774     12777     12774     12777     12780     12781
     12774     12777     12780     12782     12774     12777     12780     12783
     12775     12774     12777     12778     12775     12774     12777     12779
     12775     12774     12777     12780     12776     12774     12777     12778
     12776     12774     12777     12779     12776     12774     12777     12780
     12777     12780     12783     12784     12777     12780     12783     12785
     12777     12780     12783     12786     12778     12777     12780     12781
     12778     12777     12780     12782     12778     12777     12780     12783
     12779     12777     12780     12781     12779     12777     12780     12782
     12779     12777     12780     12783     12781     12780     12783     12784
     12781     12780     12783     12785     12781     12780     12783     12786
     12782     12780     12783     12784     12782     12780     12783     12785
     12782     12780     12783     12786     12787     12790     12793     12794
     12787     12790     12793     12795     12787     12790     12793     12796
     12788     12787     12790     12791     12788     12787     12790     12792
     12788     12787     12790     12793     12789     12787     12790     12791
     12789     12787     12790     12792     12789     12787     12790     12793
     12790     12793     12796     12797     12790     12793     12796     12798
     12790     12793     12796     12799     12791     12790     12793     12794
     12791     12790     12793     12795     12791     12790     12793     12796
     12792     12790     12793     12794     12792     12790     12793     12795
     12792     12790     12793     12796     12793     12796     12799     12800
     12793     12796     12799     12801     12793     12796     12799     12802
     12794     12793     12796     12797     12794     12793     12796     12798
     12794     12793     12796     12799     12795     12793     12796     12797
     12795     12793     12796     12798     12795     12793     12796     12799
     12796     12799     12802     12803     12796     12799     12802     12804
     12796     12799     12802     12805     12797     12796     12799     12800
     12797     12796     12799     12801     12797     12796     12799     12802
     12798     12796     12799     12800     12798     12796     12799     12801
     12798     12796     12799     12802     12799     12802     12805     12806
     12799     12802     12805     12807     12799     12802     12805     12808
     12800     12799     12802     12803     12800     12799     12802     12804
     12800     12799     12802     12805     12801     12799     12802     12803
     12801     12799     12802     12804     12801     12799     12802     12805
     12802     12805     12808     12809     12802     12805     12808     12810
     12802     12805     12808     12811     12803     12802     12805     12806
     12803     12802     12805     12807     12803     12802     12805     12808
     12804     12802     12805     12806     12804     12802     12805     12807
     12804     12802     12805     12808     12805     12808     12811     12812
     12805     12808     12811     12813     12805     12808     12811     12814
     12806     12805     12808     12809     12806     12805     12808     12810
     12806     12805     12808     12811     12807     12805     12808     12809
     12807     12805     12808     12810     12807     12805     12808     12811
     12808     12811     12814     12815     12808     12811     12814     12816
     12808     12811     12814     12817     12809     12808     12811     12812
     12809     12808     12811     12813     12809     12808     12811     12814
     12810     12808     12811     12812     12810     12808     12811     12813
     12810     12808     12811     12814     12811     12814     12817     12818
     12811     12814     12817     12819     12811     12814     12817     12820
     12812     12811     12814     12815     12812     12811     12814     12816
     12812     12811     12814     12817     12813     12811     12814     12815
     12813     12811     12814     12816     12813     12811     12814     12817
     12814     12817     12820     12821     12814     12817     12820     12822
     12814     12817     12820     12823     12815     12814     12817     12818
     12815     12814     12817     12819     12815     12814     12817     12820
     12816     12814     12817     12818     12816     12814     12817     12819
     12816     12814     12817     12820     12817     12820     12823     12824
     12817     12820     12823     12825     12817     12820     12823     12826
     12818     12817     12820     12821     12818     12817     12820     12822
     12818     12817     12820     12823     12819     12817     12820     12821
     12819     12817     12820     12822     12819     12817     12820     12823
     12820     12823     12826     12827     12820     12823     12826     12828
     12820     12823     12826     12829     12821     12820     12823     12824
     12821     12820     12823     12825     12821     12820     12823     12826
     12822     12820     12823     12824     12822     12820     12823     12825
     12822     12820     12823     12826     12824     12823     12826     12827
     12824     12823     12826     12828     12824     12823     12826     12829
     12825     12823     12826     12827     12825     12823     12826     12828
     12825     12823     12826     12829     12830     12834     12837     12838
     12830     12834     12837     12839     12830     12834     12837     12844
     12831     12830     12834     12835     12831     12830     12834     12836
     12831     12830     12834     12837     12832     12830     12834     12835
     12832     12830     12834     12836     12832     12830     12834     12837
     12833     12830     12834     12835     12833     12830     12834     12836
     12833     12830     12834     12837     12834     12837     12844     12840
     12835     12834     12837     12838     12835     12834     12837     12839
     12835     12834     12837     12844     12836     12834     12837     12838
     12836     12834     12837     12839     12836     12834     12837     12844
     12837     12844     12840     12841     12837     12844     12840     12842
     12837     12844     12840     12843     12838     12837     12844     12840
     12839     12837     12844     12840     12840     12843     12845     12846
     12840     12843     12845     12847     12840     12843     12845     12848
     12841     12840     12843     12845     12842     12840     12843     12845
     12843     12845     12848     12849     12843     12845     12848     12850
     12843     12845     12848     12856     12844     12840     12843     12845
     12845     12848     12850     12851     12845     12848     12856     12857
     12845     12848     12856     12858     12845     12848     12856     12859
     12846     12845     12848     12849     12846     12845     12848     12850
     12846     12845     12848     12856     12847     12845     12848     12849
     12847     12845     12848     12850     12847     12845     12848     12856
     12848     12850     12851     12852     12848     12850     12851     12853
     12848     12856     12859     12860     12849     12848     12850     12851
     12849     12848     12856     12857     12849     12848     12856     12858
     12849     12848     12856     12859     12850     12848     12856     12857
     12850     12848     12856     12858     12850     12848     12856     12859
     12850     12851     12853     12854     12850     12851     12853     12855
     12850     12851     12853     12865     12851     12850     12848     12856
     12851     12853     12865     12866     12851     12853     12865     12867
     12851     12853     12865     12868     12852     12851     12853     12854
     12852     12851     12853     12855     12852     12851     12853     12865
     12853     12865     12868     12869     12853     12865     12868     12870
     12853     12865     12868     12871     12854     12853     12865     12866
     12854     12853     12865     12867     12854     12853     12865     12868
     12855     12853     12865     12866     12855     12853     12865     12867
     12855     12853     12865     12868     12856     12859     12860     12861
     12856     12859     12860     12862     12857     12856     12859     12860
     12858     12856     12859     12860     12859     12860     12862     12863
     12859     12860     12862     12864     12859     12860     12862     12909
     12860     12862     12909     12910     12860     12862     12909     12911
     12860     12862     12909     12912     12861     12860     12862     12863
     12861     12860     12862     12864     12861     12860     12862     12909
     12862     12909     12912     12913     12862     12909     12912     12914
     12862     12909     12912     12915     12863     12862     12909     12910
     12863     12862     12909     12911     12863     12862     12909     12912
     12864     12862     12909     12910     12864     12862     12909     12911
     12864     12862     12909     12912     12865     12868     12871     12872
     12865     12868     12871     12873     12865     12868     12871     12874
     12866     12865     12868     12869     12866     12865     12868     12870
     12866     12865     12868     12871     12867     12865     12868     12869
     12867     12865     12868     12870     12867     12865     12868     12871
     12868     12871     12874     12875     12868     12871     12874     12876
     12868     12871     12874     12877     12869     12868     12871     12872
     12869     12868     12871     12873     12869     12868     12871     12874
     12870     12868     12871     12872     12870     12868     12871     12873
     12870     12868     12871     12874     12871     12874     12877     12878
     12871     12874     12877     12879     12871     12874     12877     12880
     12872     12871     12874     12875     12872     12871     12874     12876
     12872     12871     12874     12877     12873     12871     12874     12875
     12873     12871     12874     12876     12873     12871     12874     12877
     12874     12877     12880     12881     12874     12877     12880     12882
     12874     12877     12880     12883     12875     12874     12877     12878
     12875     12874     12877     12879     12875     12874     12877     12880
     12876     12874     12877     12878     12876     12874     12877     12879
     12876     12874     12877     12880     12877     12880     12883     12884
     12877     12880     12883     12885     12877     12880     12883     12888
     12878     12877     12880     12881     12878     12877     12880     12882
     12878     12877     12880     12883     12879     12877     12880     12881
     12879     12877     12880     12882     12879     12877     12880     12883
     12880     12883     12885     12886     12880     12883     12885     12887
     12880     12883     12885     12888     12880     12883     12888     12885
     12880     12883     12888     12889     12880     12883     12888     12890
     12881     12880     12883     12884     12881     12880     12883     12885
     12881     12880     12883     12888     12882     12880     12883     12884
     12882     12880     12883     12885     12882     12880     12883     12888
     12883     12885     12888     12889     12883     12885     12888     12890
     12883     12888     12885     12886     12883     12888     12885     12887
     12883     12888     12890     12891     12883     12888     12890     12892
     12883     12888     12890     12893     12884     12883     12885     12886
     12884     12883     12885     12887     12884     12883     12885     12888
     12884     12883     12888     12885     12884     12883     12888     12889
     12884     12883     12888     12890     12885     12883     12888     12889
     12885     12883     12888     12890     12885     12888     12890     12891
     12885     12888     12890     12892     12885     12888     12890     12893
     12886     12885     12883     12888     12886     12885     12888     12889
     12886     12885     12888     12890     12887     12885     12883     12888
     12887     12885     12888     12889     12887     12885     12888     12890
     12888     12890     12893     12894     12888     12890     12893     12895
     12888     12890     12893     12896     12889     12888     12890     12891
     12889     12888     12890     12892     12889     12888     12890     12893
     12890     12893     12896     12897     12890     12893     12896     12898
     12890     12893     12896     12899     12891     12890     12893     12894
     12891     12890     12893     12895     12891     12890     12893     12896
     12892     12890     12893     12894     12892     12890     12893     12895
     12892     12890     12893     12896     12893     12896     12899     12900
     12893     12896     12899     12901     12893     12896     12899     12902
     12894     12893     12896     12897     12894     12893     12896     12898
     12894     12893     12896     12899     12895     12893     12896     12897
     12895     12893     12896     12898     12895     12893     12896     12899
     12896     12899     12902     12903     12896     12899     12902     12904
     12896     12899     12902     12905     12897     12896     12899     12900
     12897     12896     12899     12901     12897     12896     12899     12902
     12898     12896     12899     12900     12898     12896     12899     12901
     12898     12896     12899     12902     12899     12902     12905     12906
     12899     12902     12905     12907     12899     12902     12905     12908
     12900     12899     12902     12903     12900     12899     12902     12904
     12900     12899     12902     12905     12901     12899     12902     12903
     12901     12899     12902     12904     12901     12899     12902     12905
     12903     12902     12905     12906     12903     12902     12905     12907
     12903     12902     12905     12908     12904     12902     12905     12906
     12904     12902     12905     12907     12904     12902     12905     12908
     12909     12912     12915     12916     12909     12912     12915     12917
     12909     12912     12915     12918     12910     12909     12912     12913
     12910     12909     12912     12914     12910     12909     12912     12915
     12911     12909     12912     12913     12911     12909     12912     12914
     12911     12909     12912     12915     12912     12915     12918     12919
     12912     12915     12918     12920     12912     12915     12918     12921
     12913     12912     12915     12916     12913     12912     12915     12917
     12913     12912     12915     12918     12914     12912     12915     12916
     12914     12912     12915     12917     12914     12912     12915     12918
     12915     12918     12921     12922     12915     12918     12921     12923
     12915     12918     12921     12924     12916     12915     12918     12919
     12916     12915     12918     12920     12916     12915     12918     12921
     12917     12915     12918     12919     12917     12915     12918     12920
     12917     12915     12918     12921     12918     12921     12924     12925
     12918     12921     12924     12926     12918     12921     12924     12927
     12919     12918     12921     12922     12919     12918     12921     12923
     12919     12918     12921     12924     12920     12918     12921     12922
     12920     12918     12921     12923     12920     12918     12921     12924
     12921     12924     12927     12928     12921     12924     12927     12929
     12921     12924     12927     12930     12922     12921     12924     12925
     12922     12921     12924     12926     12922     12921     12924     12927
     12923     12921     12924     12925     12923     12921     12924     12926
     12923     12921     12924     12927     12924     12927     12930     12931
     12924     12927     12930     12932     12924     12927     12930     12933
     12925     12924     12927     12928     12925     12924     12927     12929
     12925     12924     12927     12930     12926     12924     12927     12928
     12926     12924     12927     12929     12926     12924     12927     12930
     12927     12930     12933     12934     12927     12930     12933     12935
     12927     12930     12933     12936     12928     12927     12930     12931
     12928     12927     12930     12932     12928     12927     12930     12933
     12929     12927     12930     12931     12929     12927     12930     12932
     12929     12927     12930     12933     12930     12933     12936     12937
     12930     12933     12936     12938     12930     12933     12936     12939
     12931     12930     12933     12934     12931     12930     12933     12935
     12931     12930     12933     12936     12932     12930     12933     12934
     12932     12930     12933     12935     12932     12930     12933     12936
     12933     12936     12939     12940     12933     12936     12939     12941
     12933     12936     12939     12942     12934     12933     12936     12937
     12934     12933     12936     12938     12934     12933     12936     12939
     12935     12933     12936     12937     12935     12933     12936     12938
     12935     12933     12936     12939     12936     12939     12942     12943
     12936     12939     12942     12944     12936     12939     12942     12945
     12937     12936     12939     12940     12937     12936     12939     12941
     12937     12936     12939     12942     12938     12936     12939     12940
     12938     12936     12939     12941     12938     12936     12939     12942
     12939     12942     12945     12946     12939     12942     12945     12947
     12939     12942     12945     12948     12940     12939     12942     12943
     12940     12939     12942     12944     12940     12939     12942     12945
     12941     12939     12942     12943     12941     12939     12942     12944
     12941     12939     12942     12945     12942     12945     12948     12949
     12942     12945     12948     12950     12942     12945     12948     12951
     12943     12942     12945     12946     12943     12942     12945     12947
     12943     12942     12945     12948     12944     12942     12945     12946
     12944     12942     12945     12947     12944     12942     12945     12948
     12946     12945     12948     12949     12946     12945     12948     12950
     12946     12945     12948     12951     12947     12945     12948     12949
     12947     12945     12948     12950     12947     12945     12948     12951
     12952     12956     12959     12960     12952     12956     12959     12961
     12952     12956     12959     12966     12953     12952     12956     12957
     12953     12952     12956     12958     12953     12952     12956     12959
     12954     12952     12956     12957     12954     12952     12956     12958
     12954     12952     12956     12959     12955     12952     12956     12957
     12955     12952     12956     12958     12955     12952     12956     12959
     12956     12959     12966     12962     12957     12956     12959     12960
     12957     12956     12959     12961     12957     12956     12959     12966
     12958     12956     12959     12960     12958     12956     12959     12961
     12958     12956     12959     12966     12959     12966     12962     12963
     12959     12966     12962     12964     12959     12966     12962     12965
     12960     12959     12966     12962     12961     12959     12966     12962
     12962     12965     12967     12968     12962     12965     12967     12969
     12962     12965     12967     12970     12963     12962     12965     12967
     12964     12962     12965     12967     12965     12967     12970     12971
     12965     12967     12970     12972     12965     12967     12970     12978
     12966     12962     12965     12967     12967     12970     12972     12973
     12967     12970     12978     12979     12967     12970     12978     12980
     12967     12970     12978     12981     12968     12967     12970     12971
     12968     12967     12970     12972     12968     12967     12970     12978
     12969     12967     12970     12971     12969     12967     12970     12972
     12969     12967     12970     12978     12970     12972     12973     12974
     12970     12972     12973     12975     12970     12978     12981     12982
     12971     12970     12972     12973     12971     12970     12978     12979
     12971     12970     12978     12980     12971     12970     12978     12981
     12972     12970     12978     12979     12972     12970     12978     12980
     12972     12970     12978     12981     12972     12973     12975     12976
     12972     12973     12975     12977     12972     12973     12975     12987
     12973     12972     12970     12978     12973     12975     12987     12988
     12973     12975     12987     12989     12973     12975     12987     12990
     12974     12973     12975     12976     12974     12973     12975     12977
     12974     12973     12975     12987     12975     12987     12990     12991
     12975     12987     12990     12992     12975     12987     12990     12993
     12976     12975     12987     12988     12976     12975     12987     12989
     12976     12975     12987     12990     12977     12975     12987     12988
     12977     12975     12987     12989     12977     12975     12987     12990
     12978     12981     12982     12983     12978     12981     12982     12984
     12979     12978     12981     12982     12980     12978     12981     12982
     12981     12982     12984     12985     12981     12982     12984     12986
     12981     12982     12984     13031     12982     12984     13031     13032
     12982     12984     13031     13033     12982     12984     13031     13034
     12983     12982     12984     12985     12983     12982     12984     12986
     12983     12982     12984     13031     12984     13031     13034     13035
     12984     13031     13034     13036     12984     13031     13034     13037
     12985     12984     13031     13032     12985     12984     13031     13033
     12985     12984     13031     13034     12986     12984     13031     13032
     12986     12984     13031     13033     12986     12984     13031     13034
     12987     12990     12993     12994     12987     12990     12993     12995
     12987     12990     12993     12996     12988     12987     12990     12991
     12988     12987     12990     12992     12988     12987     12990     12993
     12989     12987     12990     12991     12989     12987     12990     12992
     12989     12987     12990     12993     12990     12993     12996     12997
     12990     12993     12996     12998     12990     12993     12996     12999
     12991     12990     12993     12994     12991     12990     12993     12995
     12991     12990     12993     12996     12992     12990     12993     12994
     12992     12990     12993     12995     12992     12990     12993     12996
     12993     12996     12999     13000     12993     12996     12999     13001
     12993     12996     12999     13002     12994     12993     12996     12997
     12994     12993     12996     12998     12994     12993     12996     12999
     12995     12993     12996     12997     12995     12993     12996     12998
     12995     12993     12996     12999     12996     12999     13002     13003
     12996     12999     13002     13004     12996     12999     13002     13005
     12997     12996     12999     13000     12997     12996     12999     13001
     12997     12996     12999     13002     12998     12996     12999     13000
     12998     12996     12999     13001     12998     12996     12999     13002
     12999     13002     13005     13006     12999     13002     13005     13007
     12999     13002     13005     13010     13000     12999     13002     13003
     13000     12999     13002     13004     13000     12999     13002     13005
     13001     12999     13002     13003     13001     12999     13002     13004
     13001     12999     13002     13005     13002     13005     13007     13008
     13002     13005     13007     13009     13002     13005     13007     13010
     13002     13005     13010     13007     13002     13005     13010     13011
     13002     13005     13010     13012     13003     13002     13005     13006
     13003     13002     13005     13007     13003     13002     13005     13010
     13004     13002     13005     13006     13004     13002     13005     13007
     13004     13002     13005     13010     13005     13007     13010     13011
     13005     13007     13010     13012     13005     13010     13007     13008
     13005     13010     13007     13009     13005     13010     13012     13013
     13005     13010     13012     13014     13005     13010     13012     13015
     13006     13005     13007     13008     13006     13005     13007     13009
     13006     13005     13007     13010     13006     13005     13010     13007
     13006     13005     13010     13011     13006     13005     13010     13012
     13007     13005     13010     13011     13007     13005     13010     13012
     13007     13010     13012     13013     13007     13010     13012     13014
     13007     13010     13012     13015     13008     13007     13005     13010
     13008     13007     13010     13011     13008     13007     13010     13012
     13009     13007     13005     13010     13009     13007     13010     13011
     13009     13007     13010     13012     13010     13012     13015     13016
     13010     13012     13015     13017     13010     13012     13015     13018
     13011     13010     13012     13013     13011     13010     13012     13014
     13011     13010     13012     13015     13012     13015     13018     13019
     13012     13015     13018     13020     13012     13015     13018     13021
     13013     13012     13015     13016     13013     13012     13015     13017
     13013     13012     13015     13018     13014     13012     13015     13016
     13014     13012     13015     13017     13014     13012     13015     13018
     13015     13018     13021     13022     13015     13018     13021     13023
     13015     13018     13021     13024     13016     13015     13018     13019
     13016     13015     13018     13020     13016     13015     13018     13021
     13017     13015     13018     13019     13017     13015     13018     13020
     13017     13015     13018     13021     13018     13021     13024     13025
     13018     13021     13024     13026     13018     13021     13024     13027
     13019     13018     13021     13022     13019     13018     13021     13023
     13019     13018     13021     13024     13020     13018     13021     13022
     13020     13018     13021     13023     13020     13018     13021     13024
     13021     13024     13027     13028     13021     13024     13027     13029
     13021     13024     13027     13030     13022     13021     13024     13025
     13022     13021     13024     13026     13022     13021     13024     13027
     13023     13021     13024     13025     13023     13021     13024     13026
     13023     13021     13024     13027     13025     13024     13027     13028
     13025     13024     13027     13029     13025     13024     13027     13030
     13026     13024     13027     13028     13026     13024     13027     13029
     13026     13024     13027     13030     13031     13034     13037     13038
     13031     13034     13037     13039     13031     13034     13037     13040
     13032     13031     13034     13035     13032     13031     13034     13036
     13032     13031     13034     13037     13033     13031     13034     13035
     13033     13031     13034     13036     13033     13031     13034     13037
     13034     13037     13040     13041     13034     13037     13040     13042
     13034     13037     13040     13043     13035     13034     13037     13038
     13035     13034     13037     13039     13035     13034     13037     13040
     13036     13034     13037     13038     13036     13034     13037     13039
     13036     13034     13037     13040     13037     13040     13043     13044
     13037     13040     13043     13045     13037     13040     13043     13046
     13038     13037     13040     13041     13038     13037     13040     13042
     13038     13037     13040     13043     13039     13037     13040     13041
     13039     13037     13040     13042     13039     13037     13040     13043
     13040     13043     13046     13047     13040     13043     13046     13048
     13040     13043     13046     13049     13041     13040     13043     13044
     13041     13040     13043     13045     13041     13040     13043     13046
     13042     13040     13043     13044     13042     13040     13043     13045
     13042     13040     13043     13046     13043     13046     13049     13050
     13043     13046     13049     13051     13043     13046     13049     13052
     13044     13043     13046     13047     13044     13043     13046     13048
     13044     13043     13046     13049     13045     13043     13046     13047
     13045     13043     13046     13048     13045     13043     13046     13049
     13046     13049     13052     13053     13046     13049     13052     13054
     13046     13049     13052     13055     13047     13046     13049     13050
     13047     13046     13049     13051     13047     13046     13049     13052
     13048     13046     13049     13050     13048     13046     13049     13051
     13048     13046     13049     13052     13049     13052     13055     13056
     13049     13052     13055     13057     13049     13052     13055     13058
     13050     13049     13052     13053     13050     13049     13052     13054
     13050     13049     13052     13055     13051     13049     13052     13053
     13051     13049     13052     13054     13051     13049     13052     13055
     13052     13055     13058     13059     13052     13055     13058     13060
     13052     13055     13058     13061     13053     13052     13055     13056
     13053     13052     13055     13057     13053     13052     13055     13058
     13054     13052     13055     13056     13054     13052     13055     13057
     13054     13052     13055     13058     13055     13058     13061     13062
     13055     13058     13061     13063     13055     13058     13061     13064
     13056     13055     13058     13059     13056     13055     13058     13060
     13056     13055     13058     13061     13057     13055     13058     13059
     13057     13055     13058     13060     13057     13055     13058     13061
     13058     13061     13064     13065     13058     13061     13064     13066
     13058     13061     13064     13067     13059     13058     13061     13062
     13059     13058     13061     13063     13059     13058     13061     13064
     13060     13058     13061     13062     13060     13058     13061     13063
     13060     13058     13061     13064     13061     13064     13067     13068
     13061     13064     13067     13069     13061     13064     13067     13070
     13062     13061     13064     13065     13062     13061     13064     13066
     13062     13061     13064     13067     13063     13061     13064     13065
     13063     13061     13064     13066     13063     13061     13064     13067
     13065     13064     13067     13068     13065     13064     13067     13069
     13065     13064     13067     13070     13066     13064     13067     13068
     13066     13064     13067     13069     13066     13064     13067     13070
     13071     13075     13078     13079     13071     13075     13078     13080
     13071     13075     13078     13085     13072     13071     13075     13076
     13072     13071     13075     13077     13072     13071     13075     13078
     13073     13071     13075     13076     13073     13071     13075     13077
     13073     13071     13075     13078     13074     13071     13075     13076
     13074     13071     13075     13077     13074     13071     13075     13078
     13075     13078     13085     13081     13076     13075     13078     13079
     13076     13075     13078     13080     13076     13075     13078     13085
     13077     13075     13078     13079     13077     13075     13078     13080
     13077     13075     13078     13085     13078     13085     13081     13082
     13078     13085     13081     13083     13078     13085     13081     13084
     13079     13078     13085     13081     13080     13078     13085     13081
     13081     13084     13086     13087     13081     13084     13086     13088
     13081     13084     13086     13089     13082     13081     13084     13086
     13083     13081     13084     13086     13084     13086     13089     13090
     13084     13086     13089     13091     13084     13086     13089     13097
     13085     13081     13084     13086     13086     13089     13091     13092
     13086     13089     13097     13098     13086     13089     13097     13099
     13086     13089     13097     13100     13087     13086     13089     13090
     13087     13086     13089     13091     13087     13086     13089     13097
     13088     13086     13089     13090     13088     13086     13089     13091
     13088     13086     13089     13097     13089     13091     13092     13093
     13089     13091     13092     13094     13089     13097     13100     13101
     13090     13089     13091     13092     13090     13089     13097     13098
     13090     13089     13097     13099     13090     13089     13097     13100
     13091     13089     13097     13098     13091     13089     13097     13099
     13091     13089     13097     13100     13091     13092     13094     13095
     13091     13092     13094     13096     13091     13092     13094     13106
     13092     13091     13089     13097     13092     13094     13106     13107
     13092     13094     13106     13108     13092     13094     13106     13109
     13093     13092     13094     13095     13093     13092     13094     13096
     13093     13092     13094     13106     13094     13106     13109     13110
     13094     13106     13109     13111     13094     13106     13109     13112
     13095     13094     13106     13107     13095     13094     13106     13108
     13095     13094     13106     13109     13096     13094     13106     13107
     13096     13094     13106     13108     13096     13094     13106     13109
     13097     13100     13101     13102     13097     13100     13101     13103
     13098     13097     13100     13101     13099     13097     13100     13101
     13100     13101     13103     13104     13100     13101     13103     13105
     13100     13101     13103     13150     13101     13103     13150     13151
     13101     13103     13150     13152     13101     13103     13150     13153
     13102     13101     13103     13104     13102     13101     13103     13105
     13102     13101     13103     13150     13103     13150     13153     13154
     13103     13150     13153     13155     13103     13150     13153     13156
     13104     13103     13150     13151     13104     13103     13150     13152
     13104     13103     13150     13153     13105     13103     13150     13151
     13105     13103     13150     13152     13105     13103     13150     13153
     13106     13109     13112     13113     13106     13109     13112     13114
     13106     13109     13112     13115     13107     13106     13109     13110
     13107     13106     13109     13111     13107     13106     13109     13112
     13108     13106     13109     13110     13108     13106     13109     13111
     13108     13106     13109     13112     13109     13112     13115     13116
     13109     13112     13115     13117     13109     13112     13115     13118
     13110     13109     13112     13113     13110     13109     13112     13114
     13110     13109     13112     13115     13111     13109     13112     13113
     13111     13109     13112     13114     13111     13109     13112     13115
     13112     13115     13118     13119     13112     13115     13118     13120
     13112     13115     13118     13121     13113     13112     13115     13116
     13113     13112     13115     13117     13113     13112     13115     13118
     13114     13112     13115     13116     13114     13112     13115     13117
     13114     13112     13115     13118     13115     13118     13121     13122
     13115     13118     13121     13123     13115     13118     13121     13124
     13116     13115     13118     13119     13116     13115     13118     13120
     13116     13115     13118     13121     13117     13115     13118     13119
     13117     13115     13118     13120     13117     13115     13118     13121
     13118     13121     13124     13125     13118     13121     13124     13126
     13118     13121     13124     13129     13119     13118     13121     13122
     13119     13118     13121     13123     13119     13118     13121     13124
     13120     13118     13121     13122     13120     13118     13121     13123
     13120     13118     13121     13124     13121     13124     13126     13127
     13121     13124     13126     13128     13121     13124     13126     13129
     13121     13124     13129     13126     13121     13124     13129     13130
     13121     13124     13129     13131     13122     13121     13124     13125
     13122     13121     13124     13126     13122     13121     13124     13129
     13123     13121     13124     13125     13123     13121     13124     13126
     13123     13121     13124     13129     13124     13126     13129     13130
     13124     13126     13129     13131     13124     13129     13126     13127
     13124     13129     13126     13128     13124     13129     13131     13132
     13124     13129     13131     13133     13124     13129     13131     13134
     13125     13124     13126     13127     13125     13124     13126     13128
     13125     13124     13126     13129     13125     13124     13129     13126
     13125     13124     13129     13130     13125     13124     13129     13131
     13126     13124     13129     13130     13126     13124     13129     13131
     13126     13129     13131     13132     13126     13129     13131     13133
     13126     13129     13131     13134     13127     13126     13124     13129
     13127     13126     13129     13130     13127     13126     13129     13131
     13128     13126     13124     13129     13128     13126     13129     13130
     13128     13126     13129     13131     13129     13131     13134     13135
     13129     13131     13134     13136     13129     13131     13134     13137
     13130     13129     13131     13132     13130     13129     13131     13133
     13130     13129     13131     13134     13131     13134     13137     13138
     13131     13134     13137     13139     13131     13134     13137     13140
     13132     13131     13134     13135     13132     13131     13134     13136
     13132     13131     13134     13137     13133     13131     13134     13135
     13133     13131     13134     13136     13133     13131     13134     13137
     13134     13137     13140     13141     13134     13137     13140     13142
     13134     13137     13140     13143     13135     13134     13137     13138
     13135     13134     13137     13139     13135     13134     13137     13140
     13136     13134     13137     13138     13136     13134     13137     13139
     13136     13134     13137     13140     13137     13140     13143     13144
     13137     13140     13143     13145     13137     13140     13143     13146
     13138     13137     13140     13141     13138     13137     13140     13142
     13138     13137     13140     13143     13139     13137     13140     13141
     13139     13137     13140     13142     13139     13137     13140     13143
     13140     13143     13146     13147     13140     13143     13146     13148
     13140     13143     13146     13149     13141     13140     13143     13144
     13141     13140     13143     13145     13141     13140     13143     13146
     13142     13140     13143     13144     13142     13140     13143     13145
     13142     13140     13143     13146     13144     13143     13146     13147
     13144     13143     13146     13148     13144     13143     13146     13149
     13145     13143     13146     13147     13145     13143     13146     13148
     13145     13143     13146     13149     13150     13153     13156     13157
     13150     13153     13156     13158     13150     13153     13156     13159
     13151     13150     13153     13154     13151     13150     13153     13155
     13151     13150     13153     13156     13152     13150     13153     13154
     13152     13150     13153     13155     13152     13150     13153     13156
     13153     13156     13159     13160     13153     13156     13159     13161
     13153     13156     13159     13162     13154     13153     13156     13157
     13154     13153     13156     13158     13154     13153     13156     13159
     13155     13153     13156     13157     13155     13153     13156     13158
     13155     13153     13156     13159     13156     13159     13162     13163
     13156     13159     13162     13164     13156     13159     13162     13165
     13157     13156     13159     13160     13157     13156     13159     13161
     13157     13156     13159     13162     13158     13156     13159     13160
     13158     13156     13159     13161     13158     13156     13159     13162
     13159     13162     13165     13166     13159     13162     13165     13167
     13159     13162     13165     13168     13160     13159     13162     13163
     13160     13159     13162     13164     13160     13159     13162     13165
     13161     13159     13162     13163     13161     13159     13162     13164
     13161     13159     13162     13165     13162     13165     13168     13169
     13162     13165     13168     13170     13162     13165     13168     13171
     13163     13162     13165     13166     13163     13162     13165     13167
     13163     13162     13165     13168     13164     13162     13165     13166
     13164     13162     13165     13167     13164     13162     13165     13168
     13165     13168     13171     13172     13165     13168     13171     13173
     13165     13168     13171     13174     13166     13165     13168     13169
     13166     13165     13168     13170     13166     13165     13168     13171
     13167     13165     13168     13169     13167     13165     13168     13170
     13167     13165     13168     13171     13168     13171     13174     13175
     13168     13171     13174     13176     13168     13171     13174     13177
     13169     13168     13171     13172     13169     13168     13171     13173
     13169     13168     13171     13174     13170     13168     13171     13172
     13170     13168     13171     13173     13170     13168     13171     13174
     13171     13174     13177     13178     13171     13174     13177     13179
     13171     13174     13177     13180     13172     13171     13174     13175
     13172     13171     13174     13176     13172     13171     13174     13177
     13173     13171     13174     13175     13173     13171     13174     13176
     13173     13171     13174     13177     13174     13177     13180     13181
     13174     13177     13180     13182     13174     13177     13180     13183
     13175     13174     13177     13178     13175     13174     13177     13179
     13175     13174     13177     13180     13176     13174     13177     13178
     13176     13174     13177     13179     13176     13174     13177     13180
     13177     13180     13183     13184     13177     13180     13183     13185
     13177     13180     13183     13186     13178     13177     13180     13181
     13178     13177     13180     13182     13178     13177     13180     13183
     13179     13177     13180     13181     13179     13177     13180     13182
     13179     13177     13180     13183     13180     13183     13186     13187
     13180     13183     13186     13188     13180     13183     13186     13189
     13181     13180     13183     13184     13181     13180     13183     13185
     13181     13180     13183     13186     13182     13180     13183     13184
     13182     13180     13183     13185     13182     13180     13183     13186
     13184     13183     13186     13187     13184     13183     13186     13188
     13184     13183     13186     13189     13185     13183     13186     13187
     13185     13183     13186     13188     13185     13183     13186     13189
     13190     13194     13197     13198     13190     13194     13197     13199
     13190     13194     13197     13204     13191     13190     13194     13195
     13191     13190     13194     13196     13191     13190     13194     13197
     13192     13190     13194     13195     13192     13190     13194     13196
     13192     13190     13194     13197     13193     13190     13194     13195
     13193     13190     13194     13196     13193     13190     13194     13197
     13194     13197     13204     13200     13195     13194     13197     13198
     13195     13194     13197     13199     13195     13194     13197     13204
     13196     13194     13197     13198     13196     13194     13197     13199
     13196     13194     13197     13204     13197     13204     13200     13201
     13197     13204     13200     13202     13197     13204     13200     13203
     13198     13197     13204     13200     13199     13197     13204     13200
     13200     13203     13205     13206     13200     13203     13205     13207
     13200     13203     13205     13208     13201     13200     13203     13205
     13202     13200     13203     13205     13203     13205     13208     13209
     13203     13205     13208     13210     13203     13205     13208     13216
     13204     13200     13203     13205     13205     13208     13210     13211
     13205     13208     13216     13217     13205     13208     13216     13218
     13205     13208     13216     13219     13206     13205     13208     13209
     13206     13205     13208     13210     13206     13205     13208     13216
     13207     13205     13208     13209     13207     13205     13208     13210
     13207     13205     13208     13216     13208     13210     13211     13212
     13208     13210     13211     13213     13208     13216     13219     13220
     13209     13208     13210     13211     13209     13208     13216     13217
     13209     13208     13216     13218     13209     13208     13216     13219
     13210     13208     13216     13217     13210     13208     13216     13218
     13210     13208     13216     13219     13210     13211     13213     13214
     13210     13211     13213     13215     13210     13211     13213     13225
     13211     13210     13208     13216     13211     13213     13225     13226
     13211     13213     13225     13227     13211     13213     13225     13228
     13212     13211     13213     13214     13212     13211     13213     13215
     13212     13211     13213     13225     13213     13225     13228     13229
     13213     13225     13228     13230     13213     13225     13228     13231
     13214     13213     13225     13226     13214     13213     13225     13227
     13214     13213     13225     13228     13215     13213     13225     13226
     13215     13213     13225     13227     13215     13213     13225     13228
     13216     13219     13220     13221     13216     13219     13220     13222
     13217     13216     13219     13220     13218     13216     13219     13220
     13219     13220     13222     13223     13219     13220     13222     13224
     13219     13220     13222     13269     13220     13222     13269     13270
     13220     13222     13269     13271     13220     13222     13269     13272
     13221     13220     13222     13223     13221     13220     13222     13224
     13221     13220     13222     13269     13222     13269     13272     13273
     13222     13269     13272     13274     13222     13269     13272     13275
     13223     13222     13269     13270     13223     13222     13269     13271
     13223     13222     13269     13272     13224     13222     13269     13270
     13224     13222     13269     13271     13224     13222     13269     13272
     13225     13228     13231     13232     13225     13228     13231     13233
     13225     13228     13231     13234     13226     13225     13228     13229
     13226     13225     13228     13230     13226     13225     13228     13231
     13227     13225     13228     13229     13227     13225     13228     13230
     13227     13225     13228     13231     13228     13231     13234     13235
     13228     13231     13234     13236     13228     13231     13234     13237
     13229     13228     13231     13232     13229     13228     13231     13233
     13229     13228     13231     13234     13230     13228     13231     13232
     13230     13228     13231     13233     13230     13228     13231     13234
     13231     13234     13237     13238     13231     13234     13237     13239
     13231     13234     13237     13240     13232     13231     13234     13235
     13232     13231     13234     13236     13232     13231     13234     13237
     13233     13231     13234     13235     13233     13231     13234     13236
     13233     13231     13234     13237     13234     13237     13240     13241
     13234     13237     13240     13242     13234     13237     13240     13243
     13235     13234     13237     13238     13235     13234     13237     13239
     13235     13234     13237     13240     13236     13234     13237     13238
     13236     13234     13237     13239     13236     13234     13237     13240
     13237     13240     13243     13244     13237     13240     13243     13245
     13237     13240     13243     13248     13238     13237     13240     13241
     13238     13237     13240     13242     13238     13237     13240     13243
     13239     13237     13240     13241     13239     13237     13240     13242
     13239     13237     13240     13243     13240     13243     13245     13246
     13240     13243     13245     13247     13240     13243     13245     13248
     13240     13243     13248     13245     13240     13243     13248     13249
     13240     13243     13248     13250     13241     13240     13243     13244
     13241     13240     13243     13245     13241     13240     13243     13248
     13242     13240     13243     13244     13242     13240     13243     13245
     13242     13240     13243     13248     13243     13245     13248     13249
     13243     13245     13248     13250     13243     13248     13245     13246
     13243     13248     13245     13247     13243     13248     13250     13251
     13243     13248     13250     13252     13243     13248     13250     13253
     13244     13243     13245     13246     13244     13243     13245     13247
     13244     13243     13245     13248     13244     13243     13248     13245
     13244     13243     13248     13249     13244     13243     13248     13250
     13245     13243     13248     13249     13245     13243     13248     13250
     13245     13248     13250     13251     13245     13248     13250     13252
     13245     13248     13250     13253     13246     13245     13243     13248
     13246     13245     13248     13249     13246     13245     13248     13250
     13247     13245     13243     13248     13247     13245     13248     13249
     13247     13245     13248     13250     13248     13250     13253     13254
     13248     13250     13253     13255     13248     13250     13253     13256
     13249     13248     13250     13251     13249     13248     13250     13252
     13249     13248     13250     13253     13250     13253     13256     13257
     13250     13253     13256     13258     13250     13253     13256     13259
     13251     13250     13253     13254     13251     13250     13253     13255
     13251     13250     13253     13256     13252     13250     13253     13254
     13252     13250     13253     13255     13252     13250     13253     13256
     13253     13256     13259     13260     13253     13256     13259     13261
     13253     13256     13259     13262     13254     13253     13256     13257
     13254     13253     13256     13258     13254     13253     13256     13259
     13255     13253     13256     13257     13255     13253     13256     13258
     13255     13253     13256     13259     13256     13259     13262     13263
     13256     13259     13262     13264     13256     13259     13262     13265
     13257     13256     13259     13260     13257     13256     13259     13261
     13257     13256     13259     13262     13258     13256     13259     13260
     13258     13256     13259     13261     13258     13256     13259     13262
     13259     13262     13265     13266     13259     13262     13265     13267
     13259     13262     13265     13268     13260     13259     13262     13263
     13260     13259     13262     13264     13260     13259     13262     13265
     13261     13259     13262     13263     13261     13259     13262     13264
     13261     13259     13262     13265     13263     13262     13265     13266
     13263     13262     13265     13267     13263     13262     13265     13268
     13264     13262     13265     13266     13264     13262     13265     13267
     13264     13262     13265     13268     13269     13272     13275     13276
     13269     13272     13275     13277     13269     13272     13275     13278
     13270     13269     13272     13273     13270     13269     13272     13274
     13270     13269     13272     13275     13271     13269     13272     13273
     13271     13269     13272     13274     13271     13269     13272     13275
     13272     13275     13278     13279     13272     13275     13278     13280
     13272     13275     13278     13281     13273     13272     13275     13276
     13273     13272     13275     13277     13273     13272     13275     13278
     13274     13272     13275     13276     13274     13272     13275     13277
     13274     13272     13275     13278     13275     13278     13281     13282
     13275     13278     13281     13283     13275     13278     13281     13284
     13276     13275     13278     13279     13276     13275     13278     13280
     13276     13275     13278     13281     13277     13275     13278     13279
     13277     13275     13278     13280     13277     13275     13278     13281
     13278     13281     13284     13285     13278     13281     13284     13286
     13278     13281     13284     13287     13279     13278     13281     13282
     13279     13278     13281     13283     13279     13278     13281     13284
     13280     13278     13281     13282     13280     13278     13281     13283
     13280     13278     13281     13284     13281     13284     13287     13288
     13281     13284     13287     13289     13281     13284     13287     13290
     13282     13281     13284     13285     13282     13281     13284     13286
     13282     13281     13284     13287     13283     13281     13284     13285
     13283     13281     13284     13286     13283     13281     13284     13287
     13284     13287     13290     13291     13284     13287     13290     13292
     13284     13287     13290     13293     13285     13284     13287     13288
     13285     13284     13287     13289     13285     13284     13287     13290
     13286     13284     13287     13288     13286     13284     13287     13289
     13286     13284     13287     13290     13287     13290     13293     13294
     13287     13290     13293     13295     13287     13290     13293     13296
     13288     13287     13290     13291     13288     13287     13290     13292
     13288     13287     13290     13293     13289     13287     13290     13291
     13289     13287     13290     13292     13289     13287     13290     13293
     13290     13293     13296     13297     13290     13293     13296     13298
     13290     13293     13296     13299     13291     13290     13293     13294
     13291     13290     13293     13295     13291     13290     13293     13296
     13292     13290     13293     13294     13292     13290     13293     13295
     13292     13290     13293     13296     13293     13296     13299     13300
     13293     13296     13299     13301     13293     13296     13299     13302
     13294     13293     13296     13297     13294     13293     13296     13298
     13294     13293     13296     13299     13295     13293     13296     13297
     13295     13293     13296     13298     13295     13293     13296     13299
     13296     13299     13302     13303     13296     13299     13302     13304
     13296     13299     13302     13305     13297     13296     13299     13300
     13297     13296     13299     13301     13297     13296     13299     13302
     13298     13296     13299     13300     13298     13296     13299     13301
     13298     13296     13299     13302     13299     13302     13305     13306
     13299     13302     13305     13307     13299     13302     13305     13308
     13300     13299     13302     13303     13300     13299     13302     13304
     13300     13299     13302     13305     13301     13299     13302     13303
     13301     13299     13302     13304     13301     13299     13302     13305
     13302     13305     13308     13309     13302     13305     13308     13310
     13302     13305     13308     13311     13303     13302     13305     13306
     13303     13302     13305     13307     13303     13302     13305     13308
     13304     13302     13305     13306     13304     13302     13305     13307
     13304     13302     13305     13308     13306     13305     13308     13309
     13306     13305     13308     13310     13306     13305     13308     13311
     13307     13305     13308     13309     13307     13305     13308     13310
     13307     13305     13308     13311     13312     13316     13319     13320
     13312     13316     13319     13321     13312     13316     13319     13326
     13313     13312     13316     13317     13313     13312     13316     13318
     13313     13312     13316     13319     13314     13312     13316     13317
     13314     13312     13316     13318     13314     13312     13316     13319
     13315     13312     13316     13317     13315     13312     13316     13318
     13315     13312     13316     13319     13316     13319     13326     13322
     13317     13316     13319     13320     13317     13316     13319     13321
     13317     13316     13319     13326     13318     13316     13319     13320
     13318     13316     13319     13321     13318     13316     13319     13326
     13319     13326     13322     13323     13319     13326     13322     13324
     13319     13326     13322     13325     13320     13319     13326     13322
     13321     13319     13326     13322     13322     13325     13327     13328
     13322     13325     13327     13329     13322     13325     13327     13330
     13323     13322     13325     13327     13324     13322     13325     13327
     13325     13327     13330     13331     13325     13327     13330     13332
     13325     13327     13330     13338     13326     13322     13325     13327
     13327     13330     13332     13333     13327     13330     13338     13339
     13327     13330     13338     13340     13327     13330     13338     13341
     13328     13327     13330     13331     13328     13327     13330     13332
     13328     13327     13330     13338     13329     13327     13330     13331
     13329     13327     13330     13332     13329     13327     13330     13338
     13330     13332     13333     13334     13330     13332     13333     13335
     13330     13338     13341     13342     13331     13330     13332     13333
     13331     13330     13338     13339     13331     13330     13338     13340
     13331     13330     13338     13341     13332     13330     13338     13339
     13332     13330     13338     13340     13332     13330     13338     13341
     13332     13333     13335     13336     13332     13333     13335     13337
     13332     13333     13335     13347     13333     13332     13330     13338
     13333     13335     13347     13348     13333     13335     13347     13349
     13333     13335     13347     13350     13334     13333     13335     13336
     13334     13333     13335     13337     13334     13333     13335     13347
     13335     13347     13350     13351     13335     13347     13350     13352
     13335     13347     13350     13353     13336     13335     13347     13348
     13336     13335     13347     13349     13336     13335     13347     13350
     13337     13335     13347     13348     13337     13335     13347     13349
     13337     13335     13347     13350     13338     13341     13342     13343
     13338     13341     13342     13344     13339     13338     13341     13342
     13340     13338     13341     13342     13341     13342     13344     13345
     13341     13342     13344     13346     13341     13342     13344     13391
     13342     13344     13391     13392     13342     13344     13391     13393
     13342     13344     13391     13394     13343     13342     13344     13345
     13343     13342     13344     13346     13343     13342     13344     13391
     13344     13391     13394     13395     13344     13391     13394     13396
     13344     13391     13394     13397     13345     13344     13391     13392
     13345     13344     13391     13393     13345     13344     13391     13394
     13346     13344     13391     13392     13346     13344     13391     13393
     13346     13344     13391     13394     13347     13350     13353     13354
     13347     13350     13353     13355     13347     13350     13353     13356
     13348     13347     13350     13351     13348     13347     13350     13352
     13348     13347     13350     13353     13349     13347     13350     13351
     13349     13347     13350     13352     13349     13347     13350     13353
     13350     13353     13356     13357     13350     13353     13356     13358
     13350     13353     13356     13359     13351     13350     13353     13354
     13351     13350     13353     13355     13351     13350     13353     13356
     13352     13350     13353     13354     13352     13350     13353     13355
     13352     13350     13353     13356     13353     13356     13359     13360
     13353     13356     13359     13361     13353     13356     13359     13362
     13354     13353     13356     13357     13354     13353     13356     13358
     13354     13353     13356     13359     13355     13353     13356     13357
     13355     13353     13356     13358     13355     13353     13356     13359
     13356     13359     13362     13363     13356     13359     13362     13364
     13356     13359     13362     13365     13357     13356     13359     13360
     13357     13356     13359     13361     13357     13356     13359     13362
     13358     13356     13359     13360     13358     13356     13359     13361
     13358     13356     13359     13362     13359     13362     13365     13366
     13359     13362     13365     13367     13359     13362     13365     13370
     13360     13359     13362     13363     13360     13359     13362     13364
     13360     13359     13362     13365     13361     13359     13362     13363
     13361     13359     13362     13364     13361     13359     13362     13365
     13362     13365     13367     13368     13362     13365     13367     13369
     13362     13365     13367     13370     13362     13365     13370     13367
     13362     13365     13370     13371     13362     13365     13370     13372
     13363     13362     13365     13366     13363     13362     13365     13367
     13363     13362     13365     13370     13364     13362     13365     13366
     13364     13362     13365     13367     13364     13362     13365     13370
     13365     13367     13370     13371     13365     13367     13370     13372
     13365     13370     13367     13368     13365     13370     13367     13369
     13365     13370     13372     13373     13365     13370     13372     13374
     13365     13370     13372     13375     13366     13365     13367     13368
     13366     13365     13367     13369     13366     13365     13367     13370
     13366     13365     13370     13367     13366     13365     13370     13371
     13366     13365     13370     13372     13367     13365     13370     13371
     13367     13365     13370     13372     13367     13370     13372     13373
     13367     13370     13372     13374     13367     13370     13372     13375
     13368     13367     13365     13370     13368     13367     13370     13371
     13368     13367     13370     13372     13369     13367     13365     13370
     13369     13367     13370     13371     13369     13367     13370     13372
     13370     13372     13375     13376     13370     13372     13375     13377
     13370     13372     13375     13378     13371     13370     13372     13373
     13371     13370     13372     13374     13371     13370     13372     13375
     13372     13375     13378     13379     13372     13375     13378     13380
     13372     13375     13378     13381     13373     13372     13375     13376
     13373     13372     13375     13377     13373     13372     13375     13378
     13374     13372     13375     13376     13374     13372     13375     13377
     13374     13372     13375     13378     13375     13378     13381     13382
     13375     13378     13381     13383     13375     13378     13381     13384
     13376     13375     13378     13379     13376     13375     13378     13380
     13376     13375     13378     13381     13377     13375     13378     13379
     13377     13375     13378     13380     13377     13375     13378     13381
     13378     13381     13384     13385     13378     13381     13384     13386
     13378     13381     13384     13387     13379     13378     13381     13382
     13379     13378     13381     13383     13379     13378     13381     13384
     13380     13378     13381     13382     13380     13378     13381     13383
     13380     13378     13381     13384     13381     13384     13387     13388
     13381     13384     13387     13389     13381     13384     13387     13390
     13382     13381     13384     13385     13382     13381     13384     13386
     13382     13381     13384     13387     13383     13381     13384     13385
     13383     13381     13384     13386     13383     13381     13384     13387
     13385     13384     13387     13388     13385     13384     13387     13389
     13385     13384     13387     13390     13386     13384     13387     13388
     13386     13384     13387     13389     13386     13384     13387     13390
     13391     13394     13397     13398     13391     13394     13397     13399
     13391     13394     13397     13400     13392     13391     13394     13395
     13392     13391     13394     13396     13392     13391     13394     13397
     13393     13391     13394     13395     13393     13391     13394     13396
     13393     13391     13394     13397     13394     13397     13400     13401
     13394     13397     13400     13402     13394     13397     13400     13403
     13395     13394     13397     13398     13395     13394     13397     13399
     13395     13394     13397     13400     13396     13394     13397     13398
     13396     13394     13397     13399     13396     13394     13397     13400
     13397     13400     13403     13404     13397     13400     13403     13405
     13397     13400     13403     13406     13398     13397     13400     13401
     13398     13397     13400     13402     13398     13397     13400     13403
     13399     13397     13400     13401     13399     13397     13400     13402
     13399     13397     13400     13403     13400     13403     13406     13407
     13400     13403     13406     13408     13400     13403     13406     13409
     13401     13400     13403     13404     13401     13400     13403     13405
     13401     13400     13403     13406     13402     13400     13403     13404
     13402     13400     13403     13405     13402     13400     13403     13406
     13403     13406     13409     13410     13403     13406     13409     13411
     13403     13406     13409     13412     13404     13403     13406     13407
     13404     13403     13406     13408     13404     13403     13406     13409
     13405     13403     13406     13407     13405     13403     13406     13408
     13405     13403     13406     13409     13406     13409     13412     13413
     13406     13409     13412     13414     13406     13409     13412     13415
     13407     13406     13409     13410     13407     13406     13409     13411
     13407     13406     13409     13412     13408     13406     13409     13410
     13408     13406     13409     13411     13408     13406     13409     13412
     13409     13412     13415     13416     13409     13412     13415     13417
     13409     13412     13415     13418     13410     13409     13412     13413
     13410     13409     13412     13414     13410     13409     13412     13415
     13411     13409     13412     13413     13411     13409     13412     13414
     13411     13409     13412     13415     13412     13415     13418     13419
     13412     13415     13418     13420     13412     13415     13418     13421
     13413     13412     13415     13416     13413     13412     13415     13417
     13413     13412     13415     13418     13414     13412     13415     13416
     13414     13412     13415     13417     13414     13412     13415     13418
     13415     13418     13421     13422     13415     13418     13421     13423
     13415     13418     13421     13424     13416     13415     13418     13419
     13416     13415     13418     13420     13416     13415     13418     13421
     13417     13415     13418     13419     13417     13415     13418     13420
     13417     13415     13418     13421     13418     13421     13424     13425
     13418     13421     13424     13426     13418     13421     13424     13427
     13419     13418     13421     13422     13419     13418     13421     13423
     13419     13418     13421     13424     13420     13418     13421     13422
     13420     13418     13421     13423     13420     13418     13421     13424
     13421     13424     13427     13428     13421     13424     13427     13429
     13421     13424     13427     13430     13422     13421     13424     13425
     13422     13421     13424     13426     13422     13421     13424     13427
     13423     13421     13424     13425     13423     13421     13424     13426
     13423     13421     13424     13427     13424     13427     13430     13431
     13424     13427     13430     13432     13424     13427     13430     13433
     13425     13424     13427     13428     13425     13424     13427     13429
     13425     13424     13427     13430     13426     13424     13427     13428
     13426     13424     13427     13429     13426     13424     13427     13430
     13428     13427     13430     13431     13428     13427     13430     13432
     13428     13427     13430     13433     13429     13427     13430     13431
     13429     13427     13430     13432     13429     13427     13430     13433
     13434     13438     13441     13442     13434     13438     13441     13443
     13434     13438     13441     13448     13435     13434     13438     13439
     13435     13434     13438     13440     13435     13434     13438     13441
     13436     13434     13438     13439     13436     13434     13438     13440
     13436     13434     13438     13441     13437     13434     13438     13439
     13437     13434     13438     13440     13437     13434     13438     13441
     13438     13441     13448     13444     13439     13438     13441     13442
     13439     13438     13441     13443     13439     13438     13441     13448
     13440     13438     13441     13442     13440     13438     13441     13443
     13440     13438     13441     13448     13441     13448     13444     13445
     13441     13448     13444     13446     13441     13448     13444     13447
     13442     13441     13448     13444     13443     13441     13448     13444
     13444     13447     13449     13450     13444     13447     13449     13451
     13444     13447     13449     13452     13445     13444     13447     13449
     13446     13444     13447     13449     13447     13449     13452     13453
     13447     13449     13452     13454     13447     13449     13452     13460
     13448     13444     13447     13449     13449     13452     13454     13455
     13449     13452     13460     13461     13449     13452     13460     13462
     13449     13452     13460     13463     13450     13449     13452     13453
     13450     13449     13452     13454     13450     13449     13452     13460
     13451     13449     13452     13453     13451     13449     13452     13454
     13451     13449     13452     13460     13452     13454     13455     13456
     13452     13454     13455     13457     13452     13460     13463     13464
     13453     13452     13454     13455     13453     13452     13460     13461
     13453     13452     13460     13462     13453     13452     13460     13463
     13454     13452     13460     13461     13454     13452     13460     13462
     13454     13452     13460     13463     13454     13455     13457     13458
     13454     13455     13457     13459     13454     13455     13457     13469
     13455     13454     13452     13460     13455     13457     13469     13470
     13455     13457     13469     13471     13455     13457     13469     13472
     13456     13455     13457     13458     13456     13455     13457     13459
     13456     13455     13457     13469     13457     13469     13472     13473
     13457     13469     13472     13474     13457     13469     13472     13475
     13458     13457     13469     13470     13458     13457     13469     13471
     13458     13457     13469     13472     13459     13457     13469     13470
     13459     13457     13469     13471     13459     13457     13469     13472
     13460     13463     13464     13465     13460     13463     13464     13466
     13461     13460     13463     13464     13462     13460     13463     13464
     13463     13464     13466     13467     13463     13464     13466     13468
     13463     13464     13466     13513     13464     13466     13513     13514
     13464     13466     13513     13515     13464     13466     13513     13516
     13465     13464     13466     13467     13465     13464     13466     13468
     13465     13464     13466     13513     13466     13513     13516     13517
     13466     13513     13516     13518     13466     13513     13516     13519
     13467     13466     13513     13514     13467     13466     13513     13515
     13467     13466     13513     13516     13468     13466     13513     13514
     13468     13466     13513     13515     13468     13466     13513     13516
     13469     13472     13475     13476     13469     13472     13475     13477
     13469     13472     13475     13478     13470     13469     13472     13473
     13470     13469     13472     13474     13470     13469     13472     13475
     13471     13469     13472     13473     13471     13469     13472     13474
     13471     13469     13472     13475     13472     13475     13478     13479
     13472     13475     13478     13480     13472     13475     13478     13481
     13473     13472     13475     13476     13473     13472     13475     13477
     13473     13472     13475     13478     13474     13472     13475     13476
     13474     13472     13475     13477     13474     13472     13475     13478
     13475     13478     13481     13482     13475     13478     13481     13483
     13475     13478     13481     13484     13476     13475     13478     13479
     13476     13475     13478     13480     13476     13475     13478     13481
     13477     13475     13478     13479     13477     13475     13478     13480
     13477     13475     13478     13481     13478     13481     13484     13485
     13478     13481     13484     13486     13478     13481     13484     13487
     13479     13478     13481     13482     13479     13478     13481     13483
     13479     13478     13481     13484     13480     13478     13481     13482
     13480     13478     13481     13483     13480     13478     13481     13484
     13481     13484     13487     13488     13481     13484     13487     13489
     13481     13484     13487     13492     13482     13481     13484     13485
     13482     13481     13484     13486     13482     13481     13484     13487
     13483     13481     13484     13485     13483     13481     13484     13486
     13483     13481     13484     13487     13484     13487     13489     13490
     13484     13487     13489     13491     13484     13487     13489     13492
     13484     13487     13492     13489     13484     13487     13492     13493
     13484     13487     13492     13494     13485     13484     13487     13488
     13485     13484     13487     13489     13485     13484     13487     13492
     13486     13484     13487     13488     13486     13484     13487     13489
     13486     13484     13487     13492     13487     13489     13492     13493
     13487     13489     13492     13494     13487     13492     13489     13490
     13487     13492     13489     13491     13487     13492     13494     13495
     13487     13492     13494     13496     13487     13492     13494     13497
     13488     13487     13489     13490     13488     13487     13489     13491
     13488     13487     13489     13492     13488     13487     13492     13489
     13488     13487     13492     13493     13488     13487     13492     13494
     13489     13487     13492     13493     13489     13487     13492     13494
     13489     13492     13494     13495     13489     13492     13494     13496
     13489     13492     13494     13497     13490     13489     13487     13492
     13490     13489     13492     13493     13490     13489     13492     13494
     13491     13489     13487     13492     13491     13489     13492     13493
     13491     13489     13492     13494     13492     13494     13497     13498
     13492     13494     13497     13499     13492     13494     13497     13500
     13493     13492     13494     13495     13493     13492     13494     13496
     13493     13492     13494     13497     13494     13497     13500     13501
     13494     13497     13500     13502     13494     13497     13500     13503
     13495     13494     13497     13498     13495     13494     13497     13499
     13495     13494     13497     13500     13496     13494     13497     13498
     13496     13494     13497     13499     13496     13494     13497     13500
     13497     13500     13503     13504     13497     13500     13503     13505
     13497     13500     13503     13506     13498     13497     13500     13501
     13498     13497     13500     13502     13498     13497     13500     13503
     13499     13497     13500     13501     13499     13497     13500     13502
     13499     13497     13500     13503     13500     13503     13506     13507
     13500     13503     13506     13508     13500     13503     13506     13509
     13501     13500     13503     13504     13501     13500     13503     13505
     13501     13500     13503     13506     13502     13500     13503     13504
     13502     13500     13503     13505     13502     13500     13503     13506
     13503     13506     13509     13510     13503     13506     13509     13511
     13503     13506     13509     13512     13504     13503     13506     13507
     13504     13503     13506     13508     13504     13503     13506     13509
     13505     13503     13506     13507     13505     13503     13506     13508
     13505     13503     13506     13509     13507     13506     13509     13510
     13507     13506     13509     13511     13507     13506     13509     13512
     13508     13506     13509     13510     13508     13506     13509     13511
     13508     13506     13509     13512     13513     13516     13519     13520
     13513     13516     13519     13521     13513     13516     13519     13522
     13514     13513     13516     13517     13514     13513     13516     13518
     13514     13513     13516     13519     13515     13513     13516     13517
     13515     13513     13516     13518     13515     13513     13516     13519
     13516     13519     13522     13523     13516     13519     13522     13524
     13516     13519     13522     13525     13517     13516     13519     13520
     13517     13516     13519     13521     13517     13516     13519     13522
     13518     13516     13519     13520     13518     13516     13519     13521
     13518     13516     13519     13522     13519     13522     13525     13526
     13519     13522     13525     13527     13519     13522     13525     13528
     13520     13519     13522     13523     13520     13519     13522     13524
     13520     13519     13522     13525     13521     13519     13522     13523
     13521     13519     13522     13524     13521     13519     13522     13525
     13522     13525     13528     13529     13522     13525     13528     13530
     13522     13525     13528     13531     13523     13522     13525     13526
     13523     13522     13525     13527     13523     13522     13525     13528
     13524     13522     13525     13526     13524     13522     13525     13527
     13524     13522     13525     13528     13525     13528     13531     13532
     13525     13528     13531     13533     13525     13528     13531     13534
     13526     13525     13528     13529     13526     13525     13528     13530
     13526     13525     13528     13531     13527     13525     13528     13529
     13527     13525     13528     13530     13527     13525     13528     13531
     13528     13531     13534     13535     13528     13531     13534     13536
     13528     13531     13534     13537     13529     13528     13531     13532
     13529     13528     13531     13533     13529     13528     13531     13534
     13530     13528     13531     13532     13530     13528     13531     13533
     13530     13528     13531     13534     13531     13534     13537     13538
     13531     13534     13537     13539     13531     13534     13537     13540
     13532     13531     13534     13535     13532     13531     13534     13536
     13532     13531     13534     13537     13533     13531     13534     13535
     13533     13531     13534     13536     13533     13531     13534     13537
     13534     13537     13540     13541     13534     13537     13540     13542
     13534     13537     13540     13543     13535     13534     13537     13538
     13535     13534     13537     13539     13535     13534     13537     13540
     13536     13534     13537     13538     13536     13534     13537     13539
     13536     13534     13537     13540     13537     13540     13543     13544
     13537     13540     13543     13545     13537     13540     13543     13546
     13538     13537     13540     13541     13538     13537     13540     13542
     13538     13537     13540     13543     13539     13537     13540     13541
     13539     13537     13540     13542     13539     13537     13540     13543
     13540     13543     13546     13547     13540     13543     13546     13548
     13540     13543     13546     13549     13541     13540     13543     13544
     13541     13540     13543     13545     13541     13540     13543     13546
     13542     13540     13543     13544     13542     13540     13543     13545
     13542     13540     13543     13546     13543     13546     13549     13550
     13543     13546     13549     13551     13543     13546     13549     13552
     13544     13543     13546     13547     13544     13543     13546     13548
     13544     13543     13546     13549     13545     13543     13546     13547
     13545     13543     13546     13548     13545     13543     13546     13549
     13546     13549     13552     13553     13546     13549     13552     13554
     13546     13549     13552     13555     13547     13546     13549     13550
     13547     13546     13549     13551     13547     13546     13549     13552
     13548     13546     13549     13550     13548     13546     13549     13551
     13548     13546     13549     13552     13550     13549     13552     13553
     13550     13549     13552     13554     13550     13549     13552     13555
     13551     13549     13552     13553     13551     13549     13552     13554
     13551     13549     13552     13555     13556     13560     13563     13564
     13556     13560     13563     13565     13556     13560     13563     13570
     13557     13556     13560     13561     13557     13556     13560     13562
     13557     13556     13560     13563     13558     13556     13560     13561
     13558     13556     13560     13562     13558     13556     13560     13563
     13559     13556     13560     13561     13559     13556     13560     13562
     13559     13556     13560     13563     13560     13563     13570     13566
     13561     13560     13563     13564     13561     13560     13563     13565
     13561     13560     13563     13570     13562     13560     13563     13564
     13562     13560     13563     13565     13562     13560     13563     13570
     13563     13570     13566     13567     13563     13570     13566     13568
     13563     13570     13566     13569     13564     13563     13570     13566
     13565     13563     13570     13566     13566     13569     13571     13572
     13566     13569     13571     13573     13566     13569     13571     13574
     13567     13566     13569     13571     13568     13566     13569     13571
     13569     13571     13574     13575     13569     13571     13574     13576
     13569     13571     13574     13582     13570     13566     13569     13571
     13571     13574     13576     13577     13571     13574     13582     13583
     13571     13574     13582     13584     13571     13574     13582     13585
     13572     13571     13574     13575     13572     13571     13574     13576
     13572     13571     13574     13582     13573     13571     13574     13575
     13573     13571     13574     13576     13573     13571     13574     13582
     13574     13576     13577     13578     13574     13576     13577     13579
     13574     13582     13585     13586     13575     13574     13576     13577
     13575     13574     13582     13583     13575     13574     13582     13584
     13575     13574     13582     13585     13576     13574     13582     13583
     13576     13574     13582     13584     13576     13574     13582     13585
     13576     13577     13579     13580     13576     13577     13579     13581
     13576     13577     13579     13591     13577     13576     13574     13582
     13577     13579     13591     13592     13577     13579     13591     13593
     13577     13579     13591     13594     13578     13577     13579     13580
     13578     13577     13579     13581     13578     13577     13579     13591
     13579     13591     13594     13595     13579     13591     13594     13596
     13579     13591     13594     13597     13580     13579     13591     13592
     13580     13579     13591     13593     13580     13579     13591     13594
     13581     13579     13591     13592     13581     13579     13591     13593
     13581     13579     13591     13594     13582     13585     13586     13587
     13582     13585     13586     13588     13583     13582     13585     13586
     13584     13582     13585     13586     13585     13586     13588     13589
     13585     13586     13588     13590     13585     13586     13588     13635
     13586     13588     13635     13636     13586     13588     13635     13637
     13586     13588     13635     13638     13587     13586     13588     13589
     13587     13586     13588     13590     13587     13586     13588     13635
     13588     13635     13638     13639     13588     13635     13638     13640
     13588     13635     13638     13641     13589     13588     13635     13636
     13589     13588     13635     13637     13589     13588     13635     13638
     13590     13588     13635     13636     13590     13588     13635     13637
     13590     13588     13635     13638     13591     13594     13597     13598
     13591     13594     13597     13599     13591     13594     13597     13600
     13592     13591     13594     13595     13592     13591     13594     13596
     13592     13591     13594     13597     13593     13591     13594     13595
     13593     13591     13594     13596     13593     13591     13594     13597
     13594     13597     13600     13601     13594     13597     13600     13602
     13594     13597     13600     13603     13595     13594     13597     13598
     13595     13594     13597     13599     13595     13594     13597     13600
     13596     13594     13597     13598     13596     13594     13597     13599
     13596     13594     13597     13600     13597     13600     13603     13604
     13597     13600     13603     13605     13597     13600     13603     13606
     13598     13597     13600     13601     13598     13597     13600     13602
     13598     13597     13600     13603     13599     13597     13600     13601
     13599     13597     13600     13602     13599     13597     13600     13603
     13600     13603     13606     13607     13600     13603     13606     13608
     13600     13603     13606     13609     13601     13600     13603     13604
     13601     13600     13603     13605     13601     13600     13603     13606
     13602     13600     13603     13604     13602     13600     13603     13605
     13602     13600     13603     13606     13603     13606     13609     13610
     13603     13606     13609     13611     13603     13606     13609     13614
     13604     13603     13606     13607     13604     13603     13606     13608
     13604     13603     13606     13609     13605     13603     13606     13607
     13605     13603     13606     13608     13605     13603     13606     13609
     13606     13609     13611     13612     13606     13609     13611     13613
     13606     13609     13611     13614     13606     13609     13614     13611
     13606     13609     13614     13615     13606     13609     13614     13616
     13607     13606     13609     13610     13607     13606     13609     13611
     13607     13606     13609     13614     13608     13606     13609     13610
     13608     13606     13609     13611     13608     13606     13609     13614
     13609     13611     13614     13615     13609     13611     13614     13616
     13609     13614     13611     13612     13609     13614     13611     13613
     13609     13614     13616     13617     13609     13614     13616     13618
     13609     13614     13616     13619     13610     13609     13611     13612
     13610     13609     13611     13613     13610     13609     13611     13614
     13610     13609     13614     13611     13610     13609     13614     13615
     13610     13609     13614     13616     13611     13609     13614     13615
     13611     13609     13614     13616     13611     13614     13616     13617
     13611     13614     13616     13618     13611     13614     13616     13619
     13612     13611     13609     13614     13612     13611     13614     13615
     13612     13611     13614     13616     13613     13611     13609     13614
     13613     13611     13614     13615     13613     13611     13614     13616
     13614     13616     13619     13620     13614     13616     13619     13621
     13614     13616     13619     13622     13615     13614     13616     13617
     13615     13614     13616     13618     13615     13614     13616     13619
     13616     13619     13622     13623     13616     13619     13622     13624
     13616     13619     13622     13625     13617     13616     13619     13620
     13617     13616     13619     13621     13617     13616     13619     13622
     13618     13616     13619     13620     13618     13616     13619     13621
     13618     13616     13619     13622     13619     13622     13625     13626
     13619     13622     13625     13627     13619     13622     13625     13628
     13620     13619     13622     13623     13620     13619     13622     13624
     13620     13619     13622     13625     13621     13619     13622     13623
     13621     13619     13622     13624     13621     13619     13622     13625
     13622     13625     13628     13629     13622     13625     13628     13630
     13622     13625     13628     13631     13623     13622     13625     13626
     13623     13622     13625     13627     13623     13622     13625     13628
     13624     13622     13625     13626     13624     13622     13625     13627
     13624     13622     13625     13628     13625     13628     13631     13632
     13625     13628     13631     13633     13625     13628     13631     13634
     13626     13625     13628     13629     13626     13625     13628     13630
     13626     13625     13628     13631     13627     13625     13628     13629
     13627     13625     13628     13630     13627     13625     13628     13631
     13629     13628     13631     13632     13629     13628     13631     13633
     13629     13628     13631     13634     13630     13628     13631     13632
     13630     13628     13631     13633     13630     13628     13631     13634
     13635     13638     13641     13642     13635     13638     13641     13643
     13635     13638     13641     13644     13636     13635     13638     13639
     13636     13635     13638     13640     13636     13635     13638     13641
     13637     13635     13638     13639     13637     13635     13638     13640
     13637     13635     13638     13641     13638     13641     13644     13645
     13638     13641     13644     13646     13638     13641     13644     13647
     13639     13638     13641     13642     13639     13638     13641     13643
     13639     13638     13641     13644     13640     13638     13641     13642
     13640     13638     13641     13643     13640     13638     13641     13644
     13641     13644     13647     13648     13641     13644     13647     13649
     13641     13644     13647     13650     13642     13641     13644     13645
     13642     13641     13644     13646     13642     13641     13644     13647
     13643     13641     13644     13645     13643     13641     13644     13646
     13643     13641     13644     13647     13644     13647     13650     13651
     13644     13647     13650     13652     13644     13647     13650     13653
     13645     13644     13647     13648     13645     13644     13647     13649
     13645     13644     13647     13650     13646     13644     13647     13648
     13646     13644     13647     13649     13646     13644     13647     13650
     13647     13650     13653     13654     13647     13650     13653     13655
     13647     13650     13653     13656     13648     13647     13650     13651
     13648     13647     13650     13652     13648     13647     13650     13653
     13649     13647     13650     13651     13649     13647     13650     13652
     13649     13647     13650     13653     13650     13653     13656     13657
     13650     13653     13656     13658     13650     13653     13656     13659
     13651     13650     13653     13654     13651     13650     13653     13655
     13651     13650     13653     13656     13652     13650     13653     13654
     13652     13650     13653     13655     13652     13650     13653     13656
     13653     13656     13659     13660     13653     13656     13659     13661
     13653     13656     13659     13662     13654     13653     13656     13657
     13654     13653     13656     13658     13654     13653     13656     13659
     13655     13653     13656     13657     13655     13653     13656     13658
     13655     13653     13656     13659     13656     13659     13662     13663
     13656     13659     13662     13664     13656     13659     13662     13665
     13657     13656     13659     13660     13657     13656     13659     13661
     13657     13656     13659     13662     13658     13656     13659     13660
     13658     13656     13659     13661     13658     13656     13659     13662
     13659     13662     13665     13666     13659     13662     13665     13667
     13659     13662     13665     13668     13660     13659     13662     13663
     13660     13659     13662     13664     13660     13659     13662     13665
     13661     13659     13662     13663     13661     13659     13662     13664
     13661     13659     13662     13665     13662     13665     13668     13669
     13662     13665     13668     13670     13662     13665     13668     13671
     13663     13662     13665     13666     13663     13662     13665     13667
     13663     13662     13665     13668     13664     13662     13665     13666
     13664     13662     13665     13667     13664     13662     13665     13668
     13665     13668     13671     13672     13665     13668     13671     13673
     13665     13668     13671     13674     13666     13665     13668     13669
     13666     13665     13668     13670     13666     13665     13668     13671
     13667     13665     13668     13669     13667     13665     13668     13670
     13667     13665     13668     13671     13668     13671     13674     13675
     13668     13671     13674     13676     13668     13671     13674     13677
     13669     13668     13671     13672     13669     13668     13671     13673
     13669     13668     13671     13674     13670     13668     13671     13672
     13670     13668     13671     13673     13670     13668     13671     13674
     13672     13671     13674     13675     13672     13671     13674     13676
     13672     13671     13674     13677     13673     13671     13674     13675
     13673     13671     13674     13676     13673     13671     13674     13677
     13678     13682     13685     13686     13678     13682     13685     13687
     13678     13682     13685     13692     13679     13678     13682     13683
     13679     13678     13682     13684     13679     13678     13682     13685
     13680     13678     13682     13683     13680     13678     13682     13684
     13680     13678     13682     13685     13681     13678     13682     13683
     13681     13678     13682     13684     13681     13678     13682     13685
     13682     13685     13692     13688     13683     13682     13685     13686
     13683     13682     13685     13687     13683     13682     13685     13692
     13684     13682     13685     13686     13684     13682     13685     13687
     13684     13682     13685     13692     13685     13692     13688     13689
     13685     13692     13688     13690     13685     13692     13688     13691
     13686     13685     13692     13688     13687     13685     13692     13688
     13688     13691     13693     13694     13688     13691     13693     13695
     13688     13691     13693     13696     13689     13688     13691     13693
     13690     13688     13691     13693     13691     13693     13696     13697
     13691     13693     13696     13698     13691     13693     13696     13704
     13692     13688     13691     13693     13693     13696     13698     13699
     13693     13696     13704     13705     13693     13696     13704     13706
     13693     13696     13704     13707     13694     13693     13696     13697
     13694     13693     13696     13698     13694     13693     13696     13704
     13695     13693     13696     13697     13695     13693     13696     13698
     13695     13693     13696     13704     13696     13698     13699     13700
     13696     13698     13699     13701     13696     13704     13707     13708
     13697     13696     13698     13699     13697     13696     13704     13705
     13697     13696     13704     13706     13697     13696     13704     13707
     13698     13696     13704     13705     13698     13696     13704     13706
     13698     13696     13704     13707     13698     13699     13701     13702
     13698     13699     13701     13703     13698     13699     13701     13713
     13699     13698     13696     13704     13699     13701     13713     13714
     13699     13701     13713     13715     13699     13701     13713     13716
     13700     13699     13701     13702     13700     13699     13701     13703
     13700     13699     13701     13713     13701     13713     13716     13717
     13701     13713     13716     13718     13701     13713     13716     13719
     13702     13701     13713     13714     13702     13701     13713     13715
     13702     13701     13713     13716     13703     13701     13713     13714
     13703     13701     13713     13715     13703     13701     13713     13716
     13704     13707     13708     13709     13704     13707     13708     13710
     13705     13704     13707     13708     13706     13704     13707     13708
     13707     13708     13710     13711     13707     13708     13710     13712
     13707     13708     13710     13757     13708     13710     13757     13758
     13708     13710     13757     13759     13708     13710     13757     13760
     13709     13708     13710     13711     13709     13708     13710     13712
     13709     13708     13710     13757     13710     13757     13760     13761
     13710     13757     13760     13762     13710     13757     13760     13763
     13711     13710     13757     13758     13711     13710     13757     13759
     13711     13710     13757     13760     13712     13710     13757     13758
     13712     13710     13757     13759     13712     13710     13757     13760
     13713     13716     13719     13720     13713     13716     13719     13721
     13713     13716     13719     13722     13714     13713     13716     13717
     13714     13713     13716     13718     13714     13713     13716     13719
     13715     13713     13716     13717     13715     13713     13716     13718
     13715     13713     13716     13719     13716     13719     13722     13723
     13716     13719     13722     13724     13716     13719     13722     13725
     13717     13716     13719     13720     13717     13716     13719     13721
     13717     13716     13719     13722     13718     13716     13719     13720
     13718     13716     13719     13721     13718     13716     13719     13722
     13719     13722     13725     13726     13719     13722     13725     13727
     13719     13722     13725     13728     13720     13719     13722     13723
     13720     13719     13722     13724     13720     13719     13722     13725
     13721     13719     13722     13723     13721     13719     13722     13724
     13721     13719     13722     13725     13722     13725     13728     13729
     13722     13725     13728     13730     13722     13725     13728     13731
     13723     13722     13725     13726     13723     13722     13725     13727
     13723     13722     13725     13728     13724     13722     13725     13726
     13724     13722     13725     13727     13724     13722     13725     13728
     13725     13728     13731     13732     13725     13728     13731     13733
     13725     13728     13731     13736     13726     13725     13728     13729
     13726     13725     13728     13730     13726     13725     13728     13731
     13727     13725     13728     13729     13727     13725     13728     13730
     13727     13725     13728     13731     13728     13731     13733     13734
     13728     13731     13733     13735     13728     13731     13733     13736
     13728     13731     13736     13733     13728     13731     13736     13737
     13728     13731     13736     13738     13729     13728     13731     13732
     13729     13728     13731     13733     13729     13728     13731     13736
     13730     13728     13731     13732     13730     13728     13731     13733
     13730     13728     13731     13736     13731     13733     13736     13737
     13731     13733     13736     13738     13731     13736     13733     13734
     13731     13736     13733     13735     13731     13736     13738     13739
     13731     13736     13738     13740     13731     13736     13738     13741
     13732     13731     13733     13734     13732     13731     13733     13735
     13732     13731     13733     13736     13732     13731     13736     13733
     13732     13731     13736     13737     13732     13731     13736     13738
     13733     13731     13736     13737     13733     13731     13736     13738
     13733     13736     13738     13739     13733     13736     13738     13740
     13733     13736     13738     13741     13734     13733     13731     13736
     13734     13733     13736     13737     13734     13733     13736     13738
     13735     13733     13731     13736     13735     13733     13736     13737
     13735     13733     13736     13738     13736     13738     13741     13742
     13736     13738     13741     13743     13736     13738     13741     13744
     13737     13736     13738     13739     13737     13736     13738     13740
     13737     13736     13738     13741     13738     13741     13744     13745
     13738     13741     13744     13746     13738     13741     13744     13747
     13739     13738     13741     13742     13739     13738     13741     13743
     13739     13738     13741     13744     13740     13738     13741     13742
     13740     13738     13741     13743     13740     13738     13741     13744
     13741     13744     13747     13748     13741     13744     13747     13749
     13741     13744     13747     13750     13742     13741     13744     13745
     13742     13741     13744     13746     13742     13741     13744     13747
     13743     13741     13744     13745     13743     13741     13744     13746
     13743     13741     13744     13747     13744     13747     13750     13751
     13744     13747     13750     13752     13744     13747     13750     13753
     13745     13744     13747     13748     13745     13744     13747     13749
     13745     13744     13747     13750     13746     13744     13747     13748
     13746     13744     13747     13749     13746     13744     13747     13750
     13747     13750     13753     13754     13747     13750     13753     13755
     13747     13750     13753     13756     13748     13747     13750     13751
     13748     13747     13750     13752     13748     13747     13750     13753
     13749     13747     13750     13751     13749     13747     13750     13752
     13749     13747     13750     13753     13751     13750     13753     13754
     13751     13750     13753     13755     13751     13750     13753     13756
     13752     13750     13753     13754     13752     13750     13753     13755
     13752     13750     13753     13756     13757     13760     13763     13764
     13757     13760     13763     13765     13757     13760     13763     13766
     13758     13757     13760     13761     13758     13757     13760     13762
     13758     13757     13760     13763     13759     13757     13760     13761
     13759     13757     13760     13762     13759     13757     13760     13763
     13760     13763     13766     13767     13760     13763     13766     13768
     13760     13763     13766     13769     13761     13760     13763     13764
     13761     13760     13763     13765     13761     13760     13763     13766
     13762     13760     13763     13764     13762     13760     13763     13765
     13762     13760     13763     13766     13763     13766     13769     13770
     13763     13766     13769     13771     13763     13766     13769     13772
     13764     13763     13766     13767     13764     13763     13766     13768
     13764     13763     13766     13769     13765     13763     13766     13767
     13765     13763     13766     13768     13765     13763     13766     13769
     13766     13769     13772     13773     13766     13769     13772     13774
     13766     13769     13772     13775     13767     13766     13769     13770
     13767     13766     13769     13771     13767     13766     13769     13772
     13768     13766     13769     13770     13768     13766     13769     13771
     13768     13766     13769     13772     13769     13772     13775     13776
     13769     13772     13775     13777     13769     13772     13775     13778
     13770     13769     13772     13773     13770     13769     13772     13774
     13770     13769     13772     13775     13771     13769     13772     13773
     13771     13769     13772     13774     13771     13769     13772     13775
     13772     13775     13778     13779     13772     13775     13778     13780
     13772     13775     13778     13781     13773     13772     13775     13776
     13773     13772     13775     13777     13773     13772     13775     13778
     13774     13772     13775     13776     13774     13772     13775     13777
     13774     13772     13775     13778     13775     13778     13781     13782
     13775     13778     13781     13783     13775     13778     13781     13784
     13776     13775     13778     13779     13776     13775     13778     13780
     13776     13775     13778     13781     13777     13775     13778     13779
     13777     13775     13778     13780     13777     13775     13778     13781
     13778     13781     13784     13785     13778     13781     13784     13786
     13778     13781     13784     13787     13779     13778     13781     13782
     13779     13778     13781     13783     13779     13778     13781     13784
     13780     13778     13781     13782     13780     13778     13781     13783
     13780     13778     13781     13784     13781     13784     13787     13788
     13781     13784     13787     13789     13781     13784     13787     13790
     13782     13781     13784     13785     13782     13781     13784     13786
     13782     13781     13784     13787     13783     13781     13784     13785
     13783     13781     13784     13786     13783     13781     13784     13787
     13784     13787     13790     13791     13784     13787     13790     13792
     13784     13787     13790     13793     13785     13784     13787     13788
     13785     13784     13787     13789     13785     13784     13787     13790
     13786     13784     13787     13788     13786     13784     13787     13789
     13786     13784     13787     13790     13787     13790     13793     13794
     13787     13790     13793     13795     13787     13790     13793     13796
     13788     13787     13790     13791     13788     13787     13790     13792
     13788     13787     13790     13793     13789     13787     13790     13791
     13789     13787     13790     13792     13789     13787     13790     13793
     13790     13793     13796     13797     13790     13793     13796     13798
     13790     13793     13796     13799     13791     13790     13793     13794
     13791     13790     13793     13795     13791     13790     13793     13796
     13792     13790     13793     13794     13792     13790     13793     13795
     13792     13790     13793     13796     13794     13793     13796     13797
     13794     13793     13796     13798     13794     13793     13796     13799
     13795     13793     13796     13797     13795     13793     13796     13798
     13795     13793     13796     13799     13800     13804     13807     13808
     13800     13804     13807     13809     13800     13804     13807     13814
     13801     13800     13804     13805     13801     13800     13804     13806
     13801     13800     13804     13807     13802     13800     13804     13805
     13802     13800     13804     13806     13802     13800     13804     13807
     13803     13800     13804     13805     13803     13800     13804     13806
     13803     13800     13804     13807     13804     13807     13814     13810
     13805     13804     13807     13808     13805     13804     13807     13809
     13805     13804     13807     13814     13806     13804     13807     13808
     13806     13804     13807     13809     13806     13804     13807     13814
     13807     13814     13810     13811     13807     13814     13810     13812
     13807     13814     13810     13813     13808     13807     13814     13810
     13809     13807     13814     13810     13810     13813     13815     13816
     13810     13813     13815     13817     13810     13813     13815     13818
     13811     13810     13813     13815     13812     13810     13813     13815
     13813     13815     13818     13819     13813     13815     13818     13820
     13813     13815     13818     13826     13814     13810     13813     13815
     13815     13818     13820     13821     13815     13818     13826     13827
     13815     13818     13826     13828     13815     13818     13826     13829
     13816     13815     13818     13819     13816     13815     13818     13820
     13816     13815     13818     13826     13817     13815     13818     13819
     13817     13815     13818     13820     13817     13815     13818     13826
     13818     13820     13821     13822     13818     13820     13821     13823
     13818     13826     13829     13830     13819     13818     13820     13821
     13819     13818     13826     13827     13819     13818     13826     13828
     13819     13818     13826     13829     13820     13818     13826     13827
     13820     13818     13826     13828     13820     13818     13826     13829
     13820     13821     13823     13824     13820     13821     13823     13825
     13820     13821     13823     13835     13821     13820     13818     13826
     13821     13823     13835     13836     13821     13823     13835     13837
     13821     13823     13835     13838     13822     13821     13823     13824
     13822     13821     13823     13825     13822     13821     13823     13835
     13823     13835     13838     13839     13823     13835     13838     13840
     13823     13835     13838     13841     13824     13823     13835     13836
     13824     13823     13835     13837     13824     13823     13835     13838
     13825     13823     13835     13836     13825     13823     13835     13837
     13825     13823     13835     13838     13826     13829     13830     13831
     13826     13829     13830     13832     13827     13826     13829     13830
     13828     13826     13829     13830     13829     13830     13832     13833
     13829     13830     13832     13834     13829     13830     13832     13879
     13830     13832     13879     13880     13830     13832     13879     13881
     13830     13832     13879     13882     13831     13830     13832     13833
     13831     13830     13832     13834     13831     13830     13832     13879
     13832     13879     13882     13883     13832     13879     13882     13884
     13832     13879     13882     13885     13833     13832     13879     13880
     13833     13832     13879     13881     13833     13832     13879     13882
     13834     13832     13879     13880     13834     13832     13879     13881
     13834     13832     13879     13882     13835     13838     13841     13842
     13835     13838     13841     13843     13835     13838     13841     13844
     13836     13835     13838     13839     13836     13835     13838     13840
     13836     13835     13838     13841     13837     13835     13838     13839
     13837     13835     13838     13840     13837     13835     13838     13841
     13838     13841     13844     13845     13838     13841     13844     13846
     13838     13841     13844     13847     13839     13838     13841     13842
     13839     13838     13841     13843     13839     13838     13841     13844
     13840     13838     13841     13842     13840     13838     13841     13843
     13840     13838     13841     13844     13841     13844     13847     13848
     13841     13844     13847     13849     13841     13844     13847     13850
     13842     13841     13844     13845     13842     13841     13844     13846
     13842     13841     13844     13847     13843     13841     13844     13845
     13843     13841     13844     13846     13843     13841     13844     13847
     13844     13847     13850     13851     13844     13847     13850     13852
     13844     13847     13850     13853     13845     13844     13847     13848
     13845     13844     13847     13849     13845     13844     13847     13850
     13846     13844     13847     13848     13846     13844     13847     13849
     13846     13844     13847     13850     13847     13850     13853     13854
     13847     13850     13853     13855     13847     13850     13853     13858
     13848     13847     13850     13851     13848     13847     13850     13852
     13848     13847     13850     13853     13849     13847     13850     13851
     13849     13847     13850     13852     13849     13847     13850     13853
     13850     13853     13855     13856     13850     13853     13855     13857
     13850     13853     13855     13858     13850     13853     13858     13855
     13850     13853     13858     13859     13850     13853     13858     13860
     13851     13850     13853     13854     13851     13850     13853     13855
     13851     13850     13853     13858     13852     13850     13853     13854
     13852     13850     13853     13855     13852     13850     13853     13858
     13853     13855     13858     13859     13853     13855     13858     13860
     13853     13858     13855     13856     13853     13858     13855     13857
     13853     13858     13860     13861     13853     13858     13860     13862
     13853     13858     13860     13863     13854     13853     13855     13856
     13854     13853     13855     13857     13854     13853     13855     13858
     13854     13853     13858     13855     13854     13853     13858     13859
     13854     13853     13858     13860     13855     13853     13858     13859
     13855     13853     13858     13860     13855     13858     13860     13861
     13855     13858     13860     13862     13855     13858     13860     13863
     13856     13855     13853     13858     13856     13855     13858     13859
     13856     13855     13858     13860     13857     13855     13853     13858
     13857     13855     13858     13859     13857     13855     13858     13860
     13858     13860     13863     13864     13858     13860     13863     13865
     13858     13860     13863     13866     13859     13858     13860     13861
     13859     13858     13860     13862     13859     13858     13860     13863
     13860     13863     13866     13867     13860     13863     13866     13868
     13860     13863     13866     13869     13861     13860     13863     13864
     13861     13860     13863     13865     13861     13860     13863     13866
     13862     13860     13863     13864     13862     13860     13863     13865
     13862     13860     13863     13866     13863     13866     13869     13870
     13863     13866     13869     13871     13863     13866     13869     13872
     13864     13863     13866     13867     13864     13863     13866     13868
     13864     13863     13866     13869     13865     13863     13866     13867
     13865     13863     13866     13868     13865     13863     13866     13869
     13866     13869     13872     13873     13866     13869     13872     13874
     13866     13869     13872     13875     13867     13866     13869     13870
     13867     13866     13869     13871     13867     13866     13869     13872
     13868     13866     13869     13870     13868     13866     13869     13871
     13868     13866     13869     13872     13869     13872     13875     13876
     13869     13872     13875     13877     13869     13872     13875     13878
     13870     13869     13872     13873     13870     13869     13872     13874
     13870     13869     13872     13875     13871     13869     13872     13873
     13871     13869     13872     13874     13871     13869     13872     13875
     13873     13872     13875     13876     13873     13872     13875     13877
     13873     13872     13875     13878     13874     13872     13875     13876
     13874     13872     13875     13877     13874     13872     13875     13878
     13879     13882     13885     13886     13879     13882     13885     13887
     13879     13882     13885     13888     13880     13879     13882     13883
     13880     13879     13882     13884     13880     13879     13882     13885
     13881     13879     13882     13883     13881     13879     13882     13884
     13881     13879     13882     13885     13882     13885     13888     13889
     13882     13885     13888     13890     13882     13885     13888     13891
     13883     13882     13885     13886     13883     13882     13885     13887
     13883     13882     13885     13888     13884     13882     13885     13886
     13884     13882     13885     13887     13884     13882     13885     13888
     13885     13888     13891     13892     13885     13888     13891     13893
     13885     13888     13891     13894     13886     13885     13888     13889
     13886     13885     13888     13890     13886     13885     13888     13891
     13887     13885     13888     13889     13887     13885     13888     13890
     13887     13885     13888     13891     13888     13891     13894     13895
     13888     13891     13894     13896     13888     13891     13894     13897
     13889     13888     13891     13892     13889     13888     13891     13893
     13889     13888     13891     13894     13890     13888     13891     13892
     13890     13888     13891     13893     13890     13888     13891     13894
     13891     13894     13897     13898     13891     13894     13897     13899
     13891     13894     13897     13900     13892     13891     13894     13895
     13892     13891     13894     13896     13892     13891     13894     13897
     13893     13891     13894     13895     13893     13891     13894     13896
     13893     13891     13894     13897     13894     13897     13900     13901
     13894     13897     13900     13902     13894     13897     13900     13903
     13895     13894     13897     13898     13895     13894     13897     13899
     13895     13894     13897     13900     13896     13894     13897     13898
     13896     13894     13897     13899     13896     13894     13897     13900
     13897     13900     13903     13904     13897     13900     13903     13905
     13897     13900     13903     13906     13898     13897     13900     13901
     13898     13897     13900     13902     13898     13897     13900     13903
     13899     13897     13900     13901     13899     13897     13900     13902
     13899     13897     13900     13903     13900     13903     13906     13907
     13900     13903     13906     13908     13900     13903     13906     13909
     13901     13900     13903     13904     13901     13900     13903     13905
     13901     13900     13903     13906     13902     13900     13903     13904
     13902     13900     13903     13905     13902     13900     13903     13906
     13903     13906     13909     13910     13903     13906     13909     13911
     13903     13906     13909     13912     13904     13903     13906     13907
     13904     13903     13906     13908     13904     13903     13906     13909
     13905     13903     13906     13907     13905     13903     13906     13908
     13905     13903     13906     13909     13906     13909     13912     13913
     13906     13909     13912     13914     13906     13909     13912     13915
     13907     13906     13909     13910     13907     13906     13909     13911
     13907     13906     13909     13912     13908     13906     13909     13910
     13908     13906     13909     13911     13908     13906     13909     13912
     13909     13912     13915     13916     13909     13912     13915     13917
     13909     13912     13915     13918     13910     13909     13912     13913
     13910     13909     13912     13914     13910     13909     13912     13915
     13911     13909     13912     13913     13911     13909     13912     13914
     13911     13909     13912     13915     13913     13912     13915     13916
     13913     13912     13915     13917     13913     13912     13915     13918
     13914     13912     13915     13916     13914     13912     13915     13917
     13914     13912     13915     13918     13919     13924     13926     13927
     13919     13924     13928     13929     13919     13924     13928     13930
     13919     13924     13928     13935     13920     13919     13922     13923
     13920     13919     13924     13925     13920     13919     13924     13926
     13920     13919     13924     13928     13921     13919     13922     13923
     13921     13919     13924     13925     13921     13919     13924     13926
     13921     13919     13924     13928     13922     13919     13924     13925
     13922     13919     13924     13926     13922     13919     13924     13928
     13923     13922     13919     13924     13924     13928     13935     13931
     13925     13924     13926     13927     13925     13924     13928     13929
     13925     13924     13928     13930     13925     13924     13928     13935
     13926     13924     13928     13929     13926     13924     13928     13930
     13926     13924     13928     13935     13927     13926     13924     13928
     13928     13935     13931     13932     13928     13935     13931     13933
     13928     13935     13931     13934     13929     13928     13935     13931
     13930     13928     13935     13931     13931     13934     13936     13937
     13931     13934     13936     13938     13931     13934     13936     13939
     13932     13931     13934     13936     13933     13931     13934     13936
     13934     13936     13939     13940     13934     13936     13939     13941
     13934     13936     13939     13947     13935     13931     13934     13936
     13936     13939     13941     13942     13936     13939     13947     13948
     13936     13939     13947     13949     13936     13939     13947     13950
     13937     13936     13939     13940     13937     13936     13939     13941
     13937     13936     13939     13947     13938     13936     13939     13940
     13938     13936     13939     13941     13938     13936     13939     13947
     13939     13941     13942     13943     13939     13941     13942     13944
     13939     13947     13950     13951     13940     13939     13941     13942
     13940     13939     13947     13948     13940     13939     13947     13949
     13940     13939     13947     13950     13941     13939     13947     13948
     13941     13939     13947     13949     13941     13939     13947     13950
     13941     13942     13944     13945     13941     13942     13944     13946
     13941     13942     13944     13956     13942     13941     13939     13947
     13942     13944     13956     13957     13942     13944     13956     13958
     13942     13944     13956     13959     13943     13942     13944     13945
     13943     13942     13944     13946     13943     13942     13944     13956
     13944     13956     13959     13960     13944     13956     13959     13961
     13944     13956     13959     13962     13945     13944     13956     13957
     13945     13944     13956     13958     13945     13944     13956     13959
     13946     13944     13956     13957     13946     13944     13956     13958
     13946     13944     13956     13959     13947     13950     13951     13952
     13947     13950     13951     13953     13948     13947     13950     13951
     13949     13947     13950     13951     13950     13951     13953     13954
     13950     13951     13953     13955     13950     13951     13953     14000
     13951     13953     14000     14001     13951     13953     14000     14002
     13951     13953     14000     14003     13952     13951     13953     13954
     13952     13951     13953     13955     13952     13951     13953     14000
     13953     14000     14003     14004     13953     14000     14003     14005
     13953     14000     14003     14006     13954     13953     14000     14001
     13954     13953     14000     14002     13954     13953     14000     14003
     13955     13953     14000     14001     13955     13953     14000     14002
     13955     13953     14000     14003     13956     13959     13962     13963
     13956     13959     13962     13964     13956     13959     13962     13965
     13957     13956     13959     13960     13957     13956     13959     13961
     13957     13956     13959     13962     13958     13956     13959     13960
     13958     13956     13959     13961     13958     13956     13959     13962
     13959     13962     13965     13966     13959     13962     13965     13967
     13959     13962     13965     13968     13960     13959     13962     13963
     13960     13959     13962     13964     13960     13959     13962     13965
     13961     13959     13962     13963     13961     13959     13962     13964
     13961     13959     13962     13965     13962     13965     13968     13969
     13962     13965     13968     13970     13962     13965     13968     13971
     13963     13962     13965     13966     13963     13962     13965     13967
     13963     13962     13965     13968     13964     13962     13965     13966
     13964     13962     13965     13967     13964     13962     13965     13968
     13965     13968     13971     13972     13965     13968     13971     13973
     13965     13968     13971     13974     13966     13965     13968     13969
     13966     13965     13968     13970     13966     13965     13968     13971
     13967     13965     13968     13969     13967     13965     13968     13970
     13967     13965     13968     13971     13968     13971     13974     13975
     13968     13971     13974     13976     13968     13971     13974     13979
     13969     13968     13971     13972     13969     13968     13971     13973
     13969     13968     13971     13974     13970     13968     13971     13972
     13970     13968     13971     13973     13970     13968     13971     13974
     13971     13974     13976     13977     13971     13974     13976     13978
     13971     13974     13976     13979     13971     13974     13979     13976
     13971     13974     13979     13980     13971     13974     13979     13981
     13972     13971     13974     13975     13972     13971     13974     13976
     13972     13971     13974     13979     13973     13971     13974     13975
     13973     13971     13974     13976     13973     13971     13974     13979
     13974     13976     13979     13980     13974     13976     13979     13981
     13974     13979     13976     13977     13974     13979     13976     13978
     13974     13979     13981     13982     13974     13979     13981     13983
     13974     13979     13981     13984     13975     13974     13976     13977
     13975     13974     13976     13978     13975     13974     13976     13979
     13975     13974     13979     13976     13975     13974     13979     13980
     13975     13974     13979     13981     13976     13974     13979     13980
     13976     13974     13979     13981     13976     13979     13981     13982
     13976     13979     13981     13983     13976     13979     13981     13984
     13977     13976     13974     13979     13977     13976     13979     13980
     13977     13976     13979     13981     13978     13976     13974     13979
     13978     13976     13979     13980     13978     13976     13979     13981
     13979     13981     13984     13985     13979     13981     13984     13986
     13979     13981     13984     13987     13980     13979     13981     13982
     13980     13979     13981     13983     13980     13979     13981     13984
     13981     13984     13987     13988     13981     13984     13987     13989
     13981     13984     13987     13990     13982     13981     13984     13985
     13982     13981     13984     13986     13982     13981     13984     13987
     13983     13981     13984     13985     13983     13981     13984     13986
     13983     13981     13984     13987     13984     13987     13990     13991
     13984     13987     13990     13992     13984     13987     13990     13993
     13985     13984     13987     13988     13985     13984     13987     13989
     13985     13984     13987     13990     13986     13984     13987     13988
     13986     13984     13987     13989     13986     13984     13987     13990
     13987     13990     13993     13994     13987     13990     13993     13995
     13987     13990     13993     13996     13988     13987     13990     13991
     13988     13987     13990     13992     13988     13987     13990     13993
     13989     13987     13990     13991     13989     13987     13990     13992
     13989     13987     13990     13993     13990     13993     13996     13997
     13990     13993     13996     13998     13990     13993     13996     13999
     13991     13990     13993     13994     13991     13990     13993     13995
     13991     13990     13993     13996     13992     13990     13993     13994
     13992     13990     13993     13995     13992     13990     13993     13996
     13994     13993     13996     13997     13994     13993     13996     13998
     13994     13993     13996     13999     13995     13993     13996     13997
     13995     13993     13996     13998     13995     13993     13996     13999
     14000     14003     14006     14007     14000     14003     14006     14008
     14000     14003     14006     14009     14001     14000     14003     14004
     14001     14000     14003     14005     14001     14000     14003     14006
     14002     14000     14003     14004     14002     14000     14003     14005
     14002     14000     14003     14006     14003     14006     14009     14010
     14003     14006     14009     14011     14003     14006     14009     14012
     14004     14003     14006     14007     14004     14003     14006     14008
     14004     14003     14006     14009     14005     14003     14006     14007
     14005     14003     14006     14008     14005     14003     14006     14009
     14006     14009     14012     14013     14006     14009     14012     14014
     14006     14009     14012     14015     14007     14006     14009     14010
     14007     14006     14009     14011     14007     14006     14009     14012
     14008     14006     14009     14010     14008     14006     14009     14011
     14008     14006     14009     14012     14009     14012     14015     14016
     14009     14012     14015     14017     14009     14012     14015     14018
     14010     14009     14012     14013     14010     14009     14012     14014
     14010     14009     14012     14015     14011     14009     14012     14013
     14011     14009     14012     14014     14011     14009     14012     14015
     14012     14015     14018     14019     14012     14015     14018     14020
     14012     14015     14018     14021     14013     14012     14015     14016
     14013     14012     14015     14017     14013     14012     14015     14018
     14014     14012     14015     14016     14014     14012     14015     14017
     14014     14012     14015     14018     14015     14018     14021     14022
     14015     14018     14021     14023     14015     14018     14021     14024
     14016     14015     14018     14019     14016     14015     14018     14020
     14016     14015     14018     14021     14017     14015     14018     14019
     14017     14015     14018     14020     14017     14015     14018     14021
     14018     14021     14024     14025     14018     14021     14024     14026
     14018     14021     14024     14027     14019     14018     14021     14022
     14019     14018     14021     14023     14019     14018     14021     14024
     14020     14018     14021     14022     14020     14018     14021     14023
     14020     14018     14021     14024     14021     14024     14027     14028
     14021     14024     14027     14029     14021     14024     14027     14030
     14022     14021     14024     14025     14022     14021     14024     14026
     14022     14021     14024     14027     14023     14021     14024     14025
     14023     14021     14024     14026     14023     14021     14024     14027
     14024     14027     14030     14031     14024     14027     14030     14032
     14024     14027     14030     14033     14025     14024     14027     14028
     14025     14024     14027     14029     14025     14024     14027     14030
     14026     14024     14027     14028     14026     14024     14027     14029
     14026     14024     14027     14030     14027     14030     14033     14034
     14027     14030     14033     14035     14027     14030     14033     14036
     14028     14027     14030     14031     14028     14027     14030     14032
     14028     14027     14030     14033     14029     14027     14030     14031
     14029     14027     14030     14032     14029     14027     14030     14033
     14030     14033     14036     14037     14030     14033     14036     14038
     14030     14033     14036     14039     14031     14030     14033     14034
     14031     14030     14033     14035     14031     14030     14033     14036
     14032     14030     14033     14034     14032     14030     14033     14035
     14032     14030     14033     14036     14033     14036     14039     14040
     14033     14036     14039     14041     14033     14036     14039     14042
     14034     14033     14036     14037     14034     14033     14036     14038
     14034     14033     14036     14039     14035     14033     14036     14037
     14035     14033     14036     14038     14035     14033     14036     14039
     14037     14036     14039     14040     14037     14036     14039     14041
     14037     14036     14039     14042     14038     14036     14039     14040
     14038     14036     14039     14041     14038     14036     14039     14042
     14043     14047     14050     14051     14043     14047     14050     14052
     14043     14047     14050     14057     14044     14043     14047     14048
     14044     14043     14047     14049     14044     14043     14047     14050
     14045     14043     14047     14048     14045     14043     14047     14049
     14045     14043     14047     14050     14046     14043     14047     14048
     14046     14043     14047     14049     14046     14043     14047     14050
     14047     14050     14057     14053     14048     14047     14050     14051
     14048     14047     14050     14052     14048     14047     14050     14057
     14049     14047     14050     14051     14049     14047     14050     14052
     14049     14047     14050     14057     14050     14057     14053     14054
     14050     14057     14053     14055     14050     14057     14053     14056
     14051     14050     14057     14053     14052     14050     14057     14053
     14053     14056     14058     14059     14053     14056     14058     14060
     14053     14056     14058     14061     14054     14053     14056     14058
     14055     14053     14056     14058     14056     14058     14061     14062
     14056     14058     14061     14063     14056     14058     14061     14069
     14057     14053     14056     14058     14058     14061     14063     14064
     14058     14061     14069     14070     14058     14061     14069     14071
     14058     14061     14069     14072     14059     14058     14061     14062
     14059     14058     14061     14063     14059     14058     14061     14069
     14060     14058     14061     14062     14060     14058     14061     14063
     14060     14058     14061     14069     14061     14063     14064     14065
     14061     14063     14064     14066     14061     14069     14072     14073
     14062     14061     14063     14064     14062     14061     14069     14070
     14062     14061     14069     14071     14062     14061     14069     14072
     14063     14061     14069     14070     14063     14061     14069     14071
     14063     14061     14069     14072     14063     14064     14066     14067
     14063     14064     14066     14068     14063     14064     14066     14078
     14064     14063     14061     14069     14064     14066     14078     14079
     14064     14066     14078     14080     14064     14066     14078     14081
     14065     14064     14066     14067     14065     14064     14066     14068
     14065     14064     14066     14078     14066     14078     14081     14082
     14066     14078     14081     14083     14066     14078     14081     14084
     14067     14066     14078     14079     14067     14066     14078     14080
     14067     14066     14078     14081     14068     14066     14078     14079
     14068     14066     14078     14080     14068     14066     14078     14081
     14069     14072     14073     14074     14069     14072     14073     14075
     14070     14069     14072     14073     14071     14069     14072     14073
     14072     14073     14075     14076     14072     14073     14075     14077
     14072     14073     14075     14125     14073     14075     14125     14126
     14073     14075     14125     14127     14073     14075     14125     14128
     14074     14073     14075     14076     14074     14073     14075     14077
     14074     14073     14075     14125     14075     14125     14128     14129
     14075     14125     14128     14130     14075     14125     14128     14131
     14076     14075     14125     14126     14076     14075     14125     14127
     14076     14075     14125     14128     14077     14075     14125     14126
     14077     14075     14125     14127     14077     14075     14125     14128
     14078     14081     14084     14085     14078     14081     14084     14086
     14078     14081     14084     14087     14079     14078     14081     14082
     14079     14078     14081     14083     14079     14078     14081     14084
     14080     14078     14081     14082     14080     14078     14081     14083
     14080     14078     14081     14084     14081     14084     14087     14088
     14081     14084     14087     14089     14081     14084     14087     14090
     14082     14081     14084     14085     14082     14081     14084     14086
     14082     14081     14084     14087     14083     14081     14084     14085
     14083     14081     14084     14086     14083     14081     14084     14087
     14084     14087     14090     14091     14084     14087     14090     14092
     14084     14087     14090     14093     14085     14084     14087     14088
     14085     14084     14087     14089     14085     14084     14087     14090
     14086     14084     14087     14088     14086     14084     14087     14089
     14086     14084     14087     14090     14087     14090     14093     14094
     14087     14090     14093     14095     14087     14090     14093     14096
     14088     14087     14090     14091     14088     14087     14090     14092
     14088     14087     14090     14093     14089     14087     14090     14091
     14089     14087     14090     14092     14089     14087     14090     14093
     14090     14093     14096     14097     14090     14093     14096     14098
     14091     14090     14093     14094     14091     14090     14093     14095
     14091     14090     14093     14096     14092     14090     14093     14094
     14092     14090     14093     14095     14092     14090     14093     14096
     14093     14096     14098     14099     14093     14096     14098     14100
     14094     14093     14096     14097     14094     14093     14096     14098
     14095     14093     14096     14097     14095     14093     14096     14098
     14096     14098     14100     14101     14096     14098     14100     14102
     14096     14098     14100     14103     14097     14096     14098     14099
     14097     14096     14098     14100     14098     14100     14103     14104
     14098     14100     14103     14105     14098     14100     14103     14106
     14099     14098     14100     14101     14099     14098     14100     14102
     14099     14098     14100     14103     14100     14103     14106     14107
     14100     14103     14106     14108     14100     14103     14106     14109
     14101     14100     14103     14104     14101     14100     14103     14105
     14101     14100     14103     14106     14102     14100     14103     14104
     14102     14100     14103     14105     14102     14100     14103     14106
     14103     14106     14109     14110     14103     14106     14109     14111
     14103     14106     14109     14112     14104     14103     14106     14107
     14104     14103     14106     14108     14104     14103     14106     14109
     14105     14103     14106     14107     14105     14103     14106     14108
     14105     14103     14106     14109     14106     14109     14112     14113
     14106     14109     14112     14114     14106     14109     14112     14115
     14107     14106     14109     14110     14107     14106     14109     14111
     14107     14106     14109     14112     14108     14106     14109     14110
     14108     14106     14109     14111     14108     14106     14109     14112
     14109     14112     14115     14116     14109     14112     14115     14117
     14109     14112     14115     14118     14110     14109     14112     14113
     14110     14109     14112     14114     14110     14109     14112     14115
     14111     14109     14112     14113     14111     14109     14112     14114
     14111     14109     14112     14115     14112     14115     14118     14119
     14112     14115     14118     14120     14112     14115     14118     14121
     14113     14112     14115     14116     14113     14112     14115     14117
     14113     14112     14115     14118     14114     14112     14115     14116
     14114     14112     14115     14117     14114     14112     14115     14118
     14115     14118     14121     14122     14115     14118     14121     14123
     14115     14118     14121     14124     14116     14115     14118     14119
     14116     14115     14118     14120     14116     14115     14118     14121
     14117     14115     14118     14119     14117     14115     14118     14120
     14117     14115     14118     14121     14119     14118     14121     14122
     14119     14118     14121     14123     14119     14118     14121     14124
     14120     14118     14121     14122     14120     14118     14121     14123
     14120     14118     14121     14124     14125     14128     14131     14132
     14125     14128     14131     14133     14125     14128     14131     14134
     14126     14125     14128     14129     14126     14125     14128     14130
     14126     14125     14128     14131     14127     14125     14128     14129
     14127     14125     14128     14130     14127     14125     14128     14131
     14128     14131     14134     14135     14128     14131     14134     14136
     14128     14131     14134     14137     14129     14128     14131     14132
     14129     14128     14131     14133     14129     14128     14131     14134
     14130     14128     14131     14132     14130     14128     14131     14133
     14130     14128     14131     14134     14131     14134     14137     14138
     14131     14134     14137     14139     14131     14134     14137     14140
     14132     14131     14134     14135     14132     14131     14134     14136
     14132     14131     14134     14137     14133     14131     14134     14135
     14133     14131     14134     14136     14133     14131     14134     14137
     14134     14137     14140     14141     14134     14137     14140     14142
     14134     14137     14140     14143     14135     14134     14137     14138
     14135     14134     14137     14139     14135     14134     14137     14140
     14136     14134     14137     14138     14136     14134     14137     14139
     14136     14134     14137     14140     14137     14140     14143     14144
     14137     14140     14143     14145     14137     14140     14143     14146
     14138     14137     14140     14141     14138     14137     14140     14142
     14138     14137     14140     14143     14139     14137     14140     14141
     14139     14137     14140     14142     14139     14137     14140     14143
     14140     14143     14146     14147     14140     14143     14146     14148
     14140     14143     14146     14149     14141     14140     14143     14144
     14141     14140     14143     14145     14141     14140     14143     14146
     14142     14140     14143     14144     14142     14140     14143     14145
     14142     14140     14143     14146     14143     14146     14149     14150
     14143     14146     14149     14151     14143     14146     14149     14152
     14144     14143     14146     14147     14144     14143     14146     14148
     14144     14143     14146     14149     14145     14143     14146     14147
     14145     14143     14146     14148     14145     14143     14146     14149
     14146     14149     14152     14153     14146     14149     14152     14154
     14146     14149     14152     14155     14147     14146     14149     14150
     14147     14146     14149     14151     14147     14146     14149     14152
     14148     14146     14149     14150     14148     14146     14149     14151
     14148     14146     14149     14152     14149     14152     14155     14156
     14149     14152     14155     14157     14149     14152     14155     14158
     14150     14149     14152     14153     14150     14149     14152     14154
     14150     14149     14152     14155     14151     14149     14152     14153
     14151     14149     14152     14154     14151     14149     14152     14155
     14152     14155     14158     14159     14152     14155     14158     14160
     14152     14155     14158     14161     14153     14152     14155     14156
     14153     14152     14155     14157     14153     14152     14155     14158
     14154     14152     14155     14156     14154     14152     14155     14157
     14154     14152     14155     14158     14155     14158     14161     14162
     14155     14158     14161     14163     14155     14158     14161     14164
     14156     14155     14158     14159     14156     14155     14158     14160
     14156     14155     14158     14161     14157     14155     14158     14159
     14157     14155     14158     14160     14157     14155     14158     14161
     14158     14161     14164     14165     14158     14161     14164     14166
     14158     14161     14164     14167     14159     14158     14161     14162
     14159     14158     14161     14163     14159     14158     14161     14164
     14160     14158     14161     14162     14160     14158     14161     14163
     14160     14158     14161     14164     14162     14161     14164     14165
     14162     14161     14164     14166     14162     14161     14164     14167
     14163     14161     14164     14165     14163     14161     14164     14166
     14163     14161     14164     14167     14168     14172     14175     14176
     14168     14172     14175     14177     14168     14172     14175     14182
     14169     14168     14172     14173     14169     14168     14172     14174
     14169     14168     14172     14175     14170     14168     14172     14173
     14170     14168     14172     14174     14170     14168     14172     14175
     14171     14168     14172     14173     14171     14168     14172     14174
     14171     14168     14172     14175     14172     14175     14182     14178
     14173     14172     14175     14176     14173     14172     14175     14177
     14173     14172     14175     14182     14174     14172     14175     14176
     14174     14172     14175     14177     14174     14172     14175     14182
     14175     14182     14178     14179     14175     14182     14178     14180
     14175     14182     14178     14181     14176     14175     14182     14178
     14177     14175     14182     14178     14178     14181     14183     14184
     14178     14181     14183     14185     14178     14181     14183     14186
     14179     14178     14181     14183     14180     14178     14181     14183
     14181     14183     14186     14187     14181     14183     14186     14188
     14181     14183     14186     14194     14182     14178     14181     14183
     14183     14186     14188     14189     14183     14186     14194     14195
     14183     14186     14194     14196     14183     14186     14194     14197
     14184     14183     14186     14187     14184     14183     14186     14188
     14184     14183     14186     14194     14185     14183     14186     14187
     14185     14183     14186     14188     14185     14183     14186     14194
     14186     14188     14189     14190     14186     14188     14189     14191
     14186     14194     14197     14198     14187     14186     14188     14189
     14187     14186     14194     14195     14187     14186     14194     14196
     14187     14186     14194     14197     14188     14186     14194     14195
     14188     14186     14194     14196     14188     14186     14194     14197
     14188     14189     14191     14192     14188     14189     14191     14193
     14188     14189     14191     14203     14189     14188     14186     14194
     14189     14191     14203     14204     14189     14191     14203     14205
     14189     14191     14203     14206     14190     14189     14191     14192
     14190     14189     14191     14193     14190     14189     14191     14203
     14191     14203     14206     14207     14191     14203     14206     14208
     14191     14203     14206     14209     14192     14191     14203     14204
     14192     14191     14203     14205     14192     14191     14203     14206
     14193     14191     14203     14204     14193     14191     14203     14205
     14193     14191     14203     14206     14194     14197     14198     14199
     14194     14197     14198     14200     14195     14194     14197     14198
     14196     14194     14197     14198     14197     14198     14200     14201
     14197     14198     14200     14202     14197     14198     14200     14247
     14198     14200     14247     14248     14198     14200     14247     14249
     14198     14200     14247     14250     14199     14198     14200     14201
     14199     14198     14200     14202     14199     14198     14200     14247
     14200     14247     14250     14251     14200     14247     14250     14252
     14200     14247     14250     14253     14201     14200     14247     14248
     14201     14200     14247     14249     14201     14200     14247     14250
     14202     14200     14247     14248     14202     14200     14247     14249
     14202     14200     14247     14250     14203     14206     14209     14210
     14203     14206     14209     14211     14203     14206     14209     14212
     14204     14203     14206     14207     14204     14203     14206     14208
     14204     14203     14206     14209     14205     14203     14206     14207
     14205     14203     14206     14208     14205     14203     14206     14209
     14206     14209     14212     14213     14206     14209     14212     14214
     14206     14209     14212     14215     14207     14206     14209     14210
     14207     14206     14209     14211     14207     14206     14209     14212
     14208     14206     14209     14210     14208     14206     14209     14211
     14208     14206     14209     14212     14209     14212     14215     14216
     14209     14212     14215     14217     14209     14212     14215     14218
     14210     14209     14212     14213     14210     14209     14212     14214
     14210     14209     14212     14215     14211     14209     14212     14213
     14211     14209     14212     14214     14211     14209     14212     14215
     14212     14215     14218     14219     14212     14215     14218     14220
     14212     14215     14218     14221     14213     14212     14215     14216
     14213     14212     14215     14217     14213     14212     14215     14218
     14214     14212     14215     14216     14214     14212     14215     14217
     14214     14212     14215     14218     14215     14218     14221     14222
     14215     14218     14221     14223     14215     14218     14221     14226
     14216     14215     14218     14219     14216     14215     14218     14220
     14216     14215     14218     14221     14217     14215     14218     14219
     14217     14215     14218     14220     14217     14215     14218     14221
     14218     14221     14223     14224     14218     14221     14223     14225
     14218     14221     14223     14226     14218     14221     14226     14223
     14218     14221     14226     14227     14218     14221     14226     14228
     14219     14218     14221     14222     14219     14218     14221     14223
     14219     14218     14221     14226     14220     14218     14221     14222
     14220     14218     14221     14223     14220     14218     14221     14226
     14221     14223     14226     14227     14221     14223     14226     14228
     14221     14226     14223     14224     14221     14226     14223     14225
     14221     14226     14228     14229     14221     14226     14228     14230
     14221     14226     14228     14231     14222     14221     14223     14224
     14222     14221     14223     14225     14222     14221     14223     14226
     14222     14221     14226     14223     14222     14221     14226     14227
     14222     14221     14226     14228     14223     14221     14226     14227
     14223     14221     14226     14228     14223     14226     14228     14229
     14223     14226     14228     14230     14223     14226     14228     14231
     14224     14223     14221     14226     14224     14223     14226     14227
     14224     14223     14226     14228     14225     14223     14221     14226
     14225     14223     14226     14227     14225     14223     14226     14228
     14226     14228     14231     14232     14226     14228     14231     14233
     14226     14228     14231     14234     14227     14226     14228     14229
     14227     14226     14228     14230     14227     14226     14228     14231
     14228     14231     14234     14235     14228     14231     14234     14236
     14228     14231     14234     14237     14229     14228     14231     14232
     14229     14228     14231     14233     14229     14228     14231     14234
     14230     14228     14231     14232     14230     14228     14231     14233
     14230     14228     14231     14234     14231     14234     14237     14238
     14231     14234     14237     14239     14231     14234     14237     14240
     14232     14231     14234     14235     14232     14231     14234     14236
     14232     14231     14234     14237     14233     14231     14234     14235
     14233     14231     14234     14236     14233     14231     14234     14237
     14234     14237     14240     14241     14234     14237     14240     14242
     14234     14237     14240     14243     14235     14234     14237     14238
     14235     14234     14237     14239     14235     14234     14237     14240
     14236     14234     14237     14238     14236     14234     14237     14239
     14236     14234     14237     14240     14237     14240     14243     14244
     14237     14240     14243     14245     14237     14240     14243     14246
     14238     14237     14240     14241     14238     14237     14240     14242
     14238     14237     14240     14243     14239     14237     14240     14241
     14239     14237     14240     14242     14239     14237     14240     14243
     14241     14240     14243     14244     14241     14240     14243     14245
     14241     14240     14243     14246     14242     14240     14243     14244
     14242     14240     14243     14245     14242     14240     14243     14246
     14247     14250     14253     14254     14247     14250     14253     14255
     14247     14250     14253     14256     14248     14247     14250     14251
     14248     14247     14250     14252     14248     14247     14250     14253
     14249     14247     14250     14251     14249     14247     14250     14252
     14249     14247     14250     14253     14250     14253     14256     14257
     14250     14253     14256     14258     14250     14253     14256     14259
     14251     14250     14253     14254     14251     14250     14253     14255
     14251     14250     14253     14256     14252     14250     14253     14254
     14252     14250     14253     14255     14252     14250     14253     14256
     14253     14256     14259     14260     14253     14256     14259     14261
     14253     14256     14259     14262     14254     14253     14256     14257
     14254     14253     14256     14258     14254     14253     14256     14259
     14255     14253     14256     14257     14255     14253     14256     14258
     14255     14253     14256     14259     14256     14259     14262     14263
     14256     14259     14262     14264     14256     14259     14262     14265
     14257     14256     14259     14260     14257     14256     14259     14261
     14257     14256     14259     14262     14258     14256     14259     14260
     14258     14256     14259     14261     14258     14256     14259     14262
     14259     14262     14265     14266     14259     14262     14265     14267
     14259     14262     14265     14268     14260     14259     14262     14263
     14260     14259     14262     14264     14260     14259     14262     14265
     14261     14259     14262     14263     14261     14259     14262     14264
     14261     14259     14262     14265     14262     14265     14268     14269
     14262     14265     14268     14270     14262     14265     14268     14271
     14263     14262     14265     14266     14263     14262     14265     14267
     14263     14262     14265     14268     14264     14262     14265     14266
     14264     14262     14265     14267     14264     14262     14265     14268
     14265     14268     14271     14272     14265     14268     14271     14273
     14265     14268     14271     14274     14266     14265     14268     14269
     14266     14265     14268     14270     14266     14265     14268     14271
     14267     14265     14268     14269     14267     14265     14268     14270
     14267     14265     14268     14271     14268     14271     14274     14275
     14268     14271     14274     14276     14268     14271     14274     14277
     14269     14268     14271     14272     14269     14268     14271     14273
     14269     14268     14271     14274     14270     14268     14271     14272
     14270     14268     14271     14273     14270     14268     14271     14274
     14271     14274     14277     14278     14271     14274     14277     14279
     14271     14274     14277     14280     14272     14271     14274     14275
     14272     14271     14274     14276     14272     14271     14274     14277
     14273     14271     14274     14275     14273     14271     14274     14276
     14273     14271     14274     14277     14274     14277     14280     14281
     14274     14277     14280     14282     14274     14277     14280     14283
     14275     14274     14277     14278     14275     14274     14277     14279
     14275     14274     14277     14280     14276     14274     14277     14278
     14276     14274     14277     14279     14276     14274     14277     14280
     14277     14280     14283     14284     14277     14280     14283     14285
     14277     14280     14283     14286     14278     14277     14280     14281
     14278     14277     14280     14282     14278     14277     14280     14283
     14279     14277     14280     14281     14279     14277     14280     14282
     14279     14277     14280     14283     14280     14283     14286     14287
     14280     14283     14286     14288     14280     14283     14286     14289
     14281     14280     14283     14284     14281     14280     14283     14285
     14281     14280     14283     14286     14282     14280     14283     14284
     14282     14280     14283     14285     14282     14280     14283     14286
     14284     14283     14286     14287     14284     14283     14286     14288
     14284     14283     14286     14289     14285     14283     14286     14287
     14285     14283     14286     14288     14285     14283     14286     14289
     14290     14294     14297     14298     14290     14294     14297     14299
     14290     14294     14297     14304     14291     14290     14294     14295
     14291     14290     14294     14296     14291     14290     14294     14297
     14292     14290     14294     14295     14292     14290     14294     14296
     14292     14290     14294     14297     14293     14290     14294     14295
     14293     14290     14294     14296     14293     14290     14294     14297
     14294     14297     14304     14300     14295     14294     14297     14298
     14295     14294     14297     14299     14295     14294     14297     14304
     14296     14294     14297     14298     14296     14294     14297     14299
     14296     14294     14297     14304     14297     14304     14300     14301
     14297     14304     14300     14302     14297     14304     14300     14303
     14298     14297     14304     14300     14299     14297     14304     14300
     14300     14303     14305     14306     14300     14303     14305     14307
     14300     14303     14305     14308     14301     14300     14303     14305
     14302     14300     14303     14305     14303     14305     14308     14309
     14303     14305     14308     14310     14303     14305     14308     14316
     14304     14300     14303     14305     14305     14308     14310     14311
     14305     14308     14316     14317     14305     14308     14316     14318
     14305     14308     14316     14319     14306     14305     14308     14309
     14306     14305     14308     14310     14306     14305     14308     14316
     14307     14305     14308     14309     14307     14305     14308     14310
     14307     14305     14308     14316     14308     14310     14311     14312
     14308     14310     14311     14313     14308     14316     14319     14320
     14309     14308     14310     14311     14309     14308     14316     14317
     14309     14308     14316     14318     14309     14308     14316     14319
     14310     14308     14316     14317     14310     14308     14316     14318
     14310     14308     14316     14319     14310     14311     14313     14314
     14310     14311     14313     14315     14310     14311     14313     14325
     14311     14310     14308     14316     14311     14313     14325     14326
     14311     14313     14325     14327     14311     14313     14325     14328
     14312     14311     14313     14314     14312     14311     14313     14315
     14312     14311     14313     14325     14313     14325     14328     14329
     14313     14325     14328     14330     14313     14325     14328     14331
     14314     14313     14325     14326     14314     14313     14325     14327
     14314     14313     14325     14328     14315     14313     14325     14326
     14315     14313     14325     14327     14315     14313     14325     14328
     14316     14319     14320     14321     14316     14319     14320     14322
     14317     14316     14319     14320     14318     14316     14319     14320
     14319     14320     14322     14323     14319     14320     14322     14324
     14319     14320     14322     14372     14320     14322     14372     14373
     14320     14322     14372     14374     14320     14322     14372     14375
     14321     14320     14322     14323     14321     14320     14322     14324
     14321     14320     14322     14372     14322     14372     14375     14376
     14322     14372     14375     14377     14322     14372     14375     14378
     14323     14322     14372     14373     14323     14322     14372     14374
     14323     14322     14372     14375     14324     14322     14372     14373
     14324     14322     14372     14374     14324     14322     14372     14375
     14325     14328     14331     14332     14325     14328     14331     14333
     14325     14328     14331     14334     14326     14325     14328     14329
     14326     14325     14328     14330     14326     14325     14328     14331
     14327     14325     14328     14329     14327     14325     14328     14330
     14327     14325     14328     14331     14328     14331     14334     14335
     14328     14331     14334     14336     14328     14331     14334     14337
     14329     14328     14331     14332     14329     14328     14331     14333
     14329     14328     14331     14334     14330     14328     14331     14332
     14330     14328     14331     14333     14330     14328     14331     14334
     14331     14334     14337     14338     14331     14334     14337     14339
     14331     14334     14337     14340     14332     14331     14334     14335
     14332     14331     14334     14336     14332     14331     14334     14337
     14333     14331     14334     14335     14333     14331     14334     14336
     14333     14331     14334     14337     14334     14337     14340     14341
     14334     14337     14340     14342     14334     14337     14340     14343
     14335     14334     14337     14338     14335     14334     14337     14339
     14335     14334     14337     14340     14336     14334     14337     14338
     14336     14334     14337     14339     14336     14334     14337     14340
     14337     14340     14343     14344     14337     14340     14343     14345
     14338     14337     14340     14341     14338     14337     14340     14342
     14338     14337     14340     14343     14339     14337     14340     14341
     14339     14337     14340     14342     14339     14337     14340     14343
     14340     14343     14345     14346     14340     14343     14345     14347
     14341     14340     14343     14344     14341     14340     14343     14345
     14342     14340     14343     14344     14342     14340     14343     14345
     14343     14345     14347     14348     14343     14345     14347     14349
     14343     14345     14347     14350     14344     14343     14345     14346
     14344     14343     14345     14347     14345     14347     14350     14351
     14345     14347     14350     14352     14345     14347     14350     14353
     14346     14345     14347     14348     14346     14345     14347     14349
     14346     14345     14347     14350     14347     14350     14353     14354
     14347     14350     14353     14355     14347     14350     14353     14356
     14348     14347     14350     14351     14348     14347     14350     14352
     14348     14347     14350     14353     14349     14347     14350     14351
     14349     14347     14350     14352     14349     14347     14350     14353
     14350     14353     14356     14357     14350     14353     14356     14358
     14350     14353     14356     14359     14351     14350     14353     14354
     14351     14350     14353     14355     14351     14350     14353     14356
     14352     14350     14353     14354     14352     14350     14353     14355
     14352     14350     14353     14356     14353     14356     14359     14360
     14353     14356     14359     14361     14353     14356     14359     14362
     14354     14353     14356     14357     14354     14353     14356     14358
     14354     14353     14356     14359     14355     14353     14356     14357
     14355     14353     14356     14358     14355     14353     14356     14359
     14356     14359     14362     14363     14356     14359     14362     14364
     14356     14359     14362     14365     14357     14356     14359     14360
     14357     14356     14359     14361     14357     14356     14359     14362
     14358     14356     14359     14360     14358     14356     14359     14361
     14358     14356     14359     14362     14359     14362     14365     14366
     14359     14362     14365     14367     14359     14362     14365     14368
     14360     14359     14362     14363     14360     14359     14362     14364
     14360     14359     14362     14365     14361     14359     14362     14363
     14361     14359     14362     14364     14361     14359     14362     14365
     14362     14365     14368     14369     14362     14365     14368     14370
     14362     14365     14368     14371     14363     14362     14365     14366
     14363     14362     14365     14367     14363     14362     14365     14368
     14364     14362     14365     14366     14364     14362     14365     14367
     14364     14362     14365     14368     14366     14365     14368     14369
     14366     14365     14368     14370     14366     14365     14368     14371
     14367     14365     14368     14369     14367     14365     14368     14370
     14367     14365     14368     14371     14372     14375     14378     14379
     14372     14375     14378     14380     14372     14375     14378     14381
     14373     14372     14375     14376     14373     14372     14375     14377
     14373     14372     14375     14378     14374     14372     14375     14376
     14374     14372     14375     14377     14374     14372     14375     14378
     14375     14378     14381     14382     14375     14378     14381     14383
     14375     14378     14381     14384     14376     14375     14378     14379
     14376     14375     14378     14380     14376     14375     14378     14381
     14377     14375     14378     14379     14377     14375     14378     14380
     14377     14375     14378     14381     14378     14381     14384     14385
     14378     14381     14384     14386     14378     14381     14384     14387
     14379     14378     14381     14382     14379     14378     14381     14383
     14379     14378     14381     14384     14380     14378     14381     14382
     14380     14378     14381     14383     14380     14378     14381     14384
     14381     14384     14387     14388     14381     14384     14387     14389
     14381     14384     14387     14390     14382     14381     14384     14385
     14382     14381     14384     14386     14382     14381     14384     14387
     14383     14381     14384     14385     14383     14381     14384     14386
     14383     14381     14384     14387     14384     14387     14390     14391
     14384     14387     14390     14392     14384     14387     14390     14393
     14385     14384     14387     14388     14385     14384     14387     14389
     14385     14384     14387     14390     14386     14384     14387     14388
     14386     14384     14387     14389     14386     14384     14387     14390
     14387     14390     14393     14394     14387     14390     14393     14395
     14387     14390     14393     14396     14388     14387     14390     14391
     14388     14387     14390     14392     14388     14387     14390     14393
     14389     14387     14390     14391     14389     14387     14390     14392
     14389     14387     14390     14393     14390     14393     14396     14397
     14390     14393     14396     14398     14390     14393     14396     14399
     14391     14390     14393     14394     14391     14390     14393     14395
     14391     14390     14393     14396     14392     14390     14393     14394
     14392     14390     14393     14395     14392     14390     14393     14396
     14393     14396     14399     14400     14393     14396     14399     14401
     14393     14396     14399     14402     14394     14393     14396     14397
     14394     14393     14396     14398     14394     14393     14396     14399
     14395     14393     14396     14397     14395     14393     14396     14398
     14395     14393     14396     14399     14396     14399     14402     14403
     14396     14399     14402     14404     14396     14399     14402     14405
     14397     14396     14399     14400     14397     14396     14399     14401
     14397     14396     14399     14402     14398     14396     14399     14400
     14398     14396     14399     14401     14398     14396     14399     14402
     14399     14402     14405     14406     14399     14402     14405     14407
     14399     14402     14405     14408     14400     14399     14402     14403
     14400     14399     14402     14404     14400     14399     14402     14405
     14401     14399     14402     14403     14401     14399     14402     14404
     14401     14399     14402     14405     14402     14405     14408     14409
     14402     14405     14408     14410     14402     14405     14408     14411
     14403     14402     14405     14406     14403     14402     14405     14407
     14403     14402     14405     14408     14404     14402     14405     14406
     14404     14402     14405     14407     14404     14402     14405     14408
     14405     14408     14411     14412     14405     14408     14411     14413
     14405     14408     14411     14414     14406     14405     14408     14409
     14406     14405     14408     14410     14406     14405     14408     14411
     14407     14405     14408     14409     14407     14405     14408     14410
     14407     14405     14408     14411     14409     14408     14411     14412
     14409     14408     14411     14413     14409     14408     14411     14414
     14410     14408     14411     14412     14410     14408     14411     14413
     14410     14408     14411     14414     14415     14420     14422     14423
     14415     14420     14424     14425     14415     14420     14424     14426
     14415     14420     14424     14431     14416     14415     14418     14419
     14416     14415     14420     14421     14416     14415     14420     14422
     14416     14415     14420     14424     14417     14415     14418     14419
     14417     14415     14420     14421     14417     14415     14420     14422
     14417     14415     14420     14424     14418     14415     14420     14421
     14418     14415     14420     14422     14418     14415     14420     14424
     14419     14418     14415     14420     14420     14424     14431     14427
     14421     14420     14422     14423     14421     14420     14424     14425
     14421     14420     14424     14426     14421     14420     14424     14431
     14422     14420     14424     14425     14422     14420     14424     14426
     14422     14420     14424     14431     14423     14422     14420     14424
     14424     14431     14427     14428     14424     14431     14427     14429
     14424     14431     14427     14430     14425     14424     14431     14427
     14426     14424     14431     14427     14427     14430     14432     14433
     14427     14430     14432     14434     14427     14430     14432     14435
     14428     14427     14430     14432     14429     14427     14430     14432
     14430     14432     14435     14436     14430     14432     14435     14437
     14430     14432     14435     14443     14431     14427     14430     14432
     14432     14435     14437     14438     14432     14435     14443     14444
     14432     14435     14443     14445     14432     14435     14443     14446
     14433     14432     14435     14436     14433     14432     14435     14437
     14433     14432     14435     14443     14434     14432     14435     14436
     14434     14432     14435     14437     14434     14432     14435     14443
     14435     14437     14438     14439     14435     14437     14438     14440
     14435     14443     14446     14447     14436     14435     14437     14438
     14436     14435     14443     14444     14436     14435     14443     14445
     14436     14435     14443     14446     14437     14435     14443     14444
     14437     14435     14443     14445     14437     14435     14443     14446
     14437     14438     14440     14441     14437     14438     14440     14442
     14437     14438     14440     14452     14438     14437     14435     14443
     14438     14440     14452     14453     14438     14440     14452     14454
     14438     14440     14452     14455     14439     14438     14440     14441
     14439     14438     14440     14442     14439     14438     14440     14452
     14440     14452     14455     14456     14440     14452     14455     14457
     14440     14452     14455     14458     14441     14440     14452     14453
     14441     14440     14452     14454     14441     14440     14452     14455
     14442     14440     14452     14453     14442     14440     14452     14454
     14442     14440     14452     14455     14443     14446     14447     14448
     14443     14446     14447     14449     14444     14443     14446     14447
     14445     14443     14446     14447     14446     14447     14449     14450
     14446     14447     14449     14451     14446     14447     14449     14496
     14447     14449     14496     14497     14447     14449     14496     14498
     14447     14449     14496     14499     14448     14447     14449     14450
     14448     14447     14449     14451     14448     14447     14449     14496
     14449     14496     14499     14500     14449     14496     14499     14501
     14449     14496     14499     14502     14450     14449     14496     14497
     14450     14449     14496     14498     14450     14449     14496     14499
     14451     14449     14496     14497     14451     14449     14496     14498
     14451     14449     14496     14499     14452     14455     14458     14459
     14452     14455     14458     14460     14452     14455     14458     14461
     14453     14452     14455     14456     14453     14452     14455     14457
     14453     14452     14455     14458     14454     14452     14455     14456
     14454     14452     14455     14457     14454     14452     14455     14458
     14455     14458     14461     14462     14455     14458     14461     14463
     14455     14458     14461     14464     14456     14455     14458     14459
     14456     14455     14458     14460     14456     14455     14458     14461
     14457     14455     14458     14459     14457     14455     14458     14460
     14457     14455     14458     14461     14458     14461     14464     14465
     14458     14461     14464     14466     14458     14461     14464     14467
     14459     14458     14461     14462     14459     14458     14461     14463
     14459     14458     14461     14464     14460     14458     14461     14462
     14460     14458     14461     14463     14460     14458     14461     14464
     14461     14464     14467     14468     14461     14464     14467     14469
     14461     14464     14467     14470     14462     14461     14464     14465
     14462     14461     14464     14466     14462     14461     14464     14467
     14463     14461     14464     14465     14463     14461     14464     14466
     14463     14461     14464     14467     14464     14467     14470     14471
     14464     14467     14470     14472     14464     14467     14470     14475
     14465     14464     14467     14468     14465     14464     14467     14469
     14465     14464     14467     14470     14466     14464     14467     14468
     14466     14464     14467     14469     14466     14464     14467     14470
     14467     14470     14472     14473     14467     14470     14472     14474
     14467     14470     14472     14475     14467     14470     14475     14472
     14467     14470     14475     14476     14467     14470     14475     14477
     14468     14467     14470     14471     14468     14467     14470     14472
     14468     14467     14470     14475     14469     14467     14470     14471
     14469     14467     14470     14472     14469     14467     14470     14475
     14470     14472     14475     14476     14470     14472     14475     14477
     14470     14475     14472     14473     14470     14475     14472     14474
     14470     14475     14477     14478     14470     14475     14477     14479
     14470     14475     14477     14480     14471     14470     14472     14473
     14471     14470     14472     14474     14471     14470     14472     14475
     14471     14470     14475     14472     14471     14470     14475     14476
     14471     14470     14475     14477     14472     14470     14475     14476
     14472     14470     14475     14477     14472     14475     14477     14478
     14472     14475     14477     14479     14472     14475     14477     14480
     14473     14472     14470     14475     14473     14472     14475     14476
     14473     14472     14475     14477     14474     14472     14470     14475
     14474     14472     14475     14476     14474     14472     14475     14477
     14475     14477     14480     14481     14475     14477     14480     14482
     14475     14477     14480     14483     14476     14475     14477     14478
     14476     14475     14477     14479     14476     14475     14477     14480
     14477     14480     14483     14484     14477     14480     14483     14485
     14477     14480     14483     14486     14478     14477     14480     14481
     14478     14477     14480     14482     14478     14477     14480     14483
     14479     14477     14480     14481     14479     14477     14480     14482
     14479     14477     14480     14483     14480     14483     14486     14487
     14480     14483     14486     14488     14480     14483     14486     14489
     14481     14480     14483     14484     14481     14480     14483     14485
     14481     14480     14483     14486     14482     14480     14483     14484
     14482     14480     14483     14485     14482     14480     14483     14486
     14483     14486     14489     14490     14483     14486     14489     14491
     14483     14486     14489     14492     14484     14483     14486     14487
     14484     14483     14486     14488     14484     14483     14486     14489
     14485     14483     14486     14487     14485     14483     14486     14488
     14485     14483     14486     14489     14486     14489     14492     14493
     14486     14489     14492     14494     14486     14489     14492     14495
     14487     14486     14489     14490     14487     14486     14489     14491
     14487     14486     14489     14492     14488     14486     14489     14490
     14488     14486     14489     14491     14488     14486     14489     14492
     14490     14489     14492     14493     14490     14489     14492     14494
     14490     14489     14492     14495     14491     14489     14492     14493
     14491     14489     14492     14494     14491     14489     14492     14495
     14496     14499     14502     14503     14496     14499     14502     14504
     14496     14499     14502     14505     14497     14496     14499     14500
     14497     14496     14499     14501     14497     14496     14499     14502
     14498     14496     14499     14500     14498     14496     14499     14501
     14498     14496     14499     14502     14499     14502     14505     14506
     14499     14502     14505     14507     14499     14502     14505     14508
     14500     14499     14502     14503     14500     14499     14502     14504
     14500     14499     14502     14505     14501     14499     14502     14503
     14501     14499     14502     14504     14501     14499     14502     14505
     14502     14505     14508     14509     14502     14505     14508     14510
     14502     14505     14508     14511     14503     14502     14505     14506
     14503     14502     14505     14507     14503     14502     14505     14508
     14504     14502     14505     14506     14504     14502     14505     14507
     14504     14502     14505     14508     14505     14508     14511     14512
     14505     14508     14511     14513     14505     14508     14511     14514
     14506     14505     14508     14509     14506     14505     14508     14510
     14506     14505     14508     14511     14507     14505     14508     14509
     14507     14505     14508     14510     14507     14505     14508     14511
     14508     14511     14514     14515     14508     14511     14514     14516
     14508     14511     14514     14517     14509     14508     14511     14512
     14509     14508     14511     14513     14509     14508     14511     14514
     14510     14508     14511     14512     14510     14508     14511     14513
     14510     14508     14511     14514     14511     14514     14517     14518
     14511     14514     14517     14519     14511     14514     14517     14520
     14512     14511     14514     14515     14512     14511     14514     14516
     14512     14511     14514     14517     14513     14511     14514     14515
     14513     14511     14514     14516     14513     14511     14514     14517
     14514     14517     14520     14521     14514     14517     14520     14522
     14514     14517     14520     14523     14515     14514     14517     14518
     14515     14514     14517     14519     14515     14514     14517     14520
     14516     14514     14517     14518     14516     14514     14517     14519
     14516     14514     14517     14520     14517     14520     14523     14524
     14517     14520     14523     14525     14517     14520     14523     14526
     14518     14517     14520     14521     14518     14517     14520     14522
     14518     14517     14520     14523     14519     14517     14520     14521
     14519     14517     14520     14522     14519     14517     14520     14523
     14520     14523     14526     14527     14520     14523     14526     14528
     14520     14523     14526     14529     14521     14520     14523     14524
     14521     14520     14523     14525     14521     14520     14523     14526
     14522     14520     14523     14524     14522     14520     14523     14525
     14522     14520     14523     14526     14523     14526     14529     14530
     14523     14526     14529     14531     14523     14526     14529     14532
     14524     14523     14526     14527     14524     14523     14526     14528
     14524     14523     14526     14529     14525     14523     14526     14527
     14525     14523     14526     14528     14525     14523     14526     14529
     14526     14529     14532     14533     14526     14529     14532     14534
     14526     14529     14532     14535     14527     14526     14529     14530
     14527     14526     14529     14531     14527     14526     14529     14532
     14528     14526     14529     14530     14528     14526     14529     14531
     14528     14526     14529     14532     14529     14532     14535     14536
     14529     14532     14535     14537     14529     14532     14535     14538
     14530     14529     14532     14533     14530     14529     14532     14534
     14530     14529     14532     14535     14531     14529     14532     14533
     14531     14529     14532     14534     14531     14529     14532     14535
     14533     14532     14535     14536     14533     14532     14535     14537
     14533     14532     14535     14538     14534     14532     14535     14536
     14534     14532     14535     14537     14534     14532     14535     14538
     14539     14543     14546     14547     14539     14543     14546     14548
     14539     14543     14546     14553     14540     14539     14543     14544
     14540     14539     14543     14545     14540     14539     14543     14546
     14541     14539     14543     14544     14541     14539     14543     14545
     14541     14539     14543     14546     14542     14539     14543     14544
     14542     14539     14543     14545     14542     14539     14543     14546
     14543     14546     14553     14549     14544     14543     14546     14547
     14544     14543     14546     14548     14544     14543     14546     14553
     14545     14543     14546     14547     14545     14543     14546     14548
     14545     14543     14546     14553     14546     14553     14549     14550
     14546     14553     14549     14551     14546     14553     14549     14552
     14547     14546     14553     14549     14548     14546     14553     14549
     14549     14552     14554     14555     14549     14552     14554     14556
     14549     14552     14554     14557     14550     14549     14552     14554
     14551     14549     14552     14554     14552     14554     14557     14558
     14552     14554     14557     14559     14552     14554     14557     14565
     14553     14549     14552     14554     14554     14557     14559     14560
     14554     14557     14565     14566     14554     14557     14565     14567
     14554     14557     14565     14568     14555     14554     14557     14558
     14555     14554     14557     14559     14555     14554     14557     14565
     14556     14554     14557     14558     14556     14554     14557     14559
     14556     14554     14557     14565     14557     14559     14560     14561
     14557     14559     14560     14562     14557     14565     14568     14569
     14558     14557     14559     14560     14558     14557     14565     14566
     14558     14557     14565     14567     14558     14557     14565     14568
     14559     14557     14565     14566     14559     14557     14565     14567
     14559     14557     14565     14568     14559     14560     14562     14563
     14559     14560     14562     14564     14559     14560     14562     14574
     14560     14559     14557     14565     14560     14562     14574     14575
     14560     14562     14574     14576     14560     14562     14574     14577
     14561     14560     14562     14563     14561     14560     14562     14564
     14561     14560     14562     14574     14562     14574     14577     14578
     14562     14574     14577     14579     14562     14574     14577     14580
     14563     14562     14574     14575     14563     14562     14574     14576
     14563     14562     14574     14577     14564     14562     14574     14575
     14564     14562     14574     14576     14564     14562     14574     14577
     14565     14568     14569     14570     14565     14568     14569     14571
     14566     14565     14568     14569     14567     14565     14568     14569
     14568     14569     14571     14572     14568     14569     14571     14573
     14568     14569     14571     14618     14569     14571     14618     14619
     14569     14571     14618     14620     14569     14571     14618     14621
     14570     14569     14571     14572     14570     14569     14571     14573
     14570     14569     14571     14618     14571     14618     14621     14622
     14571     14618     14621     14623     14571     14618     14621     14624
     14572     14571     14618     14619     14572     14571     14618     14620
     14572     14571     14618     14621     14573     14571     14618     14619
     14573     14571     14618     14620     14573     14571     14618     14621
     14574     14577     14580     14581     14574     14577     14580     14582
     14574     14577     14580     14583     14575     14574     14577     14578
     14575     14574     14577     14579     14575     14574     14577     14580
     14576     14574     14577     14578     14576     14574     14577     14579
     14576     14574     14577     14580     14577     14580     14583     14584
     14577     14580     14583     14585     14577     14580     14583     14586
     14578     14577     14580     14581     14578     14577     14580     14582
     14578     14577     14580     14583     14579     14577     14580     14581
     14579     14577     14580     14582     14579     14577     14580     14583
     14580     14583     14586     14587     14580     14583     14586     14588
     14580     14583     14586     14589     14581     14580     14583     14584
     14581     14580     14583     14585     14581     14580     14583     14586
     14582     14580     14583     14584     14582     14580     14583     14585
     14582     14580     14583     14586     14583     14586     14589     14590
     14583     14586     14589     14591     14583     14586     14589     14592
     14584     14583     14586     14587     14584     14583     14586     14588
     14584     14583     14586     14589     14585     14583     14586     14587
     14585     14583     14586     14588     14585     14583     14586     14589
     14586     14589     14592     14593     14586     14589     14592     14594
     14586     14589     14592     14597     14587     14586     14589     14590
     14587     14586     14589     14591     14587     14586     14589     14592
     14588     14586     14589     14590     14588     14586     14589     14591
     14588     14586     14589     14592     14589     14592     14594     14595
     14589     14592     14594     14596     14589     14592     14594     14597
     14589     14592     14597     14594     14589     14592     14597     14598
     14589     14592     14597     14599     14590     14589     14592     14593
     14590     14589     14592     14594     14590     14589     14592     14597
     14591     14589     14592     14593     14591     14589     14592     14594
     14591     14589     14592     14597     14592     14594     14597     14598
     14592     14594     14597     14599     14592     14597     14594     14595
     14592     14597     14594     14596     14592     14597     14599     14600
     14592     14597     14599     14601     14592     14597     14599     14602
     14593     14592     14594     14595     14593     14592     14594     14596
     14593     14592     14594     14597     14593     14592     14597     14594
     14593     14592     14597     14598     14593     14592     14597     14599
     14594     14592     14597     14598     14594     14592     14597     14599
     14594     14597     14599     14600     14594     14597     14599     14601
     14594     14597     14599     14602     14595     14594     14592     14597
     14595     14594     14597     14598     14595     14594     14597     14599
     14596     14594     14592     14597     14596     14594     14597     14598
     14596     14594     14597     14599     14597     14599     14602     14603
     14597     14599     14602     14604     14597     14599     14602     14605
     14598     14597     14599     14600     14598     14597     14599     14601
     14598     14597     14599     14602     14599     14602     14605     14606
     14599     14602     14605     14607     14599     14602     14605     14608
     14600     14599     14602     14603     14600     14599     14602     14604
     14600     14599     14602     14605     14601     14599     14602     14603
     14601     14599     14602     14604     14601     14599     14602     14605
     14602     14605     14608     14609     14602     14605     14608     14610
     14602     14605     14608     14611     14603     14602     14605     14606
     14603     14602     14605     14607     14603     14602     14605     14608
     14604     14602     14605     14606     14604     14602     14605     14607
     14604     14602     14605     14608     14605     14608     14611     14612
     14605     14608     14611     14613     14605     14608     14611     14614
     14606     14605     14608     14609     14606     14605     14608     14610
     14606     14605     14608     14611     14607     14605     14608     14609
     14607     14605     14608     14610     14607     14605     14608     14611
     14608     14611     14614     14615     14608     14611     14614     14616
     14608     14611     14614     14617     14609     14608     14611     14612
     14609     14608     14611     14613     14609     14608     14611     14614
     14610     14608     14611     14612     14610     14608     14611     14613
     14610     14608     14611     14614     14612     14611     14614     14615
     14612     14611     14614     14616     14612     14611     14614     14617
     14613     14611     14614     14615     14613     14611     14614     14616
     14613     14611     14614     14617     14618     14621     14624     14625
     14618     14621     14624     14626     14618     14621     14624     14627
     14619     14618     14621     14622     14619     14618     14621     14623
     14619     14618     14621     14624     14620     14618     14621     14622
     14620     14618     14621     14623     14620     14618     14621     14624
     14621     14624     14627     14628     14621     14624     14627     14629
     14621     14624     14627     14630     14622     14621     14624     14625
     14622     14621     14624     14626     14622     14621     14624     14627
     14623     14621     14624     14625     14623     14621     14624     14626
     14623     14621     14624     14627     14624     14627     14630     14631
     14624     14627     14630     14632     14624     14627     14630     14633
     14625     14624     14627     14628     14625     14624     14627     14629
     14625     14624     14627     14630     14626     14624     14627     14628
     14626     14624     14627     14629     14626     14624     14627     14630
     14627     14630     14633     14634     14627     14630     14633     14635
     14627     14630     14633     14636     14628     14627     14630     14631
     14628     14627     14630     14632     14628     14627     14630     14633
     14629     14627     14630     14631     14629     14627     14630     14632
     14629     14627     14630     14633     14630     14633     14636     14637
     14630     14633     14636     14638     14630     14633     14636     14639
     14631     14630     14633     14634     14631     14630     14633     14635
     14631     14630     14633     14636     14632     14630     14633     14634
     14632     14630     14633     14635     14632     14630     14633     14636
     14633     14636     14639     14640     14633     14636     14639     14641
     14633     14636     14639     14642     14634     14633     14636     14637
     14634     14633     14636     14638     14634     14633     14636     14639
     14635     14633     14636     14637     14635     14633     14636     14638
     14635     14633     14636     14639     14636     14639     14642     14643
     14636     14639     14642     14644     14636     14639     14642     14645
     14637     14636     14639     14640     14637     14636     14639     14641
     14637     14636     14639     14642     14638     14636     14639     14640
     14638     14636     14639     14641     14638     14636     14639     14642
     14639     14642     14645     14646     14639     14642     14645     14647
     14639     14642     14645     14648     14640     14639     14642     14643
     14640     14639     14642     14644     14640     14639     14642     14645
     14641     14639     14642     14643     14641     14639     14642     14644
     14641     14639     14642     14645     14642     14645     14648     14649
     14642     14645     14648     14650     14642     14645     14648     14651
     14643     14642     14645     14646     14643     14642     14645     14647
     14643     14642     14645     14648     14644     14642     14645     14646
     14644     14642     14645     14647     14644     14642     14645     14648
     14645     14648     14651     14652     14645     14648     14651     14653
     14645     14648     14651     14654     14646     14645     14648     14649
     14646     14645     14648     14650     14646     14645     14648     14651
     14647     14645     14648     14649     14647     14645     14648     14650
     14647     14645     14648     14651     14648     14651     14654     14655
     14648     14651     14654     14656     14648     14651     14654     14657
     14649     14648     14651     14652     14649     14648     14651     14653
     14649     14648     14651     14654     14650     14648     14651     14652
     14650     14648     14651     14653     14650     14648     14651     14654
     14651     14654     14657     14658     14651     14654     14657     14659
     14651     14654     14657     14660     14652     14651     14654     14655
     14652     14651     14654     14656     14652     14651     14654     14657
     14653     14651     14654     14655     14653     14651     14654     14656
     14653     14651     14654     14657     14655     14654     14657     14658
     14655     14654     14657     14659     14655     14654     14657     14660
     14656     14654     14657     14658     14656     14654     14657     14659
     14656     14654     14657     14660     14661     14665     14668     14669
     14661     14665     14668     14670     14661     14665     14668     14675
     14662     14661     14665     14666     14662     14661     14665     14667
     14662     14661     14665     14668     14663     14661     14665     14666
     14663     14661     14665     14667     14663     14661     14665     14668
     14664     14661     14665     14666     14664     14661     14665     14667
     14664     14661     14665     14668     14665     14668     14675     14671
     14666     14665     14668     14669     14666     14665     14668     14670
     14666     14665     14668     14675     14667     14665     14668     14669
     14667     14665     14668     14670     14667     14665     14668     14675
     14668     14675     14671     14672     14668     14675     14671     14673
     14668     14675     14671     14674     14669     14668     14675     14671
     14670     14668     14675     14671     14671     14674     14676     14677
     14671     14674     14676     14678     14671     14674     14676     14679
     14672     14671     14674     14676     14673     14671     14674     14676
     14674     14676     14679     14680     14674     14676     14679     14681
     14674     14676     14679     14687     14675     14671     14674     14676
     14676     14679     14681     14682     14676     14679     14687     14688
     14676     14679     14687     14689     14676     14679     14687     14690
     14677     14676     14679     14680     14677     14676     14679     14681
     14677     14676     14679     14687     14678     14676     14679     14680
     14678     14676     14679     14681     14678     14676     14679     14687
     14679     14681     14682     14683     14679     14681     14682     14684
     14679     14687     14690     14691     14680     14679     14681     14682
     14680     14679     14687     14688     14680     14679     14687     14689
     14680     14679     14687     14690     14681     14679     14687     14688
     14681     14679     14687     14689     14681     14679     14687     14690
     14681     14682     14684     14685     14681     14682     14684     14686
     14681     14682     14684     14696     14682     14681     14679     14687
     14682     14684     14696     14697     14682     14684     14696     14698
     14682     14684     14696     14699     14683     14682     14684     14685
     14683     14682     14684     14686     14683     14682     14684     14696
     14684     14696     14699     14700     14684     14696     14699     14701
     14684     14696     14699     14702     14685     14684     14696     14697
     14685     14684     14696     14698     14685     14684     14696     14699
     14686     14684     14696     14697     14686     14684     14696     14698
     14686     14684     14696     14699     14687     14690     14691     14692
     14687     14690     14691     14693     14688     14687     14690     14691
     14689     14687     14690     14691     14690     14691     14693     14694
     14690     14691     14693     14695     14690     14691     14693     14740
     14691     14693     14740     14741     14691     14693     14740     14742
     14691     14693     14740     14743     14692     14691     14693     14694
     14692     14691     14693     14695     14692     14691     14693     14740
     14693     14740     14743     14744     14693     14740     14743     14745
     14693     14740     14743     14746     14694     14693     14740     14741
     14694     14693     14740     14742     14694     14693     14740     14743
     14695     14693     14740     14741     14695     14693     14740     14742
     14695     14693     14740     14743     14696     14699     14702     14703
     14696     14699     14702     14704     14696     14699     14702     14705
     14697     14696     14699     14700     14697     14696     14699     14701
     14697     14696     14699     14702     14698     14696     14699     14700
     14698     14696     14699     14701     14698     14696     14699     14702
     14699     14702     14705     14706     14699     14702     14705     14707
     14699     14702     14705     14708     14700     14699     14702     14703
     14700     14699     14702     14704     14700     14699     14702     14705
     14701     14699     14702     14703     14701     14699     14702     14704
     14701     14699     14702     14705     14702     14705     14708     14709
     14702     14705     14708     14710     14702     14705     14708     14711
     14703     14702     14705     14706     14703     14702     14705     14707
     14703     14702     14705     14708     14704     14702     14705     14706
     14704     14702     14705     14707     14704     14702     14705     14708
     14705     14708     14711     14712     14705     14708     14711     14713
     14705     14708     14711     14714     14706     14705     14708     14709
     14706     14705     14708     14710     14706     14705     14708     14711
     14707     14705     14708     14709     14707     14705     14708     14710
     14707     14705     14708     14711     14708     14711     14714     14715
     14708     14711     14714     14716     14708     14711     14714     14719
     14709     14708     14711     14712     14709     14708     14711     14713
     14709     14708     14711     14714     14710     14708     14711     14712
     14710     14708     14711     14713     14710     14708     14711     14714
     14711     14714     14716     14717     14711     14714     14716     14718
     14711     14714     14716     14719     14711     14714     14719     14716
     14711     14714     14719     14720     14711     14714     14719     14721
     14712     14711     14714     14715     14712     14711     14714     14716
     14712     14711     14714     14719     14713     14711     14714     14715
     14713     14711     14714     14716     14713     14711     14714     14719
     14714     14716     14719     14720     14714     14716     14719     14721
     14714     14719     14716     14717     14714     14719     14716     14718
     14714     14719     14721     14722     14714     14719     14721     14723
     14714     14719     14721     14724     14715     14714     14716     14717
     14715     14714     14716     14718     14715     14714     14716     14719
     14715     14714     14719     14716     14715     14714     14719     14720
     14715     14714     14719     14721     14716     14714     14719     14720
     14716     14714     14719     14721     14716     14719     14721     14722
     14716     14719     14721     14723     14716     14719     14721     14724
     14717     14716     14714     14719     14717     14716     14719     14720
     14717     14716     14719     14721     14718     14716     14714     14719
     14718     14716     14719     14720     14718     14716     14719     14721
     14719     14721     14724     14725     14719     14721     14724     14726
     14719     14721     14724     14727     14720     14719     14721     14722
     14720     14719     14721     14723     14720     14719     14721     14724
     14721     14724     14727     14728     14721     14724     14727     14729
     14721     14724     14727     14730     14722     14721     14724     14725
     14722     14721     14724     14726     14722     14721     14724     14727
     14723     14721     14724     14725     14723     14721     14724     14726
     14723     14721     14724     14727     14724     14727     14730     14731
     14724     14727     14730     14732     14724     14727     14730     14733
     14725     14724     14727     14728     14725     14724     14727     14729
     14725     14724     14727     14730     14726     14724     14727     14728
     14726     14724     14727     14729     14726     14724     14727     14730
     14727     14730     14733     14734     14727     14730     14733     14735
     14727     14730     14733     14736     14728     14727     14730     14731
     14728     14727     14730     14732     14728     14727     14730     14733
     14729     14727     14730     14731     14729     14727     14730     14732
     14729     14727     14730     14733     14730     14733     14736     14737
     14730     14733     14736     14738     14730     14733     14736     14739
     14731     14730     14733     14734     14731     14730     14733     14735
     14731     14730     14733     14736     14732     14730     14733     14734
     14732     14730     14733     14735     14732     14730     14733     14736
     14734     14733     14736     14737     14734     14733     14736     14738
     14734     14733     14736     14739     14735     14733     14736     14737
     14735     14733     14736     14738     14735     14733     14736     14739
     14740     14743     14746     14747     14740     14743     14746     14748
     14740     14743     14746     14749     14741     14740     14743     14744
     14741     14740     14743     14745     14741     14740     14743     14746
     14742     14740     14743     14744     14742     14740     14743     14745
     14742     14740     14743     14746     14743     14746     14749     14750
     14743     14746     14749     14751     14743     14746     14749     14752
     14744     14743     14746     14747     14744     14743     14746     14748
     14744     14743     14746     14749     14745     14743     14746     14747
     14745     14743     14746     14748     14745     14743     14746     14749
     14746     14749     14752     14753     14746     14749     14752     14754
     14746     14749     14752     14755     14747     14746     14749     14750
     14747     14746     14749     14751     14747     14746     14749     14752
     14748     14746     14749     14750     14748     14746     14749     14751
     14748     14746     14749     14752     14749     14752     14755     14756
     14749     14752     14755     14757     14749     14752     14755     14758
     14750     14749     14752     14753     14750     14749     14752     14754
     14750     14749     14752     14755     14751     14749     14752     14753
     14751     14749     14752     14754     14751     14749     14752     14755
     14752     14755     14758     14759     14752     14755     14758     14760
     14752     14755     14758     14761     14753     14752     14755     14756
     14753     14752     14755     14757     14753     14752     14755     14758
     14754     14752     14755     14756     14754     14752     14755     14757
     14754     14752     14755     14758     14755     14758     14761     14762
     14755     14758     14761     14763     14755     14758     14761     14764
     14756     14755     14758     14759     14756     14755     14758     14760
     14756     14755     14758     14761     14757     14755     14758     14759
     14757     14755     14758     14760     14757     14755     14758     14761
     14758     14761     14764     14765     14758     14761     14764     14766
     14758     14761     14764     14767     14759     14758     14761     14762
     14759     14758     14761     14763     14759     14758     14761     14764
     14760     14758     14761     14762     14760     14758     14761     14763
     14760     14758     14761     14764     14761     14764     14767     14768
     14761     14764     14767     14769     14761     14764     14767     14770
     14762     14761     14764     14765     14762     14761     14764     14766
     14762     14761     14764     14767     14763     14761     14764     14765
     14763     14761     14764     14766     14763     14761     14764     14767
     14764     14767     14770     14771     14764     14767     14770     14772
     14764     14767     14770     14773     14765     14764     14767     14768
     14765     14764     14767     14769     14765     14764     14767     14770
     14766     14764     14767     14768     14766     14764     14767     14769
     14766     14764     14767     14770     14767     14770     14773     14774
     14767     14770     14773     14775     14767     14770     14773     14776
     14768     14767     14770     14771     14768     14767     14770     14772
     14768     14767     14770     14773     14769     14767     14770     14771
     14769     14767     14770     14772     14769     14767     14770     14773
     14770     14773     14776     14777     14770     14773     14776     14778
     14770     14773     14776     14779     14771     14770     14773     14774
     14771     14770     14773     14775     14771     14770     14773     14776
     14772     14770     14773     14774     14772     14770     14773     14775
     14772     14770     14773     14776     14773     14776     14779     14780
     14773     14776     14779     14781     14773     14776     14779     14782
     14774     14773     14776     14777     14774     14773     14776     14778
     14774     14773     14776     14779     14775     14773     14776     14777
     14775     14773     14776     14778     14775     14773     14776     14779
     14777     14776     14779     14780     14777     14776     14779     14781
     14777     14776     14779     14782     14778     14776     14779     14780
     14778     14776     14779     14781     14778     14776     14779     14782
     14783     14787     14790     14791     14783     14787     14790     14792
     14783     14787     14790     14797     14784     14783     14787     14788
     14784     14783     14787     14789     14784     14783     14787     14790
     14785     14783     14787     14788     14785     14783     14787     14789
     14785     14783     14787     14790     14786     14783     14787     14788
     14786     14783     14787     14789     14786     14783     14787     14790
     14787     14790     14797     14793     14788     14787     14790     14791
     14788     14787     14790     14792     14788     14787     14790     14797
     14789     14787     14790     14791     14789     14787     14790     14792
     14789     14787     14790     14797     14790     14797     14793     14794
     14790     14797     14793     14795     14790     14797     14793     14796
     14791     14790     14797     14793     14792     14790     14797     14793
     14793     14796     14798     14799     14793     14796     14798     14800
     14793     14796     14798     14801     14794     14793     14796     14798
     14795     14793     14796     14798     14796     14798     14801     14802
     14796     14798     14801     14803     14796     14798     14801     14809
     14797     14793     14796     14798     14798     14801     14803     14804
     14798     14801     14809     14810     14798     14801     14809     14811
     14798     14801     14809     14812     14799     14798     14801     14802
     14799     14798     14801     14803     14799     14798     14801     14809
     14800     14798     14801     14802     14800     14798     14801     14803
     14800     14798     14801     14809     14801     14803     14804     14805
     14801     14803     14804     14806     14801     14809     14812     14813
     14802     14801     14803     14804     14802     14801     14809     14810
     14802     14801     14809     14811     14802     14801     14809     14812
     14803     14801     14809     14810     14803     14801     14809     14811
     14803     14801     14809     14812     14803     14804     14806     14807
     14803     14804     14806     14808     14803     14804     14806     14818
     14804     14803     14801     14809     14804     14806     14818     14819
     14804     14806     14818     14820     14804     14806     14818     14821
     14805     14804     14806     14807     14805     14804     14806     14808
     14805     14804     14806     14818     14806     14818     14821     14822
     14806     14818     14821     14823     14806     14818     14821     14824
     14807     14806     14818     14819     14807     14806     14818     14820
     14807     14806     14818     14821     14808     14806     14818     14819
     14808     14806     14818     14820     14808     14806     14818     14821
     14809     14812     14813     14814     14809     14812     14813     14815
     14810     14809     14812     14813     14811     14809     14812     14813
     14812     14813     14815     14816     14812     14813     14815     14817
     14812     14813     14815     14862     14813     14815     14862     14863
     14813     14815     14862     14864     14813     14815     14862     14865
     14814     14813     14815     14816     14814     14813     14815     14817
     14814     14813     14815     14862     14815     14862     14865     14866
     14815     14862     14865     14867     14815     14862     14865     14868
     14816     14815     14862     14863     14816     14815     14862     14864
     14816     14815     14862     14865     14817     14815     14862     14863
     14817     14815     14862     14864     14817     14815     14862     14865
     14818     14821     14824     14825     14818     14821     14824     14826
     14818     14821     14824     14827     14819     14818     14821     14822
     14819     14818     14821     14823     14819     14818     14821     14824
     14820     14818     14821     14822     14820     14818     14821     14823
     14820     14818     14821     14824     14821     14824     14827     14828
     14821     14824     14827     14829     14821     14824     14827     14830
     14822     14821     14824     14825     14822     14821     14824     14826
     14822     14821     14824     14827     14823     14821     14824     14825
     14823     14821     14824     14826     14823     14821     14824     14827
     14824     14827     14830     14831     14824     14827     14830     14832
     14824     14827     14830     14833     14825     14824     14827     14828
     14825     14824     14827     14829     14825     14824     14827     14830
     14826     14824     14827     14828     14826     14824     14827     14829
     14826     14824     14827     14830     14827     14830     14833     14834
     14827     14830     14833     14835     14827     14830     14833     14836
     14828     14827     14830     14831     14828     14827     14830     14832
     14828     14827     14830     14833     14829     14827     14830     14831
     14829     14827     14830     14832     14829     14827     14830     14833
     14830     14833     14836     14837     14830     14833     14836     14838
     14830     14833     14836     14841     14831     14830     14833     14834
     14831     14830     14833     14835     14831     14830     14833     14836
     14832     14830     14833     14834     14832     14830     14833     14835
     14832     14830     14833     14836     14833     14836     14838     14839
     14833     14836     14838     14840     14833     14836     14838     14841
     14833     14836     14841     14838     14833     14836     14841     14842
     14833     14836     14841     14843     14834     14833     14836     14837
     14834     14833     14836     14838     14834     14833     14836     14841
     14835     14833     14836     14837     14835     14833     14836     14838
     14835     14833     14836     14841     14836     14838     14841     14842
     14836     14838     14841     14843     14836     14841     14838     14839
     14836     14841     14838     14840     14836     14841     14843     14844
     14836     14841     14843     14845     14836     14841     14843     14846
     14837     14836     14838     14839     14837     14836     14838     14840
     14837     14836     14838     14841     14837     14836     14841     14838
     14837     14836     14841     14842     14837     14836     14841     14843
     14838     14836     14841     14842     14838     14836     14841     14843
     14838     14841     14843     14844     14838     14841     14843     14845
     14838     14841     14843     14846     14839     14838     14836     14841
     14839     14838     14841     14842     14839     14838     14841     14843
     14840     14838     14836     14841     14840     14838     14841     14842
     14840     14838     14841     14843     14841     14843     14846     14847
     14841     14843     14846     14848     14841     14843     14846     14849
     14842     14841     14843     14844     14842     14841     14843     14845
     14842     14841     14843     14846     14843     14846     14849     14850
     14843     14846     14849     14851     14843     14846     14849     14852
     14844     14843     14846     14847     14844     14843     14846     14848
     14844     14843     14846     14849     14845     14843     14846     14847
     14845     14843     14846     14848     14845     14843     14846     14849
     14846     14849     14852     14853     14846     14849     14852     14854
     14846     14849     14852     14855     14847     14846     14849     14850
     14847     14846     14849     14851     14847     14846     14849     14852
     14848     14846     14849     14850     14848     14846     14849     14851
     14848     14846     14849     14852     14849     14852     14855     14856
     14849     14852     14855     14857     14849     14852     14855     14858
     14850     14849     14852     14853     14850     14849     14852     14854
     14850     14849     14852     14855     14851     14849     14852     14853
     14851     14849     14852     14854     14851     14849     14852     14855
     14852     14855     14858     14859     14852     14855     14858     14860
     14852     14855     14858     14861     14853     14852     14855     14856
     14853     14852     14855     14857     14853     14852     14855     14858
     14854     14852     14855     14856     14854     14852     14855     14857
     14854     14852     14855     14858     14856     14855     14858     14859
     14856     14855     14858     14860     14856     14855     14858     14861
     14857     14855     14858     14859     14857     14855     14858     14860
     14857     14855     14858     14861     14862     14865     14868     14869
     14862     14865     14868     14870     14862     14865     14868     14871
     14863     14862     14865     14866     14863     14862     14865     14867
     14863     14862     14865     14868     14864     14862     14865     14866
     14864     14862     14865     14867     14864     14862     14865     14868
     14865     14868     14871     14872     14865     14868     14871     14873
     14865     14868     14871     14874     14866     14865     14868     14869
     14866     14865     14868     14870     14866     14865     14868     14871
     14867     14865     14868     14869     14867     14865     14868     14870
     14867     14865     14868     14871     14868     14871     14874     14875
     14868     14871     14874     14876     14868     14871     14874     14877
     14869     14868     14871     14872     14869     14868     14871     14873
     14869     14868     14871     14874     14870     14868     14871     14872
     14870     14868     14871     14873     14870     14868     14871     14874
     14871     14874     14877     14878     14871     14874     14877     14879
     14871     14874     14877     14880     14872     14871     14874     14875
     14872     14871     14874     14876     14872     14871     14874     14877
     14873     14871     14874     14875     14873     14871     14874     14876
     14873     14871     14874     14877     14874     14877     14880     14881
     14874     14877     14880     14882     14874     14877     14880     14883
     14875     14874     14877     14878     14875     14874     14877     14879
     14875     14874     14877     14880     14876     14874     14877     14878
     14876     14874     14877     14879     14876     14874     14877     14880
     14877     14880     14883     14884     14877     14880     14883     14885
     14877     14880     14883     14886     14878     14877     14880     14881
     14878     14877     14880     14882     14878     14877     14880     14883
     14879     14877     14880     14881     14879     14877     14880     14882
     14879     14877     14880     14883     14880     14883     14886     14887
     14880     14883     14886     14888     14880     14883     14886     14889
     14881     14880     14883     14884     14881     14880     14883     14885
     14881     14880     14883     14886     14882     14880     14883     14884
     14882     14880     14883     14885     14882     14880     14883     14886
     14883     14886     14889     14890     14883     14886     14889     14891
     14883     14886     14889     14892     14884     14883     14886     14887
     14884     14883     14886     14888     14884     14883     14886     14889
     14885     14883     14886     14887     14885     14883     14886     14888
     14885     14883     14886     14889     14886     14889     14892     14893
     14886     14889     14892     14894     14886     14889     14892     14895
     14887     14886     14889     14890     14887     14886     14889     14891
     14887     14886     14889     14892     14888     14886     14889     14890
     14888     14886     14889     14891     14888     14886     14889     14892
     14889     14892     14895     14896     14889     14892     14895     14897
     14889     14892     14895     14898     14890     14889     14892     14893
     14890     14889     14892     14894     14890     14889     14892     14895
     14891     14889     14892     14893     14891     14889     14892     14894
     14891     14889     14892     14895     14892     14895     14898     14899
     14892     14895     14898     14900     14892     14895     14898     14901
     14893     14892     14895     14896     14893     14892     14895     14897
     14893     14892     14895     14898     14894     14892     14895     14896
     14894     14892     14895     14897     14894     14892     14895     14898
     14895     14898     14901     14902     14895     14898     14901     14903
     14895     14898     14901     14904     14896     14895     14898     14899
     14896     14895     14898     14900     14896     14895     14898     14901
     14897     14895     14898     14899     14897     14895     14898     14900
     14897     14895     14898     14901     14899     14898     14901     14902
     14899     14898     14901     14903     14899     14898     14901     14904
     14900     14898     14901     14902     14900     14898     14901     14903
     14900     14898     14901     14904     14905     14909     14912     14913
     14905     14909     14912     14914     14905     14909     14912     14919
     14906     14905     14909     14910     14906     14905     14909     14911
     14906     14905     14909     14912     14907     14905     14909     14910
     14907     14905     14909     14911     14907     14905     14909     14912
     14908     14905     14909     14910     14908     14905     14909     14911
     14908     14905     14909     14912     14909     14912     14919     14915
     14910     14909     14912     14913     14910     14909     14912     14914
     14910     14909     14912     14919     14911     14909     14912     14913
     14911     14909     14912     14914     14911     14909     14912     14919
     14912     14919     14915     14916     14912     14919     14915     14917
     14912     14919     14915     14918     14913     14912     14919     14915
     14914     14912     14919     14915     14915     14918     14920     14921
     14915     14918     14920     14922     14915     14918     14920     14923
     14916     14915     14918     14920     14917     14915     14918     14920
     14918     14920     14923     14924     14918     14920     14923     14925
     14918     14920     14923     14931     14919     14915     14918     14920
     14920     14923     14925     14926     14920     14923     14931     14932
     14920     14923     14931     14933     14920     14923     14931     14934
     14921     14920     14923     14924     14921     14920     14923     14925
     14921     14920     14923     14931     14922     14920     14923     14924
     14922     14920     14923     14925     14922     14920     14923     14931
     14923     14925     14926     14927     14923     14925     14926     14928
     14923     14931     14934     14935     14924     14923     14925     14926
     14924     14923     14931     14932     14924     14923     14931     14933
     14924     14923     14931     14934     14925     14923     14931     14932
     14925     14923     14931     14933     14925     14923     14931     14934
     14925     14926     14928     14929     14925     14926     14928     14930
     14925     14926     14928     14940     14926     14925     14923     14931
     14926     14928     14940     14941     14926     14928     14940     14942
     14926     14928     14940     14943     14927     14926     14928     14929
     14927     14926     14928     14930     14927     14926     14928     14940
     14928     14940     14943     14944     14928     14940     14943     14945
     14928     14940     14943     14946     14929     14928     14940     14941
     14929     14928     14940     14942     14929     14928     14940     14943
     14930     14928     14940     14941     14930     14928     14940     14942
     14930     14928     14940     14943     14931     14934     14935     14936
     14931     14934     14935     14937     14932     14931     14934     14935
     14933     14931     14934     14935     14934     14935     14937     14938
     14934     14935     14937     14939     14934     14935     14937     14981
     14935     14937     14981     14982     14935     14937     14981     14983
     14935     14937     14981     14984     14936     14935     14937     14938
     14936     14935     14937     14939     14936     14935     14937     14981
     14937     14981     14984     14985     14937     14981     14984     14986
     14937     14981     14984     14987     14938     14937     14981     14982
     14938     14937     14981     14983     14938     14937     14981     14984
     14939     14937     14981     14982     14939     14937     14981     14983
     14939     14937     14981     14984     14940     14943     14946     14947
     14940     14943     14946     14948     14940     14943     14946     14949
     14941     14940     14943     14944     14941     14940     14943     14945
     14941     14940     14943     14946     14942     14940     14943     14944
     14942     14940     14943     14945     14942     14940     14943     14946
     14943     14946     14949     14950     14943     14946     14949     14951
     14943     14946     14949     14952     14944     14943     14946     14947
     14944     14943     14946     14948     14944     14943     14946     14949
     14945     14943     14946     14947     14945     14943     14946     14948
     14945     14943     14946     14949     14946     14949     14952     14953
     14946     14949     14952     14954     14946     14949     14952     14955
     14947     14946     14949     14950     14947     14946     14949     14951
     14947     14946     14949     14952     14948     14946     14949     14950
     14948     14946     14949     14951     14948     14946     14949     14952
     14949     14952     14955     14956     14949     14952     14955     14957
     14949     14952     14955     14958     14950     14949     14952     14953
     14950     14949     14952     14954     14950     14949     14952     14955
     14951     14949     14952     14953     14951     14949     14952     14954
     14951     14949     14952     14955     14952     14955     14958     14959
     14952     14955     14958     14960     14953     14952     14955     14956
     14953     14952     14955     14957     14953     14952     14955     14958
     14954     14952     14955     14956     14954     14952     14955     14957
     14954     14952     14955     14958     14955     14958     14960     14961
     14955     14958     14960     14962     14956     14955     14958     14959
     14956     14955     14958     14960     14957     14955     14958     14959
     14957     14955     14958     14960     14958     14960     14962     14963
     14958     14960     14962     14964     14958     14960     14962     14965
     14959     14958     14960     14961     14959     14958     14960     14962
     14960     14962     14965     14966     14960     14962     14965     14967
     14960     14962     14965     14968     14961     14960     14962     14963
     14961     14960     14962     14964     14961     14960     14962     14965
     14962     14965     14968     14969     14962     14965     14968     14970
     14962     14965     14968     14971     14963     14962     14965     14966
     14963     14962     14965     14967     14963     14962     14965     14968
     14964     14962     14965     14966     14964     14962     14965     14967
     14964     14962     14965     14968     14965     14968     14971     14972
     14965     14968     14971     14973     14965     14968     14971     14974
     14966     14965     14968     14969     14966     14965     14968     14970
     14966     14965     14968     14971     14967     14965     14968     14969
     14967     14965     14968     14970     14967     14965     14968     14971
     14968     14971     14974     14975     14968     14971     14974     14976
     14968     14971     14974     14977     14969     14968     14971     14972
     14969     14968     14971     14973     14969     14968     14971     14974
     14970     14968     14971     14972     14970     14968     14971     14973
     14970     14968     14971     14974     14971     14974     14977     14978
     14971     14974     14977     14979     14971     14974     14977     14980
     14972     14971     14974     14975     14972     14971     14974     14976
     14972     14971     14974     14977     14973     14971     14974     14975
     14973     14971     14974     14976     14973     14971     14974     14977
     14975     14974     14977     14978     14975     14974     14977     14979
     14975     14974     14977     14980     14976     14974     14977     14978
     14976     14974     14977     14979     14976     14974     14977     14980
     14981     14984     14987     14988     14981     14984     14987     14989
     14981     14984     14987     14990     14982     14981     14984     14985
     14982     14981     14984     14986     14982     14981     14984     14987
     14983     14981     14984     14985     14983     14981     14984     14986
     14983     14981     14984     14987     14984     14987     14990     14991
     14984     14987     14990     14992     14984     14987     14990     14993
     14985     14984     14987     14988     14985     14984     14987     14989
     14985     14984     14987     14990     14986     14984     14987     14988
     14986     14984     14987     14989     14986     14984     14987     14990
     14987     14990     14993     14994     14987     14990     14993     14995
     14987     14990     14993     14996     14988     14987     14990     14991
     14988     14987     14990     14992     14988     14987     14990     14993
     14989     14987     14990     14991     14989     14987     14990     14992
     14989     14987     14990     14993     14990     14993     14996     14997
     14990     14993     14996     14998     14990     14993     14996     14999
     14991     14990     14993     14994     14991     14990     14993     14995
     14991     14990     14993     14996     14992     14990     14993     14994
     14992     14990     14993     14995     14992     14990     14993     14996
     14993     14996     14999     15000     14993     14996     14999     15001
     14994     14993     14996     14997     14994     14993     14996     14998
     14994     14993     14996     14999     14995     14993     14996     14997
     14995     14993     14996     14998     14995     14993     14996     14999
     14996     14999     15001     15002     14996     14999     15001     15003
     14997     14996     14999     15000     14997     14996     14999     15001
     14998     14996     14999     15000     14998     14996     14999     15001
     14999     15001     15003     15004     14999     15001     15003     15005
     14999     15001     15003     15006     15000     14999     15001     15002
     15000     14999     15001     15003     15001     15003     15006     15007
     15001     15003     15006     15008     15001     15003     15006     15009
     15002     15001     15003     15004     15002     15001     15003     15005
     15002     15001     15003     15006     15003     15006     15009     15010
     15003     15006     15009     15011     15003     15006     15009     15012
     15004     15003     15006     15007     15004     15003     15006     15008
     15004     15003     15006     15009     15005     15003     15006     15007
     15005     15003     15006     15008     15005     15003     15006     15009
     15006     15009     15012     15013     15006     15009     15012     15014
     15006     15009     15012     15015     15007     15006     15009     15010
     15007     15006     15009     15011     15007     15006     15009     15012
     15008     15006     15009     15010     15008     15006     15009     15011
     15008     15006     15009     15012     15009     15012     15015     15016
     15009     15012     15015     15017     15009     15012     15015     15018
     15010     15009     15012     15013     15010     15009     15012     15014
     15010     15009     15012     15015     15011     15009     15012     15013
     15011     15009     15012     15014     15011     15009     15012     15015
     15012     15015     15018     15019     15012     15015     15018     15020
     15012     15015     15018     15021     15013     15012     15015     15016
     15013     15012     15015     15017     15013     15012     15015     15018
     15014     15012     15015     15016     15014     15012     15015     15017
     15014     15012     15015     15018     15015     15018     15021     15022
     15015     15018     15021     15023     15015     15018     15021     15024
     15016     15015     15018     15019     15016     15015     15018     15020
     15016     15015     15018     15021     15017     15015     15018     15019
     15017     15015     15018     15020     15017     15015     15018     15021
     15018     15021     15024     15025     15018     15021     15024     15026
     15018     15021     15024     15027     15019     15018     15021     15022
     15019     15018     15021     15023     15019     15018     15021     15024
     15020     15018     15021     15022     15020     15018     15021     15023
     15020     15018     15021     15024     15022     15021     15024     15025
     15022     15021     15024     15026     15022     15021     15024     15027
     15023     15021     15024     15025     15023     15021     15024     15026
     15023     15021     15024     15027     15028     15034     15031     15032
     15028     15034     15031     15033     15028     15034     15031     15035
     15028     15039     15041     15042     15028     15039     15043     15044
     15028     15039     15043     15045     15028     15039     15043     15049
     15029     15028     15034     15031     15029     15028     15039     15040
     15029     15028     15039     15041     15029     15028     15039     15043
     15030     15028     15034     15031     15030     15028     15039     15040
     15030     15028     15039     15041     15030     15028     15039     15043
     15031     15034     15028     15039     15031     15035     15036     15037
     15031     15035     15036     15038     15031     15035     15036     15071
     15032     15031     15035     15036     15033     15031     15035     15036
     15034     15028     15039     15040     15034     15028     15039     15041
     15034     15028     15039     15043     15034     15031     15035     15036
     15035     15036     15071     15072     15035     15036     15071     15073
     15035     15036     15071     15079     15036     15071     15073     15074
     15036     15071     15079     15080     15036     15071     15079     15081
     15036     15071     15079     15082     15037     15036     15071     15072
     15037     15036     15071     15073     15037     15036     15071     15079
     15038     15036     15071     15072     15038     15036     15071     15073
     15038     15036     15071     15079     15039     15043     15049     15046
     15040     15039     15041     15042     15040     15039     15043     15044
     15040     15039     15043     15045     15040     15039     15043     15049
     15041     15039     15043     15044     15041     15039     15043     15045
     15041     15039     15043     15049     15042     15041     15039     15043
     15043     15049     15046     15047     15043     15049     15046     15048
     15043     15049     15046     15050     15044     15043     15049     15046
     15045     15043     15049     15046     15046     15050     15051     15052
     15046     15050     15051     15053     15046     15050     15051     15054
     15047     15046     15050     15051     15048     15046     15050     15051
     15049     15046     15050     15051     15050     15051     15054     15055
     15050     15051     15054     15056     15050     15051     15054     15062
     15051     15054     15056     15057     15051     15054     15062     15063
     15051     15054     15062     15064     15051     15054     15062     15065
     15052     15051     15054     15055     15052     15051     15054     15056
     15052     15051     15054     15062     15053     15051     15054     15055
     15053     15051     15054     15056     15053     15051     15054     15062
     15054     15056     15057     15058     15054     15056     15057     15059
     15054     15062     15065     15066     15055     15054     15056     15057
     15055     15054     15062     15063     15055     15054     15062     15064
     15055     15054     15062     15065     15056     15054     15062     15063
     15056     15054     15062     15064     15056     15054     15062     15065
     15056     15057     15059     15060     15056     15057     15059     15061
     15056     15057     15059     15088     15057     15056     15054     15062
     15057     15059     15088     15089     15057     15059     15088     15090
     15057     15059     15088     15091     15058     15057     15059     15060
     15058     15057     15059     15061     15058     15057     15059     15088
     15059     15088     15091     15092     15059     15088     15091     15093
     15059     15088     15091     15094     15060     15059     15088     15089
     15060     15059     15088     15090     15060     15059     15088     15091
     15061     15059     15088     15089     15061     15059     15088     15090
     15061     15059     15088     15091     15062     15065     15066     15067
     15062     15065     15066     15068     15063     15062     15065     15066
     15064     15062     15065     15066     15065     15066     15068     15069
     15065     15066     15068     15070     15065     15066     15068     15135
     15066     15068     15135     15136     15066     15068     15135     15137
     15066     15068     15135     15138     15067     15066     15068     15069
     15067     15066     15068     15070     15067     15066     15068     15135
     15068     15135     15138     15139     15068     15135     15138     15140
     15068     15135     15138     15141     15069     15068     15135     15136
     15069     15068     15135     15137     15069     15068     15135     15138
     15070     15068     15135     15136     15070     15068     15135     15137
     15070     15068     15135     15138     15071     15073     15074     15075
     15071     15073     15074     15076     15071     15079     15082     15083
     15072     15071     15073     15074     15072     15071     15079     15080
     15072     15071     15079     15081     15072     15071     15079     15082
     15073     15071     15079     15080     15073     15071     15079     15081
     15073     15071     15079     15082     15073     15074     15076     15077
     15073     15074     15076     15078     15073     15074     15076     15178
     15074     15073     15071     15079     15074     15076     15178     15179
     15074     15076     15178     15180     15074     15076     15178     15181
     15075     15074     15076     15077     15075     15074     15076     15078
     15075     15074     15076     15178     15076     15178     15181     15182
     15076     15178     15181     15183     15076     15178     15181     15184
     15077     15076     15178     15179     15077     15076     15178     15180
     15077     15076     15178     15181     15078     15076     15178     15179
     15078     15076     15178     15180     15078     15076     15178     15181
     15079     15082     15083     15084     15079     15082     15083     15085
     15080     15079     15082     15083     15081     15079     15082     15083
     15082     15083     15085     15086     15082     15083     15085     15087
     15082     15083     15085     15225     15083     15085     15225     15226
     15083     15085     15225     15227     15083     15085     15225     15228
     15084     15083     15085     15086     15084     15083     15085     15087
     15084     15083     15085     15225     15085     15225     15228     15229
     15085     15225     15228     15230     15085     15225     15228     15231
     15086     15085     15225     15226     15086     15085     15225     15227
     15086     15085     15225     15228     15087     15085     15225     15226
     15087     15085     15225     15227     15087     15085     15225     15228
     15088     15091     15094     15095     15088     15091     15094     15096
     15088     15091     15094     15097     15089     15088     15091     15092
     15089     15088     15091     15093     15089     15088     15091     15094
     15090     15088     15091     15092     15090     15088     15091     15093
     15090     15088     15091     15094     15091     15094     15097     15098
     15091     15094     15097     15099     15091     15094     15097     15100
     15092     15091     15094     15095     15092     15091     15094     15096
     15092     15091     15094     15097     15093     15091     15094     15095
     15093     15091     15094     15096     15093     15091     15094     15097
     15094     15097     15100     15101     15094     15097     15100     15102
     15094     15097     15100     15103     15095     15094     15097     15098
     15095     15094     15097     15099     15095     15094     15097     15100
     15096     15094     15097     15098     15096     15094     15097     15099
     15096     15094     15097     15100     15097     15100     15103     15104
     15097     15100     15103     15105     15097     15100     15103     15106
     15098     15097     15100     15101     15098     15097     15100     15102
     15098     15097     15100     15103     15099     15097     15100     15101
     15099     15097     15100     15102     15099     15097     15100     15103
     15100     15103     15106     15107     15100     15103     15106     15108
     15100     15103     15106     15109     15101     15100     15103     15104
     15101     15100     15103     15105     15101     15100     15103     15106
     15102     15100     15103     15104     15102     15100     15103     15105
     15102     15100     15103     15106     15103     15106     15109     15110
     15103     15106     15109     15111     15103     15106     15109     15112
     15104     15103     15106     15107     15104     15103     15106     15108
     15104     15103     15106     15109     15105     15103     15106     15107
     15105     15103     15106     15108     15105     15103     15106     15109
     15106     15109     15112     15113     15106     15109     15112     15114
     15107     15106     15109     15110     15107     15106     15109     15111
     15107     15106     15109     15112     15108     15106     15109     15110
     15108     15106     15109     15111     15108     15106     15109     15112
     15109     15112     15114     15115     15109     15112     15114     15116
     15110     15109     15112     15113     15110     15109     15112     15114
     15111     15109     15112     15113     15111     15109     15112     15114
     15112     15114     15116     15117     15112     15114     15116     15118
     15112     15114     15116     15119     15113     15112     15114     15115
     15113     15112     15114     15116     15114     15116     15119     15120
     15114     15116     15119     15121     15114     15116     15119     15122
     15115     15114     15116     15117     15115     15114     15116     15118
     15115     15114     15116     15119     15116     15119     15122     15123
     15116     15119     15122     15124     15116     15119     15122     15125
     15117     15116     15119     15120     15117     15116     15119     15121
     15117     15116     15119     15122     15118     15116     15119     15120
     15118     15116     15119     15121     15118     15116     15119     15122
     15119     15122     15125     15126     15119     15122     15125     15127
     15119     15122     15125     15128     15120     15119     15122     15123
     15120     15119     15122     15124     15120     15119     15122     15125
     15121     15119     15122     15123     15121     15119     15122     15124
     15121     15119     15122     15125     15122     15125     15128     15129
     15122     15125     15128     15130     15122     15125     15128     15131
     15123     15122     15125     15126     15123     15122     15125     15127
     15123     15122     15125     15128     15124     15122     15125     15126
     15124     15122     15125     15127     15124     15122     15125     15128
     15125     15128     15131     15132     15125     15128     15131     15133
     15125     15128     15131     15134     15126     15125     15128     15129
     15126     15125     15128     15130     15126     15125     15128     15131
     15127     15125     15128     15129     15127     15125     15128     15130
     15127     15125     15128     15131     15129     15128     15131     15132
     15129     15128     15131     15133     15129     15128     15131     15134
     15130     15128     15131     15132     15130     15128     15131     15133
     15130     15128     15131     15134     15135     15138     15141     15142
     15135     15138     15141     15143     15135     15138     15141     15144
     15136     15135     15138     15139     15136     15135     15138     15140
     15136     15135     15138     15141     15137     15135     15138     15139
     15137     15135     15138     15140     15137     15135     15138     15141
     15138     15141     15144     15145     15138     15141     15144     15146
     15138     15141     15144     15147     15139     15138     15141     15142
     15139     15138     15141     15143     15139     15138     15141     15144
     15140     15138     15141     15142     15140     15138     15141     15143
     15140     15138     15141     15144     15141     15144     15147     15148
     15141     15144     15147     15149     15141     15144     15147     15150
     15142     15141     15144     15145     15142     15141     15144     15146
     15142     15141     15144     15147     15143     15141     15144     15145
     15143     15141     15144     15146     15143     15141     15144     15147
     15144     15147     15150     15151     15144     15147     15150     15152
     15144     15147     15150     15153     15145     15144     15147     15148
     15145     15144     15147     15149     15145     15144     15147     15150
     15146     15144     15147     15148     15146     15144     15147     15149
     15146     15144     15147     15150     15147     15150     15153     15154
     15147     15150     15153     15155     15147     15150     15153     15156
     15148     15147     15150     15151     15148     15147     15150     15152
     15148     15147     15150     15153     15149     15147     15150     15151
     15149     15147     15150     15152     15149     15147     15150     15153
     15150     15153     15156     15157     15150     15153     15156     15158
     15150     15153     15156     15159     15151     15150     15153     15154
     15151     15150     15153     15155     15151     15150     15153     15156
     15152     15150     15153     15154     15152     15150     15153     15155
     15152     15150     15153     15156     15153     15156     15159     15160
     15153     15156     15159     15161     15153     15156     15159     15162
     15154     15153     15156     15157     15154     15153     15156     15158
     15154     15153     15156     15159     15155     15153     15156     15157
     15155     15153     15156     15158     15155     15153     15156     15159
     15156     15159     15162     15163     15156     15159     15162     15164
     15156     15159     15162     15165     15157     15156     15159     15160
     15157     15156     15159     15161     15157     15156     15159     15162
     15158     15156     15159     15160     15158     15156     15159     15161
     15158     15156     15159     15162     15159     15162     15165     15166
     15159     15162     15165     15167     15159     15162     15165     15168
     15160     15159     15162     15163     15160     15159     15162     15164
     15160     15159     15162     15165     15161     15159     15162     15163
     15161     15159     15162     15164     15161     15159     15162     15165
     15162     15165     15168     15169     15162     15165     15168     15170
     15162     15165     15168     15171     15163     15162     15165     15166
     15163     15162     15165     15167     15163     15162     15165     15168
     15164     15162     15165     15166     15164     15162     15165     15167
     15164     15162     15165     15168     15165     15168     15171     15172
     15165     15168     15171     15173     15165     15168     15171     15174
     15166     15165     15168     15169     15166     15165     15168     15170
     15166     15165     15168     15171     15167     15165     15168     15169
     15167     15165     15168     15170     15167     15165     15168     15171
     15168     15171     15174     15175     15168     15171     15174     15176
     15168     15171     15174     15177     15169     15168     15171     15172
     15169     15168     15171     15173     15169     15168     15171     15174
     15170     15168     15171     15172     15170     15168     15171     15173
     15170     15168     15171     15174     15172     15171     15174     15175
     15172     15171     15174     15176     15172     15171     15174     15177
     15173     15171     15174     15175     15173     15171     15174     15176
     15173     15171     15174     15177     15178     15181     15184     15185
     15178     15181     15184     15186     15178     15181     15184     15187
     15179     15178     15181     15182     15179     15178     15181     15183
     15179     15178     15181     15184     15180     15178     15181     15182
     15180     15178     15181     15183     15180     15178     15181     15184
     15181     15184     15187     15188     15181     15184     15187     15189
     15181     15184     15187     15190     15182     15181     15184     15185
     15182     15181     15184     15186     15182     15181     15184     15187
     15183     15181     15184     15185     15183     15181     15184     15186
     15183     15181     15184     15187     15184     15187     15190     15191
     15184     15187     15190     15192     15184     15187     15190     15193
     15185     15184     15187     15188     15185     15184     15187     15189
     15185     15184     15187     15190     15186     15184     15187     15188
     15186     15184     15187     15189     15186     15184     15187     15190
     15187     15190     15193     15194     15187     15190     15193     15195
     15187     15190     15193     15196     15188     15187     15190     15191
     15188     15187     15190     15192     15188     15187     15190     15193
     15189     15187     15190     15191     15189     15187     15190     15192
     15189     15187     15190     15193     15190     15193     15196     15197
     15190     15193     15196     15198     15190     15193     15196     15199
     15191     15190     15193     15194     15191     15190     15193     15195
     15191     15190     15193     15196     15192     15190     15193     15194
     15192     15190     15193     15195     15192     15190     15193     15196
     15193     15196     15199     15200     15193     15196     15199     15201
     15193     15196     15199     15202     15194     15193     15196     15197
     15194     15193     15196     15198     15194     15193     15196     15199
     15195     15193     15196     15197     15195     15193     15196     15198
     15195     15193     15196     15199     15196     15199     15202     15203
     15196     15199     15202     15204     15197     15196     15199     15200
     15197     15196     15199     15201     15197     15196     15199     15202
     15198     15196     15199     15200     15198     15196     15199     15201
     15198     15196     15199     15202     15199     15202     15204     15205
     15199     15202     15204     15206     15200     15199     15202     15203
     15200     15199     15202     15204     15201     15199     15202     15203
     15201     15199     15202     15204     15202     15204     15206     15207
     15202     15204     15206     15208     15202     15204     15206     15209
     15203     15202     15204     15205     15203     15202     15204     15206
     15204     15206     15209     15210     15204     15206     15209     15211
     15204     15206     15209     15212     15205     15204     15206     15207
     15205     15204     15206     15208     15205     15204     15206     15209
     15206     15209     15212     15213     15206     15209     15212     15214
     15206     15209     15212     15215     15207     15206     15209     15210
     15207     15206     15209     15211     15207     15206     15209     15212
     15208     15206     15209     15210     15208     15206     15209     15211
     15208     15206     15209     15212     15209     15212     15215     15216
     15209     15212     15215     15217     15209     15212     15215     15218
     15210     15209     15212     15213     15210     15209     15212     15214
     15210     15209     15212     15215     15211     15209     15212     15213
     15211     15209     15212     15214     15211     15209     15212     15215
     15212     15215     15218     15219     15212     15215     15218     15220
     15212     15215     15218     15221     15213     15212     15215     15216
     15213     15212     15215     15217     15213     15212     15215     15218
     15214     15212     15215     15216     15214     15212     15215     15217
     15214     15212     15215     15218     15215     15218     15221     15222
     15215     15218     15221     15223     15215     15218     15221     15224
     15216     15215     15218     15219     15216     15215     15218     15220
     15216     15215     15218     15221     15217     15215     15218     15219
     15217     15215     15218     15220     15217     15215     15218     15221
     15219     15218     15221     15222     15219     15218     15221     15223
     15219     15218     15221     15224     15220     15218     15221     15222
     15220     15218     15221     15223     15220     15218     15221     15224
     15225     15228     15231     15232     15225     15228     15231     15233
     15225     15228     15231     15234     15226     15225     15228     15229
     15226     15225     15228     15230     15226     15225     15228     15231
     15227     15225     15228     15229     15227     15225     15228     15230
     15227     15225     15228     15231     15228     15231     15234     15235
     15228     15231     15234     15236     15228     15231     15234     15237
     15229     15228     15231     15232     15229     15228     15231     15233
     15229     15228     15231     15234     15230     15228     15231     15232
     15230     15228     15231     15233     15230     15228     15231     15234
     15231     15234     15237     15238     15231     15234     15237     15239
     15231     15234     15237     15240     15232     15231     15234     15235
     15232     15231     15234     15236     15232     15231     15234     15237
     15233     15231     15234     15235     15233     15231     15234     15236
     15233     15231     15234     15237     15234     15237     15240     15241
     15234     15237     15240     15242     15234     15237     15240     15243
     15235     15234     15237     15238     15235     15234     15237     15239
     15235     15234     15237     15240     15236     15234     15237     15238
     15236     15234     15237     15239     15236     15234     15237     15240
     15237     15240     15243     15244     15237     15240     15243     15245
     15237     15240     15243     15246     15238     15237     15240     15241
     15238     15237     15240     15242     15238     15237     15240     15243
     15239     15237     15240     15241     15239     15237     15240     15242
     15239     15237     15240     15243     15240     15243     15246     15247
     15240     15243     15246     15248     15240     15243     15246     15249
     15241     15240     15243     15244     15241     15240     15243     15245
     15241     15240     15243     15246     15242     15240     15243     15244
     15242     15240     15243     15245     15242     15240     15243     15246
     15243     15246     15249     15250     15243     15246     15249     15251
     15243     15246     15249     15252     15244     15243     15246     15247
     15244     15243     15246     15248     15244     15243     15246     15249
     15245     15243     15246     15247     15245     15243     15246     15248
     15245     15243     15246     15249     15246     15249     15252     15253
     15246     15249     15252     15254     15246     15249     15252     15255
     15247     15246     15249     15250     15247     15246     15249     15251
     15247     15246     15249     15252     15248     15246     15249     15250
     15248     15246     15249     15251     15248     15246     15249     15252
     15249     15252     15255     15256     15249     15252     15255     15257
     15249     15252     15255     15258     15250     15249     15252     15253
     15250     15249     15252     15254     15250     15249     15252     15255
     15251     15249     15252     15253     15251     15249     15252     15254
     15251     15249     15252     15255     15252     15255     15258     15259
     15252     15255     15258     15260     15252     15255     15258     15261
     15253     15252     15255     15256     15253     15252     15255     15257
     15253     15252     15255     15258     15254     15252     15255     15256
     15254     15252     15255     15257     15254     15252     15255     15258
     15255     15258     15261     15262     15255     15258     15261     15263
     15255     15258     15261     15264     15256     15255     15258     15259
     15256     15255     15258     15260     15256     15255     15258     15261
     15257     15255     15258     15259     15257     15255     15258     15260
     15257     15255     15258     15261     15258     15261     15264     15265
     15258     15261     15264     15266     15258     15261     15264     15267
     15259     15258     15261     15262     15259     15258     15261     15263
     15259     15258     15261     15264     15260     15258     15261     15262
     15260     15258     15261     15263     15260     15258     15261     15264
     15262     15261     15264     15265     15262     15261     15264     15266
     15262     15261     15264     15267     15263     15261     15264     15265
     15263     15261     15264     15266     15263     15261     15264     15267
     15268     15272     15275     15276     15268     15272     15275     15277
     15268     15272     15275     15282     15269     15268     15272     15273
     15269     15268     15272     15274     15269     15268     15272     15275
     15270     15268     15272     15273     15270     15268     15272     15274
     15270     15268     15272     15275     15271     15268     15272     15273
     15271     15268     15272     15274     15271     15268     15272     15275
     15272     15275     15282     15278     15273     15272     15275     15276
     15273     15272     15275     15277     15273     15272     15275     15282
     15274     15272     15275     15276     15274     15272     15275     15277
     15274     15272     15275     15282     15275     15282     15278     15279
     15275     15282     15278     15280     15275     15282     15278     15281
     15276     15275     15282     15278     15277     15275     15282     15278
     15278     15281     15283     15284     15278     15281     15283     15285
     15278     15281     15283     15286     15279     15278     15281     15283
     15280     15278     15281     15283     15281     15283     15286     15287
     15281     15283     15286     15288     15281     15283     15286     15294
     15282     15278     15281     15283     15283     15286     15288     15289
     15283     15286     15294     15295     15283     15286     15294     15296
     15283     15286     15294     15297     15284     15283     15286     15287
     15284     15283     15286     15288     15284     15283     15286     15294
     15285     15283     15286     15287     15285     15283     15286     15288
     15285     15283     15286     15294     15286     15288     15289     15290
     15286     15288     15289     15291     15286     15294     15297     15298
     15287     15286     15288     15289     15287     15286     15294     15295
     15287     15286     15294     15296     15287     15286     15294     15297
     15288     15286     15294     15295     15288     15286     15294     15296
     15288     15286     15294     15297     15288     15289     15291     15292
     15288     15289     15291     15293     15288     15289     15291     15303
     15289     15288     15286     15294     15289     15291     15303     15304
     15289     15291     15303     15305     15289     15291     15303     15306
     15290     15289     15291     15292     15290     15289     15291     15293
     15290     15289     15291     15303     15291     15303     15306     15307
     15291     15303     15306     15308     15291     15303     15306     15309
     15292     15291     15303     15304     15292     15291     15303     15305
     15292     15291     15303     15306     15293     15291     15303     15304
     15293     15291     15303     15305     15293     15291     15303     15306
     15294     15297     15298     15299     15294     15297     15298     15300
     15295     15294     15297     15298     15296     15294     15297     15298
     15297     15298     15300     15301     15297     15298     15300     15302
     15297     15298     15300     15347     15298     15300     15347     15348
     15298     15300     15347     15349     15298     15300     15347     15350
     15299     15298     15300     15301     15299     15298     15300     15302
     15299     15298     15300     15347     15300     15347     15350     15351
     15300     15347     15350     15352     15300     15347     15350     15353
     15301     15300     15347     15348     15301     15300     15347     15349
     15301     15300     15347     15350     15302     15300     15347     15348
     15302     15300     15347     15349     15302     15300     15347     15350
     15303     15306     15309     15310     15303     15306     15309     15311
     15303     15306     15309     15312     15304     15303     15306     15307
     15304     15303     15306     15308     15304     15303     15306     15309
     15305     15303     15306     15307     15305     15303     15306     15308
     15305     15303     15306     15309     15306     15309     15312     15313
     15306     15309     15312     15314     15306     15309     15312     15315
     15307     15306     15309     15310     15307     15306     15309     15311
     15307     15306     15309     15312     15308     15306     15309     15310
     15308     15306     15309     15311     15308     15306     15309     15312
     15309     15312     15315     15316     15309     15312     15315     15317
     15309     15312     15315     15318     15310     15309     15312     15313
     15310     15309     15312     15314     15310     15309     15312     15315
     15311     15309     15312     15313     15311     15309     15312     15314
     15311     15309     15312     15315     15312     15315     15318     15319
     15312     15315     15318     15320     15312     15315     15318     15321
     15313     15312     15315     15316     15313     15312     15315     15317
     15313     15312     15315     15318     15314     15312     15315     15316
     15314     15312     15315     15317     15314     15312     15315     15318
     15315     15318     15321     15322     15315     15318     15321     15323
     15315     15318     15321     15326     15316     15315     15318     15319
     15316     15315     15318     15320     15316     15315     15318     15321
     15317     15315     15318     15319     15317     15315     15318     15320
     15317     15315     15318     15321     15318     15321     15323     15324
     15318     15321     15323     15325     15318     15321     15323     15326
     15318     15321     15326     15323     15318     15321     15326     15327
     15318     15321     15326     15328     15319     15318     15321     15322
     15319     15318     15321     15323     15319     15318     15321     15326
     15320     15318     15321     15322     15320     15318     15321     15323
     15320     15318     15321     15326     15321     15323     15326     15327
     15321     15323     15326     15328     15321     15326     15323     15324
     15321     15326     15323     15325     15321     15326     15328     15329
     15321     15326     15328     15330     15321     15326     15328     15331
     15322     15321     15323     15324     15322     15321     15323     15325
     15322     15321     15323     15326     15322     15321     15326     15323
     15322     15321     15326     15327     15322     15321     15326     15328
     15323     15321     15326     15327     15323     15321     15326     15328
     15323     15326     15328     15329     15323     15326     15328     15330
     15323     15326     15328     15331     15324     15323     15321     15326
     15324     15323     15326     15327     15324     15323     15326     15328
     15325     15323     15321     15326     15325     15323     15326     15327
     15325     15323     15326     15328     15326     15328     15331     15332
     15326     15328     15331     15333     15326     15328     15331     15334
     15327     15326     15328     15329     15327     15326     15328     15330
     15327     15326     15328     15331     15328     15331     15334     15335
     15328     15331     15334     15336     15328     15331     15334     15337
     15329     15328     15331     15332     15329     15328     15331     15333
     15329     15328     15331     15334     15330     15328     15331     15332
     15330     15328     15331     15333     15330     15328     15331     15334
     15331     15334     15337     15338     15331     15334     15337     15339
     15331     15334     15337     15340     15332     15331     15334     15335
     15332     15331     15334     15336     15332     15331     15334     15337
     15333     15331     15334     15335     15333     15331     15334     15336
     15333     15331     15334     15337     15334     15337     15340     15341
     15334     15337     15340     15342     15334     15337     15340     15343
     15335     15334     15337     15338     15335     15334     15337     15339
     15335     15334     15337     15340     15336     15334     15337     15338
     15336     15334     15337     15339     15336     15334     15337     15340
     15337     15340     15343     15344     15337     15340     15343     15345
     15337     15340     15343     15346     15338     15337     15340     15341
     15338     15337     15340     15342     15338     15337     15340     15343
     15339     15337     15340     15341     15339     15337     15340     15342
     15339     15337     15340     15343     15341     15340     15343     15344
     15341     15340     15343     15345     15341     15340     15343     15346
     15342     15340     15343     15344     15342     15340     15343     15345
     15342     15340     15343     15346     15347     15350     15353     15354
     15347     15350     15353     15355     15347     15350     15353     15356
     15348     15347     15350     15351     15348     15347     15350     15352
     15348     15347     15350     15353     15349     15347     15350     15351
     15349     15347     15350     15352     15349     15347     15350     15353
     15350     15353     15356     15357     15350     15353     15356     15358
     15350     15353     15356     15359     15351     15350     15353     15354
     15351     15350     15353     15355     15351     15350     15353     15356
     15352     15350     15353     15354     15352     15350     15353     15355
     15352     15350     15353     15356     15353     15356     15359     15360
     15353     15356     15359     15361     15353     15356     15359     15362
     15354     15353     15356     15357     15354     15353     15356     15358
     15354     15353     15356     15359     15355     15353     15356     15357
     15355     15353     15356     15358     15355     15353     15356     15359
     15356     15359     15362     15363     15356     15359     15362     15364
     15356     15359     15362     15365     15357     15356     15359     15360
     15357     15356     15359     15361     15357     15356     15359     15362
     15358     15356     15359     15360     15358     15356     15359     15361
     15358     15356     15359     15362     15359     15362     15365     15366
     15359     15362     15365     15367     15359     15362     15365     15368
     15360     15359     15362     15363     15360     15359     15362     15364
     15360     15359     15362     15365     15361     15359     15362     15363
     15361     15359     15362     15364     15361     15359     15362     15365
     15362     15365     15368     15369     15362     15365     15368     15370
     15362     15365     15368     15371     15363     15362     15365     15366
     15363     15362     15365     15367     15363     15362     15365     15368
     15364     15362     15365     15366     15364     15362     15365     15367
     15364     15362     15365     15368     15365     15368     15371     15372
     15365     15368     15371     15373     15365     15368     15371     15374
     15366     15365     15368     15369     15366     15365     15368     15370
     15366     15365     15368     15371     15367     15365     15368     15369
     15367     15365     15368     15370     15367     15365     15368     15371
     15368     15371     15374     15375     15368     15371     15374     15376
     15368     15371     15374     15377     15369     15368     15371     15372
     15369     15368     15371     15373     15369     15368     15371     15374
     15370     15368     15371     15372     15370     15368     15371     15373
     15370     15368     15371     15374     15371     15374     15377     15378
     15371     15374     15377     15379     15371     15374     15377     15380
     15372     15371     15374     15375     15372     15371     15374     15376
     15372     15371     15374     15377     15373     15371     15374     15375
     15373     15371     15374     15376     15373     15371     15374     15377
     15374     15377     15380     15381     15374     15377     15380     15382
     15374     15377     15380     15383     15375     15374     15377     15378
     15375     15374     15377     15379     15375     15374     15377     15380
     15376     15374     15377     15378     15376     15374     15377     15379
     15376     15374     15377     15380     15377     15380     15383     15384
     15377     15380     15383     15385     15377     15380     15383     15386
     15378     15377     15380     15381     15378     15377     15380     15382
     15378     15377     15380     15383     15379     15377     15380     15381
     15379     15377     15380     15382     15379     15377     15380     15383
     15380     15383     15386     15387     15380     15383     15386     15388
     15380     15383     15386     15389     15381     15380     15383     15384
     15381     15380     15383     15385     15381     15380     15383     15386
     15382     15380     15383     15384     15382     15380     15383     15385
     15382     15380     15383     15386     15384     15383     15386     15387
     15384     15383     15386     15388     15384     15383     15386     15389
     15385     15383     15386     15387     15385     15383     15386     15388
     15385     15383     15386     15389     15390     15394     15397     15398
     15390     15394     15397     15399     15390     15394     15397     15404
     15391     15390     15394     15395     15391     15390     15394     15396
     15391     15390     15394     15397     15392     15390     15394     15395
     15392     15390     15394     15396     15392     15390     15394     15397
     15393     15390     15394     15395     15393     15390     15394     15396
     15393     15390     15394     15397     15394     15397     15404     15400
     15395     15394     15397     15398     15395     15394     15397     15399
     15395     15394     15397     15404     15396     15394     15397     15398
     15396     15394     15397     15399     15396     15394     15397     15404
     15397     15404     15400     15401     15397     15404     15400     15402
     15397     15404     15400     15403     15398     15397     15404     15400
     15399     15397     15404     15400     15400     15403     15405     15406
     15400     15403     15405     15407     15400     15403     15405     15408
     15401     15400     15403     15405     15402     15400     15403     15405
     15403     15405     15408     15409     15403     15405     15408     15410
     15403     15405     15408     15416     15404     15400     15403     15405
     15405     15408     15410     15411     15405     15408     15416     15417
     15405     15408     15416     15418     15405     15408     15416     15419
     15406     15405     15408     15409     15406     15405     15408     15410
     15406     15405     15408     15416     15407     15405     15408     15409
     15407     15405     15408     15410     15407     15405     15408     15416
     15408     15410     15411     15412     15408     15410     15411     15413
     15408     15416     15419     15420     15409     15408     15410     15411
     15409     15408     15416     15417     15409     15408     15416     15418
     15409     15408     15416     15419     15410     15408     15416     15417
     15410     15408     15416     15418     15410     15408     15416     15419
     15410     15411     15413     15414     15410     15411     15413     15415
     15410     15411     15413     15425     15411     15410     15408     15416
     15411     15413     15425     15426     15411     15413     15425     15427
     15411     15413     15425     15428     15412     15411     15413     15414
     15412     15411     15413     15415     15412     15411     15413     15425
     15413     15425     15428     15429     15413     15425     15428     15430
     15413     15425     15428     15431     15414     15413     15425     15426
     15414     15413     15425     15427     15414     15413     15425     15428
     15415     15413     15425     15426     15415     15413     15425     15427
     15415     15413     15425     15428     15416     15419     15420     15421
     15416     15419     15420     15422     15417     15416     15419     15420
     15418     15416     15419     15420     15419     15420     15422     15423
     15419     15420     15422     15424     15419     15420     15422     15466
     15420     15422     15466     15467     15420     15422     15466     15468
     15420     15422     15466     15469     15421     15420     15422     15423
     15421     15420     15422     15424     15421     15420     15422     15466
     15422     15466     15469     15470     15422     15466     15469     15471
     15422     15466     15469     15472     15423     15422     15466     15467
     15423     15422     15466     15468     15423     15422     15466     15469
     15424     15422     15466     15467     15424     15422     15466     15468
     15424     15422     15466     15469     15425     15428     15431     15432
     15425     15428     15431     15433     15425     15428     15431     15434
     15426     15425     15428     15429     15426     15425     15428     15430
     15426     15425     15428     15431     15427     15425     15428     15429
     15427     15425     15428     15430     15427     15425     15428     15431
     15428     15431     15434     15435     15428     15431     15434     15436
     15428     15431     15434     15437     15429     15428     15431     15432
     15429     15428     15431     15433     15429     15428     15431     15434
     15430     15428     15431     15432     15430     15428     15431     15433
     15430     15428     15431     15434     15431     15434     15437     15438
     15431     15434     15437     15439     15431     15434     15437     15440
     15432     15431     15434     15435     15432     15431     15434     15436
     15432     15431     15434     15437     15433     15431     15434     15435
     15433     15431     15434     15436     15433     15431     15434     15437
     15434     15437     15440     15441     15434     15437     15440     15442
     15434     15437     15440     15443     15435     15434     15437     15438
     15435     15434     15437     15439     15435     15434     15437     15440
     15436     15434     15437     15438     15436     15434     15437     15439
     15436     15434     15437     15440     15437     15440     15443     15444
     15437     15440     15443     15445     15438     15437     15440     15441
     15438     15437     15440     15442     15438     15437     15440     15443
     15439     15437     15440     15441     15439     15437     15440     15442
     15439     15437     15440     15443     15440     15443     15445     15446
     15440     15443     15445     15447     15441     15440     15443     15444
     15441     15440     15443     15445     15442     15440     15443     15444
     15442     15440     15443     15445     15443     15445     15447     15448
     15443     15445     15447     15449     15443     15445     15447     15450
     15444     15443     15445     15446     15444     15443     15445     15447
     15445     15447     15450     15451     15445     15447     15450     15452
     15445     15447     15450     15453     15446     15445     15447     15448
     15446     15445     15447     15449     15446     15445     15447     15450
     15447     15450     15453     15454     15447     15450     15453     15455
     15447     15450     15453     15456     15448     15447     15450     15451
     15448     15447     15450     15452     15448     15447     15450     15453
     15449     15447     15450     15451     15449     15447     15450     15452
     15449     15447     15450     15453     15450     15453     15456     15457
     15450     15453     15456     15458     15450     15453     15456     15459
     15451     15450     15453     15454     15451     15450     15453     15455
     15451     15450     15453     15456     15452     15450     15453     15454
     15452     15450     15453     15455     15452     15450     15453     15456
     15453     15456     15459     15460     15453     15456     15459     15461
     15453     15456     15459     15462     15454     15453     15456     15457
     15454     15453     15456     15458     15454     15453     15456     15459
     15455     15453     15456     15457     15455     15453     15456     15458
     15455     15453     15456     15459     15456     15459     15462     15463
     15456     15459     15462     15464     15456     15459     15462     15465
     15457     15456     15459     15460     15457     15456     15459     15461
     15457     15456     15459     15462     15458     15456     15459     15460
     15458     15456     15459     15461     15458     15456     15459     15462
     15460     15459     15462     15463     15460     15459     15462     15464
     15460     15459     15462     15465     15461     15459     15462     15463
     15461     15459     15462     15464     15461     15459     15462     15465
     15466     15469     15472     15473     15466     15469     15472     15474
     15466     15469     15472     15475     15467     15466     15469     15470
     15467     15466     15469     15471     15467     15466     15469     15472
     15468     15466     15469     15470     15468     15466     15469     15471
     15468     15466     15469     15472     15469     15472     15475     15476
     15469     15472     15475     15477     15469     15472     15475     15478
     15470     15469     15472     15473     15470     15469     15472     15474
     15470     15469     15472     15475     15471     15469     15472     15473
     15471     15469     15472     15474     15471     15469     15472     15475
     15472     15475     15478     15479     15472     15475     15478     15480
     15472     15475     15478     15481     15473     15472     15475     15476
     15473     15472     15475     15477     15473     15472     15475     15478
     15474     15472     15475     15476     15474     15472     15475     15477
     15474     15472     15475     15478     15475     15478     15481     15482
     15475     15478     15481     15483     15475     15478     15481     15484
     15476     15475     15478     15479     15476     15475     15478     15480
     15476     15475     15478     15481     15477     15475     15478     15479
     15477     15475     15478     15480     15477     15475     15478     15481
     15478     15481     15484     15485     15478     15481     15484     15486
     15479     15478     15481     15482     15479     15478     15481     15483
     15479     15478     15481     15484     15480     15478     15481     15482
     15480     15478     15481     15483     15480     15478     15481     15484
     15481     15484     15486     15487     15481     15484     15486     15488
     15482     15481     15484     15485     15482     15481     15484     15486
     15483     15481     15484     15485     15483     15481     15484     15486
     15484     15486     15488     15489     15484     15486     15488     15490
     15484     15486     15488     15491     15485     15484     15486     15487
     15485     15484     15486     15488     15486     15488     15491     15492
     15486     15488     15491     15493     15486     15488     15491     15494
     15487     15486     15488     15489     15487     15486     15488     15490
     15487     15486     15488     15491     15488     15491     15494     15495
     15488     15491     15494     15496     15488     15491     15494     15497
     15489     15488     15491     15492     15489     15488     15491     15493
     15489     15488     15491     15494     15490     15488     15491     15492
     15490     15488     15491     15493     15490     15488     15491     15494
     15491     15494     15497     15498     15491     15494     15497     15499
     15491     15494     15497     15500     15492     15491     15494     15495
     15492     15491     15494     15496     15492     15491     15494     15497
     15493     15491     15494     15495     15493     15491     15494     15496
     15493     15491     15494     15497     15494     15497     15500     15501
     15494     15497     15500     15502     15494     15497     15500     15503
     15495     15494     15497     15498     15495     15494     15497     15499
     15495     15494     15497     15500     15496     15494     15497     15498
     15496     15494     15497     15499     15496     15494     15497     15500
     15497     15500     15503     15504     15497     15500     15503     15505
     15497     15500     15503     15506     15498     15497     15500     15501
     15498     15497     15500     15502     15498     15497     15500     15503
     15499     15497     15500     15501     15499     15497     15500     15502
     15499     15497     15500     15503     15500     15503     15506     15507
     15500     15503     15506     15508     15500     15503     15506     15509
     15501     15500     15503     15504     15501     15500     15503     15505
     15501     15500     15503     15506     15502     15500     15503     15504
     15502     15500     15503     15505     15502     15500     15503     15506
     15503     15506     15509     15510     15503     15506     15509     15511
     15503     15506     15509     15512     15504     15503     15506     15507
     15504     15503     15506     15508     15504     15503     15506     15509
     15505     15503     15506     15507     15505     15503     15506     15508
     15505     15503     15506     15509     15507     15506     15509     15510
     15507     15506     15509     15511     15507     15506     15509     15512
     15508     15506     15509     15510     15508     15506     15509     15511
     15508     15506     15509     15512     15513     15517     15520     15521
     15513     15517     15520     15522     15513     15517     15520     15527
     15514     15513     15517     15518     15514     15513     15517     15519
     15514     15513     15517     15520     15515     15513     15517     15518
     15515     15513     15517     15519     15515     15513     15517     15520
     15516     15513     15517     15518     15516     15513     15517     15519
     15516     15513     15517     15520     15517     15520     15527     15523
     15518     15517     15520     15521     15518     15517     15520     15522
     15518     15517     15520     15527     15519     15517     15520     15521
     15519     15517     15520     15522     15519     15517     15520     15527
     15520     15527     15523     15524     15520     15527     15523     15525
     15520     15527     15523     15526     15521     15520     15527     15523
     15522     15520     15527     15523     15523     15526     15528     15529
     15523     15526     15528     15530     15523     15526     15528     15531
     15524     15523     15526     15528     15525     15523     15526     15528
     15526     15528     15531     15532     15526     15528     15531     15533
     15526     15528     15531     15539     15527     15523     15526     15528
     15528     15531     15533     15534     15528     15531     15539     15540
     15528     15531     15539     15541     15528     15531     15539     15542
     15529     15528     15531     15532     15529     15528     15531     15533
     15529     15528     15531     15539     15530     15528     15531     15532
     15530     15528     15531     15533     15530     15528     15531     15539
     15531     15533     15534     15535     15531     15533     15534     15536
     15531     15539     15542     15543     15532     15531     15533     15534
     15532     15531     15539     15540     15532     15531     15539     15541
     15532     15531     15539     15542     15533     15531     15539     15540
     15533     15531     15539     15541     15533     15531     15539     15542
     15533     15534     15536     15537     15533     15534     15536     15538
     15533     15534     15536     15548     15534     15533     15531     15539
     15534     15536     15548     15549     15534     15536     15548     15550
     15534     15536     15548     15551     15535     15534     15536     15537
     15535     15534     15536     15538     15535     15534     15536     15548
     15536     15548     15551     15552     15536     15548     15551     15553
     15536     15548     15551     15554     15537     15536     15548     15549
     15537     15536     15548     15550     15537     15536     15548     15551
     15538     15536     15548     15549     15538     15536     15548     15550
     15538     15536     15548     15551     15539     15542     15543     15544
     15539     15542     15543     15545     15540     15539     15542     15543
     15541     15539     15542     15543     15542     15543     15545     15546
     15542     15543     15545     15547     15542     15543     15545     15592
     15543     15545     15592     15593     15543     15545     15592     15594
     15543     15545     15592     15595     15544     15543     15545     15546
     15544     15543     15545     15547     15544     15543     15545     15592
     15545     15592     15595     15596     15545     15592     15595     15597
     15545     15592     15595     15598     15546     15545     15592     15593
     15546     15545     15592     15594     15546     15545     15592     15595
     15547     15545     15592     15593     15547     15545     15592     15594
     15547     15545     15592     15595     15548     15551     15554     15555
     15548     15551     15554     15556     15548     15551     15554     15557
     15549     15548     15551     15552     15549     15548     15551     15553
     15549     15548     15551     15554     15550     15548     15551     15552
     15550     15548     15551     15553     15550     15548     15551     15554
     15551     15554     15557     15558     15551     15554     15557     15559
     15551     15554     15557     15560     15552     15551     15554     15555
     15552     15551     15554     15556     15552     15551     15554     15557
     15553     15551     15554     15555     15553     15551     15554     15556
     15553     15551     15554     15557     15554     15557     15560     15561
     15554     15557     15560     15562     15554     15557     15560     15563
     15555     15554     15557     15558     15555     15554     15557     15559
     15555     15554     15557     15560     15556     15554     15557     15558
     15556     15554     15557     15559     15556     15554     15557     15560
     15557     15560     15563     15564     15557     15560     15563     15565
     15557     15560     15563     15566     15558     15557     15560     15561
     15558     15557     15560     15562     15558     15557     15560     15563
     15559     15557     15560     15561     15559     15557     15560     15562
     15559     15557     15560     15563     15560     15563     15566     15567
     15560     15563     15566     15568     15560     15563     15566     15571
     15561     15560     15563     15564     15561     15560     15563     15565
     15561     15560     15563     15566     15562     15560     15563     15564
     15562     15560     15563     15565     15562     15560     15563     15566
     15563     15566     15568     15569     15563     15566     15568     15570
     15563     15566     15568     15571     15563     15566     15571     15568
     15563     15566     15571     15572     15563     15566     15571     15573
     15564     15563     15566     15567     15564     15563     15566     15568
     15564     15563     15566     15571     15565     15563     15566     15567
     15565     15563     15566     15568     15565     15563     15566     15571
     15566     15568     15571     15572     15566     15568     15571     15573
     15566     15571     15568     15569     15566     15571     15568     15570
     15566     15571     15573     15574     15566     15571     15573     15575
     15566     15571     15573     15576     15567     15566     15568     15569
     15567     15566     15568     15570     15567     15566     15568     15571
     15567     15566     15571     15568     15567     15566     15571     15572
     15567     15566     15571     15573     15568     15566     15571     15572
     15568     15566     15571     15573     15568     15571     15573     15574
     15568     15571     15573     15575     15568     15571     15573     15576
     15569     15568     15566     15571     15569     15568     15571     15572
     15569     15568     15571     15573     15570     15568     15566     15571
     15570     15568     15571     15572     15570     15568     15571     15573
     15571     15573     15576     15577     15571     15573     15576     15578
     15571     15573     15576     15579     15572     15571     15573     15574
     15572     15571     15573     15575     15572     15571     15573     15576
     15573     15576     15579     15580     15573     15576     15579     15581
     15573     15576     15579     15582     15574     15573     15576     15577
     15574     15573     15576     15578     15574     15573     15576     15579
     15575     15573     15576     15577     15575     15573     15576     15578
     15575     15573     15576     15579     15576     15579     15582     15583
     15576     15579     15582     15584     15576     15579     15582     15585
     15577     15576     15579     15580     15577     15576     15579     15581
     15577     15576     15579     15582     15578     15576     15579     15580
     15578     15576     15579     15581     15578     15576     15579     15582
     15579     15582     15585     15586     15579     15582     15585     15587
     15579     15582     15585     15588     15580     15579     15582     15583
     15580     15579     15582     15584     15580     15579     15582     15585
     15581     15579     15582     15583     15581     15579     15582     15584
     15581     15579     15582     15585     15582     15585     15588     15589
     15582     15585     15588     15590     15582     15585     15588     15591
     15583     15582     15585     15586     15583     15582     15585     15587
     15583     15582     15585     15588     15584     15582     15585     15586
     15584     15582     15585     15587     15584     15582     15585     15588
     15586     15585     15588     15589     15586     15585     15588     15590
     15586     15585     15588     15591     15587     15585     15588     15589
     15587     15585     15588     15590     15587     15585     15588     15591
     15592     15595     15598     15599     15592     15595     15598     15600
     15592     15595     15598     15601     15593     15592     15595     15596
     15593     15592     15595     15597     15593     15592     15595     15598
     15594     15592     15595     15596     15594     15592     15595     15597
     15594     15592     15595     15598     15595     15598     15601     15602
     15595     15598     15601     15603     15595     15598     15601     15604
     15596     15595     15598     15599     15596     15595     15598     15600
     15596     15595     15598     15601     15597     15595     15598     15599
     15597     15595     15598     15600     15597     15595     15598     15601
     15598     15601     15604     15605     15598     15601     15604     15606
     15598     15601     15604     15607     15599     15598     15601     15602
     15599     15598     15601     15603     15599     15598     15601     15604
     15600     15598     15601     15602     15600     15598     15601     15603
     15600     15598     15601     15604     15601     15604     15607     15608
     15601     15604     15607     15609     15601     15604     15607     15610
     15602     15601     15604     15605     15602     15601     15604     15606
     15602     15601     15604     15607     15603     15601     15604     15605
     15603     15601     15604     15606     15603     15601     15604     15607
     15604     15607     15610     15611     15604     15607     15610     15612
     15604     15607     15610     15613     15605     15604     15607     15608
     15605     15604     15607     15609     15605     15604     15607     15610
     15606     15604     15607     15608     15606     15604     15607     15609
     15606     15604     15607     15610     15607     15610     15613     15614
     15607     15610     15613     15615     15607     15610     15613     15616
     15608     15607     15610     15611     15608     15607     15610     15612
     15608     15607     15610     15613     15609     15607     15610     15611
     15609     15607     15610     15612     15609     15607     15610     15613
     15610     15613     15616     15617     15610     15613     15616     15618
     15610     15613     15616     15619     15611     15610     15613     15614
     15611     15610     15613     15615     15611     15610     15613     15616
     15612     15610     15613     15614     15612     15610     15613     15615
     15612     15610     15613     15616     15613     15616     15619     15620
     15613     15616     15619     15621     15613     15616     15619     15622
     15614     15613     15616     15617     15614     15613     15616     15618
     15614     15613     15616     15619     15615     15613     15616     15617
     15615     15613     15616     15618     15615     15613     15616     15619
     15616     15619     15622     15623     15616     15619     15622     15624
     15616     15619     15622     15625     15617     15616     15619     15620
     15617     15616     15619     15621     15617     15616     15619     15622
     15618     15616     15619     15620     15618     15616     15619     15621
     15618     15616     15619     15622     15619     15622     15625     15626
     15619     15622     15625     15627     15619     15622     15625     15628
     15620     15619     15622     15623     15620     15619     15622     15624
     15620     15619     15622     15625     15621     15619     15622     15623
     15621     15619     15622     15624     15621     15619     15622     15625
     15622     15625     15628     15629     15622     15625     15628     15630
     15622     15625     15628     15631     15623     15622     15625     15626
     15623     15622     15625     15627     15623     15622     15625     15628
     15624     15622     15625     15626     15624     15622     15625     15627
     15624     15622     15625     15628     15625     15628     15631     15632
     15625     15628     15631     15633     15625     15628     15631     15634
     15626     15625     15628     15629     15626     15625     15628     15630
     15626     15625     15628     15631     15627     15625     15628     15629
     15627     15625     15628     15630     15627     15625     15628     15631
     15629     15628     15631     15632     15629     15628     15631     15633
     15629     15628     15631     15634     15630     15628     15631     15632
     15630     15628     15631     15633     15630     15628     15631     15634
     15635     15639     15642     15643     15635     15639     15642     15644
     15635     15639     15642     15649     15636     15635     15639     15640
     15636     15635     15639     15641     15636     15635     15639     15642
     15637     15635     15639     15640     15637     15635     15639     15641
     15637     15635     15639     15642     15638     15635     15639     15640
     15638     15635     15639     15641     15638     15635     15639     15642
     15639     15642     15649     15645     15640     15639     15642     15643
     15640     15639     15642     15644     15640     15639     15642     15649
     15641     15639     15642     15643     15641     15639     15642     15644
     15641     15639     15642     15649     15642     15649     15645     15646
     15642     15649     15645     15647     15642     15649     15645     15648
     15643     15642     15649     15645     15644     15642     15649     15645
     15645     15648     15650     15651     15645     15648     15650     15652
     15645     15648     15650     15653     15646     15645     15648     15650
     15647     15645     15648     15650     15648     15650     15653     15654
     15648     15650     15653     15655     15648     15650     15653     15661
     15649     15645     15648     15650     15650     15653     15655     15656
     15650     15653     15661     15662     15650     15653     15661     15663
     15650     15653     15661     15664     15651     15650     15653     15654
     15651     15650     15653     15655     15651     15650     15653     15661
     15652     15650     15653     15654     15652     15650     15653     15655
     15652     15650     15653     15661     15653     15655     15656     15657
     15653     15655     15656     15658     15653     15661     15664     15665
     15654     15653     15655     15656     15654     15653     15661     15662
     15654     15653     15661     15663     15654     15653     15661     15664
     15655     15653     15661     15662     15655     15653     15661     15663
     15655     15653     15661     15664     15655     15656     15658     15659
     15655     15656     15658     15660     15655     15656     15658     15670
     15656     15655     15653     15661     15656     15658     15670     15671
     15656     15658     15670     15672     15656     15658     15670     15673
     15657     15656     15658     15659     15657     15656     15658     15660
     15657     15656     15658     15670     15658     15670     15673     15674
     15658     15670     15673     15675     15658     15670     15673     15676
     15659     15658     15670     15671     15659     15658     15670     15672
     15659     15658     15670     15673     15660     15658     15670     15671
     15660     15658     15670     15672     15660     15658     15670     15673
     15661     15664     15665     15666     15661     15664     15665     15667
     15662     15661     15664     15665     15663     15661     15664     15665
     15664     15665     15667     15668     15664     15665     15667     15669
     15664     15665     15667     15714     15665     15667     15714     15715
     15665     15667     15714     15716     15665     15667     15714     15717
     15666     15665     15667     15668     15666     15665     15667     15669
     15666     15665     15667     15714     15667     15714     15717     15718
     15667     15714     15717     15719     15667     15714     15717     15720
     15668     15667     15714     15715     15668     15667     15714     15716
     15668     15667     15714     15717     15669     15667     15714     15715
     15669     15667     15714     15716     15669     15667     15714     15717
     15670     15673     15676     15677     15670     15673     15676     15678
     15670     15673     15676     15679     15671     15670     15673     15674
     15671     15670     15673     15675     15671     15670     15673     15676
     15672     15670     15673     15674     15672     15670     15673     15675
     15672     15670     15673     15676     15673     15676     15679     15680
     15673     15676     15679     15681     15673     15676     15679     15682
     15674     15673     15676     15677     15674     15673     15676     15678
     15674     15673     15676     15679     15675     15673     15676     15677
     15675     15673     15676     15678     15675     15673     15676     15679
     15676     15679     15682     15683     15676     15679     15682     15684
     15676     15679     15682     15685     15677     15676     15679     15680
     15677     15676     15679     15681     15677     15676     15679     15682
     15678     15676     15679     15680     15678     15676     15679     15681
     15678     15676     15679     15682     15679     15682     15685     15686
     15679     15682     15685     15687     15679     15682     15685     15688
     15680     15679     15682     15683     15680     15679     15682     15684
     15680     15679     15682     15685     15681     15679     15682     15683
     15681     15679     15682     15684     15681     15679     15682     15685
     15682     15685     15688     15689     15682     15685     15688     15690
     15682     15685     15688     15693     15683     15682     15685     15686
     15683     15682     15685     15687     15683     15682     15685     15688
     15684     15682     15685     15686     15684     15682     15685     15687
     15684     15682     15685     15688     15685     15688     15690     15691
     15685     15688     15690     15692     15685     15688     15690     15693
     15685     15688     15693     15690     15685     15688     15693     15694
     15685     15688     15693     15695     15686     15685     15688     15689
     15686     15685     15688     15690     15686     15685     15688     15693
     15687     15685     15688     15689     15687     15685     15688     15690
     15687     15685     15688     15693     15688     15690     15693     15694
     15688     15690     15693     15695     15688     15693     15690     15691
     15688     15693     15690     15692     15688     15693     15695     15696
     15688     15693     15695     15697     15688     15693     15695     15698
     15689     15688     15690     15691     15689     15688     15690     15692
     15689     15688     15690     15693     15689     15688     15693     15690
     15689     15688     15693     15694     15689     15688     15693     15695
     15690     15688     15693     15694     15690     15688     15693     15695
     15690     15693     15695     15696     15690     15693     15695     15697
     15690     15693     15695     15698     15691     15690     15688     15693
     15691     15690     15693     15694     15691     15690     15693     15695
     15692     15690     15688     15693     15692     15690     15693     15694
     15692     15690     15693     15695     15693     15695     15698     15699
     15693     15695     15698     15700     15693     15695     15698     15701
     15694     15693     15695     15696     15694     15693     15695     15697
     15694     15693     15695     15698     15695     15698     15701     15702
     15695     15698     15701     15703     15695     15698     15701     15704
     15696     15695     15698     15699     15696     15695     15698     15700
     15696     15695     15698     15701     15697     15695     15698     15699
     15697     15695     15698     15700     15697     15695     15698     15701
     15698     15701     15704     15705     15698     15701     15704     15706
     15698     15701     15704     15707     15699     15698     15701     15702
     15699     15698     15701     15703     15699     15698     15701     15704
     15700     15698     15701     15702     15700     15698     15701     15703
     15700     15698     15701     15704     15701     15704     15707     15708
     15701     15704     15707     15709     15701     15704     15707     15710
     15702     15701     15704     15705     15702     15701     15704     15706
     15702     15701     15704     15707     15703     15701     15704     15705
     15703     15701     15704     15706     15703     15701     15704     15707
     15704     15707     15710     15711     15704     15707     15710     15712
     15704     15707     15710     15713     15705     15704     15707     15708
     15705     15704     15707     15709     15705     15704     15707     15710
     15706     15704     15707     15708     15706     15704     15707     15709
     15706     15704     15707     15710     15708     15707     15710     15711
     15708     15707     15710     15712     15708     15707     15710     15713
     15709     15707     15710     15711     15709     15707     15710     15712
     15709     15707     15710     15713     15714     15717     15720     15721
     15714     15717     15720     15722     15714     15717     15720     15723
     15715     15714     15717     15718     15715     15714     15717     15719
     15715     15714     15717     15720     15716     15714     15717     15718
     15716     15714     15717     15719     15716     15714     15717     15720
     15717     15720     15723     15724     15717     15720     15723     15725
     15717     15720     15723     15726     15718     15717     15720     15721
     15718     15717     15720     15722     15718     15717     15720     15723
     15719     15717     15720     15721     15719     15717     15720     15722
     15719     15717     15720     15723     15720     15723     15726     15727
     15720     15723     15726     15728     15720     15723     15726     15729
     15721     15720     15723     15724     15721     15720     15723     15725
     15721     15720     15723     15726     15722     15720     15723     15724
     15722     15720     15723     15725     15722     15720     15723     15726
     15723     15726     15729     15730     15723     15726     15729     15731
     15723     15726     15729     15732     15724     15723     15726     15727
     15724     15723     15726     15728     15724     15723     15726     15729
     15725     15723     15726     15727     15725     15723     15726     15728
     15725     15723     15726     15729     15726     15729     15732     15733
     15726     15729     15732     15734     15726     15729     15732     15735
     15727     15726     15729     15730     15727     15726     15729     15731
     15727     15726     15729     15732     15728     15726     15729     15730
     15728     15726     15729     15731     15728     15726     15729     15732
     15729     15732     15735     15736     15729     15732     15735     15737
     15729     15732     15735     15738     15730     15729     15732     15733
     15730     15729     15732     15734     15730     15729     15732     15735
     15731     15729     15732     15733     15731     15729     15732     15734
     15731     15729     15732     15735     15732     15735     15738     15739
     15732     15735     15738     15740     15732     15735     15738     15741
     15733     15732     15735     15736     15733     15732     15735     15737
     15733     15732     15735     15738     15734     15732     15735     15736
     15734     15732     15735     15737     15734     15732     15735     15738
     15735     15738     15741     15742     15735     15738     15741     15743
     15735     15738     15741     15744     15736     15735     15738     15739
     15736     15735     15738     15740     15736     15735     15738     15741
     15737     15735     15738     15739     15737     15735     15738     15740
     15737     15735     15738     15741     15738     15741     15744     15745
     15738     15741     15744     15746     15738     15741     15744     15747
     15739     15738     15741     15742     15739     15738     15741     15743
     15739     15738     15741     15744     15740     15738     15741     15742
     15740     15738     15741     15743     15740     15738     15741     15744
     15741     15744     15747     15748     15741     15744     15747     15749
     15741     15744     15747     15750     15742     15741     15744     15745
     15742     15741     15744     15746     15742     15741     15744     15747
     15743     15741     15744     15745     15743     15741     15744     15746
     15743     15741     15744     15747     15744     15747     15750     15751
     15744     15747     15750     15752     15744     15747     15750     15753
     15745     15744     15747     15748     15745     15744     15747     15749
     15745     15744     15747     15750     15746     15744     15747     15748
     15746     15744     15747     15749     15746     15744     15747     15750
     15747     15750     15753     15754     15747     15750     15753     15755
     15747     15750     15753     15756     15748     15747     15750     15751
     15748     15747     15750     15752     15748     15747     15750     15753
     15749     15747     15750     15751     15749     15747     15750     15752
     15749     15747     15750     15753     15751     15750     15753     15754
     15751     15750     15753     15755     15751     15750     15753     15756
     15752     15750     15753     15754     15752     15750     15753     15755
     15752     15750     15753     15756     15757     15761     15764     15765
     15757     15761     15764     15766     15757     15761     15764     15771
     15758     15757     15761     15762     15758     15757     15761     15763
     15758     15757     15761     15764     15759     15757     15761     15762
     15759     15757     15761     15763     15759     15757     15761     15764
     15760     15757     15761     15762     15760     15757     15761     15763
     15760     15757     15761     15764     15761     15764     15771     15767
     15762     15761     15764     15765     15762     15761     15764     15766
     15762     15761     15764     15771     15763     15761     15764     15765
     15763     15761     15764     15766     15763     15761     15764     15771
     15764     15771     15767     15768     15764     15771     15767     15769
     15764     15771     15767     15770     15765     15764     15771     15767
     15766     15764     15771     15767     15767     15770     15772     15773
     15767     15770     15772     15774     15767     15770     15772     15775
     15768     15767     15770     15772     15769     15767     15770     15772
     15770     15772     15775     15776     15770     15772     15775     15777
     15770     15772     15775     15783     15771     15767     15770     15772
     15772     15775     15777     15778     15772     15775     15783     15784
     15772     15775     15783     15785     15772     15775     15783     15786
     15773     15772     15775     15776     15773     15772     15775     15777
     15773     15772     15775     15783     15774     15772     15775     15776
     15774     15772     15775     15777     15774     15772     15775     15783
     15775     15777     15778     15779     15775     15777     15778     15780
     15775     15783     15786     15787     15776     15775     15777     15778
     15776     15775     15783     15784     15776     15775     15783     15785
     15776     15775     15783     15786     15777     15775     15783     15784
     15777     15775     15783     15785     15777     15775     15783     15786
     15777     15778     15780     15781     15777     15778     15780     15782
     15777     15778     15780     15792     15778     15777     15775     15783
     15778     15780     15792     15793     15778     15780     15792     15794
     15778     15780     15792     15795     15779     15778     15780     15781
     15779     15778     15780     15782     15779     15778     15780     15792
     15780     15792     15795     15796     15780     15792     15795     15797
     15780     15792     15795     15798     15781     15780     15792     15793
     15781     15780     15792     15794     15781     15780     15792     15795
     15782     15780     15792     15793     15782     15780     15792     15794
     15782     15780     15792     15795     15783     15786     15787     15788
     15783     15786     15787     15789     15784     15783     15786     15787
     15785     15783     15786     15787     15786     15787     15789     15790
     15786     15787     15789     15791     15786     15787     15789     15836
     15787     15789     15836     15837     15787     15789     15836     15838
     15787     15789     15836     15839     15788     15787     15789     15790
     15788     15787     15789     15791     15788     15787     15789     15836
     15789     15836     15839     15840     15789     15836     15839     15841
     15789     15836     15839     15842     15790     15789     15836     15837
     15790     15789     15836     15838     15790     15789     15836     15839
     15791     15789     15836     15837     15791     15789     15836     15838
     15791     15789     15836     15839     15792     15795     15798     15799
     15792     15795     15798     15800     15792     15795     15798     15801
     15793     15792     15795     15796     15793     15792     15795     15797
     15793     15792     15795     15798     15794     15792     15795     15796
     15794     15792     15795     15797     15794     15792     15795     15798
     15795     15798     15801     15802     15795     15798     15801     15803
     15795     15798     15801     15804     15796     15795     15798     15799
     15796     15795     15798     15800     15796     15795     15798     15801
     15797     15795     15798     15799     15797     15795     15798     15800
     15797     15795     15798     15801     15798     15801     15804     15805
     15798     15801     15804     15806     15798     15801     15804     15807
     15799     15798     15801     15802     15799     15798     15801     15803
     15799     15798     15801     15804     15800     15798     15801     15802
     15800     15798     15801     15803     15800     15798     15801     15804
     15801     15804     15807     15808     15801     15804     15807     15809
     15801     15804     15807     15810     15802     15801     15804     15805
     15802     15801     15804     15806     15802     15801     15804     15807
     15803     15801     15804     15805     15803     15801     15804     15806
     15803     15801     15804     15807     15804     15807     15810     15811
     15804     15807     15810     15812     15804     15807     15810     15815
     15805     15804     15807     15808     15805     15804     15807     15809
     15805     15804     15807     15810     15806     15804     15807     15808
     15806     15804     15807     15809     15806     15804     15807     15810
     15807     15810     15812     15813     15807     15810     15812     15814
     15807     15810     15812     15815     15807     15810     15815     15812
     15807     15810     15815     15816     15807     15810     15815     15817
     15808     15807     15810     15811     15808     15807     15810     15812
     15808     15807     15810     15815     15809     15807     15810     15811
     15809     15807     15810     15812     15809     15807     15810     15815
     15810     15812     15815     15816     15810     15812     15815     15817
     15810     15815     15812     15813     15810     15815     15812     15814
     15810     15815     15817     15818     15810     15815     15817     15819
     15810     15815     15817     15820     15811     15810     15812     15813
     15811     15810     15812     15814     15811     15810     15812     15815
     15811     15810     15815     15812     15811     15810     15815     15816
     15811     15810     15815     15817     15812     15810     15815     15816
     15812     15810     15815     15817     15812     15815     15817     15818
     15812     15815     15817     15819     15812     15815     15817     15820
     15813     15812     15810     15815     15813     15812     15815     15816
     15813     15812     15815     15817     15814     15812     15810     15815
     15814     15812     15815     15816     15814     15812     15815     15817
     15815     15817     15820     15821     15815     15817     15820     15822
     15815     15817     15820     15823     15816     15815     15817     15818
     15816     15815     15817     15819     15816     15815     15817     15820
     15817     15820     15823     15824     15817     15820     15823     15825
     15817     15820     15823     15826     15818     15817     15820     15821
     15818     15817     15820     15822     15818     15817     15820     15823
     15819     15817     15820     15821     15819     15817     15820     15822
     15819     15817     15820     15823     15820     15823     15826     15827
     15820     15823     15826     15828     15820     15823     15826     15829
     15821     15820     15823     15824     15821     15820     15823     15825
     15821     15820     15823     15826     15822     15820     15823     15824
     15822     15820     15823     15825     15822     15820     15823     15826
     15823     15826     15829     15830     15823     15826     15829     15831
     15823     15826     15829     15832     15824     15823     15826     15827
     15824     15823     15826     15828     15824     15823     15826     15829
     15825     15823     15826     15827     15825     15823     15826     15828
     15825     15823     15826     15829     15826     15829     15832     15833
     15826     15829     15832     15834     15826     15829     15832     15835
     15827     15826     15829     15830     15827     15826     15829     15831
     15827     15826     15829     15832     15828     15826     15829     15830
     15828     15826     15829     15831     15828     15826     15829     15832
     15830     15829     15832     15833     15830     15829     15832     15834
     15830     15829     15832     15835     15831     15829     15832     15833
     15831     15829     15832     15834     15831     15829     15832     15835
     15836     15839     15842     15843     15836     15839     15842     15844
     15836     15839     15842     15845     15837     15836     15839     15840
     15837     15836     15839     15841     15837     15836     15839     15842
     15838     15836     15839     15840     15838     15836     15839     15841
     15838     15836     15839     15842     15839     15842     15845     15846
     15839     15842     15845     15847     15839     15842     15845     15848
     15840     15839     15842     15843     15840     15839     15842     15844
     15840     15839     15842     15845     15841     15839     15842     15843
     15841     15839     15842     15844     15841     15839     15842     15845
     15842     15845     15848     15849     15842     15845     15848     15850
     15842     15845     15848     15851     15843     15842     15845     15846
     15843     15842     15845     15847     15843     15842     15845     15848
     15844     15842     15845     15846     15844     15842     15845     15847
     15844     15842     15845     15848     15845     15848     15851     15852
     15845     15848     15851     15853     15845     15848     15851     15854
     15846     15845     15848     15849     15846     15845     15848     15850
     15846     15845     15848     15851     15847     15845     15848     15849
     15847     15845     15848     15850     15847     15845     15848     15851
     15848     15851     15854     15855     15848     15851     15854     15856
     15848     15851     15854     15857     15849     15848     15851     15852
     15849     15848     15851     15853     15849     15848     15851     15854
     15850     15848     15851     15852     15850     15848     15851     15853
     15850     15848     15851     15854     15851     15854     15857     15858
     15851     15854     15857     15859     15851     15854     15857     15860
     15852     15851     15854     15855     15852     15851     15854     15856
     15852     15851     15854     15857     15853     15851     15854     15855
     15853     15851     15854     15856     15853     15851     15854     15857
     15854     15857     15860     15861     15854     15857     15860     15862
     15854     15857     15860     15863     15855     15854     15857     15858
     15855     15854     15857     15859     15855     15854     15857     15860
     15856     15854     15857     15858     15856     15854     15857     15859
     15856     15854     15857     15860     15857     15860     15863     15864
     15857     15860     15863     15865     15857     15860     15863     15866
     15858     15857     15860     15861     15858     15857     15860     15862
     15858     15857     15860     15863     15859     15857     15860     15861
     15859     15857     15860     15862     15859     15857     15860     15863
     15860     15863     15866     15867     15860     15863     15866     15868
     15860     15863     15866     15869     15861     15860     15863     15864
     15861     15860     15863     15865     15861     15860     15863     15866
     15862     15860     15863     15864     15862     15860     15863     15865
     15862     15860     15863     15866     15863     15866     15869     15870
     15863     15866     15869     15871     15863     15866     15869     15872
     15864     15863     15866     15867     15864     15863     15866     15868
     15864     15863     15866     15869     15865     15863     15866     15867
     15865     15863     15866     15868     15865     15863     15866     15869
     15866     15869     15872     15873     15866     15869     15872     15874
     15866     15869     15872     15875     15867     15866     15869     15870
     15867     15866     15869     15871     15867     15866     15869     15872
     15868     15866     15869     15870     15868     15866     15869     15871
     15868     15866     15869     15872     15870     15869     15872     15873
     15870     15869     15872     15874     15870     15869     15872     15875
     15871     15869     15872     15873     15871     15869     15872     15874
     15871     15869     15872     15875     15876     15881     15883     15884
     15876     15881     15885     15886     15876     15881     15885     15887
     15876     15881     15885     15892     15877     15876     15879     15880
     15877     15876     15881     15882     15877     15876     15881     15883
     15877     15876     15881     15885     15878     15876     15879     15880
     15878     15876     15881     15882     15878     15876     15881     15883
     15878     15876     15881     15885     15879     15876     15881     15882
     15879     15876     15881     15883     15879     15876     15881     15885
     15880     15879     15876     15881     15881     15885     15892     15888
     15882     15881     15883     15884     15882     15881     15885     15886
     15882     15881     15885     15887     15882     15881     15885     15892
     15883     15881     15885     15886     15883     15881     15885     15887
     15883     15881     15885     15892     15884     15883     15881     15885
     15885     15892     15888     15889     15885     15892     15888     15890
     15885     15892     15888     15891     15886     15885     15892     15888
     15887     15885     15892     15888     15888     15891     15893     15894
     15888     15891     15893     15895     15888     15891     15893     15896
     15889     15888     15891     15893     15890     15888     15891     15893
     15891     15893     15896     15897     15891     15893     15896     15898
     15891     15893     15896     15904     15892     15888     15891     15893
     15893     15896     15898     15899     15893     15896     15904     15905
     15893     15896     15904     15906     15893     15896     15904     15907
     15894     15893     15896     15897     15894     15893     15896     15898
     15894     15893     15896     15904     15895     15893     15896     15897
     15895     15893     15896     15898     15895     15893     15896     15904
     15896     15898     15899     15900     15896     15898     15899     15901
     15896     15904     15907     15908     15897     15896     15898     15899
     15897     15896     15904     15905     15897     15896     15904     15906
     15897     15896     15904     15907     15898     15896     15904     15905
     15898     15896     15904     15906     15898     15896     15904     15907
     15898     15899     15901     15902     15898     15899     15901     15903
     15898     15899     15901     15913     15899     15898     15896     15904
     15899     15901     15913     15914     15899     15901     15913     15915
     15899     15901     15913     15916     15900     15899     15901     15902
     15900     15899     15901     15903     15900     15899     15901     15913
     15901     15913     15916     15917     15901     15913     15916     15918
     15901     15913     15916     15919     15902     15901     15913     15914
     15902     15901     15913     15915     15902     15901     15913     15916
     15903     15901     15913     15914     15903     15901     15913     15915
     15903     15901     15913     15916     15904     15907     15908     15909
     15904     15907     15908     15910     15905     15904     15907     15908
     15906     15904     15907     15908     15907     15908     15910     15911
     15907     15908     15910     15912     15907     15908     15910     15954
     15908     15910     15954     15955     15908     15910     15954     15956
     15908     15910     15954     15957     15909     15908     15910     15911
     15909     15908     15910     15912     15909     15908     15910     15954
     15910     15954     15957     15958     15910     15954     15957     15959
     15910     15954     15957     15960     15911     15910     15954     15955
     15911     15910     15954     15956     15911     15910     15954     15957
     15912     15910     15954     15955     15912     15910     15954     15956
     15912     15910     15954     15957     15913     15916     15919     15920
     15913     15916     15919     15921     15913     15916     15919     15922
     15914     15913     15916     15917     15914     15913     15916     15918
     15914     15913     15916     15919     15915     15913     15916     15917
     15915     15913     15916     15918     15915     15913     15916     15919
     15916     15919     15922     15923     15916     15919     15922     15924
     15916     15919     15922     15925     15917     15916     15919     15920
     15917     15916     15919     15921     15917     15916     15919     15922
     15918     15916     15919     15920     15918     15916     15919     15921
     15918     15916     15919     15922     15919     15922     15925     15926
     15919     15922     15925     15927     15919     15922     15925     15928
     15920     15919     15922     15923     15920     15919     15922     15924
     15920     15919     15922     15925     15921     15919     15922     15923
     15921     15919     15922     15924     15921     15919     15922     15925
     15922     15925     15928     15929     15922     15925     15928     15930
     15922     15925     15928     15931     15923     15922     15925     15926
     15923     15922     15925     15927     15923     15922     15925     15928
     15924     15922     15925     15926     15924     15922     15925     15927
     15924     15922     15925     15928     15925     15928     15931     15932
     15925     15928     15931     15933     15926     15925     15928     15929
     15926     15925     15928     15930     15926     15925     15928     15931
     15927     15925     15928     15929     15927     15925     15928     15930
     15927     15925     15928     15931     15928     15931     15933     15934
     15928     15931     15933     15935     15929     15928     15931     15932
     15929     15928     15931     15933     15930     15928     15931     15932
     15930     15928     15931     15933     15931     15933     15935     15936
     15931     15933     15935     15937     15931     15933     15935     15938
     15932     15931     15933     15934     15932     15931     15933     15935
     15933     15935     15938     15939     15933     15935     15938     15940
     15933     15935     15938     15941     15934     15933     15935     15936
     15934     15933     15935     15937     15934     15933     15935     15938
     15935     15938     15941     15942     15935     15938     15941     15943
     15935     15938     15941     15944     15936     15935     15938     15939
     15936     15935     15938     15940     15936     15935     15938     15941
     15937     15935     15938     15939     15937     15935     15938     15940
     15937     15935     15938     15941     15938     15941     15944     15945
     15938     15941     15944     15946     15938     15941     15944     15947
     15939     15938     15941     15942     15939     15938     15941     15943
     15939     15938     15941     15944     15940     15938     15941     15942
     15940     15938     15941     15943     15940     15938     15941     15944
     15941     15944     15947     15948     15941     15944     15947     15949
     15941     15944     15947     15950     15942     15941     15944     15945
     15942     15941     15944     15946     15942     15941     15944     15947
     15943     15941     15944     15945     15943     15941     15944     15946
     15943     15941     15944     15947     15944     15947     15950     15951
     15944     15947     15950     15952     15944     15947     15950     15953
     15945     15944     15947     15948     15945     15944     15947     15949
     15945     15944     15947     15950     15946     15944     15947     15948
     15946     15944     15947     15949     15946     15944     15947     15950
     15948     15947     15950     15951     15948     15947     15950     15952
     15948     15947     15950     15953     15949     15947     15950     15951
     15949     15947     15950     15952     15949     15947     15950     15953
     15954     15957     15960     15961     15954     15957     15960     15962
     15954     15957     15960     15963     15955     15954     15957     15958
     15955     15954     15957     15959     15955     15954     15957     15960
     15956     15954     15957     15958     15956     15954     15957     15959
     15956     15954     15957     15960     15957     15960     15963     15964
     15957     15960     15963     15965     15957     15960     15963     15966
     15958     15957     15960     15961     15958     15957     15960     15962
     15958     15957     15960     15963     15959     15957     15960     15961
     15959     15957     15960     15962     15959     15957     15960     15963
     15960     15963     15966     15967     15960     15963     15966     15968
     15960     15963     15966     15969     15961     15960     15963     15964
     15961     15960     15963     15965     15961     15960     15963     15966
     15962     15960     15963     15964     15962     15960     15963     15965
     15962     15960     15963     15966     15963     15966     15969     15970
     15963     15966     15969     15971     15963     15966     15969     15972
     15964     15963     15966     15967     15964     15963     15966     15968
     15964     15963     15966     15969     15965     15963     15966     15967
     15965     15963     15966     15968     15965     15963     15966     15969
     15966     15969     15972     15973     15966     15969     15972     15974
     15966     15969     15972     15975     15967     15966     15969     15970
     15967     15966     15969     15971     15967     15966     15969     15972
     15968     15966     15969     15970     15968     15966     15969     15971
     15968     15966     15969     15972     15969     15972     15975     15976
     15969     15972     15975     15977     15969     15972     15975     15978
     15970     15969     15972     15973     15970     15969     15972     15974
     15970     15969     15972     15975     15971     15969     15972     15973
     15971     15969     15972     15974     15971     15969     15972     15975
     15972     15975     15978     15979     15972     15975     15978     15980
     15972     15975     15978     15981     15973     15972     15975     15976
     15973     15972     15975     15977     15973     15972     15975     15978
     15974     15972     15975     15976     15974     15972     15975     15977
     15974     15972     15975     15978     15975     15978     15981     15982
     15975     15978     15981     15983     15975     15978     15981     15984
     15976     15975     15978     15979     15976     15975     15978     15980
     15976     15975     15978     15981     15977     15975     15978     15979
     15977     15975     15978     15980     15977     15975     15978     15981
     15978     15981     15984     15985     15978     15981     15984     15986
     15978     15981     15984     15987     15979     15978     15981     15982
     15979     15978     15981     15983     15979     15978     15981     15984
     15980     15978     15981     15982     15980     15978     15981     15983
     15980     15978     15981     15984     15981     15984     15987     15988
     15981     15984     15987     15989     15981     15984     15987     15990
     15982     15981     15984     15985     15982     15981     15984     15986
     15982     15981     15984     15987     15983     15981     15984     15985
     15983     15981     15984     15986     15983     15981     15984     15987
     15984     15987     15990     15991     15984     15987     15990     15992
     15984     15987     15990     15993     15985     15984     15987     15988
     15985     15984     15987     15989     15985     15984     15987     15990
     15986     15984     15987     15988     15986     15984     15987     15989
     15986     15984     15987     15990     15987     15990     15993     15994
     15987     15990     15993     15995     15987     15990     15993     15996
     15988     15987     15990     15991     15988     15987     15990     15992
     15988     15987     15990     15993     15989     15987     15990     15991
     15989     15987     15990     15992     15989     15987     15990     15993
     15991     15990     15993     15994     15991     15990     15993     15995
     15991     15990     15993     15996     15992     15990     15993     15994
     15992     15990     15993     15995     15992     15990     15993     15996
     15997     16002     16004     16005     15997     16002     16006     16007
     15997     16002     16006     16008     15997     16002     16006     16013
     15998     15997     16000     16001     15998     15997     16002     16003
     15998     15997     16002     16004     15998     15997     16002     16006
     15999     15997     16000     16001     15999     15997     16002     16003
     15999     15997     16002     16004     15999     15997     16002     16006
     16000     15997     16002     16003     16000     15997     16002     16004
     16000     15997     16002     16006     16001     16000     15997     16002
     16002     16006     16013     16009     16003     16002     16004     16005
     16003     16002     16006     16007     16003     16002     16006     16008
     16003     16002     16006     16013     16004     16002     16006     16007
     16004     16002     16006     16008     16004     16002     16006     16013
     16005     16004     16002     16006     16006     16013     16009     16010
     16006     16013     16009     16011     16006     16013     16009     16012
     16007     16006     16013     16009     16008     16006     16013     16009
     16009     16012     16014     16015     16009     16012     16014     16016
     16009     16012     16014     16017     16010     16009     16012     16014
     16011     16009     16012     16014     16012     16014     16017     16018
     16012     16014     16017     16019     16012     16014     16017     16025
     16013     16009     16012     16014     16014     16017     16019     16020
     16014     16017     16025     16026     16014     16017     16025     16027
     16014     16017     16025     16028     16015     16014     16017     16018
     16015     16014     16017     16019     16015     16014     16017     16025
     16016     16014     16017     16018     16016     16014     16017     16019
     16016     16014     16017     16025     16017     16019     16020     16021
     16017     16019     16020     16022     16017     16025     16028     16029
     16018     16017     16019     16020     16018     16017     16025     16026
     16018     16017     16025     16027     16018     16017     16025     16028
     16019     16017     16025     16026     16019     16017     16025     16027
     16019     16017     16025     16028     16019     16020     16022     16023
     16019     16020     16022     16024     16019     16020     16022     16034
     16020     16019     16017     16025     16020     16022     16034     16035
     16020     16022     16034     16036     16020     16022     16034     16037
     16021     16020     16022     16023     16021     16020     16022     16024
     16021     16020     16022     16034     16022     16034     16037     16038
     16022     16034     16037     16039     16022     16034     16037     16040
     16023     16022     16034     16035     16023     16022     16034     16036
     16023     16022     16034     16037     16024     16022     16034     16035
     16024     16022     16034     16036     16024     16022     16034     16037
     16025     16028     16029     16030     16025     16028     16029     16031
     16026     16025     16028     16029     16027     16025     16028     16029
     16028     16029     16031     16032     16028     16029     16031     16033
     16028     16029     16031     16075     16029     16031     16075     16076
     16029     16031     16075     16077     16029     16031     16075     16078
     16030     16029     16031     16032     16030     16029     16031     16033
     16030     16029     16031     16075     16031     16075     16078     16079
     16031     16075     16078     16080     16031     16075     16078     16081
     16032     16031     16075     16076     16032     16031     16075     16077
     16032     16031     16075     16078     16033     16031     16075     16076
     16033     16031     16075     16077     16033     16031     16075     16078
     16034     16037     16040     16041     16034     16037     16040     16042
     16034     16037     16040     16043     16035     16034     16037     16038
     16035     16034     16037     16039     16035     16034     16037     16040
     16036     16034     16037     16038     16036     16034     16037     16039
     16036     16034     16037     16040     16037     16040     16043     16044
     16037     16040     16043     16045     16037     16040     16043     16046
     16038     16037     16040     16041     16038     16037     16040     16042
     16038     16037     16040     16043     16039     16037     16040     16041
     16039     16037     16040     16042     16039     16037     16040     16043
     16040     16043     16046     16047     16040     16043     16046     16048
     16040     16043     16046     16049     16041     16040     16043     16044
     16041     16040     16043     16045     16041     16040     16043     16046
     16042     16040     16043     16044     16042     16040     16043     16045
     16042     16040     16043     16046     16043     16046     16049     16050
     16043     16046     16049     16051     16043     16046     16049     16052
     16044     16043     16046     16047     16044     16043     16046     16048
     16044     16043     16046     16049     16045     16043     16046     16047
     16045     16043     16046     16048     16045     16043     16046     16049
     16046     16049     16052     16053     16046     16049     16052     16054
     16047     16046     16049     16050     16047     16046     16049     16051
     16047     16046     16049     16052     16048     16046     16049     16050
     16048     16046     16049     16051     16048     16046     16049     16052
     16049     16052     16054     16055     16049     16052     16054     16056
     16050     16049     16052     16053     16050     16049     16052     16054
     16051     16049     16052     16053     16051     16049     16052     16054
     16052     16054     16056     16057     16052     16054     16056     16058
     16052     16054     16056     16059     16053     16052     16054     16055
     16053     16052     16054     16056     16054     16056     16059     16060
     16054     16056     16059     16061     16054     16056     16059     16062
     16055     16054     16056     16057     16055     16054     16056     16058
     16055     16054     16056     16059     16056     16059     16062     16063
     16056     16059     16062     16064     16056     16059     16062     16065
     16057     16056     16059     16060     16057     16056     16059     16061
     16057     16056     16059     16062     16058     16056     16059     16060
     16058     16056     16059     16061     16058     16056     16059     16062
     16059     16062     16065     16066     16059     16062     16065     16067
     16059     16062     16065     16068     16060     16059     16062     16063
     16060     16059     16062     16064     16060     16059     16062     16065
     16061     16059     16062     16063     16061     16059     16062     16064
     16061     16059     16062     16065     16062     16065     16068     16069
     16062     16065     16068     16070     16062     16065     16068     16071
     16063     16062     16065     16066     16063     16062     16065     16067
     16063     16062     16065     16068     16064     16062     16065     16066
     16064     16062     16065     16067     16064     16062     16065     16068
     16065     16068     16071     16072     16065     16068     16071     16073
     16065     16068     16071     16074     16066     16065     16068     16069
     16066     16065     16068     16070     16066     16065     16068     16071
     16067     16065     16068     16069     16067     16065     16068     16070
     16067     16065     16068     16071     16069     16068     16071     16072
     16069     16068     16071     16073     16069     16068     16071     16074
     16070     16068     16071     16072     16070     16068     16071     16073
     16070     16068     16071     16074     16075     16078     16081     16082
     16075     16078     16081     16083     16075     16078     16081     16084
     16076     16075     16078     16079     16076     16075     16078     16080
     16076     16075     16078     16081     16077     16075     16078     16079
     16077     16075     16078     16080     16077     16075     16078     16081
     16078     16081     16084     16085     16078     16081     16084     16086
     16078     16081     16084     16087     16079     16078     16081     16082
     16079     16078     16081     16083     16079     16078     16081     16084
     16080     16078     16081     16082     16080     16078     16081     16083
     16080     16078     16081     16084     16081     16084     16087     16088
     16081     16084     16087     16089     16081     16084     16087     16090
     16082     16081     16084     16085     16082     16081     16084     16086
     16082     16081     16084     16087     16083     16081     16084     16085
     16083     16081     16084     16086     16083     16081     16084     16087
     16084     16087     16090     16091     16084     16087     16090     16092
     16084     16087     16090     16093     16085     16084     16087     16088
     16085     16084     16087     16089     16085     16084     16087     16090
     16086     16084     16087     16088     16086     16084     16087     16089
     16086     16084     16087     16090     16087     16090     16093     16094
     16087     16090     16093     16095     16087     16090     16093     16096
     16088     16087     16090     16091     16088     16087     16090     16092
     16088     16087     16090     16093     16089     16087     16090     16091
     16089     16087     16090     16092     16089     16087     16090     16093
     16090     16093     16096     16097     16090     16093     16096     16098
     16090     16093     16096     16099     16091     16090     16093     16094
     16091     16090     16093     16095     16091     16090     16093     16096
     16092     16090     16093     16094     16092     16090     16093     16095
     16092     16090     16093     16096     16093     16096     16099     16100
     16093     16096     16099     16101     16093     16096     16099     16102
     16094     16093     16096     16097     16094     16093     16096     16098
     16094     16093     16096     16099     16095     16093     16096     16097
     16095     16093     16096     16098     16095     16093     16096     16099
     16096     16099     16102     16103     16096     16099     16102     16104
     16096     16099     16102     16105     16097     16096     16099     16100
     16097     16096     16099     16101     16097     16096     16099     16102
     16098     16096     16099     16100     16098     16096     16099     16101
     16098     16096     16099     16102     16099     16102     16105     16106
     16099     16102     16105     16107     16099     16102     16105     16108
     16100     16099     16102     16103     16100     16099     16102     16104
     16100     16099     16102     16105     16101     16099     16102     16103
     16101     16099     16102     16104     16101     16099     16102     16105
     16102     16105     16108     16109     16102     16105     16108     16110
     16102     16105     16108     16111     16103     16102     16105     16106
     16103     16102     16105     16107     16103     16102     16105     16108
     16104     16102     16105     16106     16104     16102     16105     16107
     16104     16102     16105     16108     16105     16108     16111     16112
     16105     16108     16111     16113     16105     16108     16111     16114
     16106     16105     16108     16109     16106     16105     16108     16110
     16106     16105     16108     16111     16107     16105     16108     16109
     16107     16105     16108     16110     16107     16105     16108     16111
     16108     16111     16114     16115     16108     16111     16114     16116
     16108     16111     16114     16117     16109     16108     16111     16112
     16109     16108     16111     16113     16109     16108     16111     16114
     16110     16108     16111     16112     16110     16108     16111     16113
     16110     16108     16111     16114     16112     16111     16114     16115
     16112     16111     16114     16116     16112     16111     16114     16117
     16113     16111     16114     16115     16113     16111     16114     16116
     16113     16111     16114     16117     16118     16122     16125     16126
     16118     16122     16125     16127     16118     16122     16125     16132
     16119     16118     16122     16123     16119     16118     16122     16124
     16119     16118     16122     16125     16120     16118     16122     16123
     16120     16118     16122     16124     16120     16118     16122     16125
     16121     16118     16122     16123     16121     16118     16122     16124
     16121     16118     16122     16125     16122     16125     16132     16128
     16123     16122     16125     16126     16123     16122     16125     16127
     16123     16122     16125     16132     16124     16122     16125     16126
     16124     16122     16125     16127     16124     16122     16125     16132
     16125     16132     16128     16129     16125     16132     16128     16130
     16125     16132     16128     16131     16126     16125     16132     16128
     16127     16125     16132     16128     16128     16131     16133     16134
     16128     16131     16133     16135     16128     16131     16133     16136
     16129     16128     16131     16133     16130     16128     16131     16133
     16131     16133     16136     16137     16131     16133     16136     16138
     16131     16133     16136     16144     16132     16128     16131     16133
     16133     16136     16138     16139     16133     16136     16144     16145
     16133     16136     16144     16146     16133     16136     16144     16147
     16134     16133     16136     16137     16134     16133     16136     16138
     16134     16133     16136     16144     16135     16133     16136     16137
     16135     16133     16136     16138     16135     16133     16136     16144
     16136     16138     16139     16140     16136     16138     16139     16141
     16136     16144     16147     16148     16137     16136     16138     16139
     16137     16136     16144     16145     16137     16136     16144     16146
     16137     16136     16144     16147     16138     16136     16144     16145
     16138     16136     16144     16146     16138     16136     16144     16147
     16138     16139     16141     16142     16138     16139     16141     16143
     16138     16139     16141     16153     16139     16138     16136     16144
     16139     16141     16153     16154     16139     16141     16153     16155
     16139     16141     16153     16156     16140     16139     16141     16142
     16140     16139     16141     16143     16140     16139     16141     16153
     16141     16153     16156     16157     16141     16153     16156     16158
     16141     16153     16156     16159     16142     16141     16153     16154
     16142     16141     16153     16155     16142     16141     16153     16156
     16143     16141     16153     16154     16143     16141     16153     16155
     16143     16141     16153     16156     16144     16147     16148     16149
     16144     16147     16148     16150     16145     16144     16147     16148
     16146     16144     16147     16148     16147     16148     16150     16151
     16147     16148     16150     16152     16147     16148     16150     16197
     16148     16150     16197     16198     16148     16150     16197     16199
     16148     16150     16197     16200     16149     16148     16150     16151
     16149     16148     16150     16152     16149     16148     16150     16197
     16150     16197     16200     16201     16150     16197     16200     16202
     16150     16197     16200     16203     16151     16150     16197     16198
     16151     16150     16197     16199     16151     16150     16197     16200
     16152     16150     16197     16198     16152     16150     16197     16199
     16152     16150     16197     16200     16153     16156     16159     16160
     16153     16156     16159     16161     16153     16156     16159     16162
     16154     16153     16156     16157     16154     16153     16156     16158
     16154     16153     16156     16159     16155     16153     16156     16157
     16155     16153     16156     16158     16155     16153     16156     16159
     16156     16159     16162     16163     16156     16159     16162     16164
     16156     16159     16162     16165     16157     16156     16159     16160
     16157     16156     16159     16161     16157     16156     16159     16162
     16158     16156     16159     16160     16158     16156     16159     16161
     16158     16156     16159     16162     16159     16162     16165     16166
     16159     16162     16165     16167     16159     16162     16165     16168
     16160     16159     16162     16163     16160     16159     16162     16164
     16160     16159     16162     16165     16161     16159     16162     16163
     16161     16159     16162     16164     16161     16159     16162     16165
     16162     16165     16168     16169     16162     16165     16168     16170
     16162     16165     16168     16171     16163     16162     16165     16166
     16163     16162     16165     16167     16163     16162     16165     16168
     16164     16162     16165     16166     16164     16162     16165     16167
     16164     16162     16165     16168     16165     16168     16171     16172
     16165     16168     16171     16173     16165     16168     16171     16176
     16166     16165     16168     16169     16166     16165     16168     16170
     16166     16165     16168     16171     16167     16165     16168     16169
     16167     16165     16168     16170     16167     16165     16168     16171
     16168     16171     16173     16174     16168     16171     16173     16175
     16168     16171     16173     16176     16168     16171     16176     16173
     16168     16171     16176     16177     16168     16171     16176     16178
     16169     16168     16171     16172     16169     16168     16171     16173
     16169     16168     16171     16176     16170     16168     16171     16172
     16170     16168     16171     16173     16170     16168     16171     16176
     16171     16173     16176     16177     16171     16173     16176     16178
     16171     16176     16173     16174     16171     16176     16173     16175
     16171     16176     16178     16179     16171     16176     16178     16180
     16171     16176     16178     16181     16172     16171     16173     16174
     16172     16171     16173     16175     16172     16171     16173     16176
     16172     16171     16176     16173     16172     16171     16176     16177
     16172     16171     16176     16178     16173     16171     16176     16177
     16173     16171     16176     16178     16173     16176     16178     16179
     16173     16176     16178     16180     16173     16176     16178     16181
     16174     16173     16171     16176     16174     16173     16176     16177
     16174     16173     16176     16178     16175     16173     16171     16176
     16175     16173     16176     16177     16175     16173     16176     16178
     16176     16178     16181     16182     16176     16178     16181     16183
     16176     16178     16181     16184     16177     16176     16178     16179
     16177     16176     16178     16180     16177     16176     16178     16181
     16178     16181     16184     16185     16178     16181     16184     16186
     16178     16181     16184     16187     16179     16178     16181     16182
     16179     16178     16181     16183     16179     16178     16181     16184
     16180     16178     16181     16182     16180     16178     16181     16183
     16180     16178     16181     16184     16181     16184     16187     16188
     16181     16184     16187     16189     16181     16184     16187     16190
     16182     16181     16184     16185     16182     16181     16184     16186
     16182     16181     16184     16187     16183     16181     16184     16185
     16183     16181     16184     16186     16183     16181     16184     16187
     16184     16187     16190     16191     16184     16187     16190     16192
     16184     16187     16190     16193     16185     16184     16187     16188
     16185     16184     16187     16189     16185     16184     16187     16190
     16186     16184     16187     16188     16186     16184     16187     16189
     16186     16184     16187     16190     16187     16190     16193     16194
     16187     16190     16193     16195     16187     16190     16193     16196
     16188     16187     16190     16191     16188     16187     16190     16192
     16188     16187     16190     16193     16189     16187     16190     16191
     16189     16187     16190     16192     16189     16187     16190     16193
     16191     16190     16193     16194     16191     16190     16193     16195
     16191     16190     16193     16196     16192     16190     16193     16194
     16192     16190     16193     16195     16192     16190     16193     16196
     16197     16200     16203     16204     16197     16200     16203     16205
     16197     16200     16203     16206     16198     16197     16200     16201
     16198     16197     16200     16202     16198     16197     16200     16203
     16199     16197     16200     16201     16199     16197     16200     16202
     16199     16197     16200     16203     16200     16203     16206     16207
     16200     16203     16206     16208     16200     16203     16206     16209
     16201     16200     16203     16204     16201     16200     16203     16205
     16201     16200     16203     16206     16202     16200     16203     16204
     16202     16200     16203     16205     16202     16200     16203     16206
     16203     16206     16209     16210     16203     16206     16209     16211
     16203     16206     16209     16212     16204     16203     16206     16207
     16204     16203     16206     16208     16204     16203     16206     16209
     16205     16203     16206     16207     16205     16203     16206     16208
     16205     16203     16206     16209     16206     16209     16212     16213
     16206     16209     16212     16214     16206     16209     16212     16215
     16207     16206     16209     16210     16207     16206     16209     16211
     16207     16206     16209     16212     16208     16206     16209     16210
     16208     16206     16209     16211     16208     16206     16209     16212
     16209     16212     16215     16216     16209     16212     16215     16217
     16209     16212     16215     16218     16210     16209     16212     16213
     16210     16209     16212     16214     16210     16209     16212     16215
     16211     16209     16212     16213     16211     16209     16212     16214
     16211     16209     16212     16215     16212     16215     16218     16219
     16212     16215     16218     16220     16212     16215     16218     16221
     16213     16212     16215     16216     16213     16212     16215     16217
     16213     16212     16215     16218     16214     16212     16215     16216
     16214     16212     16215     16217     16214     16212     16215     16218
     16215     16218     16221     16222     16215     16218     16221     16223
     16215     16218     16221     16224     16216     16215     16218     16219
     16216     16215     16218     16220     16216     16215     16218     16221
     16217     16215     16218     16219     16217     16215     16218     16220
     16217     16215     16218     16221     16218     16221     16224     16225
     16218     16221     16224     16226     16218     16221     16224     16227
     16219     16218     16221     16222     16219     16218     16221     16223
     16219     16218     16221     16224     16220     16218     16221     16222
     16220     16218     16221     16223     16220     16218     16221     16224
     16221     16224     16227     16228     16221     16224     16227     16229
     16221     16224     16227     16230     16222     16221     16224     16225
     16222     16221     16224     16226     16222     16221     16224     16227
     16223     16221     16224     16225     16223     16221     16224     16226
     16223     16221     16224     16227     16224     16227     16230     16231
     16224     16227     16230     16232     16224     16227     16230     16233
     16225     16224     16227     16228     16225     16224     16227     16229
     16225     16224     16227     16230     16226     16224     16227     16228
     16226     16224     16227     16229     16226     16224     16227     16230
     16227     16230     16233     16234     16227     16230     16233     16235
     16227     16230     16233     16236     16228     16227     16230     16231
     16228     16227     16230     16232     16228     16227     16230     16233
     16229     16227     16230     16231     16229     16227     16230     16232
     16229     16227     16230     16233     16230     16233     16236     16237
     16230     16233     16236     16238     16230     16233     16236     16239
     16231     16230     16233     16234     16231     16230     16233     16235
     16231     16230     16233     16236     16232     16230     16233     16234
     16232     16230     16233     16235     16232     16230     16233     16236
     16234     16233     16236     16237     16234     16233     16236     16238
     16234     16233     16236     16239     16235     16233     16236     16237
     16235     16233     16236     16238     16235     16233     16236     16239
     16240     16244     16247     16248     16240     16244     16247     16249
     16240     16244     16247     16254     16241     16240     16244     16245
     16241     16240     16244     16246     16241     16240     16244     16247
     16242     16240     16244     16245     16242     16240     16244     16246
     16242     16240     16244     16247     16243     16240     16244     16245
     16243     16240     16244     16246     16243     16240     16244     16247
     16244     16247     16254     16250     16245     16244     16247     16248
     16245     16244     16247     16249     16245     16244     16247     16254
     16246     16244     16247     16248     16246     16244     16247     16249
     16246     16244     16247     16254     16247     16254     16250     16251
     16247     16254     16250     16252     16247     16254     16250     16253
     16248     16247     16254     16250     16249     16247     16254     16250
     16250     16253     16255     16256     16250     16253     16255     16257
     16250     16253     16255     16258     16251     16250     16253     16255
     16252     16250     16253     16255     16253     16255     16258     16259
     16253     16255     16258     16260     16253     16255     16258     16266
     16254     16250     16253     16255     16255     16258     16260     16261
     16255     16258     16266     16267     16255     16258     16266     16268
     16255     16258     16266     16269     16256     16255     16258     16259
     16256     16255     16258     16260     16256     16255     16258     16266
     16257     16255     16258     16259     16257     16255     16258     16260
     16257     16255     16258     16266     16258     16260     16261     16262
     16258     16260     16261     16263     16258     16266     16269     16270
     16259     16258     16260     16261     16259     16258     16266     16267
     16259     16258     16266     16268     16259     16258     16266     16269
     16260     16258     16266     16267     16260     16258     16266     16268
     16260     16258     16266     16269     16260     16261     16263     16264
     16260     16261     16263     16265     16260     16261     16263     16275
     16261     16260     16258     16266     16261     16263     16275     16276
     16261     16263     16275     16277     16261     16263     16275     16278
     16262     16261     16263     16264     16262     16261     16263     16265
     16262     16261     16263     16275     16263     16275     16278     16279
     16263     16275     16278     16280     16263     16275     16278     16281
     16264     16263     16275     16276     16264     16263     16275     16277
     16264     16263     16275     16278     16265     16263     16275     16276
     16265     16263     16275     16277     16265     16263     16275     16278
     16266     16269     16270     16271     16266     16269     16270     16272
     16267     16266     16269     16270     16268     16266     16269     16270
     16269     16270     16272     16273     16269     16270     16272     16274
     16269     16270     16272     16319     16270     16272     16319     16320
     16270     16272     16319     16321     16270     16272     16319     16322
     16271     16270     16272     16273     16271     16270     16272     16274
     16271     16270     16272     16319     16272     16319     16322     16323
     16272     16319     16322     16324     16272     16319     16322     16325
     16273     16272     16319     16320     16273     16272     16319     16321
     16273     16272     16319     16322     16274     16272     16319     16320
     16274     16272     16319     16321     16274     16272     16319     16322
     16275     16278     16281     16282     16275     16278     16281     16283
     16275     16278     16281     16284     16276     16275     16278     16279
     16276     16275     16278     16280     16276     16275     16278     16281
     16277     16275     16278     16279     16277     16275     16278     16280
     16277     16275     16278     16281     16278     16281     16284     16285
     16278     16281     16284     16286     16278     16281     16284     16287
     16279     16278     16281     16282     16279     16278     16281     16283
     16279     16278     16281     16284     16280     16278     16281     16282
     16280     16278     16281     16283     16280     16278     16281     16284
     16281     16284     16287     16288     16281     16284     16287     16289
     16281     16284     16287     16290     16282     16281     16284     16285
     16282     16281     16284     16286     16282     16281     16284     16287
     16283     16281     16284     16285     16283     16281     16284     16286
     16283     16281     16284     16287     16284     16287     16290     16291
     16284     16287     16290     16292     16284     16287     16290     16293
     16285     16284     16287     16288     16285     16284     16287     16289
     16285     16284     16287     16290     16286     16284     16287     16288
     16286     16284     16287     16289     16286     16284     16287     16290
     16287     16290     16293     16294     16287     16290     16293     16295
     16287     16290     16293     16298     16288     16287     16290     16291
     16288     16287     16290     16292     16288     16287     16290     16293
     16289     16287     16290     16291     16289     16287     16290     16292
     16289     16287     16290     16293     16290     16293     16295     16296
     16290     16293     16295     16297     16290     16293     16295     16298
     16290     16293     16298     16295     16290     16293     16298     16299
     16290     16293     16298     16300     16291     16290     16293     16294
     16291     16290     16293     16295     16291     16290     16293     16298
     16292     16290     16293     16294     16292     16290     16293     16295
     16292     16290     16293     16298     16293     16295     16298     16299
     16293     16295     16298     16300     16293     16298     16295     16296
     16293     16298     16295     16297     16293     16298     16300     16301
     16293     16298     16300     16302     16293     16298     16300     16303
     16294     16293     16295     16296     16294     16293     16295     16297
     16294     16293     16295     16298     16294     16293     16298     16295
     16294     16293     16298     16299     16294     16293     16298     16300
     16295     16293     16298     16299     16295     16293     16298     16300
     16295     16298     16300     16301     16295     16298     16300     16302
     16295     16298     16300     16303     16296     16295     16293     16298
     16296     16295     16298     16299     16296     16295     16298     16300
     16297     16295     16293     16298     16297     16295     16298     16299
     16297     16295     16298     16300     16298     16300     16303     16304
     16298     16300     16303     16305     16298     16300     16303     16306
     16299     16298     16300     16301     16299     16298     16300     16302
     16299     16298     16300     16303     16300     16303     16306     16307
     16300     16303     16306     16308     16300     16303     16306     16309
     16301     16300     16303     16304     16301     16300     16303     16305
     16301     16300     16303     16306     16302     16300     16303     16304
     16302     16300     16303     16305     16302     16300     16303     16306
     16303     16306     16309     16310     16303     16306     16309     16311
     16303     16306     16309     16312     16304     16303     16306     16307
     16304     16303     16306     16308     16304     16303     16306     16309
     16305     16303     16306     16307     16305     16303     16306     16308
     16305     16303     16306     16309     16306     16309     16312     16313
     16306     16309     16312     16314     16306     16309     16312     16315
     16307     16306     16309     16310     16307     16306     16309     16311
     16307     16306     16309     16312     16308     16306     16309     16310
     16308     16306     16309     16311     16308     16306     16309     16312
     16309     16312     16315     16316     16309     16312     16315     16317
     16309     16312     16315     16318     16310     16309     16312     16313
     16310     16309     16312     16314     16310     16309     16312     16315
     16311     16309     16312     16313     16311     16309     16312     16314
     16311     16309     16312     16315     16313     16312     16315     16316
     16313     16312     16315     16317     16313     16312     16315     16318
     16314     16312     16315     16316     16314     16312     16315     16317
     16314     16312     16315     16318     16319     16322     16325     16326
     16319     16322     16325     16327     16319     16322     16325     16328
     16320     16319     16322     16323     16320     16319     16322     16324
     16320     16319     16322     16325     16321     16319     16322     16323
     16321     16319     16322     16324     16321     16319     16322     16325
     16322     16325     16328     16329     16322     16325     16328     16330
     16322     16325     16328     16331     16323     16322     16325     16326
     16323     16322     16325     16327     16323     16322     16325     16328
     16324     16322     16325     16326     16324     16322     16325     16327
     16324     16322     16325     16328     16325     16328     16331     16332
     16325     16328     16331     16333     16325     16328     16331     16334
     16326     16325     16328     16329     16326     16325     16328     16330
     16326     16325     16328     16331     16327     16325     16328     16329
     16327     16325     16328     16330     16327     16325     16328     16331
     16328     16331     16334     16335     16328     16331     16334     16336
     16328     16331     16334     16337     16329     16328     16331     16332
     16329     16328     16331     16333     16329     16328     16331     16334
     16330     16328     16331     16332     16330     16328     16331     16333
     16330     16328     16331     16334     16331     16334     16337     16338
     16331     16334     16337     16339     16331     16334     16337     16340
     16332     16331     16334     16335     16332     16331     16334     16336
     16332     16331     16334     16337     16333     16331     16334     16335
     16333     16331     16334     16336     16333     16331     16334     16337
     16334     16337     16340     16341     16334     16337     16340     16342
     16334     16337     16340     16343     16335     16334     16337     16338
     16335     16334     16337     16339     16335     16334     16337     16340
     16336     16334     16337     16338     16336     16334     16337     16339
     16336     16334     16337     16340     16337     16340     16343     16344
     16337     16340     16343     16345     16337     16340     16343     16346
     16338     16337     16340     16341     16338     16337     16340     16342
     16338     16337     16340     16343     16339     16337     16340     16341
     16339     16337     16340     16342     16339     16337     16340     16343
     16340     16343     16346     16347     16340     16343     16346     16348
     16340     16343     16346     16349     16341     16340     16343     16344
     16341     16340     16343     16345     16341     16340     16343     16346
     16342     16340     16343     16344     16342     16340     16343     16345
     16342     16340     16343     16346     16343     16346     16349     16350
     16343     16346     16349     16351     16343     16346     16349     16352
     16344     16343     16346     16347     16344     16343     16346     16348
     16344     16343     16346     16349     16345     16343     16346     16347
     16345     16343     16346     16348     16345     16343     16346     16349
     16346     16349     16352     16353     16346     16349     16352     16354
     16346     16349     16352     16355     16347     16346     16349     16350
     16347     16346     16349     16351     16347     16346     16349     16352
     16348     16346     16349     16350     16348     16346     16349     16351
     16348     16346     16349     16352     16349     16352     16355     16356
     16349     16352     16355     16357     16349     16352     16355     16358
     16350     16349     16352     16353     16350     16349     16352     16354
     16350     16349     16352     16355     16351     16349     16352     16353
     16351     16349     16352     16354     16351     16349     16352     16355
     16353     16352     16355     16356     16353     16352     16355     16357
     16353     16352     16355     16358     16354     16352     16355     16356
     16354     16352     16355     16357     16354     16352     16355     16358
     16359     16363     16366     16367     16359     16363     16366     16368
     16359     16363     16366     16373     16360     16359     16363     16364
     16360     16359     16363     16365     16360     16359     16363     16366
     16361     16359     16363     16364     16361     16359     16363     16365
     16361     16359     16363     16366     16362     16359     16363     16364
     16362     16359     16363     16365     16362     16359     16363     16366
     16363     16366     16373     16369     16364     16363     16366     16367
     16364     16363     16366     16368     16364     16363     16366     16373
     16365     16363     16366     16367     16365     16363     16366     16368
     16365     16363     16366     16373     16366     16373     16369     16370
     16366     16373     16369     16371     16366     16373     16369     16372
     16367     16366     16373     16369     16368     16366     16373     16369
     16369     16372     16374     16375     16369     16372     16374     16376
     16369     16372     16374     16377     16370     16369     16372     16374
     16371     16369     16372     16374     16372     16374     16377     16378
     16372     16374     16377     16379     16372     16374     16377     16385
     16373     16369     16372     16374     16374     16377     16379     16380
     16374     16377     16385     16386     16374     16377     16385     16387
     16374     16377     16385     16388     16375     16374     16377     16378
     16375     16374     16377     16379     16375     16374     16377     16385
     16376     16374     16377     16378     16376     16374     16377     16379
     16376     16374     16377     16385     16377     16379     16380     16381
     16377     16379     16380     16382     16377     16385     16388     16389
     16378     16377     16379     16380     16378     16377     16385     16386
     16378     16377     16385     16387     16378     16377     16385     16388
     16379     16377     16385     16386     16379     16377     16385     16387
     16379     16377     16385     16388     16379     16380     16382     16383
     16379     16380     16382     16384     16379     16380     16382     16394
     16380     16379     16377     16385     16380     16382     16394     16395
     16380     16382     16394     16396     16380     16382     16394     16397
     16381     16380     16382     16383     16381     16380     16382     16384
     16381     16380     16382     16394     16382     16394     16397     16398
     16382     16394     16397     16399     16382     16394     16397     16400
     16383     16382     16394     16395     16383     16382     16394     16396
     16383     16382     16394     16397     16384     16382     16394     16395
     16384     16382     16394     16396     16384     16382     16394     16397
     16385     16388     16389     16390     16385     16388     16389     16391
     16386     16385     16388     16389     16387     16385     16388     16389
     16388     16389     16391     16392     16388     16389     16391     16393
     16388     16389     16391     16438     16389     16391     16438     16439
     16389     16391     16438     16440     16389     16391     16438     16441
     16390     16389     16391     16392     16390     16389     16391     16393
     16390     16389     16391     16438     16391     16438     16441     16442
     16391     16438     16441     16443     16391     16438     16441     16444
     16392     16391     16438     16439     16392     16391     16438     16440
     16392     16391     16438     16441     16393     16391     16438     16439
     16393     16391     16438     16440     16393     16391     16438     16441
     16394     16397     16400     16401     16394     16397     16400     16402
     16394     16397     16400     16403     16395     16394     16397     16398
     16395     16394     16397     16399     16395     16394     16397     16400
     16396     16394     16397     16398     16396     16394     16397     16399
     16396     16394     16397     16400     16397     16400     16403     16404
     16397     16400     16403     16405     16397     16400     16403     16406
     16398     16397     16400     16401     16398     16397     16400     16402
     16398     16397     16400     16403     16399     16397     16400     16401
     16399     16397     16400     16402     16399     16397     16400     16403
     16400     16403     16406     16407     16400     16403     16406     16408
     16400     16403     16406     16409     16401     16400     16403     16404
     16401     16400     16403     16405     16401     16400     16403     16406
     16402     16400     16403     16404     16402     16400     16403     16405
     16402     16400     16403     16406     16403     16406     16409     16410
     16403     16406     16409     16411     16403     16406     16409     16412
     16404     16403     16406     16407     16404     16403     16406     16408
     16404     16403     16406     16409     16405     16403     16406     16407
     16405     16403     16406     16408     16405     16403     16406     16409
     16406     16409     16412     16413     16406     16409     16412     16414
     16406     16409     16412     16417     16407     16406     16409     16410
     16407     16406     16409     16411     16407     16406     16409     16412
     16408     16406     16409     16410     16408     16406     16409     16411
     16408     16406     16409     16412     16409     16412     16414     16415
     16409     16412     16414     16416     16409     16412     16414     16417
     16409     16412     16417     16414     16409     16412     16417     16418
     16409     16412     16417     16419     16410     16409     16412     16413
     16410     16409     16412     16414     16410     16409     16412     16417
     16411     16409     16412     16413     16411     16409     16412     16414
     16411     16409     16412     16417     16412     16414     16417     16418
     16412     16414     16417     16419     16412     16417     16414     16415
     16412     16417     16414     16416     16412     16417     16419     16420
     16412     16417     16419     16421     16412     16417     16419     16422
     16413     16412     16414     16415     16413     16412     16414     16416
     16413     16412     16414     16417     16413     16412     16417     16414
     16413     16412     16417     16418     16413     16412     16417     16419
     16414     16412     16417     16418     16414     16412     16417     16419
     16414     16417     16419     16420     16414     16417     16419     16421
     16414     16417     16419     16422     16415     16414     16412     16417
     16415     16414     16417     16418     16415     16414     16417     16419
     16416     16414     16412     16417     16416     16414     16417     16418
     16416     16414     16417     16419     16417     16419     16422     16423
     16417     16419     16422     16424     16417     16419     16422     16425
     16418     16417     16419     16420     16418     16417     16419     16421
     16418     16417     16419     16422     16419     16422     16425     16426
     16419     16422     16425     16427     16419     16422     16425     16428
     16420     16419     16422     16423     16420     16419     16422     16424
     16420     16419     16422     16425     16421     16419     16422     16423
     16421     16419     16422     16424     16421     16419     16422     16425
     16422     16425     16428     16429     16422     16425     16428     16430
     16422     16425     16428     16431     16423     16422     16425     16426
     16423     16422     16425     16427     16423     16422     16425     16428
     16424     16422     16425     16426     16424     16422     16425     16427
     16424     16422     16425     16428     16425     16428     16431     16432
     16425     16428     16431     16433     16425     16428     16431     16434
     16426     16425     16428     16429     16426     16425     16428     16430
     16426     16425     16428     16431     16427     16425     16428     16429
     16427     16425     16428     16430     16427     16425     16428     16431
     16428     16431     16434     16435     16428     16431     16434     16436
     16428     16431     16434     16437     16429     16428     16431     16432
     16429     16428     16431     16433     16429     16428     16431     16434
     16430     16428     16431     16432     16430     16428     16431     16433
     16430     16428     16431     16434     16432     16431     16434     16435
     16432     16431     16434     16436     16432     16431     16434     16437
     16433     16431     16434     16435     16433     16431     16434     16436
     16433     16431     16434     16437     16438     16441     16444     16445
     16438     16441     16444     16446     16438     16441     16444     16447
     16439     16438     16441     16442     16439     16438     16441     16443
     16439     16438     16441     16444     16440     16438     16441     16442
     16440     16438     16441     16443     16440     16438     16441     16444
     16441     16444     16447     16448     16441     16444     16447     16449
     16441     16444     16447     16450     16442     16441     16444     16445
     16442     16441     16444     16446     16442     16441     16444     16447
     16443     16441     16444     16445     16443     16441     16444     16446
     16443     16441     16444     16447     16444     16447     16450     16451
     16444     16447     16450     16452     16444     16447     16450     16453
     16445     16444     16447     16448     16445     16444     16447     16449
     16445     16444     16447     16450     16446     16444     16447     16448
     16446     16444     16447     16449     16446     16444     16447     16450
     16447     16450     16453     16454     16447     16450     16453     16455
     16447     16450     16453     16456     16448     16447     16450     16451
     16448     16447     16450     16452     16448     16447     16450     16453
     16449     16447     16450     16451     16449     16447     16450     16452
     16449     16447     16450     16453     16450     16453     16456     16457
     16450     16453     16456     16458     16450     16453     16456     16459
     16451     16450     16453     16454     16451     16450     16453     16455
     16451     16450     16453     16456     16452     16450     16453     16454
     16452     16450     16453     16455     16452     16450     16453     16456
     16453     16456     16459     16460     16453     16456     16459     16461
     16453     16456     16459     16462     16454     16453     16456     16457
     16454     16453     16456     16458     16454     16453     16456     16459
     16455     16453     16456     16457     16455     16453     16456     16458
     16455     16453     16456     16459     16456     16459     16462     16463
     16456     16459     16462     16464     16456     16459     16462     16465
     16457     16456     16459     16460     16457     16456     16459     16461
     16457     16456     16459     16462     16458     16456     16459     16460
     16458     16456     16459     16461     16458     16456     16459     16462
     16459     16462     16465     16466     16459     16462     16465     16467
     16459     16462     16465     16468     16460     16459     16462     16463
     16460     16459     16462     16464     16460     16459     16462     16465
     16461     16459     16462     16463     16461     16459     16462     16464
     16461     16459     16462     16465     16462     16465     16468     16469
     16462     16465     16468     16470     16462     16465     16468     16471
     16463     16462     16465     16466     16463     16462     16465     16467
     16463     16462     16465     16468     16464     16462     16465     16466
     16464     16462     16465     16467     16464     16462     16465     16468
     16465     16468     16471     16472     16465     16468     16471     16473
     16465     16468     16471     16474     16466     16465     16468     16469
     16466     16465     16468     16470     16466     16465     16468     16471
     16467     16465     16468     16469     16467     16465     16468     16470
     16467     16465     16468     16471     16468     16471     16474     16475
     16468     16471     16474     16476     16468     16471     16474     16477
     16469     16468     16471     16472     16469     16468     16471     16473
     16469     16468     16471     16474     16470     16468     16471     16472
     16470     16468     16471     16473     16470     16468     16471     16474
     16471     16474     16477     16478     16471     16474     16477     16479
     16471     16474     16477     16480     16472     16471     16474     16475
     16472     16471     16474     16476     16472     16471     16474     16477
     16473     16471     16474     16475     16473     16471     16474     16476
     16473     16471     16474     16477     16475     16474     16477     16478
     16475     16474     16477     16479     16475     16474     16477     16480
     16476     16474     16477     16478     16476     16474     16477     16479
     16476     16474     16477     16480     16481     16485     16488     16489
     16481     16485     16488     16490     16481     16485     16488     16495
     16482     16481     16485     16486     16482     16481     16485     16487
     16482     16481     16485     16488     16483     16481     16485     16486
     16483     16481     16485     16487     16483     16481     16485     16488
     16484     16481     16485     16486     16484     16481     16485     16487
     16484     16481     16485     16488     16485     16488     16495     16491
     16486     16485     16488     16489     16486     16485     16488     16490
     16486     16485     16488     16495     16487     16485     16488     16489
     16487     16485     16488     16490     16487     16485     16488     16495
     16488     16495     16491     16492     16488     16495     16491     16493
     16488     16495     16491     16494     16489     16488     16495     16491
     16490     16488     16495     16491     16491     16494     16496     16497
     16491     16494     16496     16498     16491     16494     16496     16499
     16492     16491     16494     16496     16493     16491     16494     16496
     16494     16496     16499     16500     16494     16496     16499     16501
     16494     16496     16499     16507     16495     16491     16494     16496
     16496     16499     16501     16502     16496     16499     16507     16508
     16496     16499     16507     16509     16496     16499     16507     16510
     16497     16496     16499     16500     16497     16496     16499     16501
     16497     16496     16499     16507     16498     16496     16499     16500
     16498     16496     16499     16501     16498     16496     16499     16507
     16499     16501     16502     16503     16499     16501     16502     16504
     16499     16507     16510     16511     16500     16499     16501     16502
     16500     16499     16507     16508     16500     16499     16507     16509
     16500     16499     16507     16510     16501     16499     16507     16508
     16501     16499     16507     16509     16501     16499     16507     16510
     16501     16502     16504     16505     16501     16502     16504     16506
     16501     16502     16504     16516     16502     16501     16499     16507
     16502     16504     16516     16517     16502     16504     16516     16518
     16502     16504     16516     16519     16503     16502     16504     16505
     16503     16502     16504     16506     16503     16502     16504     16516
     16504     16516     16519     16520     16504     16516     16519     16521
     16504     16516     16519     16522     16505     16504     16516     16517
     16505     16504     16516     16518     16505     16504     16516     16519
     16506     16504     16516     16517     16506     16504     16516     16518
     16506     16504     16516     16519     16507     16510     16511     16512
     16507     16510     16511     16513     16508     16507     16510     16511
     16509     16507     16510     16511     16510     16511     16513     16514
     16510     16511     16513     16515     16510     16511     16513     16560
     16511     16513     16560     16561     16511     16513     16560     16562
     16511     16513     16560     16563     16512     16511     16513     16514
     16512     16511     16513     16515     16512     16511     16513     16560
     16513     16560     16563     16564     16513     16560     16563     16565
     16513     16560     16563     16566     16514     16513     16560     16561
     16514     16513     16560     16562     16514     16513     16560     16563
     16515     16513     16560     16561     16515     16513     16560     16562
     16515     16513     16560     16563     16516     16519     16522     16523
     16516     16519     16522     16524     16516     16519     16522     16525
     16517     16516     16519     16520     16517     16516     16519     16521
     16517     16516     16519     16522     16518     16516     16519     16520
     16518     16516     16519     16521     16518     16516     16519     16522
     16519     16522     16525     16526     16519     16522     16525     16527
     16519     16522     16525     16528     16520     16519     16522     16523
     16520     16519     16522     16524     16520     16519     16522     16525
     16521     16519     16522     16523     16521     16519     16522     16524
     16521     16519     16522     16525     16522     16525     16528     16529
     16522     16525     16528     16530     16522     16525     16528     16531
     16523     16522     16525     16526     16523     16522     16525     16527
     16523     16522     16525     16528     16524     16522     16525     16526
     16524     16522     16525     16527     16524     16522     16525     16528
     16525     16528     16531     16532     16525     16528     16531     16533
     16525     16528     16531     16534     16526     16525     16528     16529
     16526     16525     16528     16530     16526     16525     16528     16531
     16527     16525     16528     16529     16527     16525     16528     16530
     16527     16525     16528     16531     16528     16531     16534     16535
     16528     16531     16534     16536     16528     16531     16534     16539
     16529     16528     16531     16532     16529     16528     16531     16533
     16529     16528     16531     16534     16530     16528     16531     16532
     16530     16528     16531     16533     16530     16528     16531     16534
     16531     16534     16536     16537     16531     16534     16536     16538
     16531     16534     16536     16539     16531     16534     16539     16536
     16531     16534     16539     16540     16531     16534     16539     16541
     16532     16531     16534     16535     16532     16531     16534     16536
     16532     16531     16534     16539     16533     16531     16534     16535
     16533     16531     16534     16536     16533     16531     16534     16539
     16534     16536     16539     16540     16534     16536     16539     16541
     16534     16539     16536     16537     16534     16539     16536     16538
     16534     16539     16541     16542     16534     16539     16541     16543
     16534     16539     16541     16544     16535     16534     16536     16537
     16535     16534     16536     16538     16535     16534     16536     16539
     16535     16534     16539     16536     16535     16534     16539     16540
     16535     16534     16539     16541     16536     16534     16539     16540
     16536     16534     16539     16541     16536     16539     16541     16542
     16536     16539     16541     16543     16536     16539     16541     16544
     16537     16536     16534     16539     16537     16536     16539     16540
     16537     16536     16539     16541     16538     16536     16534     16539
     16538     16536     16539     16540     16538     16536     16539     16541
     16539     16541     16544     16545     16539     16541     16544     16546
     16539     16541     16544     16547     16540     16539     16541     16542
     16540     16539     16541     16543     16540     16539     16541     16544
     16541     16544     16547     16548     16541     16544     16547     16549
     16541     16544     16547     16550     16542     16541     16544     16545
     16542     16541     16544     16546     16542     16541     16544     16547
     16543     16541     16544     16545     16543     16541     16544     16546
     16543     16541     16544     16547     16544     16547     16550     16551
     16544     16547     16550     16552     16544     16547     16550     16553
     16545     16544     16547     16548     16545     16544     16547     16549
     16545     16544     16547     16550     16546     16544     16547     16548
     16546     16544     16547     16549     16546     16544     16547     16550
     16547     16550     16553     16554     16547     16550     16553     16555
     16547     16550     16553     16556     16548     16547     16550     16551
     16548     16547     16550     16552     16548     16547     16550     16553
     16549     16547     16550     16551     16549     16547     16550     16552
     16549     16547     16550     16553     16550     16553     16556     16557
     16550     16553     16556     16558     16550     16553     16556     16559
     16551     16550     16553     16554     16551     16550     16553     16555
     16551     16550     16553     16556     16552     16550     16553     16554
     16552     16550     16553     16555     16552     16550     16553     16556
     16554     16553     16556     16557     16554     16553     16556     16558
     16554     16553     16556     16559     16555     16553     16556     16557
     16555     16553     16556     16558     16555     16553     16556     16559
     16560     16563     16566     16567     16560     16563     16566     16568
     16560     16563     16566     16569     16561     16560     16563     16564
     16561     16560     16563     16565     16561     16560     16563     16566
     16562     16560     16563     16564     16562     16560     16563     16565
     16562     16560     16563     16566     16563     16566     16569     16570
     16563     16566     16569     16571     16563     16566     16569     16572
     16564     16563     16566     16567     16564     16563     16566     16568
     16564     16563     16566     16569     16565     16563     16566     16567
     16565     16563     16566     16568     16565     16563     16566     16569
     16566     16569     16572     16573     16566     16569     16572     16574
     16566     16569     16572     16575     16567     16566     16569     16570
     16567     16566     16569     16571     16567     16566     16569     16572
     16568     16566     16569     16570     16568     16566     16569     16571
     16568     16566     16569     16572     16569     16572     16575     16576
     16569     16572     16575     16577     16569     16572     16575     16578
     16570     16569     16572     16573     16570     16569     16572     16574
     16570     16569     16572     16575     16571     16569     16572     16573
     16571     16569     16572     16574     16571     16569     16572     16575
     16572     16575     16578     16579     16572     16575     16578     16580
     16572     16575     16578     16581     16573     16572     16575     16576
     16573     16572     16575     16577     16573     16572     16575     16578
     16574     16572     16575     16576     16574     16572     16575     16577
     16574     16572     16575     16578     16575     16578     16581     16582
     16575     16578     16581     16583     16575     16578     16581     16584
     16576     16575     16578     16579     16576     16575     16578     16580
     16576     16575     16578     16581     16577     16575     16578     16579
     16577     16575     16578     16580     16577     16575     16578     16581
     16578     16581     16584     16585     16578     16581     16584     16586
     16578     16581     16584     16587     16579     16578     16581     16582
     16579     16578     16581     16583     16579     16578     16581     16584
     16580     16578     16581     16582     16580     16578     16581     16583
     16580     16578     16581     16584     16581     16584     16587     16588
     16581     16584     16587     16589     16581     16584     16587     16590
     16582     16581     16584     16585     16582     16581     16584     16586
     16582     16581     16584     16587     16583     16581     16584     16585
     16583     16581     16584     16586     16583     16581     16584     16587
     16584     16587     16590     16591     16584     16587     16590     16592
     16584     16587     16590     16593     16585     16584     16587     16588
     16585     16584     16587     16589     16585     16584     16587     16590
     16586     16584     16587     16588     16586     16584     16587     16589
     16586     16584     16587     16590     16587     16590     16593     16594
     16587     16590     16593     16595     16587     16590     16593     16596
     16588     16587     16590     16591     16588     16587     16590     16592
     16588     16587     16590     16593     16589     16587     16590     16591
     16589     16587     16590     16592     16589     16587     16590     16593
     16590     16593     16596     16597     16590     16593     16596     16598
     16590     16593     16596     16599     16591     16590     16593     16594
     16591     16590     16593     16595     16591     16590     16593     16596
     16592     16590     16593     16594     16592     16590     16593     16595
     16592     16590     16593     16596     16594     16593     16596     16597
     16594     16593     16596     16598     16594     16593     16596     16599
     16595     16593     16596     16597     16595     16593     16596     16598
     16595     16593     16596     16599     16600     16604     16607     16608
     16600     16604     16607     16609     16600     16604     16607     16614
     16601     16600     16604     16605     16601     16600     16604     16606
     16601     16600     16604     16607     16602     16600     16604     16605
     16602     16600     16604     16606     16602     16600     16604     16607
     16603     16600     16604     16605     16603     16600     16604     16606
     16603     16600     16604     16607     16604     16607     16614     16610
     16605     16604     16607     16608     16605     16604     16607     16609
     16605     16604     16607     16614     16606     16604     16607     16608
     16606     16604     16607     16609     16606     16604     16607     16614
     16607     16614     16610     16611     16607     16614     16610     16612
     16607     16614     16610     16613     16608     16607     16614     16610
     16609     16607     16614     16610     16610     16613     16615     16616
     16610     16613     16615     16617     16610     16613     16615     16618
     16611     16610     16613     16615     16612     16610     16613     16615
     16613     16615     16618     16619     16613     16615     16618     16620
     16613     16615     16618     16626     16614     16610     16613     16615
     16615     16618     16620     16621     16615     16618     16626     16627
     16615     16618     16626     16628     16615     16618     16626     16629
     16616     16615     16618     16619     16616     16615     16618     16620
     16616     16615     16618     16626     16617     16615     16618     16619
     16617     16615     16618     16620     16617     16615     16618     16626
     16618     16620     16621     16622     16618     16620     16621     16623
     16618     16626     16629     16630     16619     16618     16620     16621
     16619     16618     16626     16627     16619     16618     16626     16628
     16619     16618     16626     16629     16620     16618     16626     16627
     16620     16618     16626     16628     16620     16618     16626     16629
     16620     16621     16623     16624     16620     16621     16623     16625
     16620     16621     16623     16635     16621     16620     16618     16626
     16621     16623     16635     16636     16621     16623     16635     16637
     16621     16623     16635     16638     16622     16621     16623     16624
     16622     16621     16623     16625     16622     16621     16623     16635
     16623     16635     16638     16639     16623     16635     16638     16640
     16623     16635     16638     16641     16624     16623     16635     16636
     16624     16623     16635     16637     16624     16623     16635     16638
     16625     16623     16635     16636     16625     16623     16635     16637
     16625     16623     16635     16638     16626     16629     16630     16631
     16626     16629     16630     16632     16627     16626     16629     16630
     16628     16626     16629     16630     16629     16630     16632     16633
     16629     16630     16632     16634     16629     16630     16632     16676
     16630     16632     16676     16677     16630     16632     16676     16678
     16630     16632     16676     16679     16631     16630     16632     16633
     16631     16630     16632     16634     16631     16630     16632     16676
     16632     16676     16679     16680     16632     16676     16679     16681
     16632     16676     16679     16682     16633     16632     16676     16677
     16633     16632     16676     16678     16633     16632     16676     16679
     16634     16632     16676     16677     16634     16632     16676     16678
     16634     16632     16676     16679     16635     16638     16641     16642
     16635     16638     16641     16643     16635     16638     16641     16644
     16636     16635     16638     16639     16636     16635     16638     16640
     16636     16635     16638     16641     16637     16635     16638     16639
     16637     16635     16638     16640     16637     16635     16638     16641
     16638     16641     16644     16645     16638     16641     16644     16646
     16638     16641     16644     16647     16639     16638     16641     16642
     16639     16638     16641     16643     16639     16638     16641     16644
     16640     16638     16641     16642     16640     16638     16641     16643
     16640     16638     16641     16644     16641     16644     16647     16648
     16641     16644     16647     16649     16641     16644     16647     16650
     16642     16641     16644     16645     16642     16641     16644     16646
     16642     16641     16644     16647     16643     16641     16644     16645
     16643     16641     16644     16646     16643     16641     16644     16647
     16644     16647     16650     16651     16644     16647     16650     16652
     16644     16647     16650     16653     16645     16644     16647     16648
     16645     16644     16647     16649     16645     16644     16647     16650
     16646     16644     16647     16648     16646     16644     16647     16649
     16646     16644     16647     16650     16647     16650     16653     16654
     16647     16650     16653     16655     16648     16647     16650     16651
     16648     16647     16650     16652     16648     16647     16650     16653
     16649     16647     16650     16651     16649     16647     16650     16652
     16649     16647     16650     16653     16650     16653     16655     16656
     16650     16653     16655     16657     16651     16650     16653     16654
     16651     16650     16653     16655     16652     16650     16653     16654
     16652     16650     16653     16655     16653     16655     16657     16658
     16653     16655     16657     16659     16653     16655     16657     16660
     16654     16653     16655     16656     16654     16653     16655     16657
     16655     16657     16660     16661     16655     16657     16660     16662
     16655     16657     16660     16663     16656     16655     16657     16658
     16656     16655     16657     16659     16656     16655     16657     16660
     16657     16660     16663     16664     16657     16660     16663     16665
     16657     16660     16663     16666     16658     16657     16660     16661
     16658     16657     16660     16662     16658     16657     16660     16663
     16659     16657     16660     16661     16659     16657     16660     16662
     16659     16657     16660     16663     16660     16663     16666     16667
     16660     16663     16666     16668     16660     16663     16666     16669
     16661     16660     16663     16664     16661     16660     16663     16665
     16661     16660     16663     16666     16662     16660     16663     16664
     16662     16660     16663     16665     16662     16660     16663     16666
     16663     16666     16669     16670     16663     16666     16669     16671
     16663     16666     16669     16672     16664     16663     16666     16667
     16664     16663     16666     16668     16664     16663     16666     16669
     16665     16663     16666     16667     16665     16663     16666     16668
     16665     16663     16666     16669     16666     16669     16672     16673
     16666     16669     16672     16674     16666     16669     16672     16675
     16667     16666     16669     16670     16667     16666     16669     16671
     16667     16666     16669     16672     16668     16666     16669     16670
     16668     16666     16669     16671     16668     16666     16669     16672
     16670     16669     16672     16673     16670     16669     16672     16674
     16670     16669     16672     16675     16671     16669     16672     16673
     16671     16669     16672     16674     16671     16669     16672     16675
     16676     16679     16682     16683     16676     16679     16682     16684
     16676     16679     16682     16685     16677     16676     16679     16680
     16677     16676     16679     16681     16677     16676     16679     16682
     16678     16676     16679     16680     16678     16676     16679     16681
     16678     16676     16679     16682     16679     16682     16685     16686
     16679     16682     16685     16687     16679     16682     16685     16688
     16680     16679     16682     16683     16680     16679     16682     16684
     16680     16679     16682     16685     16681     16679     16682     16683
     16681     16679     16682     16684     16681     16679     16682     16685
     16682     16685     16688     16689     16682     16685     16688     16690
     16682     16685     16688     16691     16683     16682     16685     16686
     16683     16682     16685     16687     16683     16682     16685     16688
     16684     16682     16685     16686     16684     16682     16685     16687
     16684     16682     16685     16688     16685     16688     16691     16692
     16685     16688     16691     16693     16685     16688     16691     16694
     16686     16685     16688     16689     16686     16685     16688     16690
     16686     16685     16688     16691     16687     16685     16688     16689
     16687     16685     16688     16690     16687     16685     16688     16691
     16688     16691     16694     16695     16688     16691     16694     16696
     16689     16688     16691     16692     16689     16688     16691     16693
     16689     16688     16691     16694     16690     16688     16691     16692
     16690     16688     16691     16693     16690     16688     16691     16694
     16691     16694     16696     16697     16691     16694     16696     16698
     16692     16691     16694     16695     16692     16691     16694     16696
     16693     16691     16694     16695     16693     16691     16694     16696
     16694     16696     16698     16699     16694     16696     16698     16700
     16694     16696     16698     16701     16695     16694     16696     16697
     16695     16694     16696     16698     16696     16698     16701     16702
     16696     16698     16701     16703     16696     16698     16701     16704
     16697     16696     16698     16699     16697     16696     16698     16700
     16697     16696     16698     16701     16698     16701     16704     16705
     16698     16701     16704     16706     16698     16701     16704     16707
     16699     16698     16701     16702     16699     16698     16701     16703
     16699     16698     16701     16704     16700     16698     16701     16702
     16700     16698     16701     16703     16700     16698     16701     16704
     16701     16704     16707     16708     16701     16704     16707     16709
     16701     16704     16707     16710     16702     16701     16704     16705
     16702     16701     16704     16706     16702     16701     16704     16707
     16703     16701     16704     16705     16703     16701     16704     16706
     16703     16701     16704     16707     16704     16707     16710     16711
     16704     16707     16710     16712     16704     16707     16710     16713
     16705     16704     16707     16708     16705     16704     16707     16709
     16705     16704     16707     16710     16706     16704     16707     16708
     16706     16704     16707     16709     16706     16704     16707     16710
     16707     16710     16713     16714     16707     16710     16713     16715
     16707     16710     16713     16716     16708     16707     16710     16711
     16708     16707     16710     16712     16708     16707     16710     16713
     16709     16707     16710     16711     16709     16707     16710     16712
     16709     16707     16710     16713     16710     16713     16716     16717
     16710     16713     16716     16718     16710     16713     16716     16719
     16711     16710     16713     16714     16711     16710     16713     16715
     16711     16710     16713     16716     16712     16710     16713     16714
     16712     16710     16713     16715     16712     16710     16713     16716
     16713     16716     16719     16720     16713     16716     16719     16721
     16713     16716     16719     16722     16714     16713     16716     16717
     16714     16713     16716     16718     16714     16713     16716     16719
     16715     16713     16716     16717     16715     16713     16716     16718
     16715     16713     16716     16719     16717     16716     16719     16720
     16717     16716     16719     16721     16717     16716     16719     16722
     16718     16716     16719     16720     16718     16716     16719     16721
     16718     16716     16719     16722     16723     16727     16730     16731
     16723     16727     16730     16732     16723     16727     16730     16737
     16724     16723     16727     16728     16724     16723     16727     16729
     16724     16723     16727     16730     16725     16723     16727     16728
     16725     16723     16727     16729     16725     16723     16727     16730
     16726     16723     16727     16728     16726     16723     16727     16729
     16726     16723     16727     16730     16727     16730     16737     16733
     16728     16727     16730     16731     16728     16727     16730     16732
     16728     16727     16730     16737     16729     16727     16730     16731
     16729     16727     16730     16732     16729     16727     16730     16737
     16730     16737     16733     16734     16730     16737     16733     16735
     16730     16737     16733     16736     16731     16730     16737     16733
     16732     16730     16737     16733     16733     16736     16738     16739
     16733     16736     16738     16740     16733     16736     16738     16741
     16734     16733     16736     16738     16735     16733     16736     16738
     16736     16738     16741     16742     16736     16738     16741     16743
     16736     16738     16741     16749     16737     16733     16736     16738
     16738     16741     16743     16744     16738     16741     16749     16750
     16738     16741     16749     16751     16738     16741     16749     16752
     16739     16738     16741     16742     16739     16738     16741     16743
     16739     16738     16741     16749     16740     16738     16741     16742
     16740     16738     16741     16743     16740     16738     16741     16749
     16741     16743     16744     16745     16741     16743     16744     16746
     16741     16749     16752     16753     16742     16741     16743     16744
     16742     16741     16749     16750     16742     16741     16749     16751
     16742     16741     16749     16752     16743     16741     16749     16750
     16743     16741     16749     16751     16743     16741     16749     16752
     16743     16744     16746     16747     16743     16744     16746     16748
     16743     16744     16746     16758     16744     16743     16741     16749
     16744     16746     16758     16759     16744     16746     16758     16760
     16744     16746     16758     16761     16745     16744     16746     16747
     16745     16744     16746     16748     16745     16744     16746     16758
     16746     16758     16761     16762     16746     16758     16761     16763
     16746     16758     16761     16764     16747     16746     16758     16759
     16747     16746     16758     16760     16747     16746     16758     16761
     16748     16746     16758     16759     16748     16746     16758     16760
     16748     16746     16758     16761     16749     16752     16753     16754
     16749     16752     16753     16755     16750     16749     16752     16753
     16751     16749     16752     16753     16752     16753     16755     16756
     16752     16753     16755     16757     16752     16753     16755     16805
     16753     16755     16805     16806     16753     16755     16805     16807
     16753     16755     16805     16808     16754     16753     16755     16756
     16754     16753     16755     16757     16754     16753     16755     16805
     16755     16805     16808     16809     16755     16805     16808     16810
     16755     16805     16808     16811     16756     16755     16805     16806
     16756     16755     16805     16807     16756     16755     16805     16808
     16757     16755     16805     16806     16757     16755     16805     16807
     16757     16755     16805     16808     16758     16761     16764     16765
     16758     16761     16764     16766     16758     16761     16764     16767
     16759     16758     16761     16762     16759     16758     16761     16763
     16759     16758     16761     16764     16760     16758     16761     16762
     16760     16758     16761     16763     16760     16758     16761     16764
     16761     16764     16767     16768     16761     16764     16767     16769
     16761     16764     16767     16770     16762     16761     16764     16765
     16762     16761     16764     16766     16762     16761     16764     16767
     16763     16761     16764     16765     16763     16761     16764     16766
     16763     16761     16764     16767     16764     16767     16770     16771
     16764     16767     16770     16772     16764     16767     16770     16773
     16765     16764     16767     16768     16765     16764     16767     16769
     16765     16764     16767     16770     16766     16764     16767     16768
     16766     16764     16767     16769     16766     16764     16767     16770
     16767     16770     16773     16774     16767     16770     16773     16775
     16767     16770     16773     16776     16768     16767     16770     16771
     16768     16767     16770     16772     16768     16767     16770     16773
     16769     16767     16770     16771     16769     16767     16770     16772
     16769     16767     16770     16773     16770     16773     16776     16777
     16770     16773     16776     16778     16771     16770     16773     16774
     16771     16770     16773     16775     16771     16770     16773     16776
     16772     16770     16773     16774     16772     16770     16773     16775
     16772     16770     16773     16776     16773     16776     16778     16779
     16773     16776     16778     16780     16774     16773     16776     16777
     16774     16773     16776     16778     16775     16773     16776     16777
     16775     16773     16776     16778     16776     16778     16780     16781
     16776     16778     16780     16782     16776     16778     16780     16783
     16777     16776     16778     16779     16777     16776     16778     16780
     16778     16780     16783     16784     16778     16780     16783     16785
     16778     16780     16783     16786     16779     16778     16780     16781
     16779     16778     16780     16782     16779     16778     16780     16783
     16780     16783     16786     16787     16780     16783     16786     16788
     16780     16783     16786     16789     16781     16780     16783     16784
     16781     16780     16783     16785     16781     16780     16783     16786
     16782     16780     16783     16784     16782     16780     16783     16785
     16782     16780     16783     16786     16783     16786     16789     16790
     16783     16786     16789     16791     16783     16786     16789     16792
     16784     16783     16786     16787     16784     16783     16786     16788
     16784     16783     16786     16789     16785     16783     16786     16787
     16785     16783     16786     16788     16785     16783     16786     16789
     16786     16789     16792     16793     16786     16789     16792     16794
     16786     16789     16792     16795     16787     16786     16789     16790
     16787     16786     16789     16791     16787     16786     16789     16792
     16788     16786     16789     16790     16788     16786     16789     16791
     16788     16786     16789     16792     16789     16792     16795     16796
     16789     16792     16795     16797     16789     16792     16795     16798
     16790     16789     16792     16793     16790     16789     16792     16794
     16790     16789     16792     16795     16791     16789     16792     16793
     16791     16789     16792     16794     16791     16789     16792     16795
     16792     16795     16798     16799     16792     16795     16798     16800
     16792     16795     16798     16801     16793     16792     16795     16796
     16793     16792     16795     16797     16793     16792     16795     16798
     16794     16792     16795     16796     16794     16792     16795     16797
     16794     16792     16795     16798     16795     16798     16801     16802
     16795     16798     16801     16803     16795     16798     16801     16804
     16796     16795     16798     16799     16796     16795     16798     16800
     16796     16795     16798     16801     16797     16795     16798     16799
     16797     16795     16798     16800     16797     16795     16798     16801
     16799     16798     16801     16802     16799     16798     16801     16803
     16799     16798     16801     16804     16800     16798     16801     16802
     16800     16798     16801     16803     16800     16798     16801     16804
     16805     16808     16811     16812     16805     16808     16811     16813
     16805     16808     16811     16814     16806     16805     16808     16809
     16806     16805     16808     16810     16806     16805     16808     16811
     16807     16805     16808     16809     16807     16805     16808     16810
     16807     16805     16808     16811     16808     16811     16814     16815
     16808     16811     16814     16816     16808     16811     16814     16817
     16809     16808     16811     16812     16809     16808     16811     16813
     16809     16808     16811     16814     16810     16808     16811     16812
     16810     16808     16811     16813     16810     16808     16811     16814
     16811     16814     16817     16818     16811     16814     16817     16819
     16811     16814     16817     16820     16812     16811     16814     16815
     16812     16811     16814     16816     16812     16811     16814     16817
     16813     16811     16814     16815     16813     16811     16814     16816
     16813     16811     16814     16817     16814     16817     16820     16821
     16814     16817     16820     16822     16814     16817     16820     16823
     16815     16814     16817     16818     16815     16814     16817     16819
     16815     16814     16817     16820     16816     16814     16817     16818
     16816     16814     16817     16819     16816     16814     16817     16820
     16817     16820     16823     16824     16817     16820     16823     16825
     16817     16820     16823     16826     16818     16817     16820     16821
     16818     16817     16820     16822     16818     16817     16820     16823
     16819     16817     16820     16821     16819     16817     16820     16822
     16819     16817     16820     16823     16820     16823     16826     16827
     16820     16823     16826     16828     16820     16823     16826     16829
     16821     16820     16823     16824     16821     16820     16823     16825
     16821     16820     16823     16826     16822     16820     16823     16824
     16822     16820     16823     16825     16822     16820     16823     16826
     16823     16826     16829     16830     16823     16826     16829     16831
     16823     16826     16829     16832     16824     16823     16826     16827
     16824     16823     16826     16828     16824     16823     16826     16829
     16825     16823     16826     16827     16825     16823     16826     16828
     16825     16823     16826     16829     16826     16829     16832     16833
     16826     16829     16832     16834     16826     16829     16832     16835
     16827     16826     16829     16830     16827     16826     16829     16831
     16827     16826     16829     16832     16828     16826     16829     16830
     16828     16826     16829     16831     16828     16826     16829     16832
     16829     16832     16835     16836     16829     16832     16835     16837
     16829     16832     16835     16838     16830     16829     16832     16833
     16830     16829     16832     16834     16830     16829     16832     16835
     16831     16829     16832     16833     16831     16829     16832     16834
     16831     16829     16832     16835     16832     16835     16838     16839
     16832     16835     16838     16840     16832     16835     16838     16841
     16833     16832     16835     16836     16833     16832     16835     16837
     16833     16832     16835     16838     16834     16832     16835     16836
     16834     16832     16835     16837     16834     16832     16835     16838
     16835     16838     16841     16842     16835     16838     16841     16843
     16835     16838     16841     16844     16836     16835     16838     16839
     16836     16835     16838     16840     16836     16835     16838     16841
     16837     16835     16838     16839     16837     16835     16838     16840
     16837     16835     16838     16841     16838     16841     16844     16845
     16838     16841     16844     16846     16838     16841     16844     16847
     16839     16838     16841     16842     16839     16838     16841     16843
     16839     16838     16841     16844     16840     16838     16841     16842
     16840     16838     16841     16843     16840     16838     16841     16844
     16842     16841     16844     16845     16842     16841     16844     16846
     16842     16841     16844     16847     16843     16841     16844     16845
     16843     16841     16844     16846     16843     16841     16844     16847
     16848     16852     16855     16856     16848     16852     16855     16857
     16848     16852     16855     16862     16849     16848     16852     16853
     16849     16848     16852     16854     16849     16848     16852     16855
     16850     16848     16852     16853     16850     16848     16852     16854
     16850     16848     16852     16855     16851     16848     16852     16853
     16851     16848     16852     16854     16851     16848     16852     16855
     16852     16855     16862     16858     16853     16852     16855     16856
     16853     16852     16855     16857     16853     16852     16855     16862
     16854     16852     16855     16856     16854     16852     16855     16857
     16854     16852     16855     16862     16855     16862     16858     16859
     16855     16862     16858     16860     16855     16862     16858     16861
     16856     16855     16862     16858     16857     16855     16862     16858
     16858     16861     16863     16864     16858     16861     16863     16865
     16858     16861     16863     16866     16859     16858     16861     16863
     16860     16858     16861     16863     16861     16863     16866     16867
     16861     16863     16866     16868     16861     16863     16866     16874
     16862     16858     16861     16863     16863     16866     16868     16869
     16863     16866     16874     16875     16863     16866     16874     16876
     16863     16866     16874     16877     16864     16863     16866     16867
     16864     16863     16866     16868     16864     16863     16866     16874
     16865     16863     16866     16867     16865     16863     16866     16868
     16865     16863     16866     16874     16866     16868     16869     16870
     16866     16868     16869     16871     16866     16874     16877     16878
     16867     16866     16868     16869     16867     16866     16874     16875
     16867     16866     16874     16876     16867     16866     16874     16877
     16868     16866     16874     16875     16868     16866     16874     16876
     16868     16866     16874     16877     16868     16869     16871     16872
     16868     16869     16871     16873     16868     16869     16871     16883
     16869     16868     16866     16874     16869     16871     16883     16884
     16869     16871     16883     16885     16869     16871     16883     16886
     16870     16869     16871     16872     16870     16869     16871     16873
     16870     16869     16871     16883     16871     16883     16886     16887
     16871     16883     16886     16888     16871     16883     16886     16889
     16872     16871     16883     16884     16872     16871     16883     16885
     16872     16871     16883     16886     16873     16871     16883     16884
     16873     16871     16883     16885     16873     16871     16883     16886
     16874     16877     16878     16879     16874     16877     16878     16880
     16875     16874     16877     16878     16876     16874     16877     16878
     16877     16878     16880     16881     16877     16878     16880     16882
     16877     16878     16880     16924     16878     16880     16924     16925
     16878     16880     16924     16926     16878     16880     16924     16927
     16879     16878     16880     16881     16879     16878     16880     16882
     16879     16878     16880     16924     16880     16924     16927     16928
     16880     16924     16927     16929     16880     16924     16927     16930
     16881     16880     16924     16925     16881     16880     16924     16926
     16881     16880     16924     16927     16882     16880     16924     16925
     16882     16880     16924     16926     16882     16880     16924     16927
     16883     16886     16889     16890     16883     16886     16889     16891
     16883     16886     16889     16892     16884     16883     16886     16887
     16884     16883     16886     16888     16884     16883     16886     16889
     16885     16883     16886     16887     16885     16883     16886     16888
     16885     16883     16886     16889     16886     16889     16892     16893
     16886     16889     16892     16894     16886     16889     16892     16895
     16887     16886     16889     16890     16887     16886     16889     16891
     16887     16886     16889     16892     16888     16886     16889     16890
     16888     16886     16889     16891     16888     16886     16889     16892
     16889     16892     16895     16896     16889     16892     16895     16897
     16889     16892     16895     16898     16890     16889     16892     16893
     16890     16889     16892     16894     16890     16889     16892     16895
     16891     16889     16892     16893     16891     16889     16892     16894
     16891     16889     16892     16895     16892     16895     16898     16899
     16892     16895     16898     16900     16892     16895     16898     16901
     16893     16892     16895     16896     16893     16892     16895     16897
     16893     16892     16895     16898     16894     16892     16895     16896
     16894     16892     16895     16897     16894     16892     16895     16898
     16895     16898     16901     16902     16895     16898     16901     16903
     16896     16895     16898     16899     16896     16895     16898     16900
     16896     16895     16898     16901     16897     16895     16898     16899
     16897     16895     16898     16900     16897     16895     16898     16901
     16898     16901     16903     16904     16898     16901     16903     16905
     16899     16898     16901     16902     16899     16898     16901     16903
     16900     16898     16901     16902     16900     16898     16901     16903
     16901     16903     16905     16906     16901     16903     16905     16907
     16901     16903     16905     16908     16902     16901     16903     16904
     16902     16901     16903     16905     16903     16905     16908     16909
     16903     16905     16908     16910     16903     16905     16908     16911
     16904     16903     16905     16906     16904     16903     16905     16907
     16904     16903     16905     16908     16905     16908     16911     16912
     16905     16908     16911     16913     16905     16908     16911     16914
     16906     16905     16908     16909     16906     16905     16908     16910
     16906     16905     16908     16911     16907     16905     16908     16909
     16907     16905     16908     16910     16907     16905     16908     16911
     16908     16911     16914     16915     16908     16911     16914     16916
     16908     16911     16914     16917     16909     16908     16911     16912
     16909     16908     16911     16913     16909     16908     16911     16914
     16910     16908     16911     16912     16910     16908     16911     16913
     16910     16908     16911     16914     16911     16914     16917     16918
     16911     16914     16917     16919     16911     16914     16917     16920
     16912     16911     16914     16915     16912     16911     16914     16916
     16912     16911     16914     16917     16913     16911     16914     16915
     16913     16911     16914     16916     16913     16911     16914     16917
     16914     16917     16920     16921     16914     16917     16920     16922
     16914     16917     16920     16923     16915     16914     16917     16918
     16915     16914     16917     16919     16915     16914     16917     16920
     16916     16914     16917     16918     16916     16914     16917     16919
     16916     16914     16917     16920     16918     16917     16920     16921
     16918     16917     16920     16922     16918     16917     16920     16923
     16919     16917     16920     16921     16919     16917     16920     16922
     16919     16917     16920     16923     16924     16927     16930     16931
     16924     16927     16930     16932     16924     16927     16930     16933
     16925     16924     16927     16928     16925     16924     16927     16929
     16925     16924     16927     16930     16926     16924     16927     16928
     16926     16924     16927     16929     16926     16924     16927     16930
     16927     16930     16933     16934     16927     16930     16933     16935
     16927     16930     16933     16936     16928     16927     16930     16931
     16928     16927     16930     16932     16928     16927     16930     16933
     16929     16927     16930     16931     16929     16927     16930     16932
     16929     16927     16930     16933     16930     16933     16936     16937
     16930     16933     16936     16938     16930     16933     16936     16939
     16931     16930     16933     16934     16931     16930     16933     16935
     16931     16930     16933     16936     16932     16930     16933     16934
     16932     16930     16933     16935     16932     16930     16933     16936
     16933     16936     16939     16940     16933     16936     16939     16941
     16933     16936     16939     16942     16934     16933     16936     16937
     16934     16933     16936     16938     16934     16933     16936     16939
     16935     16933     16936     16937     16935     16933     16936     16938
     16935     16933     16936     16939     16936     16939     16942     16943
     16936     16939     16942     16944     16937     16936     16939     16940
     16937     16936     16939     16941     16937     16936     16939     16942
     16938     16936     16939     16940     16938     16936     16939     16941
     16938     16936     16939     16942     16939     16942     16944     16945
     16939     16942     16944     16946     16940     16939     16942     16943
     16940     16939     16942     16944     16941     16939     16942     16943
     16941     16939     16942     16944     16942     16944     16946     16947
     16942     16944     16946     16948     16942     16944     16946     16949
     16943     16942     16944     16945     16943     16942     16944     16946
     16944     16946     16949     16950     16944     16946     16949     16951
     16944     16946     16949     16952     16945     16944     16946     16947
     16945     16944     16946     16948     16945     16944     16946     16949
     16946     16949     16952     16953     16946     16949     16952     16954
     16946     16949     16952     16955     16947     16946     16949     16950
     16947     16946     16949     16951     16947     16946     16949     16952
     16948     16946     16949     16950     16948     16946     16949     16951
     16948     16946     16949     16952     16949     16952     16955     16956
     16949     16952     16955     16957     16949     16952     16955     16958
     16950     16949     16952     16953     16950     16949     16952     16954
     16950     16949     16952     16955     16951     16949     16952     16953
     16951     16949     16952     16954     16951     16949     16952     16955
     16952     16955     16958     16959     16952     16955     16958     16960
     16952     16955     16958     16961     16953     16952     16955     16956
     16953     16952     16955     16957     16953     16952     16955     16958
     16954     16952     16955     16956     16954     16952     16955     16957
     16954     16952     16955     16958     16955     16958     16961     16962
     16955     16958     16961     16963     16955     16958     16961     16964
     16956     16955     16958     16959     16956     16955     16958     16960
     16956     16955     16958     16961     16957     16955     16958     16959
     16957     16955     16958     16960     16957     16955     16958     16961
     16958     16961     16964     16965     16958     16961     16964     16966
     16958     16961     16964     16967     16959     16958     16961     16962
     16959     16958     16961     16963     16959     16958     16961     16964
     16960     16958     16961     16962     16960     16958     16961     16963
     16960     16958     16961     16964     16961     16964     16967     16968
     16961     16964     16967     16969     16961     16964     16967     16970
     16962     16961     16964     16965     16962     16961     16964     16966
     16962     16961     16964     16967     16963     16961     16964     16965
     16963     16961     16964     16966     16963     16961     16964     16967
     16965     16964     16967     16968     16965     16964     16967     16969
     16965     16964     16967     16970     16966     16964     16967     16968
     16966     16964     16967     16969     16966     16964     16967     16970
     16971     16975     16978     16979     16971     16975     16978     16980
     16971     16975     16978     16985     16972     16971     16975     16976
     16972     16971     16975     16977     16972     16971     16975     16978
     16973     16971     16975     16976     16973     16971     16975     16977
     16973     16971     16975     16978     16974     16971     16975     16976
     16974     16971     16975     16977     16974     16971     16975     16978
     16975     16978     16985     16981     16976     16975     16978     16979
     16976     16975     16978     16980     16976     16975     16978     16985
     16977     16975     16978     16979     16977     16975     16978     16980
     16977     16975     16978     16985     16978     16985     16981     16982
     16978     16985     16981     16983     16978     16985     16981     16984
     16979     16978     16985     16981     16980     16978     16985     16981
     16981     16984     16986     16987     16981     16984     16986     16988
     16981     16984     16986     16989     16982     16981     16984     16986
     16983     16981     16984     16986     16984     16986     16989     16990
     16984     16986     16989     16991     16984     16986     16989     16997
     16985     16981     16984     16986     16986     16989     16991     16992
     16986     16989     16997     16998     16986     16989     16997     16999
     16986     16989     16997     17000     16987     16986     16989     16990
     16987     16986     16989     16991     16987     16986     16989     16997
     16988     16986     16989     16990     16988     16986     16989     16991
     16988     16986     16989     16997     16989     16991     16992     16993
     16989     16991     16992     16994     16989     16997     17000     17001
     16990     16989     16991     16992     16990     16989     16997     16998
     16990     16989     16997     16999     16990     16989     16997     17000
     16991     16989     16997     16998     16991     16989     16997     16999
     16991     16989     16997     17000     16991     16992     16994     16995
     16991     16992     16994     16996     16991     16992     16994     17006
     16992     16991     16989     16997     16992     16994     17006     17007
     16992     16994     17006     17008     16992     16994     17006     17009
     16993     16992     16994     16995     16993     16992     16994     16996
     16993     16992     16994     17006     16994     17006     17009     17010
     16994     17006     17009     17011     16994     17006     17009     17012
     16995     16994     17006     17007     16995     16994     17006     17008
     16995     16994     17006     17009     16996     16994     17006     17007
     16996     16994     17006     17008     16996     16994     17006     17009
     16997     17000     17001     17002     16997     17000     17001     17003
     16998     16997     17000     17001     16999     16997     17000     17001
     17000     17001     17003     17004     17000     17001     17003     17005
     17000     17001     17003     17050     17001     17003     17050     17051
     17001     17003     17050     17052     17001     17003     17050     17053
     17002     17001     17003     17004     17002     17001     17003     17005
     17002     17001     17003     17050     17003     17050     17053     17054
     17003     17050     17053     17055     17003     17050     17053     17056
     17004     17003     17050     17051     17004     17003     17050     17052
     17004     17003     17050     17053     17005     17003     17050     17051
     17005     17003     17050     17052     17005     17003     17050     17053
     17006     17009     17012     17013     17006     17009     17012     17014
     17006     17009     17012     17015     17007     17006     17009     17010
     17007     17006     17009     17011     17007     17006     17009     17012
     17008     17006     17009     17010     17008     17006     17009     17011
     17008     17006     17009     17012     17009     17012     17015     17016
     17009     17012     17015     17017     17009     17012     17015     17018
     17010     17009     17012     17013     17010     17009     17012     17014
     17010     17009     17012     17015     17011     17009     17012     17013
     17011     17009     17012     17014     17011     17009     17012     17015
     17012     17015     17018     17019     17012     17015     17018     17020
     17012     17015     17018     17021     17013     17012     17015     17016
     17013     17012     17015     17017     17013     17012     17015     17018
     17014     17012     17015     17016     17014     17012     17015     17017
     17014     17012     17015     17018     17015     17018     17021     17022
     17015     17018     17021     17023     17015     17018     17021     17024
     17016     17015     17018     17019     17016     17015     17018     17020
     17016     17015     17018     17021     17017     17015     17018     17019
     17017     17015     17018     17020     17017     17015     17018     17021
     17018     17021     17024     17025     17018     17021     17024     17026
     17018     17021     17024     17029     17019     17018     17021     17022
     17019     17018     17021     17023     17019     17018     17021     17024
     17020     17018     17021     17022     17020     17018     17021     17023
     17020     17018     17021     17024     17021     17024     17026     17027
     17021     17024     17026     17028     17021     17024     17026     17029
     17021     17024     17029     17026     17021     17024     17029     17030
     17021     17024     17029     17031     17022     17021     17024     17025
     17022     17021     17024     17026     17022     17021     17024     17029
     17023     17021     17024     17025     17023     17021     17024     17026
     17023     17021     17024     17029     17024     17026     17029     17030
     17024     17026     17029     17031     17024     17029     17026     17027
     17024     17029     17026     17028     17024     17029     17031     17032
     17024     17029     17031     17033     17024     17029     17031     17034
     17025     17024     17026     17027     17025     17024     17026     17028
     17025     17024     17026     17029     17025     17024     17029     17026
     17025     17024     17029     17030     17025     17024     17029     17031
     17026     17024     17029     17030     17026     17024     17029     17031
     17026     17029     17031     17032     17026     17029     17031     17033
     17026     17029     17031     17034     17027     17026     17024     17029
     17027     17026     17029     17030     17027     17026     17029     17031
     17028     17026     17024     17029     17028     17026     17029     17030
     17028     17026     17029     17031     17029     17031     17034     17035
     17029     17031     17034     17036     17029     17031     17034     17037
     17030     17029     17031     17032     17030     17029     17031     17033
     17030     17029     17031     17034     17031     17034     17037     17038
     17031     17034     17037     17039     17031     17034     17037     17040
     17032     17031     17034     17035     17032     17031     17034     17036
     17032     17031     17034     17037     17033     17031     17034     17035
     17033     17031     17034     17036     17033     17031     17034     17037
     17034     17037     17040     17041     17034     17037     17040     17042
     17034     17037     17040     17043     17035     17034     17037     17038
     17035     17034     17037     17039     17035     17034     17037     17040
     17036     17034     17037     17038     17036     17034     17037     17039
     17036     17034     17037     17040     17037     17040     17043     17044
     17037     17040     17043     17045     17037     17040     17043     17046
     17038     17037     17040     17041     17038     17037     17040     17042
     17038     17037     17040     17043     17039     17037     17040     17041
     17039     17037     17040     17042     17039     17037     17040     17043
     17040     17043     17046     17047     17040     17043     17046     17048
     17040     17043     17046     17049     17041     17040     17043     17044
     17041     17040     17043     17045     17041     17040     17043     17046
     17042     17040     17043     17044     17042     17040     17043     17045
     17042     17040     17043     17046     17044     17043     17046     17047
     17044     17043     17046     17048     17044     17043     17046     17049
     17045     17043     17046     17047     17045     17043     17046     17048
     17045     17043     17046     17049     17050     17053     17056     17057
     17050     17053     17056     17058     17050     17053     17056     17059
     17051     17050     17053     17054     17051     17050     17053     17055
     17051     17050     17053     17056     17052     17050     17053     17054
     17052     17050     17053     17055     17052     17050     17053     17056
     17053     17056     17059     17060     17053     17056     17059     17061
     17053     17056     17059     17062     17054     17053     17056     17057
     17054     17053     17056     17058     17054     17053     17056     17059
     17055     17053     17056     17057     17055     17053     17056     17058
     17055     17053     17056     17059     17056     17059     17062     17063
     17056     17059     17062     17064     17056     17059     17062     17065
     17057     17056     17059     17060     17057     17056     17059     17061
     17057     17056     17059     17062     17058     17056     17059     17060
     17058     17056     17059     17061     17058     17056     17059     17062
     17059     17062     17065     17066     17059     17062     17065     17067
     17059     17062     17065     17068     17060     17059     17062     17063
     17060     17059     17062     17064     17060     17059     17062     17065
     17061     17059     17062     17063     17061     17059     17062     17064
     17061     17059     17062     17065     17062     17065     17068     17069
     17062     17065     17068     17070     17062     17065     17068     17071
     17063     17062     17065     17066     17063     17062     17065     17067
     17063     17062     17065     17068     17064     17062     17065     17066
     17064     17062     17065     17067     17064     17062     17065     17068
     17065     17068     17071     17072     17065     17068     17071     17073
     17065     17068     17071     17074     17066     17065     17068     17069
     17066     17065     17068     17070     17066     17065     17068     17071
     17067     17065     17068     17069     17067     17065     17068     17070
     17067     17065     17068     17071     17068     17071     17074     17075
     17068     17071     17074     17076     17068     17071     17074     17077
     17069     17068     17071     17072     17069     17068     17071     17073
     17069     17068     17071     17074     17070     17068     17071     17072
     17070     17068     17071     17073     17070     17068     17071     17074
     17071     17074     17077     17078     17071     17074     17077     17079
     17071     17074     17077     17080     17072     17071     17074     17075
     17072     17071     17074     17076     17072     17071     17074     17077
     17073     17071     17074     17075     17073     17071     17074     17076
     17073     17071     17074     17077     17074     17077     17080     17081
     17074     17077     17080     17082     17074     17077     17080     17083
     17075     17074     17077     17078     17075     17074     17077     17079
     17075     17074     17077     17080     17076     17074     17077     17078
     17076     17074     17077     17079     17076     17074     17077     17080
     17077     17080     17083     17084     17077     17080     17083     17085
     17077     17080     17083     17086     17078     17077     17080     17081
     17078     17077     17080     17082     17078     17077     17080     17083
     17079     17077     17080     17081     17079     17077     17080     17082
     17079     17077     17080     17083     17080     17083     17086     17087
     17080     17083     17086     17088     17080     17083     17086     17089
     17081     17080     17083     17084     17081     17080     17083     17085
     17081     17080     17083     17086     17082     17080     17083     17084
     17082     17080     17083     17085     17082     17080     17083     17086
     17083     17086     17089     17090     17083     17086     17089     17091
     17083     17086     17089     17092     17084     17083     17086     17087
     17084     17083     17086     17088     17084     17083     17086     17089
     17085     17083     17086     17087     17085     17083     17086     17088
     17085     17083     17086     17089     17087     17086     17089     17090
     17087     17086     17089     17091     17087     17086     17089     17092
     17088     17086     17089     17090     17088     17086     17089     17091
     17088     17086     17089     17092     17093     17097     17100     17101
     17093     17097     17100     17102     17093     17097     17100     17107
     17094     17093     17097     17098     17094     17093     17097     17099
     17094     17093     17097     17100     17095     17093     17097     17098
     17095     17093     17097     17099     17095     17093     17097     17100
     17096     17093     17097     17098     17096     17093     17097     17099
     17096     17093     17097     17100     17097     17100     17107     17103
     17098     17097     17100     17101     17098     17097     17100     17102
     17098     17097     17100     17107     17099     17097     17100     17101
     17099     17097     17100     17102     17099     17097     17100     17107
     17100     17107     17103     17104     17100     17107     17103     17105
     17100     17107     17103     17106     17101     17100     17107     17103
     17102     17100     17107     17103     17103     17106     17108     17109
     17103     17106     17108     17110     17103     17106     17108     17111
     17104     17103     17106     17108     17105     17103     17106     17108
     17106     17108     17111     17112     17106     17108     17111     17113
     17106     17108     17111     17119     17107     17103     17106     17108
     17108     17111     17113     17114     17108     17111     17119     17120
     17108     17111     17119     17121     17108     17111     17119     17122
     17109     17108     17111     17112     17109     17108     17111     17113
     17109     17108     17111     17119     17110     17108     17111     17112
     17110     17108     17111     17113     17110     17108     17111     17119
     17111     17113     17114     17115     17111     17113     17114     17116
     17111     17119     17122     17123     17112     17111     17113     17114
     17112     17111     17119     17120     17112     17111     17119     17121
     17112     17111     17119     17122     17113     17111     17119     17120
     17113     17111     17119     17121     17113     17111     17119     17122
     17113     17114     17116     17117     17113     17114     17116     17118
     17113     17114     17116     17128     17114     17113     17111     17119
     17114     17116     17128     17129     17114     17116     17128     17130
     17114     17116     17128     17131     17115     17114     17116     17117
     17115     17114     17116     17118     17115     17114     17116     17128
     17116     17128     17131     17132     17116     17128     17131     17133
     17116     17128     17131     17134     17117     17116     17128     17129
     17117     17116     17128     17130     17117     17116     17128     17131
     17118     17116     17128     17129     17118     17116     17128     17130
     17118     17116     17128     17131     17119     17122     17123     17124
     17119     17122     17123     17125     17120     17119     17122     17123
     17121     17119     17122     17123     17122     17123     17125     17126
     17122     17123     17125     17127     17122     17123     17125     17175
     17123     17125     17175     17176     17123     17125     17175     17177
     17123     17125     17175     17178     17124     17123     17125     17126
     17124     17123     17125     17127     17124     17123     17125     17175
     17125     17175     17178     17179     17125     17175     17178     17180
     17125     17175     17178     17181     17126     17125     17175     17176
     17126     17125     17175     17177     17126     17125     17175     17178
     17127     17125     17175     17176     17127     17125     17175     17177
     17127     17125     17175     17178     17128     17131     17134     17135
     17128     17131     17134     17136     17128     17131     17134     17137
     17129     17128     17131     17132     17129     17128     17131     17133
     17129     17128     17131     17134     17130     17128     17131     17132
     17130     17128     17131     17133     17130     17128     17131     17134
     17131     17134     17137     17138     17131     17134     17137     17139
     17131     17134     17137     17140     17132     17131     17134     17135
     17132     17131     17134     17136     17132     17131     17134     17137
     17133     17131     17134     17135     17133     17131     17134     17136
     17133     17131     17134     17137     17134     17137     17140     17141
     17134     17137     17140     17142     17134     17137     17140     17143
     17135     17134     17137     17138     17135     17134     17137     17139
     17135     17134     17137     17140     17136     17134     17137     17138
     17136     17134     17137     17139     17136     17134     17137     17140
     17137     17140     17143     17144     17137     17140     17143     17145
     17137     17140     17143     17146     17138     17137     17140     17141
     17138     17137     17140     17142     17138     17137     17140     17143
     17139     17137     17140     17141     17139     17137     17140     17142
     17139     17137     17140     17143     17140     17143     17146     17147
     17140     17143     17146     17148     17141     17140     17143     17144
     17141     17140     17143     17145     17141     17140     17143     17146
     17142     17140     17143     17144     17142     17140     17143     17145
     17142     17140     17143     17146     17143     17146     17148     17149
     17143     17146     17148     17150     17144     17143     17146     17147
     17144     17143     17146     17148     17145     17143     17146     17147
     17145     17143     17146     17148     17146     17148     17150     17151
     17146     17148     17150     17152     17146     17148     17150     17153
     17147     17146     17148     17149     17147     17146     17148     17150
     17148     17150     17153     17154     17148     17150     17153     17155
     17148     17150     17153     17156     17149     17148     17150     17151
     17149     17148     17150     17152     17149     17148     17150     17153
     17150     17153     17156     17157     17150     17153     17156     17158
     17150     17153     17156     17159     17151     17150     17153     17154
     17151     17150     17153     17155     17151     17150     17153     17156
     17152     17150     17153     17154     17152     17150     17153     17155
     17152     17150     17153     17156     17153     17156     17159     17160
     17153     17156     17159     17161     17153     17156     17159     17162
     17154     17153     17156     17157     17154     17153     17156     17158
     17154     17153     17156     17159     17155     17153     17156     17157
     17155     17153     17156     17158     17155     17153     17156     17159
     17156     17159     17162     17163     17156     17159     17162     17164
     17156     17159     17162     17165     17157     17156     17159     17160
     17157     17156     17159     17161     17157     17156     17159     17162
     17158     17156     17159     17160     17158     17156     17159     17161
     17158     17156     17159     17162     17159     17162     17165     17166
     17159     17162     17165     17167     17159     17162     17165     17168
     17160     17159     17162     17163     17160     17159     17162     17164
     17160     17159     17162     17165     17161     17159     17162     17163
     17161     17159     17162     17164     17161     17159     17162     17165
     17162     17165     17168     17169     17162     17165     17168     17170
     17162     17165     17168     17171     17163     17162     17165     17166
     17163     17162     17165     17167     17163     17162     17165     17168
     17164     17162     17165     17166     17164     17162     17165     17167
     17164     17162     17165     17168     17165     17168     17171     17172
     17165     17168     17171     17173     17165     17168     17171     17174
     17166     17165     17168     17169     17166     17165     17168     17170
     17166     17165     17168     17171     17167     17165     17168     17169
     17167     17165     17168     17170     17167     17165     17168     17171
     17169     17168     17171     17172     17169     17168     17171     17173
     17169     17168     17171     17174     17170     17168     17171     17172
     17170     17168     17171     17173     17170     17168     17171     17174
     17175     17178     17181     17182     17175     17178     17181     17183
     17175     17178     17181     17184     17176     17175     17178     17179
     17176     17175     17178     17180     17176     17175     17178     17181
     17177     17175     17178     17179     17177     17175     17178     17180
     17177     17175     17178     17181     17178     17181     17184     17185
     17178     17181     17184     17186     17178     17181     17184     17187
     17179     17178     17181     17182     17179     17178     17181     17183
     17179     17178     17181     17184     17180     17178     17181     17182
     17180     17178     17181     17183     17180     17178     17181     17184
     17181     17184     17187     17188     17181     17184     17187     17189
     17181     17184     17187     17190     17182     17181     17184     17185
     17182     17181     17184     17186     17182     17181     17184     17187
     17183     17181     17184     17185     17183     17181     17184     17186
     17183     17181     17184     17187     17184     17187     17190     17191
     17184     17187     17190     17192     17184     17187     17190     17193
     17185     17184     17187     17188     17185     17184     17187     17189
     17185     17184     17187     17190     17186     17184     17187     17188
     17186     17184     17187     17189     17186     17184     17187     17190
     17187     17190     17193     17194     17187     17190     17193     17195
     17187     17190     17193     17196     17188     17187     17190     17191
     17188     17187     17190     17192     17188     17187     17190     17193
     17189     17187     17190     17191     17189     17187     17190     17192
     17189     17187     17190     17193     17190     17193     17196     17197
     17190     17193     17196     17198     17190     17193     17196     17199
     17191     17190     17193     17194     17191     17190     17193     17195
     17191     17190     17193     17196     17192     17190     17193     17194
     17192     17190     17193     17195     17192     17190     17193     17196
     17193     17196     17199     17200     17193     17196     17199     17201
     17193     17196     17199     17202     17194     17193     17196     17197
     17194     17193     17196     17198     17194     17193     17196     17199
     17195     17193     17196     17197     17195     17193     17196     17198
     17195     17193     17196     17199     17196     17199     17202     17203
     17196     17199     17202     17204     17196     17199     17202     17205
     17197     17196     17199     17200     17197     17196     17199     17201
     17197     17196     17199     17202     17198     17196     17199     17200
     17198     17196     17199     17201     17198     17196     17199     17202
     17199     17202     17205     17206     17199     17202     17205     17207
     17199     17202     17205     17208     17200     17199     17202     17203
     17200     17199     17202     17204     17200     17199     17202     17205
     17201     17199     17202     17203     17201     17199     17202     17204
     17201     17199     17202     17205     17202     17205     17208     17209
     17202     17205     17208     17210     17202     17205     17208     17211
     17203     17202     17205     17206     17203     17202     17205     17207
     17203     17202     17205     17208     17204     17202     17205     17206
     17204     17202     17205     17207     17204     17202     17205     17208
     17205     17208     17211     17212     17205     17208     17211     17213
     17205     17208     17211     17214     17206     17205     17208     17209
     17206     17205     17208     17210     17206     17205     17208     17211
     17207     17205     17208     17209     17207     17205     17208     17210
     17207     17205     17208     17211     17208     17211     17214     17215
     17208     17211     17214     17216     17208     17211     17214     17217
     17209     17208     17211     17212     17209     17208     17211     17213
     17209     17208     17211     17214     17210     17208     17211     17212
     17210     17208     17211     17213     17210     17208     17211     17214
     17212     17211     17214     17215     17212     17211     17214     17216
     17212     17211     17214     17217     17213     17211     17214     17215
     17213     17211     17214     17216     17213     17211     17214     17217
     17218     17222     17225     17226     17218     17222     17225     17227
     17218     17222     17225     17232     17219     17218     17222     17223
     17219     17218     17222     17224     17219     17218     17222     17225
     17220     17218     17222     17223     17220     17218     17222     17224
     17220     17218     17222     17225     17221     17218     17222     17223
     17221     17218     17222     17224     17221     17218     17222     17225
     17222     17225     17232     17228     17223     17222     17225     17226
     17223     17222     17225     17227     17223     17222     17225     17232
     17224     17222     17225     17226     17224     17222     17225     17227
     17224     17222     17225     17232     17225     17232     17228     17229
     17225     17232     17228     17230     17225     17232     17228     17231
     17226     17225     17232     17228     17227     17225     17232     17228
     17228     17231     17233     17234     17228     17231     17233     17235
     17228     17231     17233     17236     17229     17228     17231     17233
     17230     17228     17231     17233     17231     17233     17236     17237
     17231     17233     17236     17238     17231     17233     17236     17244
     17232     17228     17231     17233     17233     17236     17238     17239
     17233     17236     17244     17245     17233     17236     17244     17246
     17233     17236     17244     17247     17234     17233     17236     17237
     17234     17233     17236     17238     17234     17233     17236     17244
     17235     17233     17236     17237     17235     17233     17236     17238
     17235     17233     17236     17244     17236     17238     17239     17240
     17236     17238     17239     17241     17236     17244     17247     17248
     17237     17236     17238     17239     17237     17236     17244     17245
     17237     17236     17244     17246     17237     17236     17244     17247
     17238     17236     17244     17245     17238     17236     17244     17246
     17238     17236     17244     17247     17238     17239     17241     17242
     17238     17239     17241     17243     17238     17239     17241     17253
     17239     17238     17236     17244     17239     17241     17253     17254
     17239     17241     17253     17255     17239     17241     17253     17256
     17240     17239     17241     17242     17240     17239     17241     17243
     17240     17239     17241     17253     17241     17253     17256     17257
     17241     17253     17256     17258     17241     17253     17256     17259
     17242     17241     17253     17254     17242     17241     17253     17255
     17242     17241     17253     17256     17243     17241     17253     17254
     17243     17241     17253     17255     17243     17241     17253     17256
     17244     17247     17248     17249     17244     17247     17248     17250
     17245     17244     17247     17248     17246     17244     17247     17248
     17247     17248     17250     17251     17247     17248     17250     17252
     17247     17248     17250     17297     17248     17250     17297     17298
     17248     17250     17297     17299     17248     17250     17297     17300
     17249     17248     17250     17251     17249     17248     17250     17252
     17249     17248     17250     17297     17250     17297     17300     17301
     17250     17297     17300     17302     17250     17297     17300     17303
     17251     17250     17297     17298     17251     17250     17297     17299
     17251     17250     17297     17300     17252     17250     17297     17298
     17252     17250     17297     17299     17252     17250     17297     17300
     17253     17256     17259     17260     17253     17256     17259     17261
     17253     17256     17259     17262     17254     17253     17256     17257
     17254     17253     17256     17258     17254     17253     17256     17259
     17255     17253     17256     17257     17255     17253     17256     17258
     17255     17253     17256     17259     17256     17259     17262     17263
     17256     17259     17262     17264     17256     17259     17262     17265
     17257     17256     17259     17260     17257     17256     17259     17261
     17257     17256     17259     17262     17258     17256     17259     17260
     17258     17256     17259     17261     17258     17256     17259     17262
     17259     17262     17265     17266     17259     17262     17265     17267
     17259     17262     17265     17268     17260     17259     17262     17263
     17260     17259     17262     17264     17260     17259     17262     17265
     17261     17259     17262     17263     17261     17259     17262     17264
     17261     17259     17262     17265     17262     17265     17268     17269
     17262     17265     17268     17270     17262     17265     17268     17271
     17263     17262     17265     17266     17263     17262     17265     17267
     17263     17262     17265     17268     17264     17262     17265     17266
     17264     17262     17265     17267     17264     17262     17265     17268
     17265     17268     17271     17272     17265     17268     17271     17273
     17265     17268     17271     17276     17266     17265     17268     17269
     17266     17265     17268     17270     17266     17265     17268     17271
     17267     17265     17268     17269     17267     17265     17268     17270
     17267     17265     17268     17271     17268     17271     17273     17274
     17268     17271     17273     17275     17268     17271     17273     17276
     17268     17271     17276     17273     17268     17271     17276     17277
     17268     17271     17276     17278     17269     17268     17271     17272
     17269     17268     17271     17273     17269     17268     17271     17276
     17270     17268     17271     17272     17270     17268     17271     17273
     17270     17268     17271     17276     17271     17273     17276     17277
     17271     17273     17276     17278     17271     17276     17273     17274
     17271     17276     17273     17275     17271     17276     17278     17279
     17271     17276     17278     17280     17271     17276     17278     17281
     17272     17271     17273     17274     17272     17271     17273     17275
     17272     17271     17273     17276     17272     17271     17276     17273
     17272     17271     17276     17277     17272     17271     17276     17278
     17273     17271     17276     17277     17273     17271     17276     17278
     17273     17276     17278     17279     17273     17276     17278     17280
     17273     17276     17278     17281     17274     17273     17271     17276
     17274     17273     17276     17277     17274     17273     17276     17278
     17275     17273     17271     17276     17275     17273     17276     17277
     17275     17273     17276     17278     17276     17278     17281     17282
     17276     17278     17281     17283     17276     17278     17281     17284
     17277     17276     17278     17279     17277     17276     17278     17280
     17277     17276     17278     17281     17278     17281     17284     17285
     17278     17281     17284     17286     17278     17281     17284     17287
     17279     17278     17281     17282     17279     17278     17281     17283
     17279     17278     17281     17284     17280     17278     17281     17282
     17280     17278     17281     17283     17280     17278     17281     17284
     17281     17284     17287     17288     17281     17284     17287     17289
     17281     17284     17287     17290     17282     17281     17284     17285
     17282     17281     17284     17286     17282     17281     17284     17287
     17283     17281     17284     17285     17283     17281     17284     17286
     17283     17281     17284     17287     17284     17287     17290     17291
     17284     17287     17290     17292     17284     17287     17290     17293
     17285     17284     17287     17288     17285     17284     17287     17289
     17285     17284     17287     17290     17286     17284     17287     17288
     17286     17284     17287     17289     17286     17284     17287     17290
     17287     17290     17293     17294     17287     17290     17293     17295
     17287     17290     17293     17296     17288     17287     17290     17291
     17288     17287     17290     17292     17288     17287     17290     17293
     17289     17287     17290     17291     17289     17287     17290     17292
     17289     17287     17290     17293     17291     17290     17293     17294
     17291     17290     17293     17295     17291     17290     17293     17296
     17292     17290     17293     17294     17292     17290     17293     17295
     17292     17290     17293     17296     17297     17300     17303     17304
     17297     17300     17303     17305     17297     17300     17303     17306
     17298     17297     17300     17301     17298     17297     17300     17302
     17298     17297     17300     17303     17299     17297     17300     17301
     17299     17297     17300     17302     17299     17297     17300     17303
     17300     17303     17306     17307     17300     17303     17306     17308
     17300     17303     17306     17309     17301     17300     17303     17304
     17301     17300     17303     17305     17301     17300     17303     17306
     17302     17300     17303     17304     17302     17300     17303     17305
     17302     17300     17303     17306     17303     17306     17309     17310
     17303     17306     17309     17311     17303     17306     17309     17312
     17304     17303     17306     17307     17304     17303     17306     17308
     17304     17303     17306     17309     17305     17303     17306     17307
     17305     17303     17306     17308     17305     17303     17306     17309
     17306     17309     17312     17313     17306     17309     17312     17314
     17306     17309     17312     17315     17307     17306     17309     17310
     17307     17306     17309     17311     17307     17306     17309     17312
     17308     17306     17309     17310     17308     17306     17309     17311
     17308     17306     17309     17312     17309     17312     17315     17316
     17309     17312     17315     17317     17309     17312     17315     17318
     17310     17309     17312     17313     17310     17309     17312     17314
     17310     17309     17312     17315     17311     17309     17312     17313
     17311     17309     17312     17314     17311     17309     17312     17315
     17312     17315     17318     17319     17312     17315     17318     17320
     17312     17315     17318     17321     17313     17312     17315     17316
     17313     17312     17315     17317     17313     17312     17315     17318
     17314     17312     17315     17316     17314     17312     17315     17317
     17314     17312     17315     17318     17315     17318     17321     17322
     17315     17318     17321     17323     17315     17318     17321     17324
     17316     17315     17318     17319     17316     17315     17318     17320
     17316     17315     17318     17321     17317     17315     17318     17319
     17317     17315     17318     17320     17317     17315     17318     17321
     17318     17321     17324     17325     17318     17321     17324     17326
     17318     17321     17324     17327     17319     17318     17321     17322
     17319     17318     17321     17323     17319     17318     17321     17324
     17320     17318     17321     17322     17320     17318     17321     17323
     17320     17318     17321     17324     17321     17324     17327     17328
     17321     17324     17327     17329     17321     17324     17327     17330
     17322     17321     17324     17325     17322     17321     17324     17326
     17322     17321     17324     17327     17323     17321     17324     17325
     17323     17321     17324     17326     17323     17321     17324     17327
     17324     17327     17330     17331     17324     17327     17330     17332
     17324     17327     17330     17333     17325     17324     17327     17328
     17325     17324     17327     17329     17325     17324     17327     17330
     17326     17324     17327     17328     17326     17324     17327     17329
     17326     17324     17327     17330     17327     17330     17333     17334
     17327     17330     17333     17335     17327     17330     17333     17336
     17328     17327     17330     17331     17328     17327     17330     17332
     17328     17327     17330     17333     17329     17327     17330     17331
     17329     17327     17330     17332     17329     17327     17330     17333
     17330     17333     17336     17337     17330     17333     17336     17338
     17330     17333     17336     17339     17331     17330     17333     17334
     17331     17330     17333     17335     17331     17330     17333     17336
     17332     17330     17333     17334     17332     17330     17333     17335
     17332     17330     17333     17336     17334     17333     17336     17337
     17334     17333     17336     17338     17334     17333     17336     17339
     17335     17333     17336     17337     17335     17333     17336     17338
     17335     17333     17336     17339     17340     17345     17347     17348
     17340     17345     17349     17350     17340     17345     17349     17351
     17340     17345     17349     17356     17341     17340     17343     17344
     17341     17340     17345     17346     17341     17340     17345     17347
     17341     17340     17345     17349     17342     17340     17343     17344
     17342     17340     17345     17346     17342     17340     17345     17347
     17342     17340     17345     17349     17343     17340     17345     17346
     17343     17340     17345     17347     17343     17340     17345     17349
     17344     17343     17340     17345     17345     17349     17356     17352
     17346     17345     17347     17348     17346     17345     17349     17350
     17346     17345     17349     17351     17346     17345     17349     17356
     17347     17345     17349     17350     17347     17345     17349     17351
     17347     17345     17349     17356     17348     17347     17345     17349
     17349     17356     17352     17353     17349     17356     17352     17354
     17349     17356     17352     17355     17350     17349     17356     17352
     17351     17349     17356     17352     17352     17355     17357     17358
     17352     17355     17357     17359     17352     17355     17357     17360
     17353     17352     17355     17357     17354     17352     17355     17357
     17355     17357     17360     17361     17355     17357     17360     17362
     17355     17357     17360     17368     17356     17352     17355     17357
     17357     17360     17362     17363     17357     17360     17368     17369
     17357     17360     17368     17370     17357     17360     17368     17371
     17358     17357     17360     17361     17358     17357     17360     17362
     17358     17357     17360     17368     17359     17357     17360     17361
     17359     17357     17360     17362     17359     17357     17360     17368
     17360     17362     17363     17364     17360     17362     17363     17365
     17360     17368     17371     17372     17361     17360     17362     17363
     17361     17360     17368     17369     17361     17360     17368     17370
     17361     17360     17368     17371     17362     17360     17368     17369
     17362     17360     17368     17370     17362     17360     17368     17371
     17362     17363     17365     17366     17362     17363     17365     17367
     17362     17363     17365     17377     17363     17362     17360     17368
     17363     17365     17377     17378     17363     17365     17377     17379
     17363     17365     17377     17380     17364     17363     17365     17366
     17364     17363     17365     17367     17364     17363     17365     17377
     17365     17377     17380     17381     17365     17377     17380     17382
     17365     17377     17380     17383     17366     17365     17377     17378
     17366     17365     17377     17379     17366     17365     17377     17380
     17367     17365     17377     17378     17367     17365     17377     17379
     17367     17365     17377     17380     17368     17371     17372     17373
     17368     17371     17372     17374     17369     17368     17371     17372
     17370     17368     17371     17372     17371     17372     17374     17375
     17371     17372     17374     17376     17371     17372     17374     17421
     17372     17374     17421     17422     17372     17374     17421     17423
     17372     17374     17421     17424     17373     17372     17374     17375
     17373     17372     17374     17376     17373     17372     17374     17421
     17374     17421     17424     17425     17374     17421     17424     17426
     17374     17421     17424     17427     17375     17374     17421     17422
     17375     17374     17421     17423     17375     17374     17421     17424
     17376     17374     17421     17422     17376     17374     17421     17423
     17376     17374     17421     17424     17377     17380     17383     17384
     17377     17380     17383     17385     17377     17380     17383     17386
     17378     17377     17380     17381     17378     17377     17380     17382
     17378     17377     17380     17383     17379     17377     17380     17381
     17379     17377     17380     17382     17379     17377     17380     17383
     17380     17383     17386     17387     17380     17383     17386     17388
     17380     17383     17386     17389     17381     17380     17383     17384
     17381     17380     17383     17385     17381     17380     17383     17386
     17382     17380     17383     17384     17382     17380     17383     17385
     17382     17380     17383     17386     17383     17386     17389     17390
     17383     17386     17389     17391     17383     17386     17389     17392
     17384     17383     17386     17387     17384     17383     17386     17388
     17384     17383     17386     17389     17385     17383     17386     17387
     17385     17383     17386     17388     17385     17383     17386     17389
     17386     17389     17392     17393     17386     17389     17392     17394
     17386     17389     17392     17395     17387     17386     17389     17390
     17387     17386     17389     17391     17387     17386     17389     17392
     17388     17386     17389     17390     17388     17386     17389     17391
     17388     17386     17389     17392     17389     17392     17395     17396
     17389     17392     17395     17397     17389     17392     17395     17400
     17390     17389     17392     17393     17390     17389     17392     17394
     17390     17389     17392     17395     17391     17389     17392     17393
     17391     17389     17392     17394     17391     17389     17392     17395
     17392     17395     17397     17398     17392     17395     17397     17399
     17392     17395     17397     17400     17392     17395     17400     17397
     17392     17395     17400     17401     17392     17395     17400     17402
     17393     17392     17395     17396     17393     17392     17395     17397
     17393     17392     17395     17400     17394     17392     17395     17396
     17394     17392     17395     17397     17394     17392     17395     17400
     17395     17397     17400     17401     17395     17397     17400     17402
     17395     17400     17397     17398     17395     17400     17397     17399
     17395     17400     17402     17403     17395     17400     17402     17404
     17395     17400     17402     17405     17396     17395     17397     17398
     17396     17395     17397     17399     17396     17395     17397     17400
     17396     17395     17400     17397     17396     17395     17400     17401
     17396     17395     17400     17402     17397     17395     17400     17401
     17397     17395     17400     17402     17397     17400     17402     17403
     17397     17400     17402     17404     17397     17400     17402     17405
     17398     17397     17395     17400     17398     17397     17400     17401
     17398     17397     17400     17402     17399     17397     17395     17400
     17399     17397     17400     17401     17399     17397     17400     17402
     17400     17402     17405     17406     17400     17402     17405     17407
     17400     17402     17405     17408     17401     17400     17402     17403
     17401     17400     17402     17404     17401     17400     17402     17405
     17402     17405     17408     17409     17402     17405     17408     17410
     17402     17405     17408     17411     17403     17402     17405     17406
     17403     17402     17405     17407     17403     17402     17405     17408
     17404     17402     17405     17406     17404     17402     17405     17407
     17404     17402     17405     17408     17405     17408     17411     17412
     17405     17408     17411     17413     17405     17408     17411     17414
     17406     17405     17408     17409     17406     17405     17408     17410
     17406     17405     17408     17411     17407     17405     17408     17409
     17407     17405     17408     17410     17407     17405     17408     17411
     17408     17411     17414     17415     17408     17411     17414     17416
     17408     17411     17414     17417     17409     17408     17411     17412
     17409     17408     17411     17413     17409     17408     17411     17414
     17410     17408     17411     17412     17410     17408     17411     17413
     17410     17408     17411     17414     17411     17414     17417     17418
     17411     17414     17417     17419     17411     17414     17417     17420
     17412     17411     17414     17415     17412     17411     17414     17416
     17412     17411     17414     17417     17413     17411     17414     17415
     17413     17411     17414     17416     17413     17411     17414     17417
     17415     17414     17417     17418     17415     17414     17417     17419
     17415     17414     17417     17420     17416     17414     17417     17418
     17416     17414     17417     17419     17416     17414     17417     17420
     17421     17424     17427     17428     17421     17424     17427     17429
     17421     17424     17427     17430     17422     17421     17424     17425
     17422     17421     17424     17426     17422     17421     17424     17427
     17423     17421     17424     17425     17423     17421     17424     17426
     17423     17421     17424     17427     17424     17427     17430     17431
     17424     17427     17430     17432     17424     17427     17430     17433
     17425     17424     17427     17428     17425     17424     17427     17429
     17425     17424     17427     17430     17426     17424     17427     17428
     17426     17424     17427     17429     17426     17424     17427     17430
     17427     17430     17433     17434     17427     17430     17433     17435
     17427     17430     17433     17436     17428     17427     17430     17431
     17428     17427     17430     17432     17428     17427     17430     17433
     17429     17427     17430     17431     17429     17427     17430     17432
     17429     17427     17430     17433     17430     17433     17436     17437
     17430     17433     17436     17438     17430     17433     17436     17439
     17431     17430     17433     17434     17431     17430     17433     17435
     17431     17430     17433     17436     17432     17430     17433     17434
     17432     17430     17433     17435     17432     17430     17433     17436
     17433     17436     17439     17440     17433     17436     17439     17441
     17433     17436     17439     17442     17434     17433     17436     17437
     17434     17433     17436     17438     17434     17433     17436     17439
     17435     17433     17436     17437     17435     17433     17436     17438
     17435     17433     17436     17439     17436     17439     17442     17443
     17436     17439     17442     17444     17436     17439     17442     17445
     17437     17436     17439     17440     17437     17436     17439     17441
     17437     17436     17439     17442     17438     17436     17439     17440
     17438     17436     17439     17441     17438     17436     17439     17442
     17439     17442     17445     17446     17439     17442     17445     17447
     17439     17442     17445     17448     17440     17439     17442     17443
     17440     17439     17442     17444     17440     17439     17442     17445
     17441     17439     17442     17443     17441     17439     17442     17444
     17441     17439     17442     17445     17442     17445     17448     17449
     17442     17445     17448     17450     17442     17445     17448     17451
     17443     17442     17445     17446     17443     17442     17445     17447
     17443     17442     17445     17448     17444     17442     17445     17446
     17444     17442     17445     17447     17444     17442     17445     17448
     17445     17448     17451     17452     17445     17448     17451     17453
     17445     17448     17451     17454     17446     17445     17448     17449
     17446     17445     17448     17450     17446     17445     17448     17451
     17447     17445     17448     17449     17447     17445     17448     17450
     17447     17445     17448     17451     17448     17451     17454     17455
     17448     17451     17454     17456     17448     17451     17454     17457
     17449     17448     17451     17452     17449     17448     17451     17453
     17449     17448     17451     17454     17450     17448     17451     17452
     17450     17448     17451     17453     17450     17448     17451     17454
     17451     17454     17457     17458     17451     17454     17457     17459
     17451     17454     17457     17460     17452     17451     17454     17455
     17452     17451     17454     17456     17452     17451     17454     17457
     17453     17451     17454     17455     17453     17451     17454     17456
     17453     17451     17454     17457     17454     17457     17460     17461
     17454     17457     17460     17462     17454     17457     17460     17463
     17455     17454     17457     17458     17455     17454     17457     17459
     17455     17454     17457     17460     17456     17454     17457     17458
     17456     17454     17457     17459     17456     17454     17457     17460
     17458     17457     17460     17461     17458     17457     17460     17462
     17458     17457     17460     17463     17459     17457     17460     17461
     17459     17457     17460     17462     17459     17457     17460     17463
     17464     17468     17471     17472     17464     17468     17471     17473
     17464     17468     17471     17478     17465     17464     17468     17469
     17465     17464     17468     17470     17465     17464     17468     17471
     17466     17464     17468     17469     17466     17464     17468     17470
     17466     17464     17468     17471     17467     17464     17468     17469
     17467     17464     17468     17470     17467     17464     17468     17471
     17468     17471     17478     17474     17469     17468     17471     17472
     17469     17468     17471     17473     17469     17468     17471     17478
     17470     17468     17471     17472     17470     17468     17471     17473
     17470     17468     17471     17478     17471     17478     17474     17475
     17471     17478     17474     17476     17471     17478     17474     17477
     17472     17471     17478     17474     17473     17471     17478     17474
     17474     17477     17479     17480     17474     17477     17479     17481
     17474     17477     17479     17482     17475     17474     17477     17479
     17476     17474     17477     17479     17477     17479     17482     17483
     17477     17479     17482     17484     17477     17479     17482     17490
     17478     17474     17477     17479     17479     17482     17484     17485
     17479     17482     17490     17491     17479     17482     17490     17492
     17479     17482     17490     17493     17480     17479     17482     17483
     17480     17479     17482     17484     17480     17479     17482     17490
     17481     17479     17482     17483     17481     17479     17482     17484
     17481     17479     17482     17490     17482     17484     17485     17486
     17482     17484     17485     17487     17482     17490     17493     17494
     17483     17482     17484     17485     17483     17482     17490     17491
     17483     17482     17490     17492     17483     17482     17490     17493
     17484     17482     17490     17491     17484     17482     17490     17492
     17484     17482     17490     17493     17484     17485     17487     17488
     17484     17485     17487     17489     17484     17485     17487     17499
     17485     17484     17482     17490     17485     17487     17499     17500
     17485     17487     17499     17501     17485     17487     17499     17502
     17486     17485     17487     17488     17486     17485     17487     17489
     17486     17485     17487     17499     17487     17499     17502     17503
     17487     17499     17502     17504     17487     17499     17502     17505
     17488     17487     17499     17500     17488     17487     17499     17501
     17488     17487     17499     17502     17489     17487     17499     17500
     17489     17487     17499     17501     17489     17487     17499     17502
     17490     17493     17494     17495     17490     17493     17494     17496
     17491     17490     17493     17494     17492     17490     17493     17494
     17493     17494     17496     17497     17493     17494     17496     17498
     17493     17494     17496     17543     17494     17496     17543     17544
     17494     17496     17543     17545     17494     17496     17543     17546
     17495     17494     17496     17497     17495     17494     17496     17498
     17495     17494     17496     17543     17496     17543     17546     17547
     17496     17543     17546     17548     17496     17543     17546     17549
     17497     17496     17543     17544     17497     17496     17543     17545
     17497     17496     17543     17546     17498     17496     17543     17544
     17498     17496     17543     17545     17498     17496     17543     17546
     17499     17502     17505     17506     17499     17502     17505     17507
     17499     17502     17505     17508     17500     17499     17502     17503
     17500     17499     17502     17504     17500     17499     17502     17505
     17501     17499     17502     17503     17501     17499     17502     17504
     17501     17499     17502     17505     17502     17505     17508     17509
     17502     17505     17508     17510     17502     17505     17508     17511
     17503     17502     17505     17506     17503     17502     17505     17507
     17503     17502     17505     17508     17504     17502     17505     17506
     17504     17502     17505     17507     17504     17502     17505     17508
     17505     17508     17511     17512     17505     17508     17511     17513
     17505     17508     17511     17514     17506     17505     17508     17509
     17506     17505     17508     17510     17506     17505     17508     17511
     17507     17505     17508     17509     17507     17505     17508     17510
     17507     17505     17508     17511     17508     17511     17514     17515
     17508     17511     17514     17516     17508     17511     17514     17517
     17509     17508     17511     17512     17509     17508     17511     17513
     17509     17508     17511     17514     17510     17508     17511     17512
     17510     17508     17511     17513     17510     17508     17511     17514
     17511     17514     17517     17518     17511     17514     17517     17519
     17511     17514     17517     17522     17512     17511     17514     17515
     17512     17511     17514     17516     17512     17511     17514     17517
     17513     17511     17514     17515     17513     17511     17514     17516
     17513     17511     17514     17517     17514     17517     17519     17520
     17514     17517     17519     17521     17514     17517     17519     17522
     17514     17517     17522     17519     17514     17517     17522     17523
     17514     17517     17522     17524     17515     17514     17517     17518
     17515     17514     17517     17519     17515     17514     17517     17522
     17516     17514     17517     17518     17516     17514     17517     17519
     17516     17514     17517     17522     17517     17519     17522     17523
     17517     17519     17522     17524     17517     17522     17519     17520
     17517     17522     17519     17521     17517     17522     17524     17525
     17517     17522     17524     17526     17517     17522     17524     17527
     17518     17517     17519     17520     17518     17517     17519     17521
     17518     17517     17519     17522     17518     17517     17522     17519
     17518     17517     17522     17523     17518     17517     17522     17524
     17519     17517     17522     17523     17519     17517     17522     17524
     17519     17522     17524     17525     17519     17522     17524     17526
     17519     17522     17524     17527     17520     17519     17517     17522
     17520     17519     17522     17523     17520     17519     17522     17524
     17521     17519     17517     17522     17521     17519     17522     17523
     17521     17519     17522     17524     17522     17524     17527     17528
     17522     17524     17527     17529     17522     17524     17527     17530
     17523     17522     17524     17525     17523     17522     17524     17526
     17523     17522     17524     17527     17524     17527     17530     17531
     17524     17527     17530     17532     17524     17527     17530     17533
     17525     17524     17527     17528     17525     17524     17527     17529
     17525     17524     17527     17530     17526     17524     17527     17528
     17526     17524     17527     17529     17526     17524     17527     17530
     17527     17530     17533     17534     17527     17530     17533     17535
     17527     17530     17533     17536     17528     17527     17530     17531
     17528     17527     17530     17532     17528     17527     17530     17533
     17529     17527     17530     17531     17529     17527     17530     17532
     17529     17527     17530     17533     17530     17533     17536     17537
     17530     17533     17536     17538     17530     17533     17536     17539
     17531     17530     17533     17534     17531     17530     17533     17535
     17531     17530     17533     17536     17532     17530     17533     17534
     17532     17530     17533     17535     17532     17530     17533     17536
     17533     17536     17539     17540     17533     17536     17539     17541
     17533     17536     17539     17542     17534     17533     17536     17537
     17534     17533     17536     17538     17534     17533     17536     17539
     17535     17533     17536     17537     17535     17533     17536     17538
     17535     17533     17536     17539     17537     17536     17539     17540
     17537     17536     17539     17541     17537     17536     17539     17542
     17538     17536     17539     17540     17538     17536     17539     17541
     17538     17536     17539     17542     17543     17546     17549     17550
     17543     17546     17549     17551     17543     17546     17549     17552
     17544     17543     17546     17547     17544     17543     17546     17548
     17544     17543     17546     17549     17545     17543     17546     17547
     17545     17543     17546     17548     17545     17543     17546     17549
     17546     17549     17552     17553     17546     17549     17552     17554
     17546     17549     17552     17555     17547     17546     17549     17550
     17547     17546     17549     17551     17547     17546     17549     17552
     17548     17546     17549     17550     17548     17546     17549     17551
     17548     17546     17549     17552     17549     17552     17555     17556
     17549     17552     17555     17557     17549     17552     17555     17558
     17550     17549     17552     17553     17550     17549     17552     17554
     17550     17549     17552     17555     17551     17549     17552     17553
     17551     17549     17552     17554     17551     17549     17552     17555
     17552     17555     17558     17559     17552     17555     17558     17560
     17552     17555     17558     17561     17553     17552     17555     17556
     17553     17552     17555     17557     17553     17552     17555     17558
     17554     17552     17555     17556     17554     17552     17555     17557
     17554     17552     17555     17558     17555     17558     17561     17562
     17555     17558     17561     17563     17555     17558     17561     17564
     17556     17555     17558     17559     17556     17555     17558     17560
     17556     17555     17558     17561     17557     17555     17558     17559
     17557     17555     17558     17560     17557     17555     17558     17561
     17558     17561     17564     17565     17558     17561     17564     17566
     17558     17561     17564     17567     17559     17558     17561     17562
     17559     17558     17561     17563     17559     17558     17561     17564
     17560     17558     17561     17562     17560     17558     17561     17563
     17560     17558     17561     17564     17561     17564     17567     17568
     17561     17564     17567     17569     17561     17564     17567     17570
     17562     17561     17564     17565     17562     17561     17564     17566
     17562     17561     17564     17567     17563     17561     17564     17565
     17563     17561     17564     17566     17563     17561     17564     17567
     17564     17567     17570     17571     17564     17567     17570     17572
     17564     17567     17570     17573     17565     17564     17567     17568
     17565     17564     17567     17569     17565     17564     17567     17570
     17566     17564     17567     17568     17566     17564     17567     17569
     17566     17564     17567     17570     17567     17570     17573     17574
     17567     17570     17573     17575     17567     17570     17573     17576
     17568     17567     17570     17571     17568     17567     17570     17572
     17568     17567     17570     17573     17569     17567     17570     17571
     17569     17567     17570     17572     17569     17567     17570     17573
     17570     17573     17576     17577     17570     17573     17576     17578
     17570     17573     17576     17579     17571     17570     17573     17574
     17571     17570     17573     17575     17571     17570     17573     17576
     17572     17570     17573     17574     17572     17570     17573     17575
     17572     17570     17573     17576     17573     17576     17579     17580
     17573     17576     17579     17581     17573     17576     17579     17582
     17574     17573     17576     17577     17574     17573     17576     17578
     17574     17573     17576     17579     17575     17573     17576     17577
     17575     17573     17576     17578     17575     17573     17576     17579
     17576     17579     17582     17583     17576     17579     17582     17584
     17576     17579     17582     17585     17577     17576     17579     17580
     17577     17576     17579     17581     17577     17576     17579     17582
     17578     17576     17579     17580     17578     17576     17579     17581
     17578     17576     17579     17582     17580     17579     17582     17583
     17580     17579     17582     17584     17580     17579     17582     17585
     17581     17579     17582     17583     17581     17579     17582     17584
     17581     17579     17582     17585     17586     17591     17593     17594
     17586     17591     17595     17596     17586     17591     17595     17597
     17586     17591     17595     17602     17587     17586     17589     17590
     17587     17586     17591     17592     17587     17586     17591     17593
     17587     17586     17591     17595     17588     17586     17589     17590
     17588     17586     17591     17592     17588     17586     17591     17593
     17588     17586     17591     17595     17589     17586     17591     17592
     17589     17586     17591     17593     17589     17586     17591     17595
     17590     17589     17586     17591     17591     17595     17602     17598
     17592     17591     17593     17594     17592     17591     17595     17596
     17592     17591     17595     17597     17592     17591     17595     17602
     17593     17591     17595     17596     17593     17591     17595     17597
     17593     17591     17595     17602     17594     17593     17591     17595
     17595     17602     17598     17599     17595     17602     17598     17600
     17595     17602     17598     17601     17596     17595     17602     17598
     17597     17595     17602     17598     17598     17601     17603     17604
     17598     17601     17603     17605     17598     17601     17603     17606
     17599     17598     17601     17603     17600     17598     17601     17603
     17601     17603     17606     17607     17601     17603     17606     17608
     17601     17603     17606     17614     17602     17598     17601     17603
     17603     17606     17608     17609     17603     17606     17614     17615
     17603     17606     17614     17616     17603     17606     17614     17617
     17604     17603     17606     17607     17604     17603     17606     17608
     17604     17603     17606     17614     17605     17603     17606     17607
     17605     17603     17606     17608     17605     17603     17606     17614
     17606     17608     17609     17610     17606     17608     17609     17611
     17606     17614     17617     17618     17607     17606     17608     17609
     17607     17606     17614     17615     17607     17606     17614     17616
     17607     17606     17614     17617     17608     17606     17614     17615
     17608     17606     17614     17616     17608     17606     17614     17617
     17608     17609     17611     17612     17608     17609     17611     17613
     17608     17609     17611     17623     17609     17608     17606     17614
     17609     17611     17623     17624     17609     17611     17623     17625
     17609     17611     17623     17626     17610     17609     17611     17612
     17610     17609     17611     17613     17610     17609     17611     17623
     17611     17623     17626     17627     17611     17623     17626     17628
     17611     17623     17626     17629     17612     17611     17623     17624
     17612     17611     17623     17625     17612     17611     17623     17626
     17613     17611     17623     17624     17613     17611     17623     17625
     17613     17611     17623     17626     17614     17617     17618     17619
     17614     17617     17618     17620     17615     17614     17617     17618
     17616     17614     17617     17618     17617     17618     17620     17621
     17617     17618     17620     17622     17617     17618     17620     17667
     17618     17620     17667     17668     17618     17620     17667     17669
     17618     17620     17667     17670     17619     17618     17620     17621
     17619     17618     17620     17622     17619     17618     17620     17667
     17620     17667     17670     17671     17620     17667     17670     17672
     17620     17667     17670     17673     17621     17620     17667     17668
     17621     17620     17667     17669     17621     17620     17667     17670
     17622     17620     17667     17668     17622     17620     17667     17669
     17622     17620     17667     17670     17623     17626     17629     17630
     17623     17626     17629     17631     17623     17626     17629     17632
     17624     17623     17626     17627     17624     17623     17626     17628
     17624     17623     17626     17629     17625     17623     17626     17627
     17625     17623     17626     17628     17625     17623     17626     17629
     17626     17629     17632     17633     17626     17629     17632     17634
     17626     17629     17632     17635     17627     17626     17629     17630
     17627     17626     17629     17631     17627     17626     17629     17632
     17628     17626     17629     17630     17628     17626     17629     17631
     17628     17626     17629     17632     17629     17632     17635     17636
     17629     17632     17635     17637     17629     17632     17635     17638
     17630     17629     17632     17633     17630     17629     17632     17634
     17630     17629     17632     17635     17631     17629     17632     17633
     17631     17629     17632     17634     17631     17629     17632     17635
     17632     17635     17638     17639     17632     17635     17638     17640
     17632     17635     17638     17641     17633     17632     17635     17636
     17633     17632     17635     17637     17633     17632     17635     17638
     17634     17632     17635     17636     17634     17632     17635     17637
     17634     17632     17635     17638     17635     17638     17641     17642
     17635     17638     17641     17643     17635     17638     17641     17646
     17636     17635     17638     17639     17636     17635     17638     17640
     17636     17635     17638     17641     17637     17635     17638     17639
     17637     17635     17638     17640     17637     17635     17638     17641
     17638     17641     17643     17644     17638     17641     17643     17645
     17638     17641     17643     17646     17638     17641     17646     17643
     17638     17641     17646     17647     17638     17641     17646     17648
     17639     17638     17641     17642     17639     17638     17641     17643
     17639     17638     17641     17646     17640     17638     17641     17642
     17640     17638     17641     17643     17640     17638     17641     17646
     17641     17643     17646     17647     17641     17643     17646     17648
     17641     17646     17643     17644     17641     17646     17643     17645
     17641     17646     17648     17649     17641     17646     17648     17650
     17641     17646     17648     17651     17642     17641     17643     17644
     17642     17641     17643     17645     17642     17641     17643     17646
     17642     17641     17646     17643     17642     17641     17646     17647
     17642     17641     17646     17648     17643     17641     17646     17647
     17643     17641     17646     17648     17643     17646     17648     17649
     17643     17646     17648     17650     17643     17646     17648     17651
     17644     17643     17641     17646     17644     17643     17646     17647
     17644     17643     17646     17648     17645     17643     17641     17646
     17645     17643     17646     17647     17645     17643     17646     17648
     17646     17648     17651     17652     17646     17648     17651     17653
     17646     17648     17651     17654     17647     17646     17648     17649
     17647     17646     17648     17650     17647     17646     17648     17651
     17648     17651     17654     17655     17648     17651     17654     17656
     17648     17651     17654     17657     17649     17648     17651     17652
     17649     17648     17651     17653     17649     17648     17651     17654
     17650     17648     17651     17652     17650     17648     17651     17653
     17650     17648     17651     17654     17651     17654     17657     17658
     17651     17654     17657     17659     17651     17654     17657     17660
     17652     17651     17654     17655     17652     17651     17654     17656
     17652     17651     17654     17657     17653     17651     17654     17655
     17653     17651     17654     17656     17653     17651     17654     17657
     17654     17657     17660     17661     17654     17657     17660     17662
     17654     17657     17660     17663     17655     17654     17657     17658
     17655     17654     17657     17659     17655     17654     17657     17660
     17656     17654     17657     17658     17656     17654     17657     17659
     17656     17654     17657     17660     17657     17660     17663     17664
     17657     17660     17663     17665     17657     17660     17663     17666
     17658     17657     17660     17661     17658     17657     17660     17662
     17658     17657     17660     17663     17659     17657     17660     17661
     17659     17657     17660     17662     17659     17657     17660     17663
     17661     17660     17663     17664     17661     17660     17663     17665
     17661     17660     17663     17666     17662     17660     17663     17664
     17662     17660     17663     17665     17662     17660     17663     17666
     17667     17670     17673     17674     17667     17670     17673     17675
     17667     17670     17673     17676     17668     17667     17670     17671
     17668     17667     17670     17672     17668     17667     17670     17673
     17669     17667     17670     17671     17669     17667     17670     17672
     17669     17667     17670     17673     17670     17673     17676     17677
     17670     17673     17676     17678     17670     17673     17676     17679
     17671     17670     17673     17674     17671     17670     17673     17675
     17671     17670     17673     17676     17672     17670     17673     17674
     17672     17670     17673     17675     17672     17670     17673     17676
     17673     17676     17679     17680     17673     17676     17679     17681
     17673     17676     17679     17682     17674     17673     17676     17677
     17674     17673     17676     17678     17674     17673     17676     17679
     17675     17673     17676     17677     17675     17673     17676     17678
     17675     17673     17676     17679     17676     17679     17682     17683
     17676     17679     17682     17684     17676     17679     17682     17685
     17677     17676     17679     17680     17677     17676     17679     17681
     17677     17676     17679     17682     17678     17676     17679     17680
     17678     17676     17679     17681     17678     17676     17679     17682
     17679     17682     17685     17686     17679     17682     17685     17687
     17679     17682     17685     17688     17680     17679     17682     17683
     17680     17679     17682     17684     17680     17679     17682     17685
     17681     17679     17682     17683     17681     17679     17682     17684
     17681     17679     17682     17685     17682     17685     17688     17689
     17682     17685     17688     17690     17682     17685     17688     17691
     17683     17682     17685     17686     17683     17682     17685     17687
     17683     17682     17685     17688     17684     17682     17685     17686
     17684     17682     17685     17687     17684     17682     17685     17688
     17685     17688     17691     17692     17685     17688     17691     17693
     17685     17688     17691     17694     17686     17685     17688     17689
     17686     17685     17688     17690     17686     17685     17688     17691
     17687     17685     17688     17689     17687     17685     17688     17690
     17687     17685     17688     17691     17688     17691     17694     17695
     17688     17691     17694     17696     17688     17691     17694     17697
     17689     17688     17691     17692     17689     17688     17691     17693
     17689     17688     17691     17694     17690     17688     17691     17692
     17690     17688     17691     17693     17690     17688     17691     17694
     17691     17694     17697     17698     17691     17694     17697     17699
     17691     17694     17697     17700     17692     17691     17694     17695
     17692     17691     17694     17696     17692     17691     17694     17697
     17693     17691     17694     17695     17693     17691     17694     17696
     17693     17691     17694     17697     17694     17697     17700     17701
     17694     17697     17700     17702     17694     17697     17700     17703
     17695     17694     17697     17698     17695     17694     17697     17699
     17695     17694     17697     17700     17696     17694     17697     17698
     17696     17694     17697     17699     17696     17694     17697     17700
     17697     17700     17703     17704     17697     17700     17703     17705
     17697     17700     17703     17706     17698     17697     17700     17701
     17698     17697     17700     17702     17698     17697     17700     17703
     17699     17697     17700     17701     17699     17697     17700     17702
     17699     17697     17700     17703     17700     17703     17706     17707
     17700     17703     17706     17708     17700     17703     17706     17709
     17701     17700     17703     17704     17701     17700     17703     17705
     17701     17700     17703     17706     17702     17700     17703     17704
     17702     17700     17703     17705     17702     17700     17703     17706
     17704     17703     17706     17707     17704     17703     17706     17708
     17704     17703     17706     17709     17705     17703     17706     17707
     17705     17703     17706     17708     17705     17703     17706     17709
     17710     17714     17717     17718     17710     17714     17717     17719
     17710     17714     17717     17724     17711     17710     17714     17715
     17711     17710     17714     17716     17711     17710     17714     17717
     17712     17710     17714     17715     17712     17710     17714     17716
     17712     17710     17714     17717     17713     17710     17714     17715
     17713     17710     17714     17716     17713     17710     17714     17717
     17714     17717     17724     17720     17715     17714     17717     17718
     17715     17714     17717     17719     17715     17714     17717     17724
     17716     17714     17717     17718     17716     17714     17717     17719
     17716     17714     17717     17724     17717     17724     17720     17721
     17717     17724     17720     17722     17717     17724     17720     17723
     17718     17717     17724     17720     17719     17717     17724     17720
     17720     17723     17725     17726     17720     17723     17725     17727
     17720     17723     17725     17728     17721     17720     17723     17725
     17722     17720     17723     17725     17723     17725     17728     17729
     17723     17725     17728     17730     17723     17725     17728     17736
     17724     17720     17723     17725     17725     17728     17730     17731
     17725     17728     17736     17737     17725     17728     17736     17738
     17725     17728     17736     17739     17726     17725     17728     17729
     17726     17725     17728     17730     17726     17725     17728     17736
     17727     17725     17728     17729     17727     17725     17728     17730
     17727     17725     17728     17736     17728     17730     17731     17732
     17728     17730     17731     17733     17728     17736     17739     17740
     17729     17728     17730     17731     17729     17728     17736     17737
     17729     17728     17736     17738     17729     17728     17736     17739
     17730     17728     17736     17737     17730     17728     17736     17738
     17730     17728     17736     17739     17730     17731     17733     17734
     17730     17731     17733     17735     17730     17731     17733     17745
     17731     17730     17728     17736     17731     17733     17745     17746
     17731     17733     17745     17747     17731     17733     17745     17748
     17732     17731     17733     17734     17732     17731     17733     17735
     17732     17731     17733     17745     17733     17745     17748     17749
     17733     17745     17748     17750     17733     17745     17748     17751
     17734     17733     17745     17746     17734     17733     17745     17747
     17734     17733     17745     17748     17735     17733     17745     17746
     17735     17733     17745     17747     17735     17733     17745     17748
     17736     17739     17740     17741     17736     17739     17740     17742
     17737     17736     17739     17740     17738     17736     17739     17740
     17739     17740     17742     17743     17739     17740     17742     17744
     17739     17740     17742     17789     17740     17742     17789     17790
     17740     17742     17789     17791     17740     17742     17789     17792
     17741     17740     17742     17743     17741     17740     17742     17744
     17741     17740     17742     17789     17742     17789     17792     17793
     17742     17789     17792     17794     17742     17789     17792     17795
     17743     17742     17789     17790     17743     17742     17789     17791
     17743     17742     17789     17792     17744     17742     17789     17790
     17744     17742     17789     17791     17744     17742     17789     17792
     17745     17748     17751     17752     17745     17748     17751     17753
     17745     17748     17751     17754     17746     17745     17748     17749
     17746     17745     17748     17750     17746     17745     17748     17751
     17747     17745     17748     17749     17747     17745     17748     17750
     17747     17745     17748     17751     17748     17751     17754     17755
     17748     17751     17754     17756     17748     17751     17754     17757
     17749     17748     17751     17752     17749     17748     17751     17753
     17749     17748     17751     17754     17750     17748     17751     17752
     17750     17748     17751     17753     17750     17748     17751     17754
     17751     17754     17757     17758     17751     17754     17757     17759
     17751     17754     17757     17760     17752     17751     17754     17755
     17752     17751     17754     17756     17752     17751     17754     17757
     17753     17751     17754     17755     17753     17751     17754     17756
     17753     17751     17754     17757     17754     17757     17760     17761
     17754     17757     17760     17762     17754     17757     17760     17763
     17755     17754     17757     17758     17755     17754     17757     17759
     17755     17754     17757     17760     17756     17754     17757     17758
     17756     17754     17757     17759     17756     17754     17757     17760
     17757     17760     17763     17764     17757     17760     17763     17765
     17757     17760     17763     17768     17758     17757     17760     17761
     17758     17757     17760     17762     17758     17757     17760     17763
     17759     17757     17760     17761     17759     17757     17760     17762
     17759     17757     17760     17763     17760     17763     17765     17766
     17760     17763     17765     17767     17760     17763     17765     17768
     17760     17763     17768     17765     17760     17763     17768     17769
     17760     17763     17768     17770     17761     17760     17763     17764
     17761     17760     17763     17765     17761     17760     17763     17768
     17762     17760     17763     17764     17762     17760     17763     17765
     17762     17760     17763     17768     17763     17765     17768     17769
     17763     17765     17768     17770     17763     17768     17765     17766
     17763     17768     17765     17767     17763     17768     17770     17771
     17763     17768     17770     17772     17763     17768     17770     17773
     17764     17763     17765     17766     17764     17763     17765     17767
     17764     17763     17765     17768     17764     17763     17768     17765
     17764     17763     17768     17769     17764     17763     17768     17770
     17765     17763     17768     17769     17765     17763     17768     17770
     17765     17768     17770     17771     17765     17768     17770     17772
     17765     17768     17770     17773     17766     17765     17763     17768
     17766     17765     17768     17769     17766     17765     17768     17770
     17767     17765     17763     17768     17767     17765     17768     17769
     17767     17765     17768     17770     17768     17770     17773     17774
     17768     17770     17773     17775     17768     17770     17773     17776
     17769     17768     17770     17771     17769     17768     17770     17772
     17769     17768     17770     17773     17770     17773     17776     17777
     17770     17773     17776     17778     17770     17773     17776     17779
     17771     17770     17773     17774     17771     17770     17773     17775
     17771     17770     17773     17776     17772     17770     17773     17774
     17772     17770     17773     17775     17772     17770     17773     17776
     17773     17776     17779     17780     17773     17776     17779     17781
     17773     17776     17779     17782     17774     17773     17776     17777
     17774     17773     17776     17778     17774     17773     17776     17779
     17775     17773     17776     17777     17775     17773     17776     17778
     17775     17773     17776     17779     17776     17779     17782     17783
     17776     17779     17782     17784     17776     17779     17782     17785
     17777     17776     17779     17780     17777     17776     17779     17781
     17777     17776     17779     17782     17778     17776     17779     17780
     17778     17776     17779     17781     17778     17776     17779     17782
     17779     17782     17785     17786     17779     17782     17785     17787
     17779     17782     17785     17788     17780     17779     17782     17783
     17780     17779     17782     17784     17780     17779     17782     17785
     17781     17779     17782     17783     17781     17779     17782     17784
     17781     17779     17782     17785     17783     17782     17785     17786
     17783     17782     17785     17787     17783     17782     17785     17788
     17784     17782     17785     17786     17784     17782     17785     17787
     17784     17782     17785     17788     17789     17792     17795     17796
     17789     17792     17795     17797     17789     17792     17795     17798
     17790     17789     17792     17793     17790     17789     17792     17794
     17790     17789     17792     17795     17791     17789     17792     17793
     17791     17789     17792     17794     17791     17789     17792     17795
     17792     17795     17798     17799     17792     17795     17798     17800
     17792     17795     17798     17801     17793     17792     17795     17796
     17793     17792     17795     17797     17793     17792     17795     17798
     17794     17792     17795     17796     17794     17792     17795     17797
     17794     17792     17795     17798     17795     17798     17801     17802
     17795     17798     17801     17803     17795     17798     17801     17804
     17796     17795     17798     17799     17796     17795     17798     17800
     17796     17795     17798     17801     17797     17795     17798     17799
     17797     17795     17798     17800     17797     17795     17798     17801
     17798     17801     17804     17805     17798     17801     17804     17806
     17798     17801     17804     17807     17799     17798     17801     17802
     17799     17798     17801     17803     17799     17798     17801     17804
     17800     17798     17801     17802     17800     17798     17801     17803
     17800     17798     17801     17804     17801     17804     17807     17808
     17801     17804     17807     17809     17801     17804     17807     17810
     17802     17801     17804     17805     17802     17801     17804     17806
     17802     17801     17804     17807     17803     17801     17804     17805
     17803     17801     17804     17806     17803     17801     17804     17807
     17804     17807     17810     17811     17804     17807     17810     17812
     17804     17807     17810     17813     17805     17804     17807     17808
     17805     17804     17807     17809     17805     17804     17807     17810
     17806     17804     17807     17808     17806     17804     17807     17809
     17806     17804     17807     17810     17807     17810     17813     17814
     17807     17810     17813     17815     17807     17810     17813     17816
     17808     17807     17810     17811     17808     17807     17810     17812
     17808     17807     17810     17813     17809     17807     17810     17811
     17809     17807     17810     17812     17809     17807     17810     17813
     17810     17813     17816     17817     17810     17813     17816     17818
     17810     17813     17816     17819     17811     17810     17813     17814
     17811     17810     17813     17815     17811     17810     17813     17816
     17812     17810     17813     17814     17812     17810     17813     17815
     17812     17810     17813     17816     17813     17816     17819     17820
     17813     17816     17819     17821     17813     17816     17819     17822
     17814     17813     17816     17817     17814     17813     17816     17818
     17814     17813     17816     17819     17815     17813     17816     17817
     17815     17813     17816     17818     17815     17813     17816     17819
     17816     17819     17822     17823     17816     17819     17822     17824
     17816     17819     17822     17825     17817     17816     17819     17820
     17817     17816     17819     17821     17817     17816     17819     17822
     17818     17816     17819     17820     17818     17816     17819     17821
     17818     17816     17819     17822     17819     17822     17825     17826
     17819     17822     17825     17827     17819     17822     17825     17828
     17820     17819     17822     17823     17820     17819     17822     17824
     17820     17819     17822     17825     17821     17819     17822     17823
     17821     17819     17822     17824     17821     17819     17822     17825
     17822     17825     17828     17829     17822     17825     17828     17830
     17822     17825     17828     17831     17823     17822     17825     17826
     17823     17822     17825     17827     17823     17822     17825     17828
     17824     17822     17825     17826     17824     17822     17825     17827
     17824     17822     17825     17828     17826     17825     17828     17829
     17826     17825     17828     17830     17826     17825     17828     17831
     17827     17825     17828     17829     17827     17825     17828     17830
     17827     17825     17828     17831     17832     17836     17839     17840
     17832     17836     17839     17841     17832     17836     17839     17846
     17833     17832     17836     17837     17833     17832     17836     17838
     17833     17832     17836     17839     17834     17832     17836     17837
     17834     17832     17836     17838     17834     17832     17836     17839
     17835     17832     17836     17837     17835     17832     17836     17838
     17835     17832     17836     17839     17836     17839     17846     17842
     17837     17836     17839     17840     17837     17836     17839     17841
     17837     17836     17839     17846     17838     17836     17839     17840
     17838     17836     17839     17841     17838     17836     17839     17846
     17839     17846     17842     17843     17839     17846     17842     17844
     17839     17846     17842     17845     17840     17839     17846     17842
     17841     17839     17846     17842     17842     17845     17847     17848
     17842     17845     17847     17849     17842     17845     17847     17850
     17843     17842     17845     17847     17844     17842     17845     17847
     17845     17847     17850     17851     17845     17847     17850     17852
     17845     17847     17850     17858     17846     17842     17845     17847
     17847     17850     17852     17853     17847     17850     17858     17859
     17847     17850     17858     17860     17847     17850     17858     17861
     17848     17847     17850     17851     17848     17847     17850     17852
     17848     17847     17850     17858     17849     17847     17850     17851
     17849     17847     17850     17852     17849     17847     17850     17858
     17850     17852     17853     17854     17850     17852     17853     17855
     17850     17858     17861     17862     17851     17850     17852     17853
     17851     17850     17858     17859     17851     17850     17858     17860
     17851     17850     17858     17861     17852     17850     17858     17859
     17852     17850     17858     17860     17852     17850     17858     17861
     17852     17853     17855     17856     17852     17853     17855     17857
     17852     17853     17855     17867     17853     17852     17850     17858
     17853     17855     17867     17868     17853     17855     17867     17869
     17853     17855     17867     17870     17854     17853     17855     17856
     17854     17853     17855     17857     17854     17853     17855     17867
     17855     17867     17870     17871     17855     17867     17870     17872
     17855     17867     17870     17873     17856     17855     17867     17868
     17856     17855     17867     17869     17856     17855     17867     17870
     17857     17855     17867     17868     17857     17855     17867     17869
     17857     17855     17867     17870     17858     17861     17862     17863
     17858     17861     17862     17864     17859     17858     17861     17862
     17860     17858     17861     17862     17861     17862     17864     17865
     17861     17862     17864     17866     17861     17862     17864     17911
     17862     17864     17911     17912     17862     17864     17911     17913
     17862     17864     17911     17914     17863     17862     17864     17865
     17863     17862     17864     17866     17863     17862     17864     17911
     17864     17911     17914     17915     17864     17911     17914     17916
     17864     17911     17914     17917     17865     17864     17911     17912
     17865     17864     17911     17913     17865     17864     17911     17914
     17866     17864     17911     17912     17866     17864     17911     17913
     17866     17864     17911     17914     17867     17870     17873     17874
     17867     17870     17873     17875     17867     17870     17873     17876
     17868     17867     17870     17871     17868     17867     17870     17872
     17868     17867     17870     17873     17869     17867     17870     17871
     17869     17867     17870     17872     17869     17867     17870     17873
     17870     17873     17876     17877     17870     17873     17876     17878
     17870     17873     17876     17879     17871     17870     17873     17874
     17871     17870     17873     17875     17871     17870     17873     17876
     17872     17870     17873     17874     17872     17870     17873     17875
     17872     17870     17873     17876     17873     17876     17879     17880
     17873     17876     17879     17881     17873     17876     17879     17882
     17874     17873     17876     17877     17874     17873     17876     17878
     17874     17873     17876     17879     17875     17873     17876     17877
     17875     17873     17876     17878     17875     17873     17876     17879
     17876     17879     17882     17883     17876     17879     17882     17884
     17876     17879     17882     17885     17877     17876     17879     17880
     17877     17876     17879     17881     17877     17876     17879     17882
     17878     17876     17879     17880     17878     17876     17879     17881
     17878     17876     17879     17882     17879     17882     17885     17886
     17879     17882     17885     17887     17879     17882     17885     17890
     17880     17879     17882     17883     17880     17879     17882     17884
     17880     17879     17882     17885     17881     17879     17882     17883
     17881     17879     17882     17884     17881     17879     17882     17885
     17882     17885     17887     17888     17882     17885     17887     17889
     17882     17885     17887     17890     17882     17885     17890     17887
     17882     17885     17890     17891     17882     17885     17890     17892
     17883     17882     17885     17886     17883     17882     17885     17887
     17883     17882     17885     17890     17884     17882     17885     17886
     17884     17882     17885     17887     17884     17882     17885     17890
     17885     17887     17890     17891     17885     17887     17890     17892
     17885     17890     17887     17888     17885     17890     17887     17889
     17885     17890     17892     17893     17885     17890     17892     17894
     17885     17890     17892     17895     17886     17885     17887     17888
     17886     17885     17887     17889     17886     17885     17887     17890
     17886     17885     17890     17887     17886     17885     17890     17891
     17886     17885     17890     17892     17887     17885     17890     17891
     17887     17885     17890     17892     17887     17890     17892     17893
     17887     17890     17892     17894     17887     17890     17892     17895
     17888     17887     17885     17890     17888     17887     17890     17891
     17888     17887     17890     17892     17889     17887     17885     17890
     17889     17887     17890     17891     17889     17887     17890     17892
     17890     17892     17895     17896     17890     17892     17895     17897
     17890     17892     17895     17898     17891     17890     17892     17893
     17891     17890     17892     17894     17891     17890     17892     17895
     17892     17895     17898     17899     17892     17895     17898     17900
     17892     17895     17898     17901     17893     17892     17895     17896
     17893     17892     17895     17897     17893     17892     17895     17898
     17894     17892     17895     17896     17894     17892     17895     17897
     17894     17892     17895     17898     17895     17898     17901     17902
     17895     17898     17901     17903     17895     17898     17901     17904
     17896     17895     17898     17899     17896     17895     17898     17900
     17896     17895     17898     17901     17897     17895     17898     17899
     17897     17895     17898     17900     17897     17895     17898     17901
     17898     17901     17904     17905     17898     17901     17904     17906
     17898     17901     17904     17907     17899     17898     17901     17902
     17899     17898     17901     17903     17899     17898     17901     17904
     17900     17898     17901     17902     17900     17898     17901     17903
     17900     17898     17901     17904     17901     17904     17907     17908
     17901     17904     17907     17909     17901     17904     17907     17910
     17902     17901     17904     17905     17902     17901     17904     17906
     17902     17901     17904     17907     17903     17901     17904     17905
     17903     17901     17904     17906     17903     17901     17904     17907
     17905     17904     17907     17908     17905     17904     17907     17909
     17905     17904     17907     17910     17906     17904     17907     17908
     17906     17904     17907     17909     17906     17904     17907     17910
     17911     17914     17917     17918     17911     17914     17917     17919
     17911     17914     17917     17920     17912     17911     17914     17915
     17912     17911     17914     17916     17912     17911     17914     17917
     17913     17911     17914     17915     17913     17911     17914     17916
     17913     17911     17914     17917     17914     17917     17920     17921
     17914     17917     17920     17922     17914     17917     17920     17923
     17915     17914     17917     17918     17915     17914     17917     17919
     17915     17914     17917     17920     17916     17914     17917     17918
     17916     17914     17917     17919     17916     17914     17917     17920
     17917     17920     17923     17924     17917     17920     17923     17925
     17917     17920     17923     17926     17918     17917     17920     17921
     17918     17917     17920     17922     17918     17917     17920     17923
     17919     17917     17920     17921     17919     17917     17920     17922
     17919     17917     17920     17923     17920     17923     17926     17927
     17920     17923     17926     17928     17920     17923     17926     17929
     17921     17920     17923     17924     17921     17920     17923     17925
     17921     17920     17923     17926     17922     17920     17923     17924
     17922     17920     17923     17925     17922     17920     17923     17926
     17923     17926     17929     17930     17923     17926     17929     17931
     17923     17926     17929     17932     17924     17923     17926     17927
     17924     17923     17926     17928     17924     17923     17926     17929
     17925     17923     17926     17927     17925     17923     17926     17928
     17925     17923     17926     17929     17926     17929     17932     17933
     17926     17929     17932     17934     17926     17929     17932     17935
     17927     17926     17929     17930     17927     17926     17929     17931
     17927     17926     17929     17932     17928     17926     17929     17930
     17928     17926     17929     17931     17928     17926     17929     17932
     17929     17932     17935     17936     17929     17932     17935     17937
     17929     17932     17935     17938     17930     17929     17932     17933
     17930     17929     17932     17934     17930     17929     17932     17935
     17931     17929     17932     17933     17931     17929     17932     17934
     17931     17929     17932     17935     17932     17935     17938     17939
     17932     17935     17938     17940     17932     17935     17938     17941
     17933     17932     17935     17936     17933     17932     17935     17937
     17933     17932     17935     17938     17934     17932     17935     17936
     17934     17932     17935     17937     17934     17932     17935     17938
     17935     17938     17941     17942     17935     17938     17941     17943
     17935     17938     17941     17944     17936     17935     17938     17939
     17936     17935     17938     17940     17936     17935     17938     17941
     17937     17935     17938     17939     17937     17935     17938     17940
     17937     17935     17938     17941     17938     17941     17944     17945
     17938     17941     17944     17946     17938     17941     17944     17947
     17939     17938     17941     17942     17939     17938     17941     17943
     17939     17938     17941     17944     17940     17938     17941     17942
     17940     17938     17941     17943     17940     17938     17941     17944
     17941     17944     17947     17948     17941     17944     17947     17949
     17941     17944     17947     17950     17942     17941     17944     17945
     17942     17941     17944     17946     17942     17941     17944     17947
     17943     17941     17944     17945     17943     17941     17944     17946
     17943     17941     17944     17947     17945     17944     17947     17948
     17945     17944     17947     17949     17945     17944     17947     17950
     17946     17944     17947     17948     17946     17944     17947     17949
     17946     17944     17947     17950     17951     17955     17958     17959
     17951     17955     17958     17960     17951     17955     17958     17965
     17952     17951     17955     17956     17952     17951     17955     17957
     17952     17951     17955     17958     17953     17951     17955     17956
     17953     17951     17955     17957     17953     17951     17955     17958
     17954     17951     17955     17956     17954     17951     17955     17957
     17954     17951     17955     17958     17955     17958     17965     17961
     17956     17955     17958     17959     17956     17955     17958     17960
     17956     17955     17958     17965     17957     17955     17958     17959
     17957     17955     17958     17960     17957     17955     17958     17965
     17958     17965     17961     17962     17958     17965     17961     17963
     17958     17965     17961     17964     17959     17958     17965     17961
     17960     17958     17965     17961     17961     17964     17966     17967
     17961     17964     17966     17968     17961     17964     17966     17969
     17962     17961     17964     17966     17963     17961     17964     17966
     17964     17966     17969     17970     17964     17966     17969     17971
     17964     17966     17969     17977     17965     17961     17964     17966
     17966     17969     17971     17972     17966     17969     17977     17978
     17966     17969     17977     17979     17966     17969     17977     17980
     17967     17966     17969     17970     17967     17966     17969     17971
     17967     17966     17969     17977     17968     17966     17969     17970
     17968     17966     17969     17971     17968     17966     17969     17977
     17969     17971     17972     17973     17969     17971     17972     17974
     17969     17977     17980     17981     17970     17969     17971     17972
     17970     17969     17977     17978     17970     17969     17977     17979
     17970     17969     17977     17980     17971     17969     17977     17978
     17971     17969     17977     17979     17971     17969     17977     17980
     17971     17972     17974     17975     17971     17972     17974     17976
     17971     17972     17974     17986     17972     17971     17969     17977
     17972     17974     17986     17987     17972     17974     17986     17988
     17972     17974     17986     17989     17973     17972     17974     17975
     17973     17972     17974     17976     17973     17972     17974     17986
     17974     17986     17989     17990     17974     17986     17989     17991
     17974     17986     17989     17992     17975     17974     17986     17987
     17975     17974     17986     17988     17975     17974     17986     17989
     17976     17974     17986     17987     17976     17974     17986     17988
     17976     17974     17986     17989     17977     17980     17981     17982
     17977     17980     17981     17983     17978     17977     17980     17981
     17979     17977     17980     17981     17980     17981     17983     17984
     17980     17981     17983     17985     17980     17981     17983     18030
     17981     17983     18030     18031     17981     17983     18030     18032
     17981     17983     18030     18033     17982     17981     17983     17984
     17982     17981     17983     17985     17982     17981     17983     18030
     17983     18030     18033     18034     17983     18030     18033     18035
     17983     18030     18033     18036     17984     17983     18030     18031
     17984     17983     18030     18032     17984     17983     18030     18033
     17985     17983     18030     18031     17985     17983     18030     18032
     17985     17983     18030     18033     17986     17989     17992     17993
     17986     17989     17992     17994     17986     17989     17992     17995
     17987     17986     17989     17990     17987     17986     17989     17991
     17987     17986     17989     17992     17988     17986     17989     17990
     17988     17986     17989     17991     17988     17986     17989     17992
     17989     17992     17995     17996     17989     17992     17995     17997
     17989     17992     17995     17998     17990     17989     17992     17993
     17990     17989     17992     17994     17990     17989     17992     17995
     17991     17989     17992     17993     17991     17989     17992     17994
     17991     17989     17992     17995     17992     17995     17998     17999
     17992     17995     17998     18000     17992     17995     17998     18001
     17993     17992     17995     17996     17993     17992     17995     17997
     17993     17992     17995     17998     17994     17992     17995     17996
     17994     17992     17995     17997     17994     17992     17995     17998
     17995     17998     18001     18002     17995     17998     18001     18003
     17995     17998     18001     18004     17996     17995     17998     17999
     17996     17995     17998     18000     17996     17995     17998     18001
     17997     17995     17998     17999     17997     17995     17998     18000
     17997     17995     17998     18001     17998     18001     18004     18005
     17998     18001     18004     18006     17998     18001     18004     18009
     17999     17998     18001     18002     17999     17998     18001     18003
     17999     17998     18001     18004     18000     17998     18001     18002
     18000     17998     18001     18003     18000     17998     18001     18004
     18001     18004     18006     18007     18001     18004     18006     18008
     18001     18004     18006     18009     18001     18004     18009     18006
     18001     18004     18009     18010     18001     18004     18009     18011
     18002     18001     18004     18005     18002     18001     18004     18006
     18002     18001     18004     18009     18003     18001     18004     18005
     18003     18001     18004     18006     18003     18001     18004     18009
     18004     18006     18009     18010     18004     18006     18009     18011
     18004     18009     18006     18007     18004     18009     18006     18008
     18004     18009     18011     18012     18004     18009     18011     18013
     18004     18009     18011     18014     18005     18004     18006     18007
     18005     18004     18006     18008     18005     18004     18006     18009
     18005     18004     18009     18006     18005     18004     18009     18010
     18005     18004     18009     18011     18006     18004     18009     18010
     18006     18004     18009     18011     18006     18009     18011     18012
     18006     18009     18011     18013     18006     18009     18011     18014
     18007     18006     18004     18009     18007     18006     18009     18010
     18007     18006     18009     18011     18008     18006     18004     18009
     18008     18006     18009     18010     18008     18006     18009     18011
     18009     18011     18014     18015     18009     18011     18014     18016
     18009     18011     18014     18017     18010     18009     18011     18012
     18010     18009     18011     18013     18010     18009     18011     18014
     18011     18014     18017     18018     18011     18014     18017     18019
     18011     18014     18017     18020     18012     18011     18014     18015
     18012     18011     18014     18016     18012     18011     18014     18017
     18013     18011     18014     18015     18013     18011     18014     18016
     18013     18011     18014     18017     18014     18017     18020     18021
     18014     18017     18020     18022     18014     18017     18020     18023
     18015     18014     18017     18018     18015     18014     18017     18019
     18015     18014     18017     18020     18016     18014     18017     18018
     18016     18014     18017     18019     18016     18014     18017     18020
     18017     18020     18023     18024     18017     18020     18023     18025
     18017     18020     18023     18026     18018     18017     18020     18021
     18018     18017     18020     18022     18018     18017     18020     18023
     18019     18017     18020     18021     18019     18017     18020     18022
     18019     18017     18020     18023     18020     18023     18026     18027
     18020     18023     18026     18028     18020     18023     18026     18029
     18021     18020     18023     18024     18021     18020     18023     18025
     18021     18020     18023     18026     18022     18020     18023     18024
     18022     18020     18023     18025     18022     18020     18023     18026
     18024     18023     18026     18027     18024     18023     18026     18028
     18024     18023     18026     18029     18025     18023     18026     18027
     18025     18023     18026     18028     18025     18023     18026     18029
     18030     18033     18036     18037     18030     18033     18036     18038
     18030     18033     18036     18039     18031     18030     18033     18034
     18031     18030     18033     18035     18031     18030     18033     18036
     18032     18030     18033     18034     18032     18030     18033     18035
     18032     18030     18033     18036     18033     18036     18039     18040
     18033     18036     18039     18041     18033     18036     18039     18042
     18034     18033     18036     18037     18034     18033     18036     18038
     18034     18033     18036     18039     18035     18033     18036     18037
     18035     18033     18036     18038     18035     18033     18036     18039
     18036     18039     18042     18043     18036     18039     18042     18044
     18036     18039     18042     18045     18037     18036     18039     18040
     18037     18036     18039     18041     18037     18036     18039     18042
     18038     18036     18039     18040     18038     18036     18039     18041
     18038     18036     18039     18042     18039     18042     18045     18046
     18039     18042     18045     18047     18039     18042     18045     18048
     18040     18039     18042     18043     18040     18039     18042     18044
     18040     18039     18042     18045     18041     18039     18042     18043
     18041     18039     18042     18044     18041     18039     18042     18045
     18042     18045     18048     18049     18042     18045     18048     18050
     18042     18045     18048     18051     18043     18042     18045     18046
     18043     18042     18045     18047     18043     18042     18045     18048
     18044     18042     18045     18046     18044     18042     18045     18047
     18044     18042     18045     18048     18045     18048     18051     18052
     18045     18048     18051     18053     18045     18048     18051     18054
     18046     18045     18048     18049     18046     18045     18048     18050
     18046     18045     18048     18051     18047     18045     18048     18049
     18047     18045     18048     18050     18047     18045     18048     18051
     18048     18051     18054     18055     18048     18051     18054     18056
     18048     18051     18054     18057     18049     18048     18051     18052
     18049     18048     18051     18053     18049     18048     18051     18054
     18050     18048     18051     18052     18050     18048     18051     18053
     18050     18048     18051     18054     18051     18054     18057     18058
     18051     18054     18057     18059     18051     18054     18057     18060
     18052     18051     18054     18055     18052     18051     18054     18056
     18052     18051     18054     18057     18053     18051     18054     18055
     18053     18051     18054     18056     18053     18051     18054     18057
     18054     18057     18060     18061     18054     18057     18060     18062
     18054     18057     18060     18063     18055     18054     18057     18058
     18055     18054     18057     18059     18055     18054     18057     18060
     18056     18054     18057     18058     18056     18054     18057     18059
     18056     18054     18057     18060     18057     18060     18063     18064
     18057     18060     18063     18065     18057     18060     18063     18066
     18058     18057     18060     18061     18058     18057     18060     18062
     18058     18057     18060     18063     18059     18057     18060     18061
     18059     18057     18060     18062     18059     18057     18060     18063
     18060     18063     18066     18067     18060     18063     18066     18068
     18060     18063     18066     18069     18061     18060     18063     18064
     18061     18060     18063     18065     18061     18060     18063     18066
     18062     18060     18063     18064     18062     18060     18063     18065
     18062     18060     18063     18066     18064     18063     18066     18067
     18064     18063     18066     18068     18064     18063     18066     18069
     18065     18063     18066     18067     18065     18063     18066     18068
     18065     18063     18066     18069     18070     18074     18077     18078
     18070     18074     18077     18079     18070     18074     18077     18084
     18071     18070     18074     18075     18071     18070     18074     18076
     18071     18070     18074     18077     18072     18070     18074     18075
     18072     18070     18074     18076     18072     18070     18074     18077
     18073     18070     18074     18075     18073     18070     18074     18076
     18073     18070     18074     18077     18074     18077     18084     18080
     18075     18074     18077     18078     18075     18074     18077     18079
     18075     18074     18077     18084     18076     18074     18077     18078
     18076     18074     18077     18079     18076     18074     18077     18084
     18077     18084     18080     18081     18077     18084     18080     18082
     18077     18084     18080     18083     18078     18077     18084     18080
     18079     18077     18084     18080     18080     18083     18085     18086
     18080     18083     18085     18087     18080     18083     18085     18088
     18081     18080     18083     18085     18082     18080     18083     18085
     18083     18085     18088     18089     18083     18085     18088     18090
     18083     18085     18088     18096     18084     18080     18083     18085
     18085     18088     18090     18091     18085     18088     18096     18097
     18085     18088     18096     18098     18085     18088     18096     18099
     18086     18085     18088     18089     18086     18085     18088     18090
     18086     18085     18088     18096     18087     18085     18088     18089
     18087     18085     18088     18090     18087     18085     18088     18096
     18088     18090     18091     18092     18088     18090     18091     18093
     18088     18096     18099     18100     18089     18088     18090     18091
     18089     18088     18096     18097     18089     18088     18096     18098
     18089     18088     18096     18099     18090     18088     18096     18097
     18090     18088     18096     18098     18090     18088     18096     18099
     18090     18091     18093     18094     18090     18091     18093     18095
     18090     18091     18093     18105     18091     18090     18088     18096
     18091     18093     18105     18106     18091     18093     18105     18107
     18091     18093     18105     18108     18092     18091     18093     18094
     18092     18091     18093     18095     18092     18091     18093     18105
     18093     18105     18108     18109     18093     18105     18108     18110
     18093     18105     18108     18111     18094     18093     18105     18106
     18094     18093     18105     18107     18094     18093     18105     18108
     18095     18093     18105     18106     18095     18093     18105     18107
     18095     18093     18105     18108     18096     18099     18100     18101
     18096     18099     18100     18102     18097     18096     18099     18100
     18098     18096     18099     18100     18099     18100     18102     18103
     18099     18100     18102     18104     18099     18100     18102     18149
     18100     18102     18149     18150     18100     18102     18149     18151
     18100     18102     18149     18152     18101     18100     18102     18103
     18101     18100     18102     18104     18101     18100     18102     18149
     18102     18149     18152     18153     18102     18149     18152     18154
     18102     18149     18152     18155     18103     18102     18149     18150
     18103     18102     18149     18151     18103     18102     18149     18152
     18104     18102     18149     18150     18104     18102     18149     18151
     18104     18102     18149     18152     18105     18108     18111     18112
     18105     18108     18111     18113     18105     18108     18111     18114
     18106     18105     18108     18109     18106     18105     18108     18110
     18106     18105     18108     18111     18107     18105     18108     18109
     18107     18105     18108     18110     18107     18105     18108     18111
     18108     18111     18114     18115     18108     18111     18114     18116
     18108     18111     18114     18117     18109     18108     18111     18112
     18109     18108     18111     18113     18109     18108     18111     18114
     18110     18108     18111     18112     18110     18108     18111     18113
     18110     18108     18111     18114     18111     18114     18117     18118
     18111     18114     18117     18119     18111     18114     18117     18120
     18112     18111     18114     18115     18112     18111     18114     18116
     18112     18111     18114     18117     18113     18111     18114     18115
     18113     18111     18114     18116     18113     18111     18114     18117
     18114     18117     18120     18121     18114     18117     18120     18122
     18114     18117     18120     18123     18115     18114     18117     18118
     18115     18114     18117     18119     18115     18114     18117     18120
     18116     18114     18117     18118     18116     18114     18117     18119
     18116     18114     18117     18120     18117     18120     18123     18124
     18117     18120     18123     18125     18117     18120     18123     18128
     18118     18117     18120     18121     18118     18117     18120     18122
     18118     18117     18120     18123     18119     18117     18120     18121
     18119     18117     18120     18122     18119     18117     18120     18123
     18120     18123     18125     18126     18120     18123     18125     18127
     18120     18123     18125     18128     18120     18123     18128     18125
     18120     18123     18128     18129     18120     18123     18128     18130
     18121     18120     18123     18124     18121     18120     18123     18125
     18121     18120     18123     18128     18122     18120     18123     18124
     18122     18120     18123     18125     18122     18120     18123     18128
     18123     18125     18128     18129     18123     18125     18128     18130
     18123     18128     18125     18126     18123     18128     18125     18127
     18123     18128     18130     18131     18123     18128     18130     18132
     18123     18128     18130     18133     18124     18123     18125     18126
     18124     18123     18125     18127     18124     18123     18125     18128
     18124     18123     18128     18125     18124     18123     18128     18129
     18124     18123     18128     18130     18125     18123     18128     18129
     18125     18123     18128     18130     18125     18128     18130     18131
     18125     18128     18130     18132     18125     18128     18130     18133
     18126     18125     18123     18128     18126     18125     18128     18129
     18126     18125     18128     18130     18127     18125     18123     18128
     18127     18125     18128     18129     18127     18125     18128     18130
     18128     18130     18133     18134     18128     18130     18133     18135
     18128     18130     18133     18136     18129     18128     18130     18131
     18129     18128     18130     18132     18129     18128     18130     18133
     18130     18133     18136     18137     18130     18133     18136     18138
     18130     18133     18136     18139     18131     18130     18133     18134
     18131     18130     18133     18135     18131     18130     18133     18136
     18132     18130     18133     18134     18132     18130     18133     18135
     18132     18130     18133     18136     18133     18136     18139     18140
     18133     18136     18139     18141     18133     18136     18139     18142
     18134     18133     18136     18137     18134     18133     18136     18138
     18134     18133     18136     18139     18135     18133     18136     18137
     18135     18133     18136     18138     18135     18133     18136     18139
     18136     18139     18142     18143     18136     18139     18142     18144
     18136     18139     18142     18145     18137     18136     18139     18140
     18137     18136     18139     18141     18137     18136     18139     18142
     18138     18136     18139     18140     18138     18136     18139     18141
     18138     18136     18139     18142     18139     18142     18145     18146
     18139     18142     18145     18147     18139     18142     18145     18148
     18140     18139     18142     18143     18140     18139     18142     18144
     18140     18139     18142     18145     18141     18139     18142     18143
     18141     18139     18142     18144     18141     18139     18142     18145
     18143     18142     18145     18146     18143     18142     18145     18147
     18143     18142     18145     18148     18144     18142     18145     18146
     18144     18142     18145     18147     18144     18142     18145     18148
     18149     18152     18155     18156     18149     18152     18155     18157
     18149     18152     18155     18158     18150     18149     18152     18153
     18150     18149     18152     18154     18150     18149     18152     18155
     18151     18149     18152     18153     18151     18149     18152     18154
     18151     18149     18152     18155     18152     18155     18158     18159
     18152     18155     18158     18160     18152     18155     18158     18161
     18153     18152     18155     18156     18153     18152     18155     18157
     18153     18152     18155     18158     18154     18152     18155     18156
     18154     18152     18155     18157     18154     18152     18155     18158
     18155     18158     18161     18162     18155     18158     18161     18163
     18155     18158     18161     18164     18156     18155     18158     18159
     18156     18155     18158     18160     18156     18155     18158     18161
     18157     18155     18158     18159     18157     18155     18158     18160
     18157     18155     18158     18161     18158     18161     18164     18165
     18158     18161     18164     18166     18158     18161     18164     18167
     18159     18158     18161     18162     18159     18158     18161     18163
     18159     18158     18161     18164     18160     18158     18161     18162
     18160     18158     18161     18163     18160     18158     18161     18164
     18161     18164     18167     18168     18161     18164     18167     18169
     18161     18164     18167     18170     18162     18161     18164     18165
     18162     18161     18164     18166     18162     18161     18164     18167
     18163     18161     18164     18165     18163     18161     18164     18166
     18163     18161     18164     18167     18164     18167     18170     18171
     18164     18167     18170     18172     18164     18167     18170     18173
     18165     18164     18167     18168     18165     18164     18167     18169
     18165     18164     18167     18170     18166     18164     18167     18168
     18166     18164     18167     18169     18166     18164     18167     18170
     18167     18170     18173     18174     18167     18170     18173     18175
     18167     18170     18173     18176     18168     18167     18170     18171
     18168     18167     18170     18172     18168     18167     18170     18173
     18169     18167     18170     18171     18169     18167     18170     18172
     18169     18167     18170     18173     18170     18173     18176     18177
     18170     18173     18176     18178     18170     18173     18176     18179
     18171     18170     18173     18174     18171     18170     18173     18175
     18171     18170     18173     18176     18172     18170     18173     18174
     18172     18170     18173     18175     18172     18170     18173     18176
     18173     18176     18179     18180     18173     18176     18179     18181
     18173     18176     18179     18182     18174     18173     18176     18177
     18174     18173     18176     18178     18174     18173     18176     18179
     18175     18173     18176     18177     18175     18173     18176     18178
     18175     18173     18176     18179     18176     18179     18182     18183
     18176     18179     18182     18184     18176     18179     18182     18185
     18177     18176     18179     18180     18177     18176     18179     18181
     18177     18176     18179     18182     18178     18176     18179     18180
     18178     18176     18179     18181     18178     18176     18179     18182
     18179     18182     18185     18186     18179     18182     18185     18187
     18179     18182     18185     18188     18180     18179     18182     18183
     18180     18179     18182     18184     18180     18179     18182     18185
     18181     18179     18182     18183     18181     18179     18182     18184
     18181     18179     18182     18185     18182     18185     18188     18189
     18182     18185     18188     18190     18182     18185     18188     18191
     18183     18182     18185     18186     18183     18182     18185     18187
     18183     18182     18185     18188     18184     18182     18185     18186
     18184     18182     18185     18187     18184     18182     18185     18188
     18186     18185     18188     18189     18186     18185     18188     18190
     18186     18185     18188     18191     18187     18185     18188     18189
     18187     18185     18188     18190     18187     18185     18188     18191
     18192     18196     18199     18200     18192     18196     18199     18201
     18192     18196     18199     18206     18193     18192     18196     18197
     18193     18192     18196     18198     18193     18192     18196     18199
     18194     18192     18196     18197     18194     18192     18196     18198
     18194     18192     18196     18199     18195     18192     18196     18197
     18195     18192     18196     18198     18195     18192     18196     18199
     18196     18199     18206     18202     18197     18196     18199     18200
     18197     18196     18199     18201     18197     18196     18199     18206
     18198     18196     18199     18200     18198     18196     18199     18201
     18198     18196     18199     18206     18199     18206     18202     18203
     18199     18206     18202     18204     18199     18206     18202     18205
     18200     18199     18206     18202     18201     18199     18206     18202
     18202     18205     18207     18208     18202     18205     18207     18209
     18202     18205     18207     18210     18203     18202     18205     18207
     18204     18202     18205     18207     18205     18207     18210     18211
     18205     18207     18210     18212     18205     18207     18210     18218
     18206     18202     18205     18207     18207     18210     18212     18213
     18207     18210     18218     18219     18207     18210     18218     18220
     18207     18210     18218     18221     18208     18207     18210     18211
     18208     18207     18210     18212     18208     18207     18210     18218
     18209     18207     18210     18211     18209     18207     18210     18212
     18209     18207     18210     18218     18210     18212     18213     18214
     18210     18212     18213     18215     18210     18218     18221     18222
     18211     18210     18212     18213     18211     18210     18218     18219
     18211     18210     18218     18220     18211     18210     18218     18221
     18212     18210     18218     18219     18212     18210     18218     18220
     18212     18210     18218     18221     18212     18213     18215     18216
     18212     18213     18215     18217     18212     18213     18215     18227
     18213     18212     18210     18218     18213     18215     18227     18228
     18213     18215     18227     18229     18213     18215     18227     18230
     18214     18213     18215     18216     18214     18213     18215     18217
     18214     18213     18215     18227     18215     18227     18230     18231
     18215     18227     18230     18232     18215     18227     18230     18233
     18216     18215     18227     18228     18216     18215     18227     18229
     18216     18215     18227     18230     18217     18215     18227     18228
     18217     18215     18227     18229     18217     18215     18227     18230
     18218     18221     18222     18223     18218     18221     18222     18224
     18219     18218     18221     18222     18220     18218     18221     18222
     18221     18222     18224     18225     18221     18222     18224     18226
     18221     18222     18224     18271     18222     18224     18271     18272
     18222     18224     18271     18273     18222     18224     18271     18274
     18223     18222     18224     18225     18223     18222     18224     18226
     18223     18222     18224     18271     18224     18271     18274     18275
     18224     18271     18274     18276     18224     18271     18274     18277
     18225     18224     18271     18272     18225     18224     18271     18273
     18225     18224     18271     18274     18226     18224     18271     18272
     18226     18224     18271     18273     18226     18224     18271     18274
     18227     18230     18233     18234     18227     18230     18233     18235
     18227     18230     18233     18236     18228     18227     18230     18231
     18228     18227     18230     18232     18228     18227     18230     18233
     18229     18227     18230     18231     18229     18227     18230     18232
     18229     18227     18230     18233     18230     18233     18236     18237
     18230     18233     18236     18238     18230     18233     18236     18239
     18231     18230     18233     18234     18231     18230     18233     18235
     18231     18230     18233     18236     18232     18230     18233     18234
     18232     18230     18233     18235     18232     18230     18233     18236
     18233     18236     18239     18240     18233     18236     18239     18241
     18233     18236     18239     18242     18234     18233     18236     18237
     18234     18233     18236     18238     18234     18233     18236     18239
     18235     18233     18236     18237     18235     18233     18236     18238
     18235     18233     18236     18239     18236     18239     18242     18243
     18236     18239     18242     18244     18236     18239     18242     18245
     18237     18236     18239     18240     18237     18236     18239     18241
     18237     18236     18239     18242     18238     18236     18239     18240
     18238     18236     18239     18241     18238     18236     18239     18242
     18239     18242     18245     18246     18239     18242     18245     18247
     18239     18242     18245     18250     18240     18239     18242     18243
     18240     18239     18242     18244     18240     18239     18242     18245
     18241     18239     18242     18243     18241     18239     18242     18244
     18241     18239     18242     18245     18242     18245     18247     18248
     18242     18245     18247     18249     18242     18245     18247     18250
     18242     18245     18250     18247     18242     18245     18250     18251
     18242     18245     18250     18252     18243     18242     18245     18246
     18243     18242     18245     18247     18243     18242     18245     18250
     18244     18242     18245     18246     18244     18242     18245     18247
     18244     18242     18245     18250     18245     18247     18250     18251
     18245     18247     18250     18252     18245     18250     18247     18248
     18245     18250     18247     18249     18245     18250     18252     18253
     18245     18250     18252     18254     18245     18250     18252     18255
     18246     18245     18247     18248     18246     18245     18247     18249
     18246     18245     18247     18250     18246     18245     18250     18247
     18246     18245     18250     18251     18246     18245     18250     18252
     18247     18245     18250     18251     18247     18245     18250     18252
     18247     18250     18252     18253     18247     18250     18252     18254
     18247     18250     18252     18255     18248     18247     18245     18250
     18248     18247     18250     18251     18248     18247     18250     18252
     18249     18247     18245     18250     18249     18247     18250     18251
     18249     18247     18250     18252     18250     18252     18255     18256
     18250     18252     18255     18257     18250     18252     18255     18258
     18251     18250     18252     18253     18251     18250     18252     18254
     18251     18250     18252     18255     18252     18255     18258     18259
     18252     18255     18258     18260     18252     18255     18258     18261
     18253     18252     18255     18256     18253     18252     18255     18257
     18253     18252     18255     18258     18254     18252     18255     18256
     18254     18252     18255     18257     18254     18252     18255     18258
     18255     18258     18261     18262     18255     18258     18261     18263
     18255     18258     18261     18264     18256     18255     18258     18259
     18256     18255     18258     18260     18256     18255     18258     18261
     18257     18255     18258     18259     18257     18255     18258     18260
     18257     18255     18258     18261     18258     18261     18264     18265
     18258     18261     18264     18266     18258     18261     18264     18267
     18259     18258     18261     18262     18259     18258     18261     18263
     18259     18258     18261     18264     18260     18258     18261     18262
     18260     18258     18261     18263     18260     18258     18261     18264
     18261     18264     18267     18268     18261     18264     18267     18269
     18261     18264     18267     18270     18262     18261     18264     18265
     18262     18261     18264     18266     18262     18261     18264     18267
     18263     18261     18264     18265     18263     18261     18264     18266
     18263     18261     18264     18267     18265     18264     18267     18268
     18265     18264     18267     18269     18265     18264     18267     18270
     18266     18264     18267     18268     18266     18264     18267     18269
     18266     18264     18267     18270     18271     18274     18277     18278
     18271     18274     18277     18279     18271     18274     18277     18280
     18272     18271     18274     18275     18272     18271     18274     18276
     18272     18271     18274     18277     18273     18271     18274     18275
     18273     18271     18274     18276     18273     18271     18274     18277
     18274     18277     18280     18281     18274     18277     18280     18282
     18274     18277     18280     18283     18275     18274     18277     18278
     18275     18274     18277     18279     18275     18274     18277     18280
     18276     18274     18277     18278     18276     18274     18277     18279
     18276     18274     18277     18280     18277     18280     18283     18284
     18277     18280     18283     18285     18277     18280     18283     18286
     18278     18277     18280     18281     18278     18277     18280     18282
     18278     18277     18280     18283     18279     18277     18280     18281
     18279     18277     18280     18282     18279     18277     18280     18283
     18280     18283     18286     18287     18280     18283     18286     18288
     18280     18283     18286     18289     18281     18280     18283     18284
     18281     18280     18283     18285     18281     18280     18283     18286
     18282     18280     18283     18284     18282     18280     18283     18285
     18282     18280     18283     18286     18283     18286     18289     18290
     18283     18286     18289     18291     18283     18286     18289     18292
     18284     18283     18286     18287     18284     18283     18286     18288
     18284     18283     18286     18289     18285     18283     18286     18287
     18285     18283     18286     18288     18285     18283     18286     18289
     18286     18289     18292     18293     18286     18289     18292     18294
     18286     18289     18292     18295     18287     18286     18289     18290
     18287     18286     18289     18291     18287     18286     18289     18292
     18288     18286     18289     18290     18288     18286     18289     18291
     18288     18286     18289     18292     18289     18292     18295     18296
     18289     18292     18295     18297     18289     18292     18295     18298
     18290     18289     18292     18293     18290     18289     18292     18294
     18290     18289     18292     18295     18291     18289     18292     18293
     18291     18289     18292     18294     18291     18289     18292     18295
     18292     18295     18298     18299     18292     18295     18298     18300
     18292     18295     18298     18301     18293     18292     18295     18296
     18293     18292     18295     18297     18293     18292     18295     18298
     18294     18292     18295     18296     18294     18292     18295     18297
     18294     18292     18295     18298     18295     18298     18301     18302
     18295     18298     18301     18303     18295     18298     18301     18304
     18296     18295     18298     18299     18296     18295     18298     18300
     18296     18295     18298     18301     18297     18295     18298     18299
     18297     18295     18298     18300     18297     18295     18298     18301
     18298     18301     18304     18305     18298     18301     18304     18306
     18298     18301     18304     18307     18299     18298     18301     18302
     18299     18298     18301     18303     18299     18298     18301     18304
     18300     18298     18301     18302     18300     18298     18301     18303
     18300     18298     18301     18304     18301     18304     18307     18308
     18301     18304     18307     18309     18301     18304     18307     18310
     18302     18301     18304     18305     18302     18301     18304     18306
     18302     18301     18304     18307     18303     18301     18304     18305
     18303     18301     18304     18306     18303     18301     18304     18307
     18304     18307     18310     18311     18304     18307     18310     18312
     18304     18307     18310     18313     18305     18304     18307     18308
     18305     18304     18307     18309     18305     18304     18307     18310
     18306     18304     18307     18308     18306     18304     18307     18309
     18306     18304     18307     18310     18308     18307     18310     18311
     18308     18307     18310     18312     18308     18307     18310     18313
     18309     18307     18310     18311     18309     18307     18310     18312
     18309     18307     18310     18313     18314     18318     18321     18322
     18314     18318     18321     18323     18314     18318     18321     18328
     18315     18314     18318     18319     18315     18314     18318     18320
     18315     18314     18318     18321     18316     18314     18318     18319
     18316     18314     18318     18320     18316     18314     18318     18321
     18317     18314     18318     18319     18317     18314     18318     18320
     18317     18314     18318     18321     18318     18321     18328     18324
     18319     18318     18321     18322     18319     18318     18321     18323
     18319     18318     18321     18328     18320     18318     18321     18322
     18320     18318     18321     18323     18320     18318     18321     18328
     18321     18328     18324     18325     18321     18328     18324     18326
     18321     18328     18324     18327     18322     18321     18328     18324
     18323     18321     18328     18324     18324     18327     18329     18330
     18324     18327     18329     18331     18324     18327     18329     18332
     18325     18324     18327     18329     18326     18324     18327     18329
     18327     18329     18332     18333     18327     18329     18332     18334
     18327     18329     18332     18340     18328     18324     18327     18329
     18329     18332     18334     18335     18329     18332     18340     18341
     18329     18332     18340     18342     18329     18332     18340     18343
     18330     18329     18332     18333     18330     18329     18332     18334
     18330     18329     18332     18340     18331     18329     18332     18333
     18331     18329     18332     18334     18331     18329     18332     18340
     18332     18334     18335     18336     18332     18334     18335     18337
     18332     18340     18343     18344     18333     18332     18334     18335
     18333     18332     18340     18341     18333     18332     18340     18342
     18333     18332     18340     18343     18334     18332     18340     18341
     18334     18332     18340     18342     18334     18332     18340     18343
     18334     18335     18337     18338     18334     18335     18337     18339
     18334     18335     18337     18349     18335     18334     18332     18340
     18335     18337     18349     18350     18335     18337     18349     18351
     18335     18337     18349     18352     18336     18335     18337     18338
     18336     18335     18337     18339     18336     18335     18337     18349
     18337     18349     18352     18353     18337     18349     18352     18354
     18337     18349     18352     18355     18338     18337     18349     18350
     18338     18337     18349     18351     18338     18337     18349     18352
     18339     18337     18349     18350     18339     18337     18349     18351
     18339     18337     18349     18352     18340     18343     18344     18345
     18340     18343     18344     18346     18341     18340     18343     18344
     18342     18340     18343     18344     18343     18344     18346     18347
     18343     18344     18346     18348     18343     18344     18346     18393
     18344     18346     18393     18394     18344     18346     18393     18395
     18344     18346     18393     18396     18345     18344     18346     18347
     18345     18344     18346     18348     18345     18344     18346     18393
     18346     18393     18396     18397     18346     18393     18396     18398
     18346     18393     18396     18399     18347     18346     18393     18394
     18347     18346     18393     18395     18347     18346     18393     18396
     18348     18346     18393     18394     18348     18346     18393     18395
     18348     18346     18393     18396     18349     18352     18355     18356
     18349     18352     18355     18357     18349     18352     18355     18358
     18350     18349     18352     18353     18350     18349     18352     18354
     18350     18349     18352     18355     18351     18349     18352     18353
     18351     18349     18352     18354     18351     18349     18352     18355
     18352     18355     18358     18359     18352     18355     18358     18360
     18352     18355     18358     18361     18353     18352     18355     18356
     18353     18352     18355     18357     18353     18352     18355     18358
     18354     18352     18355     18356     18354     18352     18355     18357
     18354     18352     18355     18358     18355     18358     18361     18362
     18355     18358     18361     18363     18355     18358     18361     18364
     18356     18355     18358     18359     18356     18355     18358     18360
     18356     18355     18358     18361     18357     18355     18358     18359
     18357     18355     18358     18360     18357     18355     18358     18361
     18358     18361     18364     18365     18358     18361     18364     18366
     18358     18361     18364     18367     18359     18358     18361     18362
     18359     18358     18361     18363     18359     18358     18361     18364
     18360     18358     18361     18362     18360     18358     18361     18363
     18360     18358     18361     18364     18361     18364     18367     18368
     18361     18364     18367     18369     18361     18364     18367     18372
     18362     18361     18364     18365     18362     18361     18364     18366
     18362     18361     18364     18367     18363     18361     18364     18365
     18363     18361     18364     18366     18363     18361     18364     18367
     18364     18367     18369     18370     18364     18367     18369     18371
     18364     18367     18369     18372     18364     18367     18372     18369
     18364     18367     18372     18373     18364     18367     18372     18374
     18365     18364     18367     18368     18365     18364     18367     18369
     18365     18364     18367     18372     18366     18364     18367     18368
     18366     18364     18367     18369     18366     18364     18367     18372
     18367     18369     18372     18373     18367     18369     18372     18374
     18367     18372     18369     18370     18367     18372     18369     18371
     18367     18372     18374     18375     18367     18372     18374     18376
     18367     18372     18374     18377     18368     18367     18369     18370
     18368     18367     18369     18371     18368     18367     18369     18372
     18368     18367     18372     18369     18368     18367     18372     18373
     18368     18367     18372     18374     18369     18367     18372     18373
     18369     18367     18372     18374     18369     18372     18374     18375
     18369     18372     18374     18376     18369     18372     18374     18377
     18370     18369     18367     18372     18370     18369     18372     18373
     18370     18369     18372     18374     18371     18369     18367     18372
     18371     18369     18372     18373     18371     18369     18372     18374
     18372     18374     18377     18378     18372     18374     18377     18379
     18372     18374     18377     18380     18373     18372     18374     18375
     18373     18372     18374     18376     18373     18372     18374     18377
     18374     18377     18380     18381     18374     18377     18380     18382
     18374     18377     18380     18383     18375     18374     18377     18378
     18375     18374     18377     18379     18375     18374     18377     18380
     18376     18374     18377     18378     18376     18374     18377     18379
     18376     18374     18377     18380     18377     18380     18383     18384
     18377     18380     18383     18385     18377     18380     18383     18386
     18378     18377     18380     18381     18378     18377     18380     18382
     18378     18377     18380     18383     18379     18377     18380     18381
     18379     18377     18380     18382     18379     18377     18380     18383
     18380     18383     18386     18387     18380     18383     18386     18388
     18380     18383     18386     18389     18381     18380     18383     18384
     18381     18380     18383     18385     18381     18380     18383     18386
     18382     18380     18383     18384     18382     18380     18383     18385
     18382     18380     18383     18386     18383     18386     18389     18390
     18383     18386     18389     18391     18383     18386     18389     18392
     18384     18383     18386     18387     18384     18383     18386     18388
     18384     18383     18386     18389     18385     18383     18386     18387
     18385     18383     18386     18388     18385     18383     18386     18389
     18387     18386     18389     18390     18387     18386     18389     18391
     18387     18386     18389     18392     18388     18386     18389     18390
     18388     18386     18389     18391     18388     18386     18389     18392
     18393     18396     18399     18400     18393     18396     18399     18401
     18393     18396     18399     18402     18394     18393     18396     18397
     18394     18393     18396     18398     18394     18393     18396     18399
     18395     18393     18396     18397     18395     18393     18396     18398
     18395     18393     18396     18399     18396     18399     18402     18403
     18396     18399     18402     18404     18396     18399     18402     18405
     18397     18396     18399     18400     18397     18396     18399     18401
     18397     18396     18399     18402     18398     18396     18399     18400
     18398     18396     18399     18401     18398     18396     18399     18402
     18399     18402     18405     18406     18399     18402     18405     18407
     18399     18402     18405     18408     18400     18399     18402     18403
     18400     18399     18402     18404     18400     18399     18402     18405
     18401     18399     18402     18403     18401     18399     18402     18404
     18401     18399     18402     18405     18402     18405     18408     18409
     18402     18405     18408     18410     18402     18405     18408     18411
     18403     18402     18405     18406     18403     18402     18405     18407
     18403     18402     18405     18408     18404     18402     18405     18406
     18404     18402     18405     18407     18404     18402     18405     18408
     18405     18408     18411     18412     18405     18408     18411     18413
     18405     18408     18411     18414     18406     18405     18408     18409
     18406     18405     18408     18410     18406     18405     18408     18411
     18407     18405     18408     18409     18407     18405     18408     18410
     18407     18405     18408     18411     18408     18411     18414     18415
     18408     18411     18414     18416     18408     18411     18414     18417
     18409     18408     18411     18412     18409     18408     18411     18413
     18409     18408     18411     18414     18410     18408     18411     18412
     18410     18408     18411     18413     18410     18408     18411     18414
     18411     18414     18417     18418     18411     18414     18417     18419
     18411     18414     18417     18420     18412     18411     18414     18415
     18412     18411     18414     18416     18412     18411     18414     18417
     18413     18411     18414     18415     18413     18411     18414     18416
     18413     18411     18414     18417     18414     18417     18420     18421
     18414     18417     18420     18422     18414     18417     18420     18423
     18415     18414     18417     18418     18415     18414     18417     18419
     18415     18414     18417     18420     18416     18414     18417     18418
     18416     18414     18417     18419     18416     18414     18417     18420
     18417     18420     18423     18424     18417     18420     18423     18425
     18417     18420     18423     18426     18418     18417     18420     18421
     18418     18417     18420     18422     18418     18417     18420     18423
     18419     18417     18420     18421     18419     18417     18420     18422
     18419     18417     18420     18423     18420     18423     18426     18427
     18420     18423     18426     18428     18420     18423     18426     18429
     18421     18420     18423     18424     18421     18420     18423     18425
     18421     18420     18423     18426     18422     18420     18423     18424
     18422     18420     18423     18425     18422     18420     18423     18426
     18423     18426     18429     18430     18423     18426     18429     18431
     18423     18426     18429     18432     18424     18423     18426     18427
     18424     18423     18426     18428     18424     18423     18426     18429
     18425     18423     18426     18427     18425     18423     18426     18428
     18425     18423     18426     18429     18426     18429     18432     18433
     18426     18429     18432     18434     18426     18429     18432     18435
     18427     18426     18429     18430     18427     18426     18429     18431
     18427     18426     18429     18432     18428     18426     18429     18430
     18428     18426     18429     18431     18428     18426     18429     18432
     18430     18429     18432     18433     18430     18429     18432     18434
     18430     18429     18432     18435     18431     18429     18432     18433
     18431     18429     18432     18434     18431     18429     18432     18435
     18436     18441     18443     18444     18436     18441     18445     18446
     18436     18441     18445     18447     18436     18441     18445     18452
     18437     18436     18439     18440     18437     18436     18441     18442
     18437     18436     18441     18443     18437     18436     18441     18445
     18438     18436     18439     18440     18438     18436     18441     18442
     18438     18436     18441     18443     18438     18436     18441     18445
     18439     18436     18441     18442     18439     18436     18441     18443
     18439     18436     18441     18445     18440     18439     18436     18441
     18441     18445     18452     18448     18442     18441     18443     18444
     18442     18441     18445     18446     18442     18441     18445     18447
     18442     18441     18445     18452     18443     18441     18445     18446
     18443     18441     18445     18447     18443     18441     18445     18452
     18444     18443     18441     18445     18445     18452     18448     18449
     18445     18452     18448     18450     18445     18452     18448     18451
     18446     18445     18452     18448     18447     18445     18452     18448
     18448     18451     18453     18454     18448     18451     18453     18455
     18448     18451     18453     18456     18449     18448     18451     18453
     18450     18448     18451     18453     18451     18453     18456     18457
     18451     18453     18456     18458     18451     18453     18456     18464
     18452     18448     18451     18453     18453     18456     18458     18459
     18453     18456     18464     18465     18453     18456     18464     18466
     18453     18456     18464     18467     18454     18453     18456     18457
     18454     18453     18456     18458     18454     18453     18456     18464
     18455     18453     18456     18457     18455     18453     18456     18458
     18455     18453     18456     18464     18456     18458     18459     18460
     18456     18458     18459     18461     18456     18464     18467     18468
     18457     18456     18458     18459     18457     18456     18464     18465
     18457     18456     18464     18466     18457     18456     18464     18467
     18458     18456     18464     18465     18458     18456     18464     18466
     18458     18456     18464     18467     18458     18459     18461     18462
     18458     18459     18461     18463     18458     18459     18461     18473
     18459     18458     18456     18464     18459     18461     18473     18474
     18459     18461     18473     18475     18459     18461     18473     18476
     18460     18459     18461     18462     18460     18459     18461     18463
     18460     18459     18461     18473     18461     18473     18476     18477
     18461     18473     18476     18478     18461     18473     18476     18479
     18462     18461     18473     18474     18462     18461     18473     18475
     18462     18461     18473     18476     18463     18461     18473     18474
     18463     18461     18473     18475     18463     18461     18473     18476
     18464     18467     18468     18469     18464     18467     18468     18470
     18465     18464     18467     18468     18466     18464     18467     18468
     18467     18468     18470     18471     18467     18468     18470     18472
     18467     18468     18470     18514     18468     18470     18514     18515
     18468     18470     18514     18516     18468     18470     18514     18517
     18469     18468     18470     18471     18469     18468     18470     18472
     18469     18468     18470     18514     18470     18514     18517     18518
     18470     18514     18517     18519     18470     18514     18517     18520
     18471     18470     18514     18515     18471     18470     18514     18516
     18471     18470     18514     18517     18472     18470     18514     18515
     18472     18470     18514     18516     18472     18470     18514     18517
     18473     18476     18479     18480     18473     18476     18479     18481
     18473     18476     18479     18482     18474     18473     18476     18477
     18474     18473     18476     18478     18474     18473     18476     18479
     18475     18473     18476     18477     18475     18473     18476     18478
     18475     18473     18476     18479     18476     18479     18482     18483
     18476     18479     18482     18484     18476     18479     18482     18485
     18477     18476     18479     18480     18477     18476     18479     18481
     18477     18476     18479     18482     18478     18476     18479     18480
     18478     18476     18479     18481     18478     18476     18479     18482
     18479     18482     18485     18486     18479     18482     18485     18487
     18479     18482     18485     18488     18480     18479     18482     18483
     18480     18479     18482     18484     18480     18479     18482     18485
     18481     18479     18482     18483     18481     18479     18482     18484
     18481     18479     18482     18485     18482     18485     18488     18489
     18482     18485     18488     18490     18482     18485     18488     18491
     18483     18482     18485     18486     18483     18482     18485     18487
     18483     18482     18485     18488     18484     18482     18485     18486
     18484     18482     18485     18487     18484     18482     18485     18488
     18485     18488     18491     18492     18485     18488     18491     18493
     18486     18485     18488     18489     18486     18485     18488     18490
     18486     18485     18488     18491     18487     18485     18488     18489
     18487     18485     18488     18490     18487     18485     18488     18491
     18488     18491     18493     18494     18488     18491     18493     18495
     18489     18488     18491     18492     18489     18488     18491     18493
     18490     18488     18491     18492     18490     18488     18491     18493
     18491     18493     18495     18496     18491     18493     18495     18497
     18491     18493     18495     18498     18492     18491     18493     18494
     18492     18491     18493     18495     18493     18495     18498     18499
     18493     18495     18498     18500     18493     18495     18498     18501
     18494     18493     18495     18496     18494     18493     18495     18497
     18494     18493     18495     18498     18495     18498     18501     18502
     18495     18498     18501     18503     18495     18498     18501     18504
     18496     18495     18498     18499     18496     18495     18498     18500
     18496     18495     18498     18501     18497     18495     18498     18499
     18497     18495     18498     18500     18497     18495     18498     18501
     18498     18501     18504     18505     18498     18501     18504     18506
     18498     18501     18504     18507     18499     18498     18501     18502
     18499     18498     18501     18503     18499     18498     18501     18504
     18500     18498     18501     18502     18500     18498     18501     18503
     18500     18498     18501     18504     18501     18504     18507     18508
     18501     18504     18507     18509     18501     18504     18507     18510
     18502     18501     18504     18505     18502     18501     18504     18506
     18502     18501     18504     18507     18503     18501     18504     18505
     18503     18501     18504     18506     18503     18501     18504     18507
     18504     18507     18510     18511     18504     18507     18510     18512
     18504     18507     18510     18513     18505     18504     18507     18508
     18505     18504     18507     18509     18505     18504     18507     18510
     18506     18504     18507     18508     18506     18504     18507     18509
     18506     18504     18507     18510     18508     18507     18510     18511
     18508     18507     18510     18512     18508     18507     18510     18513
     18509     18507     18510     18511     18509     18507     18510     18512
     18509     18507     18510     18513     18514     18517     18520     18521
     18514     18517     18520     18522     18514     18517     18520     18523
     18515     18514     18517     18518     18515     18514     18517     18519
     18515     18514     18517     18520     18516     18514     18517     18518
     18516     18514     18517     18519     18516     18514     18517     18520
     18517     18520     18523     18524     18517     18520     18523     18525
     18517     18520     18523     18526     18518     18517     18520     18521
     18518     18517     18520     18522     18518     18517     18520     18523
     18519     18517     18520     18521     18519     18517     18520     18522
     18519     18517     18520     18523     18520     18523     18526     18527
     18520     18523     18526     18528     18520     18523     18526     18529
     18521     18520     18523     18524     18521     18520     18523     18525
     18521     18520     18523     18526     18522     18520     18523     18524
     18522     18520     18523     18525     18522     18520     18523     18526
     18523     18526     18529     18530     18523     18526     18529     18531
     18523     18526     18529     18532     18524     18523     18526     18527
     18524     18523     18526     18528     18524     18523     18526     18529
     18525     18523     18526     18527     18525     18523     18526     18528
     18525     18523     18526     18529     18526     18529     18532     18533
     18526     18529     18532     18534     18526     18529     18532     18535
     18527     18526     18529     18530     18527     18526     18529     18531
     18527     18526     18529     18532     18528     18526     18529     18530
     18528     18526     18529     18531     18528     18526     18529     18532
     18529     18532     18535     18536     18529     18532     18535     18537
     18529     18532     18535     18538     18530     18529     18532     18533
     18530     18529     18532     18534     18530     18529     18532     18535
     18531     18529     18532     18533     18531     18529     18532     18534
     18531     18529     18532     18535     18532     18535     18538     18539
     18532     18535     18538     18540     18532     18535     18538     18541
     18533     18532     18535     18536     18533     18532     18535     18537
     18533     18532     18535     18538     18534     18532     18535     18536
     18534     18532     18535     18537     18534     18532     18535     18538
     18535     18538     18541     18542     18535     18538     18541     18543
     18535     18538     18541     18544     18536     18535     18538     18539
     18536     18535     18538     18540     18536     18535     18538     18541
     18537     18535     18538     18539     18537     18535     18538     18540
     18537     18535     18538     18541     18538     18541     18544     18545
     18538     18541     18544     18546     18538     18541     18544     18547
     18539     18538     18541     18542     18539     18538     18541     18543
     18539     18538     18541     18544     18540     18538     18541     18542
     18540     18538     18541     18543     18540     18538     18541     18544
     18541     18544     18547     18548     18541     18544     18547     18549
     18541     18544     18547     18550     18542     18541     18544     18545
     18542     18541     18544     18546     18542     18541     18544     18547
     18543     18541     18544     18545     18543     18541     18544     18546
     18543     18541     18544     18547     18544     18547     18550     18551
     18544     18547     18550     18552     18544     18547     18550     18553
     18545     18544     18547     18548     18545     18544     18547     18549
     18545     18544     18547     18550     18546     18544     18547     18548
     18546     18544     18547     18549     18546     18544     18547     18550
     18547     18550     18553     18554     18547     18550     18553     18555
     18547     18550     18553     18556     18548     18547     18550     18551
     18548     18547     18550     18552     18548     18547     18550     18553
     18549     18547     18550     18551     18549     18547     18550     18552
     18549     18547     18550     18553     18551     18550     18553     18554
     18551     18550     18553     18555     18551     18550     18553     18556
     18552     18550     18553     18554     18552     18550     18553     18555
     18552     18550     18553     18556     18557     18561     18564     18565
     18557     18561     18564     18566     18557     18561     18564     18571
     18558     18557     18561     18562     18558     18557     18561     18563
     18558     18557     18561     18564     18559     18557     18561     18562
     18559     18557     18561     18563     18559     18557     18561     18564
     18560     18557     18561     18562     18560     18557     18561     18563
     18560     18557     18561     18564     18561     18564     18571     18567
     18562     18561     18564     18565     18562     18561     18564     18566
     18562     18561     18564     18571     18563     18561     18564     18565
     18563     18561     18564     18566     18563     18561     18564     18571
     18564     18571     18567     18568     18564     18571     18567     18569
     18564     18571     18567     18570     18565     18564     18571     18567
     18566     18564     18571     18567     18567     18570     18572     18573
     18567     18570     18572     18574     18567     18570     18572     18575
     18568     18567     18570     18572     18569     18567     18570     18572
     18570     18572     18575     18576     18570     18572     18575     18577
     18570     18572     18575     18583     18571     18567     18570     18572
     18572     18575     18577     18578     18572     18575     18583     18584
     18572     18575     18583     18585     18572     18575     18583     18586
     18573     18572     18575     18576     18573     18572     18575     18577
     18573     18572     18575     18583     18574     18572     18575     18576
     18574     18572     18575     18577     18574     18572     18575     18583
     18575     18577     18578     18579     18575     18577     18578     18580
     18575     18583     18586     18587     18576     18575     18577     18578
     18576     18575     18583     18584     18576     18575     18583     18585
     18576     18575     18583     18586     18577     18575     18583     18584
     18577     18575     18583     18585     18577     18575     18583     18586
     18577     18578     18580     18581     18577     18578     18580     18582
     18577     18578     18580     18592     18578     18577     18575     18583
     18578     18580     18592     18593     18578     18580     18592     18594
     18578     18580     18592     18595     18579     18578     18580     18581
     18579     18578     18580     18582     18579     18578     18580     18592
     18580     18592     18595     18596     18580     18592     18595     18597
     18580     18592     18595     18598     18581     18580     18592     18593
     18581     18580     18592     18594     18581     18580     18592     18595
     18582     18580     18592     18593     18582     18580     18592     18594
     18582     18580     18592     18595     18583     18586     18587     18588
     18583     18586     18587     18589     18584     18583     18586     18587
     18585     18583     18586     18587     18586     18587     18589     18590
     18586     18587     18589     18591     18586     18587     18589     18639
     18587     18589     18639     18640     18587     18589     18639     18641
     18587     18589     18639     18642     18588     18587     18589     18590
     18588     18587     18589     18591     18588     18587     18589     18639
     18589     18639     18642     18643     18589     18639     18642     18644
     18589     18639     18642     18645     18590     18589     18639     18640
     18590     18589     18639     18641     18590     18589     18639     18642
     18591     18589     18639     18640     18591     18589     18639     18641
     18591     18589     18639     18642     18592     18595     18598     18599
     18592     18595     18598     18600     18592     18595     18598     18601
     18593     18592     18595     18596     18593     18592     18595     18597
     18593     18592     18595     18598     18594     18592     18595     18596
     18594     18592     18595     18597     18594     18592     18595     18598
     18595     18598     18601     18602     18595     18598     18601     18603
     18595     18598     18601     18604     18596     18595     18598     18599
     18596     18595     18598     18600     18596     18595     18598     18601
     18597     18595     18598     18599     18597     18595     18598     18600
     18597     18595     18598     18601     18598     18601     18604     18605
     18598     18601     18604     18606     18598     18601     18604     18607
     18599     18598     18601     18602     18599     18598     18601     18603
     18599     18598     18601     18604     18600     18598     18601     18602
     18600     18598     18601     18603     18600     18598     18601     18604
     18601     18604     18607     18608     18601     18604     18607     18609
     18601     18604     18607     18610     18602     18601     18604     18605
     18602     18601     18604     18606     18602     18601     18604     18607
     18603     18601     18604     18605     18603     18601     18604     18606
     18603     18601     18604     18607     18604     18607     18610     18611
     18604     18607     18610     18612     18605     18604     18607     18608
     18605     18604     18607     18609     18605     18604     18607     18610
     18606     18604     18607     18608     18606     18604     18607     18609
     18606     18604     18607     18610     18607     18610     18612     18613
     18607     18610     18612     18614     18608     18607     18610     18611
     18608     18607     18610     18612     18609     18607     18610     18611
     18609     18607     18610     18612     18610     18612     18614     18615
     18610     18612     18614     18616     18610     18612     18614     18617
     18611     18610     18612     18613     18611     18610     18612     18614
     18612     18614     18617     18618     18612     18614     18617     18619
     18612     18614     18617     18620     18613     18612     18614     18615
     18613     18612     18614     18616     18613     18612     18614     18617
     18614     18617     18620     18621     18614     18617     18620     18622
     18614     18617     18620     18623     18615     18614     18617     18618
     18615     18614     18617     18619     18615     18614     18617     18620
     18616     18614     18617     18618     18616     18614     18617     18619
     18616     18614     18617     18620     18617     18620     18623     18624
     18617     18620     18623     18625     18617     18620     18623     18626
     18618     18617     18620     18621     18618     18617     18620     18622
     18618     18617     18620     18623     18619     18617     18620     18621
     18619     18617     18620     18622     18619     18617     18620     18623
     18620     18623     18626     18627     18620     18623     18626     18628
     18620     18623     18626     18629     18621     18620     18623     18624
     18621     18620     18623     18625     18621     18620     18623     18626
     18622     18620     18623     18624     18622     18620     18623     18625
     18622     18620     18623     18626     18623     18626     18629     18630
     18623     18626     18629     18631     18623     18626     18629     18632
     18624     18623     18626     18627     18624     18623     18626     18628
     18624     18623     18626     18629     18625     18623     18626     18627
     18625     18623     18626     18628     18625     18623     18626     18629
     18626     18629     18632     18633     18626     18629     18632     18634
     18626     18629     18632     18635     18627     18626     18629     18630
     18627     18626     18629     18631     18627     18626     18629     18632
     18628     18626     18629     18630     18628     18626     18629     18631
     18628     18626     18629     18632     18629     18632     18635     18636
     18629     18632     18635     18637     18629     18632     18635     18638
     18630     18629     18632     18633     18630     18629     18632     18634
     18630     18629     18632     18635     18631     18629     18632     18633
     18631     18629     18632     18634     18631     18629     18632     18635
     18633     18632     18635     18636     18633     18632     18635     18637
     18633     18632     18635     18638     18634     18632     18635     18636
     18634     18632     18635     18637     18634     18632     18635     18638
     18639     18642     18645     18646     18639     18642     18645     18647
     18639     18642     18645     18648     18640     18639     18642     18643
     18640     18639     18642     18644     18640     18639     18642     18645
     18641     18639     18642     18643     18641     18639     18642     18644
     18641     18639     18642     18645     18642     18645     18648     18649
     18642     18645     18648     18650     18642     18645     18648     18651
     18643     18642     18645     18646     18643     18642     18645     18647
     18643     18642     18645     18648     18644     18642     18645     18646
     18644     18642     18645     18647     18644     18642     18645     18648
     18645     18648     18651     18652     18645     18648     18651     18653
     18645     18648     18651     18654     18646     18645     18648     18649
     18646     18645     18648     18650     18646     18645     18648     18651
     18647     18645     18648     18649     18647     18645     18648     18650
     18647     18645     18648     18651     18648     18651     18654     18655
     18648     18651     18654     18656     18648     18651     18654     18657
     18649     18648     18651     18652     18649     18648     18651     18653
     18649     18648     18651     18654     18650     18648     18651     18652
     18650     18648     18651     18653     18650     18648     18651     18654
     18651     18654     18657     18658     18651     18654     18657     18659
     18651     18654     18657     18660     18652     18651     18654     18655
     18652     18651     18654     18656     18652     18651     18654     18657
     18653     18651     18654     18655     18653     18651     18654     18656
     18653     18651     18654     18657     18654     18657     18660     18661
     18654     18657     18660     18662     18654     18657     18660     18663
     18655     18654     18657     18658     18655     18654     18657     18659
     18655     18654     18657     18660     18656     18654     18657     18658
     18656     18654     18657     18659     18656     18654     18657     18660
     18657     18660     18663     18664     18657     18660     18663     18665
     18657     18660     18663     18666     18658     18657     18660     18661
     18658     18657     18660     18662     18658     18657     18660     18663
     18659     18657     18660     18661     18659     18657     18660     18662
     18659     18657     18660     18663     18660     18663     18666     18667
     18660     18663     18666     18668     18660     18663     18666     18669
     18661     18660     18663     18664     18661     18660     18663     18665
     18661     18660     18663     18666     18662     18660     18663     18664
     18662     18660     18663     18665     18662     18660     18663     18666
     18663     18666     18669     18670     18663     18666     18669     18671
     18663     18666     18669     18672     18664     18663     18666     18667
     18664     18663     18666     18668     18664     18663     18666     18669
     18665     18663     18666     18667     18665     18663     18666     18668
     18665     18663     18666     18669     18666     18669     18672     18673
     18666     18669     18672     18674     18666     18669     18672     18675
     18667     18666     18669     18670     18667     18666     18669     18671
     18667     18666     18669     18672     18668     18666     18669     18670
     18668     18666     18669     18671     18668     18666     18669     18672
     18669     18672     18675     18676     18669     18672     18675     18677
     18669     18672     18675     18678     18670     18669     18672     18673
     18670     18669     18672     18674     18670     18669     18672     18675
     18671     18669     18672     18673     18671     18669     18672     18674
     18671     18669     18672     18675     18672     18675     18678     18679
     18672     18675     18678     18680     18672     18675     18678     18681
     18673     18672     18675     18676     18673     18672     18675     18677
     18673     18672     18675     18678     18674     18672     18675     18676
     18674     18672     18675     18677     18674     18672     18675     18678
     18676     18675     18678     18679     18676     18675     18678     18680
     18676     18675     18678     18681     18677     18675     18678     18679
     18677     18675     18678     18680     18677     18675     18678     18681
     18682     18686     18689     18690     18682     18686     18689     18691
     18682     18686     18689     18696     18683     18682     18686     18687
     18683     18682     18686     18688     18683     18682     18686     18689
     18684     18682     18686     18687     18684     18682     18686     18688
     18684     18682     18686     18689     18685     18682     18686     18687
     18685     18682     18686     18688     18685     18682     18686     18689
     18686     18689     18696     18692     18687     18686     18689     18690
     18687     18686     18689     18691     18687     18686     18689     18696
     18688     18686     18689     18690     18688     18686     18689     18691
     18688     18686     18689     18696     18689     18696     18692     18693
     18689     18696     18692     18694     18689     18696     18692     18695
     18690     18689     18696     18692     18691     18689     18696     18692
     18692     18695     18697     18698     18692     18695     18697     18699
     18692     18695     18697     18700     18693     18692     18695     18697
     18694     18692     18695     18697     18695     18697     18700     18701
     18695     18697     18700     18702     18695     18697     18700     18708
     18696     18692     18695     18697     18697     18700     18702     18703
     18697     18700     18708     18709     18697     18700     18708     18710
     18697     18700     18708     18711     18698     18697     18700     18701
     18698     18697     18700     18702     18698     18697     18700     18708
     18699     18697     18700     18701     18699     18697     18700     18702
     18699     18697     18700     18708     18700     18702     18703     18704
     18700     18702     18703     18705     18700     18708     18711     18712
     18701     18700     18702     18703     18701     18700     18708     18709
     18701     18700     18708     18710     18701     18700     18708     18711
     18702     18700     18708     18709     18702     18700     18708     18710
     18702     18700     18708     18711     18702     18703     18705     18706
     18702     18703     18705     18707     18702     18703     18705     18717
     18703     18702     18700     18708     18703     18705     18717     18718
     18703     18705     18717     18719     18703     18705     18717     18720
     18704     18703     18705     18706     18704     18703     18705     18707
     18704     18703     18705     18717     18705     18717     18720     18721
     18705     18717     18720     18722     18705     18717     18720     18723
     18706     18705     18717     18718     18706     18705     18717     18719
     18706     18705     18717     18720     18707     18705     18717     18718
     18707     18705     18717     18719     18707     18705     18717     18720
     18708     18711     18712     18713     18708     18711     18712     18714
     18709     18708     18711     18712     18710     18708     18711     18712
     18711     18712     18714     18715     18711     18712     18714     18716
     18711     18712     18714     18761     18712     18714     18761     18762
     18712     18714     18761     18763     18712     18714     18761     18764
     18713     18712     18714     18715     18713     18712     18714     18716
     18713     18712     18714     18761     18714     18761     18764     18765
     18714     18761     18764     18766     18714     18761     18764     18767
     18715     18714     18761     18762     18715     18714     18761     18763
     18715     18714     18761     18764     18716     18714     18761     18762
     18716     18714     18761     18763     18716     18714     18761     18764
     18717     18720     18723     18724     18717     18720     18723     18725
     18717     18720     18723     18726     18718     18717     18720     18721
     18718     18717     18720     18722     18718     18717     18720     18723
     18719     18717     18720     18721     18719     18717     18720     18722
     18719     18717     18720     18723     18720     18723     18726     18727
     18720     18723     18726     18728     18720     18723     18726     18729
     18721     18720     18723     18724     18721     18720     18723     18725
     18721     18720     18723     18726     18722     18720     18723     18724
     18722     18720     18723     18725     18722     18720     18723     18726
     18723     18726     18729     18730     18723     18726     18729     18731
     18723     18726     18729     18732     18724     18723     18726     18727
     18724     18723     18726     18728     18724     18723     18726     18729
     18725     18723     18726     18727     18725     18723     18726     18728
     18725     18723     18726     18729     18726     18729     18732     18733
     18726     18729     18732     18734     18726     18729     18732     18735
     18727     18726     18729     18730     18727     18726     18729     18731
     18727     18726     18729     18732     18728     18726     18729     18730
     18728     18726     18729     18731     18728     18726     18729     18732
     18729     18732     18735     18736     18729     18732     18735     18737
     18729     18732     18735     18740     18730     18729     18732     18733
     18730     18729     18732     18734     18730     18729     18732     18735
     18731     18729     18732     18733     18731     18729     18732     18734
     18731     18729     18732     18735     18732     18735     18737     18738
     18732     18735     18737     18739     18732     18735     18737     18740
     18732     18735     18740     18737     18732     18735     18740     18741
     18732     18735     18740     18742     18733     18732     18735     18736
     18733     18732     18735     18737     18733     18732     18735     18740
     18734     18732     18735     18736     18734     18732     18735     18737
     18734     18732     18735     18740     18735     18737     18740     18741
     18735     18737     18740     18742     18735     18740     18737     18738
     18735     18740     18737     18739     18735     18740     18742     18743
     18735     18740     18742     18744     18735     18740     18742     18745
     18736     18735     18737     18738     18736     18735     18737     18739
     18736     18735     18737     18740     18736     18735     18740     18737
     18736     18735     18740     18741     18736     18735     18740     18742
     18737     18735     18740     18741     18737     18735     18740     18742
     18737     18740     18742     18743     18737     18740     18742     18744
     18737     18740     18742     18745     18738     18737     18735     18740
     18738     18737     18740     18741     18738     18737     18740     18742
     18739     18737     18735     18740     18739     18737     18740     18741
     18739     18737     18740     18742     18740     18742     18745     18746
     18740     18742     18745     18747     18740     18742     18745     18748
     18741     18740     18742     18743     18741     18740     18742     18744
     18741     18740     18742     18745     18742     18745     18748     18749
     18742     18745     18748     18750     18742     18745     18748     18751
     18743     18742     18745     18746     18743     18742     18745     18747
     18743     18742     18745     18748     18744     18742     18745     18746
     18744     18742     18745     18747     18744     18742     18745     18748
     18745     18748     18751     18752     18745     18748     18751     18753
     18745     18748     18751     18754     18746     18745     18748     18749
     18746     18745     18748     18750     18746     18745     18748     18751
     18747     18745     18748     18749     18747     18745     18748     18750
     18747     18745     18748     18751     18748     18751     18754     18755
     18748     18751     18754     18756     18748     18751     18754     18757
     18749     18748     18751     18752     18749     18748     18751     18753
     18749     18748     18751     18754     18750     18748     18751     18752
     18750     18748     18751     18753     18750     18748     18751     18754
     18751     18754     18757     18758     18751     18754     18757     18759
     18751     18754     18757     18760     18752     18751     18754     18755
     18752     18751     18754     18756     18752     18751     18754     18757
     18753     18751     18754     18755     18753     18751     18754     18756
     18753     18751     18754     18757     18755     18754     18757     18758
     18755     18754     18757     18759     18755     18754     18757     18760
     18756     18754     18757     18758     18756     18754     18757     18759
     18756     18754     18757     18760     18761     18764     18767     18768
     18761     18764     18767     18769     18761     18764     18767     18770
     18762     18761     18764     18765     18762     18761     18764     18766
     18762     18761     18764     18767     18763     18761     18764     18765
     18763     18761     18764     18766     18763     18761     18764     18767
     18764     18767     18770     18771     18764     18767     18770     18772
     18764     18767     18770     18773     18765     18764     18767     18768
     18765     18764     18767     18769     18765     18764     18767     18770
     18766     18764     18767     18768     18766     18764     18767     18769
     18766     18764     18767     18770     18767     18770     18773     18774
     18767     18770     18773     18775     18767     18770     18773     18776
     18768     18767     18770     18771     18768     18767     18770     18772
     18768     18767     18770     18773     18769     18767     18770     18771
     18769     18767     18770     18772     18769     18767     18770     18773
     18770     18773     18776     18777     18770     18773     18776     18778
     18770     18773     18776     18779     18771     18770     18773     18774
     18771     18770     18773     18775     18771     18770     18773     18776
     18772     18770     18773     18774     18772     18770     18773     18775
     18772     18770     18773     18776     18773     18776     18779     18780
     18773     18776     18779     18781     18773     18776     18779     18782
     18774     18773     18776     18777     18774     18773     18776     18778
     18774     18773     18776     18779     18775     18773     18776     18777
     18775     18773     18776     18778     18775     18773     18776     18779
     18776     18779     18782     18783     18776     18779     18782     18784
     18776     18779     18782     18785     18777     18776     18779     18780
     18777     18776     18779     18781     18777     18776     18779     18782
     18778     18776     18779     18780     18778     18776     18779     18781
     18778     18776     18779     18782     18779     18782     18785     18786
     18779     18782     18785     18787     18779     18782     18785     18788
     18780     18779     18782     18783     18780     18779     18782     18784
     18780     18779     18782     18785     18781     18779     18782     18783
     18781     18779     18782     18784     18781     18779     18782     18785
     18782     18785     18788     18789     18782     18785     18788     18790
     18782     18785     18788     18791     18783     18782     18785     18786
     18783     18782     18785     18787     18783     18782     18785     18788
     18784     18782     18785     18786     18784     18782     18785     18787
     18784     18782     18785     18788     18785     18788     18791     18792
     18785     18788     18791     18793     18785     18788     18791     18794
     18786     18785     18788     18789     18786     18785     18788     18790
     18786     18785     18788     18791     18787     18785     18788     18789
     18787     18785     18788     18790     18787     18785     18788     18791
     18788     18791     18794     18795     18788     18791     18794     18796
     18788     18791     18794     18797     18789     18788     18791     18792
     18789     18788     18791     18793     18789     18788     18791     18794
     18790     18788     18791     18792     18790     18788     18791     18793
     18790     18788     18791     18794     18791     18794     18797     18798
     18791     18794     18797     18799     18791     18794     18797     18800
     18792     18791     18794     18795     18792     18791     18794     18796
     18792     18791     18794     18797     18793     18791     18794     18795
     18793     18791     18794     18796     18793     18791     18794     18797
     18794     18797     18800     18801     18794     18797     18800     18802
     18794     18797     18800     18803     18795     18794     18797     18798
     18795     18794     18797     18799     18795     18794     18797     18800
     18796     18794     18797     18798     18796     18794     18797     18799
     18796     18794     18797     18800     18798     18797     18800     18801
     18798     18797     18800     18802     18798     18797     18800     18803
     18799     18797     18800     18801     18799     18797     18800     18802
     18799     18797     18800     18803     18804     18808     18811     18812
     18804     18808     18811     18813     18804     18808     18811     18818
     18805     18804     18808     18809     18805     18804     18808     18810
     18805     18804     18808     18811     18806     18804     18808     18809
     18806     18804     18808     18810     18806     18804     18808     18811
     18807     18804     18808     18809     18807     18804     18808     18810
     18807     18804     18808     18811     18808     18811     18818     18814
     18809     18808     18811     18812     18809     18808     18811     18813
     18809     18808     18811     18818     18810     18808     18811     18812
     18810     18808     18811     18813     18810     18808     18811     18818
     18811     18818     18814     18815     18811     18818     18814     18816
     18811     18818     18814     18817     18812     18811     18818     18814
     18813     18811     18818     18814     18814     18817     18819     18820
     18814     18817     18819     18821     18814     18817     18819     18822
     18815     18814     18817     18819     18816     18814     18817     18819
     18817     18819     18822     18823     18817     18819     18822     18824
     18817     18819     18822     18830     18818     18814     18817     18819
     18819     18822     18824     18825     18819     18822     18830     18831
     18819     18822     18830     18832     18819     18822     18830     18833
     18820     18819     18822     18823     18820     18819     18822     18824
     18820     18819     18822     18830     18821     18819     18822     18823
     18821     18819     18822     18824     18821     18819     18822     18830
     18822     18824     18825     18826     18822     18824     18825     18827
     18822     18830     18833     18834     18823     18822     18824     18825
     18823     18822     18830     18831     18823     18822     18830     18832
     18823     18822     18830     18833     18824     18822     18830     18831
     18824     18822     18830     18832     18824     18822     18830     18833
     18824     18825     18827     18828     18824     18825     18827     18829
     18824     18825     18827     18839     18825     18824     18822     18830
     18825     18827     18839     18840     18825     18827     18839     18841
     18825     18827     18839     18842     18826     18825     18827     18828
     18826     18825     18827     18829     18826     18825     18827     18839
     18827     18839     18842     18843     18827     18839     18842     18844
     18827     18839     18842     18845     18828     18827     18839     18840
     18828     18827     18839     18841     18828     18827     18839     18842
     18829     18827     18839     18840     18829     18827     18839     18841
     18829     18827     18839     18842     18830     18833     18834     18835
     18830     18833     18834     18836     18831     18830     18833     18834
     18832     18830     18833     18834     18833     18834     18836     18837
     18833     18834     18836     18838     18833     18834     18836     18883
     18834     18836     18883     18884     18834     18836     18883     18885
     18834     18836     18883     18886     18835     18834     18836     18837
     18835     18834     18836     18838     18835     18834     18836     18883
     18836     18883     18886     18887     18836     18883     18886     18888
     18836     18883     18886     18889     18837     18836     18883     18884
     18837     18836     18883     18885     18837     18836     18883     18886
     18838     18836     18883     18884     18838     18836     18883     18885
     18838     18836     18883     18886     18839     18842     18845     18846
     18839     18842     18845     18847     18839     18842     18845     18848
     18840     18839     18842     18843     18840     18839     18842     18844
     18840     18839     18842     18845     18841     18839     18842     18843
     18841     18839     18842     18844     18841     18839     18842     18845
     18842     18845     18848     18849     18842     18845     18848     18850
     18842     18845     18848     18851     18843     18842     18845     18846
     18843     18842     18845     18847     18843     18842     18845     18848
     18844     18842     18845     18846     18844     18842     18845     18847
     18844     18842     18845     18848     18845     18848     18851     18852
     18845     18848     18851     18853     18845     18848     18851     18854
     18846     18845     18848     18849     18846     18845     18848     18850
     18846     18845     18848     18851     18847     18845     18848     18849
     18847     18845     18848     18850     18847     18845     18848     18851
     18848     18851     18854     18855     18848     18851     18854     18856
     18848     18851     18854     18857     18849     18848     18851     18852
     18849     18848     18851     18853     18849     18848     18851     18854
     18850     18848     18851     18852     18850     18848     18851     18853
     18850     18848     18851     18854     18851     18854     18857     18858
     18851     18854     18857     18859     18851     18854     18857     18862
     18852     18851     18854     18855     18852     18851     18854     18856
     18852     18851     18854     18857     18853     18851     18854     18855
     18853     18851     18854     18856     18853     18851     18854     18857
     18854     18857     18859     18860     18854     18857     18859     18861
     18854     18857     18859     18862     18854     18857     18862     18859
     18854     18857     18862     18863     18854     18857     18862     18864
     18855     18854     18857     18858     18855     18854     18857     18859
     18855     18854     18857     18862     18856     18854     18857     18858
     18856     18854     18857     18859     18856     18854     18857     18862
     18857     18859     18862     18863     18857     18859     18862     18864
     18857     18862     18859     18860     18857     18862     18859     18861
     18857     18862     18864     18865     18857     18862     18864     18866
     18857     18862     18864     18867     18858     18857     18859     18860
     18858     18857     18859     18861     18858     18857     18859     18862
     18858     18857     18862     18859     18858     18857     18862     18863
     18858     18857     18862     18864     18859     18857     18862     18863
     18859     18857     18862     18864     18859     18862     18864     18865
     18859     18862     18864     18866     18859     18862     18864     18867
     18860     18859     18857     18862     18860     18859     18862     18863
     18860     18859     18862     18864     18861     18859     18857     18862
     18861     18859     18862     18863     18861     18859     18862     18864
     18862     18864     18867     18868     18862     18864     18867     18869
     18862     18864     18867     18870     18863     18862     18864     18865
     18863     18862     18864     18866     18863     18862     18864     18867
     18864     18867     18870     18871     18864     18867     18870     18872
     18864     18867     18870     18873     18865     18864     18867     18868
     18865     18864     18867     18869     18865     18864     18867     18870
     18866     18864     18867     18868     18866     18864     18867     18869
     18866     18864     18867     18870     18867     18870     18873     18874
     18867     18870     18873     18875     18867     18870     18873     18876
     18868     18867     18870     18871     18868     18867     18870     18872
     18868     18867     18870     18873     18869     18867     18870     18871
     18869     18867     18870     18872     18869     18867     18870     18873
     18870     18873     18876     18877     18870     18873     18876     18878
     18870     18873     18876     18879     18871     18870     18873     18874
     18871     18870     18873     18875     18871     18870     18873     18876
     18872     18870     18873     18874     18872     18870     18873     18875
     18872     18870     18873     18876     18873     18876     18879     18880
     18873     18876     18879     18881     18873     18876     18879     18882
     18874     18873     18876     18877     18874     18873     18876     18878
     18874     18873     18876     18879     18875     18873     18876     18877
     18875     18873     18876     18878     18875     18873     18876     18879
     18877     18876     18879     18880     18877     18876     18879     18881
     18877     18876     18879     18882     18878     18876     18879     18880
     18878     18876     18879     18881     18878     18876     18879     18882
     18883     18886     18889     18890     18883     18886     18889     18891
     18883     18886     18889     18892     18884     18883     18886     18887
     18884     18883     18886     18888     18884     18883     18886     18889
     18885     18883     18886     18887     18885     18883     18886     18888
     18885     18883     18886     18889     18886     18889     18892     18893
     18886     18889     18892     18894     18886     18889     18892     18895
     18887     18886     18889     18890     18887     18886     18889     18891
     18887     18886     18889     18892     18888     18886     18889     18890
     18888     18886     18889     18891     18888     18886     18889     18892
     18889     18892     18895     18896     18889     18892     18895     18897
     18889     18892     18895     18898     18890     18889     18892     18893
     18890     18889     18892     18894     18890     18889     18892     18895
     18891     18889     18892     18893     18891     18889     18892     18894
     18891     18889     18892     18895     18892     18895     18898     18899
     18892     18895     18898     18900     18892     18895     18898     18901
     18893     18892     18895     18896     18893     18892     18895     18897
     18893     18892     18895     18898     18894     18892     18895     18896
     18894     18892     18895     18897     18894     18892     18895     18898
     18895     18898     18901     18902     18895     18898     18901     18903
     18895     18898     18901     18904     18896     18895     18898     18899
     18896     18895     18898     18900     18896     18895     18898     18901
     18897     18895     18898     18899     18897     18895     18898     18900
     18897     18895     18898     18901     18898     18901     18904     18905
     18898     18901     18904     18906     18898     18901     18904     18907
     18899     18898     18901     18902     18899     18898     18901     18903
     18899     18898     18901     18904     18900     18898     18901     18902
     18900     18898     18901     18903     18900     18898     18901     18904
     18901     18904     18907     18908     18901     18904     18907     18909
     18901     18904     18907     18910     18902     18901     18904     18905
     18902     18901     18904     18906     18902     18901     18904     18907
     18903     18901     18904     18905     18903     18901     18904     18906
     18903     18901     18904     18907     18904     18907     18910     18911
     18904     18907     18910     18912     18904     18907     18910     18913
     18905     18904     18907     18908     18905     18904     18907     18909
     18905     18904     18907     18910     18906     18904     18907     18908
     18906     18904     18907     18909     18906     18904     18907     18910
     18907     18910     18913     18914     18907     18910     18913     18915
     18907     18910     18913     18916     18908     18907     18910     18911
     18908     18907     18910     18912     18908     18907     18910     18913
     18909     18907     18910     18911     18909     18907     18910     18912
     18909     18907     18910     18913     18910     18913     18916     18917
     18910     18913     18916     18918     18910     18913     18916     18919
     18911     18910     18913     18914     18911     18910     18913     18915
     18911     18910     18913     18916     18912     18910     18913     18914
     18912     18910     18913     18915     18912     18910     18913     18916
     18913     18916     18919     18920     18913     18916     18919     18921
     18913     18916     18919     18922     18914     18913     18916     18917
     18914     18913     18916     18918     18914     18913     18916     18919
     18915     18913     18916     18917     18915     18913     18916     18918
     18915     18913     18916     18919     18917     18916     18919     18920
     18917     18916     18919     18921     18917     18916     18919     18922
     18918     18916     18919     18920     18918     18916     18919     18921
     18918     18916     18919     18922     18923     18927     18930     18931
     18923     18927     18930     18932     18923     18927     18930     18937
     18924     18923     18927     18928     18924     18923     18927     18929
     18924     18923     18927     18930     18925     18923     18927     18928
     18925     18923     18927     18929     18925     18923     18927     18930
     18926     18923     18927     18928     18926     18923     18927     18929
     18926     18923     18927     18930     18927     18930     18937     18933
     18928     18927     18930     18931     18928     18927     18930     18932
     18928     18927     18930     18937     18929     18927     18930     18931
     18929     18927     18930     18932     18929     18927     18930     18937
     18930     18937     18933     18934     18930     18937     18933     18935
     18930     18937     18933     18936     18931     18930     18937     18933
     18932     18930     18937     18933     18933     18936     18938     18939
     18933     18936     18938     18940     18933     18936     18938     18941
     18934     18933     18936     18938     18935     18933     18936     18938
     18936     18938     18941     18942     18936     18938     18941     18943
     18936     18938     18941     18949     18937     18933     18936     18938
     18938     18941     18943     18944     18938     18941     18949     18950
     18938     18941     18949     18951     18938     18941     18949     18952
     18939     18938     18941     18942     18939     18938     18941     18943
     18939     18938     18941     18949     18940     18938     18941     18942
     18940     18938     18941     18943     18940     18938     18941     18949
     18941     18943     18944     18945     18941     18943     18944     18946
     18941     18949     18952     18953     18942     18941     18943     18944
     18942     18941     18949     18950     18942     18941     18949     18951
     18942     18941     18949     18952     18943     18941     18949     18950
     18943     18941     18949     18951     18943     18941     18949     18952
     18943     18944     18946     18947     18943     18944     18946     18948
     18943     18944     18946     18958     18944     18943     18941     18949
     18944     18946     18958     18959     18944     18946     18958     18960
     18944     18946     18958     18961     18945     18944     18946     18947
     18945     18944     18946     18948     18945     18944     18946     18958
     18946     18958     18961     18962     18946     18958     18961     18963
     18946     18958     18961     18964     18947     18946     18958     18959
     18947     18946     18958     18960     18947     18946     18958     18961
     18948     18946     18958     18959     18948     18946     18958     18960
     18948     18946     18958     18961     18949     18952     18953     18954
     18949     18952     18953     18955     18950     18949     18952     18953
     18951     18949     18952     18953     18952     18953     18955     18956
     18952     18953     18955     18957     18952     18953     18955     19002
     18953     18955     19002     19003     18953     18955     19002     19004
     18953     18955     19002     19005     18954     18953     18955     18956
     18954     18953     18955     18957     18954     18953     18955     19002
     18955     19002     19005     19006     18955     19002     19005     19007
     18955     19002     19005     19008     18956     18955     19002     19003
     18956     18955     19002     19004     18956     18955     19002     19005
     18957     18955     19002     19003     18957     18955     19002     19004
     18957     18955     19002     19005     18958     18961     18964     18965
     18958     18961     18964     18966     18958     18961     18964     18967
     18959     18958     18961     18962     18959     18958     18961     18963
     18959     18958     18961     18964     18960     18958     18961     18962
     18960     18958     18961     18963     18960     18958     18961     18964
     18961     18964     18967     18968     18961     18964     18967     18969
     18961     18964     18967     18970     18962     18961     18964     18965
     18962     18961     18964     18966     18962     18961     18964     18967
     18963     18961     18964     18965     18963     18961     18964     18966
     18963     18961     18964     18967     18964     18967     18970     18971
     18964     18967     18970     18972     18964     18967     18970     18973
     18965     18964     18967     18968     18965     18964     18967     18969
     18965     18964     18967     18970     18966     18964     18967     18968
     18966     18964     18967     18969     18966     18964     18967     18970
     18967     18970     18973     18974     18967     18970     18973     18975
     18967     18970     18973     18976     18968     18967     18970     18971
     18968     18967     18970     18972     18968     18967     18970     18973
     18969     18967     18970     18971     18969     18967     18970     18972
     18969     18967     18970     18973     18970     18973     18976     18977
     18970     18973     18976     18978     18970     18973     18976     18981
     18971     18970     18973     18974     18971     18970     18973     18975
     18971     18970     18973     18976     18972     18970     18973     18974
     18972     18970     18973     18975     18972     18970     18973     18976
     18973     18976     18978     18979     18973     18976     18978     18980
     18973     18976     18978     18981     18973     18976     18981     18978
     18973     18976     18981     18982     18973     18976     18981     18983
     18974     18973     18976     18977     18974     18973     18976     18978
     18974     18973     18976     18981     18975     18973     18976     18977
     18975     18973     18976     18978     18975     18973     18976     18981
     18976     18978     18981     18982     18976     18978     18981     18983
     18976     18981     18978     18979     18976     18981     18978     18980
     18976     18981     18983     18984     18976     18981     18983     18985
     18976     18981     18983     18986     18977     18976     18978     18979
     18977     18976     18978     18980     18977     18976     18978     18981
     18977     18976     18981     18978     18977     18976     18981     18982
     18977     18976     18981     18983     18978     18976     18981     18982
     18978     18976     18981     18983     18978     18981     18983     18984
     18978     18981     18983     18985     18978     18981     18983     18986
     18979     18978     18976     18981     18979     18978     18981     18982
     18979     18978     18981     18983     18980     18978     18976     18981
     18980     18978     18981     18982     18980     18978     18981     18983
     18981     18983     18986     18987     18981     18983     18986     18988
     18981     18983     18986     18989     18982     18981     18983     18984
     18982     18981     18983     18985     18982     18981     18983     18986
     18983     18986     18989     18990     18983     18986     18989     18991
     18983     18986     18989     18992     18984     18983     18986     18987
     18984     18983     18986     18988     18984     18983     18986     18989
     18985     18983     18986     18987     18985     18983     18986     18988
     18985     18983     18986     18989     18986     18989     18992     18993
     18986     18989     18992     18994     18986     18989     18992     18995
     18987     18986     18989     18990     18987     18986     18989     18991
     18987     18986     18989     18992     18988     18986     18989     18990
     18988     18986     18989     18991     18988     18986     18989     18992
     18989     18992     18995     18996     18989     18992     18995     18997
     18989     18992     18995     18998     18990     18989     18992     18993
     18990     18989     18992     18994     18990     18989     18992     18995
     18991     18989     18992     18993     18991     18989     18992     18994
     18991     18989     18992     18995     18992     18995     18998     18999
     18992     18995     18998     19000     18992     18995     18998     19001
     18993     18992     18995     18996     18993     18992     18995     18997
     18993     18992     18995     18998     18994     18992     18995     18996
     18994     18992     18995     18997     18994     18992     18995     18998
     18996     18995     18998     18999     18996     18995     18998     19000
     18996     18995     18998     19001     18997     18995     18998     18999
     18997     18995     18998     19000     18997     18995     18998     19001
     19002     19005     19008     19009     19002     19005     19008     19010
     19002     19005     19008     19011     19003     19002     19005     19006
     19003     19002     19005     19007     19003     19002     19005     19008
     19004     19002     19005     19006     19004     19002     19005     19007
     19004     19002     19005     19008     19005     19008     19011     19012
     19005     19008     19011     19013     19005     19008     19011     19014
     19006     19005     19008     19009     19006     19005     19008     19010
     19006     19005     19008     19011     19007     19005     19008     19009
     19007     19005     19008     19010     19007     19005     19008     19011
     19008     19011     19014     19015     19008     19011     19014     19016
     19008     19011     19014     19017     19009     19008     19011     19012
     19009     19008     19011     19013     19009     19008     19011     19014
     19010     19008     19011     19012     19010     19008     19011     19013
     19010     19008     19011     19014     19011     19014     19017     19018
     19011     19014     19017     19019     19011     19014     19017     19020
     19012     19011     19014     19015     19012     19011     19014     19016
     19012     19011     19014     19017     19013     19011     19014     19015
     19013     19011     19014     19016     19013     19011     19014     19017
     19014     19017     19020     19021     19014     19017     19020     19022
     19014     19017     19020     19023     19015     19014     19017     19018
     19015     19014     19017     19019     19015     19014     19017     19020
     19016     19014     19017     19018     19016     19014     19017     19019
     19016     19014     19017     19020     19017     19020     19023     19024
     19017     19020     19023     19025     19017     19020     19023     19026
     19018     19017     19020     19021     19018     19017     19020     19022
     19018     19017     19020     19023     19019     19017     19020     19021
     19019     19017     19020     19022     19019     19017     19020     19023
     19020     19023     19026     19027     19020     19023     19026     19028
     19020     19023     19026     19029     19021     19020     19023     19024
     19021     19020     19023     19025     19021     19020     19023     19026
     19022     19020     19023     19024     19022     19020     19023     19025
     19022     19020     19023     19026     19023     19026     19029     19030
     19023     19026     19029     19031     19023     19026     19029     19032
     19024     19023     19026     19027     19024     19023     19026     19028
     19024     19023     19026     19029     19025     19023     19026     19027
     19025     19023     19026     19028     19025     19023     19026     19029
     19026     19029     19032     19033     19026     19029     19032     19034
     19026     19029     19032     19035     19027     19026     19029     19030
     19027     19026     19029     19031     19027     19026     19029     19032
     19028     19026     19029     19030     19028     19026     19029     19031
     19028     19026     19029     19032     19029     19032     19035     19036
     19029     19032     19035     19037     19029     19032     19035     19038
     19030     19029     19032     19033     19030     19029     19032     19034
     19030     19029     19032     19035     19031     19029     19032     19033
     19031     19029     19032     19034     19031     19029     19032     19035
     19032     19035     19038     19039     19032     19035     19038     19040
     19032     19035     19038     19041     19033     19032     19035     19036
     19033     19032     19035     19037     19033     19032     19035     19038
     19034     19032     19035     19036     19034     19032     19035     19037
     19034     19032     19035     19038     19035     19038     19041     19042
     19035     19038     19041     19043     19035     19038     19041     19044
     19036     19035     19038     19039     19036     19035     19038     19040
     19036     19035     19038     19041     19037     19035     19038     19039
     19037     19035     19038     19040     19037     19035     19038     19041
     19039     19038     19041     19042     19039     19038     19041     19043
     19039     19038     19041     19044     19040     19038     19041     19042
     19040     19038     19041     19043     19040     19038     19041     19044
     19045     19049     19052     19053     19045     19049     19052     19054
     19045     19049     19052     19059     19046     19045     19049     19050
     19046     19045     19049     19051     19046     19045     19049     19052
     19047     19045     19049     19050     19047     19045     19049     19051
     19047     19045     19049     19052     19048     19045     19049     19050
     19048     19045     19049     19051     19048     19045     19049     19052
     19049     19052     19059     19055     19050     19049     19052     19053
     19050     19049     19052     19054     19050     19049     19052     19059
     19051     19049     19052     19053     19051     19049     19052     19054
     19051     19049     19052     19059     19052     19059     19055     19056
     19052     19059     19055     19057     19052     19059     19055     19058
     19053     19052     19059     19055     19054     19052     19059     19055
     19055     19058     19060     19061     19055     19058     19060     19062
     19055     19058     19060     19063     19056     19055     19058     19060
     19057     19055     19058     19060     19058     19060     19063     19064
     19058     19060     19063     19065     19058     19060     19063     19071
     19059     19055     19058     19060     19060     19063     19065     19066
     19060     19063     19071     19072     19060     19063     19071     19073
     19060     19063     19071     19074     19061     19060     19063     19064
     19061     19060     19063     19065     19061     19060     19063     19071
     19062     19060     19063     19064     19062     19060     19063     19065
     19062     19060     19063     19071     19063     19065     19066     19067
     19063     19065     19066     19068     19063     19071     19074     19075
     19064     19063     19065     19066     19064     19063     19071     19072
     19064     19063     19071     19073     19064     19063     19071     19074
     19065     19063     19071     19072     19065     19063     19071     19073
     19065     19063     19071     19074     19065     19066     19068     19069
     19065     19066     19068     19070     19065     19066     19068     19080
     19066     19065     19063     19071     19066     19068     19080     19081
     19066     19068     19080     19082     19066     19068     19080     19083
     19067     19066     19068     19069     19067     19066     19068     19070
     19067     19066     19068     19080     19068     19080     19083     19084
     19068     19080     19083     19085     19068     19080     19083     19086
     19069     19068     19080     19081     19069     19068     19080     19082
     19069     19068     19080     19083     19070     19068     19080     19081
     19070     19068     19080     19082     19070     19068     19080     19083
     19071     19074     19075     19076     19071     19074     19075     19077
     19072     19071     19074     19075     19073     19071     19074     19075
     19074     19075     19077     19078     19074     19075     19077     19079
     19074     19075     19077     19124     19075     19077     19124     19125
     19075     19077     19124     19126     19075     19077     19124     19127
     19076     19075     19077     19078     19076     19075     19077     19079
     19076     19075     19077     19124     19077     19124     19127     19128
     19077     19124     19127     19129     19077     19124     19127     19130
     19078     19077     19124     19125     19078     19077     19124     19126
     19078     19077     19124     19127     19079     19077     19124     19125
     19079     19077     19124     19126     19079     19077     19124     19127
     19080     19083     19086     19087     19080     19083     19086     19088
     19080     19083     19086     19089     19081     19080     19083     19084
     19081     19080     19083     19085     19081     19080     19083     19086
     19082     19080     19083     19084     19082     19080     19083     19085
     19082     19080     19083     19086     19083     19086     19089     19090
     19083     19086     19089     19091     19083     19086     19089     19092
     19084     19083     19086     19087     19084     19083     19086     19088
     19084     19083     19086     19089     19085     19083     19086     19087
     19085     19083     19086     19088     19085     19083     19086     19089
     19086     19089     19092     19093     19086     19089     19092     19094
     19086     19089     19092     19095     19087     19086     19089     19090
     19087     19086     19089     19091     19087     19086     19089     19092
     19088     19086     19089     19090     19088     19086     19089     19091
     19088     19086     19089     19092     19089     19092     19095     19096
     19089     19092     19095     19097     19089     19092     19095     19098
     19090     19089     19092     19093     19090     19089     19092     19094
     19090     19089     19092     19095     19091     19089     19092     19093
     19091     19089     19092     19094     19091     19089     19092     19095
     19092     19095     19098     19099     19092     19095     19098     19100
     19092     19095     19098     19103     19093     19092     19095     19096
     19093     19092     19095     19097     19093     19092     19095     19098
     19094     19092     19095     19096     19094     19092     19095     19097
     19094     19092     19095     19098     19095     19098     19100     19101
     19095     19098     19100     19102     19095     19098     19100     19103
     19095     19098     19103     19100     19095     19098     19103     19104
     19095     19098     19103     19105     19096     19095     19098     19099
     19096     19095     19098     19100     19096     19095     19098     19103
     19097     19095     19098     19099     19097     19095     19098     19100
     19097     19095     19098     19103     19098     19100     19103     19104
     19098     19100     19103     19105     19098     19103     19100     19101
     19098     19103     19100     19102     19098     19103     19105     19106
     19098     19103     19105     19107     19098     19103     19105     19108
     19099     19098     19100     19101     19099     19098     19100     19102
     19099     19098     19100     19103     19099     19098     19103     19100
     19099     19098     19103     19104     19099     19098     19103     19105
     19100     19098     19103     19104     19100     19098     19103     19105
     19100     19103     19105     19106     19100     19103     19105     19107
     19100     19103     19105     19108     19101     19100     19098     19103
     19101     19100     19103     19104     19101     19100     19103     19105
     19102     19100     19098     19103     19102     19100     19103     19104
     19102     19100     19103     19105     19103     19105     19108     19109
     19103     19105     19108     19110     19103     19105     19108     19111
     19104     19103     19105     19106     19104     19103     19105     19107
     19104     19103     19105     19108     19105     19108     19111     19112
     19105     19108     19111     19113     19105     19108     19111     19114
     19106     19105     19108     19109     19106     19105     19108     19110
     19106     19105     19108     19111     19107     19105     19108     19109
     19107     19105     19108     19110     19107     19105     19108     19111
     19108     19111     19114     19115     19108     19111     19114     19116
     19108     19111     19114     19117     19109     19108     19111     19112
     19109     19108     19111     19113     19109     19108     19111     19114
     19110     19108     19111     19112     19110     19108     19111     19113
     19110     19108     19111     19114     19111     19114     19117     19118
     19111     19114     19117     19119     19111     19114     19117     19120
     19112     19111     19114     19115     19112     19111     19114     19116
     19112     19111     19114     19117     19113     19111     19114     19115
     19113     19111     19114     19116     19113     19111     19114     19117
     19114     19117     19120     19121     19114     19117     19120     19122
     19114     19117     19120     19123     19115     19114     19117     19118
     19115     19114     19117     19119     19115     19114     19117     19120
     19116     19114     19117     19118     19116     19114     19117     19119
     19116     19114     19117     19120     19118     19117     19120     19121
     19118     19117     19120     19122     19118     19117     19120     19123
     19119     19117     19120     19121     19119     19117     19120     19122
     19119     19117     19120     19123     19124     19127     19130     19131
     19124     19127     19130     19132     19124     19127     19130     19133
     19125     19124     19127     19128     19125     19124     19127     19129
     19125     19124     19127     19130     19126     19124     19127     19128
     19126     19124     19127     19129     19126     19124     19127     19130
     19127     19130     19133     19134     19127     19130     19133     19135
     19127     19130     19133     19136     19128     19127     19130     19131
     19128     19127     19130     19132     19128     19127     19130     19133
     19129     19127     19130     19131     19129     19127     19130     19132
     19129     19127     19130     19133     19130     19133     19136     19137
     19130     19133     19136     19138     19130     19133     19136     19139
     19131     19130     19133     19134     19131     19130     19133     19135
     19131     19130     19133     19136     19132     19130     19133     19134
     19132     19130     19133     19135     19132     19130     19133     19136
     19133     19136     19139     19140     19133     19136     19139     19141
     19133     19136     19139     19142     19134     19133     19136     19137
     19134     19133     19136     19138     19134     19133     19136     19139
     19135     19133     19136     19137     19135     19133     19136     19138
     19135     19133     19136     19139     19136     19139     19142     19143
     19136     19139     19142     19144     19136     19139     19142     19145
     19137     19136     19139     19140     19137     19136     19139     19141
     19137     19136     19139     19142     19138     19136     19139     19140
     19138     19136     19139     19141     19138     19136     19139     19142
     19139     19142     19145     19146     19139     19142     19145     19147
     19139     19142     19145     19148     19140     19139     19142     19143
     19140     19139     19142     19144     19140     19139     19142     19145
     19141     19139     19142     19143     19141     19139     19142     19144
     19141     19139     19142     19145     19142     19145     19148     19149
     19142     19145     19148     19150     19142     19145     19148     19151
     19143     19142     19145     19146     19143     19142     19145     19147
     19143     19142     19145     19148     19144     19142     19145     19146
     19144     19142     19145     19147     19144     19142     19145     19148
     19145     19148     19151     19152     19145     19148     19151     19153
     19145     19148     19151     19154     19146     19145     19148     19149
     19146     19145     19148     19150     19146     19145     19148     19151
     19147     19145     19148     19149     19147     19145     19148     19150
     19147     19145     19148     19151     19148     19151     19154     19155
     19148     19151     19154     19156     19148     19151     19154     19157
     19149     19148     19151     19152     19149     19148     19151     19153
     19149     19148     19151     19154     19150     19148     19151     19152
     19150     19148     19151     19153     19150     19148     19151     19154
     19151     19154     19157     19158     19151     19154     19157     19159
     19151     19154     19157     19160     19152     19151     19154     19155
     19152     19151     19154     19156     19152     19151     19154     19157
     19153     19151     19154     19155     19153     19151     19154     19156
     19153     19151     19154     19157     19154     19157     19160     19161
     19154     19157     19160     19162     19154     19157     19160     19163
     19155     19154     19157     19158     19155     19154     19157     19159
     19155     19154     19157     19160     19156     19154     19157     19158
     19156     19154     19157     19159     19156     19154     19157     19160
     19157     19160     19163     19164     19157     19160     19163     19165
     19157     19160     19163     19166     19158     19157     19160     19161
     19158     19157     19160     19162     19158     19157     19160     19163
     19159     19157     19160     19161     19159     19157     19160     19162
     19159     19157     19160     19163     19161     19160     19163     19164
     19161     19160     19163     19165     19161     19160     19163     19166
     19162     19160     19163     19164     19162     19160     19163     19165
     19162     19160     19163     19166     19167     19172     19174     19175
     19167     19172     19176     19177     19167     19172     19176     19178
     19167     19172     19176     19183     19168     19167     19170     19171
     19168     19167     19172     19173     19168     19167     19172     19174
     19168     19167     19172     19176     19169     19167     19170     19171
     19169     19167     19172     19173     19169     19167     19172     19174
     19169     19167     19172     19176     19170     19167     19172     19173
     19170     19167     19172     19174     19170     19167     19172     19176
     19171     19170     19167     19172     19172     19176     19183     19179
     19173     19172     19174     19175     19173     19172     19176     19177
     19173     19172     19176     19178     19173     19172     19176     19183
     19174     19172     19176     19177     19174     19172     19176     19178
     19174     19172     19176     19183     19175     19174     19172     19176
     19176     19183     19179     19180     19176     19183     19179     19181
     19176     19183     19179     19182     19177     19176     19183     19179
     19178     19176     19183     19179     19179     19182     19184     19185
     19179     19182     19184     19186     19179     19182     19184     19187
     19180     19179     19182     19184     19181     19179     19182     19184
     19182     19184     19187     19188     19182     19184     19187     19189
     19182     19184     19187     19195     19183     19179     19182     19184
     19184     19187     19189     19190     19184     19187     19195     19196
     19184     19187     19195     19197     19184     19187     19195     19198
     19185     19184     19187     19188     19185     19184     19187     19189
     19185     19184     19187     19195     19186     19184     19187     19188
     19186     19184     19187     19189     19186     19184     19187     19195
     19187     19189     19190     19191     19187     19189     19190     19192
     19187     19195     19198     19199     19188     19187     19189     19190
     19188     19187     19195     19196     19188     19187     19195     19197
     19188     19187     19195     19198     19189     19187     19195     19196
     19189     19187     19195     19197     19189     19187     19195     19198
     19189     19190     19192     19193     19189     19190     19192     19194
     19189     19190     19192     19204     19190     19189     19187     19195
     19190     19192     19204     19205     19190     19192     19204     19206
     19190     19192     19204     19207     19191     19190     19192     19193
     19191     19190     19192     19194     19191     19190     19192     19204
     19192     19204     19207     19208     19192     19204     19207     19209
     19192     19204     19207     19210     19193     19192     19204     19205
     19193     19192     19204     19206     19193     19192     19204     19207
     19194     19192     19204     19205     19194     19192     19204     19206
     19194     19192     19204     19207     19195     19198     19199     19200
     19195     19198     19199     19201     19196     19195     19198     19199
     19197     19195     19198     19199     19198     19199     19201     19202
     19198     19199     19201     19203     19198     19199     19201     19245
     19199     19201     19245     19246     19199     19201     19245     19247
     19199     19201     19245     19248     19200     19199     19201     19202
     19200     19199     19201     19203     19200     19199     19201     19245
     19201     19245     19248     19249     19201     19245     19248     19250
     19201     19245     19248     19251     19202     19201     19245     19246
     19202     19201     19245     19247     19202     19201     19245     19248
     19203     19201     19245     19246     19203     19201     19245     19247
     19203     19201     19245     19248     19204     19207     19210     19211
     19204     19207     19210     19212     19204     19207     19210     19213
     19205     19204     19207     19208     19205     19204     19207     19209
     19205     19204     19207     19210     19206     19204     19207     19208
     19206     19204     19207     19209     19206     19204     19207     19210
     19207     19210     19213     19214     19207     19210     19213     19215
     19207     19210     19213     19216     19208     19207     19210     19211
     19208     19207     19210     19212     19208     19207     19210     19213
     19209     19207     19210     19211     19209     19207     19210     19212
     19209     19207     19210     19213     19210     19213     19216     19217
     19210     19213     19216     19218     19210     19213     19216     19219
     19211     19210     19213     19214     19211     19210     19213     19215
     19211     19210     19213     19216     19212     19210     19213     19214
     19212     19210     19213     19215     19212     19210     19213     19216
     19213     19216     19219     19220     19213     19216     19219     19221
     19213     19216     19219     19222     19214     19213     19216     19217
     19214     19213     19216     19218     19214     19213     19216     19219
     19215     19213     19216     19217     19215     19213     19216     19218
     19215     19213     19216     19219     19216     19219     19222     19223
     19216     19219     19222     19224     19217     19216     19219     19220
     19217     19216     19219     19221     19217     19216     19219     19222
     19218     19216     19219     19220     19218     19216     19219     19221
     19218     19216     19219     19222     19219     19222     19224     19225
     19219     19222     19224     19226     19220     19219     19222     19223
     19220     19219     19222     19224     19221     19219     19222     19223
     19221     19219     19222     19224     19222     19224     19226     19227
     19222     19224     19226     19228     19222     19224     19226     19229
     19223     19222     19224     19225     19223     19222     19224     19226
     19224     19226     19229     19230     19224     19226     19229     19231
     19224     19226     19229     19232     19225     19224     19226     19227
     19225     19224     19226     19228     19225     19224     19226     19229
     19226     19229     19232     19233     19226     19229     19232     19234
     19226     19229     19232     19235     19227     19226     19229     19230
     19227     19226     19229     19231     19227     19226     19229     19232
     19228     19226     19229     19230     19228     19226     19229     19231
     19228     19226     19229     19232     19229     19232     19235     19236
     19229     19232     19235     19237     19229     19232     19235     19238
     19230     19229     19232     19233     19230     19229     19232     19234
     19230     19229     19232     19235     19231     19229     19232     19233
     19231     19229     19232     19234     19231     19229     19232     19235
     19232     19235     19238     19239     19232     19235     19238     19240
     19232     19235     19238     19241     19233     19232     19235     19236
     19233     19232     19235     19237     19233     19232     19235     19238
     19234     19232     19235     19236     19234     19232     19235     19237
     19234     19232     19235     19238     19235     19238     19241     19242
     19235     19238     19241     19243     19235     19238     19241     19244
     19236     19235     19238     19239     19236     19235     19238     19240
     19236     19235     19238     19241     19237     19235     19238     19239
     19237     19235     19238     19240     19237     19235     19238     19241
     19239     19238     19241     19242     19239     19238     19241     19243
     19239     19238     19241     19244     19240     19238     19241     19242
     19240     19238     19241     19243     19240     19238     19241     19244
     19245     19248     19251     19252     19245     19248     19251     19253
     19245     19248     19251     19254     19246     19245     19248     19249
     19246     19245     19248     19250     19246     19245     19248     19251
     19247     19245     19248     19249     19247     19245     19248     19250
     19247     19245     19248     19251     19248     19251     19254     19255
     19248     19251     19254     19256     19248     19251     19254     19257
     19249     19248     19251     19252     19249     19248     19251     19253
     19249     19248     19251     19254     19250     19248     19251     19252
     19250     19248     19251     19253     19250     19248     19251     19254
     19251     19254     19257     19258     19251     19254     19257     19259
     19251     19254     19257     19260     19252     19251     19254     19255
     19252     19251     19254     19256     19252     19251     19254     19257
     19253     19251     19254     19255     19253     19251     19254     19256
     19253     19251     19254     19257     19254     19257     19260     19261
     19254     19257     19260     19262     19254     19257     19260     19263
     19255     19254     19257     19258     19255     19254     19257     19259
     19255     19254     19257     19260     19256     19254     19257     19258
     19256     19254     19257     19259     19256     19254     19257     19260
     19257     19260     19263     19264     19257     19260     19263     19265
     19257     19260     19263     19266     19258     19257     19260     19261
     19258     19257     19260     19262     19258     19257     19260     19263
     19259     19257     19260     19261     19259     19257     19260     19262
     19259     19257     19260     19263     19260     19263     19266     19267
     19260     19263     19266     19268     19260     19263     19266     19269
     19261     19260     19263     19264     19261     19260     19263     19265
     19261     19260     19263     19266     19262     19260     19263     19264
     19262     19260     19263     19265     19262     19260     19263     19266
     19263     19266     19269     19270     19263     19266     19269     19271
     19263     19266     19269     19272     19264     19263     19266     19267
     19264     19263     19266     19268     19264     19263     19266     19269
     19265     19263     19266     19267     19265     19263     19266     19268
     19265     19263     19266     19269     19266     19269     19272     19273
     19266     19269     19272     19274     19266     19269     19272     19275
     19267     19266     19269     19270     19267     19266     19269     19271
     19267     19266     19269     19272     19268     19266     19269     19270
     19268     19266     19269     19271     19268     19266     19269     19272
     19269     19272     19275     19276     19269     19272     19275     19277
     19269     19272     19275     19278     19270     19269     19272     19273
     19270     19269     19272     19274     19270     19269     19272     19275
     19271     19269     19272     19273     19271     19269     19272     19274
     19271     19269     19272     19275     19272     19275     19278     19279
     19272     19275     19278     19280     19272     19275     19278     19281
     19273     19272     19275     19276     19273     19272     19275     19277
     19273     19272     19275     19278     19274     19272     19275     19276
     19274     19272     19275     19277     19274     19272     19275     19278
     19275     19278     19281     19282     19275     19278     19281     19283
     19275     19278     19281     19284     19276     19275     19278     19279
     19276     19275     19278     19280     19276     19275     19278     19281
     19277     19275     19278     19279     19277     19275     19278     19280
     19277     19275     19278     19281     19278     19281     19284     19285
     19278     19281     19284     19286     19278     19281     19284     19287
     19279     19278     19281     19282     19279     19278     19281     19283
     19279     19278     19281     19284     19280     19278     19281     19282
     19280     19278     19281     19283     19280     19278     19281     19284
     19282     19281     19284     19285     19282     19281     19284     19286
     19282     19281     19284     19287     19283     19281     19284     19285
     19283     19281     19284     19286     19283     19281     19284     19287
     19288     19292     19295     19296     19288     19292     19295     19297
     19288     19292     19295     19302     19289     19288     19292     19293
     19289     19288     19292     19294     19289     19288     19292     19295
     19290     19288     19292     19293     19290     19288     19292     19294
     19290     19288     19292     19295     19291     19288     19292     19293
     19291     19288     19292     19294     19291     19288     19292     19295
     19292     19295     19302     19298     19293     19292     19295     19296
     19293     19292     19295     19297     19293     19292     19295     19302
     19294     19292     19295     19296     19294     19292     19295     19297
     19294     19292     19295     19302     19295     19302     19298     19299
     19295     19302     19298     19300     19295     19302     19298     19301
     19296     19295     19302     19298     19297     19295     19302     19298
     19298     19301     19303     19304     19298     19301     19303     19305
     19298     19301     19303     19306     19299     19298     19301     19303
     19300     19298     19301     19303     19301     19303     19306     19307
     19301     19303     19306     19308     19301     19303     19306     19314
     19302     19298     19301     19303     19303     19306     19308     19309
     19303     19306     19314     19315     19303     19306     19314     19316
     19303     19306     19314     19317     19304     19303     19306     19307
     19304     19303     19306     19308     19304     19303     19306     19314
     19305     19303     19306     19307     19305     19303     19306     19308
     19305     19303     19306     19314     19306     19308     19309     19310
     19306     19308     19309     19311     19306     19314     19317     19318
     19307     19306     19308     19309     19307     19306     19314     19315
     19307     19306     19314     19316     19307     19306     19314     19317
     19308     19306     19314     19315     19308     19306     19314     19316
     19308     19306     19314     19317     19308     19309     19311     19312
     19308     19309     19311     19313     19308     19309     19311     19323
     19309     19308     19306     19314     19309     19311     19323     19324
     19309     19311     19323     19325     19309     19311     19323     19326
     19310     19309     19311     19312     19310     19309     19311     19313
     19310     19309     19311     19323     19311     19323     19326     19327
     19311     19323     19326     19328     19311     19323     19326     19329
     19312     19311     19323     19324     19312     19311     19323     19325
     19312     19311     19323     19326     19313     19311     19323     19324
     19313     19311     19323     19325     19313     19311     19323     19326
     19314     19317     19318     19319     19314     19317     19318     19320
     19315     19314     19317     19318     19316     19314     19317     19318
     19317     19318     19320     19321     19317     19318     19320     19322
     19317     19318     19320     19367     19318     19320     19367     19368
     19318     19320     19367     19369     19318     19320     19367     19370
     19319     19318     19320     19321     19319     19318     19320     19322
     19319     19318     19320     19367     19320     19367     19370     19371
     19320     19367     19370     19372     19320     19367     19370     19373
     19321     19320     19367     19368     19321     19320     19367     19369
     19321     19320     19367     19370     19322     19320     19367     19368
     19322     19320     19367     19369     19322     19320     19367     19370
     19323     19326     19329     19330     19323     19326     19329     19331
     19323     19326     19329     19332     19324     19323     19326     19327
     19324     19323     19326     19328     19324     19323     19326     19329
     19325     19323     19326     19327     19325     19323     19326     19328
     19325     19323     19326     19329     19326     19329     19332     19333
     19326     19329     19332     19334     19326     19329     19332     19335
     19327     19326     19329     19330     19327     19326     19329     19331
     19327     19326     19329     19332     19328     19326     19329     19330
     19328     19326     19329     19331     19328     19326     19329     19332
     19329     19332     19335     19336     19329     19332     19335     19337
     19329     19332     19335     19338     19330     19329     19332     19333
     19330     19329     19332     19334     19330     19329     19332     19335
     19331     19329     19332     19333     19331     19329     19332     19334
     19331     19329     19332     19335     19332     19335     19338     19339
     19332     19335     19338     19340     19332     19335     19338     19341
     19333     19332     19335     19336     19333     19332     19335     19337
     19333     19332     19335     19338     19334     19332     19335     19336
     19334     19332     19335     19337     19334     19332     19335     19338
     19335     19338     19341     19342     19335     19338     19341     19343
     19335     19338     19341     19346     19336     19335     19338     19339
     19336     19335     19338     19340     19336     19335     19338     19341
     19337     19335     19338     19339     19337     19335     19338     19340
     19337     19335     19338     19341     19338     19341     19343     19344
     19338     19341     19343     19345     19338     19341     19343     19346
     19338     19341     19346     19343     19338     19341     19346     19347
     19338     19341     19346     19348     19339     19338     19341     19342
     19339     19338     19341     19343     19339     19338     19341     19346
     19340     19338     19341     19342     19340     19338     19341     19343
     19340     19338     19341     19346     19341     19343     19346     19347
     19341     19343     19346     19348     19341     19346     19343     19344
     19341     19346     19343     19345     19341     19346     19348     19349
     19341     19346     19348     19350     19341     19346     19348     19351
     19342     19341     19343     19344     19342     19341     19343     19345
     19342     19341     19343     19346     19342     19341     19346     19343
     19342     19341     19346     19347     19342     19341     19346     19348
     19343     19341     19346     19347     19343     19341     19346     19348
     19343     19346     19348     19349     19343     19346     19348     19350
     19343     19346     19348     19351     19344     19343     19341     19346
     19344     19343     19346     19347     19344     19343     19346     19348
     19345     19343     19341     19346     19345     19343     19346     19347
     19345     19343     19346     19348     19346     19348     19351     19352
     19346     19348     19351     19353     19346     19348     19351     19354
     19347     19346     19348     19349     19347     19346     19348     19350
     19347     19346     19348     19351     19348     19351     19354     19355
     19348     19351     19354     19356     19348     19351     19354     19357
     19349     19348     19351     19352     19349     19348     19351     19353
     19349     19348     19351     19354     19350     19348     19351     19352
     19350     19348     19351     19353     19350     19348     19351     19354
     19351     19354     19357     19358     19351     19354     19357     19359
     19351     19354     19357     19360     19352     19351     19354     19355
     19352     19351     19354     19356     19352     19351     19354     19357
     19353     19351     19354     19355     19353     19351     19354     19356
     19353     19351     19354     19357     19354     19357     19360     19361
     19354     19357     19360     19362     19354     19357     19360     19363
     19355     19354     19357     19358     19355     19354     19357     19359
     19355     19354     19357     19360     19356     19354     19357     19358
     19356     19354     19357     19359     19356     19354     19357     19360
     19357     19360     19363     19364     19357     19360     19363     19365
     19357     19360     19363     19366     19358     19357     19360     19361
     19358     19357     19360     19362     19358     19357     19360     19363
     19359     19357     19360     19361     19359     19357     19360     19362
     19359     19357     19360     19363     19361     19360     19363     19364
     19361     19360     19363     19365     19361     19360     19363     19366
     19362     19360     19363     19364     19362     19360     19363     19365
     19362     19360     19363     19366     19367     19370     19373     19374
     19367     19370     19373     19375     19367     19370     19373     19376
     19368     19367     19370     19371     19368     19367     19370     19372
     19368     19367     19370     19373     19369     19367     19370     19371
     19369     19367     19370     19372     19369     19367     19370     19373
     19370     19373     19376     19377     19370     19373     19376     19378
     19370     19373     19376     19379     19371     19370     19373     19374
     19371     19370     19373     19375     19371     19370     19373     19376
     19372     19370     19373     19374     19372     19370     19373     19375
     19372     19370     19373     19376     19373     19376     19379     19380
     19373     19376     19379     19381     19373     19376     19379     19382
     19374     19373     19376     19377     19374     19373     19376     19378
     19374     19373     19376     19379     19375     19373     19376     19377
     19375     19373     19376     19378     19375     19373     19376     19379
     19376     19379     19382     19383     19376     19379     19382     19384
     19376     19379     19382     19385     19377     19376     19379     19380
     19377     19376     19379     19381     19377     19376     19379     19382
     19378     19376     19379     19380     19378     19376     19379     19381
     19378     19376     19379     19382     19379     19382     19385     19386
     19379     19382     19385     19387     19379     19382     19385     19388
     19380     19379     19382     19383     19380     19379     19382     19384
     19380     19379     19382     19385     19381     19379     19382     19383
     19381     19379     19382     19384     19381     19379     19382     19385
     19382     19385     19388     19389     19382     19385     19388     19390
     19382     19385     19388     19391     19383     19382     19385     19386
     19383     19382     19385     19387     19383     19382     19385     19388
     19384     19382     19385     19386     19384     19382     19385     19387
     19384     19382     19385     19388     19385     19388     19391     19392
     19385     19388     19391     19393     19385     19388     19391     19394
     19386     19385     19388     19389     19386     19385     19388     19390
     19386     19385     19388     19391     19387     19385     19388     19389
     19387     19385     19388     19390     19387     19385     19388     19391
     19388     19391     19394     19395     19388     19391     19394     19396
     19388     19391     19394     19397     19389     19388     19391     19392
     19389     19388     19391     19393     19389     19388     19391     19394
     19390     19388     19391     19392     19390     19388     19391     19393
     19390     19388     19391     19394     19391     19394     19397     19398
     19391     19394     19397     19399     19391     19394     19397     19400
     19392     19391     19394     19395     19392     19391     19394     19396
     19392     19391     19394     19397     19393     19391     19394     19395
     19393     19391     19394     19396     19393     19391     19394     19397
     19394     19397     19400     19401     19394     19397     19400     19402
     19394     19397     19400     19403     19395     19394     19397     19398
     19395     19394     19397     19399     19395     19394     19397     19400
     19396     19394     19397     19398     19396     19394     19397     19399
     19396     19394     19397     19400     19397     19400     19403     19404
     19397     19400     19403     19405     19397     19400     19403     19406
     19398     19397     19400     19401     19398     19397     19400     19402
     19398     19397     19400     19403     19399     19397     19400     19401
     19399     19397     19400     19402     19399     19397     19400     19403
     19400     19403     19406     19407     19400     19403     19406     19408
     19400     19403     19406     19409     19401     19400     19403     19404
     19401     19400     19403     19405     19401     19400     19403     19406
     19402     19400     19403     19404     19402     19400     19403     19405
     19402     19400     19403     19406     19404     19403     19406     19407
     19404     19403     19406     19408     19404     19403     19406     19409
     19405     19403     19406     19407     19405     19403     19406     19408
     19405     19403     19406     19409     19410     19414     19417     19418
     19410     19414     19417     19419     19410     19414     19417     19424
     19411     19410     19414     19415     19411     19410     19414     19416
     19411     19410     19414     19417     19412     19410     19414     19415
     19412     19410     19414     19416     19412     19410     19414     19417
     19413     19410     19414     19415     19413     19410     19414     19416
     19413     19410     19414     19417     19414     19417     19424     19420
     19415     19414     19417     19418     19415     19414     19417     19419
     19415     19414     19417     19424     19416     19414     19417     19418
     19416     19414     19417     19419     19416     19414     19417     19424
     19417     19424     19420     19421     19417     19424     19420     19422
     19417     19424     19420     19423     19418     19417     19424     19420
     19419     19417     19424     19420     19420     19423     19425     19426
     19420     19423     19425     19427     19420     19423     19425     19428
     19421     19420     19423     19425     19422     19420     19423     19425
     19423     19425     19428     19429     19423     19425     19428     19430
     19423     19425     19428     19436     19424     19420     19423     19425
     19425     19428     19430     19431     19425     19428     19436     19437
     19425     19428     19436     19438     19425     19428     19436     19439
     19426     19425     19428     19429     19426     19425     19428     19430
     19426     19425     19428     19436     19427     19425     19428     19429
     19427     19425     19428     19430     19427     19425     19428     19436
     19428     19430     19431     19432     19428     19430     19431     19433
     19428     19436     19439     19440     19429     19428     19430     19431
     19429     19428     19436     19437     19429     19428     19436     19438
     19429     19428     19436     19439     19430     19428     19436     19437
     19430     19428     19436     19438     19430     19428     19436     19439
     19430     19431     19433     19434     19430     19431     19433     19435
     19430     19431     19433     19445     19431     19430     19428     19436
     19431     19433     19445     19446     19431     19433     19445     19447
     19431     19433     19445     19448     19432     19431     19433     19434
     19432     19431     19433     19435     19432     19431     19433     19445
     19433     19445     19448     19449     19433     19445     19448     19450
     19433     19445     19448     19451     19434     19433     19445     19446
     19434     19433     19445     19447     19434     19433     19445     19448
     19435     19433     19445     19446     19435     19433     19445     19447
     19435     19433     19445     19448     19436     19439     19440     19441
     19436     19439     19440     19442     19437     19436     19439     19440
     19438     19436     19439     19440     19439     19440     19442     19443
     19439     19440     19442     19444     19439     19440     19442     19489
     19440     19442     19489     19490     19440     19442     19489     19491
     19440     19442     19489     19492     19441     19440     19442     19443
     19441     19440     19442     19444     19441     19440     19442     19489
     19442     19489     19492     19493     19442     19489     19492     19494
     19442     19489     19492     19495     19443     19442     19489     19490
     19443     19442     19489     19491     19443     19442     19489     19492
     19444     19442     19489     19490     19444     19442     19489     19491
     19444     19442     19489     19492     19445     19448     19451     19452
     19445     19448     19451     19453     19445     19448     19451     19454
     19446     19445     19448     19449     19446     19445     19448     19450
     19446     19445     19448     19451     19447     19445     19448     19449
     19447     19445     19448     19450     19447     19445     19448     19451
     19448     19451     19454     19455     19448     19451     19454     19456
     19448     19451     19454     19457     19449     19448     19451     19452
     19449     19448     19451     19453     19449     19448     19451     19454
     19450     19448     19451     19452     19450     19448     19451     19453
     19450     19448     19451     19454     19451     19454     19457     19458
     19451     19454     19457     19459     19451     19454     19457     19460
     19452     19451     19454     19455     19452     19451     19454     19456
     19452     19451     19454     19457     19453     19451     19454     19455
     19453     19451     19454     19456     19453     19451     19454     19457
     19454     19457     19460     19461     19454     19457     19460     19462
     19454     19457     19460     19463     19455     19454     19457     19458
     19455     19454     19457     19459     19455     19454     19457     19460
     19456     19454     19457     19458     19456     19454     19457     19459
     19456     19454     19457     19460     19457     19460     19463     19464
     19457     19460     19463     19465     19457     19460     19463     19468
     19458     19457     19460     19461     19458     19457     19460     19462
     19458     19457     19460     19463     19459     19457     19460     19461
     19459     19457     19460     19462     19459     19457     19460     19463
     19460     19463     19465     19466     19460     19463     19465     19467
     19460     19463     19465     19468     19460     19463     19468     19465
     19460     19463     19468     19469     19460     19463     19468     19470
     19461     19460     19463     19464     19461     19460     19463     19465
     19461     19460     19463     19468     19462     19460     19463     19464
     19462     19460     19463     19465     19462     19460     19463     19468
     19463     19465     19468     19469     19463     19465     19468     19470
     19463     19468     19465     19466     19463     19468     19465     19467
     19463     19468     19470     19471     19463     19468     19470     19472
     19463     19468     19470     19473     19464     19463     19465     19466
     19464     19463     19465     19467     19464     19463     19465     19468
     19464     19463     19468     19465     19464     19463     19468     19469
     19464     19463     19468     19470     19465     19463     19468     19469
     19465     19463     19468     19470     19465     19468     19470     19471
     19465     19468     19470     19472     19465     19468     19470     19473
     19466     19465     19463     19468     19466     19465     19468     19469
     19466     19465     19468     19470     19467     19465     19463     19468
     19467     19465     19468     19469     19467     19465     19468     19470
     19468     19470     19473     19474     19468     19470     19473     19475
     19468     19470     19473     19476     19469     19468     19470     19471
     19469     19468     19470     19472     19469     19468     19470     19473
     19470     19473     19476     19477     19470     19473     19476     19478
     19470     19473     19476     19479     19471     19470     19473     19474
     19471     19470     19473     19475     19471     19470     19473     19476
     19472     19470     19473     19474     19472     19470     19473     19475
     19472     19470     19473     19476     19473     19476     19479     19480
     19473     19476     19479     19481     19473     19476     19479     19482
     19474     19473     19476     19477     19474     19473     19476     19478
     19474     19473     19476     19479     19475     19473     19476     19477
     19475     19473     19476     19478     19475     19473     19476     19479
     19476     19479     19482     19483     19476     19479     19482     19484
     19476     19479     19482     19485     19477     19476     19479     19480
     19477     19476     19479     19481     19477     19476     19479     19482
     19478     19476     19479     19480     19478     19476     19479     19481
     19478     19476     19479     19482     19479     19482     19485     19486
     19479     19482     19485     19487     19479     19482     19485     19488
     19480     19479     19482     19483     19480     19479     19482     19484
     19480     19479     19482     19485     19481     19479     19482     19483
     19481     19479     19482     19484     19481     19479     19482     19485
     19483     19482     19485     19486     19483     19482     19485     19487
     19483     19482     19485     19488     19484     19482     19485     19486
     19484     19482     19485     19487     19484     19482     19485     19488
     19489     19492     19495     19496     19489     19492     19495     19497
     19489     19492     19495     19498     19490     19489     19492     19493
     19490     19489     19492     19494     19490     19489     19492     19495
     19491     19489     19492     19493     19491     19489     19492     19494
     19491     19489     19492     19495     19492     19495     19498     19499
     19492     19495     19498     19500     19492     19495     19498     19501
     19493     19492     19495     19496     19493     19492     19495     19497
     19493     19492     19495     19498     19494     19492     19495     19496
     19494     19492     19495     19497     19494     19492     19495     19498
     19495     19498     19501     19502     19495     19498     19501     19503
     19495     19498     19501     19504     19496     19495     19498     19499
     19496     19495     19498     19500     19496     19495     19498     19501
     19497     19495     19498     19499     19497     19495     19498     19500
     19497     19495     19498     19501     19498     19501     19504     19505
     19498     19501     19504     19506     19498     19501     19504     19507
     19499     19498     19501     19502     19499     19498     19501     19503
     19499     19498     19501     19504     19500     19498     19501     19502
     19500     19498     19501     19503     19500     19498     19501     19504
     19501     19504     19507     19508     19501     19504     19507     19509
     19501     19504     19507     19510     19502     19501     19504     19505
     19502     19501     19504     19506     19502     19501     19504     19507
     19503     19501     19504     19505     19503     19501     19504     19506
     19503     19501     19504     19507     19504     19507     19510     19511
     19504     19507     19510     19512     19504     19507     19510     19513
     19505     19504     19507     19508     19505     19504     19507     19509
     19505     19504     19507     19510     19506     19504     19507     19508
     19506     19504     19507     19509     19506     19504     19507     19510
     19507     19510     19513     19514     19507     19510     19513     19515
     19507     19510     19513     19516     19508     19507     19510     19511
     19508     19507     19510     19512     19508     19507     19510     19513
     19509     19507     19510     19511     19509     19507     19510     19512
     19509     19507     19510     19513     19510     19513     19516     19517
     19510     19513     19516     19518     19510     19513     19516     19519
     19511     19510     19513     19514     19511     19510     19513     19515
     19511     19510     19513     19516     19512     19510     19513     19514
     19512     19510     19513     19515     19512     19510     19513     19516
     19513     19516     19519     19520     19513     19516     19519     19521
     19513     19516     19519     19522     19514     19513     19516     19517
     19514     19513     19516     19518     19514     19513     19516     19519
     19515     19513     19516     19517     19515     19513     19516     19518
     19515     19513     19516     19519     19516     19519     19522     19523
     19516     19519     19522     19524     19516     19519     19522     19525
     19517     19516     19519     19520     19517     19516     19519     19521
     19517     19516     19519     19522     19518     19516     19519     19520
     19518     19516     19519     19521     19518     19516     19519     19522
     19519     19522     19525     19526     19519     19522     19525     19527
     19519     19522     19525     19528     19520     19519     19522     19523
     19520     19519     19522     19524     19520     19519     19522     19525
     19521     19519     19522     19523     19521     19519     19522     19524
     19521     19519     19522     19525     19522     19525     19528     19529
     19522     19525     19528     19530     19522     19525     19528     19531
     19523     19522     19525     19526     19523     19522     19525     19527
     19523     19522     19525     19528     19524     19522     19525     19526
     19524     19522     19525     19527     19524     19522     19525     19528
     19526     19525     19528     19529     19526     19525     19528     19530
     19526     19525     19528     19531     19527     19525     19528     19529
     19527     19525     19528     19530     19527     19525     19528     19531
     19532     19536     19539     19540     19532     19536     19539     19541
     19532     19536     19539     19546     19533     19532     19536     19537
     19533     19532     19536     19538     19533     19532     19536     19539
     19534     19532     19536     19537     19534     19532     19536     19538
     19534     19532     19536     19539     19535     19532     19536     19537
     19535     19532     19536     19538     19535     19532     19536     19539
     19536     19539     19546     19542     19537     19536     19539     19540
     19537     19536     19539     19541     19537     19536     19539     19546
     19538     19536     19539     19540     19538     19536     19539     19541
     19538     19536     19539     19546     19539     19546     19542     19543
     19539     19546     19542     19544     19539     19546     19542     19545
     19540     19539     19546     19542     19541     19539     19546     19542
     19542     19545     19547     19548     19542     19545     19547     19549
     19542     19545     19547     19550     19543     19542     19545     19547
     19544     19542     19545     19547     19545     19547     19550     19551
     19545     19547     19550     19552     19545     19547     19550     19558
     19546     19542     19545     19547     19547     19550     19552     19553
     19547     19550     19558     19559     19547     19550     19558     19560
     19547     19550     19558     19561     19548     19547     19550     19551
     19548     19547     19550     19552     19548     19547     19550     19558
     19549     19547     19550     19551     19549     19547     19550     19552
     19549     19547     19550     19558     19550     19552     19553     19554
     19550     19552     19553     19555     19550     19558     19561     19562
     19551     19550     19552     19553     19551     19550     19558     19559
     19551     19550     19558     19560     19551     19550     19558     19561
     19552     19550     19558     19559     19552     19550     19558     19560
     19552     19550     19558     19561     19552     19553     19555     19556
     19552     19553     19555     19557     19552     19553     19555     19567
     19553     19552     19550     19558     19553     19555     19567     19568
     19553     19555     19567     19569     19553     19555     19567     19570
     19554     19553     19555     19556     19554     19553     19555     19557
     19554     19553     19555     19567     19555     19567     19570     19571
     19555     19567     19570     19572     19555     19567     19570     19573
     19556     19555     19567     19568     19556     19555     19567     19569
     19556     19555     19567     19570     19557     19555     19567     19568
     19557     19555     19567     19569     19557     19555     19567     19570
     19558     19561     19562     19563     19558     19561     19562     19564
     19559     19558     19561     19562     19560     19558     19561     19562
     19561     19562     19564     19565     19561     19562     19564     19566
     19561     19562     19564     19611     19562     19564     19611     19612
     19562     19564     19611     19613     19562     19564     19611     19614
     19563     19562     19564     19565     19563     19562     19564     19566
     19563     19562     19564     19611     19564     19611     19614     19615
     19564     19611     19614     19616     19564     19611     19614     19617
     19565     19564     19611     19612     19565     19564     19611     19613
     19565     19564     19611     19614     19566     19564     19611     19612
     19566     19564     19611     19613     19566     19564     19611     19614
     19567     19570     19573     19574     19567     19570     19573     19575
     19567     19570     19573     19576     19568     19567     19570     19571
     19568     19567     19570     19572     19568     19567     19570     19573
     19569     19567     19570     19571     19569     19567     19570     19572
     19569     19567     19570     19573     19570     19573     19576     19577
     19570     19573     19576     19578     19570     19573     19576     19579
     19571     19570     19573     19574     19571     19570     19573     19575
     19571     19570     19573     19576     19572     19570     19573     19574
     19572     19570     19573     19575     19572     19570     19573     19576
     19573     19576     19579     19580     19573     19576     19579     19581
     19573     19576     19579     19582     19574     19573     19576     19577
     19574     19573     19576     19578     19574     19573     19576     19579
     19575     19573     19576     19577     19575     19573     19576     19578
     19575     19573     19576     19579     19576     19579     19582     19583
     19576     19579     19582     19584     19576     19579     19582     19585
     19577     19576     19579     19580     19577     19576     19579     19581
     19577     19576     19579     19582     19578     19576     19579     19580
     19578     19576     19579     19581     19578     19576     19579     19582
     19579     19582     19585     19586     19579     19582     19585     19587
     19579     19582     19585     19590     19580     19579     19582     19583
     19580     19579     19582     19584     19580     19579     19582     19585
     19581     19579     19582     19583     19581     19579     19582     19584
     19581     19579     19582     19585     19582     19585     19587     19588
     19582     19585     19587     19589     19582     19585     19587     19590
     19582     19585     19590     19587     19582     19585     19590     19591
     19582     19585     19590     19592     19583     19582     19585     19586
     19583     19582     19585     19587     19583     19582     19585     19590
     19584     19582     19585     19586     19584     19582     19585     19587
     19584     19582     19585     19590     19585     19587     19590     19591
     19585     19587     19590     19592     19585     19590     19587     19588
     19585     19590     19587     19589     19585     19590     19592     19593
     19585     19590     19592     19594     19585     19590     19592     19595
     19586     19585     19587     19588     19586     19585     19587     19589
     19586     19585     19587     19590     19586     19585     19590     19587
     19586     19585     19590     19591     19586     19585     19590     19592
     19587     19585     19590     19591     19587     19585     19590     19592
     19587     19590     19592     19593     19587     19590     19592     19594
     19587     19590     19592     19595     19588     19587     19585     19590
     19588     19587     19590     19591     19588     19587     19590     19592
     19589     19587     19585     19590     19589     19587     19590     19591
     19589     19587     19590     19592     19590     19592     19595     19596
     19590     19592     19595     19597     19590     19592     19595     19598
     19591     19590     19592     19593     19591     19590     19592     19594
     19591     19590     19592     19595     19592     19595     19598     19599
     19592     19595     19598     19600     19592     19595     19598     19601
     19593     19592     19595     19596     19593     19592     19595     19597
     19593     19592     19595     19598     19594     19592     19595     19596
     19594     19592     19595     19597     19594     19592     19595     19598
     19595     19598     19601     19602     19595     19598     19601     19603
     19595     19598     19601     19604     19596     19595     19598     19599
     19596     19595     19598     19600     19596     19595     19598     19601
     19597     19595     19598     19599     19597     19595     19598     19600
     19597     19595     19598     19601     19598     19601     19604     19605
     19598     19601     19604     19606     19598     19601     19604     19607
     19599     19598     19601     19602     19599     19598     19601     19603
     19599     19598     19601     19604     19600     19598     19601     19602
     19600     19598     19601     19603     19600     19598     19601     19604
     19601     19604     19607     19608     19601     19604     19607     19609
     19601     19604     19607     19610     19602     19601     19604     19605
     19602     19601     19604     19606     19602     19601     19604     19607
     19603     19601     19604     19605     19603     19601     19604     19606
     19603     19601     19604     19607     19605     19604     19607     19608
     19605     19604     19607     19609     19605     19604     19607     19610
     19606     19604     19607     19608     19606     19604     19607     19609
     19606     19604     19607     19610     19611     19614     19617     19618
     19611     19614     19617     19619     19611     19614     19617     19620
     19612     19611     19614     19615     19612     19611     19614     19616
     19612     19611     19614     19617     19613     19611     19614     19615
     19613     19611     19614     19616     19613     19611     19614     19617
     19614     19617     19620     19621     19614     19617     19620     19622
     19614     19617     19620     19623     19615     19614     19617     19618
     19615     19614     19617     19619     19615     19614     19617     19620
     19616     19614     19617     19618     19616     19614     19617     19619
     19616     19614     19617     19620     19617     19620     19623     19624
     19617     19620     19623     19625     19617     19620     19623     19626
     19618     19617     19620     19621     19618     19617     19620     19622
     19618     19617     19620     19623     19619     19617     19620     19621
     19619     19617     19620     19622     19619     19617     19620     19623
     19620     19623     19626     19627     19620     19623     19626     19628
     19620     19623     19626     19629     19621     19620     19623     19624
     19621     19620     19623     19625     19621     19620     19623     19626
     19622     19620     19623     19624     19622     19620     19623     19625
     19622     19620     19623     19626     19623     19626     19629     19630
     19623     19626     19629     19631     19623     19626     19629     19632
     19624     19623     19626     19627     19624     19623     19626     19628
     19624     19623     19626     19629     19625     19623     19626     19627
     19625     19623     19626     19628     19625     19623     19626     19629
     19626     19629     19632     19633     19626     19629     19632     19634
     19626     19629     19632     19635     19627     19626     19629     19630
     19627     19626     19629     19631     19627     19626     19629     19632
     19628     19626     19629     19630     19628     19626     19629     19631
     19628     19626     19629     19632     19629     19632     19635     19636
     19629     19632     19635     19637     19629     19632     19635     19638
     19630     19629     19632     19633     19630     19629     19632     19634
     19630     19629     19632     19635     19631     19629     19632     19633
     19631     19629     19632     19634     19631     19629     19632     19635
     19632     19635     19638     19639     19632     19635     19638     19640
     19632     19635     19638     19641     19633     19632     19635     19636
     19633     19632     19635     19637     19633     19632     19635     19638
     19634     19632     19635     19636     19634     19632     19635     19637
     19634     19632     19635     19638     19635     19638     19641     19642
     19635     19638     19641     19643     19635     19638     19641     19644
     19636     19635     19638     19639     19636     19635     19638     19640
     19636     19635     19638     19641     19637     19635     19638     19639
     19637     19635     19638     19640     19637     19635     19638     19641
     19638     19641     19644     19645     19638     19641     19644     19646
     19638     19641     19644     19647     19639     19638     19641     19642
     19639     19638     19641     19643     19639     19638     19641     19644
     19640     19638     19641     19642     19640     19638     19641     19643
     19640     19638     19641     19644     19641     19644     19647     19648
     19641     19644     19647     19649     19641     19644     19647     19650
     19642     19641     19644     19645     19642     19641     19644     19646
     19642     19641     19644     19647     19643     19641     19644     19645
     19643     19641     19644     19646     19643     19641     19644     19647
     19644     19647     19650     19651     19644     19647     19650     19652
     19644     19647     19650     19653     19645     19644     19647     19648
     19645     19644     19647     19649     19645     19644     19647     19650
     19646     19644     19647     19648     19646     19644     19647     19649
     19646     19644     19647     19650     19648     19647     19650     19651
     19648     19647     19650     19652     19648     19647     19650     19653
     19649     19647     19650     19651     19649     19647     19650     19652
     19649     19647     19650     19653     19654     19659     19661     19662
     19654     19659     19663     19664     19654     19659     19663     19665
     19654     19659     19663     19670     19655     19654     19657     19658
     19655     19654     19659     19660     19655     19654     19659     19661
     19655     19654     19659     19663     19656     19654     19657     19658
     19656     19654     19659     19660     19656     19654     19659     19661
     19656     19654     19659     19663     19657     19654     19659     19660
     19657     19654     19659     19661     19657     19654     19659     19663
     19658     19657     19654     19659     19659     19663     19670     19666
     19660     19659     19661     19662     19660     19659     19663     19664
     19660     19659     19663     19665     19660     19659     19663     19670
     19661     19659     19663     19664     19661     19659     19663     19665
     19661     19659     19663     19670     19662     19661     19659     19663
     19663     19670     19666     19667     19663     19670     19666     19668
     19663     19670     19666     19669     19664     19663     19670     19666
     19665     19663     19670     19666     19666     19669     19671     19672
     19666     19669     19671     19673     19666     19669     19671     19674
     19667     19666     19669     19671     19668     19666     19669     19671
     19669     19671     19674     19675     19669     19671     19674     19676
     19669     19671     19674     19682     19670     19666     19669     19671
     19671     19674     19676     19677     19671     19674     19682     19683
     19671     19674     19682     19684     19671     19674     19682     19685
     19672     19671     19674     19675     19672     19671     19674     19676
     19672     19671     19674     19682     19673     19671     19674     19675
     19673     19671     19674     19676     19673     19671     19674     19682
     19674     19676     19677     19678     19674     19676     19677     19679
     19674     19682     19685     19686     19675     19674     19676     19677
     19675     19674     19682     19683     19675     19674     19682     19684
     19675     19674     19682     19685     19676     19674     19682     19683
     19676     19674     19682     19684     19676     19674     19682     19685
     19676     19677     19679     19680     19676     19677     19679     19681
     19676     19677     19679     19691     19677     19676     19674     19682
     19677     19679     19691     19692     19677     19679     19691     19693
     19677     19679     19691     19694     19678     19677     19679     19680
     19678     19677     19679     19681     19678     19677     19679     19691
     19679     19691     19694     19695     19679     19691     19694     19696
     19679     19691     19694     19697     19680     19679     19691     19692
     19680     19679     19691     19693     19680     19679     19691     19694
     19681     19679     19691     19692     19681     19679     19691     19693
     19681     19679     19691     19694     19682     19685     19686     19687
     19682     19685     19686     19688     19683     19682     19685     19686
     19684     19682     19685     19686     19685     19686     19688     19689
     19685     19686     19688     19690     19685     19686     19688     19735
     19686     19688     19735     19736     19686     19688     19735     19737
     19686     19688     19735     19738     19687     19686     19688     19689
     19687     19686     19688     19690     19687     19686     19688     19735
     19688     19735     19738     19739     19688     19735     19738     19740
     19688     19735     19738     19741     19689     19688     19735     19736
     19689     19688     19735     19737     19689     19688     19735     19738
     19690     19688     19735     19736     19690     19688     19735     19737
     19690     19688     19735     19738     19691     19694     19697     19698
     19691     19694     19697     19699     19691     19694     19697     19700
     19692     19691     19694     19695     19692     19691     19694     19696
     19692     19691     19694     19697     19693     19691     19694     19695
     19693     19691     19694     19696     19693     19691     19694     19697
     19694     19697     19700     19701     19694     19697     19700     19702
     19694     19697     19700     19703     19695     19694     19697     19698
     19695     19694     19697     19699     19695     19694     19697     19700
     19696     19694     19697     19698     19696     19694     19697     19699
     19696     19694     19697     19700     19697     19700     19703     19704
     19697     19700     19703     19705     19697     19700     19703     19706
     19698     19697     19700     19701     19698     19697     19700     19702
     19698     19697     19700     19703     19699     19697     19700     19701
     19699     19697     19700     19702     19699     19697     19700     19703
     19700     19703     19706     19707     19700     19703     19706     19708
     19700     19703     19706     19709     19701     19700     19703     19704
     19701     19700     19703     19705     19701     19700     19703     19706
     19702     19700     19703     19704     19702     19700     19703     19705
     19702     19700     19703     19706     19703     19706     19709     19710
     19703     19706     19709     19711     19703     19706     19709     19714
     19704     19703     19706     19707     19704     19703     19706     19708
     19704     19703     19706     19709     19705     19703     19706     19707
     19705     19703     19706     19708     19705     19703     19706     19709
     19706     19709     19711     19712     19706     19709     19711     19713
     19706     19709     19711     19714     19706     19709     19714     19711
     19706     19709     19714     19715     19706     19709     19714     19716
     19707     19706     19709     19710     19707     19706     19709     19711
     19707     19706     19709     19714     19708     19706     19709     19710
     19708     19706     19709     19711     19708     19706     19709     19714
     19709     19711     19714     19715     19709     19711     19714     19716
     19709     19714     19711     19712     19709     19714     19711     19713
     19709     19714     19716     19717     19709     19714     19716     19718
     19709     19714     19716     19719     19710     19709     19711     19712
     19710     19709     19711     19713     19710     19709     19711     19714
     19710     19709     19714     19711     19710     19709     19714     19715
     19710     19709     19714     19716     19711     19709     19714     19715
     19711     19709     19714     19716     19711     19714     19716     19717
     19711     19714     19716     19718     19711     19714     19716     19719
     19712     19711     19709     19714     19712     19711     19714     19715
     19712     19711     19714     19716     19713     19711     19709     19714
     19713     19711     19714     19715     19713     19711     19714     19716
     19714     19716     19719     19720     19714     19716     19719     19721
     19714     19716     19719     19722     19715     19714     19716     19717
     19715     19714     19716     19718     19715     19714     19716     19719
     19716     19719     19722     19723     19716     19719     19722     19724
     19716     19719     19722     19725     19717     19716     19719     19720
     19717     19716     19719     19721     19717     19716     19719     19722
     19718     19716     19719     19720     19718     19716     19719     19721
     19718     19716     19719     19722     19719     19722     19725     19726
     19719     19722     19725     19727     19719     19722     19725     19728
     19720     19719     19722     19723     19720     19719     19722     19724
     19720     19719     19722     19725     19721     19719     19722     19723
     19721     19719     19722     19724     19721     19719     19722     19725
     19722     19725     19728     19729     19722     19725     19728     19730
     19722     19725     19728     19731     19723     19722     19725     19726
     19723     19722     19725     19727     19723     19722     19725     19728
     19724     19722     19725     19726     19724     19722     19725     19727
     19724     19722     19725     19728     19725     19728     19731     19732
     19725     19728     19731     19733     19725     19728     19731     19734
     19726     19725     19728     19729     19726     19725     19728     19730
     19726     19725     19728     19731     19727     19725     19728     19729
     19727     19725     19728     19730     19727     19725     19728     19731
     19729     19728     19731     19732     19729     19728     19731     19733
     19729     19728     19731     19734     19730     19728     19731     19732
     19730     19728     19731     19733     19730     19728     19731     19734
     19735     19738     19741     19742     19735     19738     19741     19743
     19735     19738     19741     19744     19736     19735     19738     19739
     19736     19735     19738     19740     19736     19735     19738     19741
     19737     19735     19738     19739     19737     19735     19738     19740
     19737     19735     19738     19741     19738     19741     19744     19745
     19738     19741     19744     19746     19738     19741     19744     19747
     19739     19738     19741     19742     19739     19738     19741     19743
     19739     19738     19741     19744     19740     19738     19741     19742
     19740     19738     19741     19743     19740     19738     19741     19744
     19741     19744     19747     19748     19741     19744     19747     19749
     19741     19744     19747     19750     19742     19741     19744     19745
     19742     19741     19744     19746     19742     19741     19744     19747
     19743     19741     19744     19745     19743     19741     19744     19746
     19743     19741     19744     19747     19744     19747     19750     19751
     19744     19747     19750     19752     19744     19747     19750     19753
     19745     19744     19747     19748     19745     19744     19747     19749
     19745     19744     19747     19750     19746     19744     19747     19748
     19746     19744     19747     19749     19746     19744     19747     19750
     19747     19750     19753     19754     19747     19750     19753     19755
     19747     19750     19753     19756     19748     19747     19750     19751
     19748     19747     19750     19752     19748     19747     19750     19753
     19749     19747     19750     19751     19749     19747     19750     19752
     19749     19747     19750     19753     19750     19753     19756     19757
     19750     19753     19756     19758     19750     19753     19756     19759
     19751     19750     19753     19754     19751     19750     19753     19755
     19751     19750     19753     19756     19752     19750     19753     19754
     19752     19750     19753     19755     19752     19750     19753     19756
     19753     19756     19759     19760     19753     19756     19759     19761
     19753     19756     19759     19762     19754     19753     19756     19757
     19754     19753     19756     19758     19754     19753     19756     19759
     19755     19753     19756     19757     19755     19753     19756     19758
     19755     19753     19756     19759     19756     19759     19762     19763
     19756     19759     19762     19764     19756     19759     19762     19765
     19757     19756     19759     19760     19757     19756     19759     19761
     19757     19756     19759     19762     19758     19756     19759     19760
     19758     19756     19759     19761     19758     19756     19759     19762
     19759     19762     19765     19766     19759     19762     19765     19767
     19759     19762     19765     19768     19760     19759     19762     19763
     19760     19759     19762     19764     19760     19759     19762     19765
     19761     19759     19762     19763     19761     19759     19762     19764
     19761     19759     19762     19765     19762     19765     19768     19769
     19762     19765     19768     19770     19762     19765     19768     19771
     19763     19762     19765     19766     19763     19762     19765     19767
     19763     19762     19765     19768     19764     19762     19765     19766
     19764     19762     19765     19767     19764     19762     19765     19768
     19765     19768     19771     19772     19765     19768     19771     19773
     19765     19768     19771     19774     19766     19765     19768     19769
     19766     19765     19768     19770     19766     19765     19768     19771
     19767     19765     19768     19769     19767     19765     19768     19770
     19767     19765     19768     19771     19768     19771     19774     19775
     19768     19771     19774     19776     19768     19771     19774     19777
     19769     19768     19771     19772     19769     19768     19771     19773
     19769     19768     19771     19774     19770     19768     19771     19772
     19770     19768     19771     19773     19770     19768     19771     19774
     19772     19771     19774     19775     19772     19771     19774     19776
     19772     19771     19774     19777     19773     19771     19774     19775
     19773     19771     19774     19776     19773     19771     19774     19777
     19778     19782     19785     19786     19778     19782     19785     19787
     19778     19782     19785     19792     19779     19778     19782     19783
     19779     19778     19782     19784     19779     19778     19782     19785
     19780     19778     19782     19783     19780     19778     19782     19784
     19780     19778     19782     19785     19781     19778     19782     19783
     19781     19778     19782     19784     19781     19778     19782     19785
     19782     19785     19792     19788     19783     19782     19785     19786
     19783     19782     19785     19787     19783     19782     19785     19792
     19784     19782     19785     19786     19784     19782     19785     19787
     19784     19782     19785     19792     19785     19792     19788     19789
     19785     19792     19788     19790     19785     19792     19788     19791
     19786     19785     19792     19788     19787     19785     19792     19788
     19788     19791     19793     19794     19788     19791     19793     19795
     19788     19791     19793     19796     19789     19788     19791     19793
     19790     19788     19791     19793     19791     19793     19796     19797
     19791     19793     19796     19798     19791     19793     19796     19804
     19792     19788     19791     19793     19793     19796     19798     19799
     19793     19796     19804     19805     19793     19796     19804     19806
     19793     19796     19804     19807     19794     19793     19796     19797
     19794     19793     19796     19798     19794     19793     19796     19804
     19795     19793     19796     19797     19795     19793     19796     19798
     19795     19793     19796     19804     19796     19798     19799     19800
     19796     19798     19799     19801     19796     19804     19807     19808
     19797     19796     19798     19799     19797     19796     19804     19805
     19797     19796     19804     19806     19797     19796     19804     19807
     19798     19796     19804     19805     19798     19796     19804     19806
     19798     19796     19804     19807     19798     19799     19801     19802
     19798     19799     19801     19803     19798     19799     19801     19813
     19799     19798     19796     19804     19799     19801     19813     19814
     19799     19801     19813     19815     19799     19801     19813     19816
     19800     19799     19801     19802     19800     19799     19801     19803
     19800     19799     19801     19813     19801     19813     19816     19817
     19801     19813     19816     19818     19801     19813     19816     19819
     19802     19801     19813     19814     19802     19801     19813     19815
     19802     19801     19813     19816     19803     19801     19813     19814
     19803     19801     19813     19815     19803     19801     19813     19816
     19804     19807     19808     19809     19804     19807     19808     19810
     19805     19804     19807     19808     19806     19804     19807     19808
     19807     19808     19810     19811     19807     19808     19810     19812
     19807     19808     19810     19854     19808     19810     19854     19855
     19808     19810     19854     19856     19808     19810     19854     19857
     19809     19808     19810     19811     19809     19808     19810     19812
     19809     19808     19810     19854     19810     19854     19857     19858
     19810     19854     19857     19859     19810     19854     19857     19860
     19811     19810     19854     19855     19811     19810     19854     19856
     19811     19810     19854     19857     19812     19810     19854     19855
     19812     19810     19854     19856     19812     19810     19854     19857
     19813     19816     19819     19820     19813     19816     19819     19821
     19813     19816     19819     19822     19814     19813     19816     19817
     19814     19813     19816     19818     19814     19813     19816     19819
     19815     19813     19816     19817     19815     19813     19816     19818
     19815     19813     19816     19819     19816     19819     19822     19823
     19816     19819     19822     19824     19816     19819     19822     19825
     19817     19816     19819     19820     19817     19816     19819     19821
     19817     19816     19819     19822     19818     19816     19819     19820
     19818     19816     19819     19821     19818     19816     19819     19822
     19819     19822     19825     19826     19819     19822     19825     19827
     19819     19822     19825     19828     19820     19819     19822     19823
     19820     19819     19822     19824     19820     19819     19822     19825
     19821     19819     19822     19823     19821     19819     19822     19824
     19821     19819     19822     19825     19822     19825     19828     19829
     19822     19825     19828     19830     19822     19825     19828     19831
     19823     19822     19825     19826     19823     19822     19825     19827
     19823     19822     19825     19828     19824     19822     19825     19826
     19824     19822     19825     19827     19824     19822     19825     19828
     19825     19828     19831     19832     19825     19828     19831     19833
     19826     19825     19828     19829     19826     19825     19828     19830
     19826     19825     19828     19831     19827     19825     19828     19829
     19827     19825     19828     19830     19827     19825     19828     19831
     19828     19831     19833     19834     19828     19831     19833     19835
     19829     19828     19831     19832     19829     19828     19831     19833
     19830     19828     19831     19832     19830     19828     19831     19833
     19831     19833     19835     19836     19831     19833     19835     19837
     19831     19833     19835     19838     19832     19831     19833     19834
     19832     19831     19833     19835     19833     19835     19838     19839
     19833     19835     19838     19840     19833     19835     19838     19841
     19834     19833     19835     19836     19834     19833     19835     19837
     19834     19833     19835     19838     19835     19838     19841     19842
     19835     19838     19841     19843     19835     19838     19841     19844
     19836     19835     19838     19839     19836     19835     19838     19840
     19836     19835     19838     19841     19837     19835     19838     19839
     19837     19835     19838     19840     19837     19835     19838     19841
     19838     19841     19844     19845     19838     19841     19844     19846
     19838     19841     19844     19847     19839     19838     19841     19842
     19839     19838     19841     19843     19839     19838     19841     19844
     19840     19838     19841     19842     19840     19838     19841     19843
     19840     19838     19841     19844     19841     19844     19847     19848
     19841     19844     19847     19849     19841     19844     19847     19850
     19842     19841     19844     19845     19842     19841     19844     19846
     19842     19841     19844     19847     19843     19841     19844     19845
     19843     19841     19844     19846     19843     19841     19844     19847
     19844     19847     19850     19851     19844     19847     19850     19852
     19844     19847     19850     19853     19845     19844     19847     19848
     19845     19844     19847     19849     19845     19844     19847     19850
     19846     19844     19847     19848     19846     19844     19847     19849
     19846     19844     19847     19850     19848     19847     19850     19851
     19848     19847     19850     19852     19848     19847     19850     19853
     19849     19847     19850     19851     19849     19847     19850     19852
     19849     19847     19850     19853     19854     19857     19860     19861
     19854     19857     19860     19862     19854     19857     19860     19863
     19855     19854     19857     19858     19855     19854     19857     19859
     19855     19854     19857     19860     19856     19854     19857     19858
     19856     19854     19857     19859     19856     19854     19857     19860
     19857     19860     19863     19864     19857     19860     19863     19865
     19857     19860     19863     19866     19858     19857     19860     19861
     19858     19857     19860     19862     19858     19857     19860     19863
     19859     19857     19860     19861     19859     19857     19860     19862
     19859     19857     19860     19863     19860     19863     19866     19867
     19860     19863     19866     19868     19860     19863     19866     19869
     19861     19860     19863     19864     19861     19860     19863     19865
     19861     19860     19863     19866     19862     19860     19863     19864
     19862     19860     19863     19865     19862     19860     19863     19866
     19863     19866     19869     19870     19863     19866     19869     19871
     19863     19866     19869     19872     19864     19863     19866     19867
     19864     19863     19866     19868     19864     19863     19866     19869
     19865     19863     19866     19867     19865     19863     19866     19868
     19865     19863     19866     19869     19866     19869     19872     19873
     19866     19869     19872     19874     19867     19866     19869     19870
     19867     19866     19869     19871     19867     19866     19869     19872
     19868     19866     19869     19870     19868     19866     19869     19871
     19868     19866     19869     19872     19869     19872     19874     19875
     19869     19872     19874     19876     19870     19869     19872     19873
     19870     19869     19872     19874     19871     19869     19872     19873
     19871     19869     19872     19874     19872     19874     19876     19877
     19872     19874     19876     19878     19872     19874     19876     19879
     19873     19872     19874     19875     19873     19872     19874     19876
     19874     19876     19879     19880     19874     19876     19879     19881
     19874     19876     19879     19882     19875     19874     19876     19877
     19875     19874     19876     19878     19875     19874     19876     19879
     19876     19879     19882     19883     19876     19879     19882     19884
     19876     19879     19882     19885     19877     19876     19879     19880
     19877     19876     19879     19881     19877     19876     19879     19882
     19878     19876     19879     19880     19878     19876     19879     19881
     19878     19876     19879     19882     19879     19882     19885     19886
     19879     19882     19885     19887     19879     19882     19885     19888
     19880     19879     19882     19883     19880     19879     19882     19884
     19880     19879     19882     19885     19881     19879     19882     19883
     19881     19879     19882     19884     19881     19879     19882     19885
     19882     19885     19888     19889     19882     19885     19888     19890
     19882     19885     19888     19891     19883     19882     19885     19886
     19883     19882     19885     19887     19883     19882     19885     19888
     19884     19882     19885     19886     19884     19882     19885     19887
     19884     19882     19885     19888     19885     19888     19891     19892
     19885     19888     19891     19893     19885     19888     19891     19894
     19886     19885     19888     19889     19886     19885     19888     19890
     19886     19885     19888     19891     19887     19885     19888     19889
     19887     19885     19888     19890     19887     19885     19888     19891
     19888     19891     19894     19895     19888     19891     19894     19896
     19888     19891     19894     19897     19889     19888     19891     19892
     19889     19888     19891     19893     19889     19888     19891     19894
     19890     19888     19891     19892     19890     19888     19891     19893
     19890     19888     19891     19894     19891     19894     19897     19898
     19891     19894     19897     19899     19891     19894     19897     19900
     19892     19891     19894     19895     19892     19891     19894     19896
     19892     19891     19894     19897     19893     19891     19894     19895
     19893     19891     19894     19896     19893     19891     19894     19897
     19895     19894     19897     19898     19895     19894     19897     19899
     19895     19894     19897     19900     19896     19894     19897     19898
     19896     19894     19897     19899     19896     19894     19897     19900
     19901     19905     19908     19909     19901     19905     19908     19910
     19901     19905     19908     19915     19902     19901     19905     19906
     19902     19901     19905     19907     19902     19901     19905     19908
     19903     19901     19905     19906     19903     19901     19905     19907
     19903     19901     19905     19908     19904     19901     19905     19906
     19904     19901     19905     19907     19904     19901     19905     19908
     19905     19908     19915     19911     19906     19905     19908     19909
     19906     19905     19908     19910     19906     19905     19908     19915
     19907     19905     19908     19909     19907     19905     19908     19910
     19907     19905     19908     19915     19908     19915     19911     19912
     19908     19915     19911     19913     19908     19915     19911     19914
     19909     19908     19915     19911     19910     19908     19915     19911
     19911     19914     19916     19917     19911     19914     19916     19918
     19911     19914     19916     19919     19912     19911     19914     19916
     19913     19911     19914     19916     19914     19916     19919     19920
     19914     19916     19919     19921     19914     19916     19919     19927
     19915     19911     19914     19916     19916     19919     19921     19922
     19916     19919     19927     19928     19916     19919     19927     19929
     19916     19919     19927     19930     19917     19916     19919     19920
     19917     19916     19919     19921     19917     19916     19919     19927
     19918     19916     19919     19920     19918     19916     19919     19921
     19918     19916     19919     19927     19919     19921     19922     19923
     19919     19921     19922     19924     19919     19927     19930     19931
     19920     19919     19921     19922     19920     19919     19927     19928
     19920     19919     19927     19929     19920     19919     19927     19930
     19921     19919     19927     19928     19921     19919     19927     19929
     19921     19919     19927     19930     19921     19922     19924     19925
     19921     19922     19924     19926     19921     19922     19924     19936
     19922     19921     19919     19927     19922     19924     19936     19937
     19922     19924     19936     19938     19922     19924     19936     19939
     19923     19922     19924     19925     19923     19922     19924     19926
     19923     19922     19924     19936     19924     19936     19939     19940
     19924     19936     19939     19941     19924     19936     19939     19942
     19925     19924     19936     19937     19925     19924     19936     19938
     19925     19924     19936     19939     19926     19924     19936     19937
     19926     19924     19936     19938     19926     19924     19936     19939
     19927     19930     19931     19932     19927     19930     19931     19933
     19928     19927     19930     19931     19929     19927     19930     19931
     19930     19931     19933     19934     19930     19931     19933     19935
     19930     19931     19933     19980     19931     19933     19980     19981
     19931     19933     19980     19982     19931     19933     19980     19983
     19932     19931     19933     19934     19932     19931     19933     19935
     19932     19931     19933     19980     19933     19980     19983     19984
     19933     19980     19983     19985     19933     19980     19983     19986
     19934     19933     19980     19981     19934     19933     19980     19982
     19934     19933     19980     19983     19935     19933     19980     19981
     19935     19933     19980     19982     19935     19933     19980     19983
     19936     19939     19942     19943     19936     19939     19942     19944
     19936     19939     19942     19945     19937     19936     19939     19940
     19937     19936     19939     19941     19937     19936     19939     19942
     19938     19936     19939     19940     19938     19936     19939     19941
     19938     19936     19939     19942     19939     19942     19945     19946
     19939     19942     19945     19947     19939     19942     19945     19948
     19940     19939     19942     19943     19940     19939     19942     19944
     19940     19939     19942     19945     19941     19939     19942     19943
     19941     19939     19942     19944     19941     19939     19942     19945
     19942     19945     19948     19949     19942     19945     19948     19950
     19942     19945     19948     19951     19943     19942     19945     19946
     19943     19942     19945     19947     19943     19942     19945     19948
     19944     19942     19945     19946     19944     19942     19945     19947
     19944     19942     19945     19948     19945     19948     19951     19952
     19945     19948     19951     19953     19945     19948     19951     19954
     19946     19945     19948     19949     19946     19945     19948     19950
     19946     19945     19948     19951     19947     19945     19948     19949
     19947     19945     19948     19950     19947     19945     19948     19951
     19948     19951     19954     19955     19948     19951     19954     19956
     19948     19951     19954     19959     19949     19948     19951     19952
     19949     19948     19951     19953     19949     19948     19951     19954
     19950     19948     19951     19952     19950     19948     19951     19953
     19950     19948     19951     19954     19951     19954     19956     19957
     19951     19954     19956     19958     19951     19954     19956     19959
     19951     19954     19959     19956     19951     19954     19959     19960
     19951     19954     19959     19961     19952     19951     19954     19955
     19952     19951     19954     19956     19952     19951     19954     19959
     19953     19951     19954     19955     19953     19951     19954     19956
     19953     19951     19954     19959     19954     19956     19959     19960
     19954     19956     19959     19961     19954     19959     19956     19957
     19954     19959     19956     19958     19954     19959     19961     19962
     19954     19959     19961     19963     19954     19959     19961     19964
     19955     19954     19956     19957     19955     19954     19956     19958
     19955     19954     19956     19959     19955     19954     19959     19956
     19955     19954     19959     19960     19955     19954     19959     19961
     19956     19954     19959     19960     19956     19954     19959     19961
     19956     19959     19961     19962     19956     19959     19961     19963
     19956     19959     19961     19964     19957     19956     19954     19959
     19957     19956     19959     19960     19957     19956     19959     19961
     19958     19956     19954     19959     19958     19956     19959     19960
     19958     19956     19959     19961     19959     19961     19964     19965
     19959     19961     19964     19966     19959     19961     19964     19967
     19960     19959     19961     19962     19960     19959     19961     19963
     19960     19959     19961     19964     19961     19964     19967     19968
     19961     19964     19967     19969     19961     19964     19967     19970
     19962     19961     19964     19965     19962     19961     19964     19966
     19962     19961     19964     19967     19963     19961     19964     19965
     19963     19961     19964     19966     19963     19961     19964     19967
     19964     19967     19970     19971     19964     19967     19970     19972
     19964     19967     19970     19973     19965     19964     19967     19968
     19965     19964     19967     19969     19965     19964     19967     19970
     19966     19964     19967     19968     19966     19964     19967     19969
     19966     19964     19967     19970     19967     19970     19973     19974
     19967     19970     19973     19975     19967     19970     19973     19976
     19968     19967     19970     19971     19968     19967     19970     19972
     19968     19967     19970     19973     19969     19967     19970     19971
     19969     19967     19970     19972     19969     19967     19970     19973
     19970     19973     19976     19977     19970     19973     19976     19978
     19970     19973     19976     19979     19971     19970     19973     19974
     19971     19970     19973     19975     19971     19970     19973     19976
     19972     19970     19973     19974     19972     19970     19973     19975
     19972     19970     19973     19976     19974     19973     19976     19977
     19974     19973     19976     19978     19974     19973     19976     19979
     19975     19973     19976     19977     19975     19973     19976     19978
     19975     19973     19976     19979     19980     19983     19986     19987
     19980     19983     19986     19988     19980     19983     19986     19989
     19981     19980     19983     19984     19981     19980     19983     19985
     19981     19980     19983     19986     19982     19980     19983     19984
     19982     19980     19983     19985     19982     19980     19983     19986
     19983     19986     19989     19990     19983     19986     19989     19991
     19983     19986     19989     19992     19984     19983     19986     19987
     19984     19983     19986     19988     19984     19983     19986     19989
     19985     19983     19986     19987     19985     19983     19986     19988
     19985     19983     19986     19989     19986     19989     19992     19993
     19986     19989     19992     19994     19986     19989     19992     19995
     19987     19986     19989     19990     19987     19986     19989     19991
     19987     19986     19989     19992     19988     19986     19989     19990
     19988     19986     19989     19991     19988     19986     19989     19992
     19989     19992     19995     19996     19989     19992     19995     19997
     19989     19992     19995     19998     19990     19989     19992     19993
     19990     19989     19992     19994     19990     19989     19992     19995
     19991     19989     19992     19993     19991     19989     19992     19994
     19991     19989     19992     19995     19992     19995     19998     19999
     19992     19995     19998     20000     19992     19995     19998     20001
     19993     19992     19995     19996     19993     19992     19995     19997
     19993     19992     19995     19998     19994     19992     19995     19996
     19994     19992     19995     19997     19994     19992     19995     19998
     19995     19998     20001     20002     19995     19998     20001     20003
     19995     19998     20001     20004     19996     19995     19998     19999
     19996     19995     19998     20000     19996     19995     19998     20001
     19997     19995     19998     19999     19997     19995     19998     20000
     19997     19995     19998     20001     19998     20001     20004     20005
     19998     20001     20004     20006     19998     20001     20004     20007
     19999     19998     20001     20002     19999     19998     20001     20003
     19999     19998     20001     20004     20000     19998     20001     20002
     20000     19998     20001     20003     20000     19998     20001     20004
     20001     20004     20007     20008     20001     20004     20007     20009
     20001     20004     20007     20010     20002     20001     20004     20005
     20002     20001     20004     20006     20002     20001     20004     20007
     20003     20001     20004     20005     20003     20001     20004     20006
     20003     20001     20004     20007     20004     20007     20010     20011
     20004     20007     20010     20012     20004     20007     20010     20013
     20005     20004     20007     20008     20005     20004     20007     20009
     20005     20004     20007     20010     20006     20004     20007     20008
     20006     20004     20007     20009     20006     20004     20007     20010
     20007     20010     20013     20014     20007     20010     20013     20015
     20007     20010     20013     20016     20008     20007     20010     20011
     20008     20007     20010     20012     20008     20007     20010     20013
     20009     20007     20010     20011     20009     20007     20010     20012
     20009     20007     20010     20013     20010     20013     20016     20017
     20010     20013     20016     20018     20010     20013     20016     20019
     20011     20010     20013     20014     20011     20010     20013     20015
     20011     20010     20013     20016     20012     20010     20013     20014
     20012     20010     20013     20015     20012     20010     20013     20016
     20013     20016     20019     20020     20013     20016     20019     20021
     20013     20016     20019     20022     20014     20013     20016     20017
     20014     20013     20016     20018     20014     20013     20016     20019
     20015     20013     20016     20017     20015     20013     20016     20018
     20015     20013     20016     20019     20017     20016     20019     20020
     20017     20016     20019     20021     20017     20016     20019     20022
     20018     20016     20019     20020     20018     20016     20019     20021
     20018     20016     20019     20022     20023     20027     20030     20031
     20023     20027     20030     20032     20023     20027     20030     20037
     20024     20023     20027     20028     20024     20023     20027     20029
     20024     20023     20027     20030     20025     20023     20027     20028
     20025     20023     20027     20029     20025     20023     20027     20030
     20026     20023     20027     20028     20026     20023     20027     20029
     20026     20023     20027     20030     20027     20030     20037     20033
     20028     20027     20030     20031     20028     20027     20030     20032
     20028     20027     20030     20037     20029     20027     20030     20031
     20029     20027     20030     20032     20029     20027     20030     20037
     20030     20037     20033     20034     20030     20037     20033     20035
     20030     20037     20033     20036     20031     20030     20037     20033
     20032     20030     20037     20033     20033     20036     20038     20039
     20033     20036     20038     20040     20033     20036     20038     20041
     20034     20033     20036     20038     20035     20033     20036     20038
     20036     20038     20041     20042     20036     20038     20041     20043
     20036     20038     20041     20049     20037     20033     20036     20038
     20038     20041     20043     20044     20038     20041     20049     20050
     20038     20041     20049     20051     20038     20041     20049     20052
     20039     20038     20041     20042     20039     20038     20041     20043
     20039     20038     20041     20049     20040     20038     20041     20042
     20040     20038     20041     20043     20040     20038     20041     20049
     20041     20043     20044     20045     20041     20043     20044     20046
     20041     20049     20052     20053     20042     20041     20043     20044
     20042     20041     20049     20050     20042     20041     20049     20051
     20042     20041     20049     20052     20043     20041     20049     20050
     20043     20041     20049     20051     20043     20041     20049     20052
     20043     20044     20046     20047     20043     20044     20046     20048
     20043     20044     20046     20058     20044     20043     20041     20049
     20044     20046     20058     20059     20044     20046     20058     20060
     20044     20046     20058     20061     20045     20044     20046     20047
     20045     20044     20046     20048     20045     20044     20046     20058
     20046     20058     20061     20062     20046     20058     20061     20063
     20046     20058     20061     20064     20047     20046     20058     20059
     20047     20046     20058     20060     20047     20046     20058     20061
     20048     20046     20058     20059     20048     20046     20058     20060
     20048     20046     20058     20061     20049     20052     20053     20054
     20049     20052     20053     20055     20050     20049     20052     20053
     20051     20049     20052     20053     20052     20053     20055     20056
     20052     20053     20055     20057     20052     20053     20055     20102
     20053     20055     20102     20103     20053     20055     20102     20104
     20053     20055     20102     20105     20054     20053     20055     20056
     20054     20053     20055     20057     20054     20053     20055     20102
     20055     20102     20105     20106     20055     20102     20105     20107
     20055     20102     20105     20108     20056     20055     20102     20103
     20056     20055     20102     20104     20056     20055     20102     20105
     20057     20055     20102     20103     20057     20055     20102     20104
     20057     20055     20102     20105     20058     20061     20064     20065
     20058     20061     20064     20066     20058     20061     20064     20067
     20059     20058     20061     20062     20059     20058     20061     20063
     20059     20058     20061     20064     20060     20058     20061     20062
     20060     20058     20061     20063     20060     20058     20061     20064
     20061     20064     20067     20068     20061     20064     20067     20069
     20061     20064     20067     20070     20062     20061     20064     20065
     20062     20061     20064     20066     20062     20061     20064     20067
     20063     20061     20064     20065     20063     20061     20064     20066
     20063     20061     20064     20067     20064     20067     20070     20071
     20064     20067     20070     20072     20064     20067     20070     20073
     20065     20064     20067     20068     20065     20064     20067     20069
     20065     20064     20067     20070     20066     20064     20067     20068
     20066     20064     20067     20069     20066     20064     20067     20070
     20067     20070     20073     20074     20067     20070     20073     20075
     20067     20070     20073     20076     20068     20067     20070     20071
     20068     20067     20070     20072     20068     20067     20070     20073
     20069     20067     20070     20071     20069     20067     20070     20072
     20069     20067     20070     20073     20070     20073     20076     20077
     20070     20073     20076     20078     20070     20073     20076     20081
     20071     20070     20073     20074     20071     20070     20073     20075
     20071     20070     20073     20076     20072     20070     20073     20074
     20072     20070     20073     20075     20072     20070     20073     20076
     20073     20076     20078     20079     20073     20076     20078     20080
     20073     20076     20078     20081     20073     20076     20081     20078
     20073     20076     20081     20082     20073     20076     20081     20083
     20074     20073     20076     20077     20074     20073     20076     20078
     20074     20073     20076     20081     20075     20073     20076     20077
     20075     20073     20076     20078     20075     20073     20076     20081
     20076     20078     20081     20082     20076     20078     20081     20083
     20076     20081     20078     20079     20076     20081     20078     20080
     20076     20081     20083     20084     20076     20081     20083     20085
     20076     20081     20083     20086     20077     20076     20078     20079
     20077     20076     20078     20080     20077     20076     20078     20081
     20077     20076     20081     20078     20077     20076     20081     20082
     20077     20076     20081     20083     20078     20076     20081     20082
     20078     20076     20081     20083     20078     20081     20083     20084
     20078     20081     20083     20085     20078     20081     20083     20086
     20079     20078     20076     20081     20079     20078     20081     20082
     20079     20078     20081     20083     20080     20078     20076     20081
     20080     20078     20081     20082     20080     20078     20081     20083
     20081     20083     20086     20087     20081     20083     20086     20088
     20081     20083     20086     20089     20082     20081     20083     20084
     20082     20081     20083     20085     20082     20081     20083     20086
     20083     20086     20089     20090     20083     20086     20089     20091
     20083     20086     20089     20092     20084     20083     20086     20087
     20084     20083     20086     20088     20084     20083     20086     20089
     20085     20083     20086     20087     20085     20083     20086     20088
     20085     20083     20086     20089     20086     20089     20092     20093
     20086     20089     20092     20094     20086     20089     20092     20095
     20087     20086     20089     20090     20087     20086     20089     20091
     20087     20086     20089     20092     20088     20086     20089     20090
     20088     20086     20089     20091     20088     20086     20089     20092
     20089     20092     20095     20096     20089     20092     20095     20097
     20089     20092     20095     20098     20090     20089     20092     20093
     20090     20089     20092     20094     20090     20089     20092     20095
     20091     20089     20092     20093     20091     20089     20092     20094
     20091     20089     20092     20095     20092     20095     20098     20099
     20092     20095     20098     20100     20092     20095     20098     20101
     20093     20092     20095     20096     20093     20092     20095     20097
     20093     20092     20095     20098     20094     20092     20095     20096
     20094     20092     20095     20097     20094     20092     20095     20098
     20096     20095     20098     20099     20096     20095     20098     20100
     20096     20095     20098     20101     20097     20095     20098     20099
     20097     20095     20098     20100     20097     20095     20098     20101
     20102     20105     20108     20109     20102     20105     20108     20110
     20102     20105     20108     20111     20103     20102     20105     20106
     20103     20102     20105     20107     20103     20102     20105     20108
     20104     20102     20105     20106     20104     20102     20105     20107
     20104     20102     20105     20108     20105     20108     20111     20112
     20105     20108     20111     20113     20105     20108     20111     20114
     20106     20105     20108     20109     20106     20105     20108     20110
     20106     20105     20108     20111     20107     20105     20108     20109
     20107     20105     20108     20110     20107     20105     20108     20111
     20108     20111     20114     20115     20108     20111     20114     20116
     20108     20111     20114     20117     20109     20108     20111     20112
     20109     20108     20111     20113     20109     20108     20111     20114
     20110     20108     20111     20112     20110     20108     20111     20113
     20110     20108     20111     20114     20111     20114     20117     20118
     20111     20114     20117     20119     20111     20114     20117     20120
     20112     20111     20114     20115     20112     20111     20114     20116
     20112     20111     20114     20117     20113     20111     20114     20115
     20113     20111     20114     20116     20113     20111     20114     20117
     20114     20117     20120     20121     20114     20117     20120     20122
     20114     20117     20120     20123     20115     20114     20117     20118
     20115     20114     20117     20119     20115     20114     20117     20120
     20116     20114     20117     20118     20116     20114     20117     20119
     20116     20114     20117     20120     20117     20120     20123     20124
     20117     20120     20123     20125     20117     20120     20123     20126
     20118     20117     20120     20121     20118     20117     20120     20122
     20118     20117     20120     20123     20119     20117     20120     20121
     20119     20117     20120     20122     20119     20117     20120     20123
     20120     20123     20126     20127     20120     20123     20126     20128
     20120     20123     20126     20129     20121     20120     20123     20124
     20121     20120     20123     20125     20121     20120     20123     20126
     20122     20120     20123     20124     20122     20120     20123     20125
     20122     20120     20123     20126     20123     20126     20129     20130
     20123     20126     20129     20131     20123     20126     20129     20132
     20124     20123     20126     20127     20124     20123     20126     20128
     20124     20123     20126     20129     20125     20123     20126     20127
     20125     20123     20126     20128     20125     20123     20126     20129
     20126     20129     20132     20133     20126     20129     20132     20134
     20126     20129     20132     20135     20127     20126     20129     20130
     20127     20126     20129     20131     20127     20126     20129     20132
     20128     20126     20129     20130     20128     20126     20129     20131
     20128     20126     20129     20132     20129     20132     20135     20136
     20129     20132     20135     20137     20129     20132     20135     20138
     20130     20129     20132     20133     20130     20129     20132     20134
     20130     20129     20132     20135     20131     20129     20132     20133
     20131     20129     20132     20134     20131     20129     20132     20135
     20132     20135     20138     20139     20132     20135     20138     20140
     20132     20135     20138     20141     20133     20132     20135     20136
     20133     20132     20135     20137     20133     20132     20135     20138
     20134     20132     20135     20136     20134     20132     20135     20137
     20134     20132     20135     20138     20136     20135     20138     20139
     20136     20135     20138     20140     20136     20135     20138     20141
     20137     20135     20138     20139     20137     20135     20138     20140
     20137     20135     20138     20141     20142     20147     20149     20150
     20142     20147     20151     20152     20142     20147     20151     20153
     20142     20147     20151     20158     20143     20142     20145     20146
     20143     20142     20147     20148     20143     20142     20147     20149
     20143     20142     20147     20151     20144     20142     20145     20146
     20144     20142     20147     20148     20144     20142     20147     20149
     20144     20142     20147     20151     20145     20142     20147     20148
     20145     20142     20147     20149     20145     20142     20147     20151
     20146     20145     20142     20147     20147     20151     20158     20154
     20148     20147     20149     20150     20148     20147     20151     20152
     20148     20147     20151     20153     20148     20147     20151     20158
     20149     20147     20151     20152     20149     20147     20151     20153
     20149     20147     20151     20158     20150     20149     20147     20151
     20151     20158     20154     20155     20151     20158     20154     20156
     20151     20158     20154     20157     20152     20151     20158     20154
     20153     20151     20158     20154     20154     20157     20159     20160
     20154     20157     20159     20161     20154     20157     20159     20162
     20155     20154     20157     20159     20156     20154     20157     20159
     20157     20159     20162     20163     20157     20159     20162     20164
     20157     20159     20162     20170     20158     20154     20157     20159
     20159     20162     20164     20165     20159     20162     20170     20171
     20159     20162     20170     20172     20159     20162     20170     20173
     20160     20159     20162     20163     20160     20159     20162     20164
     20160     20159     20162     20170     20161     20159     20162     20163
     20161     20159     20162     20164     20161     20159     20162     20170
     20162     20164     20165     20166     20162     20164     20165     20167
     20162     20170     20173     20174     20163     20162     20164     20165
     20163     20162     20170     20171     20163     20162     20170     20172
     20163     20162     20170     20173     20164     20162     20170     20171
     20164     20162     20170     20172     20164     20162     20170     20173
     20164     20165     20167     20168     20164     20165     20167     20169
     20164     20165     20167     20179     20165     20164     20162     20170
     20165     20167     20179     20180     20165     20167     20179     20181
     20165     20167     20179     20182     20166     20165     20167     20168
     20166     20165     20167     20169     20166     20165     20167     20179
     20167     20179     20182     20183     20167     20179     20182     20184
     20167     20179     20182     20185     20168     20167     20179     20180
     20168     20167     20179     20181     20168     20167     20179     20182
     20169     20167     20179     20180     20169     20167     20179     20181
     20169     20167     20179     20182     20170     20173     20174     20175
     20170     20173     20174     20176     20171     20170     20173     20174
     20172     20170     20173     20174     20173     20174     20176     20177
     20173     20174     20176     20178     20173     20174     20176     20220
     20174     20176     20220     20221     20174     20176     20220     20222
     20174     20176     20220     20223     20175     20174     20176     20177
     20175     20174     20176     20178     20175     20174     20176     20220
     20176     20220     20223     20224     20176     20220     20223     20225
     20176     20220     20223     20226     20177     20176     20220     20221
     20177     20176     20220     20222     20177     20176     20220     20223
     20178     20176     20220     20221     20178     20176     20220     20222
     20178     20176     20220     20223     20179     20182     20185     20186
     20179     20182     20185     20187     20179     20182     20185     20188
     20180     20179     20182     20183     20180     20179     20182     20184
     20180     20179     20182     20185     20181     20179     20182     20183
     20181     20179     20182     20184     20181     20179     20182     20185
     20182     20185     20188     20189     20182     20185     20188     20190
     20182     20185     20188     20191     20183     20182     20185     20186
     20183     20182     20185     20187     20183     20182     20185     20188
     20184     20182     20185     20186     20184     20182     20185     20187
     20184     20182     20185     20188     20185     20188     20191     20192
     20185     20188     20191     20193     20185     20188     20191     20194
     20186     20185     20188     20189     20186     20185     20188     20190
     20186     20185     20188     20191     20187     20185     20188     20189
     20187     20185     20188     20190     20187     20185     20188     20191
     20188     20191     20194     20195     20188     20191     20194     20196
     20188     20191     20194     20197     20189     20188     20191     20192
     20189     20188     20191     20193     20189     20188     20191     20194
     20190     20188     20191     20192     20190     20188     20191     20193
     20190     20188     20191     20194     20191     20194     20197     20198
     20191     20194     20197     20199     20192     20191     20194     20195
     20192     20191     20194     20196     20192     20191     20194     20197
     20193     20191     20194     20195     20193     20191     20194     20196
     20193     20191     20194     20197     20194     20197     20199     20200
     20194     20197     20199     20201     20195     20194     20197     20198
     20195     20194     20197     20199     20196     20194     20197     20198
     20196     20194     20197     20199     20197     20199     20201     20202
     20197     20199     20201     20203     20197     20199     20201     20204
     20198     20197     20199     20200     20198     20197     20199     20201
     20199     20201     20204     20205     20199     20201     20204     20206
     20199     20201     20204     20207     20200     20199     20201     20202
     20200     20199     20201     20203     20200     20199     20201     20204
     20201     20204     20207     20208     20201     20204     20207     20209
     20201     20204     20207     20210     20202     20201     20204     20205
     20202     20201     20204     20206     20202     20201     20204     20207
     20203     20201     20204     20205     20203     20201     20204     20206
     20203     20201     20204     20207     20204     20207     20210     20211
     20204     20207     20210     20212     20204     20207     20210     20213
     20205     20204     20207     20208     20205     20204     20207     20209
     20205     20204     20207     20210     20206     20204     20207     20208
     20206     20204     20207     20209     20206     20204     20207     20210
     20207     20210     20213     20214     20207     20210     20213     20215
     20207     20210     20213     20216     20208     20207     20210     20211
     20208     20207     20210     20212     20208     20207     20210     20213
     20209     20207     20210     20211     20209     20207     20210     20212
     20209     20207     20210     20213     20210     20213     20216     20217
     20210     20213     20216     20218     20210     20213     20216     20219
     20211     20210     20213     20214     20211     20210     20213     20215
     20211     20210     20213     20216     20212     20210     20213     20214
     20212     20210     20213     20215     20212     20210     20213     20216
     20214     20213     20216     20217     20214     20213     20216     20218
     20214     20213     20216     20219     20215     20213     20216     20217
     20215     20213     20216     20218     20215     20213     20216     20219
     20220     20223     20226     20227     20220     20223     20226     20228
     20220     20223     20226     20229     20221     20220     20223     20224
     20221     20220     20223     20225     20221     20220     20223     20226
     20222     20220     20223     20224     20222     20220     20223     20225
     20222     20220     20223     20226     20223     20226     20229     20230
     20223     20226     20229     20231     20223     20226     20229     20232
     20224     20223     20226     20227     20224     20223     20226     20228
     20224     20223     20226     20229     20225     20223     20226     20227
     20225     20223     20226     20228     20225     20223     20226     20229
     20226     20229     20232     20233     20226     20229     20232     20234
     20226     20229     20232     20235     20227     20226     20229     20230
     20227     20226     20229     20231     20227     20226     20229     20232
     20228     20226     20229     20230     20228     20226     20229     20231
     20228     20226     20229     20232     20229     20232     20235     20236
     20229     20232     20235     20237     20229     20232     20235     20238
     20230     20229     20232     20233     20230     20229     20232     20234
     20230     20229     20232     20235     20231     20229     20232     20233
     20231     20229     20232     20234     20231     20229     20232     20235
     20232     20235     20238     20239     20232     20235     20238     20240
     20232     20235     20238     20241     20233     20232     20235     20236
     20233     20232     20235     20237     20233     20232     20235     20238
     20234     20232     20235     20236     20234     20232     20235     20237
     20234     20232     20235     20238     20235     20238     20241     20242
     20235     20238     20241     20243     20235     20238     20241     20244
     20236     20235     20238     20239     20236     20235     20238     20240
     20236     20235     20238     20241     20237     20235     20238     20239
     20237     20235     20238     20240     20237     20235     20238     20241
     20238     20241     20244     20245     20238     20241     20244     20246
     20238     20241     20244     20247     20239     20238     20241     20242
     20239     20238     20241     20243     20239     20238     20241     20244
     20240     20238     20241     20242     20240     20238     20241     20243
     20240     20238     20241     20244     20241     20244     20247     20248
     20241     20244     20247     20249     20241     20244     20247     20250
     20242     20241     20244     20245     20242     20241     20244     20246
     20242     20241     20244     20247     20243     20241     20244     20245
     20243     20241     20244     20246     20243     20241     20244     20247
     20244     20247     20250     20251     20244     20247     20250     20252
     20244     20247     20250     20253     20245     20244     20247     20248
     20245     20244     20247     20249     20245     20244     20247     20250
     20246     20244     20247     20248     20246     20244     20247     20249
     20246     20244     20247     20250     20247     20250     20253     20254
     20247     20250     20253     20255     20247     20250     20253     20256
     20248     20247     20250     20251     20248     20247     20250     20252
     20248     20247     20250     20253     20249     20247     20250     20251
     20249     20247     20250     20252     20249     20247     20250     20253
     20250     20253     20256     20257     20250     20253     20256     20258
     20250     20253     20256     20259     20251     20250     20253     20254
     20251     20250     20253     20255     20251     20250     20253     20256
     20252     20250     20253     20254     20252     20250     20253     20255
     20252     20250     20253     20256     20253     20256     20259     20260
     20253     20256     20259     20261     20253     20256     20259     20262
     20254     20253     20256     20257     20254     20253     20256     20258
     20254     20253     20256     20259     20255     20253     20256     20257
     20255     20253     20256     20258     20255     20253     20256     20259
     20257     20256     20259     20260     20257     20256     20259     20261
     20257     20256     20259     20262     20258     20256     20259     20260
     20258     20256     20259     20261     20258     20256     20259     20262
     20263     20268     20270     20271     20263     20268     20272     20273
     20263     20268     20272     20274     20263     20268     20272     20279
     20264     20263     20266     20267     20264     20263     20268     20269
     20264     20263     20268     20270     20264     20263     20268     20272
     20265     20263     20266     20267     20265     20263     20268     20269
     20265     20263     20268     20270     20265     20263     20268     20272
     20266     20263     20268     20269     20266     20263     20268     20270
     20266     20263     20268     20272     20267     20266     20263     20268
     20268     20272     20279     20275     20269     20268     20270     20271
     20269     20268     20272     20273     20269     20268     20272     20274
     20269     20268     20272     20279     20270     20268     20272     20273
     20270     20268     20272     20274     20270     20268     20272     20279
     20271     20270     20268     20272     20272     20279     20275     20276
     20272     20279     20275     20277     20272     20279     20275     20278
     20273     20272     20279     20275     20274     20272     20279     20275
     20275     20278     20280     20281     20275     20278     20280     20282
     20275     20278     20280     20283     20276     20275     20278     20280
     20277     20275     20278     20280     20278     20280     20283     20284
     20278     20280     20283     20285     20278     20280     20283     20291
     20279     20275     20278     20280     20280     20283     20285     20286
     20280     20283     20291     20292     20280     20283     20291     20293
     20280     20283     20291     20294     20281     20280     20283     20284
     20281     20280     20283     20285     20281     20280     20283     20291
     20282     20280     20283     20284     20282     20280     20283     20285
     20282     20280     20283     20291     20283     20285     20286     20287
     20283     20285     20286     20288     20283     20291     20294     20295
     20284     20283     20285     20286     20284     20283     20291     20292
     20284     20283     20291     20293     20284     20283     20291     20294
     20285     20283     20291     20292     20285     20283     20291     20293
     20285     20283     20291     20294     20285     20286     20288     20289
     20285     20286     20288     20290     20285     20286     20288     20300
     20286     20285     20283     20291     20286     20288     20300     20301
     20286     20288     20300     20302     20286     20288     20300     20303
     20287     20286     20288     20289     20287     20286     20288     20290
     20287     20286     20288     20300     20288     20300     20303     20304
     20288     20300     20303     20305     20288     20300     20303     20306
     20289     20288     20300     20301     20289     20288     20300     20302
     20289     20288     20300     20303     20290     20288     20300     20301
     20290     20288     20300     20302     20290     20288     20300     20303
     20291     20294     20295     20296     20291     20294     20295     20297
     20292     20291     20294     20295     20293     20291     20294     20295
     20294     20295     20297     20298     20294     20295     20297     20299
     20294     20295     20297     20344     20295     20297     20344     20345
     20295     20297     20344     20346     20295     20297     20344     20347
     20296     20295     20297     20298     20296     20295     20297     20299
     20296     20295     20297     20344     20297     20344     20347     20348
     20297     20344     20347     20349     20297     20344     20347     20350
     20298     20297     20344     20345     20298     20297     20344     20346
     20298     20297     20344     20347     20299     20297     20344     20345
     20299     20297     20344     20346     20299     20297     20344     20347
     20300     20303     20306     20307     20300     20303     20306     20308
     20300     20303     20306     20309     20301     20300     20303     20304
     20301     20300     20303     20305     20301     20300     20303     20306
     20302     20300     20303     20304     20302     20300     20303     20305
     20302     20300     20303     20306     20303     20306     20309     20310
     20303     20306     20309     20311     20303     20306     20309     20312
     20304     20303     20306     20307     20304     20303     20306     20308
     20304     20303     20306     20309     20305     20303     20306     20307
     20305     20303     20306     20308     20305     20303     20306     20309
     20306     20309     20312     20313     20306     20309     20312     20314
     20306     20309     20312     20315     20307     20306     20309     20310
     20307     20306     20309     20311     20307     20306     20309     20312
     20308     20306     20309     20310     20308     20306     20309     20311
     20308     20306     20309     20312     20309     20312     20315     20316
     20309     20312     20315     20317     20309     20312     20315     20318
     20310     20309     20312     20313     20310     20309     20312     20314
     20310     20309     20312     20315     20311     20309     20312     20313
     20311     20309     20312     20314     20311     20309     20312     20315
     20312     20315     20318     20319     20312     20315     20318     20320
     20312     20315     20318     20323     20313     20312     20315     20316
     20313     20312     20315     20317     20313     20312     20315     20318
     20314     20312     20315     20316     20314     20312     20315     20317
     20314     20312     20315     20318     20315     20318     20320     20321
     20315     20318     20320     20322     20315     20318     20320     20323
     20315     20318     20323     20320     20315     20318     20323     20324
     20315     20318     20323     20325     20316     20315     20318     20319
     20316     20315     20318     20320     20316     20315     20318     20323
     20317     20315     20318     20319     20317     20315     20318     20320
     20317     20315     20318     20323     20318     20320     20323     20324
     20318     20320     20323     20325     20318     20323     20320     20321
     20318     20323     20320     20322     20318     20323     20325     20326
     20318     20323     20325     20327     20318     20323     20325     20328
     20319     20318     20320     20321     20319     20318     20320     20322
     20319     20318     20320     20323     20319     20318     20323     20320
     20319     20318     20323     20324     20319     20318     20323     20325
     20320     20318     20323     20324     20320     20318     20323     20325
     20320     20323     20325     20326     20320     20323     20325     20327
     20320     20323     20325     20328     20321     20320     20318     20323
     20321     20320     20323     20324     20321     20320     20323     20325
     20322     20320     20318     20323     20322     20320     20323     20324
     20322     20320     20323     20325     20323     20325     20328     20329
     20323     20325     20328     20330     20323     20325     20328     20331
     20324     20323     20325     20326     20324     20323     20325     20327
     20324     20323     20325     20328     20325     20328     20331     20332
     20325     20328     20331     20333     20325     20328     20331     20334
     20326     20325     20328     20329     20326     20325     20328     20330
     20326     20325     20328     20331     20327     20325     20328     20329
     20327     20325     20328     20330     20327     20325     20328     20331
     20328     20331     20334     20335     20328     20331     20334     20336
     20328     20331     20334     20337     20329     20328     20331     20332
     20329     20328     20331     20333     20329     20328     20331     20334
     20330     20328     20331     20332     20330     20328     20331     20333
     20330     20328     20331     20334     20331     20334     20337     20338
     20331     20334     20337     20339     20331     20334     20337     20340
     20332     20331     20334     20335     20332     20331     20334     20336
     20332     20331     20334     20337     20333     20331     20334     20335
     20333     20331     20334     20336     20333     20331     20334     20337
     20334     20337     20340     20341     20334     20337     20340     20342
     20334     20337     20340     20343     20335     20334     20337     20338
     20335     20334     20337     20339     20335     20334     20337     20340
     20336     20334     20337     20338     20336     20334     20337     20339
     20336     20334     20337     20340     20338     20337     20340     20341
     20338     20337     20340     20342     20338     20337     20340     20343
     20339     20337     20340     20341     20339     20337     20340     20342
     20339     20337     20340     20343     20344     20347     20350     20351
     20344     20347     20350     20352     20344     20347     20350     20353
     20345     20344     20347     20348     20345     20344     20347     20349
     20345     20344     20347     20350     20346     20344     20347     20348
     20346     20344     20347     20349     20346     20344     20347     20350
     20347     20350     20353     20354     20347     20350     20353     20355
     20347     20350     20353     20356     20348     20347     20350     20351
     20348     20347     20350     20352     20348     20347     20350     20353
     20349     20347     20350     20351     20349     20347     20350     20352
     20349     20347     20350     20353     20350     20353     20356     20357
     20350     20353     20356     20358     20350     20353     20356     20359
     20351     20350     20353     20354     20351     20350     20353     20355
     20351     20350     20353     20356     20352     20350     20353     20354
     20352     20350     20353     20355     20352     20350     20353     20356
     20353     20356     20359     20360     20353     20356     20359     20361
     20353     20356     20359     20362     20354     20353     20356     20357
     20354     20353     20356     20358     20354     20353     20356     20359
     20355     20353     20356     20357     20355     20353     20356     20358
     20355     20353     20356     20359     20356     20359     20362     20363
     20356     20359     20362     20364     20356     20359     20362     20365
     20357     20356     20359     20360     20357     20356     20359     20361
     20357     20356     20359     20362     20358     20356     20359     20360
     20358     20356     20359     20361     20358     20356     20359     20362
     20359     20362     20365     20366     20359     20362     20365     20367
     20359     20362     20365     20368     20360     20359     20362     20363
     20360     20359     20362     20364     20360     20359     20362     20365
     20361     20359     20362     20363     20361     20359     20362     20364
     20361     20359     20362     20365     20362     20365     20368     20369
     20362     20365     20368     20370     20362     20365     20368     20371
     20363     20362     20365     20366     20363     20362     20365     20367
     20363     20362     20365     20368     20364     20362     20365     20366
     20364     20362     20365     20367     20364     20362     20365     20368
     20365     20368     20371     20372     20365     20368     20371     20373
     20365     20368     20371     20374     20366     20365     20368     20369
     20366     20365     20368     20370     20366     20365     20368     20371
     20367     20365     20368     20369     20367     20365     20368     20370
     20367     20365     20368     20371     20368     20371     20374     20375
     20368     20371     20374     20376     20368     20371     20374     20377
     20369     20368     20371     20372     20369     20368     20371     20373
     20369     20368     20371     20374     20370     20368     20371     20372
     20370     20368     20371     20373     20370     20368     20371     20374
     20371     20374     20377     20378     20371     20374     20377     20379
     20371     20374     20377     20380     20372     20371     20374     20375
     20372     20371     20374     20376     20372     20371     20374     20377
     20373     20371     20374     20375     20373     20371     20374     20376
     20373     20371     20374     20377     20374     20377     20380     20381
     20374     20377     20380     20382     20374     20377     20380     20383
     20375     20374     20377     20378     20375     20374     20377     20379
     20375     20374     20377     20380     20376     20374     20377     20378
     20376     20374     20377     20379     20376     20374     20377     20380
     20377     20380     20383     20384     20377     20380     20383     20385
     20377     20380     20383     20386     20378     20377     20380     20381
     20378     20377     20380     20382     20378     20377     20380     20383
     20379     20377     20380     20381     20379     20377     20380     20382
     20379     20377     20380     20383     20381     20380     20383     20384
     20381     20380     20383     20385     20381     20380     20383     20386
     20382     20380     20383     20384     20382     20380     20383     20385
     20382     20380     20383     20386     20387     20391     20394     20395
     20387     20391     20394     20396     20387     20391     20394     20401
     20388     20387     20391     20392     20388     20387     20391     20393
     20388     20387     20391     20394     20389     20387     20391     20392
     20389     20387     20391     20393     20389     20387     20391     20394
     20390     20387     20391     20392     20390     20387     20391     20393
     20390     20387     20391     20394     20391     20394     20401     20397
     20392     20391     20394     20395     20392     20391     20394     20396
     20392     20391     20394     20401     20393     20391     20394     20395
     20393     20391     20394     20396     20393     20391     20394     20401
     20394     20401     20397     20398     20394     20401     20397     20399
     20394     20401     20397     20400     20395     20394     20401     20397
     20396     20394     20401     20397     20397     20400     20402     20403
     20397     20400     20402     20404     20397     20400     20402     20405
     20398     20397     20400     20402     20399     20397     20400     20402
     20400     20402     20405     20406     20400     20402     20405     20407
     20400     20402     20405     20413     20401     20397     20400     20402
     20402     20405     20407     20408     20402     20405     20413     20414
     20402     20405     20413     20415     20402     20405     20413     20416
     20403     20402     20405     20406     20403     20402     20405     20407
     20403     20402     20405     20413     20404     20402     20405     20406
     20404     20402     20405     20407     20404     20402     20405     20413
     20405     20407     20408     20409     20405     20407     20408     20410
     20405     20413     20416     20417     20406     20405     20407     20408
     20406     20405     20413     20414     20406     20405     20413     20415
     20406     20405     20413     20416     20407     20405     20413     20414
     20407     20405     20413     20415     20407     20405     20413     20416
     20407     20408     20410     20411     20407     20408     20410     20412
     20407     20408     20410     20422     20408     20407     20405     20413
     20408     20410     20422     20423     20408     20410     20422     20424
     20408     20410     20422     20425     20409     20408     20410     20411
     20409     20408     20410     20412     20409     20408     20410     20422
     20410     20422     20425     20426     20410     20422     20425     20427
     20410     20422     20425     20428     20411     20410     20422     20423
     20411     20410     20422     20424     20411     20410     20422     20425
     20412     20410     20422     20423     20412     20410     20422     20424
     20412     20410     20422     20425     20413     20416     20417     20418
     20413     20416     20417     20419     20414     20413     20416     20417
     20415     20413     20416     20417     20416     20417     20419     20420
     20416     20417     20419     20421     20416     20417     20419     20463
     20417     20419     20463     20464     20417     20419     20463     20465
     20417     20419     20463     20466     20418     20417     20419     20420
     20418     20417     20419     20421     20418     20417     20419     20463
     20419     20463     20466     20467     20419     20463     20466     20468
     20419     20463     20466     20469     20420     20419     20463     20464
     20420     20419     20463     20465     20420     20419     20463     20466
     20421     20419     20463     20464     20421     20419     20463     20465
     20421     20419     20463     20466     20422     20425     20428     20429
     20422     20425     20428     20430     20422     20425     20428     20431
     20423     20422     20425     20426     20423     20422     20425     20427
     20423     20422     20425     20428     20424     20422     20425     20426
     20424     20422     20425     20427     20424     20422     20425     20428
     20425     20428     20431     20432     20425     20428     20431     20433
     20425     20428     20431     20434     20426     20425     20428     20429
     20426     20425     20428     20430     20426     20425     20428     20431
     20427     20425     20428     20429     20427     20425     20428     20430
     20427     20425     20428     20431     20428     20431     20434     20435
     20428     20431     20434     20436     20428     20431     20434     20437
     20429     20428     20431     20432     20429     20428     20431     20433
     20429     20428     20431     20434     20430     20428     20431     20432
     20430     20428     20431     20433     20430     20428     20431     20434
     20431     20434     20437     20438     20431     20434     20437     20439
     20431     20434     20437     20440     20432     20431     20434     20435
     20432     20431     20434     20436     20432     20431     20434     20437
     20433     20431     20434     20435     20433     20431     20434     20436
     20433     20431     20434     20437     20434     20437     20440     20441
     20434     20437     20440     20442     20435     20434     20437     20438
     20435     20434     20437     20439     20435     20434     20437     20440
     20436     20434     20437     20438     20436     20434     20437     20439
     20436     20434     20437     20440     20437     20440     20442     20443
     20437     20440     20442     20444     20438     20437     20440     20441
     20438     20437     20440     20442     20439     20437     20440     20441
     20439     20437     20440     20442     20440     20442     20444     20445
     20440     20442     20444     20446     20440     20442     20444     20447
     20441     20440     20442     20443     20441     20440     20442     20444
     20442     20444     20447     20448     20442     20444     20447     20449
     20442     20444     20447     20450     20443     20442     20444     20445
     20443     20442     20444     20446     20443     20442     20444     20447
     20444     20447     20450     20451     20444     20447     20450     20452
     20444     20447     20450     20453     20445     20444     20447     20448
     20445     20444     20447     20449     20445     20444     20447     20450
     20446     20444     20447     20448     20446     20444     20447     20449
     20446     20444     20447     20450     20447     20450     20453     20454
     20447     20450     20453     20455     20447     20450     20453     20456
     20448     20447     20450     20451     20448     20447     20450     20452
     20448     20447     20450     20453     20449     20447     20450     20451
     20449     20447     20450     20452     20449     20447     20450     20453
     20450     20453     20456     20457     20450     20453     20456     20458
     20450     20453     20456     20459     20451     20450     20453     20454
     20451     20450     20453     20455     20451     20450     20453     20456
     20452     20450     20453     20454     20452     20450     20453     20455
     20452     20450     20453     20456     20453     20456     20459     20460
     20453     20456     20459     20461     20453     20456     20459     20462
     20454     20453     20456     20457     20454     20453     20456     20458
     20454     20453     20456     20459     20455     20453     20456     20457
     20455     20453     20456     20458     20455     20453     20456     20459
     20457     20456     20459     20460     20457     20456     20459     20461
     20457     20456     20459     20462     20458     20456     20459     20460
     20458     20456     20459     20461     20458     20456     20459     20462
     20463     20466     20469     20470     20463     20466     20469     20471
     20463     20466     20469     20472     20464     20463     20466     20467
     20464     20463     20466     20468     20464     20463     20466     20469
     20465     20463     20466     20467     20465     20463     20466     20468
     20465     20463     20466     20469     20466     20469     20472     20473
     20466     20469     20472     20474     20466     20469     20472     20475
     20467     20466     20469     20470     20467     20466     20469     20471
     20467     20466     20469     20472     20468     20466     20469     20470
     20468     20466     20469     20471     20468     20466     20469     20472
     20469     20472     20475     20476     20469     20472     20475     20477
     20469     20472     20475     20478     20470     20469     20472     20473
     20470     20469     20472     20474     20470     20469     20472     20475
     20471     20469     20472     20473     20471     20469     20472     20474
     20471     20469     20472     20475     20472     20475     20478     20479
     20472     20475     20478     20480     20472     20475     20478     20481
     20473     20472     20475     20476     20473     20472     20475     20477
     20473     20472     20475     20478     20474     20472     20475     20476
     20474     20472     20475     20477     20474     20472     20475     20478
     20475     20478     20481     20482     20475     20478     20481     20483
     20476     20475     20478     20479     20476     20475     20478     20480
     20476     20475     20478     20481     20477     20475     20478     20479
     20477     20475     20478     20480     20477     20475     20478     20481
     20478     20481     20483     20484     20478     20481     20483     20485
     20479     20478     20481     20482     20479     20478     20481     20483
     20480     20478     20481     20482     20480     20478     20481     20483
     20481     20483     20485     20486     20481     20483     20485     20487
     20481     20483     20485     20488     20482     20481     20483     20484
     20482     20481     20483     20485     20483     20485     20488     20489
     20483     20485     20488     20490     20483     20485     20488     20491
     20484     20483     20485     20486     20484     20483     20485     20487
     20484     20483     20485     20488     20485     20488     20491     20492
     20485     20488     20491     20493     20485     20488     20491     20494
     20486     20485     20488     20489     20486     20485     20488     20490
     20486     20485     20488     20491     20487     20485     20488     20489
     20487     20485     20488     20490     20487     20485     20488     20491
     20488     20491     20494     20495     20488     20491     20494     20496
     20488     20491     20494     20497     20489     20488     20491     20492
     20489     20488     20491     20493     20489     20488     20491     20494
     20490     20488     20491     20492     20490     20488     20491     20493
     20490     20488     20491     20494     20491     20494     20497     20498
     20491     20494     20497     20499     20491     20494     20497     20500
     20492     20491     20494     20495     20492     20491     20494     20496
     20492     20491     20494     20497     20493     20491     20494     20495
     20493     20491     20494     20496     20493     20491     20494     20497
     20494     20497     20500     20501     20494     20497     20500     20502
     20494     20497     20500     20503     20495     20494     20497     20498
     20495     20494     20497     20499     20495     20494     20497     20500
     20496     20494     20497     20498     20496     20494     20497     20499
     20496     20494     20497     20500     20497     20500     20503     20504
     20497     20500     20503     20505     20497     20500     20503     20506
     20498     20497     20500     20501     20498     20497     20500     20502
     20498     20497     20500     20503     20499     20497     20500     20501
     20499     20497     20500     20502     20499     20497     20500     20503
     20500     20503     20506     20507     20500     20503     20506     20508
     20500     20503     20506     20509     20501     20500     20503     20504
     20501     20500     20503     20505     20501     20500     20503     20506
     20502     20500     20503     20504     20502     20500     20503     20505
     20502     20500     20503     20506     20504     20503     20506     20507
     20504     20503     20506     20508     20504     20503     20506     20509
     20505     20503     20506     20507     20505     20503     20506     20508
     20505     20503     20506     20509     20510     20514     20517     20518
     20510     20514     20517     20519     20510     20514     20517     20524
     20511     20510     20514     20515     20511     20510     20514     20516
     20511     20510     20514     20517     20512     20510     20514     20515
     20512     20510     20514     20516     20512     20510     20514     20517
     20513     20510     20514     20515     20513     20510     20514     20516
     20513     20510     20514     20517     20514     20517     20524     20520
     20515     20514     20517     20518     20515     20514     20517     20519
     20515     20514     20517     20524     20516     20514     20517     20518
     20516     20514     20517     20519     20516     20514     20517     20524
     20517     20524     20520     20521     20517     20524     20520     20522
     20517     20524     20520     20523     20518     20517     20524     20520
     20519     20517     20524     20520     20520     20523     20525     20526
     20520     20523     20525     20527     20520     20523     20525     20528
     20521     20520     20523     20525     20522     20520     20523     20525
     20523     20525     20528     20529     20523     20525     20528     20530
     20523     20525     20528     20536     20524     20520     20523     20525
     20525     20528     20530     20531     20525     20528     20536     20537
     20525     20528     20536     20538     20525     20528     20536     20539
     20526     20525     20528     20529     20526     20525     20528     20530
     20526     20525     20528     20536     20527     20525     20528     20529
     20527     20525     20528     20530     20527     20525     20528     20536
     20528     20530     20531     20532     20528     20530     20531     20533
     20528     20536     20539     20540     20529     20528     20530     20531
     20529     20528     20536     20537     20529     20528     20536     20538
     20529     20528     20536     20539     20530     20528     20536     20537
     20530     20528     20536     20538     20530     20528     20536     20539
     20530     20531     20533     20534     20530     20531     20533     20535
     20530     20531     20533     20545     20531     20530     20528     20536
     20531     20533     20545     20546     20531     20533     20545     20547
     20531     20533     20545     20548     20532     20531     20533     20534
     20532     20531     20533     20535     20532     20531     20533     20545
     20533     20545     20548     20549     20533     20545     20548     20550
     20533     20545     20548     20551     20534     20533     20545     20546
     20534     20533     20545     20547     20534     20533     20545     20548
     20535     20533     20545     20546     20535     20533     20545     20547
     20535     20533     20545     20548     20536     20539     20540     20541
     20536     20539     20540     20542     20537     20536     20539     20540
     20538     20536     20539     20540     20539     20540     20542     20543
     20539     20540     20542     20544     20539     20540     20542     20589
     20540     20542     20589     20590     20540     20542     20589     20591
     20540     20542     20589     20592     20541     20540     20542     20543
     20541     20540     20542     20544     20541     20540     20542     20589
     20542     20589     20592     20593     20542     20589     20592     20594
     20542     20589     20592     20595     20543     20542     20589     20590
     20543     20542     20589     20591     20543     20542     20589     20592
     20544     20542     20589     20590     20544     20542     20589     20591
     20544     20542     20589     20592     20545     20548     20551     20552
     20545     20548     20551     20553     20545     20548     20551     20554
     20546     20545     20548     20549     20546     20545     20548     20550
     20546     20545     20548     20551     20547     20545     20548     20549
     20547     20545     20548     20550     20547     20545     20548     20551
     20548     20551     20554     20555     20548     20551     20554     20556
     20548     20551     20554     20557     20549     20548     20551     20552
     20549     20548     20551     20553     20549     20548     20551     20554
     20550     20548     20551     20552     20550     20548     20551     20553
     20550     20548     20551     20554     20551     20554     20557     20558
     20551     20554     20557     20559     20551     20554     20557     20560
     20552     20551     20554     20555     20552     20551     20554     20556
     20552     20551     20554     20557     20553     20551     20554     20555
     20553     20551     20554     20556     20553     20551     20554     20557
     20554     20557     20560     20561     20554     20557     20560     20562
     20554     20557     20560     20563     20555     20554     20557     20558
     20555     20554     20557     20559     20555     20554     20557     20560
     20556     20554     20557     20558     20556     20554     20557     20559
     20556     20554     20557     20560     20557     20560     20563     20564
     20557     20560     20563     20565     20557     20560     20563     20568
     20558     20557     20560     20561     20558     20557     20560     20562
     20558     20557     20560     20563     20559     20557     20560     20561
     20559     20557     20560     20562     20559     20557     20560     20563
     20560     20563     20565     20566     20560     20563     20565     20567
     20560     20563     20565     20568     20560     20563     20568     20565
     20560     20563     20568     20569     20560     20563     20568     20570
     20561     20560     20563     20564     20561     20560     20563     20565
     20561     20560     20563     20568     20562     20560     20563     20564
     20562     20560     20563     20565     20562     20560     20563     20568
     20563     20565     20568     20569     20563     20565     20568     20570
     20563     20568     20565     20566     20563     20568     20565     20567
     20563     20568     20570     20571     20563     20568     20570     20572
     20563     20568     20570     20573     20564     20563     20565     20566
     20564     20563     20565     20567     20564     20563     20565     20568
     20564     20563     20568     20565     20564     20563     20568     20569
     20564     20563     20568     20570     20565     20563     20568     20569
     20565     20563     20568     20570     20565     20568     20570     20571
     20565     20568     20570     20572     20565     20568     20570     20573
     20566     20565     20563     20568     20566     20565     20568     20569
     20566     20565     20568     20570     20567     20565     20563     20568
     20567     20565     20568     20569     20567     20565     20568     20570
     20568     20570     20573     20574     20568     20570     20573     20575
     20568     20570     20573     20576     20569     20568     20570     20571
     20569     20568     20570     20572     20569     20568     20570     20573
     20570     20573     20576     20577     20570     20573     20576     20578
     20570     20573     20576     20579     20571     20570     20573     20574
     20571     20570     20573     20575     20571     20570     20573     20576
     20572     20570     20573     20574     20572     20570     20573     20575
     20572     20570     20573     20576     20573     20576     20579     20580
     20573     20576     20579     20581     20573     20576     20579     20582
     20574     20573     20576     20577     20574     20573     20576     20578
     20574     20573     20576     20579     20575     20573     20576     20577
     20575     20573     20576     20578     20575     20573     20576     20579
     20576     20579     20582     20583     20576     20579     20582     20584
     20576     20579     20582     20585     20577     20576     20579     20580
     20577     20576     20579     20581     20577     20576     20579     20582
     20578     20576     20579     20580     20578     20576     20579     20581
     20578     20576     20579     20582     20579     20582     20585     20586
     20579     20582     20585     20587     20579     20582     20585     20588
     20580     20579     20582     20583     20580     20579     20582     20584
     20580     20579     20582     20585     20581     20579     20582     20583
     20581     20579     20582     20584     20581     20579     20582     20585
     20583     20582     20585     20586     20583     20582     20585     20587
     20583     20582     20585     20588     20584     20582     20585     20586
     20584     20582     20585     20587     20584     20582     20585     20588
     20589     20592     20595     20596     20589     20592     20595     20597
     20589     20592     20595     20598     20590     20589     20592     20593
     20590     20589     20592     20594     20590     20589     20592     20595
     20591     20589     20592     20593     20591     20589     20592     20594
     20591     20589     20592     20595     20592     20595     20598     20599
     20592     20595     20598     20600     20592     20595     20598     20601
     20593     20592     20595     20596     20593     20592     20595     20597
     20593     20592     20595     20598     20594     20592     20595     20596
     20594     20592     20595     20597     20594     20592     20595     20598
     20595     20598     20601     20602     20595     20598     20601     20603
     20595     20598     20601     20604     20596     20595     20598     20599
     20596     20595     20598     20600     20596     20595     20598     20601
     20597     20595     20598     20599     20597     20595     20598     20600
     20597     20595     20598     20601     20598     20601     20604     20605
     20598     20601     20604     20606     20598     20601     20604     20607
     20599     20598     20601     20602     20599     20598     20601     20603
     20599     20598     20601     20604     20600     20598     20601     20602
     20600     20598     20601     20603     20600     20598     20601     20604
     20601     20604     20607     20608     20601     20604     20607     20609
     20601     20604     20607     20610     20602     20601     20604     20605
     20602     20601     20604     20606     20602     20601     20604     20607
     20603     20601     20604     20605     20603     20601     20604     20606
     20603     20601     20604     20607     20604     20607     20610     20611
     20604     20607     20610     20612     20604     20607     20610     20613
     20605     20604     20607     20608     20605     20604     20607     20609
     20605     20604     20607     20610     20606     20604     20607     20608
     20606     20604     20607     20609     20606     20604     20607     20610
     20607     20610     20613     20614     20607     20610     20613     20615
     20607     20610     20613     20616     20608     20607     20610     20611
     20608     20607     20610     20612     20608     20607     20610     20613
     20609     20607     20610     20611     20609     20607     20610     20612
     20609     20607     20610     20613     20610     20613     20616     20617
     20610     20613     20616     20618     20610     20613     20616     20619
     20611     20610     20613     20614     20611     20610     20613     20615
     20611     20610     20613     20616     20612     20610     20613     20614
     20612     20610     20613     20615     20612     20610     20613     20616
     20613     20616     20619     20620     20613     20616     20619     20621
     20613     20616     20619     20622     20614     20613     20616     20617
     20614     20613     20616     20618     20614     20613     20616     20619
     20615     20613     20616     20617     20615     20613     20616     20618
     20615     20613     20616     20619     20616     20619     20622     20623
     20616     20619     20622     20624     20616     20619     20622     20625
     20617     20616     20619     20620     20617     20616     20619     20621
     20617     20616     20619     20622     20618     20616     20619     20620
     20618     20616     20619     20621     20618     20616     20619     20622
     20619     20622     20625     20626     20619     20622     20625     20627
     20619     20622     20625     20628     20620     20619     20622     20623
     20620     20619     20622     20624     20620     20619     20622     20625
     20621     20619     20622     20623     20621     20619     20622     20624
     20621     20619     20622     20625     20622     20625     20628     20629
     20622     20625     20628     20630     20622     20625     20628     20631
     20623     20622     20625     20626     20623     20622     20625     20627
     20623     20622     20625     20628     20624     20622     20625     20626
     20624     20622     20625     20627     20624     20622     20625     20628
     20626     20625     20628     20629     20626     20625     20628     20630
     20626     20625     20628     20631     20627     20625     20628     20629
     20627     20625     20628     20630     20627     20625     20628     20631
     20632     20636     20639     20640     20632     20636     20639     20641
     20632     20636     20639     20646     20633     20632     20636     20637
     20633     20632     20636     20638     20633     20632     20636     20639
     20634     20632     20636     20637     20634     20632     20636     20638
     20634     20632     20636     20639     20635     20632     20636     20637
     20635     20632     20636     20638     20635     20632     20636     20639
     20636     20639     20646     20642     20637     20636     20639     20640
     20637     20636     20639     20641     20637     20636     20639     20646
     20638     20636     20639     20640     20638     20636     20639     20641
     20638     20636     20639     20646     20639     20646     20642     20643
     20639     20646     20642     20644     20639     20646     20642     20645
     20640     20639     20646     20642     20641     20639     20646     20642
     20642     20645     20647     20648     20642     20645     20647     20649
     20642     20645     20647     20650     20643     20642     20645     20647
     20644     20642     20645     20647     20645     20647     20650     20651
     20645     20647     20650     20652     20645     20647     20650     20658
     20646     20642     20645     20647     20647     20650     20652     20653
     20647     20650     20658     20659     20647     20650     20658     20660
     20647     20650     20658     20661     20648     20647     20650     20651
     20648     20647     20650     20652     20648     20647     20650     20658
     20649     20647     20650     20651     20649     20647     20650     20652
     20649     20647     20650     20658     20650     20652     20653     20654
     20650     20652     20653     20655     20650     20658     20661     20662
     20651     20650     20652     20653     20651     20650     20658     20659
     20651     20650     20658     20660     20651     20650     20658     20661
     20652     20650     20658     20659     20652     20650     20658     20660
     20652     20650     20658     20661     20652     20653     20655     20656
     20652     20653     20655     20657     20652     20653     20655     20667
     20653     20652     20650     20658     20653     20655     20667     20668
     20653     20655     20667     20669     20653     20655     20667     20670
     20654     20653     20655     20656     20654     20653     20655     20657
     20654     20653     20655     20667     20655     20667     20670     20671
     20655     20667     20670     20672     20655     20667     20670     20673
     20656     20655     20667     20668     20656     20655     20667     20669
     20656     20655     20667     20670     20657     20655     20667     20668
     20657     20655     20667     20669     20657     20655     20667     20670
     20658     20661     20662     20663     20658     20661     20662     20664
     20659     20658     20661     20662     20660     20658     20661     20662
     20661     20662     20664     20665     20661     20662     20664     20666
     20661     20662     20664     20711     20662     20664     20711     20712
     20662     20664     20711     20713     20662     20664     20711     20714
     20663     20662     20664     20665     20663     20662     20664     20666
     20663     20662     20664     20711     20664     20711     20714     20715
     20664     20711     20714     20716     20664     20711     20714     20717
     20665     20664     20711     20712     20665     20664     20711     20713
     20665     20664     20711     20714     20666     20664     20711     20712
     20666     20664     20711     20713     20666     20664     20711     20714
     20667     20670     20673     20674     20667     20670     20673     20675
     20667     20670     20673     20676     20668     20667     20670     20671
     20668     20667     20670     20672     20668     20667     20670     20673
     20669     20667     20670     20671     20669     20667     20670     20672
     20669     20667     20670     20673     20670     20673     20676     20677
     20670     20673     20676     20678     20670     20673     20676     20679
     20671     20670     20673     20674     20671     20670     20673     20675
     20671     20670     20673     20676     20672     20670     20673     20674
     20672     20670     20673     20675     20672     20670     20673     20676
     20673     20676     20679     20680     20673     20676     20679     20681
     20673     20676     20679     20682     20674     20673     20676     20677
     20674     20673     20676     20678     20674     20673     20676     20679
     20675     20673     20676     20677     20675     20673     20676     20678
     20675     20673     20676     20679     20676     20679     20682     20683
     20676     20679     20682     20684     20676     20679     20682     20685
     20677     20676     20679     20680     20677     20676     20679     20681
     20677     20676     20679     20682     20678     20676     20679     20680
     20678     20676     20679     20681     20678     20676     20679     20682
     20679     20682     20685     20686     20679     20682     20685     20687
     20679     20682     20685     20690     20680     20679     20682     20683
     20680     20679     20682     20684     20680     20679     20682     20685
     20681     20679     20682     20683     20681     20679     20682     20684
     20681     20679     20682     20685     20682     20685     20687     20688
     20682     20685     20687     20689     20682     20685     20687     20690
     20682     20685     20690     20687     20682     20685     20690     20691
     20682     20685     20690     20692     20683     20682     20685     20686
     20683     20682     20685     20687     20683     20682     20685     20690
     20684     20682     20685     20686     20684     20682     20685     20687
     20684     20682     20685     20690     20685     20687     20690     20691
     20685     20687     20690     20692     20685     20690     20687     20688
     20685     20690     20687     20689     20685     20690     20692     20693
     20685     20690     20692     20694     20685     20690     20692     20695
     20686     20685     20687     20688     20686     20685     20687     20689
     20686     20685     20687     20690     20686     20685     20690     20687
     20686     20685     20690     20691     20686     20685     20690     20692
     20687     20685     20690     20691     20687     20685     20690     20692
     20687     20690     20692     20693     20687     20690     20692     20694
     20687     20690     20692     20695     20688     20687     20685     20690
     20688     20687     20690     20691     20688     20687     20690     20692
     20689     20687     20685     20690     20689     20687     20690     20691
     20689     20687     20690     20692     20690     20692     20695     20696
     20690     20692     20695     20697     20690     20692     20695     20698
     20691     20690     20692     20693     20691     20690     20692     20694
     20691     20690     20692     20695     20692     20695     20698     20699
     20692     20695     20698     20700     20692     20695     20698     20701
     20693     20692     20695     20696     20693     20692     20695     20697
     20693     20692     20695     20698     20694     20692     20695     20696
     20694     20692     20695     20697     20694     20692     20695     20698
     20695     20698     20701     20702     20695     20698     20701     20703
     20695     20698     20701     20704     20696     20695     20698     20699
     20696     20695     20698     20700     20696     20695     20698     20701
     20697     20695     20698     20699     20697     20695     20698     20700
     20697     20695     20698     20701     20698     20701     20704     20705
     20698     20701     20704     20706     20698     20701     20704     20707
     20699     20698     20701     20702     20699     20698     20701     20703
     20699     20698     20701     20704     20700     20698     20701     20702
     20700     20698     20701     20703     20700     20698     20701     20704
     20701     20704     20707     20708     20701     20704     20707     20709
     20701     20704     20707     20710     20702     20701     20704     20705
     20702     20701     20704     20706     20702     20701     20704     20707
     20703     20701     20704     20705     20703     20701     20704     20706
     20703     20701     20704     20707     20705     20704     20707     20708
     20705     20704     20707     20709     20705     20704     20707     20710
     20706     20704     20707     20708     20706     20704     20707     20709
     20706     20704     20707     20710     20711     20714     20717     20718
     20711     20714     20717     20719     20711     20714     20717     20720
     20712     20711     20714     20715     20712     20711     20714     20716
     20712     20711     20714     20717     20713     20711     20714     20715
     20713     20711     20714     20716     20713     20711     20714     20717
     20714     20717     20720     20721     20714     20717     20720     20722
     20714     20717     20720     20723     20715     20714     20717     20718
     20715     20714     20717     20719     20715     20714     20717     20720
     20716     20714     20717     20718     20716     20714     20717     20719
     20716     20714     20717     20720     20717     20720     20723     20724
     20717     20720     20723     20725     20717     20720     20723     20726
     20718     20717     20720     20721     20718     20717     20720     20722
     20718     20717     20720     20723     20719     20717     20720     20721
     20719     20717     20720     20722     20719     20717     20720     20723
     20720     20723     20726     20727     20720     20723     20726     20728
     20720     20723     20726     20729     20721     20720     20723     20724
     20721     20720     20723     20725     20721     20720     20723     20726
     20722     20720     20723     20724     20722     20720     20723     20725
     20722     20720     20723     20726     20723     20726     20729     20730
     20723     20726     20729     20731     20723     20726     20729     20732
     20724     20723     20726     20727     20724     20723     20726     20728
     20724     20723     20726     20729     20725     20723     20726     20727
     20725     20723     20726     20728     20725     20723     20726     20729
     20726     20729     20732     20733     20726     20729     20732     20734
     20726     20729     20732     20735     20727     20726     20729     20730
     20727     20726     20729     20731     20727     20726     20729     20732
     20728     20726     20729     20730     20728     20726     20729     20731
     20728     20726     20729     20732     20729     20732     20735     20736
     20729     20732     20735     20737     20729     20732     20735     20738
     20730     20729     20732     20733     20730     20729     20732     20734
     20730     20729     20732     20735     20731     20729     20732     20733
     20731     20729     20732     20734     20731     20729     20732     20735
     20732     20735     20738     20739     20732     20735     20738     20740
     20732     20735     20738     20741     20733     20732     20735     20736
     20733     20732     20735     20737     20733     20732     20735     20738
     20734     20732     20735     20736     20734     20732     20735     20737
     20734     20732     20735     20738     20735     20738     20741     20742
     20735     20738     20741     20743     20735     20738     20741     20744
     20736     20735     20738     20739     20736     20735     20738     20740
     20736     20735     20738     20741     20737     20735     20738     20739
     20737     20735     20738     20740     20737     20735     20738     20741
     20738     20741     20744     20745     20738     20741     20744     20746
     20738     20741     20744     20747     20739     20738     20741     20742
     20739     20738     20741     20743     20739     20738     20741     20744
     20740     20738     20741     20742     20740     20738     20741     20743
     20740     20738     20741     20744     20741     20744     20747     20748
     20741     20744     20747     20749     20741     20744     20747     20750
     20742     20741     20744     20745     20742     20741     20744     20746
     20742     20741     20744     20747     20743     20741     20744     20745
     20743     20741     20744     20746     20743     20741     20744     20747
     20744     20747     20750     20751     20744     20747     20750     20752
     20744     20747     20750     20753     20745     20744     20747     20748
     20745     20744     20747     20749     20745     20744     20747     20750
     20746     20744     20747     20748     20746     20744     20747     20749
     20746     20744     20747     20750     20748     20747     20750     20751
     20748     20747     20750     20752     20748     20747     20750     20753
     20749     20747     20750     20751     20749     20747     20750     20752
     20749     20747     20750     20753     20754     20758     20761     20762
     20754     20758     20761     20763     20754     20758     20761     20768
     20755     20754     20758     20759     20755     20754     20758     20760
     20755     20754     20758     20761     20756     20754     20758     20759
     20756     20754     20758     20760     20756     20754     20758     20761
     20757     20754     20758     20759     20757     20754     20758     20760
     20757     20754     20758     20761     20758     20761     20768     20764
     20759     20758     20761     20762     20759     20758     20761     20763
     20759     20758     20761     20768     20760     20758     20761     20762
     20760     20758     20761     20763     20760     20758     20761     20768
     20761     20768     20764     20765     20761     20768     20764     20766
     20761     20768     20764     20767     20762     20761     20768     20764
     20763     20761     20768     20764     20764     20767     20769     20770
     20764     20767     20769     20771     20764     20767     20769     20772
     20765     20764     20767     20769     20766     20764     20767     20769
     20767     20769     20772     20773     20767     20769     20772     20774
     20767     20769     20772     20780     20768     20764     20767     20769
     20769     20772     20774     20775     20769     20772     20780     20781
     20769     20772     20780     20782     20769     20772     20780     20783
     20770     20769     20772     20773     20770     20769     20772     20774
     20770     20769     20772     20780     20771     20769     20772     20773
     20771     20769     20772     20774     20771     20769     20772     20780
     20772     20774     20775     20776     20772     20774     20775     20777
     20772     20780     20783     20784     20773     20772     20774     20775
     20773     20772     20780     20781     20773     20772     20780     20782
     20773     20772     20780     20783     20774     20772     20780     20781
     20774     20772     20780     20782     20774     20772     20780     20783
     20774     20775     20777     20778     20774     20775     20777     20779
     20774     20775     20777     20789     20775     20774     20772     20780
     20775     20777     20789     20790     20775     20777     20789     20791
     20775     20777     20789     20792     20776     20775     20777     20778
     20776     20775     20777     20779     20776     20775     20777     20789
     20777     20789     20792     20793     20777     20789     20792     20794
     20777     20789     20792     20795     20778     20777     20789     20790
     20778     20777     20789     20791     20778     20777     20789     20792
     20779     20777     20789     20790     20779     20777     20789     20791
     20779     20777     20789     20792     20780     20783     20784     20785
     20780     20783     20784     20786     20781     20780     20783     20784
     20782     20780     20783     20784     20783     20784     20786     20787
     20783     20784     20786     20788     20783     20784     20786     20833
     20784     20786     20833     20834     20784     20786     20833     20835
     20784     20786     20833     20836     20785     20784     20786     20787
     20785     20784     20786     20788     20785     20784     20786     20833
     20786     20833     20836     20837     20786     20833     20836     20838
     20786     20833     20836     20839     20787     20786     20833     20834
     20787     20786     20833     20835     20787     20786     20833     20836
     20788     20786     20833     20834     20788     20786     20833     20835
     20788     20786     20833     20836     20789     20792     20795     20796
     20789     20792     20795     20797     20789     20792     20795     20798
     20790     20789     20792     20793     20790     20789     20792     20794
     20790     20789     20792     20795     20791     20789     20792     20793
     20791     20789     20792     20794     20791     20789     20792     20795
     20792     20795     20798     20799     20792     20795     20798     20800
     20792     20795     20798     20801     20793     20792     20795     20796
     20793     20792     20795     20797     20793     20792     20795     20798
     20794     20792     20795     20796     20794     20792     20795     20797
     20794     20792     20795     20798     20795     20798     20801     20802
     20795     20798     20801     20803     20795     20798     20801     20804
     20796     20795     20798     20799     20796     20795     20798     20800
     20796     20795     20798     20801     20797     20795     20798     20799
     20797     20795     20798     20800     20797     20795     20798     20801
     20798     20801     20804     20805     20798     20801     20804     20806
     20798     20801     20804     20807     20799     20798     20801     20802
     20799     20798     20801     20803     20799     20798     20801     20804
     20800     20798     20801     20802     20800     20798     20801     20803
     20800     20798     20801     20804     20801     20804     20807     20808
     20801     20804     20807     20809     20801     20804     20807     20812
     20802     20801     20804     20805     20802     20801     20804     20806
     20802     20801     20804     20807     20803     20801     20804     20805
     20803     20801     20804     20806     20803     20801     20804     20807
     20804     20807     20809     20810     20804     20807     20809     20811
     20804     20807     20809     20812     20804     20807     20812     20809
     20804     20807     20812     20813     20804     20807     20812     20814
     20805     20804     20807     20808     20805     20804     20807     20809
     20805     20804     20807     20812     20806     20804     20807     20808
     20806     20804     20807     20809     20806     20804     20807     20812
     20807     20809     20812     20813     20807     20809     20812     20814
     20807     20812     20809     20810     20807     20812     20809     20811
     20807     20812     20814     20815     20807     20812     20814     20816
     20807     20812     20814     20817     20808     20807     20809     20810
     20808     20807     20809     20811     20808     20807     20809     20812
     20808     20807     20812     20809     20808     20807     20812     20813
     20808     20807     20812     20814     20809     20807     20812     20813
     20809     20807     20812     20814     20809     20812     20814     20815
     20809     20812     20814     20816     20809     20812     20814     20817
     20810     20809     20807     20812     20810     20809     20812     20813
     20810     20809     20812     20814     20811     20809     20807     20812
     20811     20809     20812     20813     20811     20809     20812     20814
     20812     20814     20817     20818     20812     20814     20817     20819
     20812     20814     20817     20820     20813     20812     20814     20815
     20813     20812     20814     20816     20813     20812     20814     20817
     20814     20817     20820     20821     20814     20817     20820     20822
     20814     20817     20820     20823     20815     20814     20817     20818
     20815     20814     20817     20819     20815     20814     20817     20820
     20816     20814     20817     20818     20816     20814     20817     20819
     20816     20814     20817     20820     20817     20820     20823     20824
     20817     20820     20823     20825     20817     20820     20823     20826
     20818     20817     20820     20821     20818     20817     20820     20822
     20818     20817     20820     20823     20819     20817     20820     20821
     20819     20817     20820     20822     20819     20817     20820     20823
     20820     20823     20826     20827     20820     20823     20826     20828
     20820     20823     20826     20829     20821     20820     20823     20824
     20821     20820     20823     20825     20821     20820     20823     20826
     20822     20820     20823     20824     20822     20820     20823     20825
     20822     20820     20823     20826     20823     20826     20829     20830
     20823     20826     20829     20831     20823     20826     20829     20832
     20824     20823     20826     20827     20824     20823     20826     20828
     20824     20823     20826     20829     20825     20823     20826     20827
     20825     20823     20826     20828     20825     20823     20826     20829
     20827     20826     20829     20830     20827     20826     20829     20831
     20827     20826     20829     20832     20828     20826     20829     20830
     20828     20826     20829     20831     20828     20826     20829     20832
     20833     20836     20839     20840     20833     20836     20839     20841
     20833     20836     20839     20842     20834     20833     20836     20837
     20834     20833     20836     20838     20834     20833     20836     20839
     20835     20833     20836     20837     20835     20833     20836     20838
     20835     20833     20836     20839     20836     20839     20842     20843
     20836     20839     20842     20844     20836     20839     20842     20845
     20837     20836     20839     20840     20837     20836     20839     20841
     20837     20836     20839     20842     20838     20836     20839     20840
     20838     20836     20839     20841     20838     20836     20839     20842
     20839     20842     20845     20846     20839     20842     20845     20847
     20839     20842     20845     20848     20840     20839     20842     20843
     20840     20839     20842     20844     20840     20839     20842     20845
     20841     20839     20842     20843     20841     20839     20842     20844
     20841     20839     20842     20845     20842     20845     20848     20849
     20842     20845     20848     20850     20842     20845     20848     20851
     20843     20842     20845     20846     20843     20842     20845     20847
     20843     20842     20845     20848     20844     20842     20845     20846
     20844     20842     20845     20847     20844     20842     20845     20848
     20845     20848     20851     20852     20845     20848     20851     20853
     20845     20848     20851     20854     20846     20845     20848     20849
     20846     20845     20848     20850     20846     20845     20848     20851
     20847     20845     20848     20849     20847     20845     20848     20850
     20847     20845     20848     20851     20848     20851     20854     20855
     20848     20851     20854     20856     20848     20851     20854     20857
     20849     20848     20851     20852     20849     20848     20851     20853
     20849     20848     20851     20854     20850     20848     20851     20852
     20850     20848     20851     20853     20850     20848     20851     20854
     20851     20854     20857     20858     20851     20854     20857     20859
     20851     20854     20857     20860     20852     20851     20854     20855
     20852     20851     20854     20856     20852     20851     20854     20857
     20853     20851     20854     20855     20853     20851     20854     20856
     20853     20851     20854     20857     20854     20857     20860     20861
     20854     20857     20860     20862     20854     20857     20860     20863
     20855     20854     20857     20858     20855     20854     20857     20859
     20855     20854     20857     20860     20856     20854     20857     20858
     20856     20854     20857     20859     20856     20854     20857     20860
     20857     20860     20863     20864     20857     20860     20863     20865
     20857     20860     20863     20866     20858     20857     20860     20861
     20858     20857     20860     20862     20858     20857     20860     20863
     20859     20857     20860     20861     20859     20857     20860     20862
     20859     20857     20860     20863     20860     20863     20866     20867
     20860     20863     20866     20868     20860     20863     20866     20869
     20861     20860     20863     20864     20861     20860     20863     20865
     20861     20860     20863     20866     20862     20860     20863     20864
     20862     20860     20863     20865     20862     20860     20863     20866
     20863     20866     20869     20870     20863     20866     20869     20871
     20863     20866     20869     20872     20864     20863     20866     20867
     20864     20863     20866     20868     20864     20863     20866     20869
     20865     20863     20866     20867     20865     20863     20866     20868
     20865     20863     20866     20869     20866     20869     20872     20873
     20866     20869     20872     20874     20866     20869     20872     20875
     20867     20866     20869     20870     20867     20866     20869     20871
     20867     20866     20869     20872     20868     20866     20869     20870
     20868     20866     20869     20871     20868     20866     20869     20872
     20870     20869     20872     20873     20870     20869     20872     20874
     20870     20869     20872     20875     20871     20869     20872     20873
     20871     20869     20872     20874     20871     20869     20872     20875
     20876     20880     20883     20884     20876     20880     20883     20885
     20876     20880     20883     20890     20877     20876     20880     20881
     20877     20876     20880     20882     20877     20876     20880     20883
     20878     20876     20880     20881     20878     20876     20880     20882
     20878     20876     20880     20883     20879     20876     20880     20881
     20879     20876     20880     20882     20879     20876     20880     20883
     20880     20883     20890     20886     20881     20880     20883     20884
     20881     20880     20883     20885     20881     20880     20883     20890
     20882     20880     20883     20884     20882     20880     20883     20885
     20882     20880     20883     20890     20883     20890     20886     20887
     20883     20890     20886     20888     20883     20890     20886     20889
     20884     20883     20890     20886     20885     20883     20890     20886
     20886     20889     20891     20892     20886     20889     20891     20893
     20886     20889     20891     20894     20887     20886     20889     20891
     20888     20886     20889     20891     20889     20891     20894     20895
     20889     20891     20894     20896     20889     20891     20894     20902
     20890     20886     20889     20891     20891     20894     20896     20897
     20891     20894     20902     20903     20891     20894     20902     20904
     20891     20894     20902     20905     20892     20891     20894     20895
     20892     20891     20894     20896     20892     20891     20894     20902
     20893     20891     20894     20895     20893     20891     20894     20896
     20893     20891     20894     20902     20894     20896     20897     20898
     20894     20896     20897     20899     20894     20902     20905     20906
     20895     20894     20896     20897     20895     20894     20902     20903
     20895     20894     20902     20904     20895     20894     20902     20905
     20896     20894     20902     20903     20896     20894     20902     20904
     20896     20894     20902     20905     20896     20897     20899     20900
     20896     20897     20899     20901     20896     20897     20899     20911
     20897     20896     20894     20902     20897     20899     20911     20912
     20897     20899     20911     20913     20897     20899     20911     20914
     20898     20897     20899     20900     20898     20897     20899     20901
     20898     20897     20899     20911     20899     20911     20914     20915
     20899     20911     20914     20916     20899     20911     20914     20917
     20900     20899     20911     20912     20900     20899     20911     20913
     20900     20899     20911     20914     20901     20899     20911     20912
     20901     20899     20911     20913     20901     20899     20911     20914
     20902     20905     20906     20907     20902     20905     20906     20908
     20903     20902     20905     20906     20904     20902     20905     20906
     20905     20906     20908     20909     20905     20906     20908     20910
     20905     20906     20908     20958     20906     20908     20958     20959
     20906     20908     20958     20960     20906     20908     20958     20961
     20907     20906     20908     20909     20907     20906     20908     20910
     20907     20906     20908     20958     20908     20958     20961     20962
     20908     20958     20961     20963     20908     20958     20961     20964
     20909     20908     20958     20959     20909     20908     20958     20960
     20909     20908     20958     20961     20910     20908     20958     20959
     20910     20908     20958     20960     20910     20908     20958     20961
     20911     20914     20917     20918     20911     20914     20917     20919
     20911     20914     20917     20920     20912     20911     20914     20915
     20912     20911     20914     20916     20912     20911     20914     20917
     20913     20911     20914     20915     20913     20911     20914     20916
     20913     20911     20914     20917     20914     20917     20920     20921
     20914     20917     20920     20922     20914     20917     20920     20923
     20915     20914     20917     20918     20915     20914     20917     20919
     20915     20914     20917     20920     20916     20914     20917     20918
     20916     20914     20917     20919     20916     20914     20917     20920
     20917     20920     20923     20924     20917     20920     20923     20925
     20917     20920     20923     20926     20918     20917     20920     20921
     20918     20917     20920     20922     20918     20917     20920     20923
     20919     20917     20920     20921     20919     20917     20920     20922
     20919     20917     20920     20923     20920     20923     20926     20927
     20920     20923     20926     20928     20920     20923     20926     20929
     20921     20920     20923     20924     20921     20920     20923     20925
     20921     20920     20923     20926     20922     20920     20923     20924
     20922     20920     20923     20925     20922     20920     20923     20926
     20923     20926     20929     20930     20923     20926     20929     20931
     20924     20923     20926     20927     20924     20923     20926     20928
     20924     20923     20926     20929     20925     20923     20926     20927
     20925     20923     20926     20928     20925     20923     20926     20929
     20926     20929     20931     20932     20926     20929     20931     20933
     20927     20926     20929     20930     20927     20926     20929     20931
     20928     20926     20929     20930     20928     20926     20929     20931
     20929     20931     20933     20934     20929     20931     20933     20935
     20929     20931     20933     20936     20930     20929     20931     20932
     20930     20929     20931     20933     20931     20933     20936     20937
     20931     20933     20936     20938     20931     20933     20936     20939
     20932     20931     20933     20934     20932     20931     20933     20935
     20932     20931     20933     20936     20933     20936     20939     20940
     20933     20936     20939     20941     20933     20936     20939     20942
     20934     20933     20936     20937     20934     20933     20936     20938
     20934     20933     20936     20939     20935     20933     20936     20937
     20935     20933     20936     20938     20935     20933     20936     20939
     20936     20939     20942     20943     20936     20939     20942     20944
     20936     20939     20942     20945     20937     20936     20939     20940
     20937     20936     20939     20941     20937     20936     20939     20942
     20938     20936     20939     20940     20938     20936     20939     20941
     20938     20936     20939     20942     20939     20942     20945     20946
     20939     20942     20945     20947     20939     20942     20945     20948
     20940     20939     20942     20943     20940     20939     20942     20944
     20940     20939     20942     20945     20941     20939     20942     20943
     20941     20939     20942     20944     20941     20939     20942     20945
     20942     20945     20948     20949     20942     20945     20948     20950
     20942     20945     20948     20951     20943     20942     20945     20946
     20943     20942     20945     20947     20943     20942     20945     20948
     20944     20942     20945     20946     20944     20942     20945     20947
     20944     20942     20945     20948     20945     20948     20951     20952
     20945     20948     20951     20953     20945     20948     20951     20954
     20946     20945     20948     20949     20946     20945     20948     20950
     20946     20945     20948     20951     20947     20945     20948     20949
     20947     20945     20948     20950     20947     20945     20948     20951
     20948     20951     20954     20955     20948     20951     20954     20956
     20948     20951     20954     20957     20949     20948     20951     20952
     20949     20948     20951     20953     20949     20948     20951     20954
     20950     20948     20951     20952     20950     20948     20951     20953
     20950     20948     20951     20954     20952     20951     20954     20955
     20952     20951     20954     20956     20952     20951     20954     20957
     20953     20951     20954     20955     20953     20951     20954     20956
     20953     20951     20954     20957     20958     20961     20964     20965
     20958     20961     20964     20966     20958     20961     20964     20967
     20959     20958     20961     20962     20959     20958     20961     20963
     20959     20958     20961     20964     20960     20958     20961     20962
     20960     20958     20961     20963     20960     20958     20961     20964
     20961     20964     20967     20968     20961     20964     20967     20969
     20961     20964     20967     20970     20962     20961     20964     20965
     20962     20961     20964     20966     20962     20961     20964     20967
     20963     20961     20964     20965     20963     20961     20964     20966
     20963     20961     20964     20967     20964     20967     20970     20971
     20964     20967     20970     20972     20964     20967     20970     20973
     20965     20964     20967     20968     20965     20964     20967     20969
     20965     20964     20967     20970     20966     20964     20967     20968
     20966     20964     20967     20969     20966     20964     20967     20970
     20967     20970     20973     20974     20967     20970     20973     20975
     20967     20970     20973     20976     20968     20967     20970     20971
     20968     20967     20970     20972     20968     20967     20970     20973
     20969     20967     20970     20971     20969     20967     20970     20972
     20969     20967     20970     20973     20970     20973     20976     20977
     20970     20973     20976     20978     20970     20973     20976     20979
     20971     20970     20973     20974     20971     20970     20973     20975
     20971     20970     20973     20976     20972     20970     20973     20974
     20972     20970     20973     20975     20972     20970     20973     20976
     20973     20976     20979     20980     20973     20976     20979     20981
     20973     20976     20979     20982     20974     20973     20976     20977
     20974     20973     20976     20978     20974     20973     20976     20979
     20975     20973     20976     20977     20975     20973     20976     20978
     20975     20973     20976     20979     20976     20979     20982     20983
     20976     20979     20982     20984     20976     20979     20982     20985
     20977     20976     20979     20980     20977     20976     20979     20981
     20977     20976     20979     20982     20978     20976     20979     20980
     20978     20976     20979     20981     20978     20976     20979     20982
     20979     20982     20985     20986     20979     20982     20985     20987
     20979     20982     20985     20988     20980     20979     20982     20983
     20980     20979     20982     20984     20980     20979     20982     20985
     20981     20979     20982     20983     20981     20979     20982     20984
     20981     20979     20982     20985     20982     20985     20988     20989
     20982     20985     20988     20990     20982     20985     20988     20991
     20983     20982     20985     20986     20983     20982     20985     20987
     20983     20982     20985     20988     20984     20982     20985     20986
     20984     20982     20985     20987     20984     20982     20985     20988
     20985     20988     20991     20992     20985     20988     20991     20993
     20985     20988     20991     20994     20986     20985     20988     20989
     20986     20985     20988     20990     20986     20985     20988     20991
     20987     20985     20988     20989     20987     20985     20988     20990
     20987     20985     20988     20991     20988     20991     20994     20995
     20988     20991     20994     20996     20988     20991     20994     20997
     20989     20988     20991     20992     20989     20988     20991     20993
     20989     20988     20991     20994     20990     20988     20991     20992
     20990     20988     20991     20993     20990     20988     20991     20994
     20991     20994     20997     20998     20991     20994     20997     20999
     20991     20994     20997     21000     20992     20991     20994     20995
     20992     20991     20994     20996     20992     20991     20994     20997
     20993     20991     20994     20995     20993     20991     20994     20996
     20993     20991     20994     20997     20995     20994     20997     20998
     20995     20994     20997     20999     20995     20994     20997     21000
     20996     20994     20997     20998     20996     20994     20997     20999
     20996     20994     20997     21000     21001     21005     21008     21009
     21001     21005     21008     21010     21001     21005     21008     21015
     21002     21001     21005     21006     21002     21001     21005     21007
     21002     21001     21005     21008     21003     21001     21005     21006
     21003     21001     21005     21007     21003     21001     21005     21008
     21004     21001     21005     21006     21004     21001     21005     21007
     21004     21001     21005     21008     21005     21008     21015     21011
     21006     21005     21008     21009     21006     21005     21008     21010
     21006     21005     21008     21015     21007     21005     21008     21009
     21007     21005     21008     21010     21007     21005     21008     21015
     21008     21015     21011     21012     21008     21015     21011     21013
     21008     21015     21011     21014     21009     21008     21015     21011
     21010     21008     21015     21011     21011     21014     21016     21017
     21011     21014     21016     21018     21011     21014     21016     21019
     21012     21011     21014     21016     21013     21011     21014     21016
     21014     21016     21019     21020     21014     21016     21019     21021
     21014     21016     21019     21027     21015     21011     21014     21016
     21016     21019     21021     21022     21016     21019     21027     21028
     21016     21019     21027     21029     21016     21019     21027     21030
     21017     21016     21019     21020     21017     21016     21019     21021
     21017     21016     21019     21027     21018     21016     21019     21020
     21018     21016     21019     21021     21018     21016     21019     21027
     21019     21021     21022     21023     21019     21021     21022     21024
     21019     21027     21030     21031     21020     21019     21021     21022
     21020     21019     21027     21028     21020     21019     21027     21029
     21020     21019     21027     21030     21021     21019     21027     21028
     21021     21019     21027     21029     21021     21019     21027     21030
     21021     21022     21024     21025     21021     21022     21024     21026
     21021     21022     21024     21036     21022     21021     21019     21027
     21022     21024     21036     21037     21022     21024     21036     21038
     21022     21024     21036     21039     21023     21022     21024     21025
     21023     21022     21024     21026     21023     21022     21024     21036
     21024     21036     21039     21040     21024     21036     21039     21041
     21024     21036     21039     21042     21025     21024     21036     21037
     21025     21024     21036     21038     21025     21024     21036     21039
     21026     21024     21036     21037     21026     21024     21036     21038
     21026     21024     21036     21039     21027     21030     21031     21032
     21027     21030     21031     21033     21028     21027     21030     21031
     21029     21027     21030     21031     21030     21031     21033     21034
     21030     21031     21033     21035     21030     21031     21033     21083
     21031     21033     21083     21084     21031     21033     21083     21085
     21031     21033     21083     21086     21032     21031     21033     21034
     21032     21031     21033     21035     21032     21031     21033     21083
     21033     21083     21086     21087     21033     21083     21086     21088
     21033     21083     21086     21089     21034     21033     21083     21084
     21034     21033     21083     21085     21034     21033     21083     21086
     21035     21033     21083     21084     21035     21033     21083     21085
     21035     21033     21083     21086     21036     21039     21042     21043
     21036     21039     21042     21044     21036     21039     21042     21045
     21037     21036     21039     21040     21037     21036     21039     21041
     21037     21036     21039     21042     21038     21036     21039     21040
     21038     21036     21039     21041     21038     21036     21039     21042
     21039     21042     21045     21046     21039     21042     21045     21047
     21039     21042     21045     21048     21040     21039     21042     21043
     21040     21039     21042     21044     21040     21039     21042     21045
     21041     21039     21042     21043     21041     21039     21042     21044
     21041     21039     21042     21045     21042     21045     21048     21049
     21042     21045     21048     21050     21042     21045     21048     21051
     21043     21042     21045     21046     21043     21042     21045     21047
     21043     21042     21045     21048     21044     21042     21045     21046
     21044     21042     21045     21047     21044     21042     21045     21048
     21045     21048     21051     21052     21045     21048     21051     21053
     21045     21048     21051     21054     21046     21045     21048     21049
     21046     21045     21048     21050     21046     21045     21048     21051
     21047     21045     21048     21049     21047     21045     21048     21050
     21047     21045     21048     21051     21048     21051     21054     21055
     21048     21051     21054     21056     21049     21048     21051     21052
     21049     21048     21051     21053     21049     21048     21051     21054
     21050     21048     21051     21052     21050     21048     21051     21053
     21050     21048     21051     21054     21051     21054     21056     21057
     21051     21054     21056     21058     21052     21051     21054     21055
     21052     21051     21054     21056     21053     21051     21054     21055
     21053     21051     21054     21056     21054     21056     21058     21059
     21054     21056     21058     21060     21054     21056     21058     21061
     21055     21054     21056     21057     21055     21054     21056     21058
     21056     21058     21061     21062     21056     21058     21061     21063
     21056     21058     21061     21064     21057     21056     21058     21059
     21057     21056     21058     21060     21057     21056     21058     21061
     21058     21061     21064     21065     21058     21061     21064     21066
     21058     21061     21064     21067     21059     21058     21061     21062
     21059     21058     21061     21063     21059     21058     21061     21064
     21060     21058     21061     21062     21060     21058     21061     21063
     21060     21058     21061     21064     21061     21064     21067     21068
     21061     21064     21067     21069     21061     21064     21067     21070
     21062     21061     21064     21065     21062     21061     21064     21066
     21062     21061     21064     21067     21063     21061     21064     21065
     21063     21061     21064     21066     21063     21061     21064     21067
     21064     21067     21070     21071     21064     21067     21070     21072
     21064     21067     21070     21073     21065     21064     21067     21068
     21065     21064     21067     21069     21065     21064     21067     21070
     21066     21064     21067     21068     21066     21064     21067     21069
     21066     21064     21067     21070     21067     21070     21073     21074
     21067     21070     21073     21075     21067     21070     21073     21076
     21068     21067     21070     21071     21068     21067     21070     21072
     21068     21067     21070     21073     21069     21067     21070     21071
     21069     21067     21070     21072     21069     21067     21070     21073
     21070     21073     21076     21077     21070     21073     21076     21078
     21070     21073     21076     21079     21071     21070     21073     21074
     21071     21070     21073     21075     21071     21070     21073     21076
     21072     21070     21073     21074     21072     21070     21073     21075
     21072     21070     21073     21076     21073     21076     21079     21080
     21073     21076     21079     21081     21073     21076     21079     21082
     21074     21073     21076     21077     21074     21073     21076     21078
     21074     21073     21076     21079     21075     21073     21076     21077
     21075     21073     21076     21078     21075     21073     21076     21079
     21077     21076     21079     21080     21077     21076     21079     21081
     21077     21076     21079     21082     21078     21076     21079     21080
     21078     21076     21079     21081     21078     21076     21079     21082
     21083     21086     21089     21090     21083     21086     21089     21091
     21083     21086     21089     21092     21084     21083     21086     21087
     21084     21083     21086     21088     21084     21083     21086     21089
     21085     21083     21086     21087     21085     21083     21086     21088
     21085     21083     21086     21089     21086     21089     21092     21093
     21086     21089     21092     21094     21086     21089     21092     21095
     21087     21086     21089     21090     21087     21086     21089     21091
     21087     21086     21089     21092     21088     21086     21089     21090
     21088     21086     21089     21091     21088     21086     21089     21092
     21089     21092     21095     21096     21089     21092     21095     21097
     21089     21092     21095     21098     21090     21089     21092     21093
     21090     21089     21092     21094     21090     21089     21092     21095
     21091     21089     21092     21093     21091     21089     21092     21094
     21091     21089     21092     21095     21092     21095     21098     21099
     21092     21095     21098     21100     21092     21095     21098     21101
     21093     21092     21095     21096     21093     21092     21095     21097
     21093     21092     21095     21098     21094     21092     21095     21096
     21094     21092     21095     21097     21094     21092     21095     21098
     21095     21098     21101     21102     21095     21098     21101     21103
     21095     21098     21101     21104     21096     21095     21098     21099
     21096     21095     21098     21100     21096     21095     21098     21101
     21097     21095     21098     21099     21097     21095     21098     21100
     21097     21095     21098     21101     21098     21101     21104     21105
     21098     21101     21104     21106     21098     21101     21104     21107
     21099     21098     21101     21102     21099     21098     21101     21103
     21099     21098     21101     21104     21100     21098     21101     21102
     21100     21098     21101     21103     21100     21098     21101     21104
     21101     21104     21107     21108     21101     21104     21107     21109
     21101     21104     21107     21110     21102     21101     21104     21105
     21102     21101     21104     21106     21102     21101     21104     21107
     21103     21101     21104     21105     21103     21101     21104     21106
     21103     21101     21104     21107     21104     21107     21110     21111
     21104     21107     21110     21112     21104     21107     21110     21113
     21105     21104     21107     21108     21105     21104     21107     21109
     21105     21104     21107     21110     21106     21104     21107     21108
     21106     21104     21107     21109     21106     21104     21107     21110
     21107     21110     21113     21114     21107     21110     21113     21115
     21107     21110     21113     21116     21108     21107     21110     21111
     21108     21107     21110     21112     21108     21107     21110     21113
     21109     21107     21110     21111     21109     21107     21110     21112
     21109     21107     21110     21113     21110     21113     21116     21117
     21110     21113     21116     21118     21110     21113     21116     21119
     21111     21110     21113     21114     21111     21110     21113     21115
     21111     21110     21113     21116     21112     21110     21113     21114
     21112     21110     21113     21115     21112     21110     21113     21116
     21113     21116     21119     21120     21113     21116     21119     21121
     21113     21116     21119     21122     21114     21113     21116     21117
     21114     21113     21116     21118     21114     21113     21116     21119
     21115     21113     21116     21117     21115     21113     21116     21118
     21115     21113     21116     21119     21116     21119     21122     21123
     21116     21119     21122     21124     21116     21119     21122     21125
     21117     21116     21119     21120     21117     21116     21119     21121
     21117     21116     21119     21122     21118     21116     21119     21120
     21118     21116     21119     21121     21118     21116     21119     21122
     21120     21119     21122     21123     21120     21119     21122     21124
     21120     21119     21122     21125     21121     21119     21122     21123
     21121     21119     21122     21124     21121     21119     21122     21125
     21126     21131     21133     21134     21126     21131     21135     21136
     21126     21131     21135     21137     21126     21131     21135     21142
     21127     21126     21129     21130     21127     21126     21131     21132
     21127     21126     21131     21133     21127     21126     21131     21135
     21128     21126     21129     21130     21128     21126     21131     21132
     21128     21126     21131     21133     21128     21126     21131     21135
     21129     21126     21131     21132     21129     21126     21131     21133
     21129     21126     21131     21135     21130     21129     21126     21131
     21131     21135     21142     21138     21132     21131     21133     21134
     21132     21131     21135     21136     21132     21131     21135     21137
     21132     21131     21135     21142     21133     21131     21135     21136
     21133     21131     21135     21137     21133     21131     21135     21142
     21134     21133     21131     21135     21135     21142     21138     21139
     21135     21142     21138     21140     21135     21142     21138     21141
     21136     21135     21142     21138     21137     21135     21142     21138
     21138     21141     21143     21144     21138     21141     21143     21145
     21138     21141     21143     21146     21139     21138     21141     21143
     21140     21138     21141     21143     21141     21143     21146     21147
     21141     21143     21146     21148     21141     21143     21146     21154
     21142     21138     21141     21143     21143     21146     21148     21149
     21143     21146     21154     21155     21143     21146     21154     21156
     21143     21146     21154     21157     21144     21143     21146     21147
     21144     21143     21146     21148     21144     21143     21146     21154
     21145     21143     21146     21147     21145     21143     21146     21148
     21145     21143     21146     21154     21146     21148     21149     21150
     21146     21148     21149     21151     21146     21154     21157     21158
     21147     21146     21148     21149     21147     21146     21154     21155
     21147     21146     21154     21156     21147     21146     21154     21157
     21148     21146     21154     21155     21148     21146     21154     21156
     21148     21146     21154     21157     21148     21149     21151     21152
     21148     21149     21151     21153     21148     21149     21151     21163
     21149     21148     21146     21154     21149     21151     21163     21164
     21149     21151     21163     21165     21149     21151     21163     21166
     21150     21149     21151     21152     21150     21149     21151     21153
     21150     21149     21151     21163     21151     21163     21166     21167
     21151     21163     21166     21168     21151     21163     21166     21169
     21152     21151     21163     21164     21152     21151     21163     21165
     21152     21151     21163     21166     21153     21151     21163     21164
     21153     21151     21163     21165     21153     21151     21163     21166
     21154     21157     21158     21159     21154     21157     21158     21160
     21155     21154     21157     21158     21156     21154     21157     21158
     21157     21158     21160     21161     21157     21158     21160     21162
     21157     21158     21160     21204     21158     21160     21204     21205
     21158     21160     21204     21206     21158     21160     21204     21207
     21159     21158     21160     21161     21159     21158     21160     21162
     21159     21158     21160     21204     21160     21204     21207     21208
     21160     21204     21207     21209     21160     21204     21207     21210
     21161     21160     21204     21205     21161     21160     21204     21206
     21161     21160     21204     21207     21162     21160     21204     21205
     21162     21160     21204     21206     21162     21160     21204     21207
     21163     21166     21169     21170     21163     21166     21169     21171
     21163     21166     21169     21172     21164     21163     21166     21167
     21164     21163     21166     21168     21164     21163     21166     21169
     21165     21163     21166     21167     21165     21163     21166     21168
     21165     21163     21166     21169     21166     21169     21172     21173
     21166     21169     21172     21174     21166     21169     21172     21175
     21167     21166     21169     21170     21167     21166     21169     21171
     21167     21166     21169     21172     21168     21166     21169     21170
     21168     21166     21169     21171     21168     21166     21169     21172
     21169     21172     21175     21176     21169     21172     21175     21177
     21169     21172     21175     21178     21170     21169     21172     21173
     21170     21169     21172     21174     21170     21169     21172     21175
     21171     21169     21172     21173     21171     21169     21172     21174
     21171     21169     21172     21175     21172     21175     21178     21179
     21172     21175     21178     21180     21172     21175     21178     21181
     21173     21172     21175     21176     21173     21172     21175     21177
     21173     21172     21175     21178     21174     21172     21175     21176
     21174     21172     21175     21177     21174     21172     21175     21178
     21175     21178     21181     21182     21175     21178     21181     21183
     21176     21175     21178     21179     21176     21175     21178     21180
     21176     21175     21178     21181     21177     21175     21178     21179
     21177     21175     21178     21180     21177     21175     21178     21181
     21178     21181     21183     21184     21178     21181     21183     21185
     21179     21178     21181     21182     21179     21178     21181     21183
     21180     21178     21181     21182     21180     21178     21181     21183
     21181     21183     21185     21186     21181     21183     21185     21187
     21181     21183     21185     21188     21182     21181     21183     21184
     21182     21181     21183     21185     21183     21185     21188     21189
     21183     21185     21188     21190     21183     21185     21188     21191
     21184     21183     21185     21186     21184     21183     21185     21187
     21184     21183     21185     21188     21185     21188     21191     21192
     21185     21188     21191     21193     21185     21188     21191     21194
     21186     21185     21188     21189     21186     21185     21188     21190
     21186     21185     21188     21191     21187     21185     21188     21189
     21187     21185     21188     21190     21187     21185     21188     21191
     21188     21191     21194     21195     21188     21191     21194     21196
     21188     21191     21194     21197     21189     21188     21191     21192
     21189     21188     21191     21193     21189     21188     21191     21194
     21190     21188     21191     21192     21190     21188     21191     21193
     21190     21188     21191     21194     21191     21194     21197     21198
     21191     21194     21197     21199     21191     21194     21197     21200
     21192     21191     21194     21195     21192     21191     21194     21196
     21192     21191     21194     21197     21193     21191     21194     21195
     21193     21191     21194     21196     21193     21191     21194     21197
     21194     21197     21200     21201     21194     21197     21200     21202
     21194     21197     21200     21203     21195     21194     21197     21198
     21195     21194     21197     21199     21195     21194     21197     21200
     21196     21194     21197     21198     21196     21194     21197     21199
     21196     21194     21197     21200     21198     21197     21200     21201
     21198     21197     21200     21202     21198     21197     21200     21203
     21199     21197     21200     21201     21199     21197     21200     21202
     21199     21197     21200     21203     21204     21207     21210     21211
     21204     21207     21210     21212     21204     21207     21210     21213
     21205     21204     21207     21208     21205     21204     21207     21209
     21205     21204     21207     21210     21206     21204     21207     21208
     21206     21204     21207     21209     21206     21204     21207     21210
     21207     21210     21213     21214     21207     21210     21213     21215
     21207     21210     21213     21216     21208     21207     21210     21211
     21208     21207     21210     21212     21208     21207     21210     21213
     21209     21207     21210     21211     21209     21207     21210     21212
     21209     21207     21210     21213     21210     21213     21216     21217
     21210     21213     21216     21218     21210     21213     21216     21219
     21211     21210     21213     21214     21211     21210     21213     21215
     21211     21210     21213     21216     21212     21210     21213     21214
     21212     21210     21213     21215     21212     21210     21213     21216
     21213     21216     21219     21220     21213     21216     21219     21221
     21213     21216     21219     21222     21214     21213     21216     21217
     21214     21213     21216     21218     21214     21213     21216     21219
     21215     21213     21216     21217     21215     21213     21216     21218
     21215     21213     21216     21219     21216     21219     21222     21223
     21216     21219     21222     21224     21216     21219     21222     21225
     21217     21216     21219     21220     21217     21216     21219     21221
     21217     21216     21219     21222     21218     21216     21219     21220
     21218     21216     21219     21221     21218     21216     21219     21222
     21219     21222     21225     21226     21219     21222     21225     21227
     21219     21222     21225     21228     21220     21219     21222     21223
     21220     21219     21222     21224     21220     21219     21222     21225
     21221     21219     21222     21223     21221     21219     21222     21224
     21221     21219     21222     21225     21222     21225     21228     21229
     21222     21225     21228     21230     21222     21225     21228     21231
     21223     21222     21225     21226     21223     21222     21225     21227
     21223     21222     21225     21228     21224     21222     21225     21226
     21224     21222     21225     21227     21224     21222     21225     21228
     21225     21228     21231     21232     21225     21228     21231     21233
     21225     21228     21231     21234     21226     21225     21228     21229
     21226     21225     21228     21230     21226     21225     21228     21231
     21227     21225     21228     21229     21227     21225     21228     21230
     21227     21225     21228     21231     21228     21231     21234     21235
     21228     21231     21234     21236     21228     21231     21234     21237
     21229     21228     21231     21232     21229     21228     21231     21233
     21229     21228     21231     21234     21230     21228     21231     21232
     21230     21228     21231     21233     21230     21228     21231     21234
     21231     21234     21237     21238     21231     21234     21237     21239
     21231     21234     21237     21240     21232     21231     21234     21235
     21232     21231     21234     21236     21232     21231     21234     21237
     21233     21231     21234     21235     21233     21231     21234     21236
     21233     21231     21234     21237     21234     21237     21240     21241
     21234     21237     21240     21242     21234     21237     21240     21243
     21235     21234     21237     21238     21235     21234     21237     21239
     21235     21234     21237     21240     21236     21234     21237     21238
     21236     21234     21237     21239     21236     21234     21237     21240
     21237     21240     21243     21244     21237     21240     21243     21245
     21237     21240     21243     21246     21238     21237     21240     21241
     21238     21237     21240     21242     21238     21237     21240     21243
     21239     21237     21240     21241     21239     21237     21240     21242
     21239     21237     21240     21243     21241     21240     21243     21244
     21241     21240     21243     21245     21241     21240     21243     21246
     21242     21240     21243     21244     21242     21240     21243     21245
     21242     21240     21243     21246     21247     21251     21254     21255
     21247     21251     21254     21256     21247     21251     21254     21261
     21248     21247     21251     21252     21248     21247     21251     21253
     21248     21247     21251     21254     21249     21247     21251     21252
     21249     21247     21251     21253     21249     21247     21251     21254
     21250     21247     21251     21252     21250     21247     21251     21253
     21250     21247     21251     21254     21251     21254     21261     21257
     21252     21251     21254     21255     21252     21251     21254     21256
     21252     21251     21254     21261     21253     21251     21254     21255
     21253     21251     21254     21256     21253     21251     21254     21261
     21254     21261     21257     21258     21254     21261     21257     21259
     21254     21261     21257     21260     21255     21254     21261     21257
     21256     21254     21261     21257     21257     21260     21262     21263
     21257     21260     21262     21264     21257     21260     21262     21265
     21258     21257     21260     21262     21259     21257     21260     21262
     21260     21262     21265     21266     21260     21262     21265     21267
     21260     21262     21265     21273     21261     21257     21260     21262
     21262     21265     21267     21268     21262     21265     21273     21274
     21262     21265     21273     21275     21262     21265     21273     21276
     21263     21262     21265     21266     21263     21262     21265     21267
     21263     21262     21265     21273     21264     21262     21265     21266
     21264     21262     21265     21267     21264     21262     21265     21273
     21265     21267     21268     21269     21265     21267     21268     21270
     21265     21273     21276     21277     21266     21265     21267     21268
     21266     21265     21273     21274     21266     21265     21273     21275
     21266     21265     21273     21276     21267     21265     21273     21274
     21267     21265     21273     21275     21267     21265     21273     21276
     21267     21268     21270     21271     21267     21268     21270     21272
     21267     21268     21270     21282     21268     21267     21265     21273
     21268     21270     21282     21283     21268     21270     21282     21284
     21268     21270     21282     21285     21269     21268     21270     21271
     21269     21268     21270     21272     21269     21268     21270     21282
     21270     21282     21285     21286     21270     21282     21285     21287
     21270     21282     21285     21288     21271     21270     21282     21283
     21271     21270     21282     21284     21271     21270     21282     21285
     21272     21270     21282     21283     21272     21270     21282     21284
     21272     21270     21282     21285     21273     21276     21277     21278
     21273     21276     21277     21279     21274     21273     21276     21277
     21275     21273     21276     21277     21276     21277     21279     21280
     21276     21277     21279     21281     21276     21277     21279     21326
     21277     21279     21326     21327     21277     21279     21326     21328
     21277     21279     21326     21329     21278     21277     21279     21280
     21278     21277     21279     21281     21278     21277     21279     21326
     21279     21326     21329     21330     21279     21326     21329     21331
     21279     21326     21329     21332     21280     21279     21326     21327
     21280     21279     21326     21328     21280     21279     21326     21329
     21281     21279     21326     21327     21281     21279     21326     21328
     21281     21279     21326     21329     21282     21285     21288     21289
     21282     21285     21288     21290     21282     21285     21288     21291
     21283     21282     21285     21286     21283     21282     21285     21287
     21283     21282     21285     21288     21284     21282     21285     21286
     21284     21282     21285     21287     21284     21282     21285     21288
     21285     21288     21291     21292     21285     21288     21291     21293
     21285     21288     21291     21294     21286     21285     21288     21289
     21286     21285     21288     21290     21286     21285     21288     21291
     21287     21285     21288     21289     21287     21285     21288     21290
     21287     21285     21288     21291     21288     21291     21294     21295
     21288     21291     21294     21296     21288     21291     21294     21297
     21289     21288     21291     21292     21289     21288     21291     21293
     21289     21288     21291     21294     21290     21288     21291     21292
     21290     21288     21291     21293     21290     21288     21291     21294
     21291     21294     21297     21298     21291     21294     21297     21299
     21291     21294     21297     21300     21292     21291     21294     21295
     21292     21291     21294     21296     21292     21291     21294     21297
     21293     21291     21294     21295     21293     21291     21294     21296
     21293     21291     21294     21297     21294     21297     21300     21301
     21294     21297     21300     21302     21294     21297     21300     21305
     21295     21294     21297     21298     21295     21294     21297     21299
     21295     21294     21297     21300     21296     21294     21297     21298
     21296     21294     21297     21299     21296     21294     21297     21300
     21297     21300     21302     21303     21297     21300     21302     21304
     21297     21300     21302     21305     21297     21300     21305     21302
     21297     21300     21305     21306     21297     21300     21305     21307
     21298     21297     21300     21301     21298     21297     21300     21302
     21298     21297     21300     21305     21299     21297     21300     21301
     21299     21297     21300     21302     21299     21297     21300     21305
     21300     21302     21305     21306     21300     21302     21305     21307
     21300     21305     21302     21303     21300     21305     21302     21304
     21300     21305     21307     21308     21300     21305     21307     21309
     21300     21305     21307     21310     21301     21300     21302     21303
     21301     21300     21302     21304     21301     21300     21302     21305
     21301     21300     21305     21302     21301     21300     21305     21306
     21301     21300     21305     21307     21302     21300     21305     21306
     21302     21300     21305     21307     21302     21305     21307     21308
     21302     21305     21307     21309     21302     21305     21307     21310
     21303     21302     21300     21305     21303     21302     21305     21306
     21303     21302     21305     21307     21304     21302     21300     21305
     21304     21302     21305     21306     21304     21302     21305     21307
     21305     21307     21310     21311     21305     21307     21310     21312
     21305     21307     21310     21313     21306     21305     21307     21308
     21306     21305     21307     21309     21306     21305     21307     21310
     21307     21310     21313     21314     21307     21310     21313     21315
     21307     21310     21313     21316     21308     21307     21310     21311
     21308     21307     21310     21312     21308     21307     21310     21313
     21309     21307     21310     21311     21309     21307     21310     21312
     21309     21307     21310     21313     21310     21313     21316     21317
     21310     21313     21316     21318     21310     21313     21316     21319
     21311     21310     21313     21314     21311     21310     21313     21315
     21311     21310     21313     21316     21312     21310     21313     21314
     21312     21310     21313     21315     21312     21310     21313     21316
     21313     21316     21319     21320     21313     21316     21319     21321
     21313     21316     21319     21322     21314     21313     21316     21317
     21314     21313     21316     21318     21314     21313     21316     21319
     21315     21313     21316     21317     21315     21313     21316     21318
     21315     21313     21316     21319     21316     21319     21322     21323
     21316     21319     21322     21324     21316     21319     21322     21325
     21317     21316     21319     21320     21317     21316     21319     21321
     21317     21316     21319     21322     21318     21316     21319     21320
     21318     21316     21319     21321     21318     21316     21319     21322
     21320     21319     21322     21323     21320     21319     21322     21324
     21320     21319     21322     21325     21321     21319     21322     21323
     21321     21319     21322     21324     21321     21319     21322     21325
     21326     21329     21332     21333     21326     21329     21332     21334
     21326     21329     21332     21335     21327     21326     21329     21330
     21327     21326     21329     21331     21327     21326     21329     21332
     21328     21326     21329     21330     21328     21326     21329     21331
     21328     21326     21329     21332     21329     21332     21335     21336
     21329     21332     21335     21337     21329     21332     21335     21338
     21330     21329     21332     21333     21330     21329     21332     21334
     21330     21329     21332     21335     21331     21329     21332     21333
     21331     21329     21332     21334     21331     21329     21332     21335
     21332     21335     21338     21339     21332     21335     21338     21340
     21332     21335     21338     21341     21333     21332     21335     21336
     21333     21332     21335     21337     21333     21332     21335     21338
     21334     21332     21335     21336     21334     21332     21335     21337
     21334     21332     21335     21338     21335     21338     21341     21342
     21335     21338     21341     21343     21335     21338     21341     21344
     21336     21335     21338     21339     21336     21335     21338     21340
     21336     21335     21338     21341     21337     21335     21338     21339
     21337     21335     21338     21340     21337     21335     21338     21341
     21338     21341     21344     21345     21338     21341     21344     21346
     21338     21341     21344     21347     21339     21338     21341     21342
     21339     21338     21341     21343     21339     21338     21341     21344
     21340     21338     21341     21342     21340     21338     21341     21343
     21340     21338     21341     21344     21341     21344     21347     21348
     21341     21344     21347     21349     21341     21344     21347     21350
     21342     21341     21344     21345     21342     21341     21344     21346
     21342     21341     21344     21347     21343     21341     21344     21345
     21343     21341     21344     21346     21343     21341     21344     21347
     21344     21347     21350     21351     21344     21347     21350     21352
     21344     21347     21350     21353     21345     21344     21347     21348
     21345     21344     21347     21349     21345     21344     21347     21350
     21346     21344     21347     21348     21346     21344     21347     21349
     21346     21344     21347     21350     21347     21350     21353     21354
     21347     21350     21353     21355     21347     21350     21353     21356
     21348     21347     21350     21351     21348     21347     21350     21352
     21348     21347     21350     21353     21349     21347     21350     21351
     21349     21347     21350     21352     21349     21347     21350     21353
     21350     21353     21356     21357     21350     21353     21356     21358
     21350     21353     21356     21359     21351     21350     21353     21354
     21351     21350     21353     21355     21351     21350     21353     21356
     21352     21350     21353     21354     21352     21350     21353     21355
     21352     21350     21353     21356     21353     21356     21359     21360
     21353     21356     21359     21361     21353     21356     21359     21362
     21354     21353     21356     21357     21354     21353     21356     21358
     21354     21353     21356     21359     21355     21353     21356     21357
     21355     21353     21356     21358     21355     21353     21356     21359
     21356     21359     21362     21363     21356     21359     21362     21364
     21356     21359     21362     21365     21357     21356     21359     21360
     21357     21356     21359     21361     21357     21356     21359     21362
     21358     21356     21359     21360     21358     21356     21359     21361
     21358     21356     21359     21362     21359     21362     21365     21366
     21359     21362     21365     21367     21359     21362     21365     21368
     21360     21359     21362     21363     21360     21359     21362     21364
     21360     21359     21362     21365     21361     21359     21362     21363
     21361     21359     21362     21364     21361     21359     21362     21365
     21363     21362     21365     21366     21363     21362     21365     21367
     21363     21362     21365     21368     21364     21362     21365     21366
     21364     21362     21365     21367     21364     21362     21365     21368
     21369     21373     21376     21377     21369     21373     21376     21378
     21369     21373     21376     21383     21370     21369     21373     21374
     21370     21369     21373     21375     21370     21369     21373     21376
     21371     21369     21373     21374     21371     21369     21373     21375
     21371     21369     21373     21376     21372     21369     21373     21374
     21372     21369     21373     21375     21372     21369     21373     21376
     21373     21376     21383     21379     21374     21373     21376     21377
     21374     21373     21376     21378     21374     21373     21376     21383
     21375     21373     21376     21377     21375     21373     21376     21378
     21375     21373     21376     21383     21376     21383     21379     21380
     21376     21383     21379     21381     21376     21383     21379     21382
     21377     21376     21383     21379     21378     21376     21383     21379
     21379     21382     21384     21385     21379     21382     21384     21386
     21379     21382     21384     21387     21380     21379     21382     21384
     21381     21379     21382     21384     21382     21384     21387     21388
     21382     21384     21387     21389     21382     21384     21387     21395
     21383     21379     21382     21384     21384     21387     21389     21390
     21384     21387     21395     21396     21384     21387     21395     21397
     21384     21387     21395     21398     21385     21384     21387     21388
     21385     21384     21387     21389     21385     21384     21387     21395
     21386     21384     21387     21388     21386     21384     21387     21389
     21386     21384     21387     21395     21387     21389     21390     21391
     21387     21389     21390     21392     21387     21395     21398     21399
     21388     21387     21389     21390     21388     21387     21395     21396
     21388     21387     21395     21397     21388     21387     21395     21398
     21389     21387     21395     21396     21389     21387     21395     21397
     21389     21387     21395     21398     21389     21390     21392     21393
     21389     21390     21392     21394     21389     21390     21392     21404
     21390     21389     21387     21395     21390     21392     21404     21405
     21390     21392     21404     21406     21390     21392     21404     21407
     21391     21390     21392     21393     21391     21390     21392     21394
     21391     21390     21392     21404     21392     21404     21407     21408
     21392     21404     21407     21409     21392     21404     21407     21410
     21393     21392     21404     21405     21393     21392     21404     21406
     21393     21392     21404     21407     21394     21392     21404     21405
     21394     21392     21404     21406     21394     21392     21404     21407
     21395     21398     21399     21400     21395     21398     21399     21401
     21396     21395     21398     21399     21397     21395     21398     21399
     21398     21399     21401     21402     21398     21399     21401     21403
     21398     21399     21401     21448     21399     21401     21448     21449
     21399     21401     21448     21450     21399     21401     21448     21451
     21400     21399     21401     21402     21400     21399     21401     21403
     21400     21399     21401     21448     21401     21448     21451     21452
     21401     21448     21451     21453     21401     21448     21451     21454
     21402     21401     21448     21449     21402     21401     21448     21450
     21402     21401     21448     21451     21403     21401     21448     21449
     21403     21401     21448     21450     21403     21401     21448     21451
     21404     21407     21410     21411     21404     21407     21410     21412
     21404     21407     21410     21413     21405     21404     21407     21408
     21405     21404     21407     21409     21405     21404     21407     21410
     21406     21404     21407     21408     21406     21404     21407     21409
     21406     21404     21407     21410     21407     21410     21413     21414
     21407     21410     21413     21415     21407     21410     21413     21416
     21408     21407     21410     21411     21408     21407     21410     21412
     21408     21407     21410     21413     21409     21407     21410     21411
     21409     21407     21410     21412     21409     21407     21410     21413
     21410     21413     21416     21417     21410     21413     21416     21418
     21410     21413     21416     21419     21411     21410     21413     21414
     21411     21410     21413     21415     21411     21410     21413     21416
     21412     21410     21413     21414     21412     21410     21413     21415
     21412     21410     21413     21416     21413     21416     21419     21420
     21413     21416     21419     21421     21413     21416     21419     21422
     21414     21413     21416     21417     21414     21413     21416     21418
     21414     21413     21416     21419     21415     21413     21416     21417
     21415     21413     21416     21418     21415     21413     21416     21419
     21416     21419     21422     21423     21416     21419     21422     21424
     21416     21419     21422     21427     21417     21416     21419     21420
     21417     21416     21419     21421     21417     21416     21419     21422
     21418     21416     21419     21420     21418     21416     21419     21421
     21418     21416     21419     21422     21419     21422     21424     21425
     21419     21422     21424     21426     21419     21422     21424     21427
     21419     21422     21427     21424     21419     21422     21427     21428
     21419     21422     21427     21429     21420     21419     21422     21423
     21420     21419     21422     21424     21420     21419     21422     21427
     21421     21419     21422     21423     21421     21419     21422     21424
     21421     21419     21422     21427     21422     21424     21427     21428
     21422     21424     21427     21429     21422     21427     21424     21425
     21422     21427     21424     21426     21422     21427     21429     21430
     21422     21427     21429     21431     21422     21427     21429     21432
     21423     21422     21424     21425     21423     21422     21424     21426
     21423     21422     21424     21427     21423     21422     21427     21424
     21423     21422     21427     21428     21423     21422     21427     21429
     21424     21422     21427     21428     21424     21422     21427     21429
     21424     21427     21429     21430     21424     21427     21429     21431
     21424     21427     21429     21432     21425     21424     21422     21427
     21425     21424     21427     21428     21425     21424     21427     21429
     21426     21424     21422     21427     21426     21424     21427     21428
     21426     21424     21427     21429     21427     21429     21432     21433
     21427     21429     21432     21434     21427     21429     21432     21435
     21428     21427     21429     21430     21428     21427     21429     21431
     21428     21427     21429     21432     21429     21432     21435     21436
     21429     21432     21435     21437     21429     21432     21435     21438
     21430     21429     21432     21433     21430     21429     21432     21434
     21430     21429     21432     21435     21431     21429     21432     21433
     21431     21429     21432     21434     21431     21429     21432     21435
     21432     21435     21438     21439     21432     21435     21438     21440
     21432     21435     21438     21441     21433     21432     21435     21436
     21433     21432     21435     21437     21433     21432     21435     21438
     21434     21432     21435     21436     21434     21432     21435     21437
     21434     21432     21435     21438     21435     21438     21441     21442
     21435     21438     21441     21443     21435     21438     21441     21444
     21436     21435     21438     21439     21436     21435     21438     21440
     21436     21435     21438     21441     21437     21435     21438     21439
     21437     21435     21438     21440     21437     21435     21438     21441
     21438     21441     21444     21445     21438     21441     21444     21446
     21438     21441     21444     21447     21439     21438     21441     21442
     21439     21438     21441     21443     21439     21438     21441     21444
     21440     21438     21441     21442     21440     21438     21441     21443
     21440     21438     21441     21444     21442     21441     21444     21445
     21442     21441     21444     21446     21442     21441     21444     21447
     21443     21441     21444     21445     21443     21441     21444     21446
     21443     21441     21444     21447     21448     21451     21454     21455
     21448     21451     21454     21456     21448     21451     21454     21457
     21449     21448     21451     21452     21449     21448     21451     21453
     21449     21448     21451     21454     21450     21448     21451     21452
     21450     21448     21451     21453     21450     21448     21451     21454
     21451     21454     21457     21458     21451     21454     21457     21459
     21451     21454     21457     21460     21452     21451     21454     21455
     21452     21451     21454     21456     21452     21451     21454     21457
     21453     21451     21454     21455     21453     21451     21454     21456
     21453     21451     21454     21457     21454     21457     21460     21461
     21454     21457     21460     21462     21454     21457     21460     21463
     21455     21454     21457     21458     21455     21454     21457     21459
     21455     21454     21457     21460     21456     21454     21457     21458
     21456     21454     21457     21459     21456     21454     21457     21460
     21457     21460     21463     21464     21457     21460     21463     21465
     21457     21460     21463     21466     21458     21457     21460     21461
     21458     21457     21460     21462     21458     21457     21460     21463
     21459     21457     21460     21461     21459     21457     21460     21462
     21459     21457     21460     21463     21460     21463     21466     21467
     21460     21463     21466     21468     21460     21463     21466     21469
     21461     21460     21463     21464     21461     21460     21463     21465
     21461     21460     21463     21466     21462     21460     21463     21464
     21462     21460     21463     21465     21462     21460     21463     21466
     21463     21466     21469     21470     21463     21466     21469     21471
     21463     21466     21469     21472     21464     21463     21466     21467
     21464     21463     21466     21468     21464     21463     21466     21469
     21465     21463     21466     21467     21465     21463     21466     21468
     21465     21463     21466     21469     21466     21469     21472     21473
     21466     21469     21472     21474     21466     21469     21472     21475
     21467     21466     21469     21470     21467     21466     21469     21471
     21467     21466     21469     21472     21468     21466     21469     21470
     21468     21466     21469     21471     21468     21466     21469     21472
     21469     21472     21475     21476     21469     21472     21475     21477
     21469     21472     21475     21478     21470     21469     21472     21473
     21470     21469     21472     21474     21470     21469     21472     21475
     21471     21469     21472     21473     21471     21469     21472     21474
     21471     21469     21472     21475     21472     21475     21478     21479
     21472     21475     21478     21480     21472     21475     21478     21481
     21473     21472     21475     21476     21473     21472     21475     21477
     21473     21472     21475     21478     21474     21472     21475     21476
     21474     21472     21475     21477     21474     21472     21475     21478
     21475     21478     21481     21482     21475     21478     21481     21483
     21475     21478     21481     21484     21476     21475     21478     21479
     21476     21475     21478     21480     21476     21475     21478     21481
     21477     21475     21478     21479     21477     21475     21478     21480
     21477     21475     21478     21481     21478     21481     21484     21485
     21478     21481     21484     21486     21478     21481     21484     21487
     21479     21478     21481     21482     21479     21478     21481     21483
     21479     21478     21481     21484     21480     21478     21481     21482
     21480     21478     21481     21483     21480     21478     21481     21484
     21481     21484     21487     21488     21481     21484     21487     21489
     21481     21484     21487     21490     21482     21481     21484     21485
     21482     21481     21484     21486     21482     21481     21484     21487
     21483     21481     21484     21485     21483     21481     21484     21486
     21483     21481     21484     21487     21485     21484     21487     21488
     21485     21484     21487     21489     21485     21484     21487     21490
     21486     21484     21487     21488     21486     21484     21487     21489
     21486     21484     21487     21490     21491     21495     21498     21499
     21491     21495     21498     21500     21491     21495     21498     21505
     21492     21491     21495     21496     21492     21491     21495     21497
     21492     21491     21495     21498     21493     21491     21495     21496
     21493     21491     21495     21497     21493     21491     21495     21498
     21494     21491     21495     21496     21494     21491     21495     21497
     21494     21491     21495     21498     21495     21498     21505     21501
     21496     21495     21498     21499     21496     21495     21498     21500
     21496     21495     21498     21505     21497     21495     21498     21499
     21497     21495     21498     21500     21497     21495     21498     21505
     21498     21505     21501     21502     21498     21505     21501     21503
     21498     21505     21501     21504     21499     21498     21505     21501
     21500     21498     21505     21501     21501     21504     21506     21507
     21501     21504     21506     21508     21501     21504     21506     21509
     21502     21501     21504     21506     21503     21501     21504     21506
     21504     21506     21509     21510     21504     21506     21509     21511
     21504     21506     21509     21517     21505     21501     21504     21506
     21506     21509     21511     21512     21506     21509     21517     21518
     21506     21509     21517     21519     21506     21509     21517     21520
     21507     21506     21509     21510     21507     21506     21509     21511
     21507     21506     21509     21517     21508     21506     21509     21510
     21508     21506     21509     21511     21508     21506     21509     21517
     21509     21511     21512     21513     21509     21511     21512     21514
     21509     21517     21520     21521     21510     21509     21511     21512
     21510     21509     21517     21518     21510     21509     21517     21519
     21510     21509     21517     21520     21511     21509     21517     21518
     21511     21509     21517     21519     21511     21509     21517     21520
     21511     21512     21514     21515     21511     21512     21514     21516
     21511     21512     21514     21526     21512     21511     21509     21517
     21512     21514     21526     21527     21512     21514     21526     21528
     21512     21514     21526     21529     21513     21512     21514     21515
     21513     21512     21514     21516     21513     21512     21514     21526
     21514     21526     21529     21530     21514     21526     21529     21531
     21514     21526     21529     21532     21515     21514     21526     21527
     21515     21514     21526     21528     21515     21514     21526     21529
     21516     21514     21526     21527     21516     21514     21526     21528
     21516     21514     21526     21529     21517     21520     21521     21522
     21517     21520     21521     21523     21518     21517     21520     21521
     21519     21517     21520     21521     21520     21521     21523     21524
     21520     21521     21523     21525     21520     21521     21523     21573
     21521     21523     21573     21574     21521     21523     21573     21575
     21521     21523     21573     21576     21522     21521     21523     21524
     21522     21521     21523     21525     21522     21521     21523     21573
     21523     21573     21576     21577     21523     21573     21576     21578
     21523     21573     21576     21579     21524     21523     21573     21574
     21524     21523     21573     21575     21524     21523     21573     21576
     21525     21523     21573     21574     21525     21523     21573     21575
     21525     21523     21573     21576     21526     21529     21532     21533
     21526     21529     21532     21534     21526     21529     21532     21535
     21527     21526     21529     21530     21527     21526     21529     21531
     21527     21526     21529     21532     21528     21526     21529     21530
     21528     21526     21529     21531     21528     21526     21529     21532
     21529     21532     21535     21536     21529     21532     21535     21537
     21529     21532     21535     21538     21530     21529     21532     21533
     21530     21529     21532     21534     21530     21529     21532     21535
     21531     21529     21532     21533     21531     21529     21532     21534
     21531     21529     21532     21535     21532     21535     21538     21539
     21532     21535     21538     21540     21532     21535     21538     21541
     21533     21532     21535     21536     21533     21532     21535     21537
     21533     21532     21535     21538     21534     21532     21535     21536
     21534     21532     21535     21537     21534     21532     21535     21538
     21535     21538     21541     21542     21535     21538     21541     21543
     21535     21538     21541     21544     21536     21535     21538     21539
     21536     21535     21538     21540     21536     21535     21538     21541
     21537     21535     21538     21539     21537     21535     21538     21540
     21537     21535     21538     21541     21538     21541     21544     21545
     21538     21541     21544     21546     21539     21538     21541     21542
     21539     21538     21541     21543     21539     21538     21541     21544
     21540     21538     21541     21542     21540     21538     21541     21543
     21540     21538     21541     21544     21541     21544     21546     21547
     21541     21544     21546     21548     21542     21541     21544     21545
     21542     21541     21544     21546     21543     21541     21544     21545
     21543     21541     21544     21546     21544     21546     21548     21549
     21544     21546     21548     21550     21544     21546     21548     21551
     21545     21544     21546     21547     21545     21544     21546     21548
     21546     21548     21551     21552     21546     21548     21551     21553
     21546     21548     21551     21554     21547     21546     21548     21549
     21547     21546     21548     21550     21547     21546     21548     21551
     21548     21551     21554     21555     21548     21551     21554     21556
     21548     21551     21554     21557     21549     21548     21551     21552
     21549     21548     21551     21553     21549     21548     21551     21554
     21550     21548     21551     21552     21550     21548     21551     21553
     21550     21548     21551     21554     21551     21554     21557     21558
     21551     21554     21557     21559     21551     21554     21557     21560
     21552     21551     21554     21555     21552     21551     21554     21556
     21552     21551     21554     21557     21553     21551     21554     21555
     21553     21551     21554     21556     21553     21551     21554     21557
     21554     21557     21560     21561     21554     21557     21560     21562
     21554     21557     21560     21563     21555     21554     21557     21558
     21555     21554     21557     21559     21555     21554     21557     21560
     21556     21554     21557     21558     21556     21554     21557     21559
     21556     21554     21557     21560     21557     21560     21563     21564
     21557     21560     21563     21565     21557     21560     21563     21566
     21558     21557     21560     21561     21558     21557     21560     21562
     21558     21557     21560     21563     21559     21557     21560     21561
     21559     21557     21560     21562     21559     21557     21560     21563
     21560     21563     21566     21567     21560     21563     21566     21568
     21560     21563     21566     21569     21561     21560     21563     21564
     21561     21560     21563     21565     21561     21560     21563     21566
     21562     21560     21563     21564     21562     21560     21563     21565
     21562     21560     21563     21566     21563     21566     21569     21570
     21563     21566     21569     21571     21563     21566     21569     21572
     21564     21563     21566     21567     21564     21563     21566     21568
     21564     21563     21566     21569     21565     21563     21566     21567
     21565     21563     21566     21568     21565     21563     21566     21569
     21567     21566     21569     21570     21567     21566     21569     21571
     21567     21566     21569     21572     21568     21566     21569     21570
     21568     21566     21569     21571     21568     21566     21569     21572
     21573     21576     21579     21580     21573     21576     21579     21581
     21573     21576     21579     21582     21574     21573     21576     21577
     21574     21573     21576     21578     21574     21573     21576     21579
     21575     21573     21576     21577     21575     21573     21576     21578
     21575     21573     21576     21579     21576     21579     21582     21583
     21576     21579     21582     21584     21576     21579     21582     21585
     21577     21576     21579     21580     21577     21576     21579     21581
     21577     21576     21579     21582     21578     21576     21579     21580
     21578     21576     21579     21581     21578     21576     21579     21582
     21579     21582     21585     21586     21579     21582     21585     21587
     21579     21582     21585     21588     21580     21579     21582     21583
     21580     21579     21582     21584     21580     21579     21582     21585
     21581     21579     21582     21583     21581     21579     21582     21584
     21581     21579     21582     21585     21582     21585     21588     21589
     21582     21585     21588     21590     21582     21585     21588     21591
     21583     21582     21585     21586     21583     21582     21585     21587
     21583     21582     21585     21588     21584     21582     21585     21586
     21584     21582     21585     21587     21584     21582     21585     21588
     21585     21588     21591     21592     21585     21588     21591     21593
     21585     21588     21591     21594     21586     21585     21588     21589
     21586     21585     21588     21590     21586     21585     21588     21591
     21587     21585     21588     21589     21587     21585     21588     21590
     21587     21585     21588     21591     21588     21591     21594     21595
     21588     21591     21594     21596     21588     21591     21594     21597
     21589     21588     21591     21592     21589     21588     21591     21593
     21589     21588     21591     21594     21590     21588     21591     21592
     21590     21588     21591     21593     21590     21588     21591     21594
     21591     21594     21597     21598     21591     21594     21597     21599
     21591     21594     21597     21600     21592     21591     21594     21595
     21592     21591     21594     21596     21592     21591     21594     21597
     21593     21591     21594     21595     21593     21591     21594     21596
     21593     21591     21594     21597     21594     21597     21600     21601
     21594     21597     21600     21602     21594     21597     21600     21603
     21595     21594     21597     21598     21595     21594     21597     21599
     21595     21594     21597     21600     21596     21594     21597     21598
     21596     21594     21597     21599     21596     21594     21597     21600
     21597     21600     21603     21604     21597     21600     21603     21605
     21597     21600     21603     21606     21598     21597     21600     21601
     21598     21597     21600     21602     21598     21597     21600     21603
     21599     21597     21600     21601     21599     21597     21600     21602
     21599     21597     21600     21603     21600     21603     21606     21607
     21600     21603     21606     21608     21600     21603     21606     21609
     21601     21600     21603     21604     21601     21600     21603     21605
     21601     21600     21603     21606     21602     21600     21603     21604
     21602     21600     21603     21605     21602     21600     21603     21606
     21603     21606     21609     21610     21603     21606     21609     21611
     21603     21606     21609     21612     21604     21603     21606     21607
     21604     21603     21606     21608     21604     21603     21606     21609
     21605     21603     21606     21607     21605     21603     21606     21608
     21605     21603     21606     21609     21606     21609     21612     21613
     21606     21609     21612     21614     21606     21609     21612     21615
     21607     21606     21609     21610     21607     21606     21609     21611
     21607     21606     21609     21612     21608     21606     21609     21610
     21608     21606     21609     21611     21608     21606     21609     21612
     21610     21609     21612     21613     21610     21609     21612     21614
     21610     21609     21612     21615     21611     21609     21612     21613
     21611     21609     21612     21614     21611     21609     21612     21615
     21616     21620     21623     21624     21616     21620     21623     21625
     21616     21620     21623     21630     21617     21616     21620     21621
     21617     21616     21620     21622     21617     21616     21620     21623
     21618     21616     21620     21621     21618     21616     21620     21622
     21618     21616     21620     21623     21619     21616     21620     21621
     21619     21616     21620     21622     21619     21616     21620     21623
     21620     21623     21630     21626     21621     21620     21623     21624
     21621     21620     21623     21625     21621     21620     21623     21630
     21622     21620     21623     21624     21622     21620     21623     21625
     21622     21620     21623     21630     21623     21630     21626     21627
     21623     21630     21626     21628     21623     21630     21626     21629
     21624     21623     21630     21626     21625     21623     21630     21626
     21626     21629     21631     21632     21626     21629     21631     21633
     21626     21629     21631     21634     21627     21626     21629     21631
     21628     21626     21629     21631     21629     21631     21634     21635
     21629     21631     21634     21636     21629     21631     21634     21642
     21630     21626     21629     21631     21631     21634     21636     21637
     21631     21634     21642     21643     21631     21634     21642     21644
     21631     21634     21642     21645     21632     21631     21634     21635
     21632     21631     21634     21636     21632     21631     21634     21642
     21633     21631     21634     21635     21633     21631     21634     21636
     21633     21631     21634     21642     21634     21636     21637     21638
     21634     21636     21637     21639     21634     21642     21645     21646
     21635     21634     21636     21637     21635     21634     21642     21643
     21635     21634     21642     21644     21635     21634     21642     21645
     21636     21634     21642     21643     21636     21634     21642     21644
     21636     21634     21642     21645     21636     21637     21639     21640
     21636     21637     21639     21641     21636     21637     21639     21651
     21637     21636     21634     21642     21637     21639     21651     21652
     21637     21639     21651     21653     21637     21639     21651     21654
     21638     21637     21639     21640     21638     21637     21639     21641
     21638     21637     21639     21651     21639     21651     21654     21655
     21639     21651     21654     21656     21639     21651     21654     21657
     21640     21639     21651     21652     21640     21639     21651     21653
     21640     21639     21651     21654     21641     21639     21651     21652
     21641     21639     21651     21653     21641     21639     21651     21654
     21642     21645     21646     21647     21642     21645     21646     21648
     21643     21642     21645     21646     21644     21642     21645     21646
     21645     21646     21648     21649     21645     21646     21648     21650
     21645     21646     21648     21698     21646     21648     21698     21699
     21646     21648     21698     21700     21646     21648     21698     21701
     21647     21646     21648     21649     21647     21646     21648     21650
     21647     21646     21648     21698     21648     21698     21701     21702
     21648     21698     21701     21703     21648     21698     21701     21704
     21649     21648     21698     21699     21649     21648     21698     21700
     21649     21648     21698     21701     21650     21648     21698     21699
     21650     21648     21698     21700     21650     21648     21698     21701
     21651     21654     21657     21658     21651     21654     21657     21659
     21651     21654     21657     21660     21652     21651     21654     21655
     21652     21651     21654     21656     21652     21651     21654     21657
     21653     21651     21654     21655     21653     21651     21654     21656
     21653     21651     21654     21657     21654     21657     21660     21661
     21654     21657     21660     21662     21654     21657     21660     21663
     21655     21654     21657     21658     21655     21654     21657     21659
     21655     21654     21657     21660     21656     21654     21657     21658
     21656     21654     21657     21659     21656     21654     21657     21660
     21657     21660     21663     21664     21657     21660     21663     21665
     21657     21660     21663     21666     21658     21657     21660     21661
     21658     21657     21660     21662     21658     21657     21660     21663
     21659     21657     21660     21661     21659     21657     21660     21662
     21659     21657     21660     21663     21660     21663     21666     21667
     21660     21663     21666     21668     21660     21663     21666     21669
     21661     21660     21663     21664     21661     21660     21663     21665
     21661     21660     21663     21666     21662     21660     21663     21664
     21662     21660     21663     21665     21662     21660     21663     21666
     21663     21666     21669     21670     21663     21666     21669     21671
     21664     21663     21666     21667     21664     21663     21666     21668
     21664     21663     21666     21669     21665     21663     21666     21667
     21665     21663     21666     21668     21665     21663     21666     21669
     21666     21669     21671     21672     21666     21669     21671     21673
     21667     21666     21669     21670     21667     21666     21669     21671
     21668     21666     21669     21670     21668     21666     21669     21671
     21669     21671     21673     21674     21669     21671     21673     21675
     21669     21671     21673     21676     21670     21669     21671     21672
     21670     21669     21671     21673     21671     21673     21676     21677
     21671     21673     21676     21678     21671     21673     21676     21679
     21672     21671     21673     21674     21672     21671     21673     21675
     21672     21671     21673     21676     21673     21676     21679     21680
     21673     21676     21679     21681     21673     21676     21679     21682
     21674     21673     21676     21677     21674     21673     21676     21678
     21674     21673     21676     21679     21675     21673     21676     21677
     21675     21673     21676     21678     21675     21673     21676     21679
     21676     21679     21682     21683     21676     21679     21682     21684
     21676     21679     21682     21685     21677     21676     21679     21680
     21677     21676     21679     21681     21677     21676     21679     21682
     21678     21676     21679     21680     21678     21676     21679     21681
     21678     21676     21679     21682     21679     21682     21685     21686
     21679     21682     21685     21687     21679     21682     21685     21688
     21680     21679     21682     21683     21680     21679     21682     21684
     21680     21679     21682     21685     21681     21679     21682     21683
     21681     21679     21682     21684     21681     21679     21682     21685
     21682     21685     21688     21689     21682     21685     21688     21690
     21682     21685     21688     21691     21683     21682     21685     21686
     21683     21682     21685     21687     21683     21682     21685     21688
     21684     21682     21685     21686     21684     21682     21685     21687
     21684     21682     21685     21688     21685     21688     21691     21692
     21685     21688     21691     21693     21685     21688     21691     21694
     21686     21685     21688     21689     21686     21685     21688     21690
     21686     21685     21688     21691     21687     21685     21688     21689
     21687     21685     21688     21690     21687     21685     21688     21691
     21688     21691     21694     21695     21688     21691     21694     21696
     21688     21691     21694     21697     21689     21688     21691     21692
     21689     21688     21691     21693     21689     21688     21691     21694
     21690     21688     21691     21692     21690     21688     21691     21693
     21690     21688     21691     21694     21692     21691     21694     21695
     21692     21691     21694     21696     21692     21691     21694     21697
     21693     21691     21694     21695     21693     21691     21694     21696
     21693     21691     21694     21697     21698     21701     21704     21705
     21698     21701     21704     21706     21698     21701     21704     21707
     21699     21698     21701     21702     21699     21698     21701     21703
     21699     21698     21701     21704     21700     21698     21701     21702
     21700     21698     21701     21703     21700     21698     21701     21704
     21701     21704     21707     21708     21701     21704     21707     21709
     21701     21704     21707     21710     21702     21701     21704     21705
     21702     21701     21704     21706     21702     21701     21704     21707
     21703     21701     21704     21705     21703     21701     21704     21706
     21703     21701     21704     21707     21704     21707     21710     21711
     21704     21707     21710     21712     21704     21707     21710     21713
     21705     21704     21707     21708     21705     21704     21707     21709
     21705     21704     21707     21710     21706     21704     21707     21708
     21706     21704     21707     21709     21706     21704     21707     21710
     21707     21710     21713     21714     21707     21710     21713     21715
     21707     21710     21713     21716     21708     21707     21710     21711
     21708     21707     21710     21712     21708     21707     21710     21713
     21709     21707     21710     21711     21709     21707     21710     21712
     21709     21707     21710     21713     21710     21713     21716     21717
     21710     21713     21716     21718     21710     21713     21716     21719
     21711     21710     21713     21714     21711     21710     21713     21715
     21711     21710     21713     21716     21712     21710     21713     21714
     21712     21710     21713     21715     21712     21710     21713     21716
     21713     21716     21719     21720     21713     21716     21719     21721
     21713     21716     21719     21722     21714     21713     21716     21717
     21714     21713     21716     21718     21714     21713     21716     21719
     21715     21713     21716     21717     21715     21713     21716     21718
     21715     21713     21716     21719     21716     21719     21722     21723
     21716     21719     21722     21724     21716     21719     21722     21725
     21717     21716     21719     21720     21717     21716     21719     21721
     21717     21716     21719     21722     21718     21716     21719     21720
     21718     21716     21719     21721     21718     21716     21719     21722
     21719     21722     21725     21726     21719     21722     21725     21727
     21719     21722     21725     21728     21720     21719     21722     21723
     21720     21719     21722     21724     21720     21719     21722     21725
     21721     21719     21722     21723     21721     21719     21722     21724
     21721     21719     21722     21725     21722     21725     21728     21729
     21722     21725     21728     21730     21722     21725     21728     21731
     21723     21722     21725     21726     21723     21722     21725     21727
     21723     21722     21725     21728     21724     21722     21725     21726
     21724     21722     21725     21727     21724     21722     21725     21728
     21725     21728     21731     21732     21725     21728     21731     21733
     21725     21728     21731     21734     21726     21725     21728     21729
     21726     21725     21728     21730     21726     21725     21728     21731
     21727     21725     21728     21729     21727     21725     21728     21730
     21727     21725     21728     21731     21728     21731     21734     21735
     21728     21731     21734     21736     21728     21731     21734     21737
     21729     21728     21731     21732     21729     21728     21731     21733
     21729     21728     21731     21734     21730     21728     21731     21732
     21730     21728     21731     21733     21730     21728     21731     21734
     21731     21734     21737     21738     21731     21734     21737     21739
     21731     21734     21737     21740     21732     21731     21734     21735
     21732     21731     21734     21736     21732     21731     21734     21737
     21733     21731     21734     21735     21733     21731     21734     21736
     21733     21731     21734     21737     21735     21734     21737     21738
     21735     21734     21737     21739     21735     21734     21737     21740
     21736     21734     21737     21738     21736     21734     21737     21739
     21736     21734     21737     21740     21741     21745     21748     21749
     21741     21745     21748     21750     21741     21745     21748     21755
     21742     21741     21745     21746     21742     21741     21745     21747
     21742     21741     21745     21748     21743     21741     21745     21746
     21743     21741     21745     21747     21743     21741     21745     21748
     21744     21741     21745     21746     21744     21741     21745     21747
     21744     21741     21745     21748     21745     21748     21755     21751
     21746     21745     21748     21749     21746     21745     21748     21750
     21746     21745     21748     21755     21747     21745     21748     21749
     21747     21745     21748     21750     21747     21745     21748     21755
     21748     21755     21751     21752     21748     21755     21751     21753
     21748     21755     21751     21754     21749     21748     21755     21751
     21750     21748     21755     21751     21751     21754     21756     21757
     21751     21754     21756     21758     21751     21754     21756     21759
     21752     21751     21754     21756     21753     21751     21754     21756
     21754     21756     21759     21760     21754     21756     21759     21761
     21754     21756     21759     21767     21755     21751     21754     21756
     21756     21759     21761     21762     21756     21759     21767     21768
     21756     21759     21767     21769     21756     21759     21767     21770
     21757     21756     21759     21760     21757     21756     21759     21761
     21757     21756     21759     21767     21758     21756     21759     21760
     21758     21756     21759     21761     21758     21756     21759     21767
     21759     21761     21762     21763     21759     21761     21762     21764
     21759     21767     21770     21771     21760     21759     21761     21762
     21760     21759     21767     21768     21760     21759     21767     21769
     21760     21759     21767     21770     21761     21759     21767     21768
     21761     21759     21767     21769     21761     21759     21767     21770
     21761     21762     21764     21765     21761     21762     21764     21766
     21761     21762     21764     21776     21762     21761     21759     21767
     21762     21764     21776     21777     21762     21764     21776     21778
     21762     21764     21776     21779     21763     21762     21764     21765
     21763     21762     21764     21766     21763     21762     21764     21776
     21764     21776     21779     21780     21764     21776     21779     21781
     21764     21776     21779     21782     21765     21764     21776     21777
     21765     21764     21776     21778     21765     21764     21776     21779
     21766     21764     21776     21777     21766     21764     21776     21778
     21766     21764     21776     21779     21767     21770     21771     21772
     21767     21770     21771     21773     21768     21767     21770     21771
     21769     21767     21770     21771     21770     21771     21773     21774
     21770     21771     21773     21775     21770     21771     21773     21820
     21771     21773     21820     21821     21771     21773     21820     21822
     21771     21773     21820     21823     21772     21771     21773     21774
     21772     21771     21773     21775     21772     21771     21773     21820
     21773     21820     21823     21824     21773     21820     21823     21825
     21773     21820     21823     21826     21774     21773     21820     21821
     21774     21773     21820     21822     21774     21773     21820     21823
     21775     21773     21820     21821     21775     21773     21820     21822
     21775     21773     21820     21823     21776     21779     21782     21783
     21776     21779     21782     21784     21776     21779     21782     21785
     21777     21776     21779     21780     21777     21776     21779     21781
     21777     21776     21779     21782     21778     21776     21779     21780
     21778     21776     21779     21781     21778     21776     21779     21782
     21779     21782     21785     21786     21779     21782     21785     21787
     21779     21782     21785     21788     21780     21779     21782     21783
     21780     21779     21782     21784     21780     21779     21782     21785
     21781     21779     21782     21783     21781     21779     21782     21784
     21781     21779     21782     21785     21782     21785     21788     21789
     21782     21785     21788     21790     21782     21785     21788     21791
     21783     21782     21785     21786     21783     21782     21785     21787
     21783     21782     21785     21788     21784     21782     21785     21786
     21784     21782     21785     21787     21784     21782     21785     21788
     21785     21788     21791     21792     21785     21788     21791     21793
     21785     21788     21791     21794     21786     21785     21788     21789
     21786     21785     21788     21790     21786     21785     21788     21791
     21787     21785     21788     21789     21787     21785     21788     21790
     21787     21785     21788     21791     21788     21791     21794     21795
     21788     21791     21794     21796     21788     21791     21794     21799
     21789     21788     21791     21792     21789     21788     21791     21793
     21789     21788     21791     21794     21790     21788     21791     21792
     21790     21788     21791     21793     21790     21788     21791     21794
     21791     21794     21796     21797     21791     21794     21796     21798
     21791     21794     21796     21799     21791     21794     21799     21796
     21791     21794     21799     21800     21791     21794     21799     21801
     21792     21791     21794     21795     21792     21791     21794     21796
     21792     21791     21794     21799     21793     21791     21794     21795
     21793     21791     21794     21796     21793     21791     21794     21799
     21794     21796     21799     21800     21794     21796     21799     21801
     21794     21799     21796     21797     21794     21799     21796     21798
     21794     21799     21801     21802     21794     21799     21801     21803
     21794     21799     21801     21804     21795     21794     21796     21797
     21795     21794     21796     21798     21795     21794     21796     21799
     21795     21794     21799     21796     21795     21794     21799     21800
     21795     21794     21799     21801     21796     21794     21799     21800
     21796     21794     21799     21801     21796     21799     21801     21802
     21796     21799     21801     21803     21796     21799     21801     21804
     21797     21796     21794     21799     21797     21796     21799     21800
     21797     21796     21799     21801     21798     21796     21794     21799
     21798     21796     21799     21800     21798     21796     21799     21801
     21799     21801     21804     21805     21799     21801     21804     21806
     21799     21801     21804     21807     21800     21799     21801     21802
     21800     21799     21801     21803     21800     21799     21801     21804
     21801     21804     21807     21808     21801     21804     21807     21809
     21801     21804     21807     21810     21802     21801     21804     21805
     21802     21801     21804     21806     21802     21801     21804     21807
     21803     21801     21804     21805     21803     21801     21804     21806
     21803     21801     21804     21807     21804     21807     21810     21811
     21804     21807     21810     21812     21804     21807     21810     21813
     21805     21804     21807     21808     21805     21804     21807     21809
     21805     21804     21807     21810     21806     21804     21807     21808
     21806     21804     21807     21809     21806     21804     21807     21810
     21807     21810     21813     21814     21807     21810     21813     21815
     21807     21810     21813     21816     21808     21807     21810     21811
     21808     21807     21810     21812     21808     21807     21810     21813
     21809     21807     21810     21811     21809     21807     21810     21812
     21809     21807     21810     21813     21810     21813     21816     21817
     21810     21813     21816     21818     21810     21813     21816     21819
     21811     21810     21813     21814     21811     21810     21813     21815
     21811     21810     21813     21816     21812     21810     21813     21814
     21812     21810     21813     21815     21812     21810     21813     21816
     21814     21813     21816     21817     21814     21813     21816     21818
     21814     21813     21816     21819     21815     21813     21816     21817
     21815     21813     21816     21818     21815     21813     21816     21819
     21820     21823     21826     21827     21820     21823     21826     21828
     21820     21823     21826     21829     21821     21820     21823     21824
     21821     21820     21823     21825     21821     21820     21823     21826
     21822     21820     21823     21824     21822     21820     21823     21825
     21822     21820     21823     21826     21823     21826     21829     21830
     21823     21826     21829     21831     21823     21826     21829     21832
     21824     21823     21826     21827     21824     21823     21826     21828
     21824     21823     21826     21829     21825     21823     21826     21827
     21825     21823     21826     21828     21825     21823     21826     21829
     21826     21829     21832     21833     21826     21829     21832     21834
     21826     21829     21832     21835     21827     21826     21829     21830
     21827     21826     21829     21831     21827     21826     21829     21832
     21828     21826     21829     21830     21828     21826     21829     21831
     21828     21826     21829     21832     21829     21832     21835     21836
     21829     21832     21835     21837     21829     21832     21835     21838
     21830     21829     21832     21833     21830     21829     21832     21834
     21830     21829     21832     21835     21831     21829     21832     21833
     21831     21829     21832     21834     21831     21829     21832     21835
     21832     21835     21838     21839     21832     21835     21838     21840
     21832     21835     21838     21841     21833     21832     21835     21836
     21833     21832     21835     21837     21833     21832     21835     21838
     21834     21832     21835     21836     21834     21832     21835     21837
     21834     21832     21835     21838     21835     21838     21841     21842
     21835     21838     21841     21843     21835     21838     21841     21844
     21836     21835     21838     21839     21836     21835     21838     21840
     21836     21835     21838     21841     21837     21835     21838     21839
     21837     21835     21838     21840     21837     21835     21838     21841
     21838     21841     21844     21845     21838     21841     21844     21846
     21838     21841     21844     21847     21839     21838     21841     21842
     21839     21838     21841     21843     21839     21838     21841     21844
     21840     21838     21841     21842     21840     21838     21841     21843
     21840     21838     21841     21844     21841     21844     21847     21848
     21841     21844     21847     21849     21841     21844     21847     21850
     21842     21841     21844     21845     21842     21841     21844     21846
     21842     21841     21844     21847     21843     21841     21844     21845
     21843     21841     21844     21846     21843     21841     21844     21847
     21844     21847     21850     21851     21844     21847     21850     21852
     21844     21847     21850     21853     21845     21844     21847     21848
     21845     21844     21847     21849     21845     21844     21847     21850
     21846     21844     21847     21848     21846     21844     21847     21849
     21846     21844     21847     21850     21847     21850     21853     21854
     21847     21850     21853     21855     21847     21850     21853     21856
     21848     21847     21850     21851     21848     21847     21850     21852
     21848     21847     21850     21853     21849     21847     21850     21851
     21849     21847     21850     21852     21849     21847     21850     21853
     21850     21853     21856     21857     21850     21853     21856     21858
     21850     21853     21856     21859     21851     21850     21853     21854
     21851     21850     21853     21855     21851     21850     21853     21856
     21852     21850     21853     21854     21852     21850     21853     21855
     21852     21850     21853     21856     21853     21856     21859     21860
     21853     21856     21859     21861     21853     21856     21859     21862
     21854     21853     21856     21857     21854     21853     21856     21858
     21854     21853     21856     21859     21855     21853     21856     21857
     21855     21853     21856     21858     21855     21853     21856     21859
     21857     21856     21859     21860     21857     21856     21859     21861
     21857     21856     21859     21862     21858     21856     21859     21860
     21858     21856     21859     21861     21858     21856     21859     21862
     21863     21867     21870     21871     21863     21867     21870     21872
     21863     21867     21870     21877     21864     21863     21867     21868
     21864     21863     21867     21869     21864     21863     21867     21870
     21865     21863     21867     21868     21865     21863     21867     21869
     21865     21863     21867     21870     21866     21863     21867     21868
     21866     21863     21867     21869     21866     21863     21867     21870
     21867     21870     21877     21873     21868     21867     21870     21871
     21868     21867     21870     21872     21868     21867     21870     21877
     21869     21867     21870     21871     21869     21867     21870     21872
     21869     21867     21870     21877     21870     21877     21873     21874
     21870     21877     21873     21875     21870     21877     21873     21876
     21871     21870     21877     21873     21872     21870     21877     21873
     21873     21876     21878     21879     21873     21876     21878     21880
     21873     21876     21878     21881     21874     21873     21876     21878
     21875     21873     21876     21878     21876     21878     21881     21882
     21876     21878     21881     21883     21876     21878     21881     21889
     21877     21873     21876     21878     21878     21881     21883     21884
     21878     21881     21889     21890     21878     21881     21889     21891
     21878     21881     21889     21892     21879     21878     21881     21882
     21879     21878     21881     21883     21879     21878     21881     21889
     21880     21878     21881     21882     21880     21878     21881     21883
     21880     21878     21881     21889     21881     21883     21884     21885
     21881     21883     21884     21886     21881     21889     21892     21893
     21882     21881     21883     21884     21882     21881     21889     21890
     21882     21881     21889     21891     21882     21881     21889     21892
     21883     21881     21889     21890     21883     21881     21889     21891
     21883     21881     21889     21892     21883     21884     21886     21887
     21883     21884     21886     21888     21883     21884     21886     21898
     21884     21883     21881     21889     21884     21886     21898     21899
     21884     21886     21898     21900     21884     21886     21898     21901
     21885     21884     21886     21887     21885     21884     21886     21888
     21885     21884     21886     21898     21886     21898     21901     21902
     21886     21898     21901     21903     21886     21898     21901     21904
     21887     21886     21898     21899     21887     21886     21898     21900
     21887     21886     21898     21901     21888     21886     21898     21899
     21888     21886     21898     21900     21888     21886     21898     21901
     21889     21892     21893     21894     21889     21892     21893     21895
     21890     21889     21892     21893     21891     21889     21892     21893
     21892     21893     21895     21896     21892     21893     21895     21897
     21892     21893     21895     21939     21893     21895     21939     21940
     21893     21895     21939     21941     21893     21895     21939     21942
     21894     21893     21895     21896     21894     21893     21895     21897
     21894     21893     21895     21939     21895     21939     21942     21943
     21895     21939     21942     21944     21895     21939     21942     21945
     21896     21895     21939     21940     21896     21895     21939     21941
     21896     21895     21939     21942     21897     21895     21939     21940
     21897     21895     21939     21941     21897     21895     21939     21942
     21898     21901     21904     21905     21898     21901     21904     21906
     21898     21901     21904     21907     21899     21898     21901     21902
     21899     21898     21901     21903     21899     21898     21901     21904
     21900     21898     21901     21902     21900     21898     21901     21903
     21900     21898     21901     21904     21901     21904     21907     21908
     21901     21904     21907     21909     21901     21904     21907     21910
     21902     21901     21904     21905     21902     21901     21904     21906
     21902     21901     21904     21907     21903     21901     21904     21905
     21903     21901     21904     21906     21903     21901     21904     21907
     21904     21907     21910     21911     21904     21907     21910     21912
     21904     21907     21910     21913     21905     21904     21907     21908
     21905     21904     21907     21909     21905     21904     21907     21910
     21906     21904     21907     21908     21906     21904     21907     21909
     21906     21904     21907     21910     21907     21910     21913     21914
     21907     21910     21913     21915     21907     21910     21913     21916
     21908     21907     21910     21911     21908     21907     21910     21912
     21908     21907     21910     21913     21909     21907     21910     21911
     21909     21907     21910     21912     21909     21907     21910     21913
     21910     21913     21916     21917     21910     21913     21916     21918
     21911     21910     21913     21914     21911     21910     21913     21915
     21911     21910     21913     21916     21912     21910     21913     21914
     21912     21910     21913     21915     21912     21910     21913     21916
     21913     21916     21918     21919     21913     21916     21918     21920
     21914     21913     21916     21917     21914     21913     21916     21918
     21915     21913     21916     21917     21915     21913     21916     21918
     21916     21918     21920     21921     21916     21918     21920     21922
     21916     21918     21920     21923     21917     21916     21918     21919
     21917     21916     21918     21920     21918     21920     21923     21924
     21918     21920     21923     21925     21918     21920     21923     21926
     21919     21918     21920     21921     21919     21918     21920     21922
     21919     21918     21920     21923     21920     21923     21926     21927
     21920     21923     21926     21928     21920     21923     21926     21929
     21921     21920     21923     21924     21921     21920     21923     21925
     21921     21920     21923     21926     21922     21920     21923     21924
     21922     21920     21923     21925     21922     21920     21923     21926
     21923     21926     21929     21930     21923     21926     21929     21931
     21923     21926     21929     21932     21924     21923     21926     21927
     21924     21923     21926     21928     21924     21923     21926     21929
     21925     21923     21926     21927     21925     21923     21926     21928
     21925     21923     21926     21929     21926     21929     21932     21933
     21926     21929     21932     21934     21926     21929     21932     21935
     21927     21926     21929     21930     21927     21926     21929     21931
     21927     21926     21929     21932     21928     21926     21929     21930
     21928     21926     21929     21931     21928     21926     21929     21932
     21929     21932     21935     21936     21929     21932     21935     21937
     21929     21932     21935     21938     21930     21929     21932     21933
     21930     21929     21932     21934     21930     21929     21932     21935
     21931     21929     21932     21933     21931     21929     21932     21934
     21931     21929     21932     21935     21933     21932     21935     21936
     21933     21932     21935     21937     21933     21932     21935     21938
     21934     21932     21935     21936     21934     21932     21935     21937
     21934     21932     21935     21938     21939     21942     21945     21946
     21939     21942     21945     21947     21939     21942     21945     21948
     21940     21939     21942     21943     21940     21939     21942     21944
     21940     21939     21942     21945     21941     21939     21942     21943
     21941     21939     21942     21944     21941     21939     21942     21945
     21942     21945     21948     21949     21942     21945     21948     21950
     21942     21945     21948     21951     21943     21942     21945     21946
     21943     21942     21945     21947     21943     21942     21945     21948
     21944     21942     21945     21946     21944     21942     21945     21947
     21944     21942     21945     21948     21945     21948     21951     21952
     21945     21948     21951     21953     21945     21948     21951     21954
     21946     21945     21948     21949     21946     21945     21948     21950
     21946     21945     21948     21951     21947     21945     21948     21949
     21947     21945     21948     21950     21947     21945     21948     21951
     21948     21951     21954     21955     21948     21951     21954     21956
     21948     21951     21954     21957     21949     21948     21951     21952
     21949     21948     21951     21953     21949     21948     21951     21954
     21950     21948     21951     21952     21950     21948     21951     21953
     21950     21948     21951     21954     21951     21954     21957     21958
     21951     21954     21957     21959     21952     21951     21954     21955
     21952     21951     21954     21956     21952     21951     21954     21957
     21953     21951     21954     21955     21953     21951     21954     21956
     21953     21951     21954     21957     21954     21957     21959     21960
     21954     21957     21959     21961     21955     21954     21957     21958
     21955     21954     21957     21959     21956     21954     21957     21958
     21956     21954     21957     21959     21957     21959     21961     21962
     21957     21959     21961     21963     21957     21959     21961     21964
     21958     21957     21959     21960     21958     21957     21959     21961
     21959     21961     21964     21965     21959     21961     21964     21966
     21959     21961     21964     21967     21960     21959     21961     21962
     21960     21959     21961     21963     21960     21959     21961     21964
     21961     21964     21967     21968     21961     21964     21967     21969
     21961     21964     21967     21970     21962     21961     21964     21965
     21962     21961     21964     21966     21962     21961     21964     21967
     21963     21961     21964     21965     21963     21961     21964     21966
     21963     21961     21964     21967     21964     21967     21970     21971
     21964     21967     21970     21972     21964     21967     21970     21973
     21965     21964     21967     21968     21965     21964     21967     21969
     21965     21964     21967     21970     21966     21964     21967     21968
     21966     21964     21967     21969     21966     21964     21967     21970
     21967     21970     21973     21974     21967     21970     21973     21975
     21967     21970     21973     21976     21968     21967     21970     21971
     21968     21967     21970     21972     21968     21967     21970     21973
     21969     21967     21970     21971     21969     21967     21970     21972
     21969     21967     21970     21973     21970     21973     21976     21977
     21970     21973     21976     21978     21970     21973     21976     21979
     21971     21970     21973     21974     21971     21970     21973     21975
     21971     21970     21973     21976     21972     21970     21973     21974
     21972     21970     21973     21975     21972     21970     21973     21976
     21973     21976     21979     21980     21973     21976     21979     21981
     21973     21976     21979     21982     21974     21973     21976     21977
     21974     21973     21976     21978     21974     21973     21976     21979
     21975     21973     21976     21977     21975     21973     21976     21978
     21975     21973     21976     21979     21976     21979     21982     21983
     21976     21979     21982     21984     21976     21979     21982     21985
     21977     21976     21979     21980     21977     21976     21979     21981
     21977     21976     21979     21982     21978     21976     21979     21980
     21978     21976     21979     21981     21978     21976     21979     21982
     21980     21979     21982     21983     21980     21979     21982     21984
     21980     21979     21982     21985     21981     21979     21982     21983
     21981     21979     21982     21984     21981     21979     21982     21985
     21986     21991     21993     21994     21986     21991     21995     21996
     21986     21991     21995     21997     21986     21991     21995     22002
     21987     21986     21989     21990     21987     21986     21991     21992
     21987     21986     21991     21993     21987     21986     21991     21995
     21988     21986     21989     21990     21988     21986     21991     21992
     21988     21986     21991     21993     21988     21986     21991     21995
     21989     21986     21991     21992     21989     21986     21991     21993
     21989     21986     21991     21995     21990     21989     21986     21991
     21991     21995     22002     21998     21992     21991     21993     21994
     21992     21991     21995     21996     21992     21991     21995     21997
     21992     21991     21995     22002     21993     21991     21995     21996
     21993     21991     21995     21997     21993     21991     21995     22002
     21994     21993     21991     21995     21995     22002     21998     21999
     21995     22002     21998     22000     21995     22002     21998     22001
     21996     21995     22002     21998     21997     21995     22002     21998
     21998     22001     22003     22004     21998     22001     22003     22005
     21998     22001     22003     22006     21999     21998     22001     22003
     22000     21998     22001     22003     22001     22003     22006     22007
     22001     22003     22006     22008     22001     22003     22006     22014
     22002     21998     22001     22003     22003     22006     22008     22009
     22003     22006     22014     22015     22003     22006     22014     22016
     22003     22006     22014     22017     22004     22003     22006     22007
     22004     22003     22006     22008     22004     22003     22006     22014
     22005     22003     22006     22007     22005     22003     22006     22008
     22005     22003     22006     22014     22006     22008     22009     22010
     22006     22008     22009     22011     22006     22014     22017     22018
     22007     22006     22008     22009     22007     22006     22014     22015
     22007     22006     22014     22016     22007     22006     22014     22017
     22008     22006     22014     22015     22008     22006     22014     22016
     22008     22006     22014     22017     22008     22009     22011     22012
     22008     22009     22011     22013     22008     22009     22011     22023
     22009     22008     22006     22014     22009     22011     22023     22024
     22009     22011     22023     22025     22009     22011     22023     22026
     22010     22009     22011     22012     22010     22009     22011     22013
     22010     22009     22011     22023     22011     22023     22026     22027
     22011     22023     22026     22028     22011     22023     22026     22029
     22012     22011     22023     22024     22012     22011     22023     22025
     22012     22011     22023     22026     22013     22011     22023     22024
     22013     22011     22023     22025     22013     22011     22023     22026
     22014     22017     22018     22019     22014     22017     22018     22020
     22015     22014     22017     22018     22016     22014     22017     22018
     22017     22018     22020     22021     22017     22018     22020     22022
     22017     22018     22020     22067     22018     22020     22067     22068
     22018     22020     22067     22069     22018     22020     22067     22070
     22019     22018     22020     22021     22019     22018     22020     22022
     22019     22018     22020     22067     22020     22067     22070     22071
     22020     22067     22070     22072     22020     22067     22070     22073
     22021     22020     22067     22068     22021     22020     22067     22069
     22021     22020     22067     22070     22022     22020     22067     22068
     22022     22020     22067     22069     22022     22020     22067     22070
     22023     22026     22029     22030     22023     22026     22029     22031
     22023     22026     22029     22032     22024     22023     22026     22027
     22024     22023     22026     22028     22024     22023     22026     22029
     22025     22023     22026     22027     22025     22023     22026     22028
     22025     22023     22026     22029     22026     22029     22032     22033
     22026     22029     22032     22034     22026     22029     22032     22035
     22027     22026     22029     22030     22027     22026     22029     22031
     22027     22026     22029     22032     22028     22026     22029     22030
     22028     22026     22029     22031     22028     22026     22029     22032
     22029     22032     22035     22036     22029     22032     22035     22037
     22029     22032     22035     22038     22030     22029     22032     22033
     22030     22029     22032     22034     22030     22029     22032     22035
     22031     22029     22032     22033     22031     22029     22032     22034
     22031     22029     22032     22035     22032     22035     22038     22039
     22032     22035     22038     22040     22032     22035     22038     22041
     22033     22032     22035     22036     22033     22032     22035     22037
     22033     22032     22035     22038     22034     22032     22035     22036
     22034     22032     22035     22037     22034     22032     22035     22038
     22035     22038     22041     22042     22035     22038     22041     22043
     22035     22038     22041     22046     22036     22035     22038     22039
     22036     22035     22038     22040     22036     22035     22038     22041
     22037     22035     22038     22039     22037     22035     22038     22040
     22037     22035     22038     22041     22038     22041     22043     22044
     22038     22041     22043     22045     22038     22041     22043     22046
     22038     22041     22046     22043     22038     22041     22046     22047
     22038     22041     22046     22048     22039     22038     22041     22042
     22039     22038     22041     22043     22039     22038     22041     22046
     22040     22038     22041     22042     22040     22038     22041     22043
     22040     22038     22041     22046     22041     22043     22046     22047
     22041     22043     22046     22048     22041     22046     22043     22044
     22041     22046     22043     22045     22041     22046     22048     22049
     22041     22046     22048     22050     22041     22046     22048     22051
     22042     22041     22043     22044     22042     22041     22043     22045
     22042     22041     22043     22046     22042     22041     22046     22043
     22042     22041     22046     22047     22042     22041     22046     22048
     22043     22041     22046     22047     22043     22041     22046     22048
     22043     22046     22048     22049     22043     22046     22048     22050
     22043     22046     22048     22051     22044     22043     22041     22046
     22044     22043     22046     22047     22044     22043     22046     22048
     22045     22043     22041     22046     22045     22043     22046     22047
     22045     22043     22046     22048     22046     22048     22051     22052
     22046     22048     22051     22053     22046     22048     22051     22054
     22047     22046     22048     22049     22047     22046     22048     22050
     22047     22046     22048     22051     22048     22051     22054     22055
     22048     22051     22054     22056     22048     22051     22054     22057
     22049     22048     22051     22052     22049     22048     22051     22053
     22049     22048     22051     22054     22050     22048     22051     22052
     22050     22048     22051     22053     22050     22048     22051     22054
     22051     22054     22057     22058     22051     22054     22057     22059
     22051     22054     22057     22060     22052     22051     22054     22055
     22052     22051     22054     22056     22052     22051     22054     22057
     22053     22051     22054     22055     22053     22051     22054     22056
     22053     22051     22054     22057     22054     22057     22060     22061
     22054     22057     22060     22062     22054     22057     22060     22063
     22055     22054     22057     22058     22055     22054     22057     22059
     22055     22054     22057     22060     22056     22054     22057     22058
     22056     22054     22057     22059     22056     22054     22057     22060
     22057     22060     22063     22064     22057     22060     22063     22065
     22057     22060     22063     22066     22058     22057     22060     22061
     22058     22057     22060     22062     22058     22057     22060     22063
     22059     22057     22060     22061     22059     22057     22060     22062
     22059     22057     22060     22063     22061     22060     22063     22064
     22061     22060     22063     22065     22061     22060     22063     22066
     22062     22060     22063     22064     22062     22060     22063     22065
     22062     22060     22063     22066     22067     22070     22073     22074
     22067     22070     22073     22075     22067     22070     22073     22076
     22068     22067     22070     22071     22068     22067     22070     22072
     22068     22067     22070     22073     22069     22067     22070     22071
     22069     22067     22070     22072     22069     22067     22070     22073
     22070     22073     22076     22077     22070     22073     22076     22078
     22070     22073     22076     22079     22071     22070     22073     22074
     22071     22070     22073     22075     22071     22070     22073     22076
     22072     22070     22073     22074     22072     22070     22073     22075
     22072     22070     22073     22076     22073     22076     22079     22080
     22073     22076     22079     22081     22073     22076     22079     22082
     22074     22073     22076     22077     22074     22073     22076     22078
     22074     22073     22076     22079     22075     22073     22076     22077
     22075     22073     22076     22078     22075     22073     22076     22079
     22076     22079     22082     22083     22076     22079     22082     22084
     22076     22079     22082     22085     22077     22076     22079     22080
     22077     22076     22079     22081     22077     22076     22079     22082
     22078     22076     22079     22080     22078     22076     22079     22081
     22078     22076     22079     22082     22079     22082     22085     22086
     22079     22082     22085     22087     22079     22082     22085     22088
     22080     22079     22082     22083     22080     22079     22082     22084
     22080     22079     22082     22085     22081     22079     22082     22083
     22081     22079     22082     22084     22081     22079     22082     22085
     22082     22085     22088     22089     22082     22085     22088     22090
     22082     22085     22088     22091     22083     22082     22085     22086
     22083     22082     22085     22087     22083     22082     22085     22088
     22084     22082     22085     22086     22084     22082     22085     22087
     22084     22082     22085     22088     22085     22088     22091     22092
     22085     22088     22091     22093     22085     22088     22091     22094
     22086     22085     22088     22089     22086     22085     22088     22090
     22086     22085     22088     22091     22087     22085     22088     22089
     22087     22085     22088     22090     22087     22085     22088     22091
     22088     22091     22094     22095     22088     22091     22094     22096
     22088     22091     22094     22097     22089     22088     22091     22092
     22089     22088     22091     22093     22089     22088     22091     22094
     22090     22088     22091     22092     22090     22088     22091     22093
     22090     22088     22091     22094     22091     22094     22097     22098
     22091     22094     22097     22099     22091     22094     22097     22100
     22092     22091     22094     22095     22092     22091     22094     22096
     22092     22091     22094     22097     22093     22091     22094     22095
     22093     22091     22094     22096     22093     22091     22094     22097
     22094     22097     22100     22101     22094     22097     22100     22102
     22094     22097     22100     22103     22095     22094     22097     22098
     22095     22094     22097     22099     22095     22094     22097     22100
     22096     22094     22097     22098     22096     22094     22097     22099
     22096     22094     22097     22100     22097     22100     22103     22104
     22097     22100     22103     22105     22097     22100     22103     22106
     22098     22097     22100     22101     22098     22097     22100     22102
     22098     22097     22100     22103     22099     22097     22100     22101
     22099     22097     22100     22102     22099     22097     22100     22103
     22100     22103     22106     22107     22100     22103     22106     22108
     22100     22103     22106     22109     22101     22100     22103     22104
     22101     22100     22103     22105     22101     22100     22103     22106
     22102     22100     22103     22104     22102     22100     22103     22105
     22102     22100     22103     22106     22104     22103     22106     22107
     22104     22103     22106     22108     22104     22103     22106     22109
     22105     22103     22106     22107     22105     22103     22106     22108
     22105     22103     22106     22109     22110     22114     22117     22118
     22110     22114     22117     22119     22110     22114     22117     22124
     22111     22110     22114     22115     22111     22110     22114     22116
     22111     22110     22114     22117     22112     22110     22114     22115
     22112     22110     22114     22116     22112     22110     22114     22117
     22113     22110     22114     22115     22113     22110     22114     22116
     22113     22110     22114     22117     22114     22117     22124     22120
     22115     22114     22117     22118     22115     22114     22117     22119
     22115     22114     22117     22124     22116     22114     22117     22118
     22116     22114     22117     22119     22116     22114     22117     22124
     22117     22124     22120     22121     22117     22124     22120     22122
     22117     22124     22120     22123     22118     22117     22124     22120
     22119     22117     22124     22120     22120     22123     22125     22126
     22120     22123     22125     22127     22120     22123     22125     22128
     22121     22120     22123     22125     22122     22120     22123     22125
     22123     22125     22128     22129     22123     22125     22128     22130
     22123     22125     22128     22136     22124     22120     22123     22125
     22125     22128     22130     22131     22125     22128     22136     22137
     22125     22128     22136     22138     22125     22128     22136     22139
     22126     22125     22128     22129     22126     22125     22128     22130
     22126     22125     22128     22136     22127     22125     22128     22129
     22127     22125     22128     22130     22127     22125     22128     22136
     22128     22130     22131     22132     22128     22130     22131     22133
     22128     22136     22139     22140     22129     22128     22130     22131
     22129     22128     22136     22137     22129     22128     22136     22138
     22129     22128     22136     22139     22130     22128     22136     22137
     22130     22128     22136     22138     22130     22128     22136     22139
     22130     22131     22133     22134     22130     22131     22133     22135
     22130     22131     22133     22145     22131     22130     22128     22136
     22131     22133     22145     22146     22131     22133     22145     22147
     22131     22133     22145     22148     22132     22131     22133     22134
     22132     22131     22133     22135     22132     22131     22133     22145
     22133     22145     22148     22149     22133     22145     22148     22150
     22133     22145     22148     22151     22134     22133     22145     22146
     22134     22133     22145     22147     22134     22133     22145     22148
     22135     22133     22145     22146     22135     22133     22145     22147
     22135     22133     22145     22148     22136     22139     22140     22141
     22136     22139     22140     22142     22137     22136     22139     22140
     22138     22136     22139     22140     22139     22140     22142     22143
     22139     22140     22142     22144     22139     22140     22142     22189
     22140     22142     22189     22190     22140     22142     22189     22191
     22140     22142     22189     22192     22141     22140     22142     22143
     22141     22140     22142     22144     22141     22140     22142     22189
     22142     22189     22192     22193     22142     22189     22192     22194
     22142     22189     22192     22195     22143     22142     22189     22190
     22143     22142     22189     22191     22143     22142     22189     22192
     22144     22142     22189     22190     22144     22142     22189     22191
     22144     22142     22189     22192     22145     22148     22151     22152
     22145     22148     22151     22153     22145     22148     22151     22154
     22146     22145     22148     22149     22146     22145     22148     22150
     22146     22145     22148     22151     22147     22145     22148     22149
     22147     22145     22148     22150     22147     22145     22148     22151
     22148     22151     22154     22155     22148     22151     22154     22156
     22148     22151     22154     22157     22149     22148     22151     22152
     22149     22148     22151     22153     22149     22148     22151     22154
     22150     22148     22151     22152     22150     22148     22151     22153
     22150     22148     22151     22154     22151     22154     22157     22158
     22151     22154     22157     22159     22151     22154     22157     22160
     22152     22151     22154     22155     22152     22151     22154     22156
     22152     22151     22154     22157     22153     22151     22154     22155
     22153     22151     22154     22156     22153     22151     22154     22157
     22154     22157     22160     22161     22154     22157     22160     22162
     22154     22157     22160     22163     22155     22154     22157     22158
     22155     22154     22157     22159     22155     22154     22157     22160
     22156     22154     22157     22158     22156     22154     22157     22159
     22156     22154     22157     22160     22157     22160     22163     22164
     22157     22160     22163     22165     22157     22160     22163     22168
     22158     22157     22160     22161     22158     22157     22160     22162
     22158     22157     22160     22163     22159     22157     22160     22161
     22159     22157     22160     22162     22159     22157     22160     22163
     22160     22163     22165     22166     22160     22163     22165     22167
     22160     22163     22165     22168     22160     22163     22168     22165
     22160     22163     22168     22169     22160     22163     22168     22170
     22161     22160     22163     22164     22161     22160     22163     22165
     22161     22160     22163     22168     22162     22160     22163     22164
     22162     22160     22163     22165     22162     22160     22163     22168
     22163     22165     22168     22169     22163     22165     22168     22170
     22163     22168     22165     22166     22163     22168     22165     22167
     22163     22168     22170     22171     22163     22168     22170     22172
     22163     22168     22170     22173     22164     22163     22165     22166
     22164     22163     22165     22167     22164     22163     22165     22168
     22164     22163     22168     22165     22164     22163     22168     22169
     22164     22163     22168     22170     22165     22163     22168     22169
     22165     22163     22168     22170     22165     22168     22170     22171
     22165     22168     22170     22172     22165     22168     22170     22173
     22166     22165     22163     22168     22166     22165     22168     22169
     22166     22165     22168     22170     22167     22165     22163     22168
     22167     22165     22168     22169     22167     22165     22168     22170
     22168     22170     22173     22174     22168     22170     22173     22175
     22168     22170     22173     22176     22169     22168     22170     22171
     22169     22168     22170     22172     22169     22168     22170     22173
     22170     22173     22176     22177     22170     22173     22176     22178
     22170     22173     22176     22179     22171     22170     22173     22174
     22171     22170     22173     22175     22171     22170     22173     22176
     22172     22170     22173     22174     22172     22170     22173     22175
     22172     22170     22173     22176     22173     22176     22179     22180
     22173     22176     22179     22181     22173     22176     22179     22182
     22174     22173     22176     22177     22174     22173     22176     22178
     22174     22173     22176     22179     22175     22173     22176     22177
     22175     22173     22176     22178     22175     22173     22176     22179
     22176     22179     22182     22183     22176     22179     22182     22184
     22176     22179     22182     22185     22177     22176     22179     22180
     22177     22176     22179     22181     22177     22176     22179     22182
     22178     22176     22179     22180     22178     22176     22179     22181
     22178     22176     22179     22182     22179     22182     22185     22186
     22179     22182     22185     22187     22179     22182     22185     22188
     22180     22179     22182     22183     22180     22179     22182     22184
     22180     22179     22182     22185     22181     22179     22182     22183
     22181     22179     22182     22184     22181     22179     22182     22185
     22183     22182     22185     22186     22183     22182     22185     22187
     22183     22182     22185     22188     22184     22182     22185     22186
     22184     22182     22185     22187     22184     22182     22185     22188
     22189     22192     22195     22196     22189     22192     22195     22197
     22189     22192     22195     22198     22190     22189     22192     22193
     22190     22189     22192     22194     22190     22189     22192     22195
     22191     22189     22192     22193     22191     22189     22192     22194
     22191     22189     22192     22195     22192     22195     22198     22199
     22192     22195     22198     22200     22192     22195     22198     22201
     22193     22192     22195     22196     22193     22192     22195     22197
     22193     22192     22195     22198     22194     22192     22195     22196
     22194     22192     22195     22197     22194     22192     22195     22198
     22195     22198     22201     22202     22195     22198     22201     22203
     22195     22198     22201     22204     22196     22195     22198     22199
     22196     22195     22198     22200     22196     22195     22198     22201
     22197     22195     22198     22199     22197     22195     22198     22200
     22197     22195     22198     22201     22198     22201     22204     22205
     22198     22201     22204     22206     22198     22201     22204     22207
     22199     22198     22201     22202     22199     22198     22201     22203
     22199     22198     22201     22204     22200     22198     22201     22202
     22200     22198     22201     22203     22200     22198     22201     22204
     22201     22204     22207     22208     22201     22204     22207     22209
     22201     22204     22207     22210     22202     22201     22204     22205
     22202     22201     22204     22206     22202     22201     22204     22207
     22203     22201     22204     22205     22203     22201     22204     22206
     22203     22201     22204     22207     22204     22207     22210     22211
     22204     22207     22210     22212     22204     22207     22210     22213
     22205     22204     22207     22208     22205     22204     22207     22209
     22205     22204     22207     22210     22206     22204     22207     22208
     22206     22204     22207     22209     22206     22204     22207     22210
     22207     22210     22213     22214     22207     22210     22213     22215
     22207     22210     22213     22216     22208     22207     22210     22211
     22208     22207     22210     22212     22208     22207     22210     22213
     22209     22207     22210     22211     22209     22207     22210     22212
     22209     22207     22210     22213     22210     22213     22216     22217
     22210     22213     22216     22218     22210     22213     22216     22219
     22211     22210     22213     22214     22211     22210     22213     22215
     22211     22210     22213     22216     22212     22210     22213     22214
     22212     22210     22213     22215     22212     22210     22213     22216
     22213     22216     22219     22220     22213     22216     22219     22221
     22213     22216     22219     22222     22214     22213     22216     22217
     22214     22213     22216     22218     22214     22213     22216     22219
     22215     22213     22216     22217     22215     22213     22216     22218
     22215     22213     22216     22219     22216     22219     22222     22223
     22216     22219     22222     22224     22216     22219     22222     22225
     22217     22216     22219     22220     22217     22216     22219     22221
     22217     22216     22219     22222     22218     22216     22219     22220
     22218     22216     22219     22221     22218     22216     22219     22222
     22219     22222     22225     22226     22219     22222     22225     22227
     22219     22222     22225     22228     22220     22219     22222     22223
     22220     22219     22222     22224     22220     22219     22222     22225
     22221     22219     22222     22223     22221     22219     22222     22224
     22221     22219     22222     22225     22222     22225     22228     22229
     22222     22225     22228     22230     22222     22225     22228     22231
     22223     22222     22225     22226     22223     22222     22225     22227
     22223     22222     22225     22228     22224     22222     22225     22226
     22224     22222     22225     22227     22224     22222     22225     22228
     22226     22225     22228     22229     22226     22225     22228     22230
     22226     22225     22228     22231     22227     22225     22228     22229
     22227     22225     22228     22230     22227     22225     22228     22231
     22232     22236     22239     22240     22232     22236     22239     22241
     22232     22236     22239     22246     22233     22232     22236     22237
     22233     22232     22236     22238     22233     22232     22236     22239
     22234     22232     22236     22237     22234     22232     22236     22238
     22234     22232     22236     22239     22235     22232     22236     22237
     22235     22232     22236     22238     22235     22232     22236     22239
     22236     22239     22246     22242     22237     22236     22239     22240
     22237     22236     22239     22241     22237     22236     22239     22246
     22238     22236     22239     22240     22238     22236     22239     22241
     22238     22236     22239     22246     22239     22246     22242     22243
     22239     22246     22242     22244     22239     22246     22242     22245
     22240     22239     22246     22242     22241     22239     22246     22242
     22242     22245     22247     22248     22242     22245     22247     22249
     22242     22245     22247     22250     22243     22242     22245     22247
     22244     22242     22245     22247     22245     22247     22250     22251
     22245     22247     22250     22252     22245     22247     22250     22258
     22246     22242     22245     22247     22247     22250     22252     22253
     22247     22250     22258     22259     22247     22250     22258     22260
     22247     22250     22258     22261     22248     22247     22250     22251
     22248     22247     22250     22252     22248     22247     22250     22258
     22249     22247     22250     22251     22249     22247     22250     22252
     22249     22247     22250     22258     22250     22252     22253     22254
     22250     22252     22253     22255     22250     22258     22261     22262
     22251     22250     22252     22253     22251     22250     22258     22259
     22251     22250     22258     22260     22251     22250     22258     22261
     22252     22250     22258     22259     22252     22250     22258     22260
     22252     22250     22258     22261     22252     22253     22255     22256
     22252     22253     22255     22257     22252     22253     22255     22267
     22253     22252     22250     22258     22253     22255     22267     22268
     22253     22255     22267     22269     22253     22255     22267     22270
     22254     22253     22255     22256     22254     22253     22255     22257
     22254     22253     22255     22267     22255     22267     22270     22271
     22255     22267     22270     22272     22255     22267     22270     22273
     22256     22255     22267     22268     22256     22255     22267     22269
     22256     22255     22267     22270     22257     22255     22267     22268
     22257     22255     22267     22269     22257     22255     22267     22270
     22258     22261     22262     22263     22258     22261     22262     22264
     22259     22258     22261     22262     22260     22258     22261     22262
     22261     22262     22264     22265     22261     22262     22264     22266
     22261     22262     22264     22311     22262     22264     22311     22312
     22262     22264     22311     22313     22262     22264     22311     22314
     22263     22262     22264     22265     22263     22262     22264     22266
     22263     22262     22264     22311     22264     22311     22314     22315
     22264     22311     22314     22316     22264     22311     22314     22317
     22265     22264     22311     22312     22265     22264     22311     22313
     22265     22264     22311     22314     22266     22264     22311     22312
     22266     22264     22311     22313     22266     22264     22311     22314
     22267     22270     22273     22274     22267     22270     22273     22275
     22267     22270     22273     22276     22268     22267     22270     22271
     22268     22267     22270     22272     22268     22267     22270     22273
     22269     22267     22270     22271     22269     22267     22270     22272
     22269     22267     22270     22273     22270     22273     22276     22277
     22270     22273     22276     22278     22270     22273     22276     22279
     22271     22270     22273     22274     22271     22270     22273     22275
     22271     22270     22273     22276     22272     22270     22273     22274
     22272     22270     22273     22275     22272     22270     22273     22276
     22273     22276     22279     22280     22273     22276     22279     22281
     22273     22276     22279     22282     22274     22273     22276     22277
     22274     22273     22276     22278     22274     22273     22276     22279
     22275     22273     22276     22277     22275     22273     22276     22278
     22275     22273     22276     22279     22276     22279     22282     22283
     22276     22279     22282     22284     22276     22279     22282     22285
     22277     22276     22279     22280     22277     22276     22279     22281
     22277     22276     22279     22282     22278     22276     22279     22280
     22278     22276     22279     22281     22278     22276     22279     22282
     22279     22282     22285     22286     22279     22282     22285     22287
     22279     22282     22285     22290     22280     22279     22282     22283
     22280     22279     22282     22284     22280     22279     22282     22285
     22281     22279     22282     22283     22281     22279     22282     22284
     22281     22279     22282     22285     22282     22285     22287     22288
     22282     22285     22287     22289     22282     22285     22287     22290
     22282     22285     22290     22287     22282     22285     22290     22291
     22282     22285     22290     22292     22283     22282     22285     22286
     22283     22282     22285     22287     22283     22282     22285     22290
     22284     22282     22285     22286     22284     22282     22285     22287
     22284     22282     22285     22290     22285     22287     22290     22291
     22285     22287     22290     22292     22285     22290     22287     22288
     22285     22290     22287     22289     22285     22290     22292     22293
     22285     22290     22292     22294     22285     22290     22292     22295
     22286     22285     22287     22288     22286     22285     22287     22289
     22286     22285     22287     22290     22286     22285     22290     22287
     22286     22285     22290     22291     22286     22285     22290     22292
     22287     22285     22290     22291     22287     22285     22290     22292
     22287     22290     22292     22293     22287     22290     22292     22294
     22287     22290     22292     22295     22288     22287     22285     22290
     22288     22287     22290     22291     22288     22287     22290     22292
     22289     22287     22285     22290     22289     22287     22290     22291
     22289     22287     22290     22292     22290     22292     22295     22296
     22290     22292     22295     22297     22290     22292     22295     22298
     22291     22290     22292     22293     22291     22290     22292     22294
     22291     22290     22292     22295     22292     22295     22298     22299
     22292     22295     22298     22300     22292     22295     22298     22301
     22293     22292     22295     22296     22293     22292     22295     22297
     22293     22292     22295     22298     22294     22292     22295     22296
     22294     22292     22295     22297     22294     22292     22295     22298
     22295     22298     22301     22302     22295     22298     22301     22303
     22295     22298     22301     22304     22296     22295     22298     22299
     22296     22295     22298     22300     22296     22295     22298     22301
     22297     22295     22298     22299     22297     22295     22298     22300
     22297     22295     22298     22301     22298     22301     22304     22305
     22298     22301     22304     22306     22298     22301     22304     22307
     22299     22298     22301     22302     22299     22298     22301     22303
     22299     22298     22301     22304     22300     22298     22301     22302
     22300     22298     22301     22303     22300     22298     22301     22304
     22301     22304     22307     22308     22301     22304     22307     22309
     22301     22304     22307     22310     22302     22301     22304     22305
     22302     22301     22304     22306     22302     22301     22304     22307
     22303     22301     22304     22305     22303     22301     22304     22306
     22303     22301     22304     22307     22305     22304     22307     22308
     22305     22304     22307     22309     22305     22304     22307     22310
     22306     22304     22307     22308     22306     22304     22307     22309
     22306     22304     22307     22310     22311     22314     22317     22318
     22311     22314     22317     22319     22311     22314     22317     22320
     22312     22311     22314     22315     22312     22311     22314     22316
     22312     22311     22314     22317     22313     22311     22314     22315
     22313     22311     22314     22316     22313     22311     22314     22317
     22314     22317     22320     22321     22314     22317     22320     22322
     22314     22317     22320     22323     22315     22314     22317     22318
     22315     22314     22317     22319     22315     22314     22317     22320
     22316     22314     22317     22318     22316     22314     22317     22319
     22316     22314     22317     22320     22317     22320     22323     22324
     22317     22320     22323     22325     22317     22320     22323     22326
     22318     22317     22320     22321     22318     22317     22320     22322
     22318     22317     22320     22323     22319     22317     22320     22321
     22319     22317     22320     22322     22319     22317     22320     22323
     22320     22323     22326     22327     22320     22323     22326     22328
     22320     22323     22326     22329     22321     22320     22323     22324
     22321     22320     22323     22325     22321     22320     22323     22326
     22322     22320     22323     22324     22322     22320     22323     22325
     22322     22320     22323     22326     22323     22326     22329     22330
     22323     22326     22329     22331     22323     22326     22329     22332
     22324     22323     22326     22327     22324     22323     22326     22328
     22324     22323     22326     22329     22325     22323     22326     22327
     22325     22323     22326     22328     22325     22323     22326     22329
     22326     22329     22332     22333     22326     22329     22332     22334
     22326     22329     22332     22335     22327     22326     22329     22330
     22327     22326     22329     22331     22327     22326     22329     22332
     22328     22326     22329     22330     22328     22326     22329     22331
     22328     22326     22329     22332     22329     22332     22335     22336
     22329     22332     22335     22337     22329     22332     22335     22338
     22330     22329     22332     22333     22330     22329     22332     22334
     22330     22329     22332     22335     22331     22329     22332     22333
     22331     22329     22332     22334     22331     22329     22332     22335
     22332     22335     22338     22339     22332     22335     22338     22340
     22332     22335     22338     22341     22333     22332     22335     22336
     22333     22332     22335     22337     22333     22332     22335     22338
     22334     22332     22335     22336     22334     22332     22335     22337
     22334     22332     22335     22338     22335     22338     22341     22342
     22335     22338     22341     22343     22335     22338     22341     22344
     22336     22335     22338     22339     22336     22335     22338     22340
     22336     22335     22338     22341     22337     22335     22338     22339
     22337     22335     22338     22340     22337     22335     22338     22341
     22338     22341     22344     22345     22338     22341     22344     22346
     22338     22341     22344     22347     22339     22338     22341     22342
     22339     22338     22341     22343     22339     22338     22341     22344
     22340     22338     22341     22342     22340     22338     22341     22343
     22340     22338     22341     22344     22341     22344     22347     22348
     22341     22344     22347     22349     22341     22344     22347     22350
     22342     22341     22344     22345     22342     22341     22344     22346
     22342     22341     22344     22347     22343     22341     22344     22345
     22343     22341     22344     22346     22343     22341     22344     22347
     22344     22347     22350     22351     22344     22347     22350     22352
     22344     22347     22350     22353     22345     22344     22347     22348
     22345     22344     22347     22349     22345     22344     22347     22350
     22346     22344     22347     22348     22346     22344     22347     22349
     22346     22344     22347     22350     22348     22347     22350     22351
     22348     22347     22350     22352     22348     22347     22350     22353
     22349     22347     22350     22351     22349     22347     22350     22352
     22349     22347     22350     22353     22354     22359     22361     22362
     22354     22359     22363     22364     22354     22359     22363     22365
     22354     22359     22363     22370     22355     22354     22357     22358
     22355     22354     22359     22360     22355     22354     22359     22361
     22355     22354     22359     22363     22356     22354     22357     22358
     22356     22354     22359     22360     22356     22354     22359     22361
     22356     22354     22359     22363     22357     22354     22359     22360
     22357     22354     22359     22361     22357     22354     22359     22363
     22358     22357     22354     22359     22359     22363     22370     22366
     22360     22359     22361     22362     22360     22359     22363     22364
     22360     22359     22363     22365     22360     22359     22363     22370
     22361     22359     22363     22364     22361     22359     22363     22365
     22361     22359     22363     22370     22362     22361     22359     22363
     22363     22370     22366     22367     22363     22370     22366     22368
     22363     22370     22366     22369     22364     22363     22370     22366
     22365     22363     22370     22366     22366     22369     22371     22372
     22366     22369     22371     22373     22366     22369     22371     22374
     22367     22366     22369     22371     22368     22366     22369     22371
     22369     22371     22374     22375     22369     22371     22374     22376
     22369     22371     22374     22382     22370     22366     22369     22371
     22371     22374     22376     22377     22371     22374     22382     22383
     22371     22374     22382     22384     22371     22374     22382     22385
     22372     22371     22374     22375     22372     22371     22374     22376
     22372     22371     22374     22382     22373     22371     22374     22375
     22373     22371     22374     22376     22373     22371     22374     22382
     22374     22376     22377     22378     22374     22376     22377     22379
     22374     22382     22385     22386     22375     22374     22376     22377
     22375     22374     22382     22383     22375     22374     22382     22384
     22375     22374     22382     22385     22376     22374     22382     22383
     22376     22374     22382     22384     22376     22374     22382     22385
     22376     22377     22379     22380     22376     22377     22379     22381
     22376     22377     22379     22391     22377     22376     22374     22382
     22377     22379     22391     22392     22377     22379     22391     22393
     22377     22379     22391     22394     22378     22377     22379     22380
     22378     22377     22379     22381     22378     22377     22379     22391
     22379     22391     22394     22395     22379     22391     22394     22396
     22379     22391     22394     22397     22380     22379     22391     22392
     22380     22379     22391     22393     22380     22379     22391     22394
     22381     22379     22391     22392     22381     22379     22391     22393
     22381     22379     22391     22394     22382     22385     22386     22387
     22382     22385     22386     22388     22383     22382     22385     22386
     22384     22382     22385     22386     22385     22386     22388     22389
     22385     22386     22388     22390     22385     22386     22388     22432
     22386     22388     22432     22433     22386     22388     22432     22434
     22386     22388     22432     22435     22387     22386     22388     22389
     22387     22386     22388     22390     22387     22386     22388     22432
     22388     22432     22435     22436     22388     22432     22435     22437
     22388     22432     22435     22438     22389     22388     22432     22433
     22389     22388     22432     22434     22389     22388     22432     22435
     22390     22388     22432     22433     22390     22388     22432     22434
     22390     22388     22432     22435     22391     22394     22397     22398
     22391     22394     22397     22399     22391     22394     22397     22400
     22392     22391     22394     22395     22392     22391     22394     22396
     22392     22391     22394     22397     22393     22391     22394     22395
     22393     22391     22394     22396     22393     22391     22394     22397
     22394     22397     22400     22401     22394     22397     22400     22402
     22394     22397     22400     22403     22395     22394     22397     22398
     22395     22394     22397     22399     22395     22394     22397     22400
     22396     22394     22397     22398     22396     22394     22397     22399
     22396     22394     22397     22400     22397     22400     22403     22404
     22397     22400     22403     22405     22397     22400     22403     22406
     22398     22397     22400     22401     22398     22397     22400     22402
     22398     22397     22400     22403     22399     22397     22400     22401
     22399     22397     22400     22402     22399     22397     22400     22403
     22400     22403     22406     22407     22400     22403     22406     22408
     22400     22403     22406     22409     22401     22400     22403     22404
     22401     22400     22403     22405     22401     22400     22403     22406
     22402     22400     22403     22404     22402     22400     22403     22405
     22402     22400     22403     22406     22403     22406     22409     22410
     22403     22406     22409     22411     22404     22403     22406     22407
     22404     22403     22406     22408     22404     22403     22406     22409
     22405     22403     22406     22407     22405     22403     22406     22408
     22405     22403     22406     22409     22406     22409     22411     22412
     22406     22409     22411     22413     22407     22406     22409     22410
     22407     22406     22409     22411     22408     22406     22409     22410
     22408     22406     22409     22411     22409     22411     22413     22414
     22409     22411     22413     22415     22409     22411     22413     22416
     22410     22409     22411     22412     22410     22409     22411     22413
     22411     22413     22416     22417     22411     22413     22416     22418
     22411     22413     22416     22419     22412     22411     22413     22414
     22412     22411     22413     22415     22412     22411     22413     22416
     22413     22416     22419     22420     22413     22416     22419     22421
     22413     22416     22419     22422     22414     22413     22416     22417
     22414     22413     22416     22418     22414     22413     22416     22419
     22415     22413     22416     22417     22415     22413     22416     22418
     22415     22413     22416     22419     22416     22419     22422     22423
     22416     22419     22422     22424     22416     22419     22422     22425
     22417     22416     22419     22420     22417     22416     22419     22421
     22417     22416     22419     22422     22418     22416     22419     22420
     22418     22416     22419     22421     22418     22416     22419     22422
     22419     22422     22425     22426     22419     22422     22425     22427
     22419     22422     22425     22428     22420     22419     22422     22423
     22420     22419     22422     22424     22420     22419     22422     22425
     22421     22419     22422     22423     22421     22419     22422     22424
     22421     22419     22422     22425     22422     22425     22428     22429
     22422     22425     22428     22430     22422     22425     22428     22431
     22423     22422     22425     22426     22423     22422     22425     22427
     22423     22422     22425     22428     22424     22422     22425     22426
     22424     22422     22425     22427     22424     22422     22425     22428
     22426     22425     22428     22429     22426     22425     22428     22430
     22426     22425     22428     22431     22427     22425     22428     22429
     22427     22425     22428     22430     22427     22425     22428     22431
     22432     22435     22438     22439     22432     22435     22438     22440
     22432     22435     22438     22441     22433     22432     22435     22436
     22433     22432     22435     22437     22433     22432     22435     22438
     22434     22432     22435     22436     22434     22432     22435     22437
     22434     22432     22435     22438     22435     22438     22441     22442
     22435     22438     22441     22443     22435     22438     22441     22444
     22436     22435     22438     22439     22436     22435     22438     22440
     22436     22435     22438     22441     22437     22435     22438     22439
     22437     22435     22438     22440     22437     22435     22438     22441
     22438     22441     22444     22445     22438     22441     22444     22446
     22438     22441     22444     22447     22439     22438     22441     22442
     22439     22438     22441     22443     22439     22438     22441     22444
     22440     22438     22441     22442     22440     22438     22441     22443
     22440     22438     22441     22444     22441     22444     22447     22448
     22441     22444     22447     22449     22441     22444     22447     22450
     22442     22441     22444     22445     22442     22441     22444     22446
     22442     22441     22444     22447     22443     22441     22444     22445
     22443     22441     22444     22446     22443     22441     22444     22447
     22444     22447     22450     22451     22444     22447     22450     22452
     22444     22447     22450     22453     22445     22444     22447     22448
     22445     22444     22447     22449     22445     22444     22447     22450
     22446     22444     22447     22448     22446     22444     22447     22449
     22446     22444     22447     22450     22447     22450     22453     22454
     22447     22450     22453     22455     22447     22450     22453     22456
     22448     22447     22450     22451     22448     22447     22450     22452
     22448     22447     22450     22453     22449     22447     22450     22451
     22449     22447     22450     22452     22449     22447     22450     22453
     22450     22453     22456     22457     22450     22453     22456     22458
     22450     22453     22456     22459     22451     22450     22453     22454
     22451     22450     22453     22455     22451     22450     22453     22456
     22452     22450     22453     22454     22452     22450     22453     22455
     22452     22450     22453     22456     22453     22456     22459     22460
     22453     22456     22459     22461     22453     22456     22459     22462
     22454     22453     22456     22457     22454     22453     22456     22458
     22454     22453     22456     22459     22455     22453     22456     22457
     22455     22453     22456     22458     22455     22453     22456     22459
     22456     22459     22462     22463     22456     22459     22462     22464
     22456     22459     22462     22465     22457     22456     22459     22460
     22457     22456     22459     22461     22457     22456     22459     22462
     22458     22456     22459     22460     22458     22456     22459     22461
     22458     22456     22459     22462     22459     22462     22465     22466
     22459     22462     22465     22467     22459     22462     22465     22468
     22460     22459     22462     22463     22460     22459     22462     22464
     22460     22459     22462     22465     22461     22459     22462     22463
     22461     22459     22462     22464     22461     22459     22462     22465
     22462     22465     22468     22469     22462     22465     22468     22470
     22462     22465     22468     22471     22463     22462     22465     22466
     22463     22462     22465     22467     22463     22462     22465     22468
     22464     22462     22465     22466     22464     22462     22465     22467
     22464     22462     22465     22468     22465     22468     22471     22472
     22465     22468     22471     22473     22465     22468     22471     22474
     22466     22465     22468     22469     22466     22465     22468     22470
     22466     22465     22468     22471     22467     22465     22468     22469
     22467     22465     22468     22470     22467     22465     22468     22471
     22469     22468     22471     22472     22469     22468     22471     22473
     22469     22468     22471     22474     22470     22468     22471     22472
     22470     22468     22471     22473     22470     22468     22471     22474
     22475     22479     22482     22483     22475     22479     22482     22484
     22475     22479     22482     22489     22476     22475     22479     22480
     22476     22475     22479     22481     22476     22475     22479     22482
     22477     22475     22479     22480     22477     22475     22479     22481
     22477     22475     22479     22482     22478     22475     22479     22480
     22478     22475     22479     22481     22478     22475     22479     22482
     22479     22482     22489     22485     22480     22479     22482     22483
     22480     22479     22482     22484     22480     22479     22482     22489
     22481     22479     22482     22483     22481     22479     22482     22484
     22481     22479     22482     22489     22482     22489     22485     22486
     22482     22489     22485     22487     22482     22489     22485     22488
     22483     22482     22489     22485     22484     22482     22489     22485
     22485     22488     22490     22491     22485     22488     22490     22492
     22485     22488     22490     22493     22486     22485     22488     22490
     22487     22485     22488     22490     22488     22490     22493     22494
     22488     22490     22493     22495     22488     22490     22493     22501
     22489     22485     22488     22490     22490     22493     22495     22496
     22490     22493     22501     22502     22490     22493     22501     22503
     22490     22493     22501     22504     22491     22490     22493     22494
     22491     22490     22493     22495     22491     22490     22493     22501
     22492     22490     22493     22494     22492     22490     22493     22495
     22492     22490     22493     22501     22493     22495     22496     22497
     22493     22495     22496     22498     22493     22501     22504     22505
     22494     22493     22495     22496     22494     22493     22501     22502
     22494     22493     22501     22503     22494     22493     22501     22504
     22495     22493     22501     22502     22495     22493     22501     22503
     22495     22493     22501     22504     22495     22496     22498     22499
     22495     22496     22498     22500     22495     22496     22498     22510
     22496     22495     22493     22501     22496     22498     22510     22511
     22496     22498     22510     22512     22496     22498     22510     22513
     22497     22496     22498     22499     22497     22496     22498     22500
     22497     22496     22498     22510     22498     22510     22513     22514
     22498     22510     22513     22515     22498     22510     22513     22516
     22499     22498     22510     22511     22499     22498     22510     22512
     22499     22498     22510     22513     22500     22498     22510     22511
     22500     22498     22510     22512     22500     22498     22510     22513
     22501     22504     22505     22506     22501     22504     22505     22507
     22502     22501     22504     22505     22503     22501     22504     22505
     22504     22505     22507     22508     22504     22505     22507     22509
     22504     22505     22507     22551     22505     22507     22551     22552
     22505     22507     22551     22553     22505     22507     22551     22554
     22506     22505     22507     22508     22506     22505     22507     22509
     22506     22505     22507     22551     22507     22551     22554     22555
     22507     22551     22554     22556     22507     22551     22554     22557
     22508     22507     22551     22552     22508     22507     22551     22553
     22508     22507     22551     22554     22509     22507     22551     22552
     22509     22507     22551     22553     22509     22507     22551     22554
     22510     22513     22516     22517     22510     22513     22516     22518
     22510     22513     22516     22519     22511     22510     22513     22514
     22511     22510     22513     22515     22511     22510     22513     22516
     22512     22510     22513     22514     22512     22510     22513     22515
     22512     22510     22513     22516     22513     22516     22519     22520
     22513     22516     22519     22521     22513     22516     22519     22522
     22514     22513     22516     22517     22514     22513     22516     22518
     22514     22513     22516     22519     22515     22513     22516     22517
     22515     22513     22516     22518     22515     22513     22516     22519
     22516     22519     22522     22523     22516     22519     22522     22524
     22516     22519     22522     22525     22517     22516     22519     22520
     22517     22516     22519     22521     22517     22516     22519     22522
     22518     22516     22519     22520     22518     22516     22519     22521
     22518     22516     22519     22522     22519     22522     22525     22526
     22519     22522     22525     22527     22519     22522     22525     22528
     22520     22519     22522     22523     22520     22519     22522     22524
     22520     22519     22522     22525     22521     22519     22522     22523
     22521     22519     22522     22524     22521     22519     22522     22525
     22522     22525     22528     22529     22522     22525     22528     22530
     22523     22522     22525     22526     22523     22522     22525     22527
     22523     22522     22525     22528     22524     22522     22525     22526
     22524     22522     22525     22527     22524     22522     22525     22528
     22525     22528     22530     22531     22525     22528     22530     22532
     22526     22525     22528     22529     22526     22525     22528     22530
     22527     22525     22528     22529     22527     22525     22528     22530
     22528     22530     22532     22533     22528     22530     22532     22534
     22528     22530     22532     22535     22529     22528     22530     22531
     22529     22528     22530     22532     22530     22532     22535     22536
     22530     22532     22535     22537     22530     22532     22535     22538
     22531     22530     22532     22533     22531     22530     22532     22534
     22531     22530     22532     22535     22532     22535     22538     22539
     22532     22535     22538     22540     22532     22535     22538     22541
     22533     22532     22535     22536     22533     22532     22535     22537
     22533     22532     22535     22538     22534     22532     22535     22536
     22534     22532     22535     22537     22534     22532     22535     22538
     22535     22538     22541     22542     22535     22538     22541     22543
     22535     22538     22541     22544     22536     22535     22538     22539
     22536     22535     22538     22540     22536     22535     22538     22541
     22537     22535     22538     22539     22537     22535     22538     22540
     22537     22535     22538     22541     22538     22541     22544     22545
     22538     22541     22544     22546     22538     22541     22544     22547
     22539     22538     22541     22542     22539     22538     22541     22543
     22539     22538     22541     22544     22540     22538     22541     22542
     22540     22538     22541     22543     22540     22538     22541     22544
     22541     22544     22547     22548     22541     22544     22547     22549
     22541     22544     22547     22550     22542     22541     22544     22545
     22542     22541     22544     22546     22542     22541     22544     22547
     22543     22541     22544     22545     22543     22541     22544     22546
     22543     22541     22544     22547     22545     22544     22547     22548
     22545     22544     22547     22549     22545     22544     22547     22550
     22546     22544     22547     22548     22546     22544     22547     22549
     22546     22544     22547     22550     22551     22554     22557     22558
     22551     22554     22557     22559     22551     22554     22557     22560
     22552     22551     22554     22555     22552     22551     22554     22556
     22552     22551     22554     22557     22553     22551     22554     22555
     22553     22551     22554     22556     22553     22551     22554     22557
     22554     22557     22560     22561     22554     22557     22560     22562
     22554     22557     22560     22563     22555     22554     22557     22558
     22555     22554     22557     22559     22555     22554     22557     22560
     22556     22554     22557     22558     22556     22554     22557     22559
     22556     22554     22557     22560     22557     22560     22563     22564
     22557     22560     22563     22565     22557     22560     22563     22566
     22558     22557     22560     22561     22558     22557     22560     22562
     22558     22557     22560     22563     22559     22557     22560     22561
     22559     22557     22560     22562     22559     22557     22560     22563
     22560     22563     22566     22567     22560     22563     22566     22568
     22560     22563     22566     22569     22561     22560     22563     22564
     22561     22560     22563     22565     22561     22560     22563     22566
     22562     22560     22563     22564     22562     22560     22563     22565
     22562     22560     22563     22566     22563     22566     22569     22570
     22563     22566     22569     22571     22564     22563     22566     22567
     22564     22563     22566     22568     22564     22563     22566     22569
     22565     22563     22566     22567     22565     22563     22566     22568
     22565     22563     22566     22569     22566     22569     22571     22572
     22566     22569     22571     22573     22567     22566     22569     22570
     22567     22566     22569     22571     22568     22566     22569     22570
     22568     22566     22569     22571     22569     22571     22573     22574
     22569     22571     22573     22575     22569     22571     22573     22576
     22570     22569     22571     22572     22570     22569     22571     22573
     22571     22573     22576     22577     22571     22573     22576     22578
     22571     22573     22576     22579     22572     22571     22573     22574
     22572     22571     22573     22575     22572     22571     22573     22576
     22573     22576     22579     22580     22573     22576     22579     22581
     22573     22576     22579     22582     22574     22573     22576     22577
     22574     22573     22576     22578     22574     22573     22576     22579
     22575     22573     22576     22577     22575     22573     22576     22578
     22575     22573     22576     22579     22576     22579     22582     22583
     22576     22579     22582     22584     22576     22579     22582     22585
     22577     22576     22579     22580     22577     22576     22579     22581
     22577     22576     22579     22582     22578     22576     22579     22580
     22578     22576     22579     22581     22578     22576     22579     22582
     22579     22582     22585     22586     22579     22582     22585     22587
     22579     22582     22585     22588     22580     22579     22582     22583
     22580     22579     22582     22584     22580     22579     22582     22585
     22581     22579     22582     22583     22581     22579     22582     22584
     22581     22579     22582     22585     22582     22585     22588     22589
     22582     22585     22588     22590     22582     22585     22588     22591
     22583     22582     22585     22586     22583     22582     22585     22587
     22583     22582     22585     22588     22584     22582     22585     22586
     22584     22582     22585     22587     22584     22582     22585     22588
     22585     22588     22591     22592     22585     22588     22591     22593
     22585     22588     22591     22594     22586     22585     22588     22589
     22586     22585     22588     22590     22586     22585     22588     22591
     22587     22585     22588     22589     22587     22585     22588     22590
     22587     22585     22588     22591     22588     22591     22594     22595
     22588     22591     22594     22596     22588     22591     22594     22597
     22589     22588     22591     22592     22589     22588     22591     22593
     22589     22588     22591     22594     22590     22588     22591     22592
     22590     22588     22591     22593     22590     22588     22591     22594
     22592     22591     22594     22595     22592     22591     22594     22596
     22592     22591     22594     22597     22593     22591     22594     22595
     22593     22591     22594     22596     22593     22591     22594     22597
     22598     22602     22605     22606     22598     22602     22605     22607
     22598     22602     22605     22612     22599     22598     22602     22603
     22599     22598     22602     22604     22599     22598     22602     22605
     22600     22598     22602     22603     22600     22598     22602     22604
     22600     22598     22602     22605     22601     22598     22602     22603
     22601     22598     22602     22604     22601     22598     22602     22605
     22602     22605     22612     22608     22603     22602     22605     22606
     22603     22602     22605     22607     22603     22602     22605     22612
     22604     22602     22605     22606     22604     22602     22605     22607
     22604     22602     22605     22612     22605     22612     22608     22609
     22605     22612     22608     22610     22605     22612     22608     22611
     22606     22605     22612     22608     22607     22605     22612     22608
     22608     22611     22613     22614     22608     22611     22613     22615
     22608     22611     22613     22616     22609     22608     22611     22613
     22610     22608     22611     22613     22611     22613     22616     22617
     22611     22613     22616     22618     22611     22613     22616     22624
     22612     22608     22611     22613     22613     22616     22618     22619
     22613     22616     22624     22625     22613     22616     22624     22626
     22613     22616     22624     22627     22614     22613     22616     22617
     22614     22613     22616     22618     22614     22613     22616     22624
     22615     22613     22616     22617     22615     22613     22616     22618
     22615     22613     22616     22624     22616     22618     22619     22620
     22616     22618     22619     22621     22616     22624     22627     22628
     22617     22616     22618     22619     22617     22616     22624     22625
     22617     22616     22624     22626     22617     22616     22624     22627
     22618     22616     22624     22625     22618     22616     22624     22626
     22618     22616     22624     22627     22618     22619     22621     22622
     22618     22619     22621     22623     22618     22619     22621     22633
     22619     22618     22616     22624     22619     22621     22633     22634
     22619     22621     22633     22635     22619     22621     22633     22636
     22620     22619     22621     22622     22620     22619     22621     22623
     22620     22619     22621     22633     22621     22633     22636     22637
     22621     22633     22636     22638     22621     22633     22636     22639
     22622     22621     22633     22634     22622     22621     22633     22635
     22622     22621     22633     22636     22623     22621     22633     22634
     22623     22621     22633     22635     22623     22621     22633     22636
     22624     22627     22628     22629     22624     22627     22628     22630
     22625     22624     22627     22628     22626     22624     22627     22628
     22627     22628     22630     22631     22627     22628     22630     22632
     22627     22628     22630     22677     22628     22630     22677     22678
     22628     22630     22677     22679     22628     22630     22677     22680
     22629     22628     22630     22631     22629     22628     22630     22632
     22629     22628     22630     22677     22630     22677     22680     22681
     22630     22677     22680     22682     22630     22677     22680     22683
     22631     22630     22677     22678     22631     22630     22677     22679
     22631     22630     22677     22680     22632     22630     22677     22678
     22632     22630     22677     22679     22632     22630     22677     22680
     22633     22636     22639     22640     22633     22636     22639     22641
     22633     22636     22639     22642     22634     22633     22636     22637
     22634     22633     22636     22638     22634     22633     22636     22639
     22635     22633     22636     22637     22635     22633     22636     22638
     22635     22633     22636     22639     22636     22639     22642     22643
     22636     22639     22642     22644     22636     22639     22642     22645
     22637     22636     22639     22640     22637     22636     22639     22641
     22637     22636     22639     22642     22638     22636     22639     22640
     22638     22636     22639     22641     22638     22636     22639     22642
     22639     22642     22645     22646     22639     22642     22645     22647
     22639     22642     22645     22648     22640     22639     22642     22643
     22640     22639     22642     22644     22640     22639     22642     22645
     22641     22639     22642     22643     22641     22639     22642     22644
     22641     22639     22642     22645     22642     22645     22648     22649
     22642     22645     22648     22650     22642     22645     22648     22651
     22643     22642     22645     22646     22643     22642     22645     22647
     22643     22642     22645     22648     22644     22642     22645     22646
     22644     22642     22645     22647     22644     22642     22645     22648
     22645     22648     22651     22652     22645     22648     22651     22653
     22645     22648     22651     22656     22646     22645     22648     22649
     22646     22645     22648     22650     22646     22645     22648     22651
     22647     22645     22648     22649     22647     22645     22648     22650
     22647     22645     22648     22651     22648     22651     22653     22654
     22648     22651     22653     22655     22648     22651     22653     22656
     22648     22651     22656     22653     22648     22651     22656     22657
     22648     22651     22656     22658     22649     22648     22651     22652
     22649     22648     22651     22653     22649     22648     22651     22656
     22650     22648     22651     22652     22650     22648     22651     22653
     22650     22648     22651     22656     22651     22653     22656     22657
     22651     22653     22656     22658     22651     22656     22653     22654
     22651     22656     22653     22655     22651     22656     22658     22659
     22651     22656     22658     22660     22651     22656     22658     22661
     22652     22651     22653     22654     22652     22651     22653     22655
     22652     22651     22653     22656     22652     22651     22656     22653
     22652     22651     22656     22657     22652     22651     22656     22658
     22653     22651     22656     22657     22653     22651     22656     22658
     22653     22656     22658     22659     22653     22656     22658     22660
     22653     22656     22658     22661     22654     22653     22651     22656
     22654     22653     22656     22657     22654     22653     22656     22658
     22655     22653     22651     22656     22655     22653     22656     22657
     22655     22653     22656     22658     22656     22658     22661     22662
     22656     22658     22661     22663     22656     22658     22661     22664
     22657     22656     22658     22659     22657     22656     22658     22660
     22657     22656     22658     22661     22658     22661     22664     22665
     22658     22661     22664     22666     22658     22661     22664     22667
     22659     22658     22661     22662     22659     22658     22661     22663
     22659     22658     22661     22664     22660     22658     22661     22662
     22660     22658     22661     22663     22660     22658     22661     22664
     22661     22664     22667     22668     22661     22664     22667     22669
     22661     22664     22667     22670     22662     22661     22664     22665
     22662     22661     22664     22666     22662     22661     22664     22667
     22663     22661     22664     22665     22663     22661     22664     22666
     22663     22661     22664     22667     22664     22667     22670     22671
     22664     22667     22670     22672     22664     22667     22670     22673
     22665     22664     22667     22668     22665     22664     22667     22669
     22665     22664     22667     22670     22666     22664     22667     22668
     22666     22664     22667     22669     22666     22664     22667     22670
     22667     22670     22673     22674     22667     22670     22673     22675
     22667     22670     22673     22676     22668     22667     22670     22671
     22668     22667     22670     22672     22668     22667     22670     22673
     22669     22667     22670     22671     22669     22667     22670     22672
     22669     22667     22670     22673     22671     22670     22673     22674
     22671     22670     22673     22675     22671     22670     22673     22676
     22672     22670     22673     22674     22672     22670     22673     22675
     22672     22670     22673     22676     22677     22680     22683     22684
     22677     22680     22683     22685     22677     22680     22683     22686
     22678     22677     22680     22681     22678     22677     22680     22682
     22678     22677     22680     22683     22679     22677     22680     22681
     22679     22677     22680     22682     22679     22677     22680     22683
     22680     22683     22686     22687     22680     22683     22686     22688
     22680     22683     22686     22689     22681     22680     22683     22684
     22681     22680     22683     22685     22681     22680     22683     22686
     22682     22680     22683     22684     22682     22680     22683     22685
     22682     22680     22683     22686     22683     22686     22689     22690
     22683     22686     22689     22691     22683     22686     22689     22692
     22684     22683     22686     22687     22684     22683     22686     22688
     22684     22683     22686     22689     22685     22683     22686     22687
     22685     22683     22686     22688     22685     22683     22686     22689
     22686     22689     22692     22693     22686     22689     22692     22694
     22686     22689     22692     22695     22687     22686     22689     22690
     22687     22686     22689     22691     22687     22686     22689     22692
     22688     22686     22689     22690     22688     22686     22689     22691
     22688     22686     22689     22692     22689     22692     22695     22696
     22689     22692     22695     22697     22689     22692     22695     22698
     22690     22689     22692     22693     22690     22689     22692     22694
     22690     22689     22692     22695     22691     22689     22692     22693
     22691     22689     22692     22694     22691     22689     22692     22695
     22692     22695     22698     22699     22692     22695     22698     22700
     22692     22695     22698     22701     22693     22692     22695     22696
     22693     22692     22695     22697     22693     22692     22695     22698
     22694     22692     22695     22696     22694     22692     22695     22697
     22694     22692     22695     22698     22695     22698     22701     22702
     22695     22698     22701     22703     22695     22698     22701     22704
     22696     22695     22698     22699     22696     22695     22698     22700
     22696     22695     22698     22701     22697     22695     22698     22699
     22697     22695     22698     22700     22697     22695     22698     22701
     22698     22701     22704     22705     22698     22701     22704     22706
     22698     22701     22704     22707     22699     22698     22701     22702
     22699     22698     22701     22703     22699     22698     22701     22704
     22700     22698     22701     22702     22700     22698     22701     22703
     22700     22698     22701     22704     22701     22704     22707     22708
     22701     22704     22707     22709     22701     22704     22707     22710
     22702     22701     22704     22705     22702     22701     22704     22706
     22702     22701     22704     22707     22703     22701     22704     22705
     22703     22701     22704     22706     22703     22701     22704     22707
     22704     22707     22710     22711     22704     22707     22710     22712
     22704     22707     22710     22713     22705     22704     22707     22708
     22705     22704     22707     22709     22705     22704     22707     22710
     22706     22704     22707     22708     22706     22704     22707     22709
     22706     22704     22707     22710     22707     22710     22713     22714
     22707     22710     22713     22715     22707     22710     22713     22716
     22708     22707     22710     22711     22708     22707     22710     22712
     22708     22707     22710     22713     22709     22707     22710     22711
     22709     22707     22710     22712     22709     22707     22710     22713
     22710     22713     22716     22717     22710     22713     22716     22718
     22710     22713     22716     22719     22711     22710     22713     22714
     22711     22710     22713     22715     22711     22710     22713     22716
     22712     22710     22713     22714     22712     22710     22713     22715
     22712     22710     22713     22716     22714     22713     22716     22717
     22714     22713     22716     22718     22714     22713     22716     22719
     22715     22713     22716     22717     22715     22713     22716     22718
     22715     22713     22716     22719     22720     22724     22727     22728
     22720     22724     22727     22729     22720     22724     22727     22734
     22721     22720     22724     22725     22721     22720     22724     22726
     22721     22720     22724     22727     22722     22720     22724     22725
     22722     22720     22724     22726     22722     22720     22724     22727
     22723     22720     22724     22725     22723     22720     22724     22726
     22723     22720     22724     22727     22724     22727     22734     22730
     22725     22724     22727     22728     22725     22724     22727     22729
     22725     22724     22727     22734     22726     22724     22727     22728
     22726     22724     22727     22729     22726     22724     22727     22734
     22727     22734     22730     22731     22727     22734     22730     22732
     22727     22734     22730     22733     22728     22727     22734     22730
     22729     22727     22734     22730     22730     22733     22735     22736
     22730     22733     22735     22737     22730     22733     22735     22738
     22731     22730     22733     22735     22732     22730     22733     22735
     22733     22735     22738     22739     22733     22735     22738     22740
     22733     22735     22738     22746     22734     22730     22733     22735
     22735     22738     22740     22741     22735     22738     22746     22747
     22735     22738     22746     22748     22735     22738     22746     22749
     22736     22735     22738     22739     22736     22735     22738     22740
     22736     22735     22738     22746     22737     22735     22738     22739
     22737     22735     22738     22740     22737     22735     22738     22746
     22738     22740     22741     22742     22738     22740     22741     22743
     22738     22746     22749     22750     22739     22738     22740     22741
     22739     22738     22746     22747     22739     22738     22746     22748
     22739     22738     22746     22749     22740     22738     22746     22747
     22740     22738     22746     22748     22740     22738     22746     22749
     22740     22741     22743     22744     22740     22741     22743     22745
     22740     22741     22743     22755     22741     22740     22738     22746
     22741     22743     22755     22756     22741     22743     22755     22757
     22741     22743     22755     22758     22742     22741     22743     22744
     22742     22741     22743     22745     22742     22741     22743     22755
     22743     22755     22758     22759     22743     22755     22758     22760
     22743     22755     22758     22761     22744     22743     22755     22756
     22744     22743     22755     22757     22744     22743     22755     22758
     22745     22743     22755     22756     22745     22743     22755     22757
     22745     22743     22755     22758     22746     22749     22750     22751
     22746     22749     22750     22752     22747     22746     22749     22750
     22748     22746     22749     22750     22749     22750     22752     22753
     22749     22750     22752     22754     22749     22750     22752     22799
     22750     22752     22799     22800     22750     22752     22799     22801
     22750     22752     22799     22802     22751     22750     22752     22753
     22751     22750     22752     22754     22751     22750     22752     22799
     22752     22799     22802     22803     22752     22799     22802     22804
     22752     22799     22802     22805     22753     22752     22799     22800
     22753     22752     22799     22801     22753     22752     22799     22802
     22754     22752     22799     22800     22754     22752     22799     22801
     22754     22752     22799     22802     22755     22758     22761     22762
     22755     22758     22761     22763     22755     22758     22761     22764
     22756     22755     22758     22759     22756     22755     22758     22760
     22756     22755     22758     22761     22757     22755     22758     22759
     22757     22755     22758     22760     22757     22755     22758     22761
     22758     22761     22764     22765     22758     22761     22764     22766
     22758     22761     22764     22767     22759     22758     22761     22762
     22759     22758     22761     22763     22759     22758     22761     22764
     22760     22758     22761     22762     22760     22758     22761     22763
     22760     22758     22761     22764     22761     22764     22767     22768
     22761     22764     22767     22769     22761     22764     22767     22770
     22762     22761     22764     22765     22762     22761     22764     22766
     22762     22761     22764     22767     22763     22761     22764     22765
     22763     22761     22764     22766     22763     22761     22764     22767
     22764     22767     22770     22771     22764     22767     22770     22772
     22764     22767     22770     22773     22765     22764     22767     22768
     22765     22764     22767     22769     22765     22764     22767     22770
     22766     22764     22767     22768     22766     22764     22767     22769
     22766     22764     22767     22770     22767     22770     22773     22774
     22767     22770     22773     22775     22767     22770     22773     22778
     22768     22767     22770     22771     22768     22767     22770     22772
     22768     22767     22770     22773     22769     22767     22770     22771
     22769     22767     22770     22772     22769     22767     22770     22773
     22770     22773     22775     22776     22770     22773     22775     22777
     22770     22773     22775     22778     22770     22773     22778     22775
     22770     22773     22778     22779     22770     22773     22778     22780
     22771     22770     22773     22774     22771     22770     22773     22775
     22771     22770     22773     22778     22772     22770     22773     22774
     22772     22770     22773     22775     22772     22770     22773     22778
     22773     22775     22778     22779     22773     22775     22778     22780
     22773     22778     22775     22776     22773     22778     22775     22777
     22773     22778     22780     22781     22773     22778     22780     22782
     22773     22778     22780     22783     22774     22773     22775     22776
     22774     22773     22775     22777     22774     22773     22775     22778
     22774     22773     22778     22775     22774     22773     22778     22779
     22774     22773     22778     22780     22775     22773     22778     22779
     22775     22773     22778     22780     22775     22778     22780     22781
     22775     22778     22780     22782     22775     22778     22780     22783
     22776     22775     22773     22778     22776     22775     22778     22779
     22776     22775     22778     22780     22777     22775     22773     22778
     22777     22775     22778     22779     22777     22775     22778     22780
     22778     22780     22783     22784     22778     22780     22783     22785
     22778     22780     22783     22786     22779     22778     22780     22781
     22779     22778     22780     22782     22779     22778     22780     22783
     22780     22783     22786     22787     22780     22783     22786     22788
     22780     22783     22786     22789     22781     22780     22783     22784
     22781     22780     22783     22785     22781     22780     22783     22786
     22782     22780     22783     22784     22782     22780     22783     22785
     22782     22780     22783     22786     22783     22786     22789     22790
     22783     22786     22789     22791     22783     22786     22789     22792
     22784     22783     22786     22787     22784     22783     22786     22788
     22784     22783     22786     22789     22785     22783     22786     22787
     22785     22783     22786     22788     22785     22783     22786     22789
     22786     22789     22792     22793     22786     22789     22792     22794
     22786     22789     22792     22795     22787     22786     22789     22790
     22787     22786     22789     22791     22787     22786     22789     22792
     22788     22786     22789     22790     22788     22786     22789     22791
     22788     22786     22789     22792     22789     22792     22795     22796
     22789     22792     22795     22797     22789     22792     22795     22798
     22790     22789     22792     22793     22790     22789     22792     22794
     22790     22789     22792     22795     22791     22789     22792     22793
     22791     22789     22792     22794     22791     22789     22792     22795
     22793     22792     22795     22796     22793     22792     22795     22797
     22793     22792     22795     22798     22794     22792     22795     22796
     22794     22792     22795     22797     22794     22792     22795     22798
     22799     22802     22805     22806     22799     22802     22805     22807
     22799     22802     22805     22808     22800     22799     22802     22803
     22800     22799     22802     22804     22800     22799     22802     22805
     22801     22799     22802     22803     22801     22799     22802     22804
     22801     22799     22802     22805     22802     22805     22808     22809
     22802     22805     22808     22810     22802     22805     22808     22811
     22803     22802     22805     22806     22803     22802     22805     22807
     22803     22802     22805     22808     22804     22802     22805     22806
     22804     22802     22805     22807     22804     22802     22805     22808
     22805     22808     22811     22812     22805     22808     22811     22813
     22805     22808     22811     22814     22806     22805     22808     22809
     22806     22805     22808     22810     22806     22805     22808     22811
     22807     22805     22808     22809     22807     22805     22808     22810
     22807     22805     22808     22811     22808     22811     22814     22815
     22808     22811     22814     22816     22808     22811     22814     22817
     22809     22808     22811     22812     22809     22808     22811     22813
     22809     22808     22811     22814     22810     22808     22811     22812
     22810     22808     22811     22813     22810     22808     22811     22814
     22811     22814     22817     22818     22811     22814     22817     22819
     22811     22814     22817     22820     22812     22811     22814     22815
     22812     22811     22814     22816     22812     22811     22814     22817
     22813     22811     22814     22815     22813     22811     22814     22816
     22813     22811     22814     22817     22814     22817     22820     22821
     22814     22817     22820     22822     22814     22817     22820     22823
     22815     22814     22817     22818     22815     22814     22817     22819
     22815     22814     22817     22820     22816     22814     22817     22818
     22816     22814     22817     22819     22816     22814     22817     22820
     22817     22820     22823     22824     22817     22820     22823     22825
     22817     22820     22823     22826     22818     22817     22820     22821
     22818     22817     22820     22822     22818     22817     22820     22823
     22819     22817     22820     22821     22819     22817     22820     22822
     22819     22817     22820     22823     22820     22823     22826     22827
     22820     22823     22826     22828     22820     22823     22826     22829
     22821     22820     22823     22824     22821     22820     22823     22825
     22821     22820     22823     22826     22822     22820     22823     22824
     22822     22820     22823     22825     22822     22820     22823     22826
     22823     22826     22829     22830     22823     22826     22829     22831
     22823     22826     22829     22832     22824     22823     22826     22827
     22824     22823     22826     22828     22824     22823     22826     22829
     22825     22823     22826     22827     22825     22823     22826     22828
     22825     22823     22826     22829     22826     22829     22832     22833
     22826     22829     22832     22834     22826     22829     22832     22835
     22827     22826     22829     22830     22827     22826     22829     22831
     22827     22826     22829     22832     22828     22826     22829     22830
     22828     22826     22829     22831     22828     22826     22829     22832
     22829     22832     22835     22836     22829     22832     22835     22837
     22829     22832     22835     22838     22830     22829     22832     22833
     22830     22829     22832     22834     22830     22829     22832     22835
     22831     22829     22832     22833     22831     22829     22832     22834
     22831     22829     22832     22835     22833     22832     22835     22836
     22833     22832     22835     22837     22833     22832     22835     22838
     22834     22832     22835     22836     22834     22832     22835     22837
     22834     22832     22835     22838     22839     22844     22846     22847
     22839     22844     22848     22849     22839     22844     22848     22850
     22839     22844     22848     22855     22840     22839     22842     22843
     22840     22839     22844     22845     22840     22839     22844     22846
     22840     22839     22844     22848     22841     22839     22842     22843
     22841     22839     22844     22845     22841     22839     22844     22846
     22841     22839     22844     22848     22842     22839     22844     22845
     22842     22839     22844     22846     22842     22839     22844     22848
     22843     22842     22839     22844     22844     22848     22855     22851
     22845     22844     22846     22847     22845     22844     22848     22849
     22845     22844     22848     22850     22845     22844     22848     22855
     22846     22844     22848     22849     22846     22844     22848     22850
     22846     22844     22848     22855     22847     22846     22844     22848
     22848     22855     22851     22852     22848     22855     22851     22853
     22848     22855     22851     22854     22849     22848     22855     22851
     22850     22848     22855     22851     22851     22854     22856     22857
     22851     22854     22856     22858     22851     22854     22856     22859
     22852     22851     22854     22856     22853     22851     22854     22856
     22854     22856     22859     22860     22854     22856     22859     22861
     22854     22856     22859     22867     22855     22851     22854     22856
     22856     22859     22861     22862     22856     22859     22867     22868
     22856     22859     22867     22869     22856     22859     22867     22870
     22857     22856     22859     22860     22857     22856     22859     22861
     22857     22856     22859     22867     22858     22856     22859     22860
     22858     22856     22859     22861     22858     22856     22859     22867
     22859     22861     22862     22863     22859     22861     22862     22864
     22859     22867     22870     22871     22860     22859     22861     22862
     22860     22859     22867     22868     22860     22859     22867     22869
     22860     22859     22867     22870     22861     22859     22867     22868
     22861     22859     22867     22869     22861     22859     22867     22870
     22861     22862     22864     22865     22861     22862     22864     22866
     22861     22862     22864     22876     22862     22861     22859     22867
     22862     22864     22876     22877     22862     22864     22876     22878
     22862     22864     22876     22879     22863     22862     22864     22865
     22863     22862     22864     22866     22863     22862     22864     22876
     22864     22876     22879     22880     22864     22876     22879     22881
     22864     22876     22879     22882     22865     22864     22876     22877
     22865     22864     22876     22878     22865     22864     22876     22879
     22866     22864     22876     22877     22866     22864     22876     22878
     22866     22864     22876     22879     22867     22870     22871     22872
     22867     22870     22871     22873     22868     22867     22870     22871
     22869     22867     22870     22871     22870     22871     22873     22874
     22870     22871     22873     22875     22870     22871     22873     22920
     22871     22873     22920     22921     22871     22873     22920     22922
     22871     22873     22920     22923     22872     22871     22873     22874
     22872     22871     22873     22875     22872     22871     22873     22920
     22873     22920     22923     22924     22873     22920     22923     22925
     22873     22920     22923     22926     22874     22873     22920     22921
     22874     22873     22920     22922     22874     22873     22920     22923
     22875     22873     22920     22921     22875     22873     22920     22922
     22875     22873     22920     22923     22876     22879     22882     22883
     22876     22879     22882     22884     22876     22879     22882     22885
     22877     22876     22879     22880     22877     22876     22879     22881
     22877     22876     22879     22882     22878     22876     22879     22880
     22878     22876     22879     22881     22878     22876     22879     22882
     22879     22882     22885     22886     22879     22882     22885     22887
     22879     22882     22885     22888     22880     22879     22882     22883
     22880     22879     22882     22884     22880     22879     22882     22885
     22881     22879     22882     22883     22881     22879     22882     22884
     22881     22879     22882     22885     22882     22885     22888     22889
     22882     22885     22888     22890     22882     22885     22888     22891
     22883     22882     22885     22886     22883     22882     22885     22887
     22883     22882     22885     22888     22884     22882     22885     22886
     22884     22882     22885     22887     22884     22882     22885     22888
     22885     22888     22891     22892     22885     22888     22891     22893
     22885     22888     22891     22894     22886     22885     22888     22889
     22886     22885     22888     22890     22886     22885     22888     22891
     22887     22885     22888     22889     22887     22885     22888     22890
     22887     22885     22888     22891     22888     22891     22894     22895
     22888     22891     22894     22896     22888     22891     22894     22899
     22889     22888     22891     22892     22889     22888     22891     22893
     22889     22888     22891     22894     22890     22888     22891     22892
     22890     22888     22891     22893     22890     22888     22891     22894
     22891     22894     22896     22897     22891     22894     22896     22898
     22891     22894     22896     22899     22891     22894     22899     22896
     22891     22894     22899     22900     22891     22894     22899     22901
     22892     22891     22894     22895     22892     22891     22894     22896
     22892     22891     22894     22899     22893     22891     22894     22895
     22893     22891     22894     22896     22893     22891     22894     22899
     22894     22896     22899     22900     22894     22896     22899     22901
     22894     22899     22896     22897     22894     22899     22896     22898
     22894     22899     22901     22902     22894     22899     22901     22903
     22894     22899     22901     22904     22895     22894     22896     22897
     22895     22894     22896     22898     22895     22894     22896     22899
     22895     22894     22899     22896     22895     22894     22899     22900
     22895     22894     22899     22901     22896     22894     22899     22900
     22896     22894     22899     22901     22896     22899     22901     22902
     22896     22899     22901     22903     22896     22899     22901     22904
     22897     22896     22894     22899     22897     22896     22899     22900
     22897     22896     22899     22901     22898     22896     22894     22899
     22898     22896     22899     22900     22898     22896     22899     22901
     22899     22901     22904     22905     22899     22901     22904     22906
     22899     22901     22904     22907     22900     22899     22901     22902
     22900     22899     22901     22903     22900     22899     22901     22904
     22901     22904     22907     22908     22901     22904     22907     22909
     22901     22904     22907     22910     22902     22901     22904     22905
     22902     22901     22904     22906     22902     22901     22904     22907
     22903     22901     22904     22905     22903     22901     22904     22906
     22903     22901     22904     22907     22904     22907     22910     22911
     22904     22907     22910     22912     22904     22907     22910     22913
     22905     22904     22907     22908     22905     22904     22907     22909
     22905     22904     22907     22910     22906     22904     22907     22908
     22906     22904     22907     22909     22906     22904     22907     22910
     22907     22910     22913     22914     22907     22910     22913     22915
     22907     22910     22913     22916     22908     22907     22910     22911
     22908     22907     22910     22912     22908     22907     22910     22913
     22909     22907     22910     22911     22909     22907     22910     22912
     22909     22907     22910     22913     22910     22913     22916     22917
     22910     22913     22916     22918     22910     22913     22916     22919
     22911     22910     22913     22914     22911     22910     22913     22915
     22911     22910     22913     22916     22912     22910     22913     22914
     22912     22910     22913     22915     22912     22910     22913     22916
     22914     22913     22916     22917     22914     22913     22916     22918
     22914     22913     22916     22919     22915     22913     22916     22917
     22915     22913     22916     22918     22915     22913     22916     22919
     22920     22923     22926     22927     22920     22923     22926     22928
     22920     22923     22926     22929     22921     22920     22923     22924
     22921     22920     22923     22925     22921     22920     22923     22926
     22922     22920     22923     22924     22922     22920     22923     22925
     22922     22920     22923     22926     22923     22926     22929     22930
     22923     22926     22929     22931     22923     22926     22929     22932
     22924     22923     22926     22927     22924     22923     22926     22928
     22924     22923     22926     22929     22925     22923     22926     22927
     22925     22923     22926     22928     22925     22923     22926     22929
     22926     22929     22932     22933     22926     22929     22932     22934
     22926     22929     22932     22935     22927     22926     22929     22930
     22927     22926     22929     22931     22927     22926     22929     22932
     22928     22926     22929     22930     22928     22926     22929     22931
     22928     22926     22929     22932     22929     22932     22935     22936
     22929     22932     22935     22937     22929     22932     22935     22938
     22930     22929     22932     22933     22930     22929     22932     22934
     22930     22929     22932     22935     22931     22929     22932     22933
     22931     22929     22932     22934     22931     22929     22932     22935
     22932     22935     22938     22939     22932     22935     22938     22940
     22932     22935     22938     22941     22933     22932     22935     22936
     22933     22932     22935     22937     22933     22932     22935     22938
     22934     22932     22935     22936     22934     22932     22935     22937
     22934     22932     22935     22938     22935     22938     22941     22942
     22935     22938     22941     22943     22935     22938     22941     22944
     22936     22935     22938     22939     22936     22935     22938     22940
     22936     22935     22938     22941     22937     22935     22938     22939
     22937     22935     22938     22940     22937     22935     22938     22941
     22938     22941     22944     22945     22938     22941     22944     22946
     22938     22941     22944     22947     22939     22938     22941     22942
     22939     22938     22941     22943     22939     22938     22941     22944
     22940     22938     22941     22942     22940     22938     22941     22943
     22940     22938     22941     22944     22941     22944     22947     22948
     22941     22944     22947     22949     22941     22944     22947     22950
     22942     22941     22944     22945     22942     22941     22944     22946
     22942     22941     22944     22947     22943     22941     22944     22945
     22943     22941     22944     22946     22943     22941     22944     22947
     22944     22947     22950     22951     22944     22947     22950     22952
     22944     22947     22950     22953     22945     22944     22947     22948
     22945     22944     22947     22949     22945     22944     22947     22950
     22946     22944     22947     22948     22946     22944     22947     22949
     22946     22944     22947     22950     22947     22950     22953     22954
     22947     22950     22953     22955     22947     22950     22953     22956
     22948     22947     22950     22951     22948     22947     22950     22952
     22948     22947     22950     22953     22949     22947     22950     22951
     22949     22947     22950     22952     22949     22947     22950     22953
     22950     22953     22956     22957     22950     22953     22956     22958
     22950     22953     22956     22959     22951     22950     22953     22954
     22951     22950     22953     22955     22951     22950     22953     22956
     22952     22950     22953     22954     22952     22950     22953     22955
     22952     22950     22953     22956     22953     22956     22959     22960
     22953     22956     22959     22961     22953     22956     22959     22962
     22954     22953     22956     22957     22954     22953     22956     22958
     22954     22953     22956     22959     22955     22953     22956     22957
     22955     22953     22956     22958     22955     22953     22956     22959
     22957     22956     22959     22960     22957     22956     22959     22961
     22957     22956     22959     22962     22958     22956     22959     22960
     22958     22956     22959     22961     22958     22956     22959     22962
     22963     22967     22970     22971     22963     22967     22970     22972
     22963     22967     22970     22977     22964     22963     22967     22968
     22964     22963     22967     22969     22964     22963     22967     22970
     22965     22963     22967     22968     22965     22963     22967     22969
     22965     22963     22967     22970     22966     22963     22967     22968
     22966     22963     22967     22969     22966     22963     22967     22970
     22967     22970     22977     22973     22968     22967     22970     22971
     22968     22967     22970     22972     22968     22967     22970     22977
     22969     22967     22970     22971     22969     22967     22970     22972
     22969     22967     22970     22977     22970     22977     22973     22974
     22970     22977     22973     22975     22970     22977     22973     22976
     22971     22970     22977     22973     22972     22970     22977     22973
     22973     22976     22978     22979     22973     22976     22978     22980
     22973     22976     22978     22981     22974     22973     22976     22978
     22975     22973     22976     22978     22976     22978     22981     22982
     22976     22978     22981     22983     22976     22978     22981     22989
     22977     22973     22976     22978     22978     22981     22983     22984
     22978     22981     22989     22990     22978     22981     22989     22991
     22978     22981     22989     22992     22979     22978     22981     22982
     22979     22978     22981     22983     22979     22978     22981     22989
     22980     22978     22981     22982     22980     22978     22981     22983
     22980     22978     22981     22989     22981     22983     22984     22985
     22981     22983     22984     22986     22981     22989     22992     22993
     22982     22981     22983     22984     22982     22981     22989     22990
     22982     22981     22989     22991     22982     22981     22989     22992
     22983     22981     22989     22990     22983     22981     22989     22991
     22983     22981     22989     22992     22983     22984     22986     22987
     22983     22984     22986     22988     22983     22984     22986     22998
     22984     22983     22981     22989     22984     22986     22998     22999
     22984     22986     22998     23000     22984     22986     22998     23001
     22985     22984     22986     22987     22985     22984     22986     22988
     22985     22984     22986     22998     22986     22998     23001     23002
     22986     22998     23001     23003     22986     22998     23001     23004
     22987     22986     22998     22999     22987     22986     22998     23000
     22987     22986     22998     23001     22988     22986     22998     22999
     22988     22986     22998     23000     22988     22986     22998     23001
     22989     22992     22993     22994     22989     22992     22993     22995
     22990     22989     22992     22993     22991     22989     22992     22993
     22992     22993     22995     22996     22992     22993     22995     22997
     22992     22993     22995     23042     22993     22995     23042     23043
     22993     22995     23042     23044     22993     22995     23042     23045
     22994     22993     22995     22996     22994     22993     22995     22997
     22994     22993     22995     23042     22995     23042     23045     23046
     22995     23042     23045     23047     22995     23042     23045     23048
     22996     22995     23042     23043     22996     22995     23042     23044
     22996     22995     23042     23045     22997     22995     23042     23043
     22997     22995     23042     23044     22997     22995     23042     23045
     22998     23001     23004     23005     22998     23001     23004     23006
     22998     23001     23004     23007     22999     22998     23001     23002
     22999     22998     23001     23003     22999     22998     23001     23004
     23000     22998     23001     23002     23000     22998     23001     23003
     23000     22998     23001     23004     23001     23004     23007     23008
     23001     23004     23007     23009     23001     23004     23007     23010
     23002     23001     23004     23005     23002     23001     23004     23006
     23002     23001     23004     23007     23003     23001     23004     23005
     23003     23001     23004     23006     23003     23001     23004     23007
     23004     23007     23010     23011     23004     23007     23010     23012
     23004     23007     23010     23013     23005     23004     23007     23008
     23005     23004     23007     23009     23005     23004     23007     23010
     23006     23004     23007     23008     23006     23004     23007     23009
     23006     23004     23007     23010     23007     23010     23013     23014
     23007     23010     23013     23015     23007     23010     23013     23016
     23008     23007     23010     23011     23008     23007     23010     23012
     23008     23007     23010     23013     23009     23007     23010     23011
     23009     23007     23010     23012     23009     23007     23010     23013
     23010     23013     23016     23017     23010     23013     23016     23018
     23010     23013     23016     23021     23011     23010     23013     23014
     23011     23010     23013     23015     23011     23010     23013     23016
     23012     23010     23013     23014     23012     23010     23013     23015
     23012     23010     23013     23016     23013     23016     23018     23019
     23013     23016     23018     23020     23013     23016     23018     23021
     23013     23016     23021     23018     23013     23016     23021     23022
     23013     23016     23021     23023     23014     23013     23016     23017
     23014     23013     23016     23018     23014     23013     23016     23021
     23015     23013     23016     23017     23015     23013     23016     23018
     23015     23013     23016     23021     23016     23018     23021     23022
     23016     23018     23021     23023     23016     23021     23018     23019
     23016     23021     23018     23020     23016     23021     23023     23024
     23016     23021     23023     23025     23016     23021     23023     23026
     23017     23016     23018     23019     23017     23016     23018     23020
     23017     23016     23018     23021     23017     23016     23021     23018
     23017     23016     23021     23022     23017     23016     23021     23023
     23018     23016     23021     23022     23018     23016     23021     23023
     23018     23021     23023     23024     23018     23021     23023     23025
     23018     23021     23023     23026     23019     23018     23016     23021
     23019     23018     23021     23022     23019     23018     23021     23023
     23020     23018     23016     23021     23020     23018     23021     23022
     23020     23018     23021     23023     23021     23023     23026     23027
     23021     23023     23026     23028     23021     23023     23026     23029
     23022     23021     23023     23024     23022     23021     23023     23025
     23022     23021     23023     23026     23023     23026     23029     23030
     23023     23026     23029     23031     23023     23026     23029     23032
     23024     23023     23026     23027     23024     23023     23026     23028
     23024     23023     23026     23029     23025     23023     23026     23027
     23025     23023     23026     23028     23025     23023     23026     23029
     23026     23029     23032     23033     23026     23029     23032     23034
     23026     23029     23032     23035     23027     23026     23029     23030
     23027     23026     23029     23031     23027     23026     23029     23032
     23028     23026     23029     23030     23028     23026     23029     23031
     23028     23026     23029     23032     23029     23032     23035     23036
     23029     23032     23035     23037     23029     23032     23035     23038
     23030     23029     23032     23033     23030     23029     23032     23034
     23030     23029     23032     23035     23031     23029     23032     23033
     23031     23029     23032     23034     23031     23029     23032     23035
     23032     23035     23038     23039     23032     23035     23038     23040
     23032     23035     23038     23041     23033     23032     23035     23036
     23033     23032     23035     23037     23033     23032     23035     23038
     23034     23032     23035     23036     23034     23032     23035     23037
     23034     23032     23035     23038     23036     23035     23038     23039
     23036     23035     23038     23040     23036     23035     23038     23041
     23037     23035     23038     23039     23037     23035     23038     23040
     23037     23035     23038     23041     23042     23045     23048     23049
     23042     23045     23048     23050     23042     23045     23048     23051
     23043     23042     23045     23046     23043     23042     23045     23047
     23043     23042     23045     23048     23044     23042     23045     23046
     23044     23042     23045     23047     23044     23042     23045     23048
     23045     23048     23051     23052     23045     23048     23051     23053
     23045     23048     23051     23054     23046     23045     23048     23049
     23046     23045     23048     23050     23046     23045     23048     23051
     23047     23045     23048     23049     23047     23045     23048     23050
     23047     23045     23048     23051     23048     23051     23054     23055
     23048     23051     23054     23056     23048     23051     23054     23057
     23049     23048     23051     23052     23049     23048     23051     23053
     23049     23048     23051     23054     23050     23048     23051     23052
     23050     23048     23051     23053     23050     23048     23051     23054
     23051     23054     23057     23058     23051     23054     23057     23059
     23051     23054     23057     23060     23052     23051     23054     23055
     23052     23051     23054     23056     23052     23051     23054     23057
     23053     23051     23054     23055     23053     23051     23054     23056
     23053     23051     23054     23057     23054     23057     23060     23061
     23054     23057     23060     23062     23054     23057     23060     23063
     23055     23054     23057     23058     23055     23054     23057     23059
     23055     23054     23057     23060     23056     23054     23057     23058
     23056     23054     23057     23059     23056     23054     23057     23060
     23057     23060     23063     23064     23057     23060     23063     23065
     23057     23060     23063     23066     23058     23057     23060     23061
     23058     23057     23060     23062     23058     23057     23060     23063
     23059     23057     23060     23061     23059     23057     23060     23062
     23059     23057     23060     23063     23060     23063     23066     23067
     23060     23063     23066     23068     23060     23063     23066     23069
     23061     23060     23063     23064     23061     23060     23063     23065
     23061     23060     23063     23066     23062     23060     23063     23064
     23062     23060     23063     23065     23062     23060     23063     23066
     23063     23066     23069     23070     23063     23066     23069     23071
     23063     23066     23069     23072     23064     23063     23066     23067
     23064     23063     23066     23068     23064     23063     23066     23069
     23065     23063     23066     23067     23065     23063     23066     23068
     23065     23063     23066     23069     23066     23069     23072     23073
     23066     23069     23072     23074     23066     23069     23072     23075
     23067     23066     23069     23070     23067     23066     23069     23071
     23067     23066     23069     23072     23068     23066     23069     23070
     23068     23066     23069     23071     23068     23066     23069     23072
     23069     23072     23075     23076     23069     23072     23075     23077
     23069     23072     23075     23078     23070     23069     23072     23073
     23070     23069     23072     23074     23070     23069     23072     23075
     23071     23069     23072     23073     23071     23069     23072     23074
     23071     23069     23072     23075     23072     23075     23078     23079
     23072     23075     23078     23080     23072     23075     23078     23081
     23073     23072     23075     23076     23073     23072     23075     23077
     23073     23072     23075     23078     23074     23072     23075     23076
     23074     23072     23075     23077     23074     23072     23075     23078
     23075     23078     23081     23082     23075     23078     23081     23083
     23075     23078     23081     23084     23076     23075     23078     23079
     23076     23075     23078     23080     23076     23075     23078     23081
     23077     23075     23078     23079     23077     23075     23078     23080
     23077     23075     23078     23081     23079     23078     23081     23082
     23079     23078     23081     23083     23079     23078     23081     23084
     23080     23078     23081     23082     23080     23078     23081     23083
     23080     23078     23081     23084     23085     23089     23092     23093
     23085     23089     23092     23094     23085     23089     23092     23099
     23086     23085     23089     23090     23086     23085     23089     23091
     23086     23085     23089     23092     23087     23085     23089     23090
     23087     23085     23089     23091     23087     23085     23089     23092
     23088     23085     23089     23090     23088     23085     23089     23091
     23088     23085     23089     23092     23089     23092     23099     23095
     23090     23089     23092     23093     23090     23089     23092     23094
     23090     23089     23092     23099     23091     23089     23092     23093
     23091     23089     23092     23094     23091     23089     23092     23099
     23092     23099     23095     23096     23092     23099     23095     23097
     23092     23099     23095     23098     23093     23092     23099     23095
     23094     23092     23099     23095     23095     23098     23100     23101
     23095     23098     23100     23102     23095     23098     23100     23103
     23096     23095     23098     23100     23097     23095     23098     23100
     23098     23100     23103     23104     23098     23100     23103     23105
     23098     23100     23103     23111     23099     23095     23098     23100
     23100     23103     23105     23106     23100     23103     23111     23112
     23100     23103     23111     23113     23100     23103     23111     23114
     23101     23100     23103     23104     23101     23100     23103     23105
     23101     23100     23103     23111     23102     23100     23103     23104
     23102     23100     23103     23105     23102     23100     23103     23111
     23103     23105     23106     23107     23103     23105     23106     23108
     23103     23111     23114     23115     23104     23103     23105     23106
     23104     23103     23111     23112     23104     23103     23111     23113
     23104     23103     23111     23114     23105     23103     23111     23112
     23105     23103     23111     23113     23105     23103     23111     23114
     23105     23106     23108     23109     23105     23106     23108     23110
     23105     23106     23108     23120     23106     23105     23103     23111
     23106     23108     23120     23121     23106     23108     23120     23122
     23106     23108     23120     23123     23107     23106     23108     23109
     23107     23106     23108     23110     23107     23106     23108     23120
     23108     23120     23123     23124     23108     23120     23123     23125
     23108     23120     23123     23126     23109     23108     23120     23121
     23109     23108     23120     23122     23109     23108     23120     23123
     23110     23108     23120     23121     23110     23108     23120     23122
     23110     23108     23120     23123     23111     23114     23115     23116
     23111     23114     23115     23117     23112     23111     23114     23115
     23113     23111     23114     23115     23114     23115     23117     23118
     23114     23115     23117     23119     23114     23115     23117     23167
     23115     23117     23167     23168     23115     23117     23167     23169
     23115     23117     23167     23170     23116     23115     23117     23118
     23116     23115     23117     23119     23116     23115     23117     23167
     23117     23167     23170     23171     23117     23167     23170     23172
     23117     23167     23170     23173     23118     23117     23167     23168
     23118     23117     23167     23169     23118     23117     23167     23170
     23119     23117     23167     23168     23119     23117     23167     23169
     23119     23117     23167     23170     23120     23123     23126     23127
     23120     23123     23126     23128     23120     23123     23126     23129
     23121     23120     23123     23124     23121     23120     23123     23125
     23121     23120     23123     23126     23122     23120     23123     23124
     23122     23120     23123     23125     23122     23120     23123     23126
     23123     23126     23129     23130     23123     23126     23129     23131
     23123     23126     23129     23132     23124     23123     23126     23127
     23124     23123     23126     23128     23124     23123     23126     23129
     23125     23123     23126     23127     23125     23123     23126     23128
     23125     23123     23126     23129     23126     23129     23132     23133
     23126     23129     23132     23134     23126     23129     23132     23135
     23127     23126     23129     23130     23127     23126     23129     23131
     23127     23126     23129     23132     23128     23126     23129     23130
     23128     23126     23129     23131     23128     23126     23129     23132
     23129     23132     23135     23136     23129     23132     23135     23137
     23129     23132     23135     23138     23130     23129     23132     23133
     23130     23129     23132     23134     23130     23129     23132     23135
     23131     23129     23132     23133     23131     23129     23132     23134
     23131     23129     23132     23135     23132     23135     23138     23139
     23132     23135     23138     23140     23133     23132     23135     23136
     23133     23132     23135     23137     23133     23132     23135     23138
     23134     23132     23135     23136     23134     23132     23135     23137
     23134     23132     23135     23138     23135     23138     23140     23141
     23135     23138     23140     23142     23136     23135     23138     23139
     23136     23135     23138     23140     23137     23135     23138     23139
     23137     23135     23138     23140     23138     23140     23142     23143
     23138     23140     23142     23144     23138     23140     23142     23145
     23139     23138     23140     23141     23139     23138     23140     23142
     23140     23142     23145     23146     23140     23142     23145     23147
     23140     23142     23145     23148     23141     23140     23142     23143
     23141     23140     23142     23144     23141     23140     23142     23145
     23142     23145     23148     23149     23142     23145     23148     23150
     23142     23145     23148     23151     23143     23142     23145     23146
     23143     23142     23145     23147     23143     23142     23145     23148
     23144     23142     23145     23146     23144     23142     23145     23147
     23144     23142     23145     23148     23145     23148     23151     23152
     23145     23148     23151     23153     23145     23148     23151     23154
     23146     23145     23148     23149     23146     23145     23148     23150
     23146     23145     23148     23151     23147     23145     23148     23149
     23147     23145     23148     23150     23147     23145     23148     23151
     23148     23151     23154     23155     23148     23151     23154     23156
     23148     23151     23154     23157     23149     23148     23151     23152
     23149     23148     23151     23153     23149     23148     23151     23154
     23150     23148     23151     23152     23150     23148     23151     23153
     23150     23148     23151     23154     23151     23154     23157     23158
     23151     23154     23157     23159     23151     23154     23157     23160
     23152     23151     23154     23155     23152     23151     23154     23156
     23152     23151     23154     23157     23153     23151     23154     23155
     23153     23151     23154     23156     23153     23151     23154     23157
     23154     23157     23160     23161     23154     23157     23160     23162
     23154     23157     23160     23163     23155     23154     23157     23158
     23155     23154     23157     23159     23155     23154     23157     23160
     23156     23154     23157     23158     23156     23154     23157     23159
     23156     23154     23157     23160     23157     23160     23163     23164
     23157     23160     23163     23165     23157     23160     23163     23166
     23158     23157     23160     23161     23158     23157     23160     23162
     23158     23157     23160     23163     23159     23157     23160     23161
     23159     23157     23160     23162     23159     23157     23160     23163
     23161     23160     23163     23164     23161     23160     23163     23165
     23161     23160     23163     23166     23162     23160     23163     23164
     23162     23160     23163     23165     23162     23160     23163     23166
     23167     23170     23173     23174     23167     23170     23173     23175
     23167     23170     23173     23176     23168     23167     23170     23171
     23168     23167     23170     23172     23168     23167     23170     23173
     23169     23167     23170     23171     23169     23167     23170     23172
     23169     23167     23170     23173     23170     23173     23176     23177
     23170     23173     23176     23178     23170     23173     23176     23179
     23171     23170     23173     23174     23171     23170     23173     23175
     23171     23170     23173     23176     23172     23170     23173     23174
     23172     23170     23173     23175     23172     23170     23173     23176
     23173     23176     23179     23180     23173     23176     23179     23181
     23173     23176     23179     23182     23174     23173     23176     23177
     23174     23173     23176     23178     23174     23173     23176     23179
     23175     23173     23176     23177     23175     23173     23176     23178
     23175     23173     23176     23179     23176     23179     23182     23183
     23176     23179     23182     23184     23176     23179     23182     23185
     23177     23176     23179     23180     23177     23176     23179     23181
     23177     23176     23179     23182     23178     23176     23179     23180
     23178     23176     23179     23181     23178     23176     23179     23182
     23179     23182     23185     23186     23179     23182     23185     23187
     23179     23182     23185     23188     23180     23179     23182     23183
     23180     23179     23182     23184     23180     23179     23182     23185
     23181     23179     23182     23183     23181     23179     23182     23184
     23181     23179     23182     23185     23182     23185     23188     23189
     23182     23185     23188     23190     23182     23185     23188     23191
     23183     23182     23185     23186     23183     23182     23185     23187
     23183     23182     23185     23188     23184     23182     23185     23186
     23184     23182     23185     23187     23184     23182     23185     23188
     23185     23188     23191     23192     23185     23188     23191     23193
     23185     23188     23191     23194     23186     23185     23188     23189
     23186     23185     23188     23190     23186     23185     23188     23191
     23187     23185     23188     23189     23187     23185     23188     23190
     23187     23185     23188     23191     23188     23191     23194     23195
     23188     23191     23194     23196     23188     23191     23194     23197
     23189     23188     23191     23192     23189     23188     23191     23193
     23189     23188     23191     23194     23190     23188     23191     23192
     23190     23188     23191     23193     23190     23188     23191     23194
     23191     23194     23197     23198     23191     23194     23197     23199
     23191     23194     23197     23200     23192     23191     23194     23195
     23192     23191     23194     23196     23192     23191     23194     23197
     23193     23191     23194     23195     23193     23191     23194     23196
     23193     23191     23194     23197     23194     23197     23200     23201
     23194     23197     23200     23202     23194     23197     23200     23203
     23195     23194     23197     23198     23195     23194     23197     23199
     23195     23194     23197     23200     23196     23194     23197     23198
     23196     23194     23197     23199     23196     23194     23197     23200
     23197     23200     23203     23204     23197     23200     23203     23205
     23197     23200     23203     23206     23198     23197     23200     23201
     23198     23197     23200     23202     23198     23197     23200     23203
     23199     23197     23200     23201     23199     23197     23200     23202
     23199     23197     23200     23203     23200     23203     23206     23207
     23200     23203     23206     23208     23200     23203     23206     23209
     23201     23200     23203     23204     23201     23200     23203     23205
     23201     23200     23203     23206     23202     23200     23203     23204
     23202     23200     23203     23205     23202     23200     23203     23206
     23204     23203     23206     23207     23204     23203     23206     23208
     23204     23203     23206     23209     23205     23203     23206     23207
     23205     23203     23206     23208     23205     23203     23206     23209
     23210     23214     23217     23218     23210     23214     23217     23219
     23210     23214     23217     23224     23211     23210     23214     23215
     23211     23210     23214     23216     23211     23210     23214     23217
     23212     23210     23214     23215     23212     23210     23214     23216
     23212     23210     23214     23217     23213     23210     23214     23215
     23213     23210     23214     23216     23213     23210     23214     23217
     23214     23217     23224     23220     23215     23214     23217     23218
     23215     23214     23217     23219     23215     23214     23217     23224
     23216     23214     23217     23218     23216     23214     23217     23219
     23216     23214     23217     23224     23217     23224     23220     23221
     23217     23224     23220     23222     23217     23224     23220     23223
     23218     23217     23224     23220     23219     23217     23224     23220
     23220     23223     23225     23226     23220     23223     23225     23227
     23220     23223     23225     23228     23221     23220     23223     23225
     23222     23220     23223     23225     23223     23225     23228     23229
     23223     23225     23228     23230     23223     23225     23228     23236
     23224     23220     23223     23225     23225     23228     23230     23231
     23225     23228     23236     23237     23225     23228     23236     23238
     23225     23228     23236     23239     23226     23225     23228     23229
     23226     23225     23228     23230     23226     23225     23228     23236
     23227     23225     23228     23229     23227     23225     23228     23230
     23227     23225     23228     23236     23228     23230     23231     23232
     23228     23230     23231     23233     23228     23236     23239     23240
     23229     23228     23230     23231     23229     23228     23236     23237
     23229     23228     23236     23238     23229     23228     23236     23239
     23230     23228     23236     23237     23230     23228     23236     23238
     23230     23228     23236     23239     23230     23231     23233     23234
     23230     23231     23233     23235     23230     23231     23233     23245
     23231     23230     23228     23236     23231     23233     23245     23246
     23231     23233     23245     23247     23231     23233     23245     23248
     23232     23231     23233     23234     23232     23231     23233     23235
     23232     23231     23233     23245     23233     23245     23248     23249
     23233     23245     23248     23250     23233     23245     23248     23251
     23234     23233     23245     23246     23234     23233     23245     23247
     23234     23233     23245     23248     23235     23233     23245     23246
     23235     23233     23245     23247     23235     23233     23245     23248
     23236     23239     23240     23241     23236     23239     23240     23242
     23237     23236     23239     23240     23238     23236     23239     23240
     23239     23240     23242     23243     23239     23240     23242     23244
     23239     23240     23242     23289     23240     23242     23289     23290
     23240     23242     23289     23291     23240     23242     23289     23292
     23241     23240     23242     23243     23241     23240     23242     23244
     23241     23240     23242     23289     23242     23289     23292     23293
     23242     23289     23292     23294     23242     23289     23292     23295
     23243     23242     23289     23290     23243     23242     23289     23291
     23243     23242     23289     23292     23244     23242     23289     23290
     23244     23242     23289     23291     23244     23242     23289     23292
     23245     23248     23251     23252     23245     23248     23251     23253
     23245     23248     23251     23254     23246     23245     23248     23249
     23246     23245     23248     23250     23246     23245     23248     23251
     23247     23245     23248     23249     23247     23245     23248     23250
     23247     23245     23248     23251     23248     23251     23254     23255
     23248     23251     23254     23256     23248     23251     23254     23257
     23249     23248     23251     23252     23249     23248     23251     23253
     23249     23248     23251     23254     23250     23248     23251     23252
     23250     23248     23251     23253     23250     23248     23251     23254
     23251     23254     23257     23258     23251     23254     23257     23259
     23251     23254     23257     23260     23252     23251     23254     23255
     23252     23251     23254     23256     23252     23251     23254     23257
     23253     23251     23254     23255     23253     23251     23254     23256
     23253     23251     23254     23257     23254     23257     23260     23261
     23254     23257     23260     23262     23254     23257     23260     23263
     23255     23254     23257     23258     23255     23254     23257     23259
     23255     23254     23257     23260     23256     23254     23257     23258
     23256     23254     23257     23259     23256     23254     23257     23260
     23257     23260     23263     23264     23257     23260     23263     23265
     23257     23260     23263     23268     23258     23257     23260     23261
     23258     23257     23260     23262     23258     23257     23260     23263
     23259     23257     23260     23261     23259     23257     23260     23262
     23259     23257     23260     23263     23260     23263     23265     23266
     23260     23263     23265     23267     23260     23263     23265     23268
     23260     23263     23268     23265     23260     23263     23268     23269
     23260     23263     23268     23270     23261     23260     23263     23264
     23261     23260     23263     23265     23261     23260     23263     23268
     23262     23260     23263     23264     23262     23260     23263     23265
     23262     23260     23263     23268     23263     23265     23268     23269
     23263     23265     23268     23270     23263     23268     23265     23266
     23263     23268     23265     23267     23263     23268     23270     23271
     23263     23268     23270     23272     23263     23268     23270     23273
     23264     23263     23265     23266     23264     23263     23265     23267
     23264     23263     23265     23268     23264     23263     23268     23265
     23264     23263     23268     23269     23264     23263     23268     23270
     23265     23263     23268     23269     23265     23263     23268     23270
     23265     23268     23270     23271     23265     23268     23270     23272
     23265     23268     23270     23273     23266     23265     23263     23268
     23266     23265     23268     23269     23266     23265     23268     23270
     23267     23265     23263     23268     23267     23265     23268     23269
     23267     23265     23268     23270     23268     23270     23273     23274
     23268     23270     23273     23275     23268     23270     23273     23276
     23269     23268     23270     23271     23269     23268     23270     23272
     23269     23268     23270     23273     23270     23273     23276     23277
     23270     23273     23276     23278     23270     23273     23276     23279
     23271     23270     23273     23274     23271     23270     23273     23275
     23271     23270     23273     23276     23272     23270     23273     23274
     23272     23270     23273     23275     23272     23270     23273     23276
     23273     23276     23279     23280     23273     23276     23279     23281
     23273     23276     23279     23282     23274     23273     23276     23277
     23274     23273     23276     23278     23274     23273     23276     23279
     23275     23273     23276     23277     23275     23273     23276     23278
     23275     23273     23276     23279     23276     23279     23282     23283
     23276     23279     23282     23284     23276     23279     23282     23285
     23277     23276     23279     23280     23277     23276     23279     23281
     23277     23276     23279     23282     23278     23276     23279     23280
     23278     23276     23279     23281     23278     23276     23279     23282
     23279     23282     23285     23286     23279     23282     23285     23287
     23279     23282     23285     23288     23280     23279     23282     23283
     23280     23279     23282     23284     23280     23279     23282     23285
     23281     23279     23282     23283     23281     23279     23282     23284
     23281     23279     23282     23285     23283     23282     23285     23286
     23283     23282     23285     23287     23283     23282     23285     23288
     23284     23282     23285     23286     23284     23282     23285     23287
     23284     23282     23285     23288     23289     23292     23295     23296
     23289     23292     23295     23297     23289     23292     23295     23298
     23290     23289     23292     23293     23290     23289     23292     23294
     23290     23289     23292     23295     23291     23289     23292     23293
     23291     23289     23292     23294     23291     23289     23292     23295
     23292     23295     23298     23299     23292     23295     23298     23300
     23292     23295     23298     23301     23293     23292     23295     23296
     23293     23292     23295     23297     23293     23292     23295     23298
     23294     23292     23295     23296     23294     23292     23295     23297
     23294     23292     23295     23298     23295     23298     23301     23302
     23295     23298     23301     23303     23295     23298     23301     23304
     23296     23295     23298     23299     23296     23295     23298     23300
     23296     23295     23298     23301     23297     23295     23298     23299
     23297     23295     23298     23300     23297     23295     23298     23301
     23298     23301     23304     23305     23298     23301     23304     23306
     23298     23301     23304     23307     23299     23298     23301     23302
     23299     23298     23301     23303     23299     23298     23301     23304
     23300     23298     23301     23302     23300     23298     23301     23303
     23300     23298     23301     23304     23301     23304     23307     23308
     23301     23304     23307     23309     23301     23304     23307     23310
     23302     23301     23304     23305     23302     23301     23304     23306
     23302     23301     23304     23307     23303     23301     23304     23305
     23303     23301     23304     23306     23303     23301     23304     23307
     23304     23307     23310     23311     23304     23307     23310     23312
     23304     23307     23310     23313     23305     23304     23307     23308
     23305     23304     23307     23309     23305     23304     23307     23310
     23306     23304     23307     23308     23306     23304     23307     23309
     23306     23304     23307     23310     23307     23310     23313     23314
     23307     23310     23313     23315     23307     23310     23313     23316
     23308     23307     23310     23311     23308     23307     23310     23312
     23308     23307     23310     23313     23309     23307     23310     23311
     23309     23307     23310     23312     23309     23307     23310     23313
     23310     23313     23316     23317     23310     23313     23316     23318
     23310     23313     23316     23319     23311     23310     23313     23314
     23311     23310     23313     23315     23311     23310     23313     23316
     23312     23310     23313     23314     23312     23310     23313     23315
     23312     23310     23313     23316     23313     23316     23319     23320
     23313     23316     23319     23321     23313     23316     23319     23322
     23314     23313     23316     23317     23314     23313     23316     23318
     23314     23313     23316     23319     23315     23313     23316     23317
     23315     23313     23316     23318     23315     23313     23316     23319
     23316     23319     23322     23323     23316     23319     23322     23324
     23316     23319     23322     23325     23317     23316     23319     23320
     23317     23316     23319     23321     23317     23316     23319     23322
     23318     23316     23319     23320     23318     23316     23319     23321
     23318     23316     23319     23322     23319     23322     23325     23326
     23319     23322     23325     23327     23319     23322     23325     23328
     23320     23319     23322     23323     23320     23319     23322     23324
     23320     23319     23322     23325     23321     23319     23322     23323
     23321     23319     23322     23324     23321     23319     23322     23325
     23322     23325     23328     23329     23322     23325     23328     23330
     23322     23325     23328     23331     23323     23322     23325     23326
     23323     23322     23325     23327     23323     23322     23325     23328
     23324     23322     23325     23326     23324     23322     23325     23327
     23324     23322     23325     23328     23326     23325     23328     23329
     23326     23325     23328     23330     23326     23325     23328     23331
     23327     23325     23328     23329     23327     23325     23328     23330
     23327     23325     23328     23331     23332     23336     23339     23340
     23332     23336     23339     23341     23332     23336     23339     23346
     23333     23332     23336     23337     23333     23332     23336     23338
     23333     23332     23336     23339     23334     23332     23336     23337
     23334     23332     23336     23338     23334     23332     23336     23339
     23335     23332     23336     23337     23335     23332     23336     23338
     23335     23332     23336     23339     23336     23339     23346     23342
     23337     23336     23339     23340     23337     23336     23339     23341
     23337     23336     23339     23346     23338     23336     23339     23340
     23338     23336     23339     23341     23338     23336     23339     23346
     23339     23346     23342     23343     23339     23346     23342     23344
     23339     23346     23342     23345     23340     23339     23346     23342
     23341     23339     23346     23342     23342     23345     23347     23348
     23342     23345     23347     23349     23342     23345     23347     23350
     23343     23342     23345     23347     23344     23342     23345     23347
     23345     23347     23350     23351     23345     23347     23350     23352
     23345     23347     23350     23358     23346     23342     23345     23347
     23347     23350     23352     23353     23347     23350     23358     23359
     23347     23350     23358     23360     23347     23350     23358     23361
     23348     23347     23350     23351     23348     23347     23350     23352
     23348     23347     23350     23358     23349     23347     23350     23351
     23349     23347     23350     23352     23349     23347     23350     23358
     23350     23352     23353     23354     23350     23352     23353     23355
     23350     23358     23361     23362     23351     23350     23352     23353
     23351     23350     23358     23359     23351     23350     23358     23360
     23351     23350     23358     23361     23352     23350     23358     23359
     23352     23350     23358     23360     23352     23350     23358     23361
     23352     23353     23355     23356     23352     23353     23355     23357
     23352     23353     23355     23367     23353     23352     23350     23358
     23353     23355     23367     23368     23353     23355     23367     23369
     23353     23355     23367     23370     23354     23353     23355     23356
     23354     23353     23355     23357     23354     23353     23355     23367
     23355     23367     23370     23371     23355     23367     23370     23372
     23355     23367     23370     23373     23356     23355     23367     23368
     23356     23355     23367     23369     23356     23355     23367     23370
     23357     23355     23367     23368     23357     23355     23367     23369
     23357     23355     23367     23370     23358     23361     23362     23363
     23358     23361     23362     23364     23359     23358     23361     23362
     23360     23358     23361     23362     23361     23362     23364     23365
     23361     23362     23364     23366     23361     23362     23364     23411
     23362     23364     23411     23412     23362     23364     23411     23413
     23362     23364     23411     23414     23363     23362     23364     23365
     23363     23362     23364     23366     23363     23362     23364     23411
     23364     23411     23414     23415     23364     23411     23414     23416
     23364     23411     23414     23417     23365     23364     23411     23412
     23365     23364     23411     23413     23365     23364     23411     23414
     23366     23364     23411     23412     23366     23364     23411     23413
     23366     23364     23411     23414     23367     23370     23373     23374
     23367     23370     23373     23375     23367     23370     23373     23376
     23368     23367     23370     23371     23368     23367     23370     23372
     23368     23367     23370     23373     23369     23367     23370     23371
     23369     23367     23370     23372     23369     23367     23370     23373
     23370     23373     23376     23377     23370     23373     23376     23378
     23370     23373     23376     23379     23371     23370     23373     23374
     23371     23370     23373     23375     23371     23370     23373     23376
     23372     23370     23373     23374     23372     23370     23373     23375
     23372     23370     23373     23376     23373     23376     23379     23380
     23373     23376     23379     23381     23373     23376     23379     23382
     23374     23373     23376     23377     23374     23373     23376     23378
     23374     23373     23376     23379     23375     23373     23376     23377
     23375     23373     23376     23378     23375     23373     23376     23379
     23376     23379     23382     23383     23376     23379     23382     23384
     23376     23379     23382     23385     23377     23376     23379     23380
     23377     23376     23379     23381     23377     23376     23379     23382
     23378     23376     23379     23380     23378     23376     23379     23381
     23378     23376     23379     23382     23379     23382     23385     23386
     23379     23382     23385     23387     23379     23382     23385     23390
     23380     23379     23382     23383     23380     23379     23382     23384
     23380     23379     23382     23385     23381     23379     23382     23383
     23381     23379     23382     23384     23381     23379     23382     23385
     23382     23385     23387     23388     23382     23385     23387     23389
     23382     23385     23387     23390     23382     23385     23390     23387
     23382     23385     23390     23391     23382     23385     23390     23392
     23383     23382     23385     23386     23383     23382     23385     23387
     23383     23382     23385     23390     23384     23382     23385     23386
     23384     23382     23385     23387     23384     23382     23385     23390
     23385     23387     23390     23391     23385     23387     23390     23392
     23385     23390     23387     23388     23385     23390     23387     23389
     23385     23390     23392     23393     23385     23390     23392     23394
     23385     23390     23392     23395     23386     23385     23387     23388
     23386     23385     23387     23389     23386     23385     23387     23390
     23386     23385     23390     23387     23386     23385     23390     23391
     23386     23385     23390     23392     23387     23385     23390     23391
     23387     23385     23390     23392     23387     23390     23392     23393
     23387     23390     23392     23394     23387     23390     23392     23395
     23388     23387     23385     23390     23388     23387     23390     23391
     23388     23387     23390     23392     23389     23387     23385     23390
     23389     23387     23390     23391     23389     23387     23390     23392
     23390     23392     23395     23396     23390     23392     23395     23397
     23390     23392     23395     23398     23391     23390     23392     23393
     23391     23390     23392     23394     23391     23390     23392     23395
     23392     23395     23398     23399     23392     23395     23398     23400
     23392     23395     23398     23401     23393     23392     23395     23396
     23393     23392     23395     23397     23393     23392     23395     23398
     23394     23392     23395     23396     23394     23392     23395     23397
     23394     23392     23395     23398     23395     23398     23401     23402
     23395     23398     23401     23403     23395     23398     23401     23404
     23396     23395     23398     23399     23396     23395     23398     23400
     23396     23395     23398     23401     23397     23395     23398     23399
     23397     23395     23398     23400     23397     23395     23398     23401
     23398     23401     23404     23405     23398     23401     23404     23406
     23398     23401     23404     23407     23399     23398     23401     23402
     23399     23398     23401     23403     23399     23398     23401     23404
     23400     23398     23401     23402     23400     23398     23401     23403
     23400     23398     23401     23404     23401     23404     23407     23408
     23401     23404     23407     23409     23401     23404     23407     23410
     23402     23401     23404     23405     23402     23401     23404     23406
     23402     23401     23404     23407     23403     23401     23404     23405
     23403     23401     23404     23406     23403     23401     23404     23407
     23405     23404     23407     23408     23405     23404     23407     23409
     23405     23404     23407     23410     23406     23404     23407     23408
     23406     23404     23407     23409     23406     23404     23407     23410
     23411     23414     23417     23418     23411     23414     23417     23419
     23411     23414     23417     23420     23412     23411     23414     23415
     23412     23411     23414     23416     23412     23411     23414     23417
     23413     23411     23414     23415     23413     23411     23414     23416
     23413     23411     23414     23417     23414     23417     23420     23421
     23414     23417     23420     23422     23414     23417     23420     23423
     23415     23414     23417     23418     23415     23414     23417     23419
     23415     23414     23417     23420     23416     23414     23417     23418
     23416     23414     23417     23419     23416     23414     23417     23420
     23417     23420     23423     23424     23417     23420     23423     23425
     23417     23420     23423     23426     23418     23417     23420     23421
     23418     23417     23420     23422     23418     23417     23420     23423
     23419     23417     23420     23421     23419     23417     23420     23422
     23419     23417     23420     23423     23420     23423     23426     23427
     23420     23423     23426     23428     23420     23423     23426     23429
     23421     23420     23423     23424     23421     23420     23423     23425
     23421     23420     23423     23426     23422     23420     23423     23424
     23422     23420     23423     23425     23422     23420     23423     23426
     23423     23426     23429     23430     23423     23426     23429     23431
     23423     23426     23429     23432     23424     23423     23426     23427
     23424     23423     23426     23428     23424     23423     23426     23429
     23425     23423     23426     23427     23425     23423     23426     23428
     23425     23423     23426     23429     23426     23429     23432     23433
     23426     23429     23432     23434     23426     23429     23432     23435
     23427     23426     23429     23430     23427     23426     23429     23431
     23427     23426     23429     23432     23428     23426     23429     23430
     23428     23426     23429     23431     23428     23426     23429     23432
     23429     23432     23435     23436     23429     23432     23435     23437
     23429     23432     23435     23438     23430     23429     23432     23433
     23430     23429     23432     23434     23430     23429     23432     23435
     23431     23429     23432     23433     23431     23429     23432     23434
     23431     23429     23432     23435     23432     23435     23438     23439
     23432     23435     23438     23440     23432     23435     23438     23441
     23433     23432     23435     23436     23433     23432     23435     23437
     23433     23432     23435     23438     23434     23432     23435     23436
     23434     23432     23435     23437     23434     23432     23435     23438
     23435     23438     23441     23442     23435     23438     23441     23443
     23435     23438     23441     23444     23436     23435     23438     23439
     23436     23435     23438     23440     23436     23435     23438     23441
     23437     23435     23438     23439     23437     23435     23438     23440
     23437     23435     23438     23441     23438     23441     23444     23445
     23438     23441     23444     23446     23438     23441     23444     23447
     23439     23438     23441     23442     23439     23438     23441     23443
     23439     23438     23441     23444     23440     23438     23441     23442
     23440     23438     23441     23443     23440     23438     23441     23444
     23441     23444     23447     23448     23441     23444     23447     23449
     23441     23444     23447     23450     23442     23441     23444     23445
     23442     23441     23444     23446     23442     23441     23444     23447
     23443     23441     23444     23445     23443     23441     23444     23446
     23443     23441     23444     23447     23444     23447     23450     23451
     23444     23447     23450     23452     23444     23447     23450     23453
     23445     23444     23447     23448     23445     23444     23447     23449
     23445     23444     23447     23450     23446     23444     23447     23448
     23446     23444     23447     23449     23446     23444     23447     23450
     23448     23447     23450     23451     23448     23447     23450     23452
     23448     23447     23450     23453     23449     23447     23450     23451
     23449     23447     23450     23452     23449     23447     23450     23453
     23454     23458     23461     23462     23454     23458     23461     23463
     23454     23458     23461     23468     23455     23454     23458     23459
     23455     23454     23458     23460     23455     23454     23458     23461
     23456     23454     23458     23459     23456     23454     23458     23460
     23456     23454     23458     23461     23457     23454     23458     23459
     23457     23454     23458     23460     23457     23454     23458     23461
     23458     23461     23468     23464     23459     23458     23461     23462
     23459     23458     23461     23463     23459     23458     23461     23468
     23460     23458     23461     23462     23460     23458     23461     23463
     23460     23458     23461     23468     23461     23468     23464     23465
     23461     23468     23464     23466     23461     23468     23464     23467
     23462     23461     23468     23464     23463     23461     23468     23464
     23464     23467     23469     23470     23464     23467     23469     23471
     23464     23467     23469     23472     23465     23464     23467     23469
     23466     23464     23467     23469     23467     23469     23472     23473
     23467     23469     23472     23474     23467     23469     23472     23480
     23468     23464     23467     23469     23469     23472     23474     23475
     23469     23472     23480     23481     23469     23472     23480     23482
     23469     23472     23480     23483     23470     23469     23472     23473
     23470     23469     23472     23474     23470     23469     23472     23480
     23471     23469     23472     23473     23471     23469     23472     23474
     23471     23469     23472     23480     23472     23474     23475     23476
     23472     23474     23475     23477     23472     23480     23483     23484
     23473     23472     23474     23475     23473     23472     23480     23481
     23473     23472     23480     23482     23473     23472     23480     23483
     23474     23472     23480     23481     23474     23472     23480     23482
     23474     23472     23480     23483     23474     23475     23477     23478
     23474     23475     23477     23479     23474     23475     23477     23489
     23475     23474     23472     23480     23475     23477     23489     23490
     23475     23477     23489     23491     23475     23477     23489     23492
     23476     23475     23477     23478     23476     23475     23477     23479
     23476     23475     23477     23489     23477     23489     23492     23493
     23477     23489     23492     23494     23477     23489     23492     23495
     23478     23477     23489     23490     23478     23477     23489     23491
     23478     23477     23489     23492     23479     23477     23489     23490
     23479     23477     23489     23491     23479     23477     23489     23492
     23480     23483     23484     23485     23480     23483     23484     23486
     23481     23480     23483     23484     23482     23480     23483     23484
     23483     23484     23486     23487     23483     23484     23486     23488
     23483     23484     23486     23533     23484     23486     23533     23534
     23484     23486     23533     23535     23484     23486     23533     23536
     23485     23484     23486     23487     23485     23484     23486     23488
     23485     23484     23486     23533     23486     23533     23536     23537
     23486     23533     23536     23538     23486     23533     23536     23539
     23487     23486     23533     23534     23487     23486     23533     23535
     23487     23486     23533     23536     23488     23486     23533     23534
     23488     23486     23533     23535     23488     23486     23533     23536
     23489     23492     23495     23496     23489     23492     23495     23497
     23489     23492     23495     23498     23490     23489     23492     23493
     23490     23489     23492     23494     23490     23489     23492     23495
     23491     23489     23492     23493     23491     23489     23492     23494
     23491     23489     23492     23495     23492     23495     23498     23499
     23492     23495     23498     23500     23492     23495     23498     23501
     23493     23492     23495     23496     23493     23492     23495     23497
     23493     23492     23495     23498     23494     23492     23495     23496
     23494     23492     23495     23497     23494     23492     23495     23498
     23495     23498     23501     23502     23495     23498     23501     23503
     23495     23498     23501     23504     23496     23495     23498     23499
     23496     23495     23498     23500     23496     23495     23498     23501
     23497     23495     23498     23499     23497     23495     23498     23500
     23497     23495     23498     23501     23498     23501     23504     23505
     23498     23501     23504     23506     23498     23501     23504     23507
     23499     23498     23501     23502     23499     23498     23501     23503
     23499     23498     23501     23504     23500     23498     23501     23502
     23500     23498     23501     23503     23500     23498     23501     23504
     23501     23504     23507     23508     23501     23504     23507     23509
     23501     23504     23507     23512     23502     23501     23504     23505
     23502     23501     23504     23506     23502     23501     23504     23507
     23503     23501     23504     23505     23503     23501     23504     23506
     23503     23501     23504     23507     23504     23507     23509     23510
     23504     23507     23509     23511     23504     23507     23509     23512
     23504     23507     23512     23509     23504     23507     23512     23513
     23504     23507     23512     23514     23505     23504     23507     23508
     23505     23504     23507     23509     23505     23504     23507     23512
     23506     23504     23507     23508     23506     23504     23507     23509
     23506     23504     23507     23512     23507     23509     23512     23513
     23507     23509     23512     23514     23507     23512     23509     23510
     23507     23512     23509     23511     23507     23512     23514     23515
     23507     23512     23514     23516     23507     23512     23514     23517
     23508     23507     23509     23510     23508     23507     23509     23511
     23508     23507     23509     23512     23508     23507     23512     23509
     23508     23507     23512     23513     23508     23507     23512     23514
     23509     23507     23512     23513     23509     23507     23512     23514
     23509     23512     23514     23515     23509     23512     23514     23516
     23509     23512     23514     23517     23510     23509     23507     23512
     23510     23509     23512     23513     23510     23509     23512     23514
     23511     23509     23507     23512     23511     23509     23512     23513
     23511     23509     23512     23514     23512     23514     23517     23518
     23512     23514     23517     23519     23512     23514     23517     23520
     23513     23512     23514     23515     23513     23512     23514     23516
     23513     23512     23514     23517     23514     23517     23520     23521
     23514     23517     23520     23522     23514     23517     23520     23523
     23515     23514     23517     23518     23515     23514     23517     23519
     23515     23514     23517     23520     23516     23514     23517     23518
     23516     23514     23517     23519     23516     23514     23517     23520
     23517     23520     23523     23524     23517     23520     23523     23525
     23517     23520     23523     23526     23518     23517     23520     23521
     23518     23517     23520     23522     23518     23517     23520     23523
     23519     23517     23520     23521     23519     23517     23520     23522
     23519     23517     23520     23523     23520     23523     23526     23527
     23520     23523     23526     23528     23520     23523     23526     23529
     23521     23520     23523     23524     23521     23520     23523     23525
     23521     23520     23523     23526     23522     23520     23523     23524
     23522     23520     23523     23525     23522     23520     23523     23526
     23523     23526     23529     23530     23523     23526     23529     23531
     23523     23526     23529     23532     23524     23523     23526     23527
     23524     23523     23526     23528     23524     23523     23526     23529
     23525     23523     23526     23527     23525     23523     23526     23528
     23525     23523     23526     23529     23527     23526     23529     23530
     23527     23526     23529     23531     23527     23526     23529     23532
     23528     23526     23529     23530     23528     23526     23529     23531
     23528     23526     23529     23532     23533     23536     23539     23540
     23533     23536     23539     23541     23533     23536     23539     23542
     23534     23533     23536     23537     23534     23533     23536     23538
     23534     23533     23536     23539     23535     23533     23536     23537
     23535     23533     23536     23538     23535     23533     23536     23539
     23536     23539     23542     23543     23536     23539     23542     23544
     23536     23539     23542     23545     23537     23536     23539     23540
     23537     23536     23539     23541     23537     23536     23539     23542
     23538     23536     23539     23540     23538     23536     23539     23541
     23538     23536     23539     23542     23539     23542     23545     23546
     23539     23542     23545     23547     23539     23542     23545     23548
     23540     23539     23542     23543     23540     23539     23542     23544
     23540     23539     23542     23545     23541     23539     23542     23543
     23541     23539     23542     23544     23541     23539     23542     23545
     23542     23545     23548     23549     23542     23545     23548     23550
     23542     23545     23548     23551     23543     23542     23545     23546
     23543     23542     23545     23547     23543     23542     23545     23548
     23544     23542     23545     23546     23544     23542     23545     23547
     23544     23542     23545     23548     23545     23548     23551     23552
     23545     23548     23551     23553     23545     23548     23551     23554
     23546     23545     23548     23549     23546     23545     23548     23550
     23546     23545     23548     23551     23547     23545     23548     23549
     23547     23545     23548     23550     23547     23545     23548     23551
     23548     23551     23554     23555     23548     23551     23554     23556
     23548     23551     23554     23557     23549     23548     23551     23552
     23549     23548     23551     23553     23549     23548     23551     23554
     23550     23548     23551     23552     23550     23548     23551     23553
     23550     23548     23551     23554     23551     23554     23557     23558
     23551     23554     23557     23559     23551     23554     23557     23560
     23552     23551     23554     23555     23552     23551     23554     23556
     23552     23551     23554     23557     23553     23551     23554     23555
     23553     23551     23554     23556     23553     23551     23554     23557
     23554     23557     23560     23561     23554     23557     23560     23562
     23554     23557     23560     23563     23555     23554     23557     23558
     23555     23554     23557     23559     23555     23554     23557     23560
     23556     23554     23557     23558     23556     23554     23557     23559
     23556     23554     23557     23560     23557     23560     23563     23564
     23557     23560     23563     23565     23557     23560     23563     23566
     23558     23557     23560     23561     23558     23557     23560     23562
     23558     23557     23560     23563     23559     23557     23560     23561
     23559     23557     23560     23562     23559     23557     23560     23563
     23560     23563     23566     23567     23560     23563     23566     23568
     23560     23563     23566     23569     23561     23560     23563     23564
     23561     23560     23563     23565     23561     23560     23563     23566
     23562     23560     23563     23564     23562     23560     23563     23565
     23562     23560     23563     23566     23563     23566     23569     23570
     23563     23566     23569     23571     23563     23566     23569     23572
     23564     23563     23566     23567     23564     23563     23566     23568
     23564     23563     23566     23569     23565     23563     23566     23567
     23565     23563     23566     23568     23565     23563     23566     23569
     23566     23569     23572     23573     23566     23569     23572     23574
     23566     23569     23572     23575     23567     23566     23569     23570
     23567     23566     23569     23571     23567     23566     23569     23572
     23568     23566     23569     23570     23568     23566     23569     23571
     23568     23566     23569     23572     23570     23569     23572     23573
     23570     23569     23572     23574     23570     23569     23572     23575
     23571     23569     23572     23573     23571     23569     23572     23574
     23571     23569     23572     23575     23576     23580     23583     23584
     23576     23580     23583     23585     23576     23580     23583     23590
     23577     23576     23580     23581     23577     23576     23580     23582
     23577     23576     23580     23583     23578     23576     23580     23581
     23578     23576     23580     23582     23578     23576     23580     23583
     23579     23576     23580     23581     23579     23576     23580     23582
     23579     23576     23580     23583     23580     23583     23590     23586
     23581     23580     23583     23584     23581     23580     23583     23585
     23581     23580     23583     23590     23582     23580     23583     23584
     23582     23580     23583     23585     23582     23580     23583     23590
     23583     23590     23586     23587     23583     23590     23586     23588
     23583     23590     23586     23589     23584     23583     23590     23586
     23585     23583     23590     23586     23586     23589     23591     23592
     23586     23589     23591     23593     23586     23589     23591     23594
     23587     23586     23589     23591     23588     23586     23589     23591
     23589     23591     23594     23595     23589     23591     23594     23596
     23589     23591     23594     23602     23590     23586     23589     23591
     23591     23594     23596     23597     23591     23594     23602     23603
     23591     23594     23602     23604     23591     23594     23602     23605
     23592     23591     23594     23595     23592     23591     23594     23596
     23592     23591     23594     23602     23593     23591     23594     23595
     23593     23591     23594     23596     23593     23591     23594     23602
     23594     23596     23597     23598     23594     23596     23597     23599
     23594     23602     23605     23606     23595     23594     23596     23597
     23595     23594     23602     23603     23595     23594     23602     23604
     23595     23594     23602     23605     23596     23594     23602     23603
     23596     23594     23602     23604     23596     23594     23602     23605
     23596     23597     23599     23600     23596     23597     23599     23601
     23596     23597     23599     23611     23597     23596     23594     23602
     23597     23599     23611     23612     23597     23599     23611     23613
     23597     23599     23611     23614     23598     23597     23599     23600
     23598     23597     23599     23601     23598     23597     23599     23611
     23599     23611     23614     23615     23599     23611     23614     23616
     23599     23611     23614     23617     23600     23599     23611     23612
     23600     23599     23611     23613     23600     23599     23611     23614
     23601     23599     23611     23612     23601     23599     23611     23613
     23601     23599     23611     23614     23602     23605     23606     23607
     23602     23605     23606     23608     23603     23602     23605     23606
     23604     23602     23605     23606     23605     23606     23608     23609
     23605     23606     23608     23610     23605     23606     23608     23658
     23606     23608     23658     23659     23606     23608     23658     23660
     23606     23608     23658     23661     23607     23606     23608     23609
     23607     23606     23608     23610     23607     23606     23608     23658
     23608     23658     23661     23662     23608     23658     23661     23663
     23608     23658     23661     23664     23609     23608     23658     23659
     23609     23608     23658     23660     23609     23608     23658     23661
     23610     23608     23658     23659     23610     23608     23658     23660
     23610     23608     23658     23661     23611     23614     23617     23618
     23611     23614     23617     23619     23611     23614     23617     23620
     23612     23611     23614     23615     23612     23611     23614     23616
     23612     23611     23614     23617     23613     23611     23614     23615
     23613     23611     23614     23616     23613     23611     23614     23617
     23614     23617     23620     23621     23614     23617     23620     23622
     23614     23617     23620     23623     23615     23614     23617     23618
     23615     23614     23617     23619     23615     23614     23617     23620
     23616     23614     23617     23618     23616     23614     23617     23619
     23616     23614     23617     23620     23617     23620     23623     23624
     23617     23620     23623     23625     23617     23620     23623     23626
     23618     23617     23620     23621     23618     23617     23620     23622
     23618     23617     23620     23623     23619     23617     23620     23621
     23619     23617     23620     23622     23619     23617     23620     23623
     23620     23623     23626     23627     23620     23623     23626     23628
     23620     23623     23626     23629     23621     23620     23623     23624
     23621     23620     23623     23625     23621     23620     23623     23626
     23622     23620     23623     23624     23622     23620     23623     23625
     23622     23620     23623     23626     23623     23626     23629     23630
     23623     23626     23629     23631     23624     23623     23626     23627
     23624     23623     23626     23628     23624     23623     23626     23629
     23625     23623     23626     23627     23625     23623     23626     23628
     23625     23623     23626     23629     23626     23629     23631     23632
     23626     23629     23631     23633     23627     23626     23629     23630
     23627     23626     23629     23631     23628     23626     23629     23630
     23628     23626     23629     23631     23629     23631     23633     23634
     23629     23631     23633     23635     23629     23631     23633     23636
     23630     23629     23631     23632     23630     23629     23631     23633
     23631     23633     23636     23637     23631     23633     23636     23638
     23631     23633     23636     23639     23632     23631     23633     23634
     23632     23631     23633     23635     23632     23631     23633     23636
     23633     23636     23639     23640     23633     23636     23639     23641
     23633     23636     23639     23642     23634     23633     23636     23637
     23634     23633     23636     23638     23634     23633     23636     23639
     23635     23633     23636     23637     23635     23633     23636     23638
     23635     23633     23636     23639     23636     23639     23642     23643
     23636     23639     23642     23644     23636     23639     23642     23645
     23637     23636     23639     23640     23637     23636     23639     23641
     23637     23636     23639     23642     23638     23636     23639     23640
     23638     23636     23639     23641     23638     23636     23639     23642
     23639     23642     23645     23646     23639     23642     23645     23647
     23639     23642     23645     23648     23640     23639     23642     23643
     23640     23639     23642     23644     23640     23639     23642     23645
     23641     23639     23642     23643     23641     23639     23642     23644
     23641     23639     23642     23645     23642     23645     23648     23649
     23642     23645     23648     23650     23642     23645     23648     23651
     23643     23642     23645     23646     23643     23642     23645     23647
     23643     23642     23645     23648     23644     23642     23645     23646
     23644     23642     23645     23647     23644     23642     23645     23648
     23645     23648     23651     23652     23645     23648     23651     23653
     23645     23648     23651     23654     23646     23645     23648     23649
     23646     23645     23648     23650     23646     23645     23648     23651
     23647     23645     23648     23649     23647     23645     23648     23650
     23647     23645     23648     23651     23648     23651     23654     23655
     23648     23651     23654     23656     23648     23651     23654     23657
     23649     23648     23651     23652     23649     23648     23651     23653
     23649     23648     23651     23654     23650     23648     23651     23652
     23650     23648     23651     23653     23650     23648     23651     23654
     23652     23651     23654     23655     23652     23651     23654     23656
     23652     23651     23654     23657     23653     23651     23654     23655
     23653     23651     23654     23656     23653     23651     23654     23657
     23658     23661     23664     23665     23658     23661     23664     23666
     23658     23661     23664     23667     23659     23658     23661     23662
     23659     23658     23661     23663     23659     23658     23661     23664
     23660     23658     23661     23662     23660     23658     23661     23663
     23660     23658     23661     23664     23661     23664     23667     23668
     23661     23664     23667     23669     23661     23664     23667     23670
     23662     23661     23664     23665     23662     23661     23664     23666
     23662     23661     23664     23667     23663     23661     23664     23665
     23663     23661     23664     23666     23663     23661     23664     23667
     23664     23667     23670     23671     23664     23667     23670     23672
     23664     23667     23670     23673     23665     23664     23667     23668
     23665     23664     23667     23669     23665     23664     23667     23670
     23666     23664     23667     23668     23666     23664     23667     23669
     23666     23664     23667     23670     23667     23670     23673     23674
     23667     23670     23673     23675     23667     23670     23673     23676
     23668     23667     23670     23671     23668     23667     23670     23672
     23668     23667     23670     23673     23669     23667     23670     23671
     23669     23667     23670     23672     23669     23667     23670     23673
     23670     23673     23676     23677     23670     23673     23676     23678
     23670     23673     23676     23679     23671     23670     23673     23674
     23671     23670     23673     23675     23671     23670     23673     23676
     23672     23670     23673     23674     23672     23670     23673     23675
     23672     23670     23673     23676     23673     23676     23679     23680
     23673     23676     23679     23681     23673     23676     23679     23682
     23674     23673     23676     23677     23674     23673     23676     23678
     23674     23673     23676     23679     23675     23673     23676     23677
     23675     23673     23676     23678     23675     23673     23676     23679
     23676     23679     23682     23683     23676     23679     23682     23684
     23676     23679     23682     23685     23677     23676     23679     23680
     23677     23676     23679     23681     23677     23676     23679     23682
     23678     23676     23679     23680     23678     23676     23679     23681
     23678     23676     23679     23682     23679     23682     23685     23686
     23679     23682     23685     23687     23679     23682     23685     23688
     23680     23679     23682     23683     23680     23679     23682     23684
     23680     23679     23682     23685     23681     23679     23682     23683
     23681     23679     23682     23684     23681     23679     23682     23685
     23682     23685     23688     23689     23682     23685     23688     23690
     23682     23685     23688     23691     23683     23682     23685     23686
     23683     23682     23685     23687     23683     23682     23685     23688
     23684     23682     23685     23686     23684     23682     23685     23687
     23684     23682     23685     23688     23685     23688     23691     23692
     23685     23688     23691     23693     23685     23688     23691     23694
     23686     23685     23688     23689     23686     23685     23688     23690
     23686     23685     23688     23691     23687     23685     23688     23689
     23687     23685     23688     23690     23687     23685     23688     23691
     23688     23691     23694     23695     23688     23691     23694     23696
     23688     23691     23694     23697     23689     23688     23691     23692
     23689     23688     23691     23693     23689     23688     23691     23694
     23690     23688     23691     23692     23690     23688     23691     23693
     23690     23688     23691     23694     23691     23694     23697     23698
     23691     23694     23697     23699     23691     23694     23697     23700
     23692     23691     23694     23695     23692     23691     23694     23696
     23692     23691     23694     23697     23693     23691     23694     23695
     23693     23691     23694     23696     23693     23691     23694     23697
     23695     23694     23697     23698     23695     23694     23697     23699
     23695     23694     23697     23700     23696     23694     23697     23698
     23696     23694     23697     23699     23696     23694     23697     23700
     23701     23706     23708     23709     23701     23706     23710     23711
     23701     23706     23710     23712     23701     23706     23710     23717
     23702     23701     23704     23705     23702     23701     23706     23707
     23702     23701     23706     23708     23702     23701     23706     23710
     23703     23701     23704     23705     23703     23701     23706     23707
     23703     23701     23706     23708     23703     23701     23706     23710
     23704     23701     23706     23707     23704     23701     23706     23708
     23704     23701     23706     23710     23705     23704     23701     23706
     23706     23710     23717     23713     23707     23706     23708     23709
     23707     23706     23710     23711     23707     23706     23710     23712
     23707     23706     23710     23717     23708     23706     23710     23711
     23708     23706     23710     23712     23708     23706     23710     23717
     23709     23708     23706     23710     23710     23717     23713     23714
     23710     23717     23713     23715     23710     23717     23713     23716
     23711     23710     23717     23713     23712     23710     23717     23713
     23713     23716     23718     23719     23713     23716     23718     23720
     23713     23716     23718     23721     23714     23713     23716     23718
     23715     23713     23716     23718     23716     23718     23721     23722
     23716     23718     23721     23723     23716     23718     23721     23729
     23717     23713     23716     23718     23718     23721     23723     23724
     23718     23721     23729     23730     23718     23721     23729     23731
     23718     23721     23729     23732     23719     23718     23721     23722
     23719     23718     23721     23723     23719     23718     23721     23729
     23720     23718     23721     23722     23720     23718     23721     23723
     23720     23718     23721     23729     23721     23723     23724     23725
     23721     23723     23724     23726     23721     23729     23732     23733
     23722     23721     23723     23724     23722     23721     23729     23730
     23722     23721     23729     23731     23722     23721     23729     23732
     23723     23721     23729     23730     23723     23721     23729     23731
     23723     23721     23729     23732     23723     23724     23726     23727
     23723     23724     23726     23728     23723     23724     23726     23738
     23724     23723     23721     23729     23724     23726     23738     23739
     23724     23726     23738     23740     23724     23726     23738     23741
     23725     23724     23726     23727     23725     23724     23726     23728
     23725     23724     23726     23738     23726     23738     23741     23742
     23726     23738     23741     23743     23726     23738     23741     23744
     23727     23726     23738     23739     23727     23726     23738     23740
     23727     23726     23738     23741     23728     23726     23738     23739
     23728     23726     23738     23740     23728     23726     23738     23741
     23729     23732     23733     23734     23729     23732     23733     23735
     23730     23729     23732     23733     23731     23729     23732     23733
     23732     23733     23735     23736     23732     23733     23735     23737
     23732     23733     23735     23779     23733     23735     23779     23780
     23733     23735     23779     23781     23733     23735     23779     23782
     23734     23733     23735     23736     23734     23733     23735     23737
     23734     23733     23735     23779     23735     23779     23782     23783
     23735     23779     23782     23784     23735     23779     23782     23785
     23736     23735     23779     23780     23736     23735     23779     23781
     23736     23735     23779     23782     23737     23735     23779     23780
     23737     23735     23779     23781     23737     23735     23779     23782
     23738     23741     23744     23745     23738     23741     23744     23746
     23738     23741     23744     23747     23739     23738     23741     23742
     23739     23738     23741     23743     23739     23738     23741     23744
     23740     23738     23741     23742     23740     23738     23741     23743
     23740     23738     23741     23744     23741     23744     23747     23748
     23741     23744     23747     23749     23741     23744     23747     23750
     23742     23741     23744     23745     23742     23741     23744     23746
     23742     23741     23744     23747     23743     23741     23744     23745
     23743     23741     23744     23746     23743     23741     23744     23747
     23744     23747     23750     23751     23744     23747     23750     23752
     23744     23747     23750     23753     23745     23744     23747     23748
     23745     23744     23747     23749     23745     23744     23747     23750
     23746     23744     23747     23748     23746     23744     23747     23749
     23746     23744     23747     23750     23747     23750     23753     23754
     23747     23750     23753     23755     23747     23750     23753     23756
     23748     23747     23750     23751     23748     23747     23750     23752
     23748     23747     23750     23753     23749     23747     23750     23751
     23749     23747     23750     23752     23749     23747     23750     23753
     23750     23753     23756     23757     23750     23753     23756     23758
     23751     23750     23753     23754     23751     23750     23753     23755
     23751     23750     23753     23756     23752     23750     23753     23754
     23752     23750     23753     23755     23752     23750     23753     23756
     23753     23756     23758     23759     23753     23756     23758     23760
     23754     23753     23756     23757     23754     23753     23756     23758
     23755     23753     23756     23757     23755     23753     23756     23758
     23756     23758     23760     23761     23756     23758     23760     23762
     23756     23758     23760     23763     23757     23756     23758     23759
     23757     23756     23758     23760     23758     23760     23763     23764
     23758     23760     23763     23765     23758     23760     23763     23766
     23759     23758     23760     23761     23759     23758     23760     23762
     23759     23758     23760     23763     23760     23763     23766     23767
     23760     23763     23766     23768     23760     23763     23766     23769
     23761     23760     23763     23764     23761     23760     23763     23765
     23761     23760     23763     23766     23762     23760     23763     23764
     23762     23760     23763     23765     23762     23760     23763     23766
     23763     23766     23769     23770     23763     23766     23769     23771
     23763     23766     23769     23772     23764     23763     23766     23767
     23764     23763     23766     23768     23764     23763     23766     23769
     23765     23763     23766     23767     23765     23763     23766     23768
     23765     23763     23766     23769     23766     23769     23772     23773
     23766     23769     23772     23774     23766     23769     23772     23775
     23767     23766     23769     23770     23767     23766     23769     23771
     23767     23766     23769     23772     23768     23766     23769     23770
     23768     23766     23769     23771     23768     23766     23769     23772
     23769     23772     23775     23776     23769     23772     23775     23777
     23769     23772     23775     23778     23770     23769     23772     23773
     23770     23769     23772     23774     23770     23769     23772     23775
     23771     23769     23772     23773     23771     23769     23772     23774
     23771     23769     23772     23775     23773     23772     23775     23776
     23773     23772     23775     23777     23773     23772     23775     23778
     23774     23772     23775     23776     23774     23772     23775     23777
     23774     23772     23775     23778     23779     23782     23785     23786
     23779     23782     23785     23787     23779     23782     23785     23788
     23780     23779     23782     23783     23780     23779     23782     23784
     23780     23779     23782     23785     23781     23779     23782     23783
     23781     23779     23782     23784     23781     23779     23782     23785
     23782     23785     23788     23789     23782     23785     23788     23790
     23782     23785     23788     23791     23783     23782     23785     23786
     23783     23782     23785     23787     23783     23782     23785     23788
     23784     23782     23785     23786     23784     23782     23785     23787
     23784     23782     23785     23788     23785     23788     23791     23792
     23785     23788     23791     23793     23785     23788     23791     23794
     23786     23785     23788     23789     23786     23785     23788     23790
     23786     23785     23788     23791     23787     23785     23788     23789
     23787     23785     23788     23790     23787     23785     23788     23791
     23788     23791     23794     23795     23788     23791     23794     23796
     23788     23791     23794     23797     23789     23788     23791     23792
     23789     23788     23791     23793     23789     23788     23791     23794
     23790     23788     23791     23792     23790     23788     23791     23793
     23790     23788     23791     23794     23791     23794     23797     23798
     23791     23794     23797     23799     23791     23794     23797     23800
     23792     23791     23794     23795     23792     23791     23794     23796
     23792     23791     23794     23797     23793     23791     23794     23795
     23793     23791     23794     23796     23793     23791     23794     23797
     23794     23797     23800     23801     23794     23797     23800     23802
     23794     23797     23800     23803     23795     23794     23797     23798
     23795     23794     23797     23799     23795     23794     23797     23800
     23796     23794     23797     23798     23796     23794     23797     23799
     23796     23794     23797     23800     23797     23800     23803     23804
     23797     23800     23803     23805     23797     23800     23803     23806
     23798     23797     23800     23801     23798     23797     23800     23802
     23798     23797     23800     23803     23799     23797     23800     23801
     23799     23797     23800     23802     23799     23797     23800     23803
     23800     23803     23806     23807     23800     23803     23806     23808
     23800     23803     23806     23809     23801     23800     23803     23804
     23801     23800     23803     23805     23801     23800     23803     23806
     23802     23800     23803     23804     23802     23800     23803     23805
     23802     23800     23803     23806     23803     23806     23809     23810
     23803     23806     23809     23811     23803     23806     23809     23812
     23804     23803     23806     23807     23804     23803     23806     23808
     23804     23803     23806     23809     23805     23803     23806     23807
     23805     23803     23806     23808     23805     23803     23806     23809
     23806     23809     23812     23813     23806     23809     23812     23814
     23806     23809     23812     23815     23807     23806     23809     23810
     23807     23806     23809     23811     23807     23806     23809     23812
     23808     23806     23809     23810     23808     23806     23809     23811
     23808     23806     23809     23812     23809     23812     23815     23816
     23809     23812     23815     23817     23809     23812     23815     23818
     23810     23809     23812     23813     23810     23809     23812     23814
     23810     23809     23812     23815     23811     23809     23812     23813
     23811     23809     23812     23814     23811     23809     23812     23815
     23812     23815     23818     23819     23812     23815     23818     23820
     23812     23815     23818     23821     23813     23812     23815     23816
     23813     23812     23815     23817     23813     23812     23815     23818
     23814     23812     23815     23816     23814     23812     23815     23817
     23814     23812     23815     23818     23816     23815     23818     23819
     23816     23815     23818     23820     23816     23815     23818     23821
     23817     23815     23818     23819     23817     23815     23818     23820
     23817     23815     23818     23821     23822     23826     23829     23830
     23822     23826     23829     23831     23822     23826     23829     23836
     23823     23822     23826     23827     23823     23822     23826     23828
     23823     23822     23826     23829     23824     23822     23826     23827
     23824     23822     23826     23828     23824     23822     23826     23829
     23825     23822     23826     23827     23825     23822     23826     23828
     23825     23822     23826     23829     23826     23829     23836     23832
     23827     23826     23829     23830     23827     23826     23829     23831
     23827     23826     23829     23836     23828     23826     23829     23830
     23828     23826     23829     23831     23828     23826     23829     23836
     23829     23836     23832     23833     23829     23836     23832     23834
     23829     23836     23832     23835     23830     23829     23836     23832
     23831     23829     23836     23832     23832     23835     23837     23838
     23832     23835     23837     23839     23832     23835     23837     23840
     23833     23832     23835     23837     23834     23832     23835     23837
     23835     23837     23840     23841     23835     23837     23840     23842
     23835     23837     23840     23848     23836     23832     23835     23837
     23837     23840     23842     23843     23837     23840     23848     23849
     23837     23840     23848     23850     23837     23840     23848     23851
     23838     23837     23840     23841     23838     23837     23840     23842
     23838     23837     23840     23848     23839     23837     23840     23841
     23839     23837     23840     23842     23839     23837     23840     23848
     23840     23842     23843     23844     23840     23842     23843     23845
     23840     23848     23851     23852     23841     23840     23842     23843
     23841     23840     23848     23849     23841     23840     23848     23850
     23841     23840     23848     23851     23842     23840     23848     23849
     23842     23840     23848     23850     23842     23840     23848     23851
     23842     23843     23845     23846     23842     23843     23845     23847
     23842     23843     23845     23857     23843     23842     23840     23848
     23843     23845     23857     23858     23843     23845     23857     23859
     23843     23845     23857     23860     23844     23843     23845     23846
     23844     23843     23845     23847     23844     23843     23845     23857
     23845     23857     23860     23861     23845     23857     23860     23862
     23845     23857     23860     23863     23846     23845     23857     23858
     23846     23845     23857     23859     23846     23845     23857     23860
     23847     23845     23857     23858     23847     23845     23857     23859
     23847     23845     23857     23860     23848     23851     23852     23853
     23848     23851     23852     23854     23849     23848     23851     23852
     23850     23848     23851     23852     23851     23852     23854     23855
     23851     23852     23854     23856     23851     23852     23854     23901
     23852     23854     23901     23902     23852     23854     23901     23903
     23852     23854     23901     23904     23853     23852     23854     23855
     23853     23852     23854     23856     23853     23852     23854     23901
     23854     23901     23904     23905     23854     23901     23904     23906
     23854     23901     23904     23907     23855     23854     23901     23902
     23855     23854     23901     23903     23855     23854     23901     23904
     23856     23854     23901     23902     23856     23854     23901     23903
     23856     23854     23901     23904     23857     23860     23863     23864
     23857     23860     23863     23865     23857     23860     23863     23866
     23858     23857     23860     23861     23858     23857     23860     23862
     23858     23857     23860     23863     23859     23857     23860     23861
     23859     23857     23860     23862     23859     23857     23860     23863
     23860     23863     23866     23867     23860     23863     23866     23868
     23860     23863     23866     23869     23861     23860     23863     23864
     23861     23860     23863     23865     23861     23860     23863     23866
     23862     23860     23863     23864     23862     23860     23863     23865
     23862     23860     23863     23866     23863     23866     23869     23870
     23863     23866     23869     23871     23863     23866     23869     23872
     23864     23863     23866     23867     23864     23863     23866     23868
     23864     23863     23866     23869     23865     23863     23866     23867
     23865     23863     23866     23868     23865     23863     23866     23869
     23866     23869     23872     23873     23866     23869     23872     23874
     23866     23869     23872     23875     23867     23866     23869     23870
     23867     23866     23869     23871     23867     23866     23869     23872
     23868     23866     23869     23870     23868     23866     23869     23871
     23868     23866     23869     23872     23869     23872     23875     23876
     23869     23872     23875     23877     23869     23872     23875     23880
     23870     23869     23872     23873     23870     23869     23872     23874
     23870     23869     23872     23875     23871     23869     23872     23873
     23871     23869     23872     23874     23871     23869     23872     23875
     23872     23875     23877     23878     23872     23875     23877     23879
     23872     23875     23877     23880     23872     23875     23880     23877
     23872     23875     23880     23881     23872     23875     23880     23882
     23873     23872     23875     23876     23873     23872     23875     23877
     23873     23872     23875     23880     23874     23872     23875     23876
     23874     23872     23875     23877     23874     23872     23875     23880
     23875     23877     23880     23881     23875     23877     23880     23882
     23875     23880     23877     23878     23875     23880     23877     23879
     23875     23880     23882     23883     23875     23880     23882     23884
     23875     23880     23882     23885     23876     23875     23877     23878
     23876     23875     23877     23879     23876     23875     23877     23880
     23876     23875     23880     23877     23876     23875     23880     23881
     23876     23875     23880     23882     23877     23875     23880     23881
     23877     23875     23880     23882     23877     23880     23882     23883
     23877     23880     23882     23884     23877     23880     23882     23885
     23878     23877     23875     23880     23878     23877     23880     23881
     23878     23877     23880     23882     23879     23877     23875     23880
     23879     23877     23880     23881     23879     23877     23880     23882
     23880     23882     23885     23886     23880     23882     23885     23887
     23880     23882     23885     23888     23881     23880     23882     23883
     23881     23880     23882     23884     23881     23880     23882     23885
     23882     23885     23888     23889     23882     23885     23888     23890
     23882     23885     23888     23891     23883     23882     23885     23886
     23883     23882     23885     23887     23883     23882     23885     23888
     23884     23882     23885     23886     23884     23882     23885     23887
     23884     23882     23885     23888     23885     23888     23891     23892
     23885     23888     23891     23893     23885     23888     23891     23894
     23886     23885     23888     23889     23886     23885     23888     23890
     23886     23885     23888     23891     23887     23885     23888     23889
     23887     23885     23888     23890     23887     23885     23888     23891
     23888     23891     23894     23895     23888     23891     23894     23896
     23888     23891     23894     23897     23889     23888     23891     23892
     23889     23888     23891     23893     23889     23888     23891     23894
     23890     23888     23891     23892     23890     23888     23891     23893
     23890     23888     23891     23894     23891     23894     23897     23898
     23891     23894     23897     23899     23891     23894     23897     23900
     23892     23891     23894     23895     23892     23891     23894     23896
     23892     23891     23894     23897     23893     23891     23894     23895
     23893     23891     23894     23896     23893     23891     23894     23897
     23895     23894     23897     23898     23895     23894     23897     23899
     23895     23894     23897     23900     23896     23894     23897     23898
     23896     23894     23897     23899     23896     23894     23897     23900
     23901     23904     23907     23908     23901     23904     23907     23909
     23901     23904     23907     23910     23902     23901     23904     23905
     23902     23901     23904     23906     23902     23901     23904     23907
     23903     23901     23904     23905     23903     23901     23904     23906
     23903     23901     23904     23907     23904     23907     23910     23911
     23904     23907     23910     23912     23904     23907     23910     23913
     23905     23904     23907     23908     23905     23904     23907     23909
     23905     23904     23907     23910     23906     23904     23907     23908
     23906     23904     23907     23909     23906     23904     23907     23910
     23907     23910     23913     23914     23907     23910     23913     23915
     23907     23910     23913     23916     23908     23907     23910     23911
     23908     23907     23910     23912     23908     23907     23910     23913
     23909     23907     23910     23911     23909     23907     23910     23912
     23909     23907     23910     23913     23910     23913     23916     23917
     23910     23913     23916     23918     23910     23913     23916     23919
     23911     23910     23913     23914     23911     23910     23913     23915
     23911     23910     23913     23916     23912     23910     23913     23914
     23912     23910     23913     23915     23912     23910     23913     23916
     23913     23916     23919     23920     23913     23916     23919     23921
     23913     23916     23919     23922     23914     23913     23916     23917
     23914     23913     23916     23918     23914     23913     23916     23919
     23915     23913     23916     23917     23915     23913     23916     23918
     23915     23913     23916     23919     23916     23919     23922     23923
     23916     23919     23922     23924     23916     23919     23922     23925
     23917     23916     23919     23920     23917     23916     23919     23921
     23917     23916     23919     23922     23918     23916     23919     23920
     23918     23916     23919     23921     23918     23916     23919     23922
     23919     23922     23925     23926     23919     23922     23925     23927
     23919     23922     23925     23928     23920     23919     23922     23923
     23920     23919     23922     23924     23920     23919     23922     23925
     23921     23919     23922     23923     23921     23919     23922     23924
     23921     23919     23922     23925     23922     23925     23928     23929
     23922     23925     23928     23930     23922     23925     23928     23931
     23923     23922     23925     23926     23923     23922     23925     23927
     23923     23922     23925     23928     23924     23922     23925     23926
     23924     23922     23925     23927     23924     23922     23925     23928
     23925     23928     23931     23932     23925     23928     23931     23933
     23925     23928     23931     23934     23926     23925     23928     23929
     23926     23925     23928     23930     23926     23925     23928     23931
     23927     23925     23928     23929     23927     23925     23928     23930
     23927     23925     23928     23931     23928     23931     23934     23935
     23928     23931     23934     23936     23928     23931     23934     23937
     23929     23928     23931     23932     23929     23928     23931     23933
     23929     23928     23931     23934     23930     23928     23931     23932
     23930     23928     23931     23933     23930     23928     23931     23934
     23931     23934     23937     23938     23931     23934     23937     23939
     23931     23934     23937     23940     23932     23931     23934     23935
     23932     23931     23934     23936     23932     23931     23934     23937
     23933     23931     23934     23935     23933     23931     23934     23936
     23933     23931     23934     23937     23935     23934     23937     23938
     23935     23934     23937     23939     23935     23934     23937     23940
     23936     23934     23937     23938     23936     23934     23937     23939
     23936     23934     23937     23940     23941     23945     23948     23949
     23941     23945     23948     23950     23941     23945     23948     23955
     23942     23941     23945     23946     23942     23941     23945     23947
     23942     23941     23945     23948     23943     23941     23945     23946
     23943     23941     23945     23947     23943     23941     23945     23948
     23944     23941     23945     23946     23944     23941     23945     23947
     23944     23941     23945     23948     23945     23948     23955     23951
     23946     23945     23948     23949     23946     23945     23948     23950
     23946     23945     23948     23955     23947     23945     23948     23949
     23947     23945     23948     23950     23947     23945     23948     23955
     23948     23955     23951     23952     23948     23955     23951     23953
     23948     23955     23951     23954     23949     23948     23955     23951
     23950     23948     23955     23951     23951     23954     23956     23957
     23951     23954     23956     23958     23951     23954     23956     23959
     23952     23951     23954     23956     23953     23951     23954     23956
     23954     23956     23959     23960     23954     23956     23959     23961
     23954     23956     23959     23967     23955     23951     23954     23956
     23956     23959     23961     23962     23956     23959     23967     23968
     23956     23959     23967     23969     23956     23959     23967     23970
     23957     23956     23959     23960     23957     23956     23959     23961
     23957     23956     23959     23967     23958     23956     23959     23960
     23958     23956     23959     23961     23958     23956     23959     23967
     23959     23961     23962     23963     23959     23961     23962     23964
     23959     23967     23970     23971     23960     23959     23961     23962
     23960     23959     23967     23968     23960     23959     23967     23969
     23960     23959     23967     23970     23961     23959     23967     23968
     23961     23959     23967     23969     23961     23959     23967     23970
     23961     23962     23964     23965     23961     23962     23964     23966
     23961     23962     23964     23976     23962     23961     23959     23967
     23962     23964     23976     23977     23962     23964     23976     23978
     23962     23964     23976     23979     23963     23962     23964     23965
     23963     23962     23964     23966     23963     23962     23964     23976
     23964     23976     23979     23980     23964     23976     23979     23981
     23964     23976     23979     23982     23965     23964     23976     23977
     23965     23964     23976     23978     23965     23964     23976     23979
     23966     23964     23976     23977     23966     23964     23976     23978
     23966     23964     23976     23979     23967     23970     23971     23972
     23967     23970     23971     23973     23968     23967     23970     23971
     23969     23967     23970     23971     23970     23971     23973     23974
     23970     23971     23973     23975     23970     23971     23973     24020
     23971     23973     24020     24021     23971     23973     24020     24022
     23971     23973     24020     24023     23972     23971     23973     23974
     23972     23971     23973     23975     23972     23971     23973     24020
     23973     24020     24023     24024     23973     24020     24023     24025
     23973     24020     24023     24026     23974     23973     24020     24021
     23974     23973     24020     24022     23974     23973     24020     24023
     23975     23973     24020     24021     23975     23973     24020     24022
     23975     23973     24020     24023     23976     23979     23982     23983
     23976     23979     23982     23984     23976     23979     23982     23985
     23977     23976     23979     23980     23977     23976     23979     23981
     23977     23976     23979     23982     23978     23976     23979     23980
     23978     23976     23979     23981     23978     23976     23979     23982
     23979     23982     23985     23986     23979     23982     23985     23987
     23979     23982     23985     23988     23980     23979     23982     23983
     23980     23979     23982     23984     23980     23979     23982     23985
     23981     23979     23982     23983     23981     23979     23982     23984
     23981     23979     23982     23985     23982     23985     23988     23989
     23982     23985     23988     23990     23982     23985     23988     23991
     23983     23982     23985     23986     23983     23982     23985     23987
     23983     23982     23985     23988     23984     23982     23985     23986
     23984     23982     23985     23987     23984     23982     23985     23988
     23985     23988     23991     23992     23985     23988     23991     23993
     23985     23988     23991     23994     23986     23985     23988     23989
     23986     23985     23988     23990     23986     23985     23988     23991
     23987     23985     23988     23989     23987     23985     23988     23990
     23987     23985     23988     23991     23988     23991     23994     23995
     23988     23991     23994     23996     23988     23991     23994     23999
     23989     23988     23991     23992     23989     23988     23991     23993
     23989     23988     23991     23994     23990     23988     23991     23992
     23990     23988     23991     23993     23990     23988     23991     23994
     23991     23994     23996     23997     23991     23994     23996     23998
     23991     23994     23996     23999     23991     23994     23999     23996
     23991     23994     23999     24000     23991     23994     23999     24001
     23992     23991     23994     23995     23992     23991     23994     23996
     23992     23991     23994     23999     23993     23991     23994     23995
     23993     23991     23994     23996     23993     23991     23994     23999
     23994     23996     23999     24000     23994     23996     23999     24001
     23994     23999     23996     23997     23994     23999     23996     23998
     23994     23999     24001     24002     23994     23999     24001     24003
     23994     23999     24001     24004     23995     23994     23996     23997
     23995     23994     23996     23998     23995     23994     23996     23999
     23995     23994     23999     23996     23995     23994     23999     24000
     23995     23994     23999     24001     23996     23994     23999     24000
     23996     23994     23999     24001     23996     23999     24001     24002
     23996     23999     24001     24003     23996     23999     24001     24004
     23997     23996     23994     23999     23997     23996     23999     24000
     23997     23996     23999     24001     23998     23996     23994     23999
     23998     23996     23999     24000     23998     23996     23999     24001
     23999     24001     24004     24005     23999     24001     24004     24006
     23999     24001     24004     24007     24000     23999     24001     24002
     24000     23999     24001     24003     24000     23999     24001     24004
     24001     24004     24007     24008     24001     24004     24007     24009
     24001     24004     24007     24010     24002     24001     24004     24005
     24002     24001     24004     24006     24002     24001     24004     24007
     24003     24001     24004     24005     24003     24001     24004     24006
     24003     24001     24004     24007     24004     24007     24010     24011
     24004     24007     24010     24012     24004     24007     24010     24013
     24005     24004     24007     24008     24005     24004     24007     24009
     24005     24004     24007     24010     24006     24004     24007     24008
     24006     24004     24007     24009     24006     24004     24007     24010
     24007     24010     24013     24014     24007     24010     24013     24015
     24007     24010     24013     24016     24008     24007     24010     24011
     24008     24007     24010     24012     24008     24007     24010     24013
     24009     24007     24010     24011     24009     24007     24010     24012
     24009     24007     24010     24013     24010     24013     24016     24017
     24010     24013     24016     24018     24010     24013     24016     24019
     24011     24010     24013     24014     24011     24010     24013     24015
     24011     24010     24013     24016     24012     24010     24013     24014
     24012     24010     24013     24015     24012     24010     24013     24016
     24014     24013     24016     24017     24014     24013     24016     24018
     24014     24013     24016     24019     24015     24013     24016     24017
     24015     24013     24016     24018     24015     24013     24016     24019
     24020     24023     24026     24027     24020     24023     24026     24028
     24020     24023     24026     24029     24021     24020     24023     24024
     24021     24020     24023     24025     24021     24020     24023     24026
     24022     24020     24023     24024     24022     24020     24023     24025
     24022     24020     24023     24026     24023     24026     24029     24030
     24023     24026     24029     24031     24023     24026     24029     24032
     24024     24023     24026     24027     24024     24023     24026     24028
     24024     24023     24026     24029     24025     24023     24026     24027
     24025     24023     24026     24028     24025     24023     24026     24029
     24026     24029     24032     24033     24026     24029     24032     24034
     24026     24029     24032     24035     24027     24026     24029     24030
     24027     24026     24029     24031     24027     24026     24029     24032
     24028     24026     24029     24030     24028     24026     24029     24031
     24028     24026     24029     24032     24029     24032     24035     24036
     24029     24032     24035     24037     24029     24032     24035     24038
     24030     24029     24032     24033     24030     24029     24032     24034
     24030     24029     24032     24035     24031     24029     24032     24033
     24031     24029     24032     24034     24031     24029     24032     24035
     24032     24035     24038     24039     24032     24035     24038     24040
     24032     24035     24038     24041     24033     24032     24035     24036
     24033     24032     24035     24037     24033     24032     24035     24038
     24034     24032     24035     24036     24034     24032     24035     24037
     24034     24032     24035     24038     24035     24038     24041     24042
     24035     24038     24041     24043     24035     24038     24041     24044
     24036     24035     24038     24039     24036     24035     24038     24040
     24036     24035     24038     24041     24037     24035     24038     24039
     24037     24035     24038     24040     24037     24035     24038     24041
     24038     24041     24044     24045     24038     24041     24044     24046
     24038     24041     24044     24047     24039     24038     24041     24042
     24039     24038     24041     24043     24039     24038     24041     24044
     24040     24038     24041     24042     24040     24038     24041     24043
     24040     24038     24041     24044     24041     24044     24047     24048
     24041     24044     24047     24049     24041     24044     24047     24050
     24042     24041     24044     24045     24042     24041     24044     24046
     24042     24041     24044     24047     24043     24041     24044     24045
     24043     24041     24044     24046     24043     24041     24044     24047
     24044     24047     24050     24051     24044     24047     24050     24052
     24044     24047     24050     24053     24045     24044     24047     24048
     24045     24044     24047     24049     24045     24044     24047     24050
     24046     24044     24047     24048     24046     24044     24047     24049
     24046     24044     24047     24050     24047     24050     24053     24054
     24047     24050     24053     24055     24047     24050     24053     24056
     24048     24047     24050     24051     24048     24047     24050     24052
     24048     24047     24050     24053     24049     24047     24050     24051
     24049     24047     24050     24052     24049     24047     24050     24053
     24050     24053     24056     24057     24050     24053     24056     24058
     24050     24053     24056     24059     24051     24050     24053     24054
     24051     24050     24053     24055     24051     24050     24053     24056
     24052     24050     24053     24054     24052     24050     24053     24055
     24052     24050     24053     24056     24053     24056     24059     24060
     24053     24056     24059     24061     24053     24056     24059     24062
     24054     24053     24056     24057     24054     24053     24056     24058
     24054     24053     24056     24059     24055     24053     24056     24057
     24055     24053     24056     24058     24055     24053     24056     24059
     24057     24056     24059     24060     24057     24056     24059     24061
     24057     24056     24059     24062     24058     24056     24059     24060
     24058     24056     24059     24061     24058     24056     24059     24062
     24063     24067     24070     24071     24063     24067     24070     24072
     24063     24067     24070     24077     24064     24063     24067     24068
     24064     24063     24067     24069     24064     24063     24067     24070
     24065     24063     24067     24068     24065     24063     24067     24069
     24065     24063     24067     24070     24066     24063     24067     24068
     24066     24063     24067     24069     24066     24063     24067     24070
     24067     24070     24077     24073     24068     24067     24070     24071
     24068     24067     24070     24072     24068     24067     24070     24077
     24069     24067     24070     24071     24069     24067     24070     24072
     24069     24067     24070     24077     24070     24077     24073     24074
     24070     24077     24073     24075     24070     24077     24073     24076
     24071     24070     24077     24073     24072     24070     24077     24073
     24073     24076     24078     24079     24073     24076     24078     24080
     24073     24076     24078     24081     24074     24073     24076     24078
     24075     24073     24076     24078     24076     24078     24081     24082
     24076     24078     24081     24083     24076     24078     24081     24089
     24077     24073     24076     24078     24078     24081     24083     24084
     24078     24081     24089     24090     24078     24081     24089     24091
     24078     24081     24089     24092     24079     24078     24081     24082
     24079     24078     24081     24083     24079     24078     24081     24089
     24080     24078     24081     24082     24080     24078     24081     24083
     24080     24078     24081     24089     24081     24083     24084     24085
     24081     24083     24084     24086     24081     24089     24092     24093
     24082     24081     24083     24084     24082     24081     24089     24090
     24082     24081     24089     24091     24082     24081     24089     24092
     24083     24081     24089     24090     24083     24081     24089     24091
     24083     24081     24089     24092     24083     24084     24086     24087
     24083     24084     24086     24088     24083     24084     24086     24098
     24084     24083     24081     24089     24084     24086     24098     24099
     24084     24086     24098     24100     24084     24086     24098     24101
     24085     24084     24086     24087     24085     24084     24086     24088
     24085     24084     24086     24098     24086     24098     24101     24102
     24086     24098     24101     24103     24086     24098     24101     24104
     24087     24086     24098     24099     24087     24086     24098     24100
     24087     24086     24098     24101     24088     24086     24098     24099
     24088     24086     24098     24100     24088     24086     24098     24101
     24089     24092     24093     24094     24089     24092     24093     24095
     24090     24089     24092     24093     24091     24089     24092     24093
     24092     24093     24095     24096     24092     24093     24095     24097
     24092     24093     24095     24145     24093     24095     24145     24146
     24093     24095     24145     24147     24093     24095     24145     24148
     24094     24093     24095     24096     24094     24093     24095     24097
     24094     24093     24095     24145     24095     24145     24148     24149
     24095     24145     24148     24150     24095     24145     24148     24151
     24096     24095     24145     24146     24096     24095     24145     24147
     24096     24095     24145     24148     24097     24095     24145     24146
     24097     24095     24145     24147     24097     24095     24145     24148
     24098     24101     24104     24105     24098     24101     24104     24106
     24098     24101     24104     24107     24099     24098     24101     24102
     24099     24098     24101     24103     24099     24098     24101     24104
     24100     24098     24101     24102     24100     24098     24101     24103
     24100     24098     24101     24104     24101     24104     24107     24108
     24101     24104     24107     24109     24101     24104     24107     24110
     24102     24101     24104     24105     24102     24101     24104     24106
     24102     24101     24104     24107     24103     24101     24104     24105
     24103     24101     24104     24106     24103     24101     24104     24107
     24104     24107     24110     24111     24104     24107     24110     24112
     24104     24107     24110     24113     24105     24104     24107     24108
     24105     24104     24107     24109     24105     24104     24107     24110
     24106     24104     24107     24108     24106     24104     24107     24109
     24106     24104     24107     24110     24107     24110     24113     24114
     24107     24110     24113     24115     24107     24110     24113     24116
     24108     24107     24110     24111     24108     24107     24110     24112
     24108     24107     24110     24113     24109     24107     24110     24111
     24109     24107     24110     24112     24109     24107     24110     24113
     24110     24113     24116     24117     24110     24113     24116     24118
     24111     24110     24113     24114     24111     24110     24113     24115
     24111     24110     24113     24116     24112     24110     24113     24114
     24112     24110     24113     24115     24112     24110     24113     24116
     24113     24116     24118     24119     24113     24116     24118     24120
     24114     24113     24116     24117     24114     24113     24116     24118
     24115     24113     24116     24117     24115     24113     24116     24118
     24116     24118     24120     24121     24116     24118     24120     24122
     24116     24118     24120     24123     24117     24116     24118     24119
     24117     24116     24118     24120     24118     24120     24123     24124
     24118     24120     24123     24125     24118     24120     24123     24126
     24119     24118     24120     24121     24119     24118     24120     24122
     24119     24118     24120     24123     24120     24123     24126     24127
     24120     24123     24126     24128     24120     24123     24126     24129
     24121     24120     24123     24124     24121     24120     24123     24125
     24121     24120     24123     24126     24122     24120     24123     24124
     24122     24120     24123     24125     24122     24120     24123     24126
     24123     24126     24129     24130     24123     24126     24129     24131
     24123     24126     24129     24132     24124     24123     24126     24127
     24124     24123     24126     24128     24124     24123     24126     24129
     24125     24123     24126     24127     24125     24123     24126     24128
     24125     24123     24126     24129     24126     24129     24132     24133
     24126     24129     24132     24134     24126     24129     24132     24135
     24127     24126     24129     24130     24127     24126     24129     24131
     24127     24126     24129     24132     24128     24126     24129     24130
     24128     24126     24129     24131     24128     24126     24129     24132
     24129     24132     24135     24136     24129     24132     24135     24137
     24129     24132     24135     24138     24130     24129     24132     24133
     24130     24129     24132     24134     24130     24129     24132     24135
     24131     24129     24132     24133     24131     24129     24132     24134
     24131     24129     24132     24135     24132     24135     24138     24139
     24132     24135     24138     24140     24132     24135     24138     24141
     24133     24132     24135     24136     24133     24132     24135     24137
     24133     24132     24135     24138     24134     24132     24135     24136
     24134     24132     24135     24137     24134     24132     24135     24138
     24135     24138     24141     24142     24135     24138     24141     24143
     24135     24138     24141     24144     24136     24135     24138     24139
     24136     24135     24138     24140     24136     24135     24138     24141
     24137     24135     24138     24139     24137     24135     24138     24140
     24137     24135     24138     24141     24139     24138     24141     24142
     24139     24138     24141     24143     24139     24138     24141     24144
     24140     24138     24141     24142     24140     24138     24141     24143
     24140     24138     24141     24144     24145     24148     24151     24152
     24145     24148     24151     24153     24145     24148     24151     24154
     24146     24145     24148     24149     24146     24145     24148     24150
     24146     24145     24148     24151     24147     24145     24148     24149
     24147     24145     24148     24150     24147     24145     24148     24151
     24148     24151     24154     24155     24148     24151     24154     24156
     24148     24151     24154     24157     24149     24148     24151     24152
     24149     24148     24151     24153     24149     24148     24151     24154
     24150     24148     24151     24152     24150     24148     24151     24153
     24150     24148     24151     24154     24151     24154     24157     24158
     24151     24154     24157     24159     24151     24154     24157     24160
     24152     24151     24154     24155     24152     24151     24154     24156
     24152     24151     24154     24157     24153     24151     24154     24155
     24153     24151     24154     24156     24153     24151     24154     24157
     24154     24157     24160     24161     24154     24157     24160     24162
     24154     24157     24160     24163     24155     24154     24157     24158
     24155     24154     24157     24159     24155     24154     24157     24160
     24156     24154     24157     24158     24156     24154     24157     24159
     24156     24154     24157     24160     24157     24160     24163     24164
     24157     24160     24163     24165     24157     24160     24163     24166
     24158     24157     24160     24161     24158     24157     24160     24162
     24158     24157     24160     24163     24159     24157     24160     24161
     24159     24157     24160     24162     24159     24157     24160     24163
     24160     24163     24166     24167     24160     24163     24166     24168
     24160     24163     24166     24169     24161     24160     24163     24164
     24161     24160     24163     24165     24161     24160     24163     24166
     24162     24160     24163     24164     24162     24160     24163     24165
     24162     24160     24163     24166     24163     24166     24169     24170
     24163     24166     24169     24171     24163     24166     24169     24172
     24164     24163     24166     24167     24164     24163     24166     24168
     24164     24163     24166     24169     24165     24163     24166     24167
     24165     24163     24166     24168     24165     24163     24166     24169
     24166     24169     24172     24173     24166     24169     24172     24174
     24166     24169     24172     24175     24167     24166     24169     24170
     24167     24166     24169     24171     24167     24166     24169     24172
     24168     24166     24169     24170     24168     24166     24169     24171
     24168     24166     24169     24172     24169     24172     24175     24176
     24169     24172     24175     24177     24169     24172     24175     24178
     24170     24169     24172     24173     24170     24169     24172     24174
     24170     24169     24172     24175     24171     24169     24172     24173
     24171     24169     24172     24174     24171     24169     24172     24175
     24172     24175     24178     24179     24172     24175     24178     24180
     24172     24175     24178     24181     24173     24172     24175     24176
     24173     24172     24175     24177     24173     24172     24175     24178
     24174     24172     24175     24176     24174     24172     24175     24177
     24174     24172     24175     24178     24175     24178     24181     24182
     24175     24178     24181     24183     24175     24178     24181     24184
     24176     24175     24178     24179     24176     24175     24178     24180
     24176     24175     24178     24181     24177     24175     24178     24179
     24177     24175     24178     24180     24177     24175     24178     24181
     24178     24181     24184     24185     24178     24181     24184     24186
     24178     24181     24184     24187     24179     24178     24181     24182
     24179     24178     24181     24183     24179     24178     24181     24184
     24180     24178     24181     24182     24180     24178     24181     24183
     24180     24178     24181     24184     24182     24181     24184     24185
     24182     24181     24184     24186     24182     24181     24184     24187
     24183     24181     24184     24185     24183     24181     24184     24186
     24183     24181     24184     24187     24188     24194     24191     24192
     24188     24194     24191     24193     24188     24194     24191     24195
     24188     24199     24201     24202     24188     24199     24203     24204
     24188     24199     24203     24205     24188     24199     24203     24209
     24189     24188     24194     24191     24189     24188     24199     24200
     24189     24188     24199     24201     24189     24188     24199     24203
     24190     24188     24194     24191     24190     24188     24199     24200
     24190     24188     24199     24201     24190     24188     24199     24203
     24191     24194     24188     24199     24191     24195     24196     24197
     24191     24195     24196     24198     24191     24195     24196     24231
     24192     24191     24195     24196     24193     24191     24195     24196
     24194     24188     24199     24200     24194     24188     24199     24201
     24194     24188     24199     24203     24194     24191     24195     24196
     24195     24196     24231     24232     24195     24196     24231     24233
     24195     24196     24231     24239     24196     24231     24233     24234
     24196     24231     24239     24240     24196     24231     24239     24241
     24196     24231     24239     24242     24197     24196     24231     24232
     24197     24196     24231     24233     24197     24196     24231     24239
     24198     24196     24231     24232     24198     24196     24231     24233
     24198     24196     24231     24239     24199     24203     24209     24206
     24200     24199     24201     24202     24200     24199     24203     24204
     24200     24199     24203     24205     24200     24199     24203     24209
     24201     24199     24203     24204     24201     24199     24203     24205
     24201     24199     24203     24209     24202     24201     24199     24203
     24203     24209     24206     24207     24203     24209     24206     24208
     24203     24209     24206     24210     24204     24203     24209     24206
     24205     24203     24209     24206     24206     24210     24211     24212
     24206     24210     24211     24213     24206     24210     24211     24214
     24207     24206     24210     24211     24208     24206     24210     24211
     24209     24206     24210     24211     24210     24211     24214     24215
     24210     24211     24214     24216     24210     24211     24214     24222
     24211     24214     24216     24217     24211     24214     24222     24223
     24211     24214     24222     24224     24211     24214     24222     24225
     24212     24211     24214     24215     24212     24211     24214     24216
     24212     24211     24214     24222     24213     24211     24214     24215
     24213     24211     24214     24216     24213     24211     24214     24222
     24214     24216     24217     24218     24214     24216     24217     24219
     24214     24222     24225     24226     24215     24214     24216     24217
     24215     24214     24222     24223     24215     24214     24222     24224
     24215     24214     24222     24225     24216     24214     24222     24223
     24216     24214     24222     24224     24216     24214     24222     24225
     24216     24217     24219     24220     24216     24217     24219     24221
     24216     24217     24219     24248     24217     24216     24214     24222
     24217     24219     24248     24249     24217     24219     24248     24250
     24217     24219     24248     24251     24218     24217     24219     24220
     24218     24217     24219     24221     24218     24217     24219     24248
     24219     24248     24251     24252     24219     24248     24251     24253
     24219     24248     24251     24254     24220     24219     24248     24249
     24220     24219     24248     24250     24220     24219     24248     24251
     24221     24219     24248     24249     24221     24219     24248     24250
     24221     24219     24248     24251     24222     24225     24226     24227
     24222     24225     24226     24228     24223     24222     24225     24226
     24224     24222     24225     24226     24225     24226     24228     24229
     24225     24226     24228     24230     24225     24226     24228     24295
     24226     24228     24295     24296     24226     24228     24295     24297
     24226     24228     24295     24298     24227     24226     24228     24229
     24227     24226     24228     24230     24227     24226     24228     24295
     24228     24295     24298     24299     24228     24295     24298     24300
     24228     24295     24298     24301     24229     24228     24295     24296
     24229     24228     24295     24297     24229     24228     24295     24298
     24230     24228     24295     24296     24230     24228     24295     24297
     24230     24228     24295     24298     24231     24233     24234     24235
     24231     24233     24234     24236     24231     24239     24242     24243
     24232     24231     24233     24234     24232     24231     24239     24240
     24232     24231     24239     24241     24232     24231     24239     24242
     24233     24231     24239     24240     24233     24231     24239     24241
     24233     24231     24239     24242     24233     24234     24236     24237
     24233     24234     24236     24238     24233     24234     24236     24338
     24234     24233     24231     24239     24234     24236     24338     24339
     24234     24236     24338     24340     24234     24236     24338     24341
     24235     24234     24236     24237     24235     24234     24236     24238
     24235     24234     24236     24338     24236     24338     24341     24342
     24236     24338     24341     24343     24236     24338     24341     24344
     24237     24236     24338     24339     24237     24236     24338     24340
     24237     24236     24338     24341     24238     24236     24338     24339
     24238     24236     24338     24340     24238     24236     24338     24341
     24239     24242     24243     24244     24239     24242     24243     24245
     24240     24239     24242     24243     24241     24239     24242     24243
     24242     24243     24245     24246     24242     24243     24245     24247
     24242     24243     24245     24385     24243     24245     24385     24386
     24243     24245     24385     24387     24243     24245     24385     24388
     24244     24243     24245     24246     24244     24243     24245     24247
     24244     24243     24245     24385     24245     24385     24388     24389
     24245     24385     24388     24390     24245     24385     24388     24391
     24246     24245     24385     24386     24246     24245     24385     24387
     24246     24245     24385     24388     24247     24245     24385     24386
     24247     24245     24385     24387     24247     24245     24385     24388
     24248     24251     24254     24255     24248     24251     24254     24256
     24248     24251     24254     24257     24249     24248     24251     24252
     24249     24248     24251     24253     24249     24248     24251     24254
     24250     24248     24251     24252     24250     24248     24251     24253
     24250     24248     24251     24254     24251     24254     24257     24258
     24251     24254     24257     24259     24251     24254     24257     24260
     24252     24251     24254     24255     24252     24251     24254     24256
     24252     24251     24254     24257     24253     24251     24254     24255
     24253     24251     24254     24256     24253     24251     24254     24257
     24254     24257     24260     24261     24254     24257     24260     24262
     24254     24257     24260     24263     24255     24254     24257     24258
     24255     24254     24257     24259     24255     24254     24257     24260
     24256     24254     24257     24258     24256     24254     24257     24259
     24256     24254     24257     24260     24257     24260     24263     24264
     24257     24260     24263     24265     24257     24260     24263     24266
     24258     24257     24260     24261     24258     24257     24260     24262
     24258     24257     24260     24263     24259     24257     24260     24261
     24259     24257     24260     24262     24259     24257     24260     24263
     24260     24263     24266     24267     24260     24263     24266     24268
     24260     24263     24266     24269     24261     24260     24263     24264
     24261     24260     24263     24265     24261     24260     24263     24266
     24262     24260     24263     24264     24262     24260     24263     24265
     24262     24260     24263     24266     24263     24266     24269     24270
     24263     24266     24269     24271     24263     24266     24269     24272
     24264     24263     24266     24267     24264     24263     24266     24268
     24264     24263     24266     24269     24265     24263     24266     24267
     24265     24263     24266     24268     24265     24263     24266     24269
     24266     24269     24272     24273     24266     24269     24272     24274
     24267     24266     24269     24270     24267     24266     24269     24271
     24267     24266     24269     24272     24268     24266     24269     24270
     24268     24266     24269     24271     24268     24266     24269     24272
     24269     24272     24274     24275     24269     24272     24274     24276
     24270     24269     24272     24273     24270     24269     24272     24274
     24271     24269     24272     24273     24271     24269     24272     24274
     24272     24274     24276     24277     24272     24274     24276     24278
     24272     24274     24276     24279     24273     24272     24274     24275
     24273     24272     24274     24276     24274     24276     24279     24280
     24274     24276     24279     24281     24274     24276     24279     24282
     24275     24274     24276     24277     24275     24274     24276     24278
     24275     24274     24276     24279     24276     24279     24282     24283
     24276     24279     24282     24284     24276     24279     24282     24285
     24277     24276     24279     24280     24277     24276     24279     24281
     24277     24276     24279     24282     24278     24276     24279     24280
     24278     24276     24279     24281     24278     24276     24279     24282
     24279     24282     24285     24286     24279     24282     24285     24287
     24279     24282     24285     24288     24280     24279     24282     24283
     24280     24279     24282     24284     24280     24279     24282     24285
     24281     24279     24282     24283     24281     24279     24282     24284
     24281     24279     24282     24285     24282     24285     24288     24289
     24282     24285     24288     24290     24282     24285     24288     24291
     24283     24282     24285     24286     24283     24282     24285     24287
     24283     24282     24285     24288     24284     24282     24285     24286
     24284     24282     24285     24287     24284     24282     24285     24288
     24285     24288     24291     24292     24285     24288     24291     24293
     24285     24288     24291     24294     24286     24285     24288     24289
     24286     24285     24288     24290     24286     24285     24288     24291
     24287     24285     24288     24289     24287     24285     24288     24290
     24287     24285     24288     24291     24289     24288     24291     24292
     24289     24288     24291     24293     24289     24288     24291     24294
     24290     24288     24291     24292     24290     24288     24291     24293
     24290     24288     24291     24294     24295     24298     24301     24302
     24295     24298     24301     24303     24295     24298     24301     24304
     24296     24295     24298     24299     24296     24295     24298     24300
     24296     24295     24298     24301     24297     24295     24298     24299
     24297     24295     24298     24300     24297     24295     24298     24301
     24298     24301     24304     24305     24298     24301     24304     24306
     24298     24301     24304     24307     24299     24298     24301     24302
     24299     24298     24301     24303     24299     24298     24301     24304
     24300     24298     24301     24302     24300     24298     24301     24303
     24300     24298     24301     24304     24301     24304     24307     24308
     24301     24304     24307     24309     24301     24304     24307     24310
     24302     24301     24304     24305     24302     24301     24304     24306
     24302     24301     24304     24307     24303     24301     24304     24305
     24303     24301     24304     24306     24303     24301     24304     24307
     24304     24307     24310     24311     24304     24307     24310     24312
     24304     24307     24310     24313     24305     24304     24307     24308
     24305     24304     24307     24309     24305     24304     24307     24310
     24306     24304     24307     24308     24306     24304     24307     24309
     24306     24304     24307     24310     24307     24310     24313     24314
     24307     24310     24313     24315     24307     24310     24313     24316
     24308     24307     24310     24311     24308     24307     24310     24312
     24308     24307     24310     24313     24309     24307     24310     24311
     24309     24307     24310     24312     24309     24307     24310     24313
     24310     24313     24316     24317     24310     24313     24316     24318
     24310     24313     24316     24319     24311     24310     24313     24314
     24311     24310     24313     24315     24311     24310     24313     24316
     24312     24310     24313     24314     24312     24310     24313     24315
     24312     24310     24313     24316     24313     24316     24319     24320
     24313     24316     24319     24321     24313     24316     24319     24322
     24314     24313     24316     24317     24314     24313     24316     24318
     24314     24313     24316     24319     24315     24313     24316     24317
     24315     24313     24316     24318     24315     24313     24316     24319
     24316     24319     24322     24323     24316     24319     24322     24324
     24316     24319     24322     24325     24317     24316     24319     24320
     24317     24316     24319     24321     24317     24316     24319     24322
     24318     24316     24319     24320     24318     24316     24319     24321
     24318     24316     24319     24322     24319     24322     24325     24326
     24319     24322     24325     24327     24319     24322     24325     24328
     24320     24319     24322     24323     24320     24319     24322     24324
     24320     24319     24322     24325     24321     24319     24322     24323
     24321     24319     24322     24324     24321     24319     24322     24325
     24322     24325     24328     24329     24322     24325     24328     24330
     24322     24325     24328     24331     24323     24322     24325     24326
     24323     24322     24325     24327     24323     24322     24325     24328
     24324     24322     24325     24326     24324     24322     24325     24327
     24324     24322     24325     24328     24325     24328     24331     24332
     24325     24328     24331     24333     24325     24328     24331     24334
     24326     24325     24328     24329     24326     24325     24328     24330
     24326     24325     24328     24331     24327     24325     24328     24329
     24327     24325     24328     24330     24327     24325     24328     24331
     24328     24331     24334     24335     24328     24331     24334     24336
     24328     24331     24334     24337     24329     24328     24331     24332
     24329     24328     24331     24333     24329     24328     24331     24334
     24330     24328     24331     24332     24330     24328     24331     24333
     24330     24328     24331     24334     24332     24331     24334     24335
     24332     24331     24334     24336     24332     24331     24334     24337
     24333     24331     24334     24335     24333     24331     24334     24336
     24333     24331     24334     24337     24338     24341     24344     24345
     24338     24341     24344     24346     24338     24341     24344     24347
     24339     24338     24341     24342     24339     24338     24341     24343
     24339     24338     24341     24344     24340     24338     24341     24342
     24340     24338     24341     24343     24340     24338     24341     24344
     24341     24344     24347     24348     24341     24344     24347     24349
     24341     24344     24347     24350     24342     24341     24344     24345
     24342     24341     24344     24346     24342     24341     24344     24347
     24343     24341     24344     24345     24343     24341     24344     24346
     24343     24341     24344     24347     24344     24347     24350     24351
     24344     24347     24350     24352     24344     24347     24350     24353
     24345     24344     24347     24348     24345     24344     24347     24349
     24345     24344     24347     24350     24346     24344     24347     24348
     24346     24344     24347     24349     24346     24344     24347     24350
     24347     24350     24353     24354     24347     24350     24353     24355
     24347     24350     24353     24356     24348     24347     24350     24351
     24348     24347     24350     24352     24348     24347     24350     24353
     24349     24347     24350     24351     24349     24347     24350     24352
     24349     24347     24350     24353     24350     24353     24356     24357
     24350     24353     24356     24358     24350     24353     24356     24359
     24351     24350     24353     24354     24351     24350     24353     24355
     24351     24350     24353     24356     24352     24350     24353     24354
     24352     24350     24353     24355     24352     24350     24353     24356
     24353     24356     24359     24360     24353     24356     24359     24361
     24353     24356     24359     24362     24354     24353     24356     24357
     24354     24353     24356     24358     24354     24353     24356     24359
     24355     24353     24356     24357     24355     24353     24356     24358
     24355     24353     24356     24359     24356     24359     24362     24363
     24356     24359     24362     24364     24357     24356     24359     24360
     24357     24356     24359     24361     24357     24356     24359     24362
     24358     24356     24359     24360     24358     24356     24359     24361
     24358     24356     24359     24362     24359     24362     24364     24365
     24359     24362     24364     24366     24360     24359     24362     24363
     24360     24359     24362     24364     24361     24359     24362     24363
     24361     24359     24362     24364     24362     24364     24366     24367
     24362     24364     24366     24368     24362     24364     24366     24369
     24363     24362     24364     24365     24363     24362     24364     24366
     24364     24366     24369     24370     24364     24366     24369     24371
     24364     24366     24369     24372     24365     24364     24366     24367
     24365     24364     24366     24368     24365     24364     24366     24369
     24366     24369     24372     24373     24366     24369     24372     24374
     24366     24369     24372     24375     24367     24366     24369     24370
     24367     24366     24369     24371     24367     24366     24369     24372
     24368     24366     24369     24370     24368     24366     24369     24371
     24368     24366     24369     24372     24369     24372     24375     24376
     24369     24372     24375     24377     24369     24372     24375     24378
     24370     24369     24372     24373     24370     24369     24372     24374
     24370     24369     24372     24375     24371     24369     24372     24373
     24371     24369     24372     24374     24371     24369     24372     24375
     24372     24375     24378     24379     24372     24375     24378     24380
     24372     24375     24378     24381     24373     24372     24375     24376
     24373     24372     24375     24377     24373     24372     24375     24378
     24374     24372     24375     24376     24374     24372     24375     24377
     24374     24372     24375     24378     24375     24378     24381     24382
     24375     24378     24381     24383     24375     24378     24381     24384
     24376     24375     24378     24379     24376     24375     24378     24380
     24376     24375     24378     24381     24377     24375     24378     24379
     24377     24375     24378     24380     24377     24375     24378     24381
     24379     24378     24381     24382     24379     24378     24381     24383
     24379     24378     24381     24384     24380     24378     24381     24382
     24380     24378     24381     24383     24380     24378     24381     24384
     24385     24388     24391     24392     24385     24388     24391     24393
     24385     24388     24391     24394     24386     24385     24388     24389
     24386     24385     24388     24390     24386     24385     24388     24391
     24387     24385     24388     24389     24387     24385     24388     24390
     24387     24385     24388     24391     24388     24391     24394     24395
     24388     24391     24394     24396     24388     24391     24394     24397
     24389     24388     24391     24392     24389     24388     24391     24393
     24389     24388     24391     24394     24390     24388     24391     24392
     24390     24388     24391     24393     24390     24388     24391     24394
     24391     24394     24397     24398     24391     24394     24397     24399
     24391     24394     24397     24400     24392     24391     24394     24395
     24392     24391     24394     24396     24392     24391     24394     24397
     24393     24391     24394     24395     24393     24391     24394     24396
     24393     24391     24394     24397     24394     24397     24400     24401
     24394     24397     24400     24402     24394     24397     24400     24403
     24395     24394     24397     24398     24395     24394     24397     24399
     24395     24394     24397     24400     24396     24394     24397     24398
     24396     24394     24397     24399     24396     24394     24397     24400
     24397     24400     24403     24404     24397     24400     24403     24405
     24397     24400     24403     24406     24398     24397     24400     24401
     24398     24397     24400     24402     24398     24397     24400     24403
     24399     24397     24400     24401     24399     24397     24400     24402
     24399     24397     24400     24403     24400     24403     24406     24407
     24400     24403     24406     24408     24400     24403     24406     24409
     24401     24400     24403     24404     24401     24400     24403     24405
     24401     24400     24403     24406     24402     24400     24403     24404
     24402     24400     24403     24405     24402     24400     24403     24406
     24403     24406     24409     24410     24403     24406     24409     24411
     24403     24406     24409     24412     24404     24403     24406     24407
     24404     24403     24406     24408     24404     24403     24406     24409
     24405     24403     24406     24407     24405     24403     24406     24408
     24405     24403     24406     24409     24406     24409     24412     24413
     24406     24409     24412     24414     24406     24409     24412     24415
     24407     24406     24409     24410     24407     24406     24409     24411
     24407     24406     24409     24412     24408     24406     24409     24410
     24408     24406     24409     24411     24408     24406     24409     24412
     24409     24412     24415     24416     24409     24412     24415     24417
     24409     24412     24415     24418     24410     24409     24412     24413
     24410     24409     24412     24414     24410     24409     24412     24415
     24411     24409     24412     24413     24411     24409     24412     24414
     24411     24409     24412     24415     24412     24415     24418     24419
     24412     24415     24418     24420     24412     24415     24418     24421
     24413     24412     24415     24416     24413     24412     24415     24417
     24413     24412     24415     24418     24414     24412     24415     24416
     24414     24412     24415     24417     24414     24412     24415     24418
     24415     24418     24421     24422     24415     24418     24421     24423
     24415     24418     24421     24424     24416     24415     24418     24419
     24416     24415     24418     24420     24416     24415     24418     24421
     24417     24415     24418     24419     24417     24415     24418     24420
     24417     24415     24418     24421     24418     24421     24424     24425
     24418     24421     24424     24426     24418     24421     24424     24427
     24419     24418     24421     24422     24419     24418     24421     24423
     24419     24418     24421     24424     24420     24418     24421     24422
     24420     24418     24421     24423     24420     24418     24421     24424
     24422     24421     24424     24425     24422     24421     24424     24426
     24422     24421     24424     24427     24423     24421     24424     24425
     24423     24421     24424     24426     24423     24421     24424     24427
     24428     24433     24435     24436     24428     24433     24437     24438
     24428     24433     24437     24439     24428     24433     24437     24444
     24429     24428     24431     24432     24429     24428     24433     24434
     24429     24428     24433     24435     24429     24428     24433     24437
     24430     24428     24431     24432     24430     24428     24433     24434
     24430     24428     24433     24435     24430     24428     24433     24437
     24431     24428     24433     24434     24431     24428     24433     24435
     24431     24428     24433     24437     24432     24431     24428     24433
     24433     24437     24444     24440     24434     24433     24435     24436
     24434     24433     24437     24438     24434     24433     24437     24439
     24434     24433     24437     24444     24435     24433     24437     24438
     24435     24433     24437     24439     24435     24433     24437     24444
     24436     24435     24433     24437     24437     24444     24440     24441
     24437     24444     24440     24442     24437     24444     24440     24443
     24438     24437     24444     24440     24439     24437     24444     24440
     24440     24443     24445     24446     24440     24443     24445     24447
     24440     24443     24445     24448     24441     24440     24443     24445
     24442     24440     24443     24445     24443     24445     24448     24449
     24443     24445     24448     24450     24443     24445     24448     24456
     24444     24440     24443     24445     24445     24448     24450     24451
     24445     24448     24456     24457     24445     24448     24456     24458
     24445     24448     24456     24459     24446     24445     24448     24449
     24446     24445     24448     24450     24446     24445     24448     24456
     24447     24445     24448     24449     24447     24445     24448     24450
     24447     24445     24448     24456     24448     24450     24451     24452
     24448     24450     24451     24453     24448     24456     24459     24460
     24449     24448     24450     24451     24449     24448     24456     24457
     24449     24448     24456     24458     24449     24448     24456     24459
     24450     24448     24456     24457     24450     24448     24456     24458
     24450     24448     24456     24459     24450     24451     24453     24454
     24450     24451     24453     24455     24450     24451     24453     24465
     24451     24450     24448     24456     24451     24453     24465     24466
     24451     24453     24465     24467     24451     24453     24465     24468
     24452     24451     24453     24454     24452     24451     24453     24455
     24452     24451     24453     24465     24453     24465     24468     24469
     24453     24465     24468     24470     24453     24465     24468     24471
     24454     24453     24465     24466     24454     24453     24465     24467
     24454     24453     24465     24468     24455     24453     24465     24466
     24455     24453     24465     24467     24455     24453     24465     24468
     24456     24459     24460     24461     24456     24459     24460     24462
     24457     24456     24459     24460     24458     24456     24459     24460
     24459     24460     24462     24463     24459     24460     24462     24464
     24459     24460     24462     24509     24460     24462     24509     24510
     24460     24462     24509     24511     24460     24462     24509     24512
     24461     24460     24462     24463     24461     24460     24462     24464
     24461     24460     24462     24509     24462     24509     24512     24513
     24462     24509     24512     24514     24462     24509     24512     24515
     24463     24462     24509     24510     24463     24462     24509     24511
     24463     24462     24509     24512     24464     24462     24509     24510
     24464     24462     24509     24511     24464     24462     24509     24512
     24465     24468     24471     24472     24465     24468     24471     24473
     24465     24468     24471     24474     24466     24465     24468     24469
     24466     24465     24468     24470     24466     24465     24468     24471
     24467     24465     24468     24469     24467     24465     24468     24470
     24467     24465     24468     24471     24468     24471     24474     24475
     24468     24471     24474     24476     24468     24471     24474     24477
     24469     24468     24471     24472     24469     24468     24471     24473
     24469     24468     24471     24474     24470     24468     24471     24472
     24470     24468     24471     24473     24470     24468     24471     24474
     24471     24474     24477     24478     24471     24474     24477     24479
     24471     24474     24477     24480     24472     24471     24474     24475
     24472     24471     24474     24476     24472     24471     24474     24477
     24473     24471     24474     24475     24473     24471     24474     24476
     24473     24471     24474     24477     24474     24477     24480     24481
     24474     24477     24480     24482     24474     24477     24480     24483
     24475     24474     24477     24478     24475     24474     24477     24479
     24475     24474     24477     24480     24476     24474     24477     24478
     24476     24474     24477     24479     24476     24474     24477     24480
     24477     24480     24483     24484     24477     24480     24483     24485
     24477     24480     24483     24488     24478     24477     24480     24481
     24478     24477     24480     24482     24478     24477     24480     24483
     24479     24477     24480     24481     24479     24477     24480     24482
     24479     24477     24480     24483     24480     24483     24485     24486
     24480     24483     24485     24487     24480     24483     24485     24488
     24480     24483     24488     24485     24480     24483     24488     24489
     24480     24483     24488     24490     24481     24480     24483     24484
     24481     24480     24483     24485     24481     24480     24483     24488
     24482     24480     24483     24484     24482     24480     24483     24485
     24482     24480     24483     24488     24483     24485     24488     24489
     24483     24485     24488     24490     24483     24488     24485     24486
     24483     24488     24485     24487     24483     24488     24490     24491
     24483     24488     24490     24492     24483     24488     24490     24493
     24484     24483     24485     24486     24484     24483     24485     24487
     24484     24483     24485     24488     24484     24483     24488     24485
     24484     24483     24488     24489     24484     24483     24488     24490
     24485     24483     24488     24489     24485     24483     24488     24490
     24485     24488     24490     24491     24485     24488     24490     24492
     24485     24488     24490     24493     24486     24485     24483     24488
     24486     24485     24488     24489     24486     24485     24488     24490
     24487     24485     24483     24488     24487     24485     24488     24489
     24487     24485     24488     24490     24488     24490     24493     24494
     24488     24490     24493     24495     24488     24490     24493     24496
     24489     24488     24490     24491     24489     24488     24490     24492
     24489     24488     24490     24493     24490     24493     24496     24497
     24490     24493     24496     24498     24490     24493     24496     24499
     24491     24490     24493     24494     24491     24490     24493     24495
     24491     24490     24493     24496     24492     24490     24493     24494
     24492     24490     24493     24495     24492     24490     24493     24496
     24493     24496     24499     24500     24493     24496     24499     24501
     24493     24496     24499     24502     24494     24493     24496     24497
     24494     24493     24496     24498     24494     24493     24496     24499
     24495     24493     24496     24497     24495     24493     24496     24498
     24495     24493     24496     24499     24496     24499     24502     24503
     24496     24499     24502     24504     24496     24499     24502     24505
     24497     24496     24499     24500     24497     24496     24499     24501
     24497     24496     24499     24502     24498     24496     24499     24500
     24498     24496     24499     24501     24498     24496     24499     24502
     24499     24502     24505     24506     24499     24502     24505     24507
     24499     24502     24505     24508     24500     24499     24502     24503
     24500     24499     24502     24504     24500     24499     24502     24505
     24501     24499     24502     24503     24501     24499     24502     24504
     24501     24499     24502     24505     24503     24502     24505     24506
     24503     24502     24505     24507     24503     24502     24505     24508
     24504     24502     24505     24506     24504     24502     24505     24507
     24504     24502     24505     24508     24509     24512     24515     24516
     24509     24512     24515     24517     24509     24512     24515     24518
     24510     24509     24512     24513     24510     24509     24512     24514
     24510     24509     24512     24515     24511     24509     24512     24513
     24511     24509     24512     24514     24511     24509     24512     24515
     24512     24515     24518     24519     24512     24515     24518     24520
     24512     24515     24518     24521     24513     24512     24515     24516
     24513     24512     24515     24517     24513     24512     24515     24518
     24514     24512     24515     24516     24514     24512     24515     24517
     24514     24512     24515     24518     24515     24518     24521     24522
     24515     24518     24521     24523     24515     24518     24521     24524
     24516     24515     24518     24519     24516     24515     24518     24520
     24516     24515     24518     24521     24517     24515     24518     24519
     24517     24515     24518     24520     24517     24515     24518     24521
     24518     24521     24524     24525     24518     24521     24524     24526
     24518     24521     24524     24527     24519     24518     24521     24522
     24519     24518     24521     24523     24519     24518     24521     24524
     24520     24518     24521     24522     24520     24518     24521     24523
     24520     24518     24521     24524     24521     24524     24527     24528
     24521     24524     24527     24529     24521     24524     24527     24530
     24522     24521     24524     24525     24522     24521     24524     24526
     24522     24521     24524     24527     24523     24521     24524     24525
     24523     24521     24524     24526     24523     24521     24524     24527
     24524     24527     24530     24531     24524     24527     24530     24532
     24524     24527     24530     24533     24525     24524     24527     24528
     24525     24524     24527     24529     24525     24524     24527     24530
     24526     24524     24527     24528     24526     24524     24527     24529
     24526     24524     24527     24530     24527     24530     24533     24534
     24527     24530     24533     24535     24527     24530     24533     24536
     24528     24527     24530     24531     24528     24527     24530     24532
     24528     24527     24530     24533     24529     24527     24530     24531
     24529     24527     24530     24532     24529     24527     24530     24533
     24530     24533     24536     24537     24530     24533     24536     24538
     24530     24533     24536     24539     24531     24530     24533     24534
     24531     24530     24533     24535     24531     24530     24533     24536
     24532     24530     24533     24534     24532     24530     24533     24535
     24532     24530     24533     24536     24533     24536     24539     24540
     24533     24536     24539     24541     24533     24536     24539     24542
     24534     24533     24536     24537     24534     24533     24536     24538
     24534     24533     24536     24539     24535     24533     24536     24537
     24535     24533     24536     24538     24535     24533     24536     24539
     24536     24539     24542     24543     24536     24539     24542     24544
     24536     24539     24542     24545     24537     24536     24539     24540
     24537     24536     24539     24541     24537     24536     24539     24542
     24538     24536     24539     24540     24538     24536     24539     24541
     24538     24536     24539     24542     24539     24542     24545     24546
     24539     24542     24545     24547     24539     24542     24545     24548
     24540     24539     24542     24543     24540     24539     24542     24544
     24540     24539     24542     24545     24541     24539     24542     24543
     24541     24539     24542     24544     24541     24539     24542     24545
     24542     24545     24548     24549     24542     24545     24548     24550
     24542     24545     24548     24551     24543     24542     24545     24546
     24543     24542     24545     24547     24543     24542     24545     24548
     24544     24542     24545     24546     24544     24542     24545     24547
     24544     24542     24545     24548     24546     24545     24548     24549
     24546     24545     24548     24550     24546     24545     24548     24551
     24547     24545     24548     24549     24547     24545     24548     24550
     24547     24545     24548     24551     24552     24556     24559     24560
     24552     24556     24559     24561     24552     24556     24559     24566
     24553     24552     24556     24557     24553     24552     24556     24558
     24553     24552     24556     24559     24554     24552     24556     24557
     24554     24552     24556     24558     24554     24552     24556     24559
     24555     24552     24556     24557     24555     24552     24556     24558
     24555     24552     24556     24559     24556     24559     24566     24562
     24557     24556     24559     24560     24557     24556     24559     24561
     24557     24556     24559     24566     24558     24556     24559     24560
     24558     24556     24559     24561     24558     24556     24559     24566
     24559     24566     24562     24563     24559     24566     24562     24564
     24559     24566     24562     24565     24560     24559     24566     24562
     24561     24559     24566     24562     24562     24565     24567     24568
     24562     24565     24567     24569     24562     24565     24567     24570
     24563     24562     24565     24567     24564     24562     24565     24567
     24565     24567     24570     24571     24565     24567     24570     24572
     24565     24567     24570     24578     24566     24562     24565     24567
     24567     24570     24572     24573     24567     24570     24578     24579
     24567     24570     24578     24580     24567     24570     24578     24581
     24568     24567     24570     24571     24568     24567     24570     24572
     24568     24567     24570     24578     24569     24567     24570     24571
     24569     24567     24570     24572     24569     24567     24570     24578
     24570     24572     24573     24574     24570     24572     24573     24575
     24570     24578     24581     24582     24571     24570     24572     24573
     24571     24570     24578     24579     24571     24570     24578     24580
     24571     24570     24578     24581     24572     24570     24578     24579
     24572     24570     24578     24580     24572     24570     24578     24581
     24572     24573     24575     24576     24572     24573     24575     24577
     24572     24573     24575     24587     24573     24572     24570     24578
     24573     24575     24587     24588     24573     24575     24587     24589
     24573     24575     24587     24590     24574     24573     24575     24576
     24574     24573     24575     24577     24574     24573     24575     24587
     24575     24587     24590     24591     24575     24587     24590     24592
     24575     24587     24590     24593     24576     24575     24587     24588
     24576     24575     24587     24589     24576     24575     24587     24590
     24577     24575     24587     24588     24577     24575     24587     24589
     24577     24575     24587     24590     24578     24581     24582     24583
     24578     24581     24582     24584     24579     24578     24581     24582
     24580     24578     24581     24582     24581     24582     24584     24585
     24581     24582     24584     24586     24581     24582     24584     24631
     24582     24584     24631     24632     24582     24584     24631     24633
     24582     24584     24631     24634     24583     24582     24584     24585
     24583     24582     24584     24586     24583     24582     24584     24631
     24584     24631     24634     24635     24584     24631     24634     24636
     24584     24631     24634     24637     24585     24584     24631     24632
     24585     24584     24631     24633     24585     24584     24631     24634
     24586     24584     24631     24632     24586     24584     24631     24633
     24586     24584     24631     24634     24587     24590     24593     24594
     24587     24590     24593     24595     24587     24590     24593     24596
     24588     24587     24590     24591     24588     24587     24590     24592
     24588     24587     24590     24593     24589     24587     24590     24591
     24589     24587     24590     24592     24589     24587     24590     24593
     24590     24593     24596     24597     24590     24593     24596     24598
     24590     24593     24596     24599     24591     24590     24593     24594
     24591     24590     24593     24595     24591     24590     24593     24596
     24592     24590     24593     24594     24592     24590     24593     24595
     24592     24590     24593     24596     24593     24596     24599     24600
     24593     24596     24599     24601     24593     24596     24599     24602
     24594     24593     24596     24597     24594     24593     24596     24598
     24594     24593     24596     24599     24595     24593     24596     24597
     24595     24593     24596     24598     24595     24593     24596     24599
     24596     24599     24602     24603     24596     24599     24602     24604
     24596     24599     24602     24605     24597     24596     24599     24600
     24597     24596     24599     24601     24597     24596     24599     24602
     24598     24596     24599     24600     24598     24596     24599     24601
     24598     24596     24599     24602     24599     24602     24605     24606
     24599     24602     24605     24607     24599     24602     24605     24610
     24600     24599     24602     24603     24600     24599     24602     24604
     24600     24599     24602     24605     24601     24599     24602     24603
     24601     24599     24602     24604     24601     24599     24602     24605
     24602     24605     24607     24608     24602     24605     24607     24609
     24602     24605     24607     24610     24602     24605     24610     24607
     24602     24605     24610     24611     24602     24605     24610     24612
     24603     24602     24605     24606     24603     24602     24605     24607
     24603     24602     24605     24610     24604     24602     24605     24606
     24604     24602     24605     24607     24604     24602     24605     24610
     24605     24607     24610     24611     24605     24607     24610     24612
     24605     24610     24607     24608     24605     24610     24607     24609
     24605     24610     24612     24613     24605     24610     24612     24614
     24605     24610     24612     24615     24606     24605     24607     24608
     24606     24605     24607     24609     24606     24605     24607     24610
     24606     24605     24610     24607     24606     24605     24610     24611
     24606     24605     24610     24612     24607     24605     24610     24611
     24607     24605     24610     24612     24607     24610     24612     24613
     24607     24610     24612     24614     24607     24610     24612     24615
     24608     24607     24605     24610     24608     24607     24610     24611
     24608     24607     24610     24612     24609     24607     24605     24610
     24609     24607     24610     24611     24609     24607     24610     24612
     24610     24612     24615     24616     24610     24612     24615     24617
     24610     24612     24615     24618     24611     24610     24612     24613
     24611     24610     24612     24614     24611     24610     24612     24615
     24612     24615     24618     24619     24612     24615     24618     24620
     24612     24615     24618     24621     24613     24612     24615     24616
     24613     24612     24615     24617     24613     24612     24615     24618
     24614     24612     24615     24616     24614     24612     24615     24617
     24614     24612     24615     24618     24615     24618     24621     24622
     24615     24618     24621     24623     24615     24618     24621     24624
     24616     24615     24618     24619     24616     24615     24618     24620
     24616     24615     24618     24621     24617     24615     24618     24619
     24617     24615     24618     24620     24617     24615     24618     24621
     24618     24621     24624     24625     24618     24621     24624     24626
     24618     24621     24624     24627     24619     24618     24621     24622
     24619     24618     24621     24623     24619     24618     24621     24624
     24620     24618     24621     24622     24620     24618     24621     24623
     24620     24618     24621     24624     24621     24624     24627     24628
     24621     24624     24627     24629     24621     24624     24627     24630
     24622     24621     24624     24625     24622     24621     24624     24626
     24622     24621     24624     24627     24623     24621     24624     24625
     24623     24621     24624     24626     24623     24621     24624     24627
     24625     24624     24627     24628     24625     24624     24627     24629
     24625     24624     24627     24630     24626     24624     24627     24628
     24626     24624     24627     24629     24626     24624     24627     24630
     24631     24634     24637     24638     24631     24634     24637     24639
     24631     24634     24637     24640     24632     24631     24634     24635
     24632     24631     24634     24636     24632     24631     24634     24637
     24633     24631     24634     24635     24633     24631     24634     24636
     24633     24631     24634     24637     24634     24637     24640     24641
     24634     24637     24640     24642     24634     24637     24640     24643
     24635     24634     24637     24638     24635     24634     24637     24639
     24635     24634     24637     24640     24636     24634     24637     24638
     24636     24634     24637     24639     24636     24634     24637     24640
     24637     24640     24643     24644     24637     24640     24643     24645
     24637     24640     24643     24646     24638     24637     24640     24641
     24638     24637     24640     24642     24638     24637     24640     24643
     24639     24637     24640     24641     24639     24637     24640     24642
     24639     24637     24640     24643     24640     24643     24646     24647
     24640     24643     24646     24648     24640     24643     24646     24649
     24641     24640     24643     24644     24641     24640     24643     24645
     24641     24640     24643     24646     24642     24640     24643     24644
     24642     24640     24643     24645     24642     24640     24643     24646
     24643     24646     24649     24650     24643     24646     24649     24651
     24643     24646     24649     24652     24644     24643     24646     24647
     24644     24643     24646     24648     24644     24643     24646     24649
     24645     24643     24646     24647     24645     24643     24646     24648
     24645     24643     24646     24649     24646     24649     24652     24653
     24646     24649     24652     24654     24646     24649     24652     24655
     24647     24646     24649     24650     24647     24646     24649     24651
     24647     24646     24649     24652     24648     24646     24649     24650
     24648     24646     24649     24651     24648     24646     24649     24652
     24649     24652     24655     24656     24649     24652     24655     24657
     24649     24652     24655     24658     24650     24649     24652     24653
     24650     24649     24652     24654     24650     24649     24652     24655
     24651     24649     24652     24653     24651     24649     24652     24654
     24651     24649     24652     24655     24652     24655     24658     24659
     24652     24655     24658     24660     24652     24655     24658     24661
     24653     24652     24655     24656     24653     24652     24655     24657
     24653     24652     24655     24658     24654     24652     24655     24656
     24654     24652     24655     24657     24654     24652     24655     24658
     24655     24658     24661     24662     24655     24658     24661     24663
     24655     24658     24661     24664     24656     24655     24658     24659
     24656     24655     24658     24660     24656     24655     24658     24661
     24657     24655     24658     24659     24657     24655     24658     24660
     24657     24655     24658     24661     24658     24661     24664     24665
     24658     24661     24664     24666     24658     24661     24664     24667
     24659     24658     24661     24662     24659     24658     24661     24663
     24659     24658     24661     24664     24660     24658     24661     24662
     24660     24658     24661     24663     24660     24658     24661     24664
     24661     24664     24667     24668     24661     24664     24667     24669
     24661     24664     24667     24670     24662     24661     24664     24665
     24662     24661     24664     24666     24662     24661     24664     24667
     24663     24661     24664     24665     24663     24661     24664     24666
     24663     24661     24664     24667     24664     24667     24670     24671
     24664     24667     24670     24672     24664     24667     24670     24673
     24665     24664     24667     24668     24665     24664     24667     24669
     24665     24664     24667     24670     24666     24664     24667     24668
     24666     24664     24667     24669     24666     24664     24667     24670
     24668     24667     24670     24671     24668     24667     24670     24672
     24668     24667     24670     24673     24669     24667     24670     24671
     24669     24667     24670     24672     24669     24667     24670     24673
     24674     24678     24681     24682     24674     24678     24681     24683
     24674     24678     24681     24688     24675     24674     24678     24679
     24675     24674     24678     24680     24675     24674     24678     24681
     24676     24674     24678     24679     24676     24674     24678     24680
     24676     24674     24678     24681     24677     24674     24678     24679
     24677     24674     24678     24680     24677     24674     24678     24681
     24678     24681     24688     24684     24679     24678     24681     24682
     24679     24678     24681     24683     24679     24678     24681     24688
     24680     24678     24681     24682     24680     24678     24681     24683
     24680     24678     24681     24688     24681     24688     24684     24685
     24681     24688     24684     24686     24681     24688     24684     24687
     24682     24681     24688     24684     24683     24681     24688     24684
     24684     24687     24689     24690     24684     24687     24689     24691
     24684     24687     24689     24692     24685     24684     24687     24689
     24686     24684     24687     24689     24687     24689     24692     24693
     24687     24689     24692     24694     24687     24689     24692     24700
     24688     24684     24687     24689     24689     24692     24694     24695
     24689     24692     24700     24701     24689     24692     24700     24702
     24689     24692     24700     24703     24690     24689     24692     24693
     24690     24689     24692     24694     24690     24689     24692     24700
     24691     24689     24692     24693     24691     24689     24692     24694
     24691     24689     24692     24700     24692     24694     24695     24696
     24692     24694     24695     24697     24692     24700     24703     24704
     24693     24692     24694     24695     24693     24692     24700     24701
     24693     24692     24700     24702     24693     24692     24700     24703
     24694     24692     24700     24701     24694     24692     24700     24702
     24694     24692     24700     24703     24694     24695     24697     24698
     24694     24695     24697     24699     24694     24695     24697     24709
     24695     24694     24692     24700     24695     24697     24709     24710
     24695     24697     24709     24711     24695     24697     24709     24712
     24696     24695     24697     24698     24696     24695     24697     24699
     24696     24695     24697     24709     24697     24709     24712     24713
     24697     24709     24712     24714     24697     24709     24712     24715
     24698     24697     24709     24710     24698     24697     24709     24711
     24698     24697     24709     24712     24699     24697     24709     24710
     24699     24697     24709     24711     24699     24697     24709     24712
     24700     24703     24704     24705     24700     24703     24704     24706
     24701     24700     24703     24704     24702     24700     24703     24704
     24703     24704     24706     24707     24703     24704     24706     24708
     24703     24704     24706     24753     24704     24706     24753     24754
     24704     24706     24753     24755     24704     24706     24753     24756
     24705     24704     24706     24707     24705     24704     24706     24708
     24705     24704     24706     24753     24706     24753     24756     24757
     24706     24753     24756     24758     24706     24753     24756     24759
     24707     24706     24753     24754     24707     24706     24753     24755
     24707     24706     24753     24756     24708     24706     24753     24754
     24708     24706     24753     24755     24708     24706     24753     24756
     24709     24712     24715     24716     24709     24712     24715     24717
     24709     24712     24715     24718     24710     24709     24712     24713
     24710     24709     24712     24714     24710     24709     24712     24715
     24711     24709     24712     24713     24711     24709     24712     24714
     24711     24709     24712     24715     24712     24715     24718     24719
     24712     24715     24718     24720     24712     24715     24718     24721
     24713     24712     24715     24716     24713     24712     24715     24717
     24713     24712     24715     24718     24714     24712     24715     24716
     24714     24712     24715     24717     24714     24712     24715     24718
     24715     24718     24721     24722     24715     24718     24721     24723
     24715     24718     24721     24724     24716     24715     24718     24719
     24716     24715     24718     24720     24716     24715     24718     24721
     24717     24715     24718     24719     24717     24715     24718     24720
     24717     24715     24718     24721     24718     24721     24724     24725
     24718     24721     24724     24726     24718     24721     24724     24727
     24719     24718     24721     24722     24719     24718     24721     24723
     24719     24718     24721     24724     24720     24718     24721     24722
     24720     24718     24721     24723     24720     24718     24721     24724
     24721     24724     24727     24728     24721     24724     24727     24729
     24721     24724     24727     24732     24722     24721     24724     24725
     24722     24721     24724     24726     24722     24721     24724     24727
     24723     24721     24724     24725     24723     24721     24724     24726
     24723     24721     24724     24727     24724     24727     24729     24730
     24724     24727     24729     24731     24724     24727     24729     24732
     24724     24727     24732     24729     24724     24727     24732     24733
     24724     24727     24732     24734     24725     24724     24727     24728
     24725     24724     24727     24729     24725     24724     24727     24732
     24726     24724     24727     24728     24726     24724     24727     24729
     24726     24724     24727     24732     24727     24729     24732     24733
     24727     24729     24732     24734     24727     24732     24729     24730
     24727     24732     24729     24731     24727     24732     24734     24735
     24727     24732     24734     24736     24727     24732     24734     24737
     24728     24727     24729     24730     24728     24727     24729     24731
     24728     24727     24729     24732     24728     24727     24732     24729
     24728     24727     24732     24733     24728     24727     24732     24734
     24729     24727     24732     24733     24729     24727     24732     24734
     24729     24732     24734     24735     24729     24732     24734     24736
     24729     24732     24734     24737     24730     24729     24727     24732
     24730     24729     24732     24733     24730     24729     24732     24734
     24731     24729     24727     24732     24731     24729     24732     24733
     24731     24729     24732     24734     24732     24734     24737     24738
     24732     24734     24737     24739     24732     24734     24737     24740
     24733     24732     24734     24735     24733     24732     24734     24736
     24733     24732     24734     24737     24734     24737     24740     24741
     24734     24737     24740     24742     24734     24737     24740     24743
     24735     24734     24737     24738     24735     24734     24737     24739
     24735     24734     24737     24740     24736     24734     24737     24738
     24736     24734     24737     24739     24736     24734     24737     24740
     24737     24740     24743     24744     24737     24740     24743     24745
     24737     24740     24743     24746     24738     24737     24740     24741
     24738     24737     24740     24742     24738     24737     24740     24743
     24739     24737     24740     24741     24739     24737     24740     24742
     24739     24737     24740     24743     24740     24743     24746     24747
     24740     24743     24746     24748     24740     24743     24746     24749
     24741     24740     24743     24744     24741     24740     24743     24745
     24741     24740     24743     24746     24742     24740     24743     24744
     24742     24740     24743     24745     24742     24740     24743     24746
     24743     24746     24749     24750     24743     24746     24749     24751
     24743     24746     24749     24752     24744     24743     24746     24747
     24744     24743     24746     24748     24744     24743     24746     24749
     24745     24743     24746     24747     24745     24743     24746     24748
     24745     24743     24746     24749     24747     24746     24749     24750
     24747     24746     24749     24751     24747     24746     24749     24752
     24748     24746     24749     24750     24748     24746     24749     24751
     24748     24746     24749     24752     24753     24756     24759     24760
     24753     24756     24759     24761     24753     24756     24759     24762
     24754     24753     24756     24757     24754     24753     24756     24758
     24754     24753     24756     24759     24755     24753     24756     24757
     24755     24753     24756     24758     24755     24753     24756     24759
     24756     24759     24762     24763     24756     24759     24762     24764
     24756     24759     24762     24765     24757     24756     24759     24760
     24757     24756     24759     24761     24757     24756     24759     24762
     24758     24756     24759     24760     24758     24756     24759     24761
     24758     24756     24759     24762     24759     24762     24765     24766
     24759     24762     24765     24767     24759     24762     24765     24768
     24760     24759     24762     24763     24760     24759     24762     24764
     24760     24759     24762     24765     24761     24759     24762     24763
     24761     24759     24762     24764     24761     24759     24762     24765
     24762     24765     24768     24769     24762     24765     24768     24770
     24762     24765     24768     24771     24763     24762     24765     24766
     24763     24762     24765     24767     24763     24762     24765     24768
     24764     24762     24765     24766     24764     24762     24765     24767
     24764     24762     24765     24768     24765     24768     24771     24772
     24765     24768     24771     24773     24765     24768     24771     24774
     24766     24765     24768     24769     24766     24765     24768     24770
     24766     24765     24768     24771     24767     24765     24768     24769
     24767     24765     24768     24770     24767     24765     24768     24771
     24768     24771     24774     24775     24768     24771     24774     24776
     24768     24771     24774     24777     24769     24768     24771     24772
     24769     24768     24771     24773     24769     24768     24771     24774
     24770     24768     24771     24772     24770     24768     24771     24773
     24770     24768     24771     24774     24771     24774     24777     24778
     24771     24774     24777     24779     24771     24774     24777     24780
     24772     24771     24774     24775     24772     24771     24774     24776
     24772     24771     24774     24777     24773     24771     24774     24775
     24773     24771     24774     24776     24773     24771     24774     24777
     24774     24777     24780     24781     24774     24777     24780     24782
     24774     24777     24780     24783     24775     24774     24777     24778
     24775     24774     24777     24779     24775     24774     24777     24780
     24776     24774     24777     24778     24776     24774     24777     24779
     24776     24774     24777     24780     24777     24780     24783     24784
     24777     24780     24783     24785     24777     24780     24783     24786
     24778     24777     24780     24781     24778     24777     24780     24782
     24778     24777     24780     24783     24779     24777     24780     24781
     24779     24777     24780     24782     24779     24777     24780     24783
     24780     24783     24786     24787     24780     24783     24786     24788
     24780     24783     24786     24789     24781     24780     24783     24784
     24781     24780     24783     24785     24781     24780     24783     24786
     24782     24780     24783     24784     24782     24780     24783     24785
     24782     24780     24783     24786     24783     24786     24789     24790
     24783     24786     24789     24791     24783     24786     24789     24792
     24784     24783     24786     24787     24784     24783     24786     24788
     24784     24783     24786     24789     24785     24783     24786     24787
     24785     24783     24786     24788     24785     24783     24786     24789
     24786     24789     24792     24793     24786     24789     24792     24794
     24786     24789     24792     24795     24787     24786     24789     24790
     24787     24786     24789     24791     24787     24786     24789     24792
     24788     24786     24789     24790     24788     24786     24789     24791
     24788     24786     24789     24792     24790     24789     24792     24793
     24790     24789     24792     24794     24790     24789     24792     24795
     24791     24789     24792     24793     24791     24789     24792     24794
     24791     24789     24792     24795     24796     24801     24803     24804
     24796     24801     24805     24806     24796     24801     24805     24807
     24796     24801     24805     24812     24797     24796     24799     24800
     24797     24796     24801     24802     24797     24796     24801     24803
     24797     24796     24801     24805     24798     24796     24799     24800
     24798     24796     24801     24802     24798     24796     24801     24803
     24798     24796     24801     24805     24799     24796     24801     24802
     24799     24796     24801     24803     24799     24796     24801     24805
     24800     24799     24796     24801     24801     24805     24812     24808
     24802     24801     24803     24804     24802     24801     24805     24806
     24802     24801     24805     24807     24802     24801     24805     24812
     24803     24801     24805     24806     24803     24801     24805     24807
     24803     24801     24805     24812     24804     24803     24801     24805
     24805     24812     24808     24809     24805     24812     24808     24810
     24805     24812     24808     24811     24806     24805     24812     24808
     24807     24805     24812     24808     24808     24811     24813     24814
     24808     24811     24813     24815     24808     24811     24813     24816
     24809     24808     24811     24813     24810     24808     24811     24813
     24811     24813     24816     24817     24811     24813     24816     24818
     24811     24813     24816     24824     24812     24808     24811     24813
     24813     24816     24818     24819     24813     24816     24824     24825
     24813     24816     24824     24826     24813     24816     24824     24827
     24814     24813     24816     24817     24814     24813     24816     24818
     24814     24813     24816     24824     24815     24813     24816     24817
     24815     24813     24816     24818     24815     24813     24816     24824
     24816     24818     24819     24820     24816     24818     24819     24821
     24816     24824     24827     24828     24817     24816     24818     24819
     24817     24816     24824     24825     24817     24816     24824     24826
     24817     24816     24824     24827     24818     24816     24824     24825
     24818     24816     24824     24826     24818     24816     24824     24827
     24818     24819     24821     24822     24818     24819     24821     24823
     24818     24819     24821     24833     24819     24818     24816     24824
     24819     24821     24833     24834     24819     24821     24833     24835
     24819     24821     24833     24836     24820     24819     24821     24822
     24820     24819     24821     24823     24820     24819     24821     24833
     24821     24833     24836     24837     24821     24833     24836     24838
     24821     24833     24836     24839     24822     24821     24833     24834
     24822     24821     24833     24835     24822     24821     24833     24836
     24823     24821     24833     24834     24823     24821     24833     24835
     24823     24821     24833     24836     24824     24827     24828     24829
     24824     24827     24828     24830     24825     24824     24827     24828
     24826     24824     24827     24828     24827     24828     24830     24831
     24827     24828     24830     24832     24827     24828     24830     24874
     24828     24830     24874     24875     24828     24830     24874     24876
     24828     24830     24874     24877     24829     24828     24830     24831
     24829     24828     24830     24832     24829     24828     24830     24874
     24830     24874     24877     24878     24830     24874     24877     24879
     24830     24874     24877     24880     24831     24830     24874     24875
     24831     24830     24874     24876     24831     24830     24874     24877
     24832     24830     24874     24875     24832     24830     24874     24876
     24832     24830     24874     24877     24833     24836     24839     24840
     24833     24836     24839     24841     24833     24836     24839     24842
     24834     24833     24836     24837     24834     24833     24836     24838
     24834     24833     24836     24839     24835     24833     24836     24837
     24835     24833     24836     24838     24835     24833     24836     24839
     24836     24839     24842     24843     24836     24839     24842     24844
     24836     24839     24842     24845     24837     24836     24839     24840
     24837     24836     24839     24841     24837     24836     24839     24842
     24838     24836     24839     24840     24838     24836     24839     24841
     24838     24836     24839     24842     24839     24842     24845     24846
     24839     24842     24845     24847     24839     24842     24845     24848
     24840     24839     24842     24843     24840     24839     24842     24844
     24840     24839     24842     24845     24841     24839     24842     24843
     24841     24839     24842     24844     24841     24839     24842     24845
     24842     24845     24848     24849     24842     24845     24848     24850
     24842     24845     24848     24851     24843     24842     24845     24846
     24843     24842     24845     24847     24843     24842     24845     24848
     24844     24842     24845     24846     24844     24842     24845     24847
     24844     24842     24845     24848     24845     24848     24851     24852
     24845     24848     24851     24853     24846     24845     24848     24849
     24846     24845     24848     24850     24846     24845     24848     24851
     24847     24845     24848     24849     24847     24845     24848     24850
     24847     24845     24848     24851     24848     24851     24853     24854
     24848     24851     24853     24855     24849     24848     24851     24852
     24849     24848     24851     24853     24850     24848     24851     24852
     24850     24848     24851     24853     24851     24853     24855     24856
     24851     24853     24855     24857     24851     24853     24855     24858
     24852     24851     24853     24854     24852     24851     24853     24855
     24853     24855     24858     24859     24853     24855     24858     24860
     24853     24855     24858     24861     24854     24853     24855     24856
     24854     24853     24855     24857     24854     24853     24855     24858
     24855     24858     24861     24862     24855     24858     24861     24863
     24855     24858     24861     24864     24856     24855     24858     24859
     24856     24855     24858     24860     24856     24855     24858     24861
     24857     24855     24858     24859     24857     24855     24858     24860
     24857     24855     24858     24861     24858     24861     24864     24865
     24858     24861     24864     24866     24858     24861     24864     24867
     24859     24858     24861     24862     24859     24858     24861     24863
     24859     24858     24861     24864     24860     24858     24861     24862
     24860     24858     24861     24863     24860     24858     24861     24864
     24861     24864     24867     24868     24861     24864     24867     24869
     24861     24864     24867     24870     24862     24861     24864     24865
     24862     24861     24864     24866     24862     24861     24864     24867
     24863     24861     24864     24865     24863     24861     24864     24866
     24863     24861     24864     24867     24864     24867     24870     24871
     24864     24867     24870     24872     24864     24867     24870     24873
     24865     24864     24867     24868     24865     24864     24867     24869
     24865     24864     24867     24870     24866     24864     24867     24868
     24866     24864     24867     24869     24866     24864     24867     24870
     24868     24867     24870     24871     24868     24867     24870     24872
     24868     24867     24870     24873     24869     24867     24870     24871
     24869     24867     24870     24872     24869     24867     24870     24873
     24874     24877     24880     24881     24874     24877     24880     24882
     24874     24877     24880     24883     24875     24874     24877     24878
     24875     24874     24877     24879     24875     24874     24877     24880
     24876     24874     24877     24878     24876     24874     24877     24879
     24876     24874     24877     24880     24877     24880     24883     24884
     24877     24880     24883     24885     24877     24880     24883     24886
     24878     24877     24880     24881     24878     24877     24880     24882
     24878     24877     24880     24883     24879     24877     24880     24881
     24879     24877     24880     24882     24879     24877     24880     24883
     24880     24883     24886     24887     24880     24883     24886     24888
     24880     24883     24886     24889     24881     24880     24883     24884
     24881     24880     24883     24885     24881     24880     24883     24886
     24882     24880     24883     24884     24882     24880     24883     24885
     24882     24880     24883     24886     24883     24886     24889     24890
     24883     24886     24889     24891     24883     24886     24889     24892
     24884     24883     24886     24887     24884     24883     24886     24888
     24884     24883     24886     24889     24885     24883     24886     24887
     24885     24883     24886     24888     24885     24883     24886     24889
     24886     24889     24892     24893     24886     24889     24892     24894
     24886     24889     24892     24895     24887     24886     24889     24890
     24887     24886     24889     24891     24887     24886     24889     24892
     24888     24886     24889     24890     24888     24886     24889     24891
     24888     24886     24889     24892     24889     24892     24895     24896
     24889     24892     24895     24897     24889     24892     24895     24898
     24890     24889     24892     24893     24890     24889     24892     24894
     24890     24889     24892     24895     24891     24889     24892     24893
     24891     24889     24892     24894     24891     24889     24892     24895
     24892     24895     24898     24899     24892     24895     24898     24900
     24892     24895     24898     24901     24893     24892     24895     24896
     24893     24892     24895     24897     24893     24892     24895     24898
     24894     24892     24895     24896     24894     24892     24895     24897
     24894     24892     24895     24898     24895     24898     24901     24902
     24895     24898     24901     24903     24895     24898     24901     24904
     24896     24895     24898     24899     24896     24895     24898     24900
     24896     24895     24898     24901     24897     24895     24898     24899
     24897     24895     24898     24900     24897     24895     24898     24901
     24898     24901     24904     24905     24898     24901     24904     24906
     24898     24901     24904     24907     24899     24898     24901     24902
     24899     24898     24901     24903     24899     24898     24901     24904
     24900     24898     24901     24902     24900     24898     24901     24903
     24900     24898     24901     24904     24901     24904     24907     24908
     24901     24904     24907     24909     24901     24904     24907     24910
     24902     24901     24904     24905     24902     24901     24904     24906
     24902     24901     24904     24907     24903     24901     24904     24905
     24903     24901     24904     24906     24903     24901     24904     24907
     24904     24907     24910     24911     24904     24907     24910     24912
     24904     24907     24910     24913     24905     24904     24907     24908
     24905     24904     24907     24909     24905     24904     24907     24910
     24906     24904     24907     24908     24906     24904     24907     24909
     24906     24904     24907     24910     24907     24910     24913     24914
     24907     24910     24913     24915     24907     24910     24913     24916
     24908     24907     24910     24911     24908     24907     24910     24912
     24908     24907     24910     24913     24909     24907     24910     24911
     24909     24907     24910     24912     24909     24907     24910     24913
     24911     24910     24913     24914     24911     24910     24913     24915
     24911     24910     24913     24916     24912     24910     24913     24914
     24912     24910     24913     24915     24912     24910     24913     24916

       408 !NIMPHI: impropers
        22        21        24        23        31        30        33        32
       141       140       143       142       150       149       152       151
       265       264       267       266       274       273       276       275
       386       385       388       387       395       394       397       396
       508       507       510       509       517       516       519       518
       627       626       629       628       636       635       638       637
       751       750       753       752       760       759       762       761
       875       874       877       876       884       883       886       885
       994       993       996       995      1003      1002      1005      1004
      1116      1115      1118      1117      1125      1124      1127      1126
      1241      1240      1243      1242      1250      1249      1252      1251
      1363      1362      1365      1364      1372      1371      1374      1373
      1485      1484      1487      1486      1494      1493      1496      1495
      1610      1609      1612      1611      1619      1618      1621      1620
      1732      1731      1734      1733      1741      1740      1743      1742
      1857      1856      1859      1858      1866      1865      1868      1867
      1976      1975      1978      1977      1985      1984      1987      1986
      2098      2097      2100      2099      2107      2106      2109      2108
      2217      2216      2219      2218      2226      2225      2228      2227
      2340      2339      2342      2341      2349      2348      2351      2350
      2465      2464      2467      2466      2474      2473      2476      2475
      2588      2587      2590      2589      2597      2596      2599      2598
      2712      2711      2714      2713      2721      2720      2723      2722
      2831      2830      2833      2832      2840      2839      2842      2841
      2953      2952      2955      2954      2962      2961      2964      2963
      3075      3074      3077      3076      3084      3083      3086      3085
      3197      3196      3199      3198      3206      3205      3208      3207
      3319      3318      3321      3320      3328      3327      3330      3329
      3443      3442      3445      3444      3452      3451      3454      3453
      3565      3564      3567      3566      3574      3573      3576      3575
      3689      3688      3691      3690      3698      3697      3700      3699
      3808      3807      3810      3809      3817      3816      3819      3818
      3931      3930      3933      3932      3940      3939      3942      3941
      4056      4055      4058      4057      4065      4064      4067      4066
      4178      4177      4180      4179      4187      4186      4189      4188
      4300      4299      4302      4301      4309      4308      4311      4310
      4425      4424      4427      4426      4434      4433      4436      4435
      4548      4547      4550      4549      4557      4556      4559      4558
      4670      4669      4672      4671      4679      4678      4681      4680
      4794      4793      4796      4795      4803      4802      4805      4804
      4916      4915      4918      4917      4925      4924      4927      4926
      5035      5034      5037      5036      5044      5043      5046      5045
      5157      5156      5159      5158      5166      5165      5168      5167
      5276      5275      5278      5277      5285      5284      5287      5286
      5398      5397      5400      5399      5407      5406      5409      5408
      5520      5519      5522      5521      5529      5528      5531      5530
      5644      5643      5646      5645      5653      5652      5655      5654
      5768      5767      5770      5769      5777      5776      5779      5778
      5889      5888      5891      5890      5898      5897      5900      5899
      6011      6010      6013      6012      6020      6019      6022      6021
      6133      6132      6135      6134      6142      6141      6144      6143
      6255      6254      6257      6256      6264      6263      6266      6265
      6377      6376      6379      6378      6386      6385      6388      6387
      6501      6500      6503      6502      6510      6509      6512      6511
      6625      6624      6627      6626      6634      6633      6636      6635
      6747      6746      6749      6748      6756      6755      6758      6757
      6866      6865      6868      6867      6875      6874      6877      6876
      6988      6987      6990      6989      6997      6996      6999      6998
      7110      7109      7112      7111      7119      7118      7121      7120
      7232      7231      7234      7233      7241      7240      7243      7242
      7354      7353      7356      7355      7363      7362      7365      7364
      7478      7477      7480      7479      7487      7486      7489      7488
      7600      7599      7602      7601      7609      7608      7611      7610
      7742      7741      7744      7743      7733      7732      7735      7734
      7759      7758      7761      7760      7750      7749      7752      7751
      7965      7964      7967      7966      7974      7973      7976      7975
      8090      8089      8092      8091      8099      8098      8101      8100
      8213      8212      8215      8214      8222      8221      8224      8223
      8337      8336      8339      8338      8346      8345      8348      8347
      8456      8455      8458      8457      8465      8464      8467      8466
      8578      8577      8580      8579      8587      8586      8589      8588
      8700      8699      8702      8701      8709      8708      8711      8710
      8822      8821      8824      8823      8831      8830      8833      8832
      8944      8943      8946      8945      8953      8952      8955      8954
      9068      9067      9070      9069      9077      9076      9079      9078
      9187      9186      9189      9188      9196      9195      9198      9197
      9312      9311      9314      9313      9321      9320      9323      9322
      9431      9430      9433      9432      9440      9439      9442      9441
      9553      9552      9555      9554      9562      9561      9564      9563
      9678      9677      9680      9679      9687      9686      9689      9688
      9797      9796      9799      9798      9806      9805      9808      9807
      9919      9918      9921      9920      9928      9927      9930      9929
     10038     10037     10040     10039     10047     10046     10049     10048
     10160     10159     10162     10161     10169     10168     10171     10170
     10279     10278     10281     10280     10288     10287     10290     10289
     10404     10403     10406     10405     10413     10412     10415     10414
     10529     10528     10531     10530     10538     10537     10540     10539
     10648     10647     10650     10649     10657     10656     10659     10658
     10770     10769     10772     10771     10779     10778     10781     10780
     10892     10891     10894     10893     10901     10900     10903     10902
     11031     11030     11033     11032     11022     11021     11024     11023
     11048     11047     11050     11049     11039     11038     11041     11040
     11254     11253     11256     11255     11263     11262     11265     11264
     11376     11375     11378     11377     11385     11384     11387     11386
     11498     11497     11500     11499     11507     11506     11509     11508
     11620     11619     11622     11621     11629     11628     11631     11630
     11745     11744     11747     11746     11754     11753     11756     11755
     11867     11866     11869     11868     11876     11875     11878     11877
     11990     11989     11992     11991     11999     11998     12001     12000
     12111     12110     12113     12112     12120     12119     12122     12121
     12230     12229     12232     12231     12239     12238     12241     12240
     12355     12354     12357     12356     12364     12363     12366     12365
     12482     12481     12484     12483     12491     12490     12493     12492
     12604     12603     12606     12605     12613     12612     12615     12614
     12729     12728     12731     12730     12738     12737     12740     12739
     12851     12850     12853     12852     12860     12859     12862     12861
     12973     12972     12975     12974     12982     12981     12984     12983
     13092     13091     13094     13093     13101     13100     13103     13102
     13211     13210     13213     13212     13220     13219     13222     13221
     13333     13332     13335     13334     13342     13341     13344     13343
     13455     13454     13457     13456     13464     13463     13466     13465
     13577     13576     13579     13578     13586     13585     13588     13587
     13699     13698     13701     13700     13708     13707     13710     13709
     13821     13820     13823     13822     13830     13829     13832     13831
     13942     13941     13944     13943     13951     13950     13953     13952
     14064     14063     14066     14065     14073     14072     14075     14074
     14189     14188     14191     14190     14198     14197     14200     14199
     14311     14310     14313     14312     14320     14319     14322     14321
     14438     14437     14440     14439     14447     14446     14449     14448
     14560     14559     14562     14561     14569     14568     14571     14570
     14682     14681     14684     14683     14691     14690     14693     14692
     14804     14803     14806     14805     14813     14812     14815     14814
     14926     14925     14928     14927     14935     14934     14937     14936
     15066     15065     15068     15067     15057     15056     15059     15058
     15083     15082     15085     15084     15074     15073     15076     15075
     15289     15288     15291     15290     15298     15297     15300     15299
     15411     15410     15413     15412     15420     15419     15422     15421
     15534     15533     15536     15535     15543     15542     15545     15544
     15656     15655     15658     15657     15665     15664     15667     15666
     15778     15777     15780     15779     15787     15786     15789     15788
     15899     15898     15901     15900     15908     15907     15910     15909
     16020     16019     16022     16021     16029     16028     16031     16030
     16139     16138     16141     16140     16148     16147     16150     16149
     16261     16260     16263     16262     16270     16269     16272     16271
     16380     16379     16382     16381     16389     16388     16391     16390
     16502     16501     16504     16503     16511     16510     16513     16512
     16621     16620     16623     16622     16630     16629     16632     16631
     16744     16743     16746     16745     16753     16752     16755     16754
     16869     16868     16871     16870     16878     16877     16880     16879
     16992     16991     16994     16993     17001     17000     17003     17002
     17114     17113     17116     17115     17123     17122     17125     17124
     17239     17238     17241     17240     17248     17247     17250     17249
     17363     17362     17365     17364     17372     17371     17374     17373
     17485     17484     17487     17486     17494     17493     17496     17495
     17609     17608     17611     17610     17618     17617     17620     17619
     17731     17730     17733     17732     17740     17739     17742     17741
     17853     17852     17855     17854     17862     17861     17864     17863
     17972     17971     17974     17973     17981     17980     17983     17982
     18091     18090     18093     18092     18100     18099     18102     18101
     18213     18212     18215     18214     18222     18221     18224     18223
     18335     18334     18337     18336     18344     18343     18346     18345
     18459     18458     18461     18460     18468     18467     18470     18469
     18578     18577     18580     18579     18587     18586     18589     18588
     18703     18702     18705     18704     18712     18711     18714     18713
     18825     18824     18827     18826     18834     18833     18836     18835
     18944     18943     18946     18945     18953     18952     18955     18954
     19066     19065     19068     19067     19075     19074     19077     19076
     19190     19189     19192     19191     19199     19198     19201     19200
     19309     19308     19311     19310     19318     19317     19320     19319
     19431     19430     19433     19432     19440     19439     19442     19441
     19553     19552     19555     19554     19562     19561     19564     19563
     19677     19676     19679     19678     19686     19685     19688     19687
     19799     19798     19801     19800     19808     19807     19810     19809
     19922     19921     19924     19923     19931     19930     19933     19932
     20044     20043     20046     20045     20053     20052     20055     20054
     20165     20164     20167     20166     20174     20173     20176     20175
     20286     20285     20288     20287     20295     20294     20297     20296
     20408     20407     20410     20409     20417     20416     20419     20418
     20531     20530     20533     20532     20540     20539     20542     20541
     20653     20652     20655     20654     20662     20661     20664     20663
     20775     20774     20777     20776     20784     20783     20786     20785
     20897     20896     20899     20898     20906     20905     20908     20907
     21022     21021     21024     21023     21031     21030     21033     21032
     21149     21148     21151     21150     21158     21157     21160     21159
     21268     21267     21270     21269     21277     21276     21279     21278
     21390     21389     21392     21391     21399     21398     21401     21400
     21512     21511     21514     21513     21521     21520     21523     21522
     21637     21636     21639     21638     21646     21645     21648     21647
     21762     21761     21764     21763     21771     21770     21773     21772
     21884     21883     21886     21885     21893     21892     21895     21894
     22009     22008     22011     22010     22018     22017     22020     22019
     22131     22130     22133     22132     22140     22139     22142     22141
     22253     22252     22255     22254     22262     22261     22264     22263
     22377     22376     22379     22378     22386     22385     22388     22387
     22496     22495     22498     22497     22505     22504     22507     22506
     22619     22618     22621     22620     22628     22627     22630     22629
     22741     22740     22743     22742     22750     22749     22752     22751
     22862     22861     22864     22863     22871     22870     22873     22872
     22984     22983     22986     22985     22993     22992     22995     22994
     23106     23105     23108     23107     23115     23114     23117     23116
     23231     23230     23233     23232     23240     23239     23242     23241
     23353     23352     23355     23354     23362     23361     23364     23363
     23475     23474     23477     23476     23484     23483     23486     23485
     23597     23596     23599     23598     23606     23605     23608     23607
     23724     23723     23726     23725     23733     23732     23735     23734
     23843     23842     23845     23844     23852     23851     23854     23853
     23962     23961     23964     23963     23971     23970     23973     23972
     24084     24083     24086     24085     24093     24092     24095     24094
     24226     24225     24228     24227     24217     24216     24219     24218
     24243     24242     24245     24244     24234     24233     24236     24235
     24451     24450     24453     24452     24460     24459     24462     24461
     24573     24572     24575     24574     24582     24581     24584     24583
     24695     24694     24697     24696     24704     24703     24706     24705
     24819     24818     24821     24820     24828     24827     24830     24829

     23100 !NDON: donors
     24917     24918     24917     24919     24920     24921     24920     24922
     24923     24924     24923     24925     24926     24927     24926     24928
     24929     24930     24929     24931     24932     24933     24932     24934
     24935     24936     24935     24937     24938     24939     24938     24940
     24941     24942     24941     24943     24944     24945     24944     24946
     24947     24948     24947     24949     24950     24951     24950     24952
     24953     24954     24953     24955     24956     24957     24956     24958
     24959     24960     24959     24961     24962     24963     24962     24964
     24965     24966     24965     24967     24968     24969     24968     24970
     24971     24972     24971     24973     24974     24975     24974     24976
     24977     24978     24977     24979     24980     24981     24980     24982
     24983     24984     24983     24985     24986     24987     24986     24988
     24989     24990     24989     24991     24992     24993     24992     24994
     24995     24996     24995     24997     24998     24999     24998     25000
     25001     25002     25001     25003     25004     25005     25004     25006
     25007     25008     25007     25009     25010     25011     25010     25012
     25013     25014     25013     25015     25016     25017     25016     25018
     25019     25020     25019     25021     25022     25023     25022     25024
     25025     25026     25025     25027     25028     25029     25028     25030
     25031     25032     25031     25033     25034     25035     25034     25036
     25037     25038     25037     25039     25040     25041     25040     25042
     25043     25044     25043     25045     25046     25047     25046     25048
     25049     25050     25049     25051     25052     25053     25052     25054
     25055     25056     25055     25057     25058     25059     25058     25060
     25061     25062     25061     25063     25064     25065     25064     25066
     25067     25068     25067     25069     25070     25071     25070     25072
     25073     25074     25073     25075     25076     25077     25076     25078
     25079     25080     25079     25081     25082     25083     25082     25084
     25085     25086     25085     25087     25088     25089     25088     25090
     25091     25092     25091     25093     25094     25095     25094     25096
     25097     25098     25097     25099     25100     25101     25100     25102
     25103     25104     25103     25105     25106     25107     25106     25108
     25109     25110     25109     25111     25112     25113     25112     25114
     25115     25116     25115     25117     25118     25119     25118     25120
     25121     25122     25121     25123     25124     25125     25124     25126
     25127     25128     25127     25129     25130     25131     25130     25132
     25133     25134     25133     25135     25136     25137     25136     25138
     25139     25140     25139     25141     25142     25143     25142     25144
     25145     25146     25145     25147     25148     25149     25148     25150
     25151     25152     25151     25153     25154     25155     25154     25156
     25157     25158     25157     25159     25160     25161     25160     25162
     25163     25164     25163     25165     25166     25167     25166     25168
     25169     25170     25169     25171     25172     25173     25172     25174
     25175     25176     25175     25177     25178     25179     25178     25180
     25181     25182     25181     25183     25184     25185     25184     25186
     25187     25188     25187     25189     25190     25191     25190     25192
     25193     25194     25193     25195     25196     25197     25196     25198
     25199     25200     25199     25201     25202     25203     25202     25204
     25205     25206     25205     25207     25208     25209     25208     25210
     25211     25212     25211     25213     25214     25215     25214     25216
     25217     25218     25217     25219     25220     25221     25220     25222
     25223     25224     25223     25225     25226     25227     25226     25228
     25229     25230     25229     25231     25232     25233     25232     25234
     25235     25236     25235     25237     25238     25239     25238     25240
     25241     25242     25241     25243     25244     25245     25244     25246
     25247     25248     25247     25249     25250     25251     25250     25252
     25253     25254     25253     25255     25256     25257     25256     25258
     25259     25260     25259     25261     25262     25263     25262     25264
     25265     25266     25265     25267     25268     25269     25268     25270
     25271     25272     25271     25273     25274     25275     25274     25276
     25277     25278     25277     25279     25280     25281     25280     25282
     25283     25284     25283     25285     25286     25287     25286     25288
     25289     25290     25289     25291     25292     25293     25292     25294
     25295     25296     25295     25297     25298     25299     25298     25300
     25301     25302     25301     25303     25304     25305     25304     25306
     25307     25308     25307     25309     25310     25311     25310     25312
     25313     25314     25313     25315     25316     25317     25316     25318
     25319     25320     25319     25321     25322     25323     25322     25324
     25325     25326     25325     25327     25328     25329     25328     25330
     25331     25332     25331     25333     25334     25335     25334     25336
     25337     25338     25337     25339     25340     25341     25340     25342
     25343     25344     25343     25345     25346     25347     25346     25348
     25349     25350     25349     25351     25352     25353     25352     25354
     25355     25356     25355     25357     25358     25359     25358     25360
     25361     25362     25361     25363     25364     25365     25364     25366
     25367     25368     25367     25369     25370     25371     25370     25372
     25373     25374     25373     25375     25376     25377     25376     25378
     25379     25380     25379     25381     25382     25383     25382     25384
     25385     25386     25385     25387     25388     25389     25388     25390
     25391     25392     25391     25393     25394     25395     25394     25396
     25397     25398     25397     25399     25400     25401     25400     25402
     25403     25404     25403     25405     25406     25407     25406     25408
     25409     25410     25409     25411     25412     25413     25412     25414
     25415     25416     25415     25417     25418     25419     25418     25420
     25421     25422     25421     25423     25424     25425     25424     25426
     25427     25428     25427     25429     25430     25431     25430     25432
     25433     25434     25433     25435     25436     25437     25436     25438
     25439     25440     25439     25441     25442     25443     25442     25444
     25445     25446     25445     25447     25448     25449     25448     25450
     25451     25452     25451     25453     25454     25455     25454     25456
     25457     25458     25457     25459     25460     25461     25460     25462
     25463     25464     25463     25465     25466     25467     25466     25468
     25469     25470     25469     25471     25472     25473     25472     25474
     25475     25476     25475     25477     25478     25479     25478     25480
     25481     25482     25481     25483     25484     25485     25484     25486
     25487     25488     25487     25489     25490     25491     25490     25492
     25493     25494     25493     25495     25496     25497     25496     25498
     25499     25500     25499     25501     25502     25503     25502     25504
     25505     25506     25505     25507     25508     25509     25508     25510
     25511     25512     25511     25513     25514     25515     25514     25516
     25517     25518     25517     25519     25520     25521     25520     25522
     25523     25524     25523     25525     25526     25527     25526     25528
     25529     25530     25529     25531     25532     25533     25532     25534
     25535     25536     25535     25537     25538     25539     25538     25540
     25541     25542     25541     25543     25544     25545     25544     25546
     25547     25548     25547     25549     25550     25551     25550     25552
     25553     25554     25553     25555     25556     25557     25556     25558
     25559     25560     25559     25561     25562     25563     25562     25564
     25565     25566     25565     25567     25568     25569     25568     25570
     25571     25572     25571     25573     25574     25575     25574     25576
     25577     25578     25577     25579     25580     25581     25580     25582
     25583     25584     25583     25585     25586     25587     25586     25588
     25589     25590     25589     25591     25592     25593     25592     25594
     25595     25596     25595     25597     25598     25599     25598     25600
     25601     25602     25601     25603     25604     25605     25604     25606
     25607     25608     25607     25609     25610     25611     25610     25612
     25613     25614     25613     25615     25616     25617     25616     25618
     25619     25620     25619     25621     25622     25623     25622     25624
     25625     25626     25625     25627     25628     25629     25628     25630
     25631     25632     25631     25633     25634     25635     25634     25636
     25637     25638     25637     25639     25640     25641     25640     25642
     25643     25644     25643     25645     25646     25647     25646     25648
     25649     25650     25649     25651     25652     25653     25652     25654
     25655     25656     25655     25657     25658     25659     25658     25660
     25661     25662     25661     25663     25664     25665     25664     25666
     25667     25668     25667     25669     25670     25671     25670     25672
     25673     25674     25673     25675     25676     25677     25676     25678
     25679     25680     25679     25681     25682     25683     25682     25684
     25685     25686     25685     25687     25688     25689     25688     25690
     25691     25692     25691     25693     25694     25695     25694     25696
     25697     25698     25697     25699     25700     25701     25700     25702
     25703     25704     25703     25705     25706     25707     25706     25708
     25709     25710     25709     25711     25712     25713     25712     25714
     25715     25716     25715     25717     25718     25719     25718     25720
     25721     25722     25721     25723     25724     25725     25724     25726
     25727     25728     25727     25729     25730     25731     25730     25732
     25733     25734     25733     25735     25736     25737     25736     25738
     25739     25740     25739     25741     25742     25743     25742     25744
     25745     25746     25745     25747     25748     25749     25748     25750
     25751     25752     25751     25753     25754     25755     25754     25756
     25757     25758     25757     25759     25760     25761     25760     25762
     25763     25764     25763     25765     25766     25767     25766     25768
     25769     25770     25769     25771     25772     25773     25772     25774
     25775     25776     25775     25777     25778     25779     25778     25780
     25781     25782     25781     25783     25784     25785     25784     25786
     25787     25788     25787     25789     25790     25791     25790     25792
     25793     25794     25793     25795     25796     25797     25796     25798
     25799     25800     25799     25801     25802     25803     25802     25804
     25805     25806     25805     25807     25808     25809     25808     25810
     25811     25812     25811     25813     25814     25815     25814     25816
     25817     25818     25817     25819     25820     25821     25820     25822
     25823     25824     25823     25825     25826     25827     25826     25828
     25829     25830     25829     25831     25832     25833     25832     25834
     25835     25836     25835     25837     25838     25839     25838     25840
     25841     25842     25841     25843     25844     25845     25844     25846
     25847     25848     25847     25849     25850     25851     25850     25852
     25853     25854     25853     25855     25856     25857     25856     25858
     25859     25860     25859     25861     25862     25863     25862     25864
     25865     25866     25865     25867     25868     25869     25868     25870
     25871     25872     25871     25873     25874     25875     25874     25876
     25877     25878     25877     25879     25880     25881     25880     25882
     25883     25884     25883     25885     25886     25887     25886     25888
     25889     25890     25889     25891     25892     25893     25892     25894
     25895     25896     25895     25897     25898     25899     25898     25900
     25901     25902     25901     25903     25904     25905     25904     25906
     25907     25908     25907     25909     25910     25911     25910     25912
     25913     25914     25913     25915     25916     25917     25916     25918
     25919     25920     25919     25921     25922     25923     25922     25924
     25925     25926     25925     25927     25928     25929     25928     25930
     25931     25932     25931     25933     25934     25935     25934     25936
     25937     25938     25937     25939     25940     25941     25940     25942
     25943     25944     25943     25945     25946     25947     25946     25948
     25949     25950     25949     25951     25952     25953     25952     25954
     25955     25956     25955     25957     25958     25959     25958     25960
     25961     25962     25961     25963     25964     25965     25964     25966
     25967     25968     25967     25969     25970     25971     25970     25972
     25973     25974     25973     25975     25976     25977     25976     25978
     25979     25980     25979     25981     25982     25983     25982     25984
     25985     25986     25985     25987     25988     25989     25988     25990
     25991     25992     25991     25993     25994     25995     25994     25996
     25997     25998     25997     25999     26000     26001     26000     26002
     26003     26004     26003     26005     26006     26007     26006     26008
     26009     26010     26009     26011     26012     26013     26012     26014
     26015     26016     26015     26017     26018     26019     26018     26020
     26021     26022     26021     26023     26024     26025     26024     26026
     26027     26028     26027     26029     26030     26031     26030     26032
     26033     26034     26033     26035     26036     26037     26036     26038
     26039     26040     26039     26041     26042     26043     26042     26044
     26045     26046     26045     26047     26048     26049     26048     26050
     26051     26052     26051     26053     26054     26055     26054     26056
     26057     26058     26057     26059     26060     26061     26060     26062
     26063     26064     26063     26065     26066     26067     26066     26068
     26069     26070     26069     26071     26072     26073     26072     26074
     26075     26076     26075     26077     26078     26079     26078     26080
     26081     26082     26081     26083     26084     26085     26084     26086
     26087     26088     26087     26089     26090     26091     26090     26092
     26093     26094     26093     26095     26096     26097     26096     26098
     26099     26100     26099     26101     26102     26103     26102     26104
     26105     26106     26105     26107     26108     26109     26108     26110
     26111     26112     26111     26113     26114     26115     26114     26116
     26117     26118     26117     26119     26120     26121     26120     26122
     26123     26124     26123     26125     26126     26127     26126     26128
     26129     26130     26129     26131     26132     26133     26132     26134
     26135     26136     26135     26137     26138     26139     26138     26140
     26141     26142     26141     26143     26144     26145     26144     26146
     26147     26148     26147     26149     26150     26151     26150     26152
     26153     26154     26153     26155     26156     26157     26156     26158
     26159     26160     26159     26161     26162     26163     26162     26164
     26165     26166     26165     26167     26168     26169     26168     26170
     26171     26172     26171     26173     26174     26175     26174     26176
     26177     26178     26177     26179     26180     26181     26180     26182
     26183     26184     26183     26185     26186     26187     26186     26188
     26189     26190     26189     26191     26192     26193     26192     26194
     26195     26196     26195     26197     26198     26199     26198     26200
     26201     26202     26201     26203     26204     26205     26204     26206
     26207     26208     26207     26209     26210     26211     26210     26212
     26213     26214     26213     26215     26216     26217     26216     26218
     26219     26220     26219     26221     26222     26223     26222     26224
     26225     26226     26225     26227     26228     26229     26228     26230
     26231     26232     26231     26233     26234     26235     26234     26236
     26237     26238     26237     26239     26240     26241     26240     26242
     26243     26244     26243     26245     26246     26247     26246     26248
     26249     26250     26249     26251     26252     26253     26252     26254
     26255     26256     26255     26257     26258     26259     26258     26260
     26261     26262     26261     26263     26264     26265     26264     26266
     26267     26268     26267     26269     26270     26271     26270     26272
     26273     26274     26273     26275     26276     26277     26276     26278
     26279     26280     26279     26281     26282     26283     26282     26284
     26285     26286     26285     26287     26288     26289     26288     26290
     26291     26292     26291     26293     26294     26295     26294     26296
     26297     26298     26297     26299     26300     26301     26300     26302
     26303     26304     26303     26305     26306     26307     26306     26308
     26309     26310     26309     26311     26312     26313     26312     26314
     26315     26316     26315     26317     26318     26319     26318     26320
     26321     26322     26321     26323     26324     26325     26324     26326
     26327     26328     26327     26329     26330     26331     26330     26332
     26333     26334     26333     26335     26336     26337     26336     26338
     26339     26340     26339     26341     26342     26343     26342     26344
     26345     26346     26345     26347     26348     26349     26348     26350
     26351     26352     26351     26353     26354     26355     26354     26356
     26357     26358     26357     26359     26360     26361     26360     26362
     26363     26364     26363     26365     26366     26367     26366     26368
     26369     26370     26369     26371     26372     26373     26372     26374
     26375     26376     26375     26377     26378     26379     26378     26380
     26381     26382     26381     26383     26384     26385     26384     26386
     26387     26388     26387     26389     26390     26391     26390     26392
     26393     26394     26393     26395     26396     26397     26396     26398
     26399     26400     26399     26401     26402     26403     26402     26404
     26405     26406     26405     26407     26408     26409     26408     26410
     26411     26412     26411     26413     26414     26415     26414     26416
     26417     26418     26417     26419     26420     26421     26420     26422
     26423     26424     26423     26425     26426     26427     26426     26428
     26429     26430     26429     26431     26432     26433     26432     26434
     26435     26436     26435     26437     26438     26439     26438     26440
     26441     26442     26441     26443     26444     26445     26444     26446
     26447     26448     26447     26449     26450     26451     26450     26452
     26453     26454     26453     26455     26456     26457     26456     26458
     26459     26460     26459     26461     26462     26463     26462     26464
     26465     26466     26465     26467     26468     26469     26468     26470
     26471     26472     26471     26473     26474     26475     26474     26476
     26477     26478     26477     26479     26480     26481     26480     26482
     26483     26484     26483     26485     26486     26487     26486     26488
     26489     26490     26489     26491     26492     26493     26492     26494
     26495     26496     26495     26497     26498     26499     26498     26500
     26501     26502     26501     26503     26504     26505     26504     26506
     26507     26508     26507     26509     26510     26511     26510     26512
     26513     26514     26513     26515     26516     26517     26516     26518
     26519     26520     26519     26521     26522     26523     26522     26524
     26525     26526     26525     26527     26528     26529     26528     26530
     26531     26532     26531     26533     26534     26535     26534     26536
     26537     26538     26537     26539     26540     26541     26540     26542
     26543     26544     26543     26545     26546     26547     26546     26548
     26549     26550     26549     26551     26552     26553     26552     26554
     26555     26556     26555     26557     26558     26559     26558     26560
     26561     26562     26561     26563     26564     26565     26564     26566
     26567     26568     26567     26569     26570     26571     26570     26572
     26573     26574     26573     26575     26576     26577     26576     26578
     26579     26580     26579     26581     26582     26583     26582     26584
     26585     26586     26585     26587     26588     26589     26588     26590
     26591     26592     26591     26593     26594     26595     26594     26596
     26597     26598     26597     26599     26600     26601     26600     26602
     26603     26604     26603     26605     26606     26607     26606     26608
     26609     26610     26609     26611     26612     26613     26612     26614
     26615     26616     26615     26617     26618     26619     26618     26620
     26621     26622     26621     26623     26624     26625     26624     26626
     26627     26628     26627     26629     26630     26631     26630     26632
     26633     26634     26633     26635     26636     26637     26636     26638
     26639     26640     26639     26641     26642     26643     26642     26644
     26645     26646     26645     26647     26648     26649     26648     26650
     26651     26652     26651     26653     26654     26655     26654     26656
     26657     26658     26657     26659     26660     26661     26660     26662
     26663     26664     26663     26665     26666     26667     26666     26668
     26669     26670     26669     26671     26672     26673     26672     26674
     26675     26676     26675     26677     26678     26679     26678     26680
     26681     26682     26681     26683     26684     26685     26684     26686
     26687     26688     26687     26689     26690     26691     26690     26692
     26693     26694     26693     26695     26696     26697     26696     26698
     26699     26700     26699     26701     26702     26703     26702     26704
     26705     26706     26705     26707     26708     26709     26708     26710
     26711     26712     26711     26713     26714     26715     26714     26716
     26717     26718     26717     26719     26720     26721     26720     26722
     26723     26724     26723     26725     26726     26727     26726     26728
     26729     26730     26729     26731     26732     26733     26732     26734
     26735     26736     26735     26737     26738     26739     26738     26740
     26741     26742     26741     26743     26744     26745     26744     26746
     26747     26748     26747     26749     26750     26751     26750     26752
     26753     26754     26753     26755     26756     26757     26756     26758
     26759     26760     26759     26761     26762     26763     26762     26764
     26765     26766     26765     26767     26768     26769     26768     26770
     26771     26772     26771     26773     26774     26775     26774     26776
     26777     26778     26777     26779     26780     26781     26780     26782
     26783     26784     26783     26785     26786     26787     26786     26788
     26789     26790     26789     26791     26792     26793     26792     26794
     26795     26796     26795     26797     26798     26799     26798     26800
     26801     26802     26801     26803     26804     26805     26804     26806
     26807     26808     26807     26809     26810     26811     26810     26812
     26813     26814     26813     26815     26816     26817     26816     26818
     26819     26820     26819     26821     26822     26823     26822     26824
     26825     26826     26825     26827     26828     26829     26828     26830
     26831     26832     26831     26833     26834     26835     26834     26836
     26837     26838     26837     26839     26840     26841     26840     26842
     26843     26844     26843     26845     26846     26847     26846     26848
     26849     26850     26849     26851     26852     26853     26852     26854
     26855     26856     26855     26857     26858     26859     26858     26860
     26861     26862     26861     26863     26864     26865     26864     26866
     26867     26868     26867     26869     26870     26871     26870     26872
     26873     26874     26873     26875     26876     26877     26876     26878
     26879     26880     26879     26881     26882     26883     26882     26884
     26885     26886     26885     26887     26888     26889     26888     26890
     26891     26892     26891     26893     26894     26895     26894     26896
     26897     26898     26897     26899     26900     26901     26900     26902
     26903     26904     26903     26905     26906     26907     26906     26908
     26909     26910     26909     26911     26912     26913     26912     26914
     26915     26916     26915     26917     26918     26919     26918     26920
     26921     26922     26921     26923     26924     26925     26924     26926
     26927     26928     26927     26929     26930     26931     26930     26932
     26933     26934     26933     26935     26936     26937     26936     26938
     26939     26940     26939     26941     26942     26943     26942     26944
     26945     26946     26945     26947     26948     26949     26948     26950
     26951     26952     26951     26953     26954     26955     26954     26956
     26957     26958     26957     26959     26960     26961     26960     26962
     26963     26964     26963     26965     26966     26967     26966     26968
     26969     26970     26969     26971     26972     26973     26972     26974
     26975     26976     26975     26977     26978     26979     26978     26980
     26981     26982     26981     26983     26984     26985     26984     26986
     26987     26988     26987     26989     26990     26991     26990     26992
     26993     26994     26993     26995     26996     26997     26996     26998
     26999     27000     26999     27001     27002     27003     27002     27004
     27005     27006     27005     27007     27008     27009     27008     27010
     27011     27012     27011     27013     27014     27015     27014     27016
     27017     27018     27017     27019     27020     27021     27020     27022
     27023     27024     27023     27025     27026     27027     27026     27028
     27029     27030     27029     27031     27032     27033     27032     27034
     27035     27036     27035     27037     27038     27039     27038     27040
     27041     27042     27041     27043     27044     27045     27044     27046
     27047     27048     27047     27049     27050     27051     27050     27052
     27053     27054     27053     27055     27056     27057     27056     27058
     27059     27060     27059     27061     27062     27063     27062     27064
     27065     27066     27065     27067     27068     27069     27068     27070
     27071     27072     27071     27073     27074     27075     27074     27076
     27077     27078     27077     27079     27080     27081     27080     27082
     27083     27084     27083     27085     27086     27087     27086     27088
     27089     27090     27089     27091     27092     27093     27092     27094
     27095     27096     27095     27097     27098     27099     27098     27100
     27101     27102     27101     27103     27104     27105     27104     27106
     27107     27108     27107     27109     27110     27111     27110     27112
     27113     27114     27113     27115     27116     27117     27116     27118
     27119     27120     27119     27121     27122     27123     27122     27124
     27125     27126     27125     27127     27128     27129     27128     27130
     27131     27132     27131     27133     27134     27135     27134     27136
     27137     27138     27137     27139     27140     27141     27140     27142
     27143     27144     27143     27145     27146     27147     27146     27148
     27149     27150     27149     27151     27152     27153     27152     27154
     27155     27156     27155     27157     27158     27159     27158     27160
     27161     27162     27161     27163     27164     27165     27164     27166
     27167     27168     27167     27169     27170     27171     27170     27172
     27173     27174     27173     27175     27176     27177     27176     27178
     27179     27180     27179     27181     27182     27183     27182     27184
     27185     27186     27185     27187     27188     27189     27188     27190
     27191     27192     27191     27193     27194     27195     27194     27196
     27197     27198     27197     27199     27200     27201     27200     27202
     27203     27204     27203     27205     27206     27207     27206     27208
     27209     27210     27209     27211     27212     27213     27212     27214
     27215     27216     27215     27217     27218     27219     27218     27220
     27221     27222     27221     27223     27224     27225     27224     27226
     27227     27228     27227     27229     27230     27231     27230     27232
     27233     27234     27233     27235     27236     27237     27236     27238
     27239     27240     27239     27241     27242     27243     27242     27244
     27245     27246     27245     27247     27248     27249     27248     27250
     27251     27252     27251     27253     27254     27255     27254     27256
     27257     27258     27257     27259     27260     27261     27260     27262
     27263     27264     27263     27265     27266     27267     27266     27268
     27269     27270     27269     27271     27272     27273     27272     27274
     27275     27276     27275     27277     27278     27279     27278     27280
     27281     27282     27281     27283     27284     27285     27284     27286
     27287     27288     27287     27289     27290     27291     27290     27292
     27293     27294     27293     27295     27296     27297     27296     27298
     27299     27300     27299     27301     27302     27303     27302     27304
     27305     27306     27305     27307     27308     27309     27308     27310
     27311     27312     27311     27313     27314     27315     27314     27316
     27317     27318     27317     27319     27320     27321     27320     27322
     27323     27324     27323     27325     27326     27327     27326     27328
     27329     27330     27329     27331     27332     27333     27332     27334
     27335     27336     27335     27337     27338     27339     27338     27340
     27341     27342     27341     27343     27344     27345     27344     27346
     27347     27348     27347     27349     27350     27351     27350     27352
     27353     27354     27353     27355     27356     27357     27356     27358
     27359     27360     27359     27361     27362     27363     27362     27364
     27365     27366     27365     27367     27368     27369     27368     27370
     27371     27372     27371     27373     27374     27375     27374     27376
     27377     27378     27377     27379     27380     27381     27380     27382
     27383     27384     27383     27385     27386     27387     27386     27388
     27389     27390     27389     27391     27392     27393     27392     27394
     27395     27396     27395     27397     27398     27399     27398     27400
     27401     27402     27401     27403     27404     27405     27404     27406
     27407     27408     27407     27409     27410     27411     27410     27412
     27413     27414     27413     27415     27416     27417     27416     27418
     27419     27420     27419     27421     27422     27423     27422     27424
     27425     27426     27425     27427     27428     27429     27428     27430
     27431     27432     27431     27433     27434     27435     27434     27436
     27437     27438     27437     27439     27440     27441     27440     27442
     27443     27444     27443     27445     27446     27447     27446     27448
     27449     27450     27449     27451     27452     27453     27452     27454
     27455     27456     27455     27457     27458     27459     27458     27460
     27461     27462     27461     27463     27464     27465     27464     27466
     27467     27468     27467     27469     27470     27471     27470     27472
     27473     27474     27473     27475     27476     27477     27476     27478
     27479     27480     27479     27481     27482     27483     27482     27484
     27485     27486     27485     27487     27488     27489     27488     27490
     27491     27492     27491     27493     27494     27495     27494     27496
     27497     27498     27497     27499     27500     27501     27500     27502
     27503     27504     27503     27505     27506     27507     27506     27508
     27509     27510     27509     27511     27512     27513     27512     27514
     27515     27516     27515     27517     27518     27519     27518     27520
     27521     27522     27521     27523     27524     27525     27524     27526
     27527     27528     27527     27529     27530     27531     27530     27532
     27533     27534     27533     27535     27536     27537     27536     27538
     27539     27540     27539     27541     27542     27543     27542     27544
     27545     27546     27545     27547     27548     27549     27548     27550
     27551     27552     27551     27553     27554     27555     27554     27556
     27557     27558     27557     27559     27560     27561     27560     27562
     27563     27564     27563     27565     27566     27567     27566     27568
     27569     27570     27569     27571     27572     27573     27572     27574
     27575     27576     27575     27577     27578     27579     27578     27580
     27581     27582     27581     27583     27584     27585     27584     27586
     27587     27588     27587     27589     27590     27591     27590     27592
     27593     27594     27593     27595     27596     27597     27596     27598
     27599     27600     27599     27601     27602     27603     27602     27604
     27605     27606     27605     27607     27608     27609     27608     27610
     27611     27612     27611     27613     27614     27615     27614     27616
     27617     27618     27617     27619     27620     27621     27620     27622
     27623     27624     27623     27625     27626     27627     27626     27628
     27629     27630     27629     27631     27632     27633     27632     27634
     27635     27636     27635     27637     27638     27639     27638     27640
     27641     27642     27641     27643     27644     27645     27644     27646
     27647     27648     27647     27649     27650     27651     27650     27652
     27653     27654     27653     27655     27656     27657     27656     27658
     27659     27660     27659     27661     27662     27663     27662     27664
     27665     27666     27665     27667     27668     27669     27668     27670
     27671     27672     27671     27673     27674     27675     27674     27676
     27677     27678     27677     27679     27680     27681     27680     27682
     27683     27684     27683     27685     27686     27687     27686     27688
     27689     27690     27689     27691     27692     27693     27692     27694
     27695     27696     27695     27697     27698     27699     27698     27700
     27701     27702     27701     27703     27704     27705     27704     27706
     27707     27708     27707     27709     27710     27711     27710     27712
     27713     27714     27713     27715     27716     27717     27716     27718
     27719     27720     27719     27721     27722     27723     27722     27724
     27725     27726     27725     27727     27728     27729     27728     27730
     27731     27732     27731     27733     27734     27735     27734     27736
     27737     27738     27737     27739     27740     27741     27740     27742
     27743     27744     27743     27745     27746     27747     27746     27748
     27749     27750     27749     27751     27752     27753     27752     27754
     27755     27756     27755     27757     27758     27759     27758     27760
     27761     27762     27761     27763     27764     27765     27764     27766
     27767     27768     27767     27769     27770     27771     27770     27772
     27773     27774     27773     27775     27776     27777     27776     27778
     27779     27780     27779     27781     27782     27783     27782     27784
     27785     27786     27785     27787     27788     27789     27788     27790
     27791     27792     27791     27793     27794     27795     27794     27796
     27797     27798     27797     27799     27800     27801     27800     27802
     27803     27804     27803     27805     27806     27807     27806     27808
     27809     27810     27809     27811     27812     27813     27812     27814
     27815     27816     27815     27817     27818     27819     27818     27820
     27821     27822     27821     27823     27824     27825     27824     27826
     27827     27828     27827     27829     27830     27831     27830     27832
     27833     27834     27833     27835     27836     27837     27836     27838
     27839     27840     27839     27841     27842     27843     27842     27844
     27845     27846     27845     27847     27848     27849     27848     27850
     27851     27852     27851     27853     27854     27855     27854     27856
     27857     27858     27857     27859     27860     27861     27860     27862
     27863     27864     27863     27865     27866     27867     27866     27868
     27869     27870     27869     27871     27872     27873     27872     27874
     27875     27876     27875     27877     27878     27879     27878     27880
     27881     27882     27881     27883     27884     27885     27884     27886
     27887     27888     27887     27889     27890     27891     27890     27892
     27893     27894     27893     27895     27896     27897     27896     27898
     27899     27900     27899     27901     27902     27903     27902     27904
     27905     27906     27905     27907     27908     27909     27908     27910
     27911     27912     27911     27913     27914     27915     27914     27916
     27917     27918     27917     27919     27920     27921     27920     27922
     27923     27924     27923     27925     27926     27927     27926     27928
     27929     27930     27929     27931     27932     27933     27932     27934
     27935     27936     27935     27937     27938     27939     27938     27940
     27941     27942     27941     27943     27944     27945     27944     27946
     27947     27948     27947     27949     27950     27951     27950     27952
     27953     27954     27953     27955     27956     27957     27956     27958
     27959     27960     27959     27961     27962     27963     27962     27964
     27965     27966     27965     27967     27968     27969     27968     27970
     27971     27972     27971     27973     27974     27975     27974     27976
     27977     27978     27977     27979     27980     27981     27980     27982
     27983     27984     27983     27985     27986     27987     27986     27988
     27989     27990     27989     27991     27992     27993     27992     27994
     27995     27996     27995     27997     27998     27999     27998     28000
     28001     28002     28001     28003     28004     28005     28004     28006
     28007     28008     28007     28009     28010     28011     28010     28012
     28013     28014     28013     28015     28016     28017     28016     28018
     28019     28020     28019     28021     28022     28023     28022     28024
     28025     28026     28025     28027     28028     28029     28028     28030
     28031     28032     28031     28033     28034     28035     28034     28036
     28037     28038     28037     28039     28040     28041     28040     28042
     28043     28044     28043     28045     28046     28047     28046     28048
     28049     28050     28049     28051     28052     28053     28052     28054
     28055     28056     28055     28057     28058     28059     28058     28060
     28061     28062     28061     28063     28064     28065     28064     28066
     28067     28068     28067     28069     28070     28071     28070     28072
     28073     28074     28073     28075     28076     28077     28076     28078
     28079     28080     28079     28081     28082     28083     28082     28084
     28085     28086     28085     28087     28088     28089     28088     28090
     28091     28092     28091     28093     28094     28095     28094     28096
     28097     28098     28097     28099     28100     28101     28100     28102
     28103     28104     28103     28105     28106     28107     28106     28108
     28109     28110     28109     28111     28112     28113     28112     28114
     28115     28116     28115     28117     28118     28119     28118     28120
     28121     28122     28121     28123     28124     28125     28124     28126
     28127     28128     28127     28129     28130     28131     28130     28132
     28133     28134     28133     28135     28136     28137     28136     28138
     28139     28140     28139     28141     28142     28143     28142     28144
     28145     28146     28145     28147     28148     28149     28148     28150
     28151     28152     28151     28153     28154     28155     28154     28156
     28157     28158     28157     28159     28160     28161     28160     28162
     28163     28164     28163     28165     28166     28167     28166     28168
     28169     28170     28169     28171     28172     28173     28172     28174
     28175     28176     28175     28177     28178     28179     28178     28180
     28181     28182     28181     28183     28184     28185     28184     28186
     28187     28188     28187     28189     28190     28191     28190     28192
     28193     28194     28193     28195     28196     28197     28196     28198
     28199     28200     28199     28201     28202     28203     28202     28204
     28205     28206     28205     28207     28208     28209     28208     28210
     28211     28212     28211     28213     28214     28215     28214     28216
     28217     28218     28217     28219     28220     28221     28220     28222
     28223     28224     28223     28225     28226     28227     28226     28228
     28229     28230     28229     28231     28232     28233     28232     28234
     28235     28236     28235     28237     28238     28239     28238     28240
     28241     28242     28241     28243     28244     28245     28244     28246
     28247     28248     28247     28249     28250     28251     28250     28252
     28253     28254     28253     28255     28256     28257     28256     28258
     28259     28260     28259     28261     28262     28263     28262     28264
     28265     28266     28265     28267     28268     28269     28268     28270
     28271     28272     28271     28273     28274     28275     28274     28276
     28277     28278     28277     28279     28280     28281     28280     28282
     28283     28284     28283     28285     28286     28287     28286     28288
     28289     28290     28289     28291     28292     28293     28292     28294
     28295     28296     28295     28297     28298     28299     28298     28300
     28301     28302     28301     28303     28304     28305     28304     28306
     28307     28308     28307     28309     28310     28311     28310     28312
     28313     28314     28313     28315     28316     28317     28316     28318
     28319     28320     28319     28321     28322     28323     28322     28324
     28325     28326     28325     28327     28328     28329     28328     28330
     28331     28332     28331     28333     28334     28335     28334     28336
     28337     28338     28337     28339     28340     28341     28340     28342
     28343     28344     28343     28345     28346     28347     28346     28348
     28349     28350     28349     28351     28352     28353     28352     28354
     28355     28356     28355     28357     28358     28359     28358     28360
     28361     28362     28361     28363     28364     28365     28364     28366
     28367     28368     28367     28369     28370     28371     28370     28372
     28373     28374     28373     28375     28376     28377     28376     28378
     28379     28380     28379     28381     28382     28383     28382     28384
     28385     28386     28385     28387     28388     28389     28388     28390
     28391     28392     28391     28393     28394     28395     28394     28396
     28397     28398     28397     28399     28400     28401     28400     28402
     28403     28404     28403     28405     28406     28407     28406     28408
     28409     28410     28409     28411     28412     28413     28412     28414
     28415     28416     28415     28417     28418     28419     28418     28420
     28421     28422     28421     28423     28424     28425     28424     28426
     28427     28428     28427     28429     28430     28431     28430     28432
     28433     28434     28433     28435     28436     28437     28436     28438
     28439     28440     28439     28441     28442     28443     28442     28444
     28445     28446     28445     28447     28448     28449     28448     28450
     28451     28452     28451     28453     28454     28455     28454     28456
     28457     28458     28457     28459     28460     28461     28460     28462
     28463     28464     28463     28465     28466     28467     28466     28468
     28469     28470     28469     28471     28472     28473     28472     28474
     28475     28476     28475     28477     28478     28479     28478     28480
     28481     28482     28481     28483     28484     28485     28484     28486
     28487     28488     28487     28489     28490     28491     28490     28492
     28493     28494     28493     28495     28496     28497     28496     28498
     28499     28500     28499     28501     28502     28503     28502     28504
     28505     28506     28505     28507     28508     28509     28508     28510
     28511     28512     28511     28513     28514     28515     28514     28516
     28517     28518     28517     28519     28520     28521     28520     28522
     28523     28524     28523     28525     28526     28527     28526     28528
     28529     28530     28529     28531     28532     28533     28532     28534
     28535     28536     28535     28537     28538     28539     28538     28540
     28541     28542     28541     28543     28544     28545     28544     28546
     28547     28548     28547     28549     28550     28551     28550     28552
     28553     28554     28553     28555     28556     28557     28556     28558
     28559     28560     28559     28561     28562     28563     28562     28564
     28565     28566     28565     28567     28568     28569     28568     28570
     28571     28572     28571     28573     28574     28575     28574     28576
     28577     28578     28577     28579     28580     28581     28580     28582
     28583     28584     28583     28585     28586     28587     28586     28588
     28589     28590     28589     28591     28592     28593     28592     28594
     28595     28596     28595     28597     28598     28599     28598     28600
     28601     28602     28601     28603     28604     28605     28604     28606
     28607     28608     28607     28609     28610     28611     28610     28612
     28613     28614     28613     28615     28616     28617     28616     28618
     28619     28620     28619     28621     28622     28623     28622     28624
     28625     28626     28625     28627     28628     28629     28628     28630
     28631     28632     28631     28633     28634     28635     28634     28636
     28637     28638     28637     28639     28640     28641     28640     28642
     28643     28644     28643     28645     28646     28647     28646     28648
     28649     28650     28649     28651     28652     28653     28652     28654
     28655     28656     28655     28657     28658     28659     28658     28660
     28661     28662     28661     28663     28664     28665     28664     28666
     28667     28668     28667     28669     28670     28671     28670     28672
     28673     28674     28673     28675     28676     28677     28676     28678
     28679     28680     28679     28681     28682     28683     28682     28684
     28685     28686     28685     28687     28688     28689     28688     28690
     28691     28692     28691     28693     28694     28695     28694     28696
     28697     28698     28697     28699     28700     28701     28700     28702
     28703     28704     28703     28705     28706     28707     28706     28708
     28709     28710     28709     28711     28712     28713     28712     28714
     28715     28716     28715     28717     28718     28719     28718     28720
     28721     28722     28721     28723     28724     28725     28724     28726
     28727     28728     28727     28729     28730     28731     28730     28732
     28733     28734     28733     28735     28736     28737     28736     28738
     28739     28740     28739     28741     28742     28743     28742     28744
     28745     28746     28745     28747     28748     28749     28748     28750
     28751     28752     28751     28753     28754     28755     28754     28756
     28757     28758     28757     28759     28760     28761     28760     28762
     28763     28764     28763     28765     28766     28767     28766     28768
     28769     28770     28769     28771     28772     28773     28772     28774
     28775     28776     28775     28777     28778     28779     28778     28780
     28781     28782     28781     28783     28784     28785     28784     28786
     28787     28788     28787     28789     28790     28791     28790     28792
     28793     28794     28793     28795     28796     28797     28796     28798
     28799     28800     28799     28801     28802     28803     28802     28804
     28805     28806     28805     28807     28808     28809     28808     28810
     28811     28812     28811     28813     28814     28815     28814     28816
     28817     28818     28817     28819     28820     28821     28820     28822
     28823     28824     28823     28825     28826     28827     28826     28828
     28829     28830     28829     28831     28832     28833     28832     28834
     28835     28836     28835     28837     28838     28839     28838     28840
     28841     28842     28841     28843     28844     28845     28844     28846
     28847     28848     28847     28849     28850     28851     28850     28852
     28853     28854     28853     28855     28856     28857     28856     28858
     28859     28860     28859     28861     28862     28863     28862     28864
     28865     28866     28865     28867     28868     28869     28868     28870
     28871     28872     28871     28873     28874     28875     28874     28876
     28877     28878     28877     28879     28880     28881     28880     28882
     28883     28884     28883     28885     28886     28887     28886     28888
     28889     28890     28889     28891     28892     28893     28892     28894
     28895     28896     28895     28897     28898     28899     28898     28900
     28901     28902     28901     28903     28904     28905     28904     28906
     28907     28908     28907     28909     28910     28911     28910     28912
     28913     28914     28913     28915     28916     28917     28916     28918
     28919     28920     28919     28921     28922     28923     28922     28924
     28925     28926     28925     28927     28928     28929     28928     28930
     28931     28932     28931     28933     28934     28935     28934     28936
     28937     28938     28937     28939     28940     28941     28940     28942
     28943     28944     28943     28945     28946     28947     28946     28948
     28949     28950     28949     28951     28952     28953     28952     28954
     28955     28956     28955     28957     28958     28959     28958     28960
     28961     28962     28961     28963     28964     28965     28964     28966
     28967     28968     28967     28969     28970     28971     28970     28972
     28973     28974     28973     28975     28976     28977     28976     28978
     28979     28980     28979     28981     28982     28983     28982     28984
     28985     28986     28985     28987     28988     28989     28988     28990
     28991     28992     28991     28993     28994     28995     28994     28996
     28997     28998     28997     28999     29000     29001     29000     29002
     29003     29004     29003     29005     29006     29007     29006     29008
     29009     29010     29009     29011     29012     29013     29012     29014
     29015     29016     29015     29017     29018     29019     29018     29020
     29021     29022     29021     29023     29024     29025     29024     29026
     29027     29028     29027     29029     29030     29031     29030     29032
     29033     29034     29033     29035     29036     29037     29036     29038
     29039     29040     29039     29041     29042     29043     29042     29044
     29045     29046     29045     29047     29048     29049     29048     29050
     29051     29052     29051     29053     29054     29055     29054     29056
     29057     29058     29057     29059     29060     29061     29060     29062
     29063     29064     29063     29065     29066     29067     29066     29068
     29069     29070     29069     29071     29072     29073     29072     29074
     29075     29076     29075     29077     29078     29079     29078     29080
     29081     29082     29081     29083     29084     29085     29084     29086
     29087     29088     29087     29089     29090     29091     29090     29092
     29093     29094     29093     29095     29096     29097     29096     29098
     29099     29100     29099     29101     29102     29103     29102     29104
     29105     29106     29105     29107     29108     29109     29108     29110
     29111     29112     29111     29113     29114     29115     29114     29116
     29117     29118     29117     29119     29120     29121     29120     29122
     29123     29124     29123     29125     29126     29127     29126     29128
     29129     29130     29129     29131     29132     29133     29132     29134
     29135     29136     29135     29137     29138     29139     29138     29140
     29141     29142     29141     29143     29144     29145     29144     29146
     29147     29148     29147     29149     29150     29151     29150     29152
     29153     29154     29153     29155     29156     29157     29156     29158
     29159     29160     29159     29161     29162     29163     29162     29164
     29165     29166     29165     29167     29168     29169     29168     29170
     29171     29172     29171     29173     29174     29175     29174     29176
     29177     29178     29177     29179     29180     29181     29180     29182
     29183     29184     29183     29185     29186     29187     29186     29188
     29189     29190     29189     29191     29192     29193     29192     29194
     29195     29196     29195     29197     29198     29199     29198     29200
     29201     29202     29201     29203     29204     29205     29204     29206
     29207     29208     29207     29209     29210     29211     29210     29212
     29213     29214     29213     29215     29216     29217     29216     29218
     29219     29220     29219     29221     29222     29223     29222     29224
     29225     29226     29225     29227     29228     29229     29228     29230
     29231     29232     29231     29233     29234     29235     29234     29236
     29237     29238     29237     29239     29240     29241     29240     29242
     29243     29244     29243     29245     29246     29247     29246     29248
     29249     29250     29249     29251     29252     29253     29252     29254
     29255     29256     29255     29257     29258     29259     29258     29260
     29261     29262     29261     29263     29264     29265     29264     29266
     29267     29268     29267     29269     29270     29271     29270     29272
     29273     29274     29273     29275     29276     29277     29276     29278
     29279     29280     29279     29281     29282     29283     29282     29284
     29285     29286     29285     29287     29288     29289     29288     29290
     29291     29292     29291     29293     29294     29295     29294     29296
     29297     29298     29297     29299     29300     29301     29300     29302
     29303     29304     29303     29305     29306     29307     29306     29308
     29309     29310     29309     29311     29312     29313     29312     29314
     29315     29316     29315     29317     29318     29319     29318     29320
     29321     29322     29321     29323     29324     29325     29324     29326
     29327     29328     29327     29329     29330     29331     29330     29332
     29333     29334     29333     29335     29336     29337     29336     29338
     29339     29340     29339     29341     29342     29343     29342     29344
     29345     29346     29345     29347     29348     29349     29348     29350
     29351     29352     29351     29353     29354     29355     29354     29356
     29357     29358     29357     29359     29360     29361     29360     29362
     29363     29364     29363     29365     29366     29367     29366     29368
     29369     29370     29369     29371     29372     29373     29372     29374
     29375     29376     29375     29377     29378     29379     29378     29380
     29381     29382     29381     29383     29384     29385     29384     29386
     29387     29388     29387     29389     29390     29391     29390     29392
     29393     29394     29393     29395     29396     29397     29396     29398
     29399     29400     29399     29401     29402     29403     29402     29404
     29405     29406     29405     29407     29408     29409     29408     29410
     29411     29412     29411     29413     29414     29415     29414     29416
     29417     29418     29417     29419     29420     29421     29420     29422
     29423     29424     29423     29425     29426     29427     29426     29428
     29429     29430     29429     29431     29432     29433     29432     29434
     29435     29436     29435     29437     29438     29439     29438     29440
     29441     29442     29441     29443     29444     29445     29444     29446
     29447     29448     29447     29449     29450     29451     29450     29452
     29453     29454     29453     29455     29456     29457     29456     29458
     29459     29460     29459     29461     29462     29463     29462     29464
     29465     29466     29465     29467     29468     29469     29468     29470
     29471     29472     29471     29473     29474     29475     29474     29476
     29477     29478     29477     29479     29480     29481     29480     29482
     29483     29484     29483     29485     29486     29487     29486     29488
     29489     29490     29489     29491     29492     29493     29492     29494
     29495     29496     29495     29497     29498     29499     29498     29500
     29501     29502     29501     29503     29504     29505     29504     29506
     29507     29508     29507     29509     29510     29511     29510     29512
     29513     29514     29513     29515     29516     29517     29516     29518
     29519     29520     29519     29521     29522     29523     29522     29524
     29525     29526     29525     29527     29528     29529     29528     29530
     29531     29532     29531     29533     29534     29535     29534     29536
     29537     29538     29537     29539     29540     29541     29540     29542
     29543     29544     29543     29545     29546     29547     29546     29548
     29549     29550     29549     29551     29552     29553     29552     29554
     29555     29556     29555     29557     29558     29559     29558     29560
     29561     29562     29561     29563     29564     29565     29564     29566
     29567     29568     29567     29569     29570     29571     29570     29572
     29573     29574     29573     29575     29576     29577     29576     29578
     29579     29580     29579     29581     29582     29583     29582     29584
     29585     29586     29585     29587     29588     29589     29588     29590
     29591     29592     29591     29593     29594     29595     29594     29596
     29597     29598     29597     29599     29600     29601     29600     29602
     29603     29604     29603     29605     29606     29607     29606     29608
     29609     29610     29609     29611     29612     29613     29612     29614
     29615     29616     29615     29617     29618     29619     29618     29620
     29621     29622     29621     29623     29624     29625     29624     29626
     29627     29628     29627     29629     29630     29631     29630     29632
     29633     29634     29633     29635     29636     29637     29636     29638
     29639     29640     29639     29641     29642     29643     29642     29644
     29645     29646     29645     29647     29648     29649     29648     29650
     29651     29652     29651     29653     29654     29655     29654     29656
     29657     29658     29657     29659     29660     29661     29660     29662
     29663     29664     29663     29665     29666     29667     29666     29668
     29669     29670     29669     29671     29672     29673     29672     29674
     29675     29676     29675     29677     29678     29679     29678     29680
     29681     29682     29681     29683     29684     29685     29684     29686
     29687     29688     29687     29689     29690     29691     29690     29692
     29693     29694     29693     29695     29696     29697     29696     29698
     29699     29700     29699     29701     29702     29703     29702     29704
     29705     29706     29705     29707     29708     29709     29708     29710
     29711     29712     29711     29713     29714     29715     29714     29716
     29717     29718     29717     29719     29720     29721     29720     29722
     29723     29724     29723     29725     29726     29727     29726     29728
     29729     29730     29729     29731     29732     29733     29732     29734
     29735     29736     29735     29737     29738     29739     29738     29740
     29741     29742     29741     29743     29744     29745     29744     29746
     29747     29748     29747     29749     29750     29751     29750     29752
     29753     29754     29753     29755     29756     29757     29756     29758
     29759     29760     29759     29761     29762     29763     29762     29764
     29765     29766     29765     29767     29768     29769     29768     29770
     29771     29772     29771     29773     29774     29775     29774     29776
     29777     29778     29777     29779     29780     29781     29780     29782
     29783     29784     29783     29785     29786     29787     29786     29788
     29789     29790     29789     29791     29792     29793     29792     29794
     29795     29796     29795     29797     29798     29799     29798     29800
     29801     29802     29801     29803     29804     29805     29804     29806
     29807     29808     29807     29809     29810     29811     29810     29812
     29813     29814     29813     29815     29816     29817     29816     29818
     29819     29820     29819     29821     29822     29823     29822     29824
     29825     29826     29825     29827     29828     29829     29828     29830
     29831     29832     29831     29833     29834     29835     29834     29836
     29837     29838     29837     29839     29840     29841     29840     29842
     29843     29844     29843     29845     29846     29847     29846     29848
     29849     29850     29849     29851     29852     29853     29852     29854
     29855     29856     29855     29857     29858     29859     29858     29860
     29861     29862     29861     29863     29864     29865     29864     29866
     29867     29868     29867     29869     29870     29871     29870     29872
     29873     29874     29873     29875     29876     29877     29876     29878
     29879     29880     29879     29881     29882     29883     29882     29884
     29885     29886     29885     29887     29888     29889     29888     29890
     29891     29892     29891     29893     29894     29895     29894     29896
     29897     29898     29897     29899     29900     29901     29900     29902
     29903     29904     29903     29905     29906     29907     29906     29908
     29909     29910     29909     29911     29912     29913     29912     29914
     29915     29916     29915     29917     29918     29919     29918     29920
     29921     29922     29921     29923     29924     29925     29924     29926
     29927     29928     29927     29929     29930     29931     29930     29932
     29933     29934     29933     29935     29936     29937     29936     29938
     29939     29940     29939     29941     29942     29943     29942     29944
     29945     29946     29945     29947     29948     29949     29948     29950
     29951     29952     29951     29953     29954     29955     29954     29956
     29957     29958     29957     29959     29960     29961     29960     29962
     29963     29964     29963     29965     29966     29967     29966     29968
     29969     29970     29969     29971     29972     29973     29972     29974
     29975     29976     29975     29977     29978     29979     29978     29980
     29981     29982     29981     29983     29984     29985     29984     29986
     29987     29988     29987     29989     29990     29991     29990     29992
     29993     29994     29993     29995     29996     29997     29996     29998
     29999     30000     29999     30001     30002     30003     30002     30004
     30005     30006     30005     30007     30008     30009     30008     30010
     30011     30012     30011     30013     30014     30015     30014     30016
     30017     30018     30017     30019     30020     30021     30020     30022
     30023     30024     30023     30025     30026     30027     30026     30028
     30029     30030     30029     30031     30032     30033     30032     30034
     30035     30036     30035     30037     30038     30039     30038     30040
     30041     30042     30041     30043     30044     30045     30044     30046
     30047     30048     30047     30049     30050     30051     30050     30052
     30053     30054     30053     30055     30056     30057     30056     30058
     30059     30060     30059     30061     30062     30063     30062     30064
     30065     30066     30065     30067     30068     30069     30068     30070
     30071     30072     30071     30073     30074     30075     30074     30076
     30077     30078     30077     30079     30080     30081     30080     30082
     30083     30084     30083     30085     30086     30087     30086     30088
     30089     30090     30089     30091     30092     30093     30092     30094
     30095     30096     30095     30097     30098     30099     30098     30100
     30101     30102     30101     30103     30104     30105     30104     30106
     30107     30108     30107     30109     30110     30111     30110     30112
     30113     30114     30113     30115     30116     30117     30116     30118
     30119     30120     30119     30121     30122     30123     30122     30124
     30125     30126     30125     30127     30128     30129     30128     30130
     30131     30132     30131     30133     30134     30135     30134     30136
     30137     30138     30137     30139     30140     30141     30140     30142
     30143     30144     30143     30145     30146     30147     30146     30148
     30149     30150     30149     30151     30152     30153     30152     30154
     30155     30156     30155     30157     30158     30159     30158     30160
     30161     30162     30161     30163     30164     30165     30164     30166
     30167     30168     30167     30169     30170     30171     30170     30172
     30173     30174     30173     30175     30176     30177     30176     30178
     30179     30180     30179     30181     30182     30183     30182     30184
     30185     30186     30185     30187     30188     30189     30188     30190
     30191     30192     30191     30193     30194     30195     30194     30196
     30197     30198     30197     30199     30200     30201     30200     30202
     30203     30204     30203     30205     30206     30207     30206     30208
     30209     30210     30209     30211     30212     30213     30212     30214
     30215     30216     30215     30217     30218     30219     30218     30220
     30221     30222     30221     30223     30224     30225     30224     30226
     30227     30228     30227     30229     30230     30231     30230     30232
     30233     30234     30233     30235     30236     30237     30236     30238
     30239     30240     30239     30241     30242     30243     30242     30244
     30245     30246     30245     30247     30248     30249     30248     30250
     30251     30252     30251     30253     30254     30255     30254     30256
     30257     30258     30257     30259     30260     30261     30260     30262
     30263     30264     30263     30265     30266     30267     30266     30268
     30269     30270     30269     30271     30272     30273     30272     30274
     30275     30276     30275     30277     30278     30279     30278     30280
     30281     30282     30281     30283     30284     30285     30284     30286
     30287     30288     30287     30289     30290     30291     30290     30292
     30293     30294     30293     30295     30296     30297     30296     30298
     30299     30300     30299     30301     30302     30303     30302     30304
     30305     30306     30305     30307     30308     30309     30308     30310
     30311     30312     30311     30313     30314     30315     30314     30316
     30317     30318     30317     30319     30320     30321     30320     30322
     30323     30324     30323     30325     30326     30327     30326     30328
     30329     30330     30329     30331     30332     30333     30332     30334
     30335     30336     30335     30337     30338     30339     30338     30340
     30341     30342     30341     30343     30344     30345     30344     30346
     30347     30348     30347     30349     30350     30351     30350     30352
     30353     30354     30353     30355     30356     30357     30356     30358
     30359     30360     30359     30361     30362     30363     30362     30364
     30365     30366     30365     30367     30368     30369     30368     30370
     30371     30372     30371     30373     30374     30375     30374     30376
     30377     30378     30377     30379     30380     30381     30380     30382
     30383     30384     30383     30385     30386     30387     30386     30388
     30389     30390     30389     30391     30392     30393     30392     30394
     30395     30396     30395     30397     30398     30399     30398     30400
     30401     30402     30401     30403     30404     30405     30404     30406
     30407     30408     30407     30409     30410     30411     30410     30412
     30413     30414     30413     30415     30416     30417     30416     30418
     30419     30420     30419     30421     30422     30423     30422     30424
     30425     30426     30425     30427     30428     30429     30428     30430
     30431     30432     30431     30433     30434     30435     30434     30436
     30437     30438     30437     30439     30440     30441     30440     30442
     30443     30444     30443     30445     30446     30447     30446     30448
     30449     30450     30449     30451     30452     30453     30452     30454
     30455     30456     30455     30457     30458     30459     30458     30460
     30461     30462     30461     30463     30464     30465     30464     30466
     30467     30468     30467     30469     30470     30471     30470     30472
     30473     30474     30473     30475     30476     30477     30476     30478
     30479     30480     30479     30481     30482     30483     30482     30484
     30485     30486     30485     30487     30488     30489     30488     30490
     30491     30492     30491     30493     30494     30495     30494     30496
     30497     30498     30497     30499     30500     30501     30500     30502
     30503     30504     30503     30505     30506     30507     30506     30508
     30509     30510     30509     30511     30512     30513     30512     30514
     30515     30516     30515     30517     30518     30519     30518     30520
     30521     30522     30521     30523     30524     30525     30524     30526
     30527     30528     30527     30529     30530     30531     30530     30532
     30533     30534     30533     30535     30536     30537     30536     30538
     30539     30540     30539     30541     30542     30543     30542     30544
     30545     30546     30545     30547     30548     30549     30548     30550
     30551     30552     30551     30553     30554     30555     30554     30556
     30557     30558     30557     30559     30560     30561     30560     30562
     30563     30564     30563     30565     30566     30567     30566     30568
     30569     30570     30569     30571     30572     30573     30572     30574
     30575     30576     30575     30577     30578     30579     30578     30580
     30581     30582     30581     30583     30584     30585     30584     30586
     30587     30588     30587     30589     30590     30591     30590     30592
     30593     30594     30593     30595     30596     30597     30596     30598
     30599     30600     30599     30601     30602     30603     30602     30604
     30605     30606     30605     30607     30608     30609     30608     30610
     30611     30612     30611     30613     30614     30615     30614     30616
     30617     30618     30617     30619     30620     30621     30620     30622
     30623     30624     30623     30625     30626     30627     30626     30628
     30629     30630     30629     30631     30632     30633     30632     30634
     30635     30636     30635     30637     30638     30639     30638     30640
     30641     30642     30641     30643     30644     30645     30644     30646
     30647     30648     30647     30649     30650     30651     30650     30652
     30653     30654     30653     30655     30656     30657     30656     30658
     30659     30660     30659     30661     30662     30663     30662     30664
     30665     30666     30665     30667     30668     30669     30668     30670
     30671     30672     30671     30673     30674     30675     30674     30676
     30677     30678     30677     30679     30680     30681     30680     30682
     30683     30684     30683     30685     30686     30687     30686     30688
     30689     30690     30689     30691     30692     30693     30692     30694
     30695     30696     30695     30697     30698     30699     30698     30700
     30701     30702     30701     30703     30704     30705     30704     30706
     30707     30708     30707     30709     30710     30711     30710     30712
     30713     30714     30713     30715     30716     30717     30716     30718
     30719     30720     30719     30721     30722     30723     30722     30724
     30725     30726     30725     30727     30728     30729     30728     30730
     30731     30732     30731     30733     30734     30735     30734     30736
     30737     30738     30737     30739     30740     30741     30740     30742
     30743     30744     30743     30745     30746     30747     30746     30748
     30749     30750     30749     30751     30752     30753     30752     30754
     30755     30756     30755     30757     30758     30759     30758     30760
     30761     30762     30761     30763     30764     30765     30764     30766
     30767     30768     30767     30769     30770     30771     30770     30772
     30773     30774     30773     30775     30776     30777     30776     30778
     30779     30780     30779     30781     30782     30783     30782     30784
     30785     30786     30785     30787     30788     30789     30788     30790
     30791     30792     30791     30793     30794     30795     30794     30796
     30797     30798     30797     30799     30800     30801     30800     30802
     30803     30804     30803     30805     30806     30807     30806     30808
     30809     30810     30809     30811     30812     30813     30812     30814
     30815     30816     30815     30817     30818     30819     30818     30820
     30821     30822     30821     30823     30824     30825     30824     30826
     30827     30828     30827     30829     30830     30831     30830     30832
     30833     30834     30833     30835     30836     30837     30836     30838
     30839     30840     30839     30841     30842     30843     30842     30844
     30845     30846     30845     30847     30848     30849     30848     30850
     30851     30852     30851     30853     30854     30855     30854     30856
     30857     30858     30857     30859     30860     30861     30860     30862
     30863     30864     30863     30865     30866     30867     30866     30868
     30869     30870     30869     30871     30872     30873     30872     30874
     30875     30876     30875     30877     30878     30879     30878     30880
     30881     30882     30881     30883     30884     30885     30884     30886
     30887     30888     30887     30889     30890     30891     30890     30892
     30893     30894     30893     30895     30896     30897     30896     30898
     30899     30900     30899     30901     30902     30903     30902     30904
     30905     30906     30905     30907     30908     30909     30908     30910
     30911     30912     30911     30913     30914     30915     30914     30916
     30917     30918     30917     30919     30920     30921     30920     30922
     30923     30924     30923     30925     30926     30927     30926     30928
     30929     30930     30929     30931     30932     30933     30932     30934
     30935     30936     30935     30937     30938     30939     30938     30940
     30941     30942     30941     30943     30944     30945     30944     30946
     30947     30948     30947     30949     30950     30951     30950     30952
     30953     30954     30953     30955     30956     30957     30956     30958
     30959     30960     30959     30961     30962     30963     30962     30964
     30965     30966     30965     30967     30968     30969     30968     30970
     30971     30972     30971     30973     30974     30975     30974     30976
     30977     30978     30977     30979     30980     30981     30980     30982
     30983     30984     30983     30985     30986     30987     30986     30988
     30989     30990     30989     30991     30992     30993     30992     30994
     30995     30996     30995     30997     30998     30999     30998     31000
     31001     31002     31001     31003     31004     31005     31004     31006
     31007     31008     31007     31009     31010     31011     31010     31012
     31013     31014     31013     31015     31016     31017     31016     31018
     31019     31020     31019     31021     31022     31023     31022     31024
     31025     31026     31025     31027     31028     31029     31028     31030
     31031     31032     31031     31033     31034     31035     31034     31036
     31037     31038     31037     31039     31040     31041     31040     31042
     31043     31044     31043     31045     31046     31047     31046     31048
     31049     31050     31049     31051     31052     31053     31052     31054
     31055     31056     31055     31057     31058     31059     31058     31060
     31061     31062     31061     31063     31064     31065     31064     31066
     31067     31068     31067     31069     31070     31071     31070     31072
     31073     31074     31073     31075     31076     31077     31076     31078
     31079     31080     31079     31081     31082     31083     31082     31084
     31085     31086     31085     31087     31088     31089     31088     31090
     31091     31092     31091     31093     31094     31095     31094     31096
     31097     31098     31097     31099     31100     31101     31100     31102
     31103     31104     31103     31105     31106     31107     31106     31108
     31109     31110     31109     31111     31112     31113     31112     31114
     31115     31116     31115     31117     31118     31119     31118     31120
     31121     31122     31121     31123     31124     31125     31124     31126
     31127     31128     31127     31129     31130     31131     31130     31132
     31133     31134     31133     31135     31136     31137     31136     31138
     31139     31140     31139     31141     31142     31143     31142     31144
     31145     31146     31145     31147     31148     31149     31148     31150
     31151     31152     31151     31153     31154     31155     31154     31156
     31157     31158     31157     31159     31160     31161     31160     31162
     31163     31164     31163     31165     31166     31167     31166     31168
     31169     31170     31169     31171     31172     31173     31172     31174
     31175     31176     31175     31177     31178     31179     31178     31180
     31181     31182     31181     31183     31184     31185     31184     31186
     31187     31188     31187     31189     31190     31191     31190     31192
     31193     31194     31193     31195     31196     31197     31196     31198
     31199     31200     31199     31201     31202     31203     31202     31204
     31205     31206     31205     31207     31208     31209     31208     31210
     31211     31212     31211     31213     31214     31215     31214     31216
     31217     31218     31217     31219     31220     31221     31220     31222
     31223     31224     31223     31225     31226     31227     31226     31228
     31229     31230     31229     31231     31232     31233     31232     31234
     31235     31236     31235     31237     31238     31239     31238     31240
     31241     31242     31241     31243     31244     31245     31244     31246
     31247     31248     31247     31249     31250     31251     31250     31252
     31253     31254     31253     31255     31256     31257     31256     31258
     31259     31260     31259     31261     31262     31263     31262     31264
     31265     31266     31265     31267     31268     31269     31268     31270
     31271     31272     31271     31273     31274     31275     31274     31276
     31277     31278     31277     31279     31280     31281     31280     31282
     31283     31284     31283     31285     31286     31287     31286     31288
     31289     31290     31289     31291     31292     31293     31292     31294
     31295     31296     31295     31297     31298     31299     31298     31300
     31301     31302     31301     31303     31304     31305     31304     31306
     31307     31308     31307     31309     31310     31311     31310     31312
     31313     31314     31313     31315     31316     31317     31316     31318
     31319     31320     31319     31321     31322     31323     31322     31324
     31325     31326     31325     31327     31328     31329     31328     31330
     31331     31332     31331     31333     31334     31335     31334     31336
     31337     31338     31337     31339     31340     31341     31340     31342
     31343     31344     31343     31345     31346     31347     31346     31348
     31349     31350     31349     31351     31352     31353     31352     31354
     31355     31356     31355     31357     31358     31359     31358     31360
     31361     31362     31361     31363     31364     31365     31364     31366
     31367     31368     31367     31369     31370     31371     31370     31372
     31373     31374     31373     31375     31376     31377     31376     31378
     31379     31380     31379     31381     31382     31383     31382     31384
     31385     31386     31385     31387     31388     31389     31388     31390
     31391     31392     31391     31393     31394     31395     31394     31396
     31397     31398     31397     31399     31400     31401     31400     31402
     31403     31404     31403     31405     31406     31407     31406     31408
     31409     31410     31409     31411     31412     31413     31412     31414
     31415     31416     31415     31417     31418     31419     31418     31420
     31421     31422     31421     31423     31424     31425     31424     31426
     31427     31428     31427     31429     31430     31431     31430     31432
     31433     31434     31433     31435     31436     31437     31436     31438
     31439     31440     31439     31441     31442     31443     31442     31444
     31445     31446     31445     31447     31448     31449     31448     31450
     31451     31452     31451     31453     31454     31455     31454     31456
     31457     31458     31457     31459     31460     31461     31460     31462
     31463     31464     31463     31465     31466     31467     31466     31468
     31469     31470     31469     31471     31472     31473     31472     31474
     31475     31476     31475     31477     31478     31479     31478     31480
     31481     31482     31481     31483     31484     31485     31484     31486
     31487     31488     31487     31489     31490     31491     31490     31492
     31493     31494     31493     31495     31496     31497     31496     31498
     31499     31500     31499     31501     31502     31503     31502     31504
     31505     31506     31505     31507     31508     31509     31508     31510
     31511     31512     31511     31513     31514     31515     31514     31516
     31517     31518     31517     31519     31520     31521     31520     31522
     31523     31524     31523     31525     31526     31527     31526     31528
     31529     31530     31529     31531     31532     31533     31532     31534
     31535     31536     31535     31537     31538     31539     31538     31540
     31541     31542     31541     31543     31544     31545     31544     31546
     31547     31548     31547     31549     31550     31551     31550     31552
     31553     31554     31553     31555     31556     31557     31556     31558
     31559     31560     31559     31561     31562     31563     31562     31564
     31565     31566     31565     31567     31568     31569     31568     31570
     31571     31572     31571     31573     31574     31575     31574     31576
     31577     31578     31577     31579     31580     31581     31580     31582
     31583     31584     31583     31585     31586     31587     31586     31588
     31589     31590     31589     31591     31592     31593     31592     31594
     31595     31596     31595     31597     31598     31599     31598     31600
     31601     31602     31601     31603     31604     31605     31604     31606
     31607     31608     31607     31609     31610     31611     31610     31612
     31613     31614     31613     31615     31616     31617     31616     31618
     31619     31620     31619     31621     31622     31623     31622     31624
     31625     31626     31625     31627     31628     31629     31628     31630
     31631     31632     31631     31633     31634     31635     31634     31636
     31637     31638     31637     31639     31640     31641     31640     31642
     31643     31644     31643     31645     31646     31647     31646     31648
     31649     31650     31649     31651     31652     31653     31652     31654
     31655     31656     31655     31657     31658     31659     31658     31660
     31661     31662     31661     31663     31664     31665     31664     31666
     31667     31668     31667     31669     31670     31671     31670     31672
     31673     31674     31673     31675     31676     31677     31676     31678
     31679     31680     31679     31681     31682     31683     31682     31684
     31685     31686     31685     31687     31688     31689     31688     31690
     31691     31692     31691     31693     31694     31695     31694     31696
     31697     31698     31697     31699     31700     31701     31700     31702
     31703     31704     31703     31705     31706     31707     31706     31708
     31709     31710     31709     31711     31712     31713     31712     31714
     31715     31716     31715     31717     31718     31719     31718     31720
     31721     31722     31721     31723     31724     31725     31724     31726
     31727     31728     31727     31729     31730     31731     31730     31732
     31733     31734     31733     31735     31736     31737     31736     31738
     31739     31740     31739     31741     31742     31743     31742     31744
     31745     31746     31745     31747     31748     31749     31748     31750
     31751     31752     31751     31753     31754     31755     31754     31756
     31757     31758     31757     31759     31760     31761     31760     31762
     31763     31764     31763     31765     31766     31767     31766     31768
     31769     31770     31769     31771     31772     31773     31772     31774
     31775     31776     31775     31777     31778     31779     31778     31780
     31781     31782     31781     31783     31784     31785     31784     31786
     31787     31788     31787     31789     31790     31791     31790     31792
     31793     31794     31793     31795     31796     31797     31796     31798
     31799     31800     31799     31801     31802     31803     31802     31804
     31805     31806     31805     31807     31808     31809     31808     31810
     31811     31812     31811     31813     31814     31815     31814     31816
     31817     31818     31817     31819     31820     31821     31820     31822
     31823     31824     31823     31825     31826     31827     31826     31828
     31829     31830     31829     31831     31832     31833     31832     31834
     31835     31836     31835     31837     31838     31839     31838     31840
     31841     31842     31841     31843     31844     31845     31844     31846
     31847     31848     31847     31849     31850     31851     31850     31852
     31853     31854     31853     31855     31856     31857     31856     31858
     31859     31860     31859     31861     31862     31863     31862     31864
     31865     31866     31865     31867     31868     31869     31868     31870
     31871     31872     31871     31873     31874     31875     31874     31876
     31877     31878     31877     31879     31880     31881     31880     31882
     31883     31884     31883     31885     31886     31887     31886     31888
     31889     31890     31889     31891     31892     31893     31892     31894
     31895     31896     31895     31897     31898     31899     31898     31900
     31901     31902     31901     31903     31904     31905     31904     31906
     31907     31908     31907     31909     31910     31911     31910     31912
     31913     31914     31913     31915     31916     31917     31916     31918
     31919     31920     31919     31921     31922     31923     31922     31924
     31925     31926     31925     31927     31928     31929     31928     31930
     31931     31932     31931     31933     31934     31935     31934     31936
     31937     31938     31937     31939     31940     31941     31940     31942
     31943     31944     31943     31945     31946     31947     31946     31948
     31949     31950     31949     31951     31952     31953     31952     31954
     31955     31956     31955     31957     31958     31959     31958     31960
     31961     31962     31961     31963     31964     31965     31964     31966
     31967     31968     31967     31969     31970     31971     31970     31972
     31973     31974     31973     31975     31976     31977     31976     31978
     31979     31980     31979     31981     31982     31983     31982     31984
     31985     31986     31985     31987     31988     31989     31988     31990
     31991     31992     31991     31993     31994     31995     31994     31996
     31997     31998     31997     31999     32000     32001     32000     32002
     32003     32004     32003     32005     32006     32007     32006     32008
     32009     32010     32009     32011     32012     32013     32012     32014
     32015     32016     32015     32017     32018     32019     32018     32020
     32021     32022     32021     32023     32024     32025     32024     32026
     32027     32028     32027     32029     32030     32031     32030     32032
     32033     32034     32033     32035     32036     32037     32036     32038
     32039     32040     32039     32041     32042     32043     32042     32044
     32045     32046     32045     32047     32048     32049     32048     32050
     32051     32052     32051     32053     32054     32055     32054     32056
     32057     32058     32057     32059     32060     32061     32060     32062
     32063     32064     32063     32065     32066     32067     32066     32068
     32069     32070     32069     32071     32072     32073     32072     32074
     32075     32076     32075     32077     32078     32079     32078     32080
     32081     32082     32081     32083     32084     32085     32084     32086
     32087     32088     32087     32089     32090     32091     32090     32092
     32093     32094     32093     32095     32096     32097     32096     32098
     32099     32100     32099     32101     32102     32103     32102     32104
     32105     32106     32105     32107     32108     32109     32108     32110
     32111     32112     32111     32113     32114     32115     32114     32116
     32117     32118     32117     32119     32120     32121     32120     32122
     32123     32124     32123     32125     32126     32127     32126     32128
     32129     32130     32129     32131     32132     32133     32132     32134
     32135     32136     32135     32137     32138     32139     32138     32140
     32141     32142     32141     32143     32144     32145     32144     32146
     32147     32148     32147     32149     32150     32151     32150     32152
     32153     32154     32153     32155     32156     32157     32156     32158
     32159     32160     32159     32161     32162     32163     32162     32164
     32165     32166     32165     32167     32168     32169     32168     32170
     32171     32172     32171     32173     32174     32175     32174     32176
     32177     32178     32177     32179     32180     32181     32180     32182
     32183     32184     32183     32185     32186     32187     32186     32188
     32189     32190     32189     32191     32192     32193     32192     32194
     32195     32196     32195     32197     32198     32199     32198     32200
     32201     32202     32201     32203     32204     32205     32204     32206
     32207     32208     32207     32209     32210     32211     32210     32212
     32213     32214     32213     32215     32216     32217     32216     32218
     32219     32220     32219     32221     32222     32223     32222     32224
     32225     32226     32225     32227     32228     32229     32228     32230
     32231     32232     32231     32233     32234     32235     32234     32236
     32237     32238     32237     32239     32240     32241     32240     32242
     32243     32244     32243     32245     32246     32247     32246     32248
     32249     32250     32249     32251     32252     32253     32252     32254
     32255     32256     32255     32257     32258     32259     32258     32260
     32261     32262     32261     32263     32264     32265     32264     32266
     32267     32268     32267     32269     32270     32271     32270     32272
     32273     32274     32273     32275     32276     32277     32276     32278
     32279     32280     32279     32281     32282     32283     32282     32284
     32285     32286     32285     32287     32288     32289     32288     32290
     32291     32292     32291     32293     32294     32295     32294     32296
     32297     32298     32297     32299     32300     32301     32300     32302
     32303     32304     32303     32305     32306     32307     32306     32308
     32309     32310     32309     32311     32312     32313     32312     32314
     32315     32316     32315     32317     32318     32319     32318     32320
     32321     32322     32321     32323     32324     32325     32324     32326
     32327     32328     32327     32329     32330     32331     32330     32332
     32333     32334     32333     32335     32336     32337     32336     32338
     32339     32340     32339     32341     32342     32343     32342     32344
     32345     32346     32345     32347     32348     32349     32348     32350
     32351     32352     32351     32353     32354     32355     32354     32356
     32357     32358     32357     32359     32360     32361     32360     32362
     32363     32364     32363     32365     32366     32367     32366     32368
     32369     32370     32369     32371     32372     32373     32372     32374
     32375     32376     32375     32377     32378     32379     32378     32380
     32381     32382     32381     32383     32384     32385     32384     32386
     32387     32388     32387     32389     32390     32391     32390     32392
     32393     32394     32393     32395     32396     32397     32396     32398
     32399     32400     32399     32401     32402     32403     32402     32404
     32405     32406     32405     32407     32408     32409     32408     32410
     32411     32412     32411     32413     32414     32415     32414     32416
     32417     32418     32417     32419     32420     32421     32420     32422
     32423     32424     32423     32425     32426     32427     32426     32428
     32429     32430     32429     32431     32432     32433     32432     32434
     32435     32436     32435     32437     32438     32439     32438     32440
     32441     32442     32441     32443     32444     32445     32444     32446
     32447     32448     32447     32449     32450     32451     32450     32452
     32453     32454     32453     32455     32456     32457     32456     32458
     32459     32460     32459     32461     32462     32463     32462     32464
     32465     32466     32465     32467     32468     32469     32468     32470
     32471     32472     32471     32473     32474     32475     32474     32476
     32477     32478     32477     32479     32480     32481     32480     32482
     32483     32484     32483     32485     32486     32487     32486     32488
     32489     32490     32489     32491     32492     32493     32492     32494
     32495     32496     32495     32497     32498     32499     32498     32500
     32501     32502     32501     32503     32504     32505     32504     32506
     32507     32508     32507     32509     32510     32511     32510     32512
     32513     32514     32513     32515     32516     32517     32516     32518
     32519     32520     32519     32521     32522     32523     32522     32524
     32525     32526     32525     32527     32528     32529     32528     32530
     32531     32532     32531     32533     32534     32535     32534     32536
     32537     32538     32537     32539     32540     32541     32540     32542
     32543     32544     32543     32545     32546     32547     32546     32548
     32549     32550     32549     32551     32552     32553     32552     32554
     32555     32556     32555     32557     32558     32559     32558     32560
     32561     32562     32561     32563     32564     32565     32564     32566
     32567     32568     32567     32569     32570     32571     32570     32572
     32573     32574     32573     32575     32576     32577     32576     32578
     32579     32580     32579     32581     32582     32583     32582     32584
     32585     32586     32585     32587     32588     32589     32588     32590
     32591     32592     32591     32593     32594     32595     32594     32596
     32597     32598     32597     32599     32600     32601     32600     32602
     32603     32604     32603     32605     32606     32607     32606     32608
     32609     32610     32609     32611     32612     32613     32612     32614
     32615     32616     32615     32617     32618     32619     32618     32620
     32621     32622     32621     32623     32624     32625     32624     32626
     32627     32628     32627     32629     32630     32631     32630     32632
     32633     32634     32633     32635     32636     32637     32636     32638
     32639     32640     32639     32641     32642     32643     32642     32644
     32645     32646     32645     32647     32648     32649     32648     32650
     32651     32652     32651     32653     32654     32655     32654     32656
     32657     32658     32657     32659     32660     32661     32660     32662
     32663     32664     32663     32665     32666     32667     32666     32668
     32669     32670     32669     32671     32672     32673     32672     32674
     32675     32676     32675     32677     32678     32679     32678     32680
     32681     32682     32681     32683     32684     32685     32684     32686
     32687     32688     32687     32689     32690     32691     32690     32692
     32693     32694     32693     32695     32696     32697     32696     32698
     32699     32700     32699     32701     32702     32703     32702     32704
     32705     32706     32705     32707     32708     32709     32708     32710
     32711     32712     32711     32713     32714     32715     32714     32716
     32717     32718     32717     32719     32720     32721     32720     32722
     32723     32724     32723     32725     32726     32727     32726     32728
     32729     32730     32729     32731     32732     32733     32732     32734
     32735     32736     32735     32737     32738     32739     32738     32740
     32741     32742     32741     32743     32744     32745     32744     32746
     32747     32748     32747     32749     32750     32751     32750     32752
     32753     32754     32753     32755     32756     32757     32756     32758
     32759     32760     32759     32761     32762     32763     32762     32764
     32765     32766     32765     32767     32768     32769     32768     32770
     32771     32772     32771     32773     32774     32775     32774     32776
     32777     32778     32777     32779     32780     32781     32780     32782
     32783     32784     32783     32785     32786     32787     32786     32788
     32789     32790     32789     32791     32792     32793     32792     32794
     32795     32796     32795     32797     32798     32799     32798     32800
     32801     32802     32801     32803     32804     32805     32804     32806
     32807     32808     32807     32809     32810     32811     32810     32812
     32813     32814     32813     32815     32816     32817     32816     32818
     32819     32820     32819     32821     32822     32823     32822     32824
     32825     32826     32825     32827     32828     32829     32828     32830
     32831     32832     32831     32833     32834     32835     32834     32836
     32837     32838     32837     32839     32840     32841     32840     32842
     32843     32844     32843     32845     32846     32847     32846     32848
     32849     32850     32849     32851     32852     32853     32852     32854
     32855     32856     32855     32857     32858     32859     32858     32860
     32861     32862     32861     32863     32864     32865     32864     32866
     32867     32868     32867     32869     32870     32871     32870     32872
     32873     32874     32873     32875     32876     32877     32876     32878
     32879     32880     32879     32881     32882     32883     32882     32884
     32885     32886     32885     32887     32888     32889     32888     32890
     32891     32892     32891     32893     32894     32895     32894     32896
     32897     32898     32897     32899     32900     32901     32900     32902
     32903     32904     32903     32905     32906     32907     32906     32908
     32909     32910     32909     32911     32912     32913     32912     32914
     32915     32916     32915     32917     32918     32919     32918     32920
     32921     32922     32921     32923     32924     32925     32924     32926
     32927     32928     32927     32929     32930     32931     32930     32932
     32933     32934     32933     32935     32936     32937     32936     32938
     32939     32940     32939     32941     32942     32943     32942     32944
     32945     32946     32945     32947     32948     32949     32948     32950
     32951     32952     32951     32953     32954     32955     32954     32956
     32957     32958     32957     32959     32960     32961     32960     32962
     32963     32964     32963     32965     32966     32967     32966     32968
     32969     32970     32969     32971     32972     32973     32972     32974
     32975     32976     32975     32977     32978     32979     32978     32980
     32981     32982     32981     32983     32984     32985     32984     32986
     32987     32988     32987     32989     32990     32991     32990     32992
     32993     32994     32993     32995     32996     32997     32996     32998
     32999     33000     32999     33001     33002     33003     33002     33004
     33005     33006     33005     33007     33008     33009     33008     33010
     33011     33012     33011     33013     33014     33015     33014     33016
     33017     33018     33017     33019     33020     33021     33020     33022
     33023     33024     33023     33025     33026     33027     33026     33028
     33029     33030     33029     33031     33032     33033     33032     33034
     33035     33036     33035     33037     33038     33039     33038     33040
     33041     33042     33041     33043     33044     33045     33044     33046
     33047     33048     33047     33049     33050     33051     33050     33052
     33053     33054     33053     33055     33056     33057     33056     33058
     33059     33060     33059     33061     33062     33063     33062     33064
     33065     33066     33065     33067     33068     33069     33068     33070
     33071     33072     33071     33073     33074     33075     33074     33076
     33077     33078     33077     33079     33080     33081     33080     33082
     33083     33084     33083     33085     33086     33087     33086     33088
     33089     33090     33089     33091     33092     33093     33092     33094
     33095     33096     33095     33097     33098     33099     33098     33100
     33101     33102     33101     33103     33104     33105     33104     33106
     33107     33108     33107     33109     33110     33111     33110     33112
     33113     33114     33113     33115     33116     33117     33116     33118
     33119     33120     33119     33121     33122     33123     33122     33124
     33125     33126     33125     33127     33128     33129     33128     33130
     33131     33132     33131     33133     33134     33135     33134     33136
     33137     33138     33137     33139     33140     33141     33140     33142
     33143     33144     33143     33145     33146     33147     33146     33148
     33149     33150     33149     33151     33152     33153     33152     33154
     33155     33156     33155     33157     33158     33159     33158     33160
     33161     33162     33161     33163     33164     33165     33164     33166
     33167     33168     33167     33169     33170     33171     33170     33172
     33173     33174     33173     33175     33176     33177     33176     33178
     33179     33180     33179     33181     33182     33183     33182     33184
     33185     33186     33185     33187     33188     33189     33188     33190
     33191     33192     33191     33193     33194     33195     33194     33196
     33197     33198     33197     33199     33200     33201     33200     33202
     33203     33204     33203     33205     33206     33207     33206     33208
     33209     33210     33209     33211     33212     33213     33212     33214
     33215     33216     33215     33217     33218     33219     33218     33220
     33221     33222     33221     33223     33224     33225     33224     33226
     33227     33228     33227     33229     33230     33231     33230     33232
     33233     33234     33233     33235     33236     33237     33236     33238
     33239     33240     33239     33241     33242     33243     33242     33244
     33245     33246     33245     33247     33248     33249     33248     33250
     33251     33252     33251     33253     33254     33255     33254     33256
     33257     33258     33257     33259     33260     33261     33260     33262
     33263     33264     33263     33265     33266     33267     33266     33268
     33269     33270     33269     33271     33272     33273     33272     33274
     33275     33276     33275     33277     33278     33279     33278     33280
     33281     33282     33281     33283     33284     33285     33284     33286
     33287     33288     33287     33289     33290     33291     33290     33292
     33293     33294     33293     33295     33296     33297     33296     33298
     33299     33300     33299     33301     33302     33303     33302     33304
     33305     33306     33305     33307     33308     33309     33308     33310
     33311     33312     33311     33313     33314     33315     33314     33316
     33317     33318     33317     33319     33320     33321     33320     33322
     33323     33324     33323     33325     33326     33327     33326     33328
     33329     33330     33329     33331     33332     33333     33332     33334
     33335     33336     33335     33337     33338     33339     33338     33340
     33341     33342     33341     33343     33344     33345     33344     33346
     33347     33348     33347     33349     33350     33351     33350     33352
     33353     33354     33353     33355     33356     33357     33356     33358
     33359     33360     33359     33361     33362     33363     33362     33364
     33365     33366     33365     33367     33368     33369     33368     33370
     33371     33372     33371     33373     33374     33375     33374     33376
     33377     33378     33377     33379     33380     33381     33380     33382
     33383     33384     33383     33385     33386     33387     33386     33388
     33389     33390     33389     33391     33392     33393     33392     33394
     33395     33396     33395     33397     33398     33399     33398     33400
     33401     33402     33401     33403     33404     33405     33404     33406
     33407     33408     33407     33409     33410     33411     33410     33412
     33413     33414     33413     33415     33416     33417     33416     33418
     33419     33420     33419     33421     33422     33423     33422     33424
     33425     33426     33425     33427     33428     33429     33428     33430
     33431     33432     33431     33433     33434     33435     33434     33436
     33437     33438     33437     33439     33440     33441     33440     33442
     33443     33444     33443     33445     33446     33447     33446     33448
     33449     33450     33449     33451     33452     33453     33452     33454
     33455     33456     33455     33457     33458     33459     33458     33460
     33461     33462     33461     33463     33464     33465     33464     33466
     33467     33468     33467     33469     33470     33471     33470     33472
     33473     33474     33473     33475     33476     33477     33476     33478
     33479     33480     33479     33481     33482     33483     33482     33484
     33485     33486     33485     33487     33488     33489     33488     33490
     33491     33492     33491     33493     33494     33495     33494     33496
     33497     33498     33497     33499     33500     33501     33500     33502
     33503     33504     33503     33505     33506     33507     33506     33508
     33509     33510     33509     33511     33512     33513     33512     33514
     33515     33516     33515     33517     33518     33519     33518     33520
     33521     33522     33521     33523     33524     33525     33524     33526
     33527     33528     33527     33529     33530     33531     33530     33532
     33533     33534     33533     33535     33536     33537     33536     33538
     33539     33540     33539     33541     33542     33543     33542     33544
     33545     33546     33545     33547     33548     33549     33548     33550
     33551     33552     33551     33553     33554     33555     33554     33556
     33557     33558     33557     33559     33560     33561     33560     33562
     33563     33564     33563     33565     33566     33567     33566     33568
     33569     33570     33569     33571     33572     33573     33572     33574
     33575     33576     33575     33577     33578     33579     33578     33580
     33581     33582     33581     33583     33584     33585     33584     33586
     33587     33588     33587     33589     33590     33591     33590     33592
     33593     33594     33593     33595     33596     33597     33596     33598
     33599     33600     33599     33601     33602     33603     33602     33604
     33605     33606     33605     33607     33608     33609     33608     33610
     33611     33612     33611     33613     33614     33615     33614     33616
     33617     33618     33617     33619     33620     33621     33620     33622
     33623     33624     33623     33625     33626     33627     33626     33628
     33629     33630     33629     33631     33632     33633     33632     33634
     33635     33636     33635     33637     33638     33639     33638     33640
     33641     33642     33641     33643     33644     33645     33644     33646
     33647     33648     33647     33649     33650     33651     33650     33652
     33653     33654     33653     33655     33656     33657     33656     33658
     33659     33660     33659     33661     33662     33663     33662     33664
     33665     33666     33665     33667     33668     33669     33668     33670
     33671     33672     33671     33673     33674     33675     33674     33676
     33677     33678     33677     33679     33680     33681     33680     33682
     33683     33684     33683     33685     33686     33687     33686     33688
     33689     33690     33689     33691     33692     33693     33692     33694
     33695     33696     33695     33697     33698     33699     33698     33700
     33701     33702     33701     33703     33704     33705     33704     33706
     33707     33708     33707     33709     33710     33711     33710     33712
     33713     33714     33713     33715     33716     33717     33716     33718
     33719     33720     33719     33721     33722     33723     33722     33724
     33725     33726     33725     33727     33728     33729     33728     33730
     33731     33732     33731     33733     33734     33735     33734     33736
     33737     33738     33737     33739     33740     33741     33740     33742
     33743     33744     33743     33745     33746     33747     33746     33748
     33749     33750     33749     33751     33752     33753     33752     33754
     33755     33756     33755     33757     33758     33759     33758     33760
     33761     33762     33761     33763     33764     33765     33764     33766
     33767     33768     33767     33769     33770     33771     33770     33772
     33773     33774     33773     33775     33776     33777     33776     33778
     33779     33780     33779     33781     33782     33783     33782     33784
     33785     33786     33785     33787     33788     33789     33788     33790
     33791     33792     33791     33793     33794     33795     33794     33796
     33797     33798     33797     33799     33800     33801     33800     33802
     33803     33804     33803     33805     33806     33807     33806     33808
     33809     33810     33809     33811     33812     33813     33812     33814
     33815     33816     33815     33817     33818     33819     33818     33820
     33821     33822     33821     33823     33824     33825     33824     33826
     33827     33828     33827     33829     33830     33831     33830     33832
     33833     33834     33833     33835     33836     33837     33836     33838
     33839     33840     33839     33841     33842     33843     33842     33844
     33845     33846     33845     33847     33848     33849     33848     33850
     33851     33852     33851     33853     33854     33855     33854     33856
     33857     33858     33857     33859     33860     33861     33860     33862
     33863     33864     33863     33865     33866     33867     33866     33868
     33869     33870     33869     33871     33872     33873     33872     33874
     33875     33876     33875     33877     33878     33879     33878     33880
     33881     33882     33881     33883     33884     33885     33884     33886
     33887     33888     33887     33889     33890     33891     33890     33892
     33893     33894     33893     33895     33896     33897     33896     33898
     33899     33900     33899     33901     33902     33903     33902     33904
     33905     33906     33905     33907     33908     33909     33908     33910
     33911     33912     33911     33913     33914     33915     33914     33916
     33917     33918     33917     33919     33920     33921     33920     33922
     33923     33924     33923     33925     33926     33927     33926     33928
     33929     33930     33929     33931     33932     33933     33932     33934
     33935     33936     33935     33937     33938     33939     33938     33940
     33941     33942     33941     33943     33944     33945     33944     33946
     33947     33948     33947     33949     33950     33951     33950     33952
     33953     33954     33953     33955     33956     33957     33956     33958
     33959     33960     33959     33961     33962     33963     33962     33964
     33965     33966     33965     33967     33968     33969     33968     33970
     33971     33972     33971     33973     33974     33975     33974     33976
     33977     33978     33977     33979     33980     33981     33980     33982
     33983     33984     33983     33985     33986     33987     33986     33988
     33989     33990     33989     33991     33992     33993     33992     33994
     33995     33996     33995     33997     33998     33999     33998     34000
     34001     34002     34001     34003     34004     34005     34004     34006
     34007     34008     34007     34009     34010     34011     34010     34012
     34013     34014     34013     34015     34016     34017     34016     34018
     34019     34020     34019     34021     34022     34023     34022     34024
     34025     34026     34025     34027     34028     34029     34028     34030
     34031     34032     34031     34033     34034     34035     34034     34036
     34037     34038     34037     34039     34040     34041     34040     34042
     34043     34044     34043     34045     34046     34047     34046     34048
     34049     34050     34049     34051     34052     34053     34052     34054
     34055     34056     34055     34057     34058     34059     34058     34060
     34061     34062     34061     34063     34064     34065     34064     34066
     34067     34068     34067     34069     34070     34071     34070     34072
     34073     34074     34073     34075     34076     34077     34076     34078
     34079     34080     34079     34081     34082     34083     34082     34084
     34085     34086     34085     34087     34088     34089     34088     34090
     34091     34092     34091     34093     34094     34095     34094     34096
     34097     34098     34097     34099     34100     34101     34100     34102
     34103     34104     34103     34105     34106     34107     34106     34108
     34109     34110     34109     34111     34112     34113     34112     34114
     34115     34116     34115     34117     34118     34119     34118     34120
     34121     34122     34121     34123     34124     34125     34124     34126
     34127     34128     34127     34129     34130     34131     34130     34132
     34133     34134     34133     34135     34136     34137     34136     34138
     34139     34140     34139     34141     34142     34143     34142     34144
     34145     34146     34145     34147     34148     34149     34148     34150
     34151     34152     34151     34153     34154     34155     34154     34156
     34157     34158     34157     34159     34160     34161     34160     34162
     34163     34164     34163     34165     34166     34167     34166     34168
     34169     34170     34169     34171     34172     34173     34172     34174
     34175     34176     34175     34177     34178     34179     34178     34180
     34181     34182     34181     34183     34184     34185     34184     34186
     34187     34188     34187     34189     34190     34191     34190     34192
     34193     34194     34193     34195     34196     34197     34196     34198
     34199     34200     34199     34201     34202     34203     34202     34204
     34205     34206     34205     34207     34208     34209     34208     34210
     34211     34212     34211     34213     34214     34215     34214     34216
     34217     34218     34217     34219     34220     34221     34220     34222
     34223     34224     34223     34225     34226     34227     34226     34228
     34229     34230     34229     34231     34232     34233     34232     34234
     34235     34236     34235     34237     34238     34239     34238     34240
     34241     34242     34241     34243     34244     34245     34244     34246
     34247     34248     34247     34249     34250     34251     34250     34252
     34253     34254     34253     34255     34256     34257     34256     34258
     34259     34260     34259     34261     34262     34263     34262     34264
     34265     34266     34265     34267     34268     34269     34268     34270
     34271     34272     34271     34273     34274     34275     34274     34276
     34277     34278     34277     34279     34280     34281     34280     34282
     34283     34284     34283     34285     34286     34287     34286     34288
     34289     34290     34289     34291     34292     34293     34292     34294
     34295     34296     34295     34297     34298     34299     34298     34300
     34301     34302     34301     34303     34304     34305     34304     34306
     34307     34308     34307     34309     34310     34311     34310     34312
     34313     34314     34313     34315     34316     34317     34316     34318
     34319     34320     34319     34321     34322     34323     34322     34324
     34325     34326     34325     34327     34328     34329     34328     34330
     34331     34332     34331     34333     34334     34335     34334     34336
     34337     34338     34337     34339     34340     34341     34340     34342
     34343     34344     34343     34345     34346     34347     34346     34348
     34349     34350     34349     34351     34352     34353     34352     34354
     34355     34356     34355     34357     34358     34359     34358     34360
     34361     34362     34361     34363     34364     34365     34364     34366
     34367     34368     34367     34369     34370     34371     34370     34372
     34373     34374     34373     34375     34376     34377     34376     34378
     34379     34380     34379     34381     34382     34383     34382     34384
     34385     34386     34385     34387     34388     34389     34388     34390
     34391     34392     34391     34393     34394     34395     34394     34396
     34397     34398     34397     34399     34400     34401     34400     34402
     34403     34404     34403     34405     34406     34407     34406     34408
     34409     34410     34409     34411     34412     34413     34412     34414
     34415     34416     34415     34417     34418     34419     34418     34420
     34421     34422     34421     34423     34424     34425     34424     34426
     34427     34428     34427     34429     34430     34431     34430     34432
     34433     34434     34433     34435     34436     34437     34436     34438
     34439     34440     34439     34441     34442     34443     34442     34444
     34445     34446     34445     34447     34448     34449     34448     34450
     34451     34452     34451     34453     34454     34455     34454     34456
     34457     34458     34457     34459     34460     34461     34460     34462
     34463     34464     34463     34465     34466     34467     34466     34468
     34469     34470     34469     34471     34472     34473     34472     34474
     34475     34476     34475     34477     34478     34479     34478     34480
     34481     34482     34481     34483     34484     34485     34484     34486
     34487     34488     34487     34489     34490     34491     34490     34492
     34493     34494     34493     34495     34496     34497     34496     34498
     34499     34500     34499     34501     34502     34503     34502     34504
     34505     34506     34505     34507     34508     34509     34508     34510
     34511     34512     34511     34513     34514     34515     34514     34516
     34517     34518     34517     34519     34520     34521     34520     34522
     34523     34524     34523     34525     34526     34527     34526     34528
     34529     34530     34529     34531     34532     34533     34532     34534
     34535     34536     34535     34537     34538     34539     34538     34540
     34541     34542     34541     34543     34544     34545     34544     34546
     34547     34548     34547     34549     34550     34551     34550     34552
     34553     34554     34553     34555     34556     34557     34556     34558
     34559     34560     34559     34561     34562     34563     34562     34564
     34565     34566     34565     34567     34568     34569     34568     34570
     34571     34572     34571     34573     34574     34575     34574     34576
     34577     34578     34577     34579     34580     34581     34580     34582
     34583     34584     34583     34585     34586     34587     34586     34588
     34589     34590     34589     34591     34592     34593     34592     34594
     34595     34596     34595     34597     34598     34599     34598     34600
     34601     34602     34601     34603     34604     34605     34604     34606
     34607     34608     34607     34609     34610     34611     34610     34612
     34613     34614     34613     34615     34616     34617     34616     34618
     34619     34620     34619     34621     34622     34623     34622     34624
     34625     34626     34625     34627     34628     34629     34628     34630
     34631     34632     34631     34633     34634     34635     34634     34636
     34637     34638     34637     34639     34640     34641     34640     34642
     34643     34644     34643     34645     34646     34647     34646     34648
     34649     34650     34649     34651     34652     34653     34652     34654
     34655     34656     34655     34657     34658     34659     34658     34660
     34661     34662     34661     34663     34664     34665     34664     34666
     34667     34668     34667     34669     34670     34671     34670     34672
     34673     34674     34673     34675     34676     34677     34676     34678
     34679     34680     34679     34681     34682     34683     34682     34684
     34685     34686     34685     34687     34688     34689     34688     34690
     34691     34692     34691     34693     34694     34695     34694     34696
     34697     34698     34697     34699     34700     34701     34700     34702
     34703     34704     34703     34705     34706     34707     34706     34708
     34709     34710     34709     34711     34712     34713     34712     34714
     34715     34716     34715     34717     34718     34719     34718     34720
     34721     34722     34721     34723     34724     34725     34724     34726
     34727     34728     34727     34729     34730     34731     34730     34732
     34733     34734     34733     34735     34736     34737     34736     34738
     34739     34740     34739     34741     34742     34743     34742     34744
     34745     34746     34745     34747     34748     34749     34748     34750
     34751     34752     34751     34753     34754     34755     34754     34756
     34757     34758     34757     34759     34760     34761     34760     34762
     34763     34764     34763     34765     34766     34767     34766     34768
     34769     34770     34769     34771     34772     34773     34772     34774
     34775     34776     34775     34777     34778     34779     34778     34780
     34781     34782     34781     34783     34784     34785     34784     34786
     34787     34788     34787     34789     34790     34791     34790     34792
     34793     34794     34793     34795     34796     34797     34796     34798
     34799     34800     34799     34801     34802     34803     34802     34804
     34805     34806     34805     34807     34808     34809     34808     34810
     34811     34812     34811     34813     34814     34815     34814     34816
     34817     34818     34817     34819     34820     34821     34820     34822
     34823     34824     34823     34825     34826     34827     34826     34828
     34829     34830     34829     34831     34832     34833     34832     34834
     34835     34836     34835     34837     34838     34839     34838     34840
     34841     34842     34841     34843     34844     34845     34844     34846
     34847     34848     34847     34849     34850     34851     34850     34852
     34853     34854     34853     34855     34856     34857     34856     34858
     34859     34860     34859     34861     34862     34863     34862     34864
     34865     34866     34865     34867     34868     34869     34868     34870
     34871     34872     34871     34873     34874     34875     34874     34876
     34877     34878     34877     34879     34880     34881     34880     34882
     34883     34884     34883     34885     34886     34887     34886     34888
     34889     34890     34889     34891     34892     34893     34892     34894
     34895     34896     34895     34897     34898     34899     34898     34900
     34901     34902     34901     34903     34904     34905     34904     34906
     34907     34908     34907     34909     34910     34911     34910     34912
     34913     34914     34913     34915     34916     34917     34916     34918
     34919     34920     34919     34921     34922     34923     34922     34924
     34925     34926     34925     34927     34928     34929     34928     34930
     34931     34932     34931     34933     34934     34935     34934     34936
     34937     34938     34937     34939     34940     34941     34940     34942
     34943     34944     34943     34945     34946     34947     34946     34948
     34949     34950     34949     34951     34952     34953     34952     34954
     34955     34956     34955     34957     34958     34959     34958     34960
     34961     34962     34961     34963     34964     34965     34964     34966
     34967     34968     34967     34969     34970     34971     34970     34972
     34973     34974     34973     34975     34976     34977     34976     34978
     34979     34980     34979     34981     34982     34983     34982     34984
     34985     34986     34985     34987     34988     34989     34988     34990
     34991     34992     34991     34993     34994     34995     34994     34996
     34997     34998     34997     34999     35000     35001     35000     35002
     35003     35004     35003     35005     35006     35007     35006     35008
     35009     35010     35009     35011     35012     35013     35012     35014
     35015     35016     35015     35017     35018     35019     35018     35020
     35021     35022     35021     35023     35024     35025     35024     35026
     35027     35028     35027     35029     35030     35031     35030     35032
     35033     35034     35033     35035     35036     35037     35036     35038
     35039     35040     35039     35041     35042     35043     35042     35044
     35045     35046     35045     35047     35048     35049     35048     35050
     35051     35052     35051     35053     35054     35055     35054     35056
     35057     35058     35057     35059     35060     35061     35060     35062
     35063     35064     35063     35065     35066     35067     35066     35068
     35069     35070     35069     35071     35072     35073     35072     35074
     35075     35076     35075     35077     35078     35079     35078     35080
     35081     35082     35081     35083     35084     35085     35084     35086
     35087     35088     35087     35089     35090     35091     35090     35092
     35093     35094     35093     35095     35096     35097     35096     35098
     35099     35100     35099     35101     35102     35103     35102     35104
     35105     35106     35105     35107     35108     35109     35108     35110
     35111     35112     35111     35113     35114     35115     35114     35116
     35117     35118     35117     35119     35120     35121     35120     35122
     35123     35124     35123     35125     35126     35127     35126     35128
     35129     35130     35129     35131     35132     35133     35132     35134
     35135     35136     35135     35137     35138     35139     35138     35140
     35141     35142     35141     35143     35144     35145     35144     35146
     35147     35148     35147     35149     35150     35151     35150     35152
     35153     35154     35153     35155     35156     35157     35156     35158
     35159     35160     35159     35161     35162     35163     35162     35164
     35165     35166     35165     35167     35168     35169     35168     35170
     35171     35172     35171     35173     35174     35175     35174     35176
     35177     35178     35177     35179     35180     35181     35180     35182
     35183     35184     35183     35185     35186     35187     35186     35188
     35189     35190     35189     35191     35192     35193     35192     35194
     35195     35196     35195     35197     35198     35199     35198     35200
     35201     35202     35201     35203     35204     35205     35204     35206
     35207     35208     35207     35209     35210     35211     35210     35212
     35213     35214     35213     35215     35216     35217     35216     35218
     35219     35220     35219     35221     35222     35223     35222     35224
     35225     35226     35225     35227     35228     35229     35228     35230
     35231     35232     35231     35233     35234     35235     35234     35236
     35237     35238     35237     35239     35240     35241     35240     35242
     35243     35244     35243     35245     35246     35247     35246     35248
     35249     35250     35249     35251     35252     35253     35252     35254
     35255     35256     35255     35257     35258     35259     35258     35260
     35261     35262     35261     35263     35264     35265     35264     35266
     35267     35268     35267     35269     35270     35271     35270     35272
     35273     35274     35273     35275     35276     35277     35276     35278
     35279     35280     35279     35281     35282     35283     35282     35284
     35285     35286     35285     35287     35288     35289     35288     35290
     35291     35292     35291     35293     35294     35295     35294     35296
     35297     35298     35297     35299     35300     35301     35300     35302
     35303     35304     35303     35305     35306     35307     35306     35308
     35309     35310     35309     35311     35312     35313     35312     35314
     35315     35316     35315     35317     35318     35319     35318     35320
     35321     35322     35321     35323     35324     35325     35324     35326
     35327     35328     35327     35329     35330     35331     35330     35332
     35333     35334     35333     35335     35336     35337     35336     35338
     35339     35340     35339     35341     35342     35343     35342     35344
     35345     35346     35345     35347     35348     35349     35348     35350
     35351     35352     35351     35353     35354     35355     35354     35356
     35357     35358     35357     35359     35360     35361     35360     35362
     35363     35364     35363     35365     35366     35367     35366     35368
     35369     35370     35369     35371     35372     35373     35372     35374
     35375     35376     35375     35377     35378     35379     35378     35380
     35381     35382     35381     35383     35384     35385     35384     35386
     35387     35388     35387     35389     35390     35391     35390     35392
     35393     35394     35393     35395     35396     35397     35396     35398
     35399     35400     35399     35401     35402     35403     35402     35404
     35405     35406     35405     35407     35408     35409     35408     35410
     35411     35412     35411     35413     35414     35415     35414     35416
     35417     35418     35417     35419     35420     35421     35420     35422
     35423     35424     35423     35425     35426     35427     35426     35428
     35429     35430     35429     35431     35432     35433     35432     35434
     35435     35436     35435     35437     35438     35439     35438     35440
     35441     35442     35441     35443     35444     35445     35444     35446
     35447     35448     35447     35449     35450     35451     35450     35452
     35453     35454     35453     35455     35456     35457     35456     35458
     35459     35460     35459     35461     35462     35463     35462     35464
     35465     35466     35465     35467     35468     35469     35468     35470
     35471     35472     35471     35473     35474     35475     35474     35476
     35477     35478     35477     35479     35480     35481     35480     35482
     35483     35484     35483     35485     35486     35487     35486     35488
     35489     35490     35489     35491     35492     35493     35492     35494
     35495     35496     35495     35497     35498     35499     35498     35500
     35501     35502     35501     35503     35504     35505     35504     35506
     35507     35508     35507     35509     35510     35511     35510     35512
     35513     35514     35513     35515     35516     35517     35516     35518
     35519     35520     35519     35521     35522     35523     35522     35524
     35525     35526     35525     35527     35528     35529     35528     35530
     35531     35532     35531     35533     35534     35535     35534     35536
     35537     35538     35537     35539     35540     35541     35540     35542
     35543     35544     35543     35545     35546     35547     35546     35548
     35549     35550     35549     35551     35552     35553     35552     35554
     35555     35556     35555     35557     35558     35559     35558     35560
     35561     35562     35561     35563     35564     35565     35564     35566
     35567     35568     35567     35569     35570     35571     35570     35572
     35573     35574     35573     35575     35576     35577     35576     35578
     35579     35580     35579     35581     35582     35583     35582     35584
     35585     35586     35585     35587     35588     35589     35588     35590
     35591     35592     35591     35593     35594     35595     35594     35596
     35597     35598     35597     35599     35600     35601     35600     35602
     35603     35604     35603     35605     35606     35607     35606     35608
     35609     35610     35609     35611     35612     35613     35612     35614
     35615     35616     35615     35617     35618     35619     35618     35620
     35621     35622     35621     35623     35624     35625     35624     35626
     35627     35628     35627     35629     35630     35631     35630     35632
     35633     35634     35633     35635     35636     35637     35636     35638
     35639     35640     35639     35641     35642     35643     35642     35644
     35645     35646     35645     35647     35648     35649     35648     35650
     35651     35652     35651     35653     35654     35655     35654     35656
     35657     35658     35657     35659     35660     35661     35660     35662
     35663     35664     35663     35665     35666     35667     35666     35668
     35669     35670     35669     35671     35672     35673     35672     35674
     35675     35676     35675     35677     35678     35679     35678     35680
     35681     35682     35681     35683     35684     35685     35684     35686
     35687     35688     35687     35689     35690     35691     35690     35692
     35693     35694     35693     35695     35696     35697     35696     35698
     35699     35700     35699     35701     35702     35703     35702     35704
     35705     35706     35705     35707     35708     35709     35708     35710
     35711     35712     35711     35713     35714     35715     35714     35716
     35717     35718     35717     35719     35720     35721     35720     35722
     35723     35724     35723     35725     35726     35727     35726     35728
     35729     35730     35729     35731     35732     35733     35732     35734
     35735     35736     35735     35737     35738     35739     35738     35740
     35741     35742     35741     35743     35744     35745     35744     35746
     35747     35748     35747     35749     35750     35751     35750     35752
     35753     35754     35753     35755     35756     35757     35756     35758
     35759     35760     35759     35761     35762     35763     35762     35764
     35765     35766     35765     35767     35768     35769     35768     35770
     35771     35772     35771     35773     35774     35775     35774     35776
     35777     35778     35777     35779     35780     35781     35780     35782
     35783     35784     35783     35785     35786     35787     35786     35788
     35789     35790     35789     35791     35792     35793     35792     35794
     35795     35796     35795     35797     35798     35799     35798     35800
     35801     35802     35801     35803     35804     35805     35804     35806
     35807     35808     35807     35809     35810     35811     35810     35812
     35813     35814     35813     35815     35816     35817     35816     35818
     35819     35820     35819     35821     35822     35823     35822     35824
     35825     35826     35825     35827     35828     35829     35828     35830
     35831     35832     35831     35833     35834     35835     35834     35836
     35837     35838     35837     35839     35840     35841     35840     35842
     35843     35844     35843     35845     35846     35847     35846     35848
     35849     35850     35849     35851     35852     35853     35852     35854
     35855     35856     35855     35857     35858     35859     35858     35860
     35861     35862     35861     35863     35864     35865     35864     35866
     35867     35868     35867     35869     35870     35871     35870     35872
     35873     35874     35873     35875     35876     35877     35876     35878
     35879     35880     35879     35881     35882     35883     35882     35884
     35885     35886     35885     35887     35888     35889     35888     35890
     35891     35892     35891     35893     35894     35895     35894     35896
     35897     35898     35897     35899     35900     35901     35900     35902
     35903     35904     35903     35905     35906     35907     35906     35908
     35909     35910     35909     35911     35912     35913     35912     35914
     35915     35916     35915     35917     35918     35919     35918     35920
     35921     35922     35921     35923     35924     35925     35924     35926
     35927     35928     35927     35929     35930     35931     35930     35932
     35933     35934     35933     35935     35936     35937     35936     35938
     35939     35940     35939     35941     35942     35943     35942     35944
     35945     35946     35945     35947     35948     35949     35948     35950
     35951     35952     35951     35953     35954     35955     35954     35956
     35957     35958     35957     35959     35960     35961     35960     35962
     35963     35964     35963     35965     35966     35967     35966     35968
     35969     35970     35969     35971     35972     35973     35972     35974
     35975     35976     35975     35977     35978     35979     35978     35980
     35981     35982     35981     35983     35984     35985     35984     35986
     35987     35988     35987     35989     35990     35991     35990     35992
     35993     35994     35993     35995     35996     35997     35996     35998
     35999     36000     35999     36001     36002     36003     36002     36004
     36005     36006     36005     36007     36008     36009     36008     36010
     36011     36012     36011     36013     36014     36015     36014     36016
     36017     36018     36017     36019     36020     36021     36020     36022
     36023     36024     36023     36025     36026     36027     36026     36028
     36029     36030     36029     36031     36032     36033     36032     36034
     36035     36036     36035     36037     36038     36039     36038     36040
     36041     36042     36041     36043     36044     36045     36044     36046
     36047     36048     36047     36049     36050     36051     36050     36052
     36053     36054     36053     36055     36056     36057     36056     36058
     36059     36060     36059     36061     36062     36063     36062     36064
     36065     36066     36065     36067     36068     36069     36068     36070
     36071     36072     36071     36073     36074     36075     36074     36076
     36077     36078     36077     36079     36080     36081     36080     36082
     36083     36084     36083     36085     36086     36087     36086     36088
     36089     36090     36089     36091     36092     36093     36092     36094
     36095     36096     36095     36097     36098     36099     36098     36100
     36101     36102     36101     36103     36104     36105     36104     36106
     36107     36108     36107     36109     36110     36111     36110     36112
     36113     36114     36113     36115     36116     36117     36116     36118
     36119     36120     36119     36121     36122     36123     36122     36124
     36125     36126     36125     36127     36128     36129     36128     36130
     36131     36132     36131     36133     36134     36135     36134     36136
     36137     36138     36137     36139     36140     36141     36140     36142
     36143     36144     36143     36145     36146     36147     36146     36148
     36149     36150     36149     36151     36152     36153     36152     36154
     36155     36156     36155     36157     36158     36159     36158     36160
     36161     36162     36161     36163     36164     36165     36164     36166
     36167     36168     36167     36169     36170     36171     36170     36172
     36173     36174     36173     36175     36176     36177     36176     36178
     36179     36180     36179     36181     36182     36183     36182     36184
     36185     36186     36185     36187     36188     36189     36188     36190
     36191     36192     36191     36193     36194     36195     36194     36196
     36197     36198     36197     36199     36200     36201     36200     36202
     36203     36204     36203     36205     36206     36207     36206     36208
     36209     36210     36209     36211     36212     36213     36212     36214
     36215     36216     36215     36217     36218     36219     36218     36220
     36221     36222     36221     36223     36224     36225     36224     36226
     36227     36228     36227     36229     36230     36231     36230     36232
     36233     36234     36233     36235     36236     36237     36236     36238
     36239     36240     36239     36241     36242     36243     36242     36244
     36245     36246     36245     36247     36248     36249     36248     36250
     36251     36252     36251     36253     36254     36255     36254     36256
     36257     36258     36257     36259     36260     36261     36260     36262
     36263     36264     36263     36265     36266     36267     36266     36268
     36269     36270     36269     36271     36272     36273     36272     36274
     36275     36276     36275     36277     36278     36279     36278     36280
     36281     36282     36281     36283     36284     36285     36284     36286
     36287     36288     36287     36289     36290     36291     36290     36292
     36293     36294     36293     36295     36296     36297     36296     36298
     36299     36300     36299     36301     36302     36303     36302     36304
     36305     36306     36305     36307     36308     36309     36308     36310
     36311     36312     36311     36313     36314     36315     36314     36316
     36317     36318     36317     36319     36320     36321     36320     36322
     36323     36324     36323     36325     36326     36327     36326     36328
     36329     36330     36329     36331     36332     36333     36332     36334
     36335     36336     36335     36337     36338     36339     36338     36340
     36341     36342     36341     36343     36344     36345     36344     36346
     36347     36348     36347     36349     36350     36351     36350     36352
     36353     36354     36353     36355     36356     36357     36356     36358
     36359     36360     36359     36361     36362     36363     36362     36364
     36365     36366     36365     36367     36368     36369     36368     36370
     36371     36372     36371     36373     36374     36375     36374     36376
     36377     36378     36377     36379     36380     36381     36380     36382
     36383     36384     36383     36385     36386     36387     36386     36388
     36389     36390     36389     36391     36392     36393     36392     36394
     36395     36396     36395     36397     36398     36399     36398     36400
     36401     36402     36401     36403     36404     36405     36404     36406
     36407     36408     36407     36409     36410     36411     36410     36412
     36413     36414     36413     36415     36416     36417     36416     36418
     36419     36420     36419     36421     36422     36423     36422     36424
     36425     36426     36425     36427     36428     36429     36428     36430
     36431     36432     36431     36433     36434     36435     36434     36436
     36437     36438     36437     36439     36440     36441     36440     36442
     36443     36444     36443     36445     36446     36447     36446     36448
     36449     36450     36449     36451     36452     36453     36452     36454
     36455     36456     36455     36457     36458     36459     36458     36460
     36461     36462     36461     36463     36464     36465     36464     36466
     36467     36468     36467     36469     36470     36471     36470     36472
     36473     36474     36473     36475     36476     36477     36476     36478
     36479     36480     36479     36481     36482     36483     36482     36484
     36485     36486     36485     36487     36488     36489     36488     36490
     36491     36492     36491     36493     36494     36495     36494     36496
     36497     36498     36497     36499     36500     36501     36500     36502
     36503     36504     36503     36505     36506     36507     36506     36508
     36509     36510     36509     36511     36512     36513     36512     36514
     36515     36516     36515     36517     36518     36519     36518     36520
     36521     36522     36521     36523     36524     36525     36524     36526
     36527     36528     36527     36529     36530     36531     36530     36532
     36533     36534     36533     36535     36536     36537     36536     36538
     36539     36540     36539     36541     36542     36543     36542     36544
     36545     36546     36545     36547     36548     36549     36548     36550
     36551     36552     36551     36553     36554     36555     36554     36556
     36557     36558     36557     36559     36560     36561     36560     36562
     36563     36564     36563     36565     36566     36567     36566     36568
     36569     36570     36569     36571     36572     36573     36572     36574
     36575     36576     36575     36577     36578     36579     36578     36580
     36581     36582     36581     36583     36584     36585     36584     36586
     36587     36588     36587     36589     36590     36591     36590     36592
     36593     36594     36593     36595     36596     36597     36596     36598
     36599     36600     36599     36601     36602     36603     36602     36604
     36605     36606     36605     36607     36608     36609     36608     36610
     36611     36612     36611     36613     36614     36615     36614     36616
     36617     36618     36617     36619     36620     36621     36620     36622
     36623     36624     36623     36625     36626     36627     36626     36628
     36629     36630     36629     36631     36632     36633     36632     36634
     36635     36636     36635     36637     36638     36639     36638     36640
     36641     36642     36641     36643     36644     36645     36644     36646
     36647     36648     36647     36649     36650     36651     36650     36652
     36653     36654     36653     36655     36656     36657     36656     36658
     36659     36660     36659     36661     36662     36663     36662     36664
     36665     36666     36665     36667     36668     36669     36668     36670
     36671     36672     36671     36673     36674     36675     36674     36676
     36677     36678     36677     36679     36680     36681     36680     36682
     36683     36684     36683     36685     36686     36687     36686     36688
     36689     36690     36689     36691     36692     36693     36692     36694
     36695     36696     36695     36697     36698     36699     36698     36700
     36701     36702     36701     36703     36704     36705     36704     36706
     36707     36708     36707     36709     36710     36711     36710     36712
     36713     36714     36713     36715     36716     36717     36716     36718
     36719     36720     36719     36721     36722     36723     36722     36724
     36725     36726     36725     36727     36728     36729     36728     36730
     36731     36732     36731     36733     36734     36735     36734     36736
     36737     36738     36737     36739     36740     36741     36740     36742
     36743     36744     36743     36745     36746     36747     36746     36748
     36749     36750     36749     36751     36752     36753     36752     36754
     36755     36756     36755     36757     36758     36759     36758     36760
     36761     36762     36761     36763     36764     36765     36764     36766
     36767     36768     36767     36769     36770     36771     36770     36772
     36773     36774     36773     36775     36776     36777     36776     36778
     36779     36780     36779     36781     36782     36783     36782     36784
     36785     36786     36785     36787     36788     36789     36788     36790
     36791     36792     36791     36793     36794     36795     36794     36796
     36797     36798     36797     36799     36800     36801     36800     36802
     36803     36804     36803     36805     36806     36807     36806     36808
     36809     36810     36809     36811     36812     36813     36812     36814
     36815     36816     36815     36817     36818     36819     36818     36820
     36821     36822     36821     36823     36824     36825     36824     36826
     36827     36828     36827     36829     36830     36831     36830     36832
     36833     36834     36833     36835     36836     36837     36836     36838
     36839     36840     36839     36841     36842     36843     36842     36844
     36845     36846     36845     36847     36848     36849     36848     36850
     36851     36852     36851     36853     36854     36855     36854     36856
     36857     36858     36857     36859     36860     36861     36860     36862
     36863     36864     36863     36865     36866     36867     36866     36868
     36869     36870     36869     36871     36872     36873     36872     36874
     36875     36876     36875     36877     36878     36879     36878     36880
     36881     36882     36881     36883     36884     36885     36884     36886
     36887     36888     36887     36889     36890     36891     36890     36892
     36893     36894     36893     36895     36896     36897     36896     36898
     36899     36900     36899     36901     36902     36903     36902     36904
     36905     36906     36905     36907     36908     36909     36908     36910
     36911     36912     36911     36913     36914     36915     36914     36916
     36917     36918     36917     36919     36920     36921     36920     36922
     36923     36924     36923     36925     36926     36927     36926     36928
     36929     36930     36929     36931     36932     36933     36932     36934
     36935     36936     36935     36937     36938     36939     36938     36940
     36941     36942     36941     36943     36944     36945     36944     36946
     36947     36948     36947     36949     36950     36951     36950     36952
     36953     36954     36953     36955     36956     36957     36956     36958
     36959     36960     36959     36961     36962     36963     36962     36964
     36965     36966     36965     36967     36968     36969     36968     36970
     36971     36972     36971     36973     36974     36975     36974     36976
     36977     36978     36977     36979     36980     36981     36980     36982
     36983     36984     36983     36985     36986     36987     36986     36988
     36989     36990     36989     36991     36992     36993     36992     36994
     36995     36996     36995     36997     36998     36999     36998     37000
     37001     37002     37001     37003     37004     37005     37004     37006
     37007     37008     37007     37009     37010     37011     37010     37012
     37013     37014     37013     37015     37016     37017     37016     37018
     37019     37020     37019     37021     37022     37023     37022     37024
     37025     37026     37025     37027     37028     37029     37028     37030
     37031     37032     37031     37033     37034     37035     37034     37036
     37037     37038     37037     37039     37040     37041     37040     37042
     37043     37044     37043     37045     37046     37047     37046     37048
     37049     37050     37049     37051     37052     37053     37052     37054
     37055     37056     37055     37057     37058     37059     37058     37060
     37061     37062     37061     37063     37064     37065     37064     37066
     37067     37068     37067     37069     37070     37071     37070     37072
     37073     37074     37073     37075     37076     37077     37076     37078
     37079     37080     37079     37081     37082     37083     37082     37084
     37085     37086     37085     37087     37088     37089     37088     37090
     37091     37092     37091     37093     37094     37095     37094     37096
     37097     37098     37097     37099     37100     37101     37100     37102
     37103     37104     37103     37105     37106     37107     37106     37108
     37109     37110     37109     37111     37112     37113     37112     37114
     37115     37116     37115     37117     37118     37119     37118     37120
     37121     37122     37121     37123     37124     37125     37124     37126
     37127     37128     37127     37129     37130     37131     37130     37132
     37133     37134     37133     37135     37136     37137     37136     37138
     37139     37140     37139     37141     37142     37143     37142     37144
     37145     37146     37145     37147     37148     37149     37148     37150
     37151     37152     37151     37153     37154     37155     37154     37156
     37157     37158     37157     37159     37160     37161     37160     37162
     37163     37164     37163     37165     37166     37167     37166     37168
     37169     37170     37169     37171     37172     37173     37172     37174
     37175     37176     37175     37177     37178     37179     37178     37180
     37181     37182     37181     37183     37184     37185     37184     37186
     37187     37188     37187     37189     37190     37191     37190     37192
     37193     37194     37193     37195     37196     37197     37196     37198
     37199     37200     37199     37201     37202     37203     37202     37204
     37205     37206     37205     37207     37208     37209     37208     37210
     37211     37212     37211     37213     37214     37215     37214     37216
     37217     37218     37217     37219     37220     37221     37220     37222
     37223     37224     37223     37225     37226     37227     37226     37228
     37229     37230     37229     37231     37232     37233     37232     37234
     37235     37236     37235     37237     37238     37239     37238     37240
     37241     37242     37241     37243     37244     37245     37244     37246
     37247     37248     37247     37249     37250     37251     37250     37252
     37253     37254     37253     37255     37256     37257     37256     37258
     37259     37260     37259     37261     37262     37263     37262     37264
     37265     37266     37265     37267     37268     37269     37268     37270
     37271     37272     37271     37273     37274     37275     37274     37276
     37277     37278     37277     37279     37280     37281     37280     37282
     37283     37284     37283     37285     37286     37287     37286     37288
     37289     37290     37289     37291     37292     37293     37292     37294
     37295     37296     37295     37297     37298     37299     37298     37300
     37301     37302     37301     37303     37304     37305     37304     37306
     37307     37308     37307     37309     37310     37311     37310     37312
     37313     37314     37313     37315     37316     37317     37316     37318
     37319     37320     37319     37321     37322     37323     37322     37324
     37325     37326     37325     37327     37328     37329     37328     37330
     37331     37332     37331     37333     37334     37335     37334     37336
     37337     37338     37337     37339     37340     37341     37340     37342
     37343     37344     37343     37345     37346     37347     37346     37348
     37349     37350     37349     37351     37352     37353     37352     37354
     37355     37356     37355     37357     37358     37359     37358     37360
     37361     37362     37361     37363     37364     37365     37364     37366
     37367     37368     37367     37369     37370     37371     37370     37372
     37373     37374     37373     37375     37376     37377     37376     37378
     37379     37380     37379     37381     37382     37383     37382     37384
     37385     37386     37385     37387     37388     37389     37388     37390
     37391     37392     37391     37393     37394     37395     37394     37396
     37397     37398     37397     37399     37400     37401     37400     37402
     37403     37404     37403     37405     37406     37407     37406     37408
     37409     37410     37409     37411     37412     37413     37412     37414
     37415     37416     37415     37417     37418     37419     37418     37420
     37421     37422     37421     37423     37424     37425     37424     37426
     37427     37428     37427     37429     37430     37431     37430     37432
     37433     37434     37433     37435     37436     37437     37436     37438
     37439     37440     37439     37441     37442     37443     37442     37444
     37445     37446     37445     37447     37448     37449     37448     37450
     37451     37452     37451     37453     37454     37455     37454     37456
     37457     37458     37457     37459     37460     37461     37460     37462
     37463     37464     37463     37465     37466     37467     37466     37468
     37469     37470     37469     37471     37472     37473     37472     37474
     37475     37476     37475     37477     37478     37479     37478     37480
     37481     37482     37481     37483     37484     37485     37484     37486
     37487     37488     37487     37489     37490     37491     37490     37492
     37493     37494     37493     37495     37496     37497     37496     37498
     37499     37500     37499     37501     37502     37503     37502     37504
     37505     37506     37505     37507     37508     37509     37508     37510
     37511     37512     37511     37513     37514     37515     37514     37516
     37517     37518     37517     37519     37520     37521     37520     37522
     37523     37524     37523     37525     37526     37527     37526     37528
     37529     37530     37529     37531     37532     37533     37532     37534
     37535     37536     37535     37537     37538     37539     37538     37540
     37541     37542     37541     37543     37544     37545     37544     37546
     37547     37548     37547     37549     37550     37551     37550     37552
     37553     37554     37553     37555     37556     37557     37556     37558
     37559     37560     37559     37561     37562     37563     37562     37564
     37565     37566     37565     37567     37568     37569     37568     37570
     37571     37572     37571     37573     37574     37575     37574     37576
     37577     37578     37577     37579     37580     37581     37580     37582
     37583     37584     37583     37585     37586     37587     37586     37588
     37589     37590     37589     37591     37592     37593     37592     37594
     37595     37596     37595     37597     37598     37599     37598     37600
     37601     37602     37601     37603     37604     37605     37604     37606
     37607     37608     37607     37609     37610     37611     37610     37612
     37613     37614     37613     37615     37616     37617     37616     37618
     37619     37620     37619     37621     37622     37623     37622     37624
     37625     37626     37625     37627     37628     37629     37628     37630
     37631     37632     37631     37633     37634     37635     37634     37636
     37637     37638     37637     37639     37640     37641     37640     37642
     37643     37644     37643     37645     37646     37647     37646     37648
     37649     37650     37649     37651     37652     37653     37652     37654
     37655     37656     37655     37657     37658     37659     37658     37660
     37661     37662     37661     37663     37664     37665     37664     37666
     37667     37668     37667     37669     37670     37671     37670     37672
     37673     37674     37673     37675     37676     37677     37676     37678
     37679     37680     37679     37681     37682     37683     37682     37684
     37685     37686     37685     37687     37688     37689     37688     37690
     37691     37692     37691     37693     37694     37695     37694     37696
     37697     37698     37697     37699     37700     37701     37700     37702
     37703     37704     37703     37705     37706     37707     37706     37708
     37709     37710     37709     37711     37712     37713     37712     37714
     37715     37716     37715     37717     37718     37719     37718     37720
     37721     37722     37721     37723     37724     37725     37724     37726
     37727     37728     37727     37729     37730     37731     37730     37732
     37733     37734     37733     37735     37736     37737     37736     37738
     37739     37740     37739     37741     37742     37743     37742     37744
     37745     37746     37745     37747     37748     37749     37748     37750
     37751     37752     37751     37753     37754     37755     37754     37756
     37757     37758     37757     37759     37760     37761     37760     37762
     37763     37764     37763     37765     37766     37767     37766     37768
     37769     37770     37769     37771     37772     37773     37772     37774
     37775     37776     37775     37777     37778     37779     37778     37780
     37781     37782     37781     37783     37784     37785     37784     37786
     37787     37788     37787     37789     37790     37791     37790     37792
     37793     37794     37793     37795     37796     37797     37796     37798
     37799     37800     37799     37801     37802     37803     37802     37804
     37805     37806     37805     37807     37808     37809     37808     37810
     37811     37812     37811     37813     37814     37815     37814     37816
     37817     37818     37817     37819     37820     37821     37820     37822
     37823     37824     37823     37825     37826     37827     37826     37828
     37829     37830     37829     37831     37832     37833     37832     37834
     37835     37836     37835     37837     37838     37839     37838     37840
     37841     37842     37841     37843     37844     37845     37844     37846
     37847     37848     37847     37849     37850     37851     37850     37852
     37853     37854     37853     37855     37856     37857     37856     37858
     37859     37860     37859     37861     37862     37863     37862     37864
     37865     37866     37865     37867     37868     37869     37868     37870
     37871     37872     37871     37873     37874     37875     37874     37876
     37877     37878     37877     37879     37880     37881     37880     37882
     37883     37884     37883     37885     37886     37887     37886     37888
     37889     37890     37889     37891     37892     37893     37892     37894
     37895     37896     37895     37897     37898     37899     37898     37900
     37901     37902     37901     37903     37904     37905     37904     37906
     37907     37908     37907     37909     37910     37911     37910     37912
     37913     37914     37913     37915     37916     37917     37916     37918
     37919     37920     37919     37921     37922     37923     37922     37924
     37925     37926     37925     37927     37928     37929     37928     37930
     37931     37932     37931     37933     37934     37935     37934     37936
     37937     37938     37937     37939     37940     37941     37940     37942
     37943     37944     37943     37945     37946     37947     37946     37948
     37949     37950     37949     37951     37952     37953     37952     37954
     37955     37956     37955     37957     37958     37959     37958     37960
     37961     37962     37961     37963     37964     37965     37964     37966
     37967     37968     37967     37969     37970     37971     37970     37972
     37973     37974     37973     37975     37976     37977     37976     37978
     37979     37980     37979     37981     37982     37983     37982     37984
     37985     37986     37985     37987     37988     37989     37988     37990
     37991     37992     37991     37993     37994     37995     37994     37996
     37997     37998     37997     37999     38000     38001     38000     38002
     38003     38004     38003     38005     38006     38007     38006     38008
     38009     38010     38009     38011     38012     38013     38012     38014
     38015     38016     38015     38017     38018     38019     38018     38020
     38021     38022     38021     38023     38024     38025     38024     38026
     38027     38028     38027     38029     38030     38031     38030     38032
     38033     38034     38033     38035     38036     38037     38036     38038
     38039     38040     38039     38041     38042     38043     38042     38044
     38045     38046     38045     38047     38048     38049     38048     38050
     38051     38052     38051     38053     38054     38055     38054     38056
     38057     38058     38057     38059     38060     38061     38060     38062
     38063     38064     38063     38065     38066     38067     38066     38068
     38069     38070     38069     38071     38072     38073     38072     38074
     38075     38076     38075     38077     38078     38079     38078     38080
     38081     38082     38081     38083     38084     38085     38084     38086
     38087     38088     38087     38089     38090     38091     38090     38092
     38093     38094     38093     38095     38096     38097     38096     38098
     38099     38100     38099     38101     38102     38103     38102     38104
     38105     38106     38105     38107     38108     38109     38108     38110
     38111     38112     38111     38113     38114     38115     38114     38116
     38117     38118     38117     38119     38120     38121     38120     38122
     38123     38124     38123     38125     38126     38127     38126     38128
     38129     38130     38129     38131     38132     38133     38132     38134
     38135     38136     38135     38137     38138     38139     38138     38140
     38141     38142     38141     38143     38144     38145     38144     38146
     38147     38148     38147     38149     38150     38151     38150     38152
     38153     38154     38153     38155     38156     38157     38156     38158
     38159     38160     38159     38161     38162     38163     38162     38164
     38165     38166     38165     38167     38168     38169     38168     38170
     38171     38172     38171     38173     38174     38175     38174     38176
     38177     38178     38177     38179     38180     38181     38180     38182
     38183     38184     38183     38185     38186     38187     38186     38188
     38189     38190     38189     38191     38192     38193     38192     38194
     38195     38196     38195     38197     38198     38199     38198     38200
     38201     38202     38201     38203     38204     38205     38204     38206
     38207     38208     38207     38209     38210     38211     38210     38212
     38213     38214     38213     38215     38216     38217     38216     38218
     38219     38220     38219     38221     38222     38223     38222     38224
     38225     38226     38225     38227     38228     38229     38228     38230
     38231     38232     38231     38233     38234     38235     38234     38236
     38237     38238     38237     38239     38240     38241     38240     38242
     38243     38244     38243     38245     38246     38247     38246     38248
     38249     38250     38249     38251     38252     38253     38252     38254
     38255     38256     38255     38257     38258     38259     38258     38260
     38261     38262     38261     38263     38264     38265     38264     38266
     38267     38268     38267     38269     38270     38271     38270     38272
     38273     38274     38273     38275     38276     38277     38276     38278
     38279     38280     38279     38281     38282     38283     38282     38284
     38285     38286     38285     38287     38288     38289     38288     38290
     38291     38292     38291     38293     38294     38295     38294     38296
     38297     38298     38297     38299     38300     38301     38300     38302
     38303     38304     38303     38305     38306     38307     38306     38308
     38309     38310     38309     38311     38312     38313     38312     38314
     38315     38316     38315     38317     38318     38319     38318     38320
     38321     38322     38321     38323     38324     38325     38324     38326
     38327     38328     38327     38329     38330     38331     38330     38332
     38333     38334     38333     38335     38336     38337     38336     38338
     38339     38340     38339     38341     38342     38343     38342     38344
     38345     38346     38345     38347     38348     38349     38348     38350
     38351     38352     38351     38353     38354     38355     38354     38356
     38357     38358     38357     38359     38360     38361     38360     38362
     38363     38364     38363     38365     38366     38367     38366     38368
     38369     38370     38369     38371     38372     38373     38372     38374
     38375     38376     38375     38377     38378     38379     38378     38380
     38381     38382     38381     38383     38384     38385     38384     38386
     38387     38388     38387     38389     38390     38391     38390     38392
     38393     38394     38393     38395     38396     38397     38396     38398
     38399     38400     38399     38401     38402     38403     38402     38404
     38405     38406     38405     38407     38408     38409     38408     38410
     38411     38412     38411     38413     38414     38415     38414     38416
     38417     38418     38417     38419     38420     38421     38420     38422
     38423     38424     38423     38425     38426     38427     38426     38428
     38429     38430     38429     38431     38432     38433     38432     38434
     38435     38436     38435     38437     38438     38439     38438     38440
     38441     38442     38441     38443     38444     38445     38444     38446
     38447     38448     38447     38449     38450     38451     38450     38452
     38453     38454     38453     38455     38456     38457     38456     38458
     38459     38460     38459     38461     38462     38463     38462     38464
     38465     38466     38465     38467     38468     38469     38468     38470
     38471     38472     38471     38473     38474     38475     38474     38476
     38477     38478     38477     38479     38480     38481     38480     38482
     38483     38484     38483     38485     38486     38487     38486     38488
     38489     38490     38489     38491     38492     38493     38492     38494
     38495     38496     38495     38497     38498     38499     38498     38500
     38501     38502     38501     38503     38504     38505     38504     38506
     38507     38508     38507     38509     38510     38511     38510     38512
     38513     38514     38513     38515     38516     38517     38516     38518
     38519     38520     38519     38521     38522     38523     38522     38524
     38525     38526     38525     38527     38528     38529     38528     38530
     38531     38532     38531     38533     38534     38535     38534     38536
     38537     38538     38537     38539     38540     38541     38540     38542
     38543     38544     38543     38545     38546     38547     38546     38548
     38549     38550     38549     38551     38552     38553     38552     38554
     38555     38556     38555     38557     38558     38559     38558     38560
     38561     38562     38561     38563     38564     38565     38564     38566
     38567     38568     38567     38569     38570     38571     38570     38572
     38573     38574     38573     38575     38576     38577     38576     38578
     38579     38580     38579     38581     38582     38583     38582     38584
     38585     38586     38585     38587     38588     38589     38588     38590
     38591     38592     38591     38593     38594     38595     38594     38596
     38597     38598     38597     38599     38600     38601     38600     38602
     38603     38604     38603     38605     38606     38607     38606     38608
     38609     38610     38609     38611     38612     38613     38612     38614
     38615     38616     38615     38617     38618     38619     38618     38620
     38621     38622     38621     38623     38624     38625     38624     38626
     38627     38628     38627     38629     38630     38631     38630     38632
     38633     38634     38633     38635     38636     38637     38636     38638
     38639     38640     38639     38641     38642     38643     38642     38644
     38645     38646     38645     38647     38648     38649     38648     38650
     38651     38652     38651     38653     38654     38655     38654     38656
     38657     38658     38657     38659     38660     38661     38660     38662
     38663     38664     38663     38665     38666     38667     38666     38668
     38669     38670     38669     38671     38672     38673     38672     38674
     38675     38676     38675     38677     38678     38679     38678     38680
     38681     38682     38681     38683     38684     38685     38684     38686
     38687     38688     38687     38689     38690     38691     38690     38692
     38693     38694     38693     38695     38696     38697     38696     38698
     38699     38700     38699     38701     38702     38703     38702     38704
     38705     38706     38705     38707     38708     38709     38708     38710
     38711     38712     38711     38713     38714     38715     38714     38716
     38717     38718     38717     38719     38720     38721     38720     38722
     38723     38724     38723     38725     38726     38727     38726     38728
     38729     38730     38729     38731     38732     38733     38732     38734
     38735     38736     38735     38737     38738     38739     38738     38740
     38741     38742     38741     38743     38744     38745     38744     38746
     38747     38748     38747     38749     38750     38751     38750     38752
     38753     38754     38753     38755     38756     38757     38756     38758
     38759     38760     38759     38761     38762     38763     38762     38764
     38765     38766     38765     38767     38768     38769     38768     38770
     38771     38772     38771     38773     38774     38775     38774     38776
     38777     38778     38777     38779     38780     38781     38780     38782
     38783     38784     38783     38785     38786     38787     38786     38788
     38789     38790     38789     38791     38792     38793     38792     38794
     38795     38796     38795     38797     38798     38799     38798     38800
     38801     38802     38801     38803     38804     38805     38804     38806
     38807     38808     38807     38809     38810     38811     38810     38812
     38813     38814     38813     38815     38816     38817     38816     38818
     38819     38820     38819     38821     38822     38823     38822     38824
     38825     38826     38825     38827     38828     38829     38828     38830
     38831     38832     38831     38833     38834     38835     38834     38836
     38837     38838     38837     38839     38840     38841     38840     38842
     38843     38844     38843     38845     38846     38847     38846     38848
     38849     38850     38849     38851     38852     38853     38852     38854
     38855     38856     38855     38857     38858     38859     38858     38860
     38861     38862     38861     38863     38864     38865     38864     38866
     38867     38868     38867     38869     38870     38871     38870     38872
     38873     38874     38873     38875     38876     38877     38876     38878
     38879     38880     38879     38881     38882     38883     38882     38884
     38885     38886     38885     38887     38888     38889     38888     38890
     38891     38892     38891     38893     38894     38895     38894     38896
     38897     38898     38897     38899     38900     38901     38900     38902
     38903     38904     38903     38905     38906     38907     38906     38908
     38909     38910     38909     38911     38912     38913     38912     38914
     38915     38916     38915     38917     38918     38919     38918     38920
     38921     38922     38921     38923     38924     38925     38924     38926
     38927     38928     38927     38929     38930     38931     38930     38932
     38933     38934     38933     38935     38936     38937     38936     38938
     38939     38940     38939     38941     38942     38943     38942     38944
     38945     38946     38945     38947     38948     38949     38948     38950
     38951     38952     38951     38953     38954     38955     38954     38956
     38957     38958     38957     38959     38960     38961     38960     38962
     38963     38964     38963     38965     38966     38967     38966     38968
     38969     38970     38969     38971     38972     38973     38972     38974
     38975     38976     38975     38977     38978     38979     38978     38980
     38981     38982     38981     38983     38984     38985     38984     38986
     38987     38988     38987     38989     38990     38991     38990     38992
     38993     38994     38993     38995     38996     38997     38996     38998
     38999     39000     38999     39001     39002     39003     39002     39004
     39005     39006     39005     39007     39008     39009     39008     39010
     39011     39012     39011     39013     39014     39015     39014     39016
     39017     39018     39017     39019     39020     39021     39020     39022
     39023     39024     39023     39025     39026     39027     39026     39028
     39029     39030     39029     39031     39032     39033     39032     39034
     39035     39036     39035     39037     39038     39039     39038     39040
     39041     39042     39041     39043     39044     39045     39044     39046
     39047     39048     39047     39049     39050     39051     39050     39052
     39053     39054     39053     39055     39056     39057     39056     39058
     39059     39060     39059     39061     39062     39063     39062     39064
     39065     39066     39065     39067     39068     39069     39068     39070
     39071     39072     39071     39073     39074     39075     39074     39076
     39077     39078     39077     39079     39080     39081     39080     39082
     39083     39084     39083     39085     39086     39087     39086     39088
     39089     39090     39089     39091     39092     39093     39092     39094
     39095     39096     39095     39097     39098     39099     39098     39100
     39101     39102     39101     39103     39104     39105     39104     39106
     39107     39108     39107     39109     39110     39111     39110     39112
     39113     39114     39113     39115     39116     39117     39116     39118
     39119     39120     39119     39121     39122     39123     39122     39124
     39125     39126     39125     39127     39128     39129     39128     39130
     39131     39132     39131     39133     39134     39135     39134     39136
     39137     39138     39137     39139     39140     39141     39140     39142
     39143     39144     39143     39145     39146     39147     39146     39148
     39149     39150     39149     39151     39152     39153     39152     39154
     39155     39156     39155     39157     39158     39159     39158     39160
     39161     39162     39161     39163     39164     39165     39164     39166
     39167     39168     39167     39169     39170     39171     39170     39172
     39173     39174     39173     39175     39176     39177     39176     39178
     39179     39180     39179     39181     39182     39183     39182     39184
     39185     39186     39185     39187     39188     39189     39188     39190
     39191     39192     39191     39193     39194     39195     39194     39196
     39197     39198     39197     39199     39200     39201     39200     39202
     39203     39204     39203     39205     39206     39207     39206     39208
     39209     39210     39209     39211     39212     39213     39212     39214
     39215     39216     39215     39217     39218     39219     39218     39220
     39221     39222     39221     39223     39224     39225     39224     39226
     39227     39228     39227     39229     39230     39231     39230     39232
     39233     39234     39233     39235     39236     39237     39236     39238
     39239     39240     39239     39241     39242     39243     39242     39244
     39245     39246     39245     39247     39248     39249     39248     39250
     39251     39252     39251     39253     39254     39255     39254     39256
     39257     39258     39257     39259     39260     39261     39260     39262
     39263     39264     39263     39265     39266     39267     39266     39268
     39269     39270     39269     39271     39272     39273     39272     39274
     39275     39276     39275     39277     39278     39279     39278     39280
     39281     39282     39281     39283     39284     39285     39284     39286
     39287     39288     39287     39289     39290     39291     39290     39292
     39293     39294     39293     39295     39296     39297     39296     39298
     39299     39300     39299     39301     39302     39303     39302     39304
     39305     39306     39305     39307     39308     39309     39308     39310
     39311     39312     39311     39313     39314     39315     39314     39316
     39317     39318     39317     39319     39320     39321     39320     39322
     39323     39324     39323     39325     39326     39327     39326     39328
     39329     39330     39329     39331     39332     39333     39332     39334
     39335     39336     39335     39337     39338     39339     39338     39340
     39341     39342     39341     39343     39344     39345     39344     39346
     39347     39348     39347     39349     39350     39351     39350     39352
     39353     39354     39353     39355     39356     39357     39356     39358
     39359     39360     39359     39361     39362     39363     39362     39364
     39365     39366     39365     39367     39368     39369     39368     39370
     39371     39372     39371     39373     39374     39375     39374     39376
     39377     39378     39377     39379     39380     39381     39380     39382
     39383     39384     39383     39385     39386     39387     39386     39388
     39389     39390     39389     39391     39392     39393     39392     39394
     39395     39396     39395     39397     39398     39399     39398     39400
     39401     39402     39401     39403     39404     39405     39404     39406
     39407     39408     39407     39409     39410     39411     39410     39412
     39413     39414     39413     39415     39416     39417     39416     39418
     39419     39420     39419     39421     39422     39423     39422     39424
     39425     39426     39425     39427     39428     39429     39428     39430
     39431     39432     39431     39433     39434     39435     39434     39436
     39437     39438     39437     39439     39440     39441     39440     39442
     39443     39444     39443     39445     39446     39447     39446     39448
     39449     39450     39449     39451     39452     39453     39452     39454
     39455     39456     39455     39457     39458     39459     39458     39460
     39461     39462     39461     39463     39464     39465     39464     39466
     39467     39468     39467     39469     39470     39471     39470     39472
     39473     39474     39473     39475     39476     39477     39476     39478
     39479     39480     39479     39481     39482     39483     39482     39484
     39485     39486     39485     39487     39488     39489     39488     39490
     39491     39492     39491     39493     39494     39495     39494     39496
     39497     39498     39497     39499     39500     39501     39500     39502
     39503     39504     39503     39505     39506     39507     39506     39508
     39509     39510     39509     39511     39512     39513     39512     39514
     39515     39516     39515     39517     39518     39519     39518     39520
     39521     39522     39521     39523     39524     39525     39524     39526
     39527     39528     39527     39529     39530     39531     39530     39532
     39533     39534     39533     39535     39536     39537     39536     39538
     39539     39540     39539     39541     39542     39543     39542     39544
     39545     39546     39545     39547     39548     39549     39548     39550
     39551     39552     39551     39553     39554     39555     39554     39556
     39557     39558     39557     39559     39560     39561     39560     39562
     39563     39564     39563     39565     39566     39567     39566     39568
     39569     39570     39569     39571     39572     39573     39572     39574
     39575     39576     39575     39577     39578     39579     39578     39580
     39581     39582     39581     39583     39584     39585     39584     39586
     39587     39588     39587     39589     39590     39591     39590     39592
     39593     39594     39593     39595     39596     39597     39596     39598
     39599     39600     39599     39601     39602     39603     39602     39604
     39605     39606     39605     39607     39608     39609     39608     39610
     39611     39612     39611     39613     39614     39615     39614     39616
     39617     39618     39617     39619     39620     39621     39620     39622
     39623     39624     39623     39625     39626     39627     39626     39628
     39629     39630     39629     39631     39632     39633     39632     39634
     39635     39636     39635     39637     39638     39639     39638     39640
     39641     39642     39641     39643     39644     39645     39644     39646
     39647     39648     39647     39649     39650     39651     39650     39652
     39653     39654     39653     39655     39656     39657     39656     39658
     39659     39660     39659     39661     39662     39663     39662     39664
     39665     39666     39665     39667     39668     39669     39668     39670
     39671     39672     39671     39673     39674     39675     39674     39676
     39677     39678     39677     39679     39680     39681     39680     39682
     39683     39684     39683     39685     39686     39687     39686     39688
     39689     39690     39689     39691     39692     39693     39692     39694
     39695     39696     39695     39697     39698     39699     39698     39700
     39701     39702     39701     39703     39704     39705     39704     39706
     39707     39708     39707     39709     39710     39711     39710     39712
     39713     39714     39713     39715     39716     39717     39716     39718
     39719     39720     39719     39721     39722     39723     39722     39724
     39725     39726     39725     39727     39728     39729     39728     39730
     39731     39732     39731     39733     39734     39735     39734     39736
     39737     39738     39737     39739     39740     39741     39740     39742
     39743     39744     39743     39745     39746     39747     39746     39748
     39749     39750     39749     39751     39752     39753     39752     39754
     39755     39756     39755     39757     39758     39759     39758     39760
     39761     39762     39761     39763     39764     39765     39764     39766
     39767     39768     39767     39769     39770     39771     39770     39772
     39773     39774     39773     39775     39776     39777     39776     39778
     39779     39780     39779     39781     39782     39783     39782     39784
     39785     39786     39785     39787     39788     39789     39788     39790
     39791     39792     39791     39793     39794     39795     39794     39796
     39797     39798     39797     39799     39800     39801     39800     39802
     39803     39804     39803     39805     39806     39807     39806     39808
     39809     39810     39809     39811     39812     39813     39812     39814
     39815     39816     39815     39817     39818     39819     39818     39820
     39821     39822     39821     39823     39824     39825     39824     39826
     39827     39828     39827     39829     39830     39831     39830     39832
     39833     39834     39833     39835     39836     39837     39836     39838
     39839     39840     39839     39841     39842     39843     39842     39844
     39845     39846     39845     39847     39848     39849     39848     39850
     39851     39852     39851     39853     39854     39855     39854     39856
     39857     39858     39857     39859     39860     39861     39860     39862
     39863     39864     39863     39865     39866     39867     39866     39868
     39869     39870     39869     39871     39872     39873     39872     39874
     39875     39876     39875     39877     39878     39879     39878     39880
     39881     39882     39881     39883     39884     39885     39884     39886
     39887     39888     39887     39889     39890     39891     39890     39892
     39893     39894     39893     39895     39896     39897     39896     39898
     39899     39900     39899     39901     39902     39903     39902     39904
     39905     39906     39905     39907     39908     39909     39908     39910
     39911     39912     39911     39913     39914     39915     39914     39916
     39917     39918     39917     39919     39920     39921     39920     39922
     39923     39924     39923     39925     39926     39927     39926     39928
     39929     39930     39929     39931     39932     39933     39932     39934
     39935     39936     39935     39937     39938     39939     39938     39940
     39941     39942     39941     39943     39944     39945     39944     39946
     39947     39948     39947     39949     39950     39951     39950     39952
     39953     39954     39953     39955     39956     39957     39956     39958
     39959     39960     39959     39961     39962     39963     39962     39964
     39965     39966     39965     39967     39968     39969     39968     39970
     39971     39972     39971     39973     39974     39975     39974     39976
     39977     39978     39977     39979     39980     39981     39980     39982
     39983     39984     39983     39985     39986     39987     39986     39988
     39989     39990     39989     39991     39992     39993     39992     39994
     39995     39996     39995     39997     39998     39999     39998     40000
     40001     40002     40001     40003     40004     40005     40004     40006
     40007     40008     40007     40009     40010     40011     40010     40012
     40013     40014     40013     40015     40016     40017     40016     40018
     40019     40020     40019     40021     40022     40023     40022     40024
     40025     40026     40025     40027     40028     40029     40028     40030
     40031     40032     40031     40033     40034     40035     40034     40036
     40037     40038     40037     40039     40040     40041     40040     40042
     40043     40044     40043     40045     40046     40047     40046     40048
     40049     40050     40049     40051     40052     40053     40052     40054
     40055     40056     40055     40057     40058     40059     40058     40060
     40061     40062     40061     40063     40064     40065     40064     40066
     40067     40068     40067     40069     40070     40071     40070     40072
     40073     40074     40073     40075     40076     40077     40076     40078
     40079     40080     40079     40081     40082     40083     40082     40084
     40085     40086     40085     40087     40088     40089     40088     40090
     40091     40092     40091     40093     40094     40095     40094     40096
     40097     40098     40097     40099     40100     40101     40100     40102
     40103     40104     40103     40105     40106     40107     40106     40108
     40109     40110     40109     40111     40112     40113     40112     40114
     40115     40116     40115     40117     40118     40119     40118     40120
     40121     40122     40121     40123     40124     40125     40124     40126
     40127     40128     40127     40129     40130     40131     40130     40132
     40133     40134     40133     40135     40136     40137     40136     40138
     40139     40140     40139     40141     40142     40143     40142     40144
     40145     40146     40145     40147     40148     40149     40148     40150
     40151     40152     40151     40153     40154     40155     40154     40156
     40157     40158     40157     40159     40160     40161     40160     40162
     40163     40164     40163     40165     40166     40167     40166     40168
     40169     40170     40169     40171     40172     40173     40172     40174
     40175     40176     40175     40177     40178     40179     40178     40180
     40181     40182     40181     40183     40184     40185     40184     40186
     40187     40188     40187     40189     40190     40191     40190     40192
     40193     40194     40193     40195     40196     40197     40196     40198
     40199     40200     40199     40201     40202     40203     40202     40204
     40205     40206     40205     40207     40208     40209     40208     40210
     40211     40212     40211     40213     40214     40215     40214     40216
     40217     40218     40217     40219     40220     40221     40220     40222
     40223     40224     40223     40225     40226     40227     40226     40228
     40229     40230     40229     40231     40232     40233     40232     40234
     40235     40236     40235     40237     40238     40239     40238     40240
     40241     40242     40241     40243     40244     40245     40244     40246
     40247     40248     40247     40249     40250     40251     40250     40252
     40253     40254     40253     40255     40256     40257     40256     40258
     40259     40260     40259     40261     40262     40263     40262     40264
     40265     40266     40265     40267     40268     40269     40268     40270
     40271     40272     40271     40273     40274     40275     40274     40276
     40277     40278     40277     40279     40280     40281     40280     40282
     40283     40284     40283     40285     40286     40287     40286     40288
     40289     40290     40289     40291     40292     40293     40292     40294
     40295     40296     40295     40297     40298     40299     40298     40300
     40301     40302     40301     40303     40304     40305     40304     40306
     40307     40308     40307     40309     40310     40311     40310     40312
     40313     40314     40313     40315     40316     40317     40316     40318
     40319     40320     40319     40321     40322     40323     40322     40324
     40325     40326     40325     40327     40328     40329     40328     40330
     40331     40332     40331     40333     40334     40335     40334     40336
     40337     40338     40337     40339     40340     40341     40340     40342
     40343     40344     40343     40345     40346     40347     40346     40348
     40349     40350     40349     40351     40352     40353     40352     40354
     40355     40356     40355     40357     40358     40359     40358     40360
     40361     40362     40361     40363     40364     40365     40364     40366
     40367     40368     40367     40369     40370     40371     40370     40372
     40373     40374     40373     40375     40376     40377     40376     40378
     40379     40380     40379     40381     40382     40383     40382     40384
     40385     40386     40385     40387     40388     40389     40388     40390
     40391     40392     40391     40393     40394     40395     40394     40396
     40397     40398     40397     40399     40400     40401     40400     40402
     40403     40404     40403     40405     40406     40407     40406     40408
     40409     40410     40409     40411     40412     40413     40412     40414
     40415     40416     40415     40417     40418     40419     40418     40420
     40421     40422     40421     40423     40424     40425     40424     40426
     40427     40428     40427     40429     40430     40431     40430     40432
     40433     40434     40433     40435     40436     40437     40436     40438
     40439     40440     40439     40441     40442     40443     40442     40444
     40445     40446     40445     40447     40448     40449     40448     40450
     40451     40452     40451     40453     40454     40455     40454     40456
     40457     40458     40457     40459     40460     40461     40460     40462
     40463     40464     40463     40465     40466     40467     40466     40468
     40469     40470     40469     40471     40472     40473     40472     40474
     40475     40476     40475     40477     40478     40479     40478     40480
     40481     40482     40481     40483     40484     40485     40484     40486
     40487     40488     40487     40489     40490     40491     40490     40492
     40493     40494     40493     40495     40496     40497     40496     40498
     40499     40500     40499     40501     40502     40503     40502     40504
     40505     40506     40505     40507     40508     40509     40508     40510
     40511     40512     40511     40513     40514     40515     40514     40516
     40517     40518     40517     40519     40520     40521     40520     40522
     40523     40524     40523     40525     40526     40527     40526     40528
     40529     40530     40529     40531     40532     40533     40532     40534
     40535     40536     40535     40537     40538     40539     40538     40540
     40541     40542     40541     40543     40544     40545     40544     40546
     40547     40548     40547     40549     40550     40551     40550     40552
     40553     40554     40553     40555     40556     40557     40556     40558
     40559     40560     40559     40561     40562     40563     40562     40564
     40565     40566     40565     40567     40568     40569     40568     40570
     40571     40572     40571     40573     40574     40575     40574     40576
     40577     40578     40577     40579     40580     40581     40580     40582
     40583     40584     40583     40585     40586     40587     40586     40588
     40589     40590     40589     40591     40592     40593     40592     40594
     40595     40596     40595     40597     40598     40599     40598     40600
     40601     40602     40601     40603     40604     40605     40604     40606
     40607     40608     40607     40609     40610     40611     40610     40612
     40613     40614     40613     40615     40616     40617     40616     40618
     40619     40620     40619     40621     40622     40623     40622     40624
     40625     40626     40625     40627     40628     40629     40628     40630
     40631     40632     40631     40633     40634     40635     40634     40636
     40637     40638     40637     40639     40640     40641     40640     40642
     40643     40644     40643     40645     40646     40647     40646     40648
     40649     40650     40649     40651     40652     40653     40652     40654
     40655     40656     40655     40657     40658     40659     40658     40660
     40661     40662     40661     40663     40664     40665     40664     40666
     40667     40668     40667     40669     40670     40671     40670     40672
     40673     40674     40673     40675     40676     40677     40676     40678
     40679     40680     40679     40681     40682     40683     40682     40684
     40685     40686     40685     40687     40688     40689     40688     40690
     40691     40692     40691     40693     40694     40695     40694     40696
     40697     40698     40697     40699     40700     40701     40700     40702
     40703     40704     40703     40705     40706     40707     40706     40708
     40709     40710     40709     40711     40712     40713     40712     40714
     40715     40716     40715     40717     40718     40719     40718     40720
     40721     40722     40721     40723     40724     40725     40724     40726
     40727     40728     40727     40729     40730     40731     40730     40732
     40733     40734     40733     40735     40736     40737     40736     40738
     40739     40740     40739     40741     40742     40743     40742     40744
     40745     40746     40745     40747     40748     40749     40748     40750
     40751     40752     40751     40753     40754     40755     40754     40756
     40757     40758     40757     40759     40760     40761     40760     40762
     40763     40764     40763     40765     40766     40767     40766     40768
     40769     40770     40769     40771     40772     40773     40772     40774
     40775     40776     40775     40777     40778     40779     40778     40780
     40781     40782     40781     40783     40784     40785     40784     40786
     40787     40788     40787     40789     40790     40791     40790     40792
     40793     40794     40793     40795     40796     40797     40796     40798
     40799     40800     40799     40801     40802     40803     40802     40804
     40805     40806     40805     40807     40808     40809     40808     40810
     40811     40812     40811     40813     40814     40815     40814     40816
     40817     40818     40817     40819     40820     40821     40820     40822
     40823     40824     40823     40825     40826     40827     40826     40828
     40829     40830     40829     40831     40832     40833     40832     40834
     40835     40836     40835     40837     40838     40839     40838     40840
     40841     40842     40841     40843     40844     40845     40844     40846
     40847     40848     40847     40849     40850     40851     40850     40852
     40853     40854     40853     40855     40856     40857     40856     40858
     40859     40860     40859     40861     40862     40863     40862     40864
     40865     40866     40865     40867     40868     40869     40868     40870
     40871     40872     40871     40873     40874     40875     40874     40876
     40877     40878     40877     40879     40880     40881     40880     40882
     40883     40884     40883     40885     40886     40887     40886     40888
     40889     40890     40889     40891     40892     40893     40892     40894
     40895     40896     40895     40897     40898     40899     40898     40900
     40901     40902     40901     40903     40904     40905     40904     40906
     40907     40908     40907     40909     40910     40911     40910     40912
     40913     40914     40913     40915     40916     40917     40916     40918
     40919     40920     40919     40921     40922     40923     40922     40924
     40925     40926     40925     40927     40928     40929     40928     40930
     40931     40932     40931     40933     40934     40935     40934     40936
     40937     40938     40937     40939     40940     40941     40940     40942
     40943     40944     40943     40945     40946     40947     40946     40948
     40949     40950     40949     40951     40952     40953     40952     40954
     40955     40956     40955     40957     40958     40959     40958     40960
     40961     40962     40961     40963     40964     40965     40964     40966
     40967     40968     40967     40969     40970     40971     40970     40972
     40973     40974     40973     40975     40976     40977     40976     40978
     40979     40980     40979     40981     40982     40983     40982     40984
     40985     40986     40985     40987     40988     40989     40988     40990
     40991     40992     40991     40993     40994     40995     40994     40996
     40997     40998     40997     40999     41000     41001     41000     41002
     41003     41004     41003     41005     41006     41007     41006     41008
     41009     41010     41009     41011     41012     41013     41012     41014
     41015     41016     41015     41017     41018     41019     41018     41020
     41021     41022     41021     41023     41024     41025     41024     41026
     41027     41028     41027     41029     41030     41031     41030     41032
     41033     41034     41033     41035     41036     41037     41036     41038
     41039     41040     41039     41041     41042     41043     41042     41044
     41045     41046     41045     41047     41048     41049     41048     41050
     41051     41052     41051     41053     41054     41055     41054     41056
     41057     41058     41057     41059     41060     41061     41060     41062
     41063     41064     41063     41065     41066     41067     41066     41068
     41069     41070     41069     41071     41072     41073     41072     41074
     41075     41076     41075     41077     41078     41079     41078     41080
     41081     41082     41081     41083     41084     41085     41084     41086
     41087     41088     41087     41089     41090     41091     41090     41092
     41093     41094     41093     41095     41096     41097     41096     41098
     41099     41100     41099     41101     41102     41103     41102     41104
     41105     41106     41105     41107     41108     41109     41108     41110
     41111     41112     41111     41113     41114     41115     41114     41116
     41117     41118     41117     41119     41120     41121     41120     41122
     41123     41124     41123     41125     41126     41127     41126     41128
     41129     41130     41129     41131     41132     41133     41132     41134
     41135     41136     41135     41137     41138     41139     41138     41140
     41141     41142     41141     41143     41144     41145     41144     41146
     41147     41148     41147     41149     41150     41151     41150     41152
     41153     41154     41153     41155     41156     41157     41156     41158
     41159     41160     41159     41161     41162     41163     41162     41164
     41165     41166     41165     41167     41168     41169     41168     41170
     41171     41172     41171     41173     41174     41175     41174     41176
     41177     41178     41177     41179     41180     41181     41180     41182
     41183     41184     41183     41185     41186     41187     41186     41188
     41189     41190     41189     41191     41192     41193     41192     41194
     41195     41196     41195     41197     41198     41199     41198     41200
     41201     41202     41201     41203     41204     41205     41204     41206
     41207     41208     41207     41209     41210     41211     41210     41212
     41213     41214     41213     41215     41216     41217     41216     41218
     41219     41220     41219     41221     41222     41223     41222     41224
     41225     41226     41225     41227     41228     41229     41228     41230
     41231     41232     41231     41233     41234     41235     41234     41236
     41237     41238     41237     41239     41240     41241     41240     41242
     41243     41244     41243     41245     41246     41247     41246     41248
     41249     41250     41249     41251     41252     41253     41252     41254
     41255     41256     41255     41257     41258     41259     41258     41260
     41261     41262     41261     41263     41264     41265     41264     41266
     41267     41268     41267     41269     41270     41271     41270     41272
     41273     41274     41273     41275     41276     41277     41276     41278
     41279     41280     41279     41281     41282     41283     41282     41284
     41285     41286     41285     41287     41288     41289     41288     41290
     41291     41292     41291     41293     41294     41295     41294     41296
     41297     41298     41297     41299     41300     41301     41300     41302
     41303     41304     41303     41305     41306     41307     41306     41308
     41309     41310     41309     41311     41312     41313     41312     41314
     41315     41316     41315     41317     41318     41319     41318     41320
     41321     41322     41321     41323     41324     41325     41324     41326
     41327     41328     41327     41329     41330     41331     41330     41332
     41333     41334     41333     41335     41336     41337     41336     41338
     41339     41340     41339     41341     41342     41343     41342     41344
     41345     41346     41345     41347     41348     41349     41348     41350
     41351     41352     41351     41353     41354     41355     41354     41356
     41357     41358     41357     41359     41360     41361     41360     41362
     41363     41364     41363     41365     41366     41367     41366     41368
     41369     41370     41369     41371     41372     41373     41372     41374
     41375     41376     41375     41377     41378     41379     41378     41380
     41381     41382     41381     41383     41384     41385     41384     41386
     41387     41388     41387     41389     41390     41391     41390     41392
     41393     41394     41393     41395     41396     41397     41396     41398
     41399     41400     41399     41401     41402     41403     41402     41404
     41405     41406     41405     41407     41408     41409     41408     41410
     41411     41412     41411     41413     41414     41415     41414     41416
     41417     41418     41417     41419     41420     41421     41420     41422
     41423     41424     41423     41425     41426     41427     41426     41428
     41429     41430     41429     41431     41432     41433     41432     41434
     41435     41436     41435     41437     41438     41439     41438     41440
     41441     41442     41441     41443     41444     41445     41444     41446
     41447     41448     41447     41449     41450     41451     41450     41452
     41453     41454     41453     41455     41456     41457     41456     41458
     41459     41460     41459     41461     41462     41463     41462     41464
     41465     41466     41465     41467     41468     41469     41468     41470
     41471     41472     41471     41473     41474     41475     41474     41476
     41477     41478     41477     41479     41480     41481     41480     41482
     41483     41484     41483     41485     41486     41487     41486     41488
     41489     41490     41489     41491     41492     41493     41492     41494
     41495     41496     41495     41497     41498     41499     41498     41500
     41501     41502     41501     41503     41504     41505     41504     41506
     41507     41508     41507     41509     41510     41511     41510     41512
     41513     41514     41513     41515     41516     41517     41516     41518
     41519     41520     41519     41521     41522     41523     41522     41524
     41525     41526     41525     41527     41528     41529     41528     41530
     41531     41532     41531     41533     41534     41535     41534     41536
     41537     41538     41537     41539     41540     41541     41540     41542
     41543     41544     41543     41545     41546     41547     41546     41548
     41549     41550     41549     41551     41552     41553     41552     41554
     41555     41556     41555     41557     41558     41559     41558     41560
     41561     41562     41561     41563     41564     41565     41564     41566
     41567     41568     41567     41569     41570     41571     41570     41572
     41573     41574     41573     41575     41576     41577     41576     41578
     41579     41580     41579     41581     41582     41583     41582     41584
     41585     41586     41585     41587     41588     41589     41588     41590
     41591     41592     41591     41593     41594     41595     41594     41596
     41597     41598     41597     41599     41600     41601     41600     41602
     41603     41604     41603     41605     41606     41607     41606     41608
     41609     41610     41609     41611     41612     41613     41612     41614
     41615     41616     41615     41617     41618     41619     41618     41620
     41621     41622     41621     41623     41624     41625     41624     41626
     41627     41628     41627     41629     41630     41631     41630     41632
     41633     41634     41633     41635     41636     41637     41636     41638
     41639     41640     41639     41641     41642     41643     41642     41644
     41645     41646     41645     41647     41648     41649     41648     41650
     41651     41652     41651     41653     41654     41655     41654     41656
     41657     41658     41657     41659     41660     41661     41660     41662
     41663     41664     41663     41665     41666     41667     41666     41668
     41669     41670     41669     41671     41672     41673     41672     41674
     41675     41676     41675     41677     41678     41679     41678     41680
     41681     41682     41681     41683     41684     41685     41684     41686
     41687     41688     41687     41689     41690     41691     41690     41692
     41693     41694     41693     41695     41696     41697     41696     41698
     41699     41700     41699     41701     41702     41703     41702     41704
     41705     41706     41705     41707     41708     41709     41708     41710
     41711     41712     41711     41713     41714     41715     41714     41716
     41717     41718     41717     41719     41720     41721     41720     41722
     41723     41724     41723     41725     41726     41727     41726     41728
     41729     41730     41729     41731     41732     41733     41732     41734
     41735     41736     41735     41737     41738     41739     41738     41740
     41741     41742     41741     41743     41744     41745     41744     41746
     41747     41748     41747     41749     41750     41751     41750     41752
     41753     41754     41753     41755     41756     41757     41756     41758
     41759     41760     41759     41761     41762     41763     41762     41764
     41765     41766     41765     41767     41768     41769     41768     41770
     41771     41772     41771     41773     41774     41775     41774     41776
     41777     41778     41777     41779     41780     41781     41780     41782
     41783     41784     41783     41785     41786     41787     41786     41788
     41789     41790     41789     41791     41792     41793     41792     41794
     41795     41796     41795     41797     41798     41799     41798     41800
     41801     41802     41801     41803     41804     41805     41804     41806
     41807     41808     41807     41809     41810     41811     41810     41812
     41813     41814     41813     41815     41816     41817     41816     41818
     41819     41820     41819     41821     41822     41823     41822     41824
     41825     41826     41825     41827     41828     41829     41828     41830
     41831     41832     41831     41833     41834     41835     41834     41836
     41837     41838     41837     41839     41840     41841     41840     41842
     41843     41844     41843     41845     41846     41847     41846     41848
     41849     41850     41849     41851     41852     41853     41852     41854
     41855     41856     41855     41857     41858     41859     41858     41860
     41861     41862     41861     41863     41864     41865     41864     41866
     41867     41868     41867     41869     41870     41871     41870     41872
     41873     41874     41873     41875     41876     41877     41876     41878
     41879     41880     41879     41881     41882     41883     41882     41884
     41885     41886     41885     41887     41888     41889     41888     41890
     41891     41892     41891     41893     41894     41895     41894     41896
     41897     41898     41897     41899     41900     41901     41900     41902
     41903     41904     41903     41905     41906     41907     41906     41908
     41909     41910     41909     41911     41912     41913     41912     41914
     41915     41916     41915     41917     41918     41919     41918     41920
     41921     41922     41921     41923     41924     41925     41924     41926
     41927     41928     41927     41929     41930     41931     41930     41932
     41933     41934     41933     41935     41936     41937     41936     41938
     41939     41940     41939     41941     41942     41943     41942     41944
     41945     41946     41945     41947     41948     41949     41948     41950
     41951     41952     41951     41953     41954     41955     41954     41956
     41957     41958     41957     41959     41960     41961     41960     41962
     41963     41964     41963     41965     41966     41967     41966     41968
     41969     41970     41969     41971     41972     41973     41972     41974
     41975     41976     41975     41977     41978     41979     41978     41980
     41981     41982     41981     41983     41984     41985     41984     41986
     41987     41988     41987     41989     41990     41991     41990     41992
     41993     41994     41993     41995     41996     41997     41996     41998
     41999     42000     41999     42001     42002     42003     42002     42004
     42005     42006     42005     42007     42008     42009     42008     42010
     42011     42012     42011     42013     42014     42015     42014     42016
     42017     42018     42017     42019     42020     42021     42020     42022
     42023     42024     42023     42025     42026     42027     42026     42028
     42029     42030     42029     42031     42032     42033     42032     42034
     42035     42036     42035     42037     42038     42039     42038     42040
     42041     42042     42041     42043     42044     42045     42044     42046
     42047     42048     42047     42049     42050     42051     42050     42052
     42053     42054     42053     42055     42056     42057     42056     42058
     42059     42060     42059     42061     42062     42063     42062     42064
     42065     42066     42065     42067     42068     42069     42068     42070
     42071     42072     42071     42073     42074     42075     42074     42076
     42077     42078     42077     42079     42080     42081     42080     42082
     42083     42084     42083     42085     42086     42087     42086     42088
     42089     42090     42089     42091     42092     42093     42092     42094
     42095     42096     42095     42097     42098     42099     42098     42100
     42101     42102     42101     42103     42104     42105     42104     42106
     42107     42108     42107     42109     42110     42111     42110     42112
     42113     42114     42113     42115     42116     42117     42116     42118
     42119     42120     42119     42121     42122     42123     42122     42124
     42125     42126     42125     42127     42128     42129     42128     42130
     42131     42132     42131     42133     42134     42135     42134     42136
     42137     42138     42137     42139     42140     42141     42140     42142
     42143     42144     42143     42145     42146     42147     42146     42148
     42149     42150     42149     42151     42152     42153     42152     42154
     42155     42156     42155     42157     42158     42159     42158     42160
     42161     42162     42161     42163     42164     42165     42164     42166
     42167     42168     42167     42169     42170     42171     42170     42172
     42173     42174     42173     42175     42176     42177     42176     42178
     42179     42180     42179     42181     42182     42183     42182     42184
     42185     42186     42185     42187     42188     42189     42188     42190
     42191     42192     42191     42193     42194     42195     42194     42196
     42197     42198     42197     42199     42200     42201     42200     42202
     42203     42204     42203     42205     42206     42207     42206     42208
     42209     42210     42209     42211     42212     42213     42212     42214
     42215     42216     42215     42217     42218     42219     42218     42220
     42221     42222     42221     42223     42224     42225     42224     42226
     42227     42228     42227     42229     42230     42231     42230     42232
     42233     42234     42233     42235     42236     42237     42236     42238
     42239     42240     42239     42241     42242     42243     42242     42244
     42245     42246     42245     42247     42248     42249     42248     42250
     42251     42252     42251     42253     42254     42255     42254     42256
     42257     42258     42257     42259     42260     42261     42260     42262
     42263     42264     42263     42265     42266     42267     42266     42268
     42269     42270     42269     42271     42272     42273     42272     42274
     42275     42276     42275     42277     42278     42279     42278     42280
     42281     42282     42281     42283     42284     42285     42284     42286
     42287     42288     42287     42289     42290     42291     42290     42292
     42293     42294     42293     42295     42296     42297     42296     42298
     42299     42300     42299     42301     42302     42303     42302     42304
     42305     42306     42305     42307     42308     42309     42308     42310
     42311     42312     42311     42313     42314     42315     42314     42316
     42317     42318     42317     42319     42320     42321     42320     42322
     42323     42324     42323     42325     42326     42327     42326     42328
     42329     42330     42329     42331     42332     42333     42332     42334
     42335     42336     42335     42337     42338     42339     42338     42340
     42341     42342     42341     42343     42344     42345     42344     42346
     42347     42348     42347     42349     42350     42351     42350     42352
     42353     42354     42353     42355     42356     42357     42356     42358
     42359     42360     42359     42361     42362     42363     42362     42364
     42365     42366     42365     42367     42368     42369     42368     42370
     42371     42372     42371     42373     42374     42375     42374     42376
     42377     42378     42377     42379     42380     42381     42380     42382
     42383     42384     42383     42385     42386     42387     42386     42388
     42389     42390     42389     42391     42392     42393     42392     42394
     42395     42396     42395     42397     42398     42399     42398     42400
     42401     42402     42401     42403     42404     42405     42404     42406
     42407     42408     42407     42409     42410     42411     42410     42412
     42413     42414     42413     42415     42416     42417     42416     42418
     42419     42420     42419     42421     42422     42423     42422     42424
     42425     42426     42425     42427     42428     42429     42428     42430
     42431     42432     42431     42433     42434     42435     42434     42436
     42437     42438     42437     42439     42440     42441     42440     42442
     42443     42444     42443     42445     42446     42447     42446     42448
     42449     42450     42449     42451     42452     42453     42452     42454
     42455     42456     42455     42457     42458     42459     42458     42460
     42461     42462     42461     42463     42464     42465     42464     42466
     42467     42468     42467     42469     42470     42471     42470     42472
     42473     42474     42473     42475     42476     42477     42476     42478
     42479     42480     42479     42481     42482     42483     42482     42484
     42485     42486     42485     42487     42488     42489     42488     42490
     42491     42492     42491     42493     42494     42495     42494     42496
     42497     42498     42497     42499     42500     42501     42500     42502
     42503     42504     42503     42505     42506     42507     42506     42508
     42509     42510     42509     42511     42512     42513     42512     42514
     42515     42516     42515     42517     42518     42519     42518     42520
     42521     42522     42521     42523     42524     42525     42524     42526
     42527     42528     42527     42529     42530     42531     42530     42532
     42533     42534     42533     42535     42536     42537     42536     42538
     42539     42540     42539     42541     42542     42543     42542     42544
     42545     42546     42545     42547     42548     42549     42548     42550
     42551     42552     42551     42553     42554     42555     42554     42556
     42557     42558     42557     42559     42560     42561     42560     42562
     42563     42564     42563     42565     42566     42567     42566     42568
     42569     42570     42569     42571     42572     42573     42572     42574
     42575     42576     42575     42577     42578     42579     42578     42580
     42581     42582     42581     42583     42584     42585     42584     42586
     42587     42588     42587     42589     42590     42591     42590     42592
     42593     42594     42593     42595     42596     42597     42596     42598
     42599     42600     42599     42601     42602     42603     42602     42604
     42605     42606     42605     42607     42608     42609     42608     42610
     42611     42612     42611     42613     42614     42615     42614     42616
     42617     42618     42617     42619     42620     42621     42620     42622
     42623     42624     42623     42625     42626     42627     42626     42628
     42629     42630     42629     42631     42632     42633     42632     42634
     42635     42636     42635     42637     42638     42639     42638     42640
     42641     42642     42641     42643     42644     42645     42644     42646
     42647     42648     42647     42649     42650     42651     42650     42652
     42653     42654     42653     42655     42656     42657     42656     42658
     42659     42660     42659     42661     42662     42663     42662     42664
     42665     42666     42665     42667     42668     42669     42668     42670
     42671     42672     42671     42673     42674     42675     42674     42676
     42677     42678     42677     42679     42680     42681     42680     42682
     42683     42684     42683     42685     42686     42687     42686     42688
     42689     42690     42689     42691     42692     42693     42692     42694
     42695     42696     42695     42697     42698     42699     42698     42700
     42701     42702     42701     42703     42704     42705     42704     42706
     42707     42708     42707     42709     42710     42711     42710     42712
     42713     42714     42713     42715     42716     42717     42716     42718
     42719     42720     42719     42721     42722     42723     42722     42724
     42725     42726     42725     42727     42728     42729     42728     42730
     42731     42732     42731     42733     42734     42735     42734     42736
     42737     42738     42737     42739     42740     42741     42740     42742
     42743     42744     42743     42745     42746     42747     42746     42748
     42749     42750     42749     42751     42752     42753     42752     42754
     42755     42756     42755     42757     42758     42759     42758     42760
     42761     42762     42761     42763     42764     42765     42764     42766
     42767     42768     42767     42769     42770     42771     42770     42772
     42773     42774     42773     42775     42776     42777     42776     42778
     42779     42780     42779     42781     42782     42783     42782     42784
     42785     42786     42785     42787     42788     42789     42788     42790
     42791     42792     42791     42793     42794     42795     42794     42796
     42797     42798     42797     42799     42800     42801     42800     42802
     42803     42804     42803     42805     42806     42807     42806     42808
     42809     42810     42809     42811     42812     42813     42812     42814
     42815     42816     42815     42817     42818     42819     42818     42820
     42821     42822     42821     42823     42824     42825     42824     42826
     42827     42828     42827     42829     42830     42831     42830     42832
     42833     42834     42833     42835     42836     42837     42836     42838
     42839     42840     42839     42841     42842     42843     42842     42844
     42845     42846     42845     42847     42848     42849     42848     42850
     42851     42852     42851     42853     42854     42855     42854     42856
     42857     42858     42857     42859     42860     42861     42860     42862
     42863     42864     42863     42865     42866     42867     42866     42868
     42869     42870     42869     42871     42872     42873     42872     42874
     42875     42876     42875     42877     42878     42879     42878     42880
     42881     42882     42881     42883     42884     42885     42884     42886
     42887     42888     42887     42889     42890     42891     42890     42892
     42893     42894     42893     42895     42896     42897     42896     42898
     42899     42900     42899     42901     42902     42903     42902     42904
     42905     42906     42905     42907     42908     42909     42908     42910
     42911     42912     42911     42913     42914     42915     42914     42916
     42917     42918     42917     42919     42920     42921     42920     42922
     42923     42924     42923     42925     42926     42927     42926     42928
     42929     42930     42929     42931     42932     42933     42932     42934
     42935     42936     42935     42937     42938     42939     42938     42940
     42941     42942     42941     42943     42944     42945     42944     42946
     42947     42948     42947     42949     42950     42951     42950     42952
     42953     42954     42953     42955     42956     42957     42956     42958
     42959     42960     42959     42961     42962     42963     42962     42964
     42965     42966     42965     42967     42968     42969     42968     42970
     42971     42972     42971     42973     42974     42975     42974     42976
     42977     42978     42977     42979     42980     42981     42980     42982
     42983     42984     42983     42985     42986     42987     42986     42988
     42989     42990     42989     42991     42992     42993     42992     42994
     42995     42996     42995     42997     42998     42999     42998     43000
     43001     43002     43001     43003     43004     43005     43004     43006
     43007     43008     43007     43009     43010     43011     43010     43012
     43013     43014     43013     43015     43016     43017     43016     43018
     43019     43020     43019     43021     43022     43023     43022     43024
     43025     43026     43025     43027     43028     43029     43028     43030
     43031     43032     43031     43033     43034     43035     43034     43036
     43037     43038     43037     43039     43040     43041     43040     43042
     43043     43044     43043     43045     43046     43047     43046     43048
     43049     43050     43049     43051     43052     43053     43052     43054
     43055     43056     43055     43057     43058     43059     43058     43060
     43061     43062     43061     43063     43064     43065     43064     43066
     43067     43068     43067     43069     43070     43071     43070     43072
     43073     43074     43073     43075     43076     43077     43076     43078
     43079     43080     43079     43081     43082     43083     43082     43084
     43085     43086     43085     43087     43088     43089     43088     43090
     43091     43092     43091     43093     43094     43095     43094     43096
     43097     43098     43097     43099     43100     43101     43100     43102
     43103     43104     43103     43105     43106     43107     43106     43108
     43109     43110     43109     43111     43112     43113     43112     43114
     43115     43116     43115     43117     43118     43119     43118     43120
     43121     43122     43121     43123     43124     43125     43124     43126
     43127     43128     43127     43129     43130     43131     43130     43132
     43133     43134     43133     43135     43136     43137     43136     43138
     43139     43140     43139     43141     43142     43143     43142     43144
     43145     43146     43145     43147     43148     43149     43148     43150
     43151     43152     43151     43153     43154     43155     43154     43156
     43157     43158     43157     43159     43160     43161     43160     43162
     43163     43164     43163     43165     43166     43167     43166     43168
     43169     43170     43169     43171     43172     43173     43172     43174
     43175     43176     43175     43177     43178     43179     43178     43180
     43181     43182     43181     43183     43184     43185     43184     43186
     43187     43188     43187     43189     43190     43191     43190     43192
     43193     43194     43193     43195     43196     43197     43196     43198
     43199     43200     43199     43201     43202     43203     43202     43204
     43205     43206     43205     43207     43208     43209     43208     43210
     43211     43212     43211     43213     43214     43215     43214     43216
     43217     43218     43217     43219     43220     43221     43220     43222
     43223     43224     43223     43225     43226     43227     43226     43228
     43229     43230     43229     43231     43232     43233     43232     43234
     43235     43236     43235     43237     43238     43239     43238     43240
     43241     43242     43241     43243     43244     43245     43244     43246
     43247     43248     43247     43249     43250     43251     43250     43252
     43253     43254     43253     43255     43256     43257     43256     43258
     43259     43260     43259     43261     43262     43263     43262     43264
     43265     43266     43265     43267     43268     43269     43268     43270
     43271     43272     43271     43273     43274     43275     43274     43276
     43277     43278     43277     43279     43280     43281     43280     43282
     43283     43284     43283     43285     43286     43287     43286     43288
     43289     43290     43289     43291     43292     43293     43292     43294
     43295     43296     43295     43297     43298     43299     43298     43300
     43301     43302     43301     43303     43304     43305     43304     43306
     43307     43308     43307     43309     43310     43311     43310     43312
     43313     43314     43313     43315     43316     43317     43316     43318
     43319     43320     43319     43321     43322     43323     43322     43324
     43325     43326     43325     43327     43328     43329     43328     43330
     43331     43332     43331     43333     43334     43335     43334     43336
     43337     43338     43337     43339     43340     43341     43340     43342
     43343     43344     43343     43345     43346     43347     43346     43348
     43349     43350     43349     43351     43352     43353     43352     43354
     43355     43356     43355     43357     43358     43359     43358     43360
     43361     43362     43361     43363     43364     43365     43364     43366
     43367     43368     43367     43369     43370     43371     43370     43372
     43373     43374     43373     43375     43376     43377     43376     43378
     43379     43380     43379     43381     43382     43383     43382     43384
     43385     43386     43385     43387     43388     43389     43388     43390
     43391     43392     43391     43393     43394     43395     43394     43396
     43397     43398     43397     43399     43400     43401     43400     43402
     43403     43404     43403     43405     43406     43407     43406     43408
     43409     43410     43409     43411     43412     43413     43412     43414
     43415     43416     43415     43417     43418     43419     43418     43420
     43421     43422     43421     43423     43424     43425     43424     43426
     43427     43428     43427     43429     43430     43431     43430     43432
     43433     43434     43433     43435     43436     43437     43436     43438
     43439     43440     43439     43441     43442     43443     43442     43444
     43445     43446     43445     43447     43448     43449     43448     43450
     43451     43452     43451     43453     43454     43455     43454     43456
     43457     43458     43457     43459     43460     43461     43460     43462
     43463     43464     43463     43465     43466     43467     43466     43468
     43469     43470     43469     43471     43472     43473     43472     43474
     43475     43476     43475     43477     43478     43479     43478     43480
     43481     43482     43481     43483     43484     43485     43484     43486
     43487     43488     43487     43489     43490     43491     43490     43492
     43493     43494     43493     43495     43496     43497     43496     43498
     43499     43500     43499     43501     43502     43503     43502     43504
     43505     43506     43505     43507     43508     43509     43508     43510
     43511     43512     43511     43513     43514     43515     43514     43516
     43517     43518     43517     43519     43520     43521     43520     43522
     43523     43524     43523     43525     43526     43527     43526     43528
     43529     43530     43529     43531     43532     43533     43532     43534
     43535     43536     43535     43537     43538     43539     43538     43540
     43541     43542     43541     43543     43544     43545     43544     43546
     43547     43548     43547     43549     43550     43551     43550     43552
     43553     43554     43553     43555     43556     43557     43556     43558
     43559     43560     43559     43561     43562     43563     43562     43564
     43565     43566     43565     43567     43568     43569     43568     43570
     43571     43572     43571     43573     43574     43575     43574     43576
     43577     43578     43577     43579     43580     43581     43580     43582
     43583     43584     43583     43585     43586     43587     43586     43588
     43589     43590     43589     43591     43592     43593     43592     43594
     43595     43596     43595     43597     43598     43599     43598     43600
     43601     43602     43601     43603     43604     43605     43604     43606
     43607     43608     43607     43609     43610     43611     43610     43612
     43613     43614     43613     43615     43616     43617     43616     43618
     43619     43620     43619     43621     43622     43623     43622     43624
     43625     43626     43625     43627     43628     43629     43628     43630
     43631     43632     43631     43633     43634     43635     43634     43636
     43637     43638     43637     43639     43640     43641     43640     43642
     43643     43644     43643     43645     43646     43647     43646     43648
     43649     43650     43649     43651     43652     43653     43652     43654
     43655     43656     43655     43657     43658     43659     43658     43660
     43661     43662     43661     43663     43664     43665     43664     43666
     43667     43668     43667     43669     43670     43671     43670     43672
     43673     43674     43673     43675     43676     43677     43676     43678
     43679     43680     43679     43681     43682     43683     43682     43684
     43685     43686     43685     43687     43688     43689     43688     43690
     43691     43692     43691     43693     43694     43695     43694     43696
     43697     43698     43697     43699     43700     43701     43700     43702
     43703     43704     43703     43705     43706     43707     43706     43708
     43709     43710     43709     43711     43712     43713     43712     43714
     43715     43716     43715     43717     43718     43719     43718     43720
     43721     43722     43721     43723     43724     43725     43724     43726
     43727     43728     43727     43729     43730     43731     43730     43732
     43733     43734     43733     43735     43736     43737     43736     43738
     43739     43740     43739     43741     43742     43743     43742     43744
     43745     43746     43745     43747     43748     43749     43748     43750
     43751     43752     43751     43753     43754     43755     43754     43756
     43757     43758     43757     43759     43760     43761     43760     43762
     43763     43764     43763     43765     43766     43767     43766     43768
     43769     43770     43769     43771     43772     43773     43772     43774
     43775     43776     43775     43777     43778     43779     43778     43780
     43781     43782     43781     43783     43784     43785     43784     43786
     43787     43788     43787     43789     43790     43791     43790     43792
     43793     43794     43793     43795     43796     43797     43796     43798
     43799     43800     43799     43801     43802     43803     43802     43804
     43805     43806     43805     43807     43808     43809     43808     43810
     43811     43812     43811     43813     43814     43815     43814     43816
     43817     43818     43817     43819     43820     43821     43820     43822
     43823     43824     43823     43825     43826     43827     43826     43828
     43829     43830     43829     43831     43832     43833     43832     43834
     43835     43836     43835     43837     43838     43839     43838     43840
     43841     43842     43841     43843     43844     43845     43844     43846
     43847     43848     43847     43849     43850     43851     43850     43852
     43853     43854     43853     43855     43856     43857     43856     43858
     43859     43860     43859     43861     43862     43863     43862     43864
     43865     43866     43865     43867     43868     43869     43868     43870
     43871     43872     43871     43873     43874     43875     43874     43876
     43877     43878     43877     43879     43880     43881     43880     43882
     43883     43884     43883     43885     43886     43887     43886     43888
     43889     43890     43889     43891     43892     43893     43892     43894
     43895     43896     43895     43897     43898     43899     43898     43900
     43901     43902     43901     43903     43904     43905     43904     43906
     43907     43908     43907     43909     43910     43911     43910     43912
     43913     43914     43913     43915     43916     43917     43916     43918
     43919     43920     43919     43921     43922     43923     43922     43924
     43925     43926     43925     43927     43928     43929     43928     43930
     43931     43932     43931     43933     43934     43935     43934     43936
     43937     43938     43937     43939     43940     43941     43940     43942
     43943     43944     43943     43945     43946     43947     43946     43948
     43949     43950     43949     43951     43952     43953     43952     43954
     43955     43956     43955     43957     43958     43959     43958     43960
     43961     43962     43961     43963     43964     43965     43964     43966
     43967     43968     43967     43969     43970     43971     43970     43972
     43973     43974     43973     43975     43976     43977     43976     43978
     43979     43980     43979     43981     43982     43983     43982     43984
     43985     43986     43985     43987     43988     43989     43988     43990
     43991     43992     43991     43993     43994     43995     43994     43996
     43997     43998     43997     43999     44000     44001     44000     44002
     44003     44004     44003     44005     44006     44007     44006     44008
     44009     44010     44009     44011     44012     44013     44012     44014
     44015     44016     44015     44017     44018     44019     44018     44020
     44021     44022     44021     44023     44024     44025     44024     44026
     44027     44028     44027     44029     44030     44031     44030     44032
     44033     44034     44033     44035     44036     44037     44036     44038
     44039     44040     44039     44041     44042     44043     44042     44044
     44045     44046     44045     44047     44048     44049     44048     44050
     44051     44052     44051     44053     44054     44055     44054     44056
     44057     44058     44057     44059     44060     44061     44060     44062
     44063     44064     44063     44065     44066     44067     44066     44068
     44069     44070     44069     44071     44072     44073     44072     44074
     44075     44076     44075     44077     44078     44079     44078     44080
     44081     44082     44081     44083     44084     44085     44084     44086
     44087     44088     44087     44089     44090     44091     44090     44092
     44093     44094     44093     44095     44096     44097     44096     44098
     44099     44100     44099     44101     44102     44103     44102     44104
     44105     44106     44105     44107     44108     44109     44108     44110
     44111     44112     44111     44113     44114     44115     44114     44116
     44117     44118     44117     44119     44120     44121     44120     44122
     44123     44124     44123     44125     44126     44127     44126     44128
     44129     44130     44129     44131     44132     44133     44132     44134
     44135     44136     44135     44137     44138     44139     44138     44140
     44141     44142     44141     44143     44144     44145     44144     44146
     44147     44148     44147     44149     44150     44151     44150     44152
     44153     44154     44153     44155     44156     44157     44156     44158
     44159     44160     44159     44161     44162     44163     44162     44164
     44165     44166     44165     44167     44168     44169     44168     44170
     44171     44172     44171     44173     44174     44175     44174     44176
     44177     44178     44177     44179     44180     44181     44180     44182
     44183     44184     44183     44185     44186     44187     44186     44188
     44189     44190     44189     44191     44192     44193     44192     44194
     44195     44196     44195     44197     44198     44199     44198     44200
     44201     44202     44201     44203     44204     44205     44204     44206
     44207     44208     44207     44209     44210     44211     44210     44212
     44213     44214     44213     44215     44216     44217     44216     44218
     44219     44220     44219     44221     44222     44223     44222     44224
     44225     44226     44225     44227     44228     44229     44228     44230
     44231     44232     44231     44233     44234     44235     44234     44236
     44237     44238     44237     44239     44240     44241     44240     44242
     44243     44244     44243     44245     44246     44247     44246     44248
     44249     44250     44249     44251     44252     44253     44252     44254
     44255     44256     44255     44257     44258     44259     44258     44260
     44261     44262     44261     44263     44264     44265     44264     44266
     44267     44268     44267     44269     44270     44271     44270     44272
     44273     44274     44273     44275     44276     44277     44276     44278
     44279     44280     44279     44281     44282     44283     44282     44284
     44285     44286     44285     44287     44288     44289     44288     44290
     44291     44292     44291     44293     44294     44295     44294     44296
     44297     44298     44297     44299     44300     44301     44300     44302
     44303     44304     44303     44305     44306     44307     44306     44308
     44309     44310     44309     44311     44312     44313     44312     44314
     44315     44316     44315     44317     44318     44319     44318     44320
     44321     44322     44321     44323     44324     44325     44324     44326
     44327     44328     44327     44329     44330     44331     44330     44332
     44333     44334     44333     44335     44336     44337     44336     44338
     44339     44340     44339     44341     44342     44343     44342     44344
     44345     44346     44345     44347     44348     44349     44348     44350
     44351     44352     44351     44353     44354     44355     44354     44356
     44357     44358     44357     44359     44360     44361     44360     44362
     44363     44364     44363     44365     44366     44367     44366     44368
     44369     44370     44369     44371     44372     44373     44372     44374
     44375     44376     44375     44377     44378     44379     44378     44380
     44381     44382     44381     44383     44384     44385     44384     44386
     44387     44388     44387     44389     44390     44391     44390     44392
     44393     44394     44393     44395     44396     44397     44396     44398
     44399     44400     44399     44401     44402     44403     44402     44404
     44405     44406     44405     44407     44408     44409     44408     44410
     44411     44412     44411     44413     44414     44415     44414     44416
     44417     44418     44417     44419     44420     44421     44420     44422
     44423     44424     44423     44425     44426     44427     44426     44428
     44429     44430     44429     44431     44432     44433     44432     44434
     44435     44436     44435     44437     44438     44439     44438     44440
     44441     44442     44441     44443     44444     44445     44444     44446
     44447     44448     44447     44449     44450     44451     44450     44452
     44453     44454     44453     44455     44456     44457     44456     44458
     44459     44460     44459     44461     44462     44463     44462     44464
     44465     44466     44465     44467     44468     44469     44468     44470
     44471     44472     44471     44473     44474     44475     44474     44476
     44477     44478     44477     44479     44480     44481     44480     44482
     44483     44484     44483     44485     44486     44487     44486     44488
     44489     44490     44489     44491     44492     44493     44492     44494
     44495     44496     44495     44497     44498     44499     44498     44500
     44501     44502     44501     44503     44504     44505     44504     44506
     44507     44508     44507     44509     44510     44511     44510     44512
     44513     44514     44513     44515     44516     44517     44516     44518
     44519     44520     44519     44521     44522     44523     44522     44524
     44525     44526     44525     44527     44528     44529     44528     44530
     44531     44532     44531     44533     44534     44535     44534     44536
     44537     44538     44537     44539     44540     44541     44540     44542
     44543     44544     44543     44545     44546     44547     44546     44548
     44549     44550     44549     44551     44552     44553     44552     44554
     44555     44556     44555     44557     44558     44559     44558     44560
     44561     44562     44561     44563     44564     44565     44564     44566
     44567     44568     44567     44569     44570     44571     44570     44572
     44573     44574     44573     44575     44576     44577     44576     44578
     44579     44580     44579     44581     44582     44583     44582     44584
     44585     44586     44585     44587     44588     44589     44588     44590
     44591     44592     44591     44593     44594     44595     44594     44596
     44597     44598     44597     44599     44600     44601     44600     44602
     44603     44604     44603     44605     44606     44607     44606     44608
     44609     44610     44609     44611     44612     44613     44612     44614
     44615     44616     44615     44617     44618     44619     44618     44620
     44621     44622     44621     44623     44624     44625     44624     44626
     44627     44628     44627     44629     44630     44631     44630     44632
     44633     44634     44633     44635     44636     44637     44636     44638
     44639     44640     44639     44641     44642     44643     44642     44644
     44645     44646     44645     44647     44648     44649     44648     44650
     44651     44652     44651     44653     44654     44655     44654     44656
     44657     44658     44657     44659     44660     44661     44660     44662
     44663     44664     44663     44665     44666     44667     44666     44668
     44669     44670     44669     44671     44672     44673     44672     44674
     44675     44676     44675     44677     44678     44679     44678     44680
     44681     44682     44681     44683     44684     44685     44684     44686
     44687     44688     44687     44689     44690     44691     44690     44692
     44693     44694     44693     44695     44696     44697     44696     44698
     44699     44700     44699     44701     44702     44703     44702     44704
     44705     44706     44705     44707     44708     44709     44708     44710
     44711     44712     44711     44713     44714     44715     44714     44716
     44717     44718     44717     44719     44720     44721     44720     44722
     44723     44724     44723     44725     44726     44727     44726     44728
     44729     44730     44729     44731     44732     44733     44732     44734
     44735     44736     44735     44737     44738     44739     44738     44740
     44741     44742     44741     44743     44744     44745     44744     44746
     44747     44748     44747     44749     44750     44751     44750     44752
     44753     44754     44753     44755     44756     44757     44756     44758
     44759     44760     44759     44761     44762     44763     44762     44764
     44765     44766     44765     44767     44768     44769     44768     44770
     44771     44772     44771     44773     44774     44775     44774     44776
     44777     44778     44777     44779     44780     44781     44780     44782
     44783     44784     44783     44785     44786     44787     44786     44788
     44789     44790     44789     44791     44792     44793     44792     44794
     44795     44796     44795     44797     44798     44799     44798     44800
     44801     44802     44801     44803     44804     44805     44804     44806
     44807     44808     44807     44809     44810     44811     44810     44812
     44813     44814     44813     44815     44816     44817     44816     44818
     44819     44820     44819     44821     44822     44823     44822     44824
     44825     44826     44825     44827     44828     44829     44828     44830
     44831     44832     44831     44833     44834     44835     44834     44836
     44837     44838     44837     44839     44840     44841     44840     44842
     44843     44844     44843     44845     44846     44847     44846     44848
     44849     44850     44849     44851     44852     44853     44852     44854
     44855     44856     44855     44857     44858     44859     44858     44860
     44861     44862     44861     44863     44864     44865     44864     44866
     44867     44868     44867     44869     44870     44871     44870     44872
     44873     44874     44873     44875     44876     44877     44876     44878
     44879     44880     44879     44881     44882     44883     44882     44884
     44885     44886     44885     44887     44888     44889     44888     44890
     44891     44892     44891     44893     44894     44895     44894     44896
     44897     44898     44897     44899     44900     44901     44900     44902
     44903     44904     44903     44905     44906     44907     44906     44908
     44909     44910     44909     44911     44912     44913     44912     44914
     44915     44916     44915     44917     44918     44919     44918     44920
     44921     44922     44921     44923     44924     44925     44924     44926
     44927     44928     44927     44929     44930     44931     44930     44932
     44933     44934     44933     44935     44936     44937     44936     44938
     44939     44940     44939     44941     44942     44943     44942     44944
     44945     44946     44945     44947     44948     44949     44948     44950
     44951     44952     44951     44953     44954     44955     44954     44956
     44957     44958     44957     44959     44960     44961     44960     44962
     44963     44964     44963     44965     44966     44967     44966     44968
     44969     44970     44969     44971     44972     44973     44972     44974
     44975     44976     44975     44977     44978     44979     44978     44980
     44981     44982     44981     44983     44984     44985     44984     44986
     44987     44988     44987     44989     44990     44991     44990     44992
     44993     44994     44993     44995     44996     44997     44996     44998
     44999     45000     44999     45001     45002     45003     45002     45004
     45005     45006     45005     45007     45008     45009     45008     45010
     45011     45012     45011     45013     45014     45015     45014     45016
     45017     45018     45017     45019     45020     45021     45020     45022
     45023     45024     45023     45025     45026     45027     45026     45028
     45029     45030     45029     45031     45032     45033     45032     45034
     45035     45036     45035     45037     45038     45039     45038     45040
     45041     45042     45041     45043     45044     45045     45044     45046
     45047     45048     45047     45049     45050     45051     45050     45052
     45053     45054     45053     45055     45056     45057     45056     45058
     45059     45060     45059     45061     45062     45063     45062     45064
     45065     45066     45065     45067     45068     45069     45068     45070
     45071     45072     45071     45073     45074     45075     45074     45076
     45077     45078     45077     45079     45080     45081     45080     45082
     45083     45084     45083     45085     45086     45087     45086     45088
     45089     45090     45089     45091     45092     45093     45092     45094
     45095     45096     45095     45097     45098     45099     45098     45100
     45101     45102     45101     45103     45104     45105     45104     45106
     45107     45108     45107     45109     45110     45111     45110     45112
     45113     45114     45113     45115     45116     45117     45116     45118
     45119     45120     45119     45121     45122     45123     45122     45124
     45125     45126     45125     45127     45128     45129     45128     45130
     45131     45132     45131     45133     45134     45135     45134     45136
     45137     45138     45137     45139     45140     45141     45140     45142
     45143     45144     45143     45145     45146     45147     45146     45148
     45149     45150     45149     45151     45152     45153     45152     45154
     45155     45156     45155     45157     45158     45159     45158     45160
     45161     45162     45161     45163     45164     45165     45164     45166
     45167     45168     45167     45169     45170     45171     45170     45172
     45173     45174     45173     45175     45176     45177     45176     45178
     45179     45180     45179     45181     45182     45183     45182     45184
     45185     45186     45185     45187     45188     45189     45188     45190
     45191     45192     45191     45193     45194     45195     45194     45196
     45197     45198     45197     45199     45200     45201     45200     45202
     45203     45204     45203     45205     45206     45207     45206     45208
     45209     45210     45209     45211     45212     45213     45212     45214
     45215     45216     45215     45217     45218     45219     45218     45220
     45221     45222     45221     45223     45224     45225     45224     45226
     45227     45228     45227     45229     45230     45231     45230     45232
     45233     45234     45233     45235     45236     45237     45236     45238
     45239     45240     45239     45241     45242     45243     45242     45244
     45245     45246     45245     45247     45248     45249     45248     45250
     45251     45252     45251     45253     45254     45255     45254     45256
     45257     45258     45257     45259     45260     45261     45260     45262
     45263     45264     45263     45265     45266     45267     45266     45268
     45269     45270     45269     45271     45272     45273     45272     45274
     45275     45276     45275     45277     45278     45279     45278     45280
     45281     45282     45281     45283     45284     45285     45284     45286
     45287     45288     45287     45289     45290     45291     45290     45292
     45293     45294     45293     45295     45296     45297     45296     45298
     45299     45300     45299     45301     45302     45303     45302     45304
     45305     45306     45305     45307     45308     45309     45308     45310
     45311     45312     45311     45313     45314     45315     45314     45316
     45317     45318     45317     45319     45320     45321     45320     45322
     45323     45324     45323     45325     45326     45327     45326     45328
     45329     45330     45329     45331     45332     45333     45332     45334
     45335     45336     45335     45337     45338     45339     45338     45340
     45341     45342     45341     45343     45344     45345     45344     45346
     45347     45348     45347     45349     45350     45351     45350     45352
     45353     45354     45353     45355     45356     45357     45356     45358
     45359     45360     45359     45361     45362     45363     45362     45364
     45365     45366     45365     45367     45368     45369     45368     45370
     45371     45372     45371     45373     45374     45375     45374     45376
     45377     45378     45377     45379     45380     45381     45380     45382
     45383     45384     45383     45385     45386     45387     45386     45388
     45389     45390     45389     45391     45392     45393     45392     45394
     45395     45396     45395     45397     45398     45399     45398     45400
     45401     45402     45401     45403     45404     45405     45404     45406
     45407     45408     45407     45409     45410     45411     45410     45412
     45413     45414     45413     45415     45416     45417     45416     45418
     45419     45420     45419     45421     45422     45423     45422     45424
     45425     45426     45425     45427     45428     45429     45428     45430
     45431     45432     45431     45433     45434     45435     45434     45436
     45437     45438     45437     45439     45440     45441     45440     45442
     45443     45444     45443     45445     45446     45447     45446     45448
     45449     45450     45449     45451     45452     45453     45452     45454
     45455     45456     45455     45457     45458     45459     45458     45460
     45461     45462     45461     45463     45464     45465     45464     45466
     45467     45468     45467     45469     45470     45471     45470     45472
     45473     45474     45473     45475     45476     45477     45476     45478
     45479     45480     45479     45481     45482     45483     45482     45484
     45485     45486     45485     45487     45488     45489     45488     45490
     45491     45492     45491     45493     45494     45495     45494     45496
     45497     45498     45497     45499     45500     45501     45500     45502
     45503     45504     45503     45505     45506     45507     45506     45508
     45509     45510     45509     45511     45512     45513     45512     45514
     45515     45516     45515     45517     45518     45519     45518     45520
     45521     45522     45521     45523     45524     45525     45524     45526
     45527     45528     45527     45529     45530     45531     45530     45532
     45533     45534     45533     45535     45536     45537     45536     45538
     45539     45540     45539     45541     45542     45543     45542     45544
     45545     45546     45545     45547     45548     45549     45548     45550
     45551     45552     45551     45553     45554     45555     45554     45556
     45557     45558     45557     45559     45560     45561     45560     45562
     45563     45564     45563     45565     45566     45567     45566     45568
     45569     45570     45569     45571     45572     45573     45572     45574
     45575     45576     45575     45577     45578     45579     45578     45580
     45581     45582     45581     45583     45584     45585     45584     45586
     45587     45588     45587     45589     45590     45591     45590     45592
     45593     45594     45593     45595     45596     45597     45596     45598
     45599     45600     45599     45601     45602     45603     45602     45604
     45605     45606     45605     45607     45608     45609     45608     45610
     45611     45612     45611     45613     45614     45615     45614     45616
     45617     45618     45617     45619     45620     45621     45620     45622
     45623     45624     45623     45625     45626     45627     45626     45628
     45629     45630     45629     45631     45632     45633     45632     45634
     45635     45636     45635     45637     45638     45639     45638     45640
     45641     45642     45641     45643     45644     45645     45644     45646
     45647     45648     45647     45649     45650     45651     45650     45652
     45653     45654     45653     45655     45656     45657     45656     45658
     45659     45660     45659     45661     45662     45663     45662     45664
     45665     45666     45665     45667     45668     45669     45668     45670
     45671     45672     45671     45673     45674     45675     45674     45676
     45677     45678     45677     45679     45680     45681     45680     45682
     45683     45684     45683     45685     45686     45687     45686     45688
     45689     45690     45689     45691     45692     45693     45692     45694
     45695     45696     45695     45697     45698     45699     45698     45700
     45701     45702     45701     45703     45704     45705     45704     45706
     45707     45708     45707     45709     45710     45711     45710     45712
     45713     45714     45713     45715     45716     45717     45716     45718
     45719     45720     45719     45721     45722     45723     45722     45724
     45725     45726     45725     45727     45728     45729     45728     45730
     45731     45732     45731     45733     45734     45735     45734     45736
     45737     45738     45737     45739     45740     45741     45740     45742
     45743     45744     45743     45745     45746     45747     45746     45748
     45749     45750     45749     45751     45752     45753     45752     45754
     45755     45756     45755     45757     45758     45759     45758     45760
     45761     45762     45761     45763     45764     45765     45764     45766
     45767     45768     45767     45769     45770     45771     45770     45772
     45773     45774     45773     45775     45776     45777     45776     45778
     45779     45780     45779     45781     45782     45783     45782     45784
     45785     45786     45785     45787     45788     45789     45788     45790
     45791     45792     45791     45793     45794     45795     45794     45796
     45797     45798     45797     45799     45800     45801     45800     45802
     45803     45804     45803     45805     45806     45807     45806     45808
     45809     45810     45809     45811     45812     45813     45812     45814
     45815     45816     45815     45817     45818     45819     45818     45820
     45821     45822     45821     45823     45824     45825     45824     45826
     45827     45828     45827     45829     45830     45831     45830     45832
     45833     45834     45833     45835     45836     45837     45836     45838
     45839     45840     45839     45841     45842     45843     45842     45844
     45845     45846     45845     45847     45848     45849     45848     45850
     45851     45852     45851     45853     45854     45855     45854     45856
     45857     45858     45857     45859     45860     45861     45860     45862
     45863     45864     45863     45865     45866     45867     45866     45868
     45869     45870     45869     45871     45872     45873     45872     45874
     45875     45876     45875     45877     45878     45879     45878     45880
     45881     45882     45881     45883     45884     45885     45884     45886
     45887     45888     45887     45889     45890     45891     45890     45892
     45893     45894     45893     45895     45896     45897     45896     45898
     45899     45900     45899     45901     45902     45903     45902     45904
     45905     45906     45905     45907     45908     45909     45908     45910
     45911     45912     45911     45913     45914     45915     45914     45916
     45917     45918     45917     45919     45920     45921     45920     45922
     45923     45924     45923     45925     45926     45927     45926     45928
     45929     45930     45929     45931     45932     45933     45932     45934
     45935     45936     45935     45937     45938     45939     45938     45940
     45941     45942     45941     45943     45944     45945     45944     45946
     45947     45948     45947     45949     45950     45951     45950     45952
     45953     45954     45953     45955     45956     45957     45956     45958
     45959     45960     45959     45961     45962     45963     45962     45964
     45965     45966     45965     45967     45968     45969     45968     45970
     45971     45972     45971     45973     45974     45975     45974     45976
     45977     45978     45977     45979     45980     45981     45980     45982
     45983     45984     45983     45985     45986     45987     45986     45988
     45989     45990     45989     45991     45992     45993     45992     45994
     45995     45996     45995     45997     45998     45999     45998     46000
     46001     46002     46001     46003     46004     46005     46004     46006
     46007     46008     46007     46009     46010     46011     46010     46012
     46013     46014     46013     46015     46016     46017     46016     46018
     46019     46020     46019     46021     46022     46023     46022     46024
     46025     46026     46025     46027     46028     46029     46028     46030
     46031     46032     46031     46033     46034     46035     46034     46036
     46037     46038     46037     46039     46040     46041     46040     46042
     46043     46044     46043     46045     46046     46047     46046     46048
     46049     46050     46049     46051     46052     46053     46052     46054
     46055     46056     46055     46057     46058     46059     46058     46060
     46061     46062     46061     46063     46064     46065     46064     46066
     46067     46068     46067     46069     46070     46071     46070     46072
     46073     46074     46073     46075     46076     46077     46076     46078
     46079     46080     46079     46081     46082     46083     46082     46084
     46085     46086     46085     46087     46088     46089     46088     46090
     46091     46092     46091     46093     46094     46095     46094     46096
     46097     46098     46097     46099     46100     46101     46100     46102
     46103     46104     46103     46105     46106     46107     46106     46108
     46109     46110     46109     46111     46112     46113     46112     46114
     46115     46116     46115     46117     46118     46119     46118     46120
     46121     46122     46121     46123     46124     46125     46124     46126
     46127     46128     46127     46129     46130     46131     46130     46132
     46133     46134     46133     46135     46136     46137     46136     46138
     46139     46140     46139     46141     46142     46143     46142     46144
     46145     46146     46145     46147     46148     46149     46148     46150
     46151     46152     46151     46153     46154     46155     46154     46156
     46157     46158     46157     46159     46160     46161     46160     46162
     46163     46164     46163     46165     46166     46167     46166     46168
     46169     46170     46169     46171     46172     46173     46172     46174
     46175     46176     46175     46177     46178     46179     46178     46180
     46181     46182     46181     46183     46184     46185     46184     46186
     46187     46188     46187     46189     46190     46191     46190     46192
     46193     46194     46193     46195     46196     46197     46196     46198
     46199     46200     46199     46201     46202     46203     46202     46204
     46205     46206     46205     46207     46208     46209     46208     46210
     46211     46212     46211     46213     46214     46215     46214     46216
     46217     46218     46217     46219     46220     46221     46220     46222
     46223     46224     46223     46225     46226     46227     46226     46228
     46229     46230     46229     46231     46232     46233     46232     46234
     46235     46236     46235     46237     46238     46239     46238     46240
     46241     46242     46241     46243     46244     46245     46244     46246
     46247     46248     46247     46249     46250     46251     46250     46252
     46253     46254     46253     46255     46256     46257     46256     46258
     46259     46260     46259     46261     46262     46263     46262     46264
     46265     46266     46265     46267     46268     46269     46268     46270
     46271     46272     46271     46273     46274     46275     46274     46276
     46277     46278     46277     46279     46280     46281     46280     46282
     46283     46284     46283     46285     46286     46287     46286     46288
     46289     46290     46289     46291     46292     46293     46292     46294
     46295     46296     46295     46297     46298     46299     46298     46300
     46301     46302     46301     46303     46304     46305     46304     46306
     46307     46308     46307     46309     46310     46311     46310     46312
     46313     46314     46313     46315     46316     46317     46316     46318
     46319     46320     46319     46321     46322     46323     46322     46324
     46325     46326     46325     46327     46328     46329     46328     46330
     46331     46332     46331     46333     46334     46335     46334     46336
     46337     46338     46337     46339     46340     46341     46340     46342
     46343     46344     46343     46345     46346     46347     46346     46348
     46349     46350     46349     46351     46352     46353     46352     46354
     46355     46356     46355     46357     46358     46359     46358     46360
     46361     46362     46361     46363     46364     46365     46364     46366
     46367     46368     46367     46369     46370     46371     46370     46372
     46373     46374     46373     46375     46376     46377     46376     46378
     46379     46380     46379     46381     46382     46383     46382     46384
     46385     46386     46385     46387     46388     46389     46388     46390
     46391     46392     46391     46393     46394     46395     46394     46396
     46397     46398     46397     46399     46400     46401     46400     46402
     46403     46404     46403     46405     46406     46407     46406     46408
     46409     46410     46409     46411     46412     46413     46412     46414
     46415     46416     46415     46417     46418     46419     46418     46420
     46421     46422     46421     46423     46424     46425     46424     46426
     46427     46428     46427     46429     46430     46431     46430     46432
     46433     46434     46433     46435     46436     46437     46436     46438
     46439     46440     46439     46441     46442     46443     46442     46444
     46445     46446     46445     46447     46448     46449     46448     46450
     46451     46452     46451     46453     46454     46455     46454     46456
     46457     46458     46457     46459     46460     46461     46460     46462
     46463     46464     46463     46465     46466     46467     46466     46468
     46469     46470     46469     46471     46472     46473     46472     46474
     46475     46476     46475     46477     46478     46479     46478     46480
     46481     46482     46481     46483     46484     46485     46484     46486
     46487     46488     46487     46489     46490     46491     46490     46492
     46493     46494     46493     46495     46496     46497     46496     46498
     46499     46500     46499     46501     46502     46503     46502     46504
     46505     46506     46505     46507     46508     46509     46508     46510
     46511     46512     46511     46513     46514     46515     46514     46516
     46517     46518     46517     46519     46520     46521     46520     46522
     46523     46524     46523     46525     46526     46527     46526     46528
     46529     46530     46529     46531     46532     46533     46532     46534
     46535     46536     46535     46537     46538     46539     46538     46540
     46541     46542     46541     46543     46544     46545     46544     46546
     46547     46548     46547     46549     46550     46551     46550     46552
     46553     46554     46553     46555     46556     46557     46556     46558
     46559     46560     46559     46561     46562     46563     46562     46564
     46565     46566     46565     46567     46568     46569     46568     46570
     46571     46572     46571     46573     46574     46575     46574     46576
     46577     46578     46577     46579     46580     46581     46580     46582
     46583     46584     46583     46585     46586     46587     46586     46588
     46589     46590     46589     46591     46592     46593     46592     46594
     46595     46596     46595     46597     46598     46599     46598     46600
     46601     46602     46601     46603     46604     46605     46604     46606
     46607     46608     46607     46609     46610     46611     46610     46612
     46613     46614     46613     46615     46616     46617     46616     46618
     46619     46620     46619     46621     46622     46623     46622     46624
     46625     46626     46625     46627     46628     46629     46628     46630
     46631     46632     46631     46633     46634     46635     46634     46636
     46637     46638     46637     46639     46640     46641     46640     46642
     46643     46644     46643     46645     46646     46647     46646     46648
     46649     46650     46649     46651     46652     46653     46652     46654
     46655     46656     46655     46657     46658     46659     46658     46660
     46661     46662     46661     46663     46664     46665     46664     46666
     46667     46668     46667     46669     46670     46671     46670     46672
     46673     46674     46673     46675     46676     46677     46676     46678
     46679     46680     46679     46681     46682     46683     46682     46684
     46685     46686     46685     46687     46688     46689     46688     46690
     46691     46692     46691     46693     46694     46695     46694     46696
     46697     46698     46697     46699     46700     46701     46700     46702
     46703     46704     46703     46705     46706     46707     46706     46708
     46709     46710     46709     46711     46712     46713     46712     46714
     46715     46716     46715     46717     46718     46719     46718     46720
     46721     46722     46721     46723     46724     46725     46724     46726
     46727     46728     46727     46729     46730     46731     46730     46732
     46733     46734     46733     46735     46736     46737     46736     46738
     46739     46740     46739     46741     46742     46743     46742     46744
     46745     46746     46745     46747     46748     46749     46748     46750
     46751     46752     46751     46753     46754     46755     46754     46756
     46757     46758     46757     46759     46760     46761     46760     46762
     46763     46764     46763     46765     46766     46767     46766     46768
     46769     46770     46769     46771     46772     46773     46772     46774
     46775     46776     46775     46777     46778     46779     46778     46780
     46781     46782     46781     46783     46784     46785     46784     46786
     46787     46788     46787     46789     46790     46791     46790     46792
     46793     46794     46793     46795     46796     46797     46796     46798
     46799     46800     46799     46801     46802     46803     46802     46804
     46805     46806     46805     46807     46808     46809     46808     46810
     46811     46812     46811     46813     46814     46815     46814     46816
     46817     46818     46817     46819     46820     46821     46820     46822
     46823     46824     46823     46825     46826     46827     46826     46828
     46829     46830     46829     46831     46832     46833     46832     46834
     46835     46836     46835     46837     46838     46839     46838     46840
     46841     46842     46841     46843     46844     46845     46844     46846
     46847     46848     46847     46849     46850     46851     46850     46852
     46853     46854     46853     46855     46856     46857     46856     46858
     46859     46860     46859     46861     46862     46863     46862     46864
     46865     46866     46865     46867     46868     46869     46868     46870
     46871     46872     46871     46873     46874     46875     46874     46876
     46877     46878     46877     46879     46880     46881     46880     46882
     46883     46884     46883     46885     46886     46887     46886     46888
     46889     46890     46889     46891     46892     46893     46892     46894
     46895     46896     46895     46897     46898     46899     46898     46900
     46901     46902     46901     46903     46904     46905     46904     46906
     46907     46908     46907     46909     46910     46911     46910     46912
     46913     46914     46913     46915     46916     46917     46916     46918
     46919     46920     46919     46921     46922     46923     46922     46924
     46925     46926     46925     46927     46928     46929     46928     46930
     46931     46932     46931     46933     46934     46935     46934     46936
     46937     46938     46937     46939     46940     46941     46940     46942
     46943     46944     46943     46945     46946     46947     46946     46948
     46949     46950     46949     46951     46952     46953     46952     46954
     46955     46956     46955     46957     46958     46959     46958     46960
     46961     46962     46961     46963     46964     46965     46964     46966
     46967     46968     46967     46969     46970     46971     46970     46972
     46973     46974     46973     46975     46976     46977     46976     46978
     46979     46980     46979     46981     46982     46983     46982     46984
     46985     46986     46985     46987     46988     46989     46988     46990
     46991     46992     46991     46993     46994     46995     46994     46996
     46997     46998     46997     46999     47000     47001     47000     47002
     47003     47004     47003     47005     47006     47007     47006     47008
     47009     47010     47009     47011     47012     47013     47012     47014
     47015     47016     47015     47017     47018     47019     47018     47020
     47021     47022     47021     47023     47024     47025     47024     47026
     47027     47028     47027     47029     47030     47031     47030     47032
     47033     47034     47033     47035     47036     47037     47036     47038
     47039     47040     47039     47041     47042     47043     47042     47044
     47045     47046     47045     47047     47048     47049     47048     47050
     47051     47052     47051     47053     47054     47055     47054     47056
     47057     47058     47057     47059     47060     47061     47060     47062
     47063     47064     47063     47065     47066     47067     47066     47068
     47069     47070     47069     47071     47072     47073     47072     47074
     47075     47076     47075     47077     47078     47079     47078     47080
     47081     47082     47081     47083     47084     47085     47084     47086
     47087     47088     47087     47089     47090     47091     47090     47092
     47093     47094     47093     47095     47096     47097     47096     47098
     47099     47100     47099     47101     47102     47103     47102     47104
     47105     47106     47105     47107     47108     47109     47108     47110
     47111     47112     47111     47113     47114     47115     47114     47116
     47117     47118     47117     47119     47120     47121     47120     47122
     47123     47124     47123     47125     47126     47127     47126     47128
     47129     47130     47129     47131     47132     47133     47132     47134
     47135     47136     47135     47137     47138     47139     47138     47140
     47141     47142     47141     47143     47144     47145     47144     47146
     47147     47148     47147     47149     47150     47151     47150     47152
     47153     47154     47153     47155     47156     47157     47156     47158
     47159     47160     47159     47161     47162     47163     47162     47164
     47165     47166     47165     47167     47168     47169     47168     47170
     47171     47172     47171     47173     47174     47175     47174     47176
     47177     47178     47177     47179     47180     47181     47180     47182
     47183     47184     47183     47185     47186     47187     47186     47188
     47189     47190     47189     47191     47192     47193     47192     47194
     47195     47196     47195     47197     47198     47199     47198     47200
     47201     47202     47201     47203     47204     47205     47204     47206
     47207     47208     47207     47209     47210     47211     47210     47212
     47213     47214     47213     47215     47216     47217     47216     47218
     47219     47220     47219     47221     47222     47223     47222     47224
     47225     47226     47225     47227     47228     47229     47228     47230
     47231     47232     47231     47233     47234     47235     47234     47236
     47237     47238     47237     47239     47240     47241     47240     47242
     47243     47244     47243     47245     47246     47247     47246     47248
     47249     47250     47249     47251     47252     47253     47252     47254
     47255     47256     47255     47257     47258     47259     47258     47260
     47261     47262     47261     47263     47264     47265     47264     47266
     47267     47268     47267     47269     47270     47271     47270     47272
     47273     47274     47273     47275     47276     47277     47276     47278
     47279     47280     47279     47281     47282     47283     47282     47284
     47285     47286     47285     47287     47288     47289     47288     47290
     47291     47292     47291     47293     47294     47295     47294     47296
     47297     47298     47297     47299     47300     47301     47300     47302
     47303     47304     47303     47305     47306     47307     47306     47308
     47309     47310     47309     47311     47312     47313     47312     47314
     47315     47316     47315     47317     47318     47319     47318     47320
     47321     47322     47321     47323     47324     47325     47324     47326
     47327     47328     47327     47329     47330     47331     47330     47332
     47333     47334     47333     47335     47336     47337     47336     47338
     47339     47340     47339     47341     47342     47343     47342     47344
     47345     47346     47345     47347     47348     47349     47348     47350
     47351     47352     47351     47353     47354     47355     47354     47356
     47357     47358     47357     47359     47360     47361     47360     47362
     47363     47364     47363     47365     47366     47367     47366     47368
     47369     47370     47369     47371     47372     47373     47372     47374
     47375     47376     47375     47377     47378     47379     47378     47380
     47381     47382     47381     47383     47384     47385     47384     47386
     47387     47388     47387     47389     47390     47391     47390     47392
     47393     47394     47393     47395     47396     47397     47396     47398
     47399     47400     47399     47401     47402     47403     47402     47404
     47405     47406     47405     47407     47408     47409     47408     47410
     47411     47412     47411     47413     47414     47415     47414     47416
     47417     47418     47417     47419     47420     47421     47420     47422
     47423     47424     47423     47425     47426     47427     47426     47428
     47429     47430     47429     47431     47432     47433     47432     47434
     47435     47436     47435     47437     47438     47439     47438     47440
     47441     47442     47441     47443     47444     47445     47444     47446
     47447     47448     47447     47449     47450     47451     47450     47452
     47453     47454     47453     47455     47456     47457     47456     47458
     47459     47460     47459     47461     47462     47463     47462     47464
     47465     47466     47465     47467     47468     47469     47468     47470
     47471     47472     47471     47473     47474     47475     47474     47476
     47477     47478     47477     47479     47480     47481     47480     47482
     47483     47484     47483     47485     47486     47487     47486     47488
     47489     47490     47489     47491     47492     47493     47492     47494
     47495     47496     47495     47497     47498     47499     47498     47500
     47501     47502     47501     47503     47504     47505     47504     47506
     47507     47508     47507     47509     47510     47511     47510     47512
     47513     47514     47513     47515     47516     47517     47516     47518
     47519     47520     47519     47521     47522     47523     47522     47524
     47525     47526     47525     47527     47528     47529     47528     47530
     47531     47532     47531     47533     47534     47535     47534     47536
     47537     47538     47537     47539     47540     47541     47540     47542
     47543     47544     47543     47545     47546     47547     47546     47548
     47549     47550     47549     47551     47552     47553     47552     47554
     47555     47556     47555     47557     47558     47559     47558     47560
     47561     47562     47561     47563     47564     47565     47564     47566
     47567     47568     47567     47569     47570     47571     47570     47572
     47573     47574     47573     47575     47576     47577     47576     47578
     47579     47580     47579     47581     47582     47583     47582     47584
     47585     47586     47585     47587     47588     47589     47588     47590
     47591     47592     47591     47593     47594     47595     47594     47596
     47597     47598     47597     47599     47600     47601     47600     47602
     47603     47604     47603     47605     47606     47607     47606     47608
     47609     47610     47609     47611     47612     47613     47612     47614
     47615     47616     47615     47617     47618     47619     47618     47620
     47621     47622     47621     47623     47624     47625     47624     47626
     47627     47628     47627     47629     47630     47631     47630     47632
     47633     47634     47633     47635     47636     47637     47636     47638
     47639     47640     47639     47641     47642     47643     47642     47644
     47645     47646     47645     47647     47648     47649     47648     47650
     47651     47652     47651     47653     47654     47655     47654     47656
     47657     47658     47657     47659     47660     47661     47660     47662
     47663     47664     47663     47665     47666     47667     47666     47668
     47669     47670     47669     47671     47672     47673     47672     47674
     47675     47676     47675     47677     47678     47679     47678     47680
     47681     47682     47681     47683     47684     47685     47684     47686
     47687     47688     47687     47689     47690     47691     47690     47692
     47693     47694     47693     47695     47696     47697     47696     47698
     47699     47700     47699     47701     47702     47703     47702     47704
     47705     47706     47705     47707     47708     47709     47708     47710
     47711     47712     47711     47713     47714     47715     47714     47716
     47717     47718     47717     47719     47720     47721     47720     47722
     47723     47724     47723     47725     47726     47727     47726     47728
     47729     47730     47729     47731     47732     47733     47732     47734
     47735     47736     47735     47737     47738     47739     47738     47740
     47741     47742     47741     47743     47744     47745     47744     47746
     47747     47748     47747     47749     47750     47751     47750     47752
     47753     47754     47753     47755     47756     47757     47756     47758
     47759     47760     47759     47761     47762     47763     47762     47764
     47765     47766     47765     47767     47768     47769     47768     47770
     47771     47772     47771     47773     47774     47775     47774     47776
     47777     47778     47777     47779     47780     47781     47780     47782
     47783     47784     47783     47785     47786     47787     47786     47788
     47789     47790     47789     47791     47792     47793     47792     47794
     47795     47796     47795     47797     47798     47799     47798     47800
     47801     47802     47801     47803     47804     47805     47804     47806
     47807     47808     47807     47809     47810     47811     47810     47812
     47813     47814     47813     47815     47816     47817     47816     47818
     47819     47820     47819     47821     47822     47823     47822     47824
     47825     47826     47825     47827     47828     47829     47828     47830
     47831     47832     47831     47833     47834     47835     47834     47836
     47837     47838     47837     47839     47840     47841     47840     47842
     47843     47844     47843     47845     47846     47847     47846     47848
     47849     47850     47849     47851     47852     47853     47852     47854
     47855     47856     47855     47857     47858     47859     47858     47860
     47861     47862     47861     47863     47864     47865     47864     47866
     47867     47868     47867     47869     47870     47871     47870     47872
     47873     47874     47873     47875     47876     47877     47876     47878
     47879     47880     47879     47881     47882     47883     47882     47884
     47885     47886     47885     47887     47888     47889     47888     47890
     47891     47892     47891     47893     47894     47895     47894     47896
     47897     47898     47897     47899     47900     47901     47900     47902
     47903     47904     47903     47905     47906     47907     47906     47908
     47909     47910     47909     47911     47912     47913     47912     47914
     47915     47916     47915     47917     47918     47919     47918     47920
     47921     47922     47921     47923     47924     47925     47924     47926
     47927     47928     47927     47929     47930     47931     47930     47932
     47933     47934     47933     47935     47936     47937     47936     47938
     47939     47940     47939     47941     47942     47943     47942     47944
     47945     47946     47945     47947     47948     47949     47948     47950
     47951     47952     47951     47953     47954     47955     47954     47956
     47957     47958     47957     47959     47960     47961     47960     47962
     47963     47964     47963     47965     47966     47967     47966     47968
     47969     47970     47969     47971     47972     47973     47972     47974
     47975     47976     47975     47977     47978     47979     47978     47980
     47981     47982     47981     47983     47984     47985     47984     47986
     47987     47988     47987     47989     47990     47991     47990     47992
     47993     47994     47993     47995     47996     47997     47996     47998
     47999     48000     47999     48001     48002     48003     48002     48004
     48005     48006     48005     48007     48008     48009     48008     48010
     48011     48012     48011     48013     48014     48015     48014     48016
     48017     48018     48017     48019     48020     48021     48020     48022
     48023     48024     48023     48025     48026     48027     48026     48028
     48029     48030     48029     48031     48032     48033     48032     48034
     48035     48036     48035     48037     48038     48039     48038     48040
     48041     48042     48041     48043     48044     48045     48044     48046
     48047     48048     48047     48049     48050     48051     48050     48052
     48053     48054     48053     48055     48056     48057     48056     48058
     48059     48060     48059     48061     48062     48063     48062     48064
     48065     48066     48065     48067     48068     48069     48068     48070
     48071     48072     48071     48073     48074     48075     48074     48076
     48077     48078     48077     48079     48080     48081     48080     48082
     48083     48084     48083     48085     48086     48087     48086     48088
     48089     48090     48089     48091     48092     48093     48092     48094
     48095     48096     48095     48097     48098     48099     48098     48100
     48101     48102     48101     48103     48104     48105     48104     48106
     48107     48108     48107     48109     48110     48111     48110     48112
     48113     48114     48113     48115     48116     48117     48116     48118
     48119     48120     48119     48121     48122     48123     48122     48124
     48125     48126     48125     48127     48128     48129     48128     48130
     48131     48132     48131     48133     48134     48135     48134     48136
     48137     48138     48137     48139     48140     48141     48140     48142
     48143     48144     48143     48145     48146     48147     48146     48148
     48149     48150     48149     48151     48152     48153     48152     48154
     48155     48156     48155     48157     48158     48159     48158     48160
     48161     48162     48161     48163     48164     48165     48164     48166
     48167     48168     48167     48169     48170     48171     48170     48172
     48173     48174     48173     48175     48176     48177     48176     48178
     48179     48180     48179     48181     48182     48183     48182     48184
     48185     48186     48185     48187     48188     48189     48188     48190
     48191     48192     48191     48193     48194     48195     48194     48196
     48197     48198     48197     48199     48200     48201     48200     48202
     48203     48204     48203     48205     48206     48207     48206     48208
     48209     48210     48209     48211     48212     48213     48212     48214
     48215     48216     48215     48217     48218     48219     48218     48220
     48221     48222     48221     48223     48224     48225     48224     48226
     48227     48228     48227     48229     48230     48231     48230     48232
     48233     48234     48233     48235     48236     48237     48236     48238
     48239     48240     48239     48241     48242     48243     48242     48244
     48245     48246     48245     48247     48248     48249     48248     48250
     48251     48252     48251     48253     48254     48255     48254     48256
     48257     48258     48257     48259     48260     48261     48260     48262
     48263     48264     48263     48265     48266     48267     48266     48268
     48269     48270     48269     48271     48272     48273     48272     48274
     48275     48276     48275     48277     48278     48279     48278     48280
     48281     48282     48281     48283     48284     48285     48284     48286
     48287     48288     48287     48289     48290     48291     48290     48292
     48293     48294     48293     48295     48296     48297     48296     48298
     48299     48300     48299     48301     48302     48303     48302     48304
     48305     48306     48305     48307     48308     48309     48308     48310
     48311     48312     48311     48313     48314     48315     48314     48316
     48317     48318     48317     48319     48320     48321     48320     48322
     48323     48324     48323     48325     48326     48327     48326     48328
     48329     48330     48329     48331     48332     48333     48332     48334
     48335     48336     48335     48337     48338     48339     48338     48340
     48341     48342     48341     48343     48344     48345     48344     48346
     48347     48348     48347     48349     48350     48351     48350     48352
     48353     48354     48353     48355     48356     48357     48356     48358
     48359     48360     48359     48361     48362     48363     48362     48364
     48365     48366     48365     48367     48368     48369     48368     48370
     48371     48372     48371     48373     48374     48375     48374     48376
     48377     48378     48377     48379     48380     48381     48380     48382
     48383     48384     48383     48385     48386     48387     48386     48388
     48389     48390     48389     48391     48392     48393     48392     48394
     48395     48396     48395     48397     48398     48399     48398     48400
     48401     48402     48401     48403     48404     48405     48404     48406
     48407     48408     48407     48409     48410     48411     48410     48412
     48413     48414     48413     48415     48416     48417     48416     48418
     48419     48420     48419     48421     48422     48423     48422     48424
     48425     48426     48425     48427     48428     48429     48428     48430
     48431     48432     48431     48433     48434     48435     48434     48436
     48437     48438     48437     48439     48440     48441     48440     48442
     48443     48444     48443     48445     48446     48447     48446     48448
     48449     48450     48449     48451     48452     48453     48452     48454
     48455     48456     48455     48457     48458     48459     48458     48460
     48461     48462     48461     48463     48464     48465     48464     48466
     48467     48468     48467     48469     48470     48471     48470     48472
     48473     48474     48473     48475     48476     48477     48476     48478
     48479     48480     48479     48481     48482     48483     48482     48484
     48485     48486     48485     48487     48488     48489     48488     48490
     48491     48492     48491     48493     48494     48495     48494     48496
     48497     48498     48497     48499     48500     48501     48500     48502
     48503     48504     48503     48505     48506     48507     48506     48508
     48509     48510     48509     48511     48512     48513     48512     48514
     48515     48516     48515     48517     48518     48519     48518     48520
     48521     48522     48521     48523     48524     48525     48524     48526
     48527     48528     48527     48529     48530     48531     48530     48532
     48533     48534     48533     48535     48536     48537     48536     48538
     48539     48540     48539     48541     48542     48543     48542     48544
     48545     48546     48545     48547     48548     48549     48548     48550
     48551     48552     48551     48553     48554     48555     48554     48556
     48557     48558     48557     48559     48560     48561     48560     48562
     48563     48564     48563     48565     48566     48567     48566     48568
     48569     48570     48569     48571     48572     48573     48572     48574
     48575     48576     48575     48577     48578     48579     48578     48580
     48581     48582     48581     48583     48584     48585     48584     48586
     48587     48588     48587     48589     48590     48591     48590     48592
     48593     48594     48593     48595     48596     48597     48596     48598
     48599     48600     48599     48601     48602     48603     48602     48604
     48605     48606     48605     48607     48608     48609     48608     48610
     48611     48612     48611     48613     48614     48615     48614     48616
     48617     48618     48617     48619     48620     48621     48620     48622
     48623     48624     48623     48625     48626     48627     48626     48628
     48629     48630     48629     48631     48632     48633     48632     48634
     48635     48636     48635     48637     48638     48639     48638     48640
     48641     48642     48641     48643     48644     48645     48644     48646
     48647     48648     48647     48649     48650     48651     48650     48652
     48653     48654     48653     48655     48656     48657     48656     48658
     48659     48660     48659     48661     48662     48663     48662     48664
     48665     48666     48665     48667     48668     48669     48668     48670
     48671     48672     48671     48673     48674     48675     48674     48676
     48677     48678     48677     48679     48680     48681     48680     48682
     48683     48684     48683     48685     48686     48687     48686     48688
     48689     48690     48689     48691     48692     48693     48692     48694
     48695     48696     48695     48697     48698     48699     48698     48700
     48701     48702     48701     48703     48704     48705     48704     48706
     48707     48708     48707     48709     48710     48711     48710     48712
     48713     48714     48713     48715     48716     48717     48716     48718
     48719     48720     48719     48721     48722     48723     48722     48724
     48725     48726     48725     48727     48728     48729     48728     48730
     48731     48732     48731     48733     48734     48735     48734     48736
     48737     48738     48737     48739     48740     48741     48740     48742
     48743     48744     48743     48745     48746     48747     48746     48748
     48749     48750     48749     48751     48752     48753     48752     48754
     48755     48756     48755     48757     48758     48759     48758     48760
     48761     48762     48761     48763     48764     48765     48764     48766
     48767     48768     48767     48769     48770     48771     48770     48772
     48773     48774     48773     48775     48776     48777     48776     48778
     48779     48780     48779     48781     48782     48783     48782     48784
     48785     48786     48785     48787     48788     48789     48788     48790
     48791     48792     48791     48793     48794     48795     48794     48796
     48797     48798     48797     48799     48800     48801     48800     48802
     48803     48804     48803     48805     48806     48807     48806     48808
     48809     48810     48809     48811     48812     48813     48812     48814
     48815     48816     48815     48817     48818     48819     48818     48820
     48821     48822     48821     48823     48824     48825     48824     48826
     48827     48828     48827     48829     48830     48831     48830     48832
     48833     48834     48833     48835     48836     48837     48836     48838
     48839     48840     48839     48841     48842     48843     48842     48844
     48845     48846     48845     48847     48848     48849     48848     48850
     48851     48852     48851     48853     48854     48855     48854     48856
     48857     48858     48857     48859     48860     48861     48860     48862
     48863     48864     48863     48865     48866     48867     48866     48868
     48869     48870     48869     48871     48872     48873     48872     48874
     48875     48876     48875     48877     48878     48879     48878     48880
     48881     48882     48881     48883     48884     48885     48884     48886
     48887     48888     48887     48889     48890     48891     48890     48892
     48893     48894     48893     48895     48896     48897     48896     48898
     48899     48900     48899     48901     48902     48903     48902     48904
     48905     48906     48905     48907     48908     48909     48908     48910
     48911     48912     48911     48913     48914     48915     48914     48916
     48917     48918     48917     48919     48920     48921     48920     48922
     48923     48924     48923     48925     48926     48927     48926     48928
     48929     48930     48929     48931     48932     48933     48932     48934
     48935     48936     48935     48937     48938     48939     48938     48940
     48941     48942     48941     48943     48944     48945     48944     48946
     48947     48948     48947     48949     48950     48951     48950     48952
     48953     48954     48953     48955     48956     48957     48956     48958
     48959     48960     48959     48961     48962     48963     48962     48964
     48965     48966     48965     48967     48968     48969     48968     48970
     48971     48972     48971     48973     48974     48975     48974     48976
     48977     48978     48977     48979     48980     48981     48980     48982
     48983     48984     48983     48985     48986     48987     48986     48988
     48989     48990     48989     48991     48992     48993     48992     48994
     48995     48996     48995     48997     48998     48999     48998     49000
     49001     49002     49001     49003     49004     49005     49004     49006
     49007     49008     49007     49009     49010     49011     49010     49012
     49013     49014     49013     49015     49016     49017     49016     49018
     49019     49020     49019     49021     49022     49023     49022     49024
     49025     49026     49025     49027     49028     49029     49028     49030
     49031     49032     49031     49033     49034     49035     49034     49036
     49037     49038     49037     49039     49040     49041     49040     49042
     49043     49044     49043     49045     49046     49047     49046     49048
     49049     49050     49049     49051     49052     49053     49052     49054
     49055     49056     49055     49057     49058     49059     49058     49060
     49061     49062     49061     49063     49064     49065     49064     49066
     49067     49068     49067     49069     49070     49071     49070     49072
     49073     49074     49073     49075     49076     49077     49076     49078
     49079     49080     49079     49081     49082     49083     49082     49084
     49085     49086     49085     49087     49088     49089     49088     49090
     49091     49092     49091     49093     49094     49095     49094     49096
     49097     49098     49097     49099     49100     49101     49100     49102
     49103     49104     49103     49105     49106     49107     49106     49108
     49109     49110     49109     49111     49112     49113     49112     49114
     49115     49116     49115     49117     49118     49119     49118     49120
     49121     49122     49121     49123     49124     49125     49124     49126
     49127     49128     49127     49129     49130     49131     49130     49132
     49133     49134     49133     49135     49136     49137     49136     49138
     49139     49140     49139     49141     49142     49143     49142     49144
     49145     49146     49145     49147     49148     49149     49148     49150
     49151     49152     49151     49153     49154     49155     49154     49156
     49157     49158     49157     49159     49160     49161     49160     49162
     49163     49164     49163     49165     49166     49167     49166     49168
     49169     49170     49169     49171     49172     49173     49172     49174
     49175     49176     49175     49177     49178     49179     49178     49180
     49181     49182     49181     49183     49184     49185     49184     49186
     49187     49188     49187     49189     49190     49191     49190     49192
     49193     49194     49193     49195     49196     49197     49196     49198
     49199     49200     49199     49201     49202     49203     49202     49204
     49205     49206     49205     49207     49208     49209     49208     49210
     49211     49212     49211     49213     49214     49215     49214     49216
     49217     49218     49217     49219     49220     49221     49220     49222
     49223     49224     49223     49225     49226     49227     49226     49228
     49229     49230     49229     49231     49232     49233     49232     49234
     49235     49236     49235     49237     49238     49239     49238     49240
     49241     49242     49241     49243     49244     49245     49244     49246
     49247     49248     49247     49249     49250     49251     49250     49252
     49253     49254     49253     49255     49256     49257     49256     49258
     49259     49260     49259     49261     49262     49263     49262     49264
     49265     49266     49265     49267     49268     49269     49268     49270
     49271     49272     49271     49273     49274     49275     49274     49276
     49277     49278     49277     49279     49280     49281     49280     49282
     49283     49284     49283     49285     49286     49287     49286     49288
     49289     49290     49289     49291     49292     49293     49292     49294
     49295     49296     49295     49297     49298     49299     49298     49300
     49301     49302     49301     49303     49304     49305     49304     49306
     49307     49308     49307     49309     49310     49311     49310     49312
     49313     49314     49313     49315     49316     49317     49316     49318
     49319     49320     49319     49321     49322     49323     49322     49324
     49325     49326     49325     49327     49328     49329     49328     49330
     49331     49332     49331     49333     49334     49335     49334     49336
     49337     49338     49337     49339     49340     49341     49340     49342
     49343     49344     49343     49345     49346     49347     49346     49348
     49349     49350     49349     49351     49352     49353     49352     49354
     49355     49356     49355     49357     49358     49359     49358     49360
     49361     49362     49361     49363     49364     49365     49364     49366
     49367     49368     49367     49369     49370     49371     49370     49372
     49373     49374     49373     49375     49376     49377     49376     49378
     49379     49380     49379     49381     49382     49383     49382     49384
     49385     49386     49385     49387     49388     49389     49388     49390
     49391     49392     49391     49393     49394     49395     49394     49396
     49397     49398     49397     49399     49400     49401     49400     49402
     49403     49404     49403     49405     49406     49407     49406     49408
     49409     49410     49409     49411     49412     49413     49412     49414
     49415     49416     49415     49417     49418     49419     49418     49420
     49421     49422     49421     49423     49424     49425     49424     49426
     49427     49428     49427     49429     49430     49431     49430     49432
     49433     49434     49433     49435     49436     49437     49436     49438
     49439     49440     49439     49441     49442     49443     49442     49444
     49445     49446     49445     49447     49448     49449     49448     49450
     49451     49452     49451     49453     49454     49455     49454     49456
     49457     49458     49457     49459     49460     49461     49460     49462
     49463     49464     49463     49465     49466     49467     49466     49468
     49469     49470     49469     49471     49472     49473     49472     49474
     49475     49476     49475     49477     49478     49479     49478     49480
     49481     49482     49481     49483     49484     49485     49484     49486
     49487     49488     49487     49489     49490     49491     49490     49492
     49493     49494     49493     49495     49496     49497     49496     49498
     49499     49500     49499     49501     49502     49503     49502     49504
     49505     49506     49505     49507     49508     49509     49508     49510
     49511     49512     49511     49513     49514     49515     49514     49516
     49517     49518     49517     49519     49520     49521     49520     49522
     49523     49524     49523     49525     49526     49527     49526     49528
     49529     49530     49529     49531     49532     49533     49532     49534
     49535     49536     49535     49537     49538     49539     49538     49540
     49541     49542     49541     49543     49544     49545     49544     49546
     49547     49548     49547     49549     49550     49551     49550     49552
     49553     49554     49553     49555     49556     49557     49556     49558
     49559     49560     49559     49561     49562     49563     49562     49564
     49565     49566     49565     49567     49568     49569     49568     49570
     49571     49572     49571     49573     49574     49575     49574     49576
     49577     49578     49577     49579     49580     49581     49580     49582
     49583     49584     49583     49585     49586     49587     49586     49588
     49589     49590     49589     49591     49592     49593     49592     49594
     49595     49596     49595     49597     49598     49599     49598     49600
     49601     49602     49601     49603     49604     49605     49604     49606
     49607     49608     49607     49609     49610     49611     49610     49612
     49613     49614     49613     49615     49616     49617     49616     49618
     49619     49620     49619     49621     49622     49623     49622     49624
     49625     49626     49625     49627     49628     49629     49628     49630
     49631     49632     49631     49633     49634     49635     49634     49636
     49637     49638     49637     49639     49640     49641     49640     49642
     49643     49644     49643     49645     49646     49647     49646     49648
     49649     49650     49649     49651     49652     49653     49652     49654
     49655     49656     49655     49657     49658     49659     49658     49660
     49661     49662     49661     49663     49664     49665     49664     49666
     49667     49668     49667     49669     49670     49671     49670     49672
     49673     49674     49673     49675     49676     49677     49676     49678
     49679     49680     49679     49681     49682     49683     49682     49684
     49685     49686     49685     49687     49688     49689     49688     49690
     49691     49692     49691     49693     49694     49695     49694     49696
     49697     49698     49697     49699     49700     49701     49700     49702
     49703     49704     49703     49705     49706     49707     49706     49708
     49709     49710     49709     49711     49712     49713     49712     49714
     49715     49716     49715     49717     49718     49719     49718     49720
     49721     49722     49721     49723     49724     49725     49724     49726
     49727     49728     49727     49729     49730     49731     49730     49732
     49733     49734     49733     49735     49736     49737     49736     49738
     49739     49740     49739     49741     49742     49743     49742     49744
     49745     49746     49745     49747     49748     49749     49748     49750
     49751     49752     49751     49753     49754     49755     49754     49756
     49757     49758     49757     49759     49760     49761     49760     49762
     49763     49764     49763     49765     49766     49767     49766     49768
     49769     49770     49769     49771     49772     49773     49772     49774
     49775     49776     49775     49777     49778     49779     49778     49780
     49781     49782     49781     49783     49784     49785     49784     49786
     49787     49788     49787     49789     49790     49791     49790     49792
     49793     49794     49793     49795     49796     49797     49796     49798
     49799     49800     49799     49801     49802     49803     49802     49804
     49805     49806     49805     49807     49808     49809     49808     49810
     49811     49812     49811     49813     49814     49815     49814     49816
     49817     49818     49817     49819     49820     49821     49820     49822
     49823     49824     49823     49825     49826     49827     49826     49828
     49829     49830     49829     49831     49832     49833     49832     49834
     49835     49836     49835     49837     49838     49839     49838     49840
     49841     49842     49841     49843     49844     49845     49844     49846
     49847     49848     49847     49849     49850     49851     49850     49852
     49853     49854     49853     49855     49856     49857     49856     49858
     49859     49860     49859     49861     49862     49863     49862     49864
     49865     49866     49865     49867     49868     49869     49868     49870
     49871     49872     49871     49873     49874     49875     49874     49876
     49877     49878     49877     49879     49880     49881     49880     49882
     49883     49884     49883     49885     49886     49887     49886     49888
     49889     49890     49889     49891     49892     49893     49892     49894
     49895     49896     49895     49897     49898     49899     49898     49900
     49901     49902     49901     49903     49904     49905     49904     49906
     49907     49908     49907     49909     49910     49911     49910     49912
     49913     49914     49913     49915     49916     49917     49916     49918
     49919     49920     49919     49921     49922     49923     49922     49924
     49925     49926     49925     49927     49928     49929     49928     49930
     49931     49932     49931     49933     49934     49935     49934     49936
     49937     49938     49937     49939     49940     49941     49940     49942
     49943     49944     49943     49945     49946     49947     49946     49948
     49949     49950     49949     49951     49952     49953     49952     49954
     49955     49956     49955     49957     49958     49959     49958     49960
     49961     49962     49961     49963     49964     49965     49964     49966
     49967     49968     49967     49969     49970     49971     49970     49972
     49973     49974     49973     49975     49976     49977     49976     49978
     49979     49980     49979     49981     49982     49983     49982     49984
     49985     49986     49985     49987     49988     49989     49988     49990
     49991     49992     49991     49993     49994     49995     49994     49996
     49997     49998     49997     49999     50000     50001     50000     50002
     50003     50004     50003     50005     50006     50007     50006     50008
     50009     50010     50009     50011     50012     50013     50012     50014
     50015     50016     50015     50017     50018     50019     50018     50020
     50021     50022     50021     50023     50024     50025     50024     50026
     50027     50028     50027     50029     50030     50031     50030     50032
     50033     50034     50033     50035     50036     50037     50036     50038
     50039     50040     50039     50041     50042     50043     50042     50044
     50045     50046     50045     50047     50048     50049     50048     50050
     50051     50052     50051     50053     50054     50055     50054     50056
     50057     50058     50057     50059     50060     50061     50060     50062
     50063     50064     50063     50065     50066     50067     50066     50068
     50069     50070     50069     50071     50072     50073     50072     50074
     50075     50076     50075     50077     50078     50079     50078     50080
     50081     50082     50081     50083     50084     50085     50084     50086
     50087     50088     50087     50089     50090     50091     50090     50092
     50093     50094     50093     50095     50096     50097     50096     50098
     50099     50100     50099     50101     50102     50103     50102     50104
     50105     50106     50105     50107     50108     50109     50108     50110
     50111     50112     50111     50113     50114     50115     50114     50116
     50117     50118     50117     50119     50120     50121     50120     50122
     50123     50124     50123     50125     50126     50127     50126     50128
     50129     50130     50129     50131     50132     50133     50132     50134
     50135     50136     50135     50137     50138     50139     50138     50140
     50141     50142     50141     50143     50144     50145     50144     50146
     50147     50148     50147     50149     50150     50151     50150     50152
     50153     50154     50153     50155     50156     50157     50156     50158
     50159     50160     50159     50161     50162     50163     50162     50164
     50165     50166     50165     50167     50168     50169     50168     50170
     50171     50172     50171     50173     50174     50175     50174     50176
     50177     50178     50177     50179     50180     50181     50180     50182
     50183     50184     50183     50185     50186     50187     50186     50188
     50189     50190     50189     50191     50192     50193     50192     50194
     50195     50196     50195     50197     50198     50199     50198     50200
     50201     50202     50201     50203     50204     50205     50204     50206
     50207     50208     50207     50209     50210     50211     50210     50212
     50213     50214     50213     50215     50216     50217     50216     50218
     50219     50220     50219     50221     50222     50223     50222     50224
     50225     50226     50225     50227     50228     50229     50228     50230
     50231     50232     50231     50233     50234     50235     50234     50236
     50237     50238     50237     50239     50240     50241     50240     50242
     50243     50244     50243     50245     50246     50247     50246     50248
     50249     50250     50249     50251     50252     50253     50252     50254
     50255     50256     50255     50257     50258     50259     50258     50260
     50261     50262     50261     50263     50264     50265     50264     50266
     50267     50268     50267     50269     50270     50271     50270     50272
     50273     50274     50273     50275     50276     50277     50276     50278
     50279     50280     50279     50281     50282     50283     50282     50284
     50285     50286     50285     50287     50288     50289     50288     50290
     50291     50292     50291     50293     50294     50295     50294     50296
     50297     50298     50297     50299     50300     50301     50300     50302
     50303     50304     50303     50305     50306     50307     50306     50308
     50309     50310     50309     50311     50312     50313     50312     50314
     50315     50316     50315     50317     50318     50319     50318     50320
     50321     50322     50321     50323     50324     50325     50324     50326
     50327     50328     50327     50329     50330     50331     50330     50332
     50333     50334     50333     50335     50336     50337     50336     50338
     50339     50340     50339     50341     50342     50343     50342     50344
     50345     50346     50345     50347     50348     50349     50348     50350
     50351     50352     50351     50353     50354     50355     50354     50356
     50357     50358     50357     50359     50360     50361     50360     50362
     50363     50364     50363     50365     50366     50367     50366     50368
     50369     50370     50369     50371     50372     50373     50372     50374
     50375     50376     50375     50377     50378     50379     50378     50380
     50381     50382     50381     50383     50384     50385     50384     50386
     50387     50388     50387     50389     50390     50391     50390     50392
     50393     50394     50393     50395     50396     50397     50396     50398
     50399     50400     50399     50401     50402     50403     50402     50404
     50405     50406     50405     50407     50408     50409     50408     50410
     50411     50412     50411     50413     50414     50415     50414     50416
     50417     50418     50417     50419     50420     50421     50420     50422
     50423     50424     50423     50425     50426     50427     50426     50428
     50429     50430     50429     50431     50432     50433     50432     50434
     50435     50436     50435     50437     50438     50439     50438     50440
     50441     50442     50441     50443     50444     50445     50444     50446
     50447     50448     50447     50449     50450     50451     50450     50452
     50453     50454     50453     50455     50456     50457     50456     50458
     50459     50460     50459     50461     50462     50463     50462     50464
     50465     50466     50465     50467     50468     50469     50468     50470
     50471     50472     50471     50473     50474     50475     50474     50476
     50477     50478     50477     50479     50480     50481     50480     50482
     50483     50484     50483     50485     50486     50487     50486     50488
     50489     50490     50489     50491     50492     50493     50492     50494
     50495     50496     50495     50497     50498     50499     50498     50500
     50501     50502     50501     50503     50504     50505     50504     50506
     50507     50508     50507     50509     50510     50511     50510     50512
     50513     50514     50513     50515     50516     50517     50516     50518
     50519     50520     50519     50521     50522     50523     50522     50524
     50525     50526     50525     50527     50528     50529     50528     50530
     50531     50532     50531     50533     50534     50535     50534     50536
     50537     50538     50537     50539     50540     50541     50540     50542
     50543     50544     50543     50545     50546     50547     50546     50548
     50549     50550     50549     50551     50552     50553     50552     50554
     50555     50556     50555     50557     50558     50559     50558     50560
     50561     50562     50561     50563     50564     50565     50564     50566
     50567     50568     50567     50569     50570     50571     50570     50572
     50573     50574     50573     50575     50576     50577     50576     50578
     50579     50580     50579     50581     50582     50583     50582     50584
     50585     50586     50585     50587     50588     50589     50588     50590
     50591     50592     50591     50593     50594     50595     50594     50596
     50597     50598     50597     50599     50600     50601     50600     50602
     50603     50604     50603     50605     50606     50607     50606     50608
     50609     50610     50609     50611     50612     50613     50612     50614
     50615     50616     50615     50617     50618     50619     50618     50620
     50621     50622     50621     50623     50624     50625     50624     50626
     50627     50628     50627     50629     50630     50631     50630     50632
     50633     50634     50633     50635     50636     50637     50636     50638
     50639     50640     50639     50641     50642     50643     50642     50644
     50645     50646     50645     50647     50648     50649     50648     50650
     50651     50652     50651     50653     50654     50655     50654     50656
     50657     50658     50657     50659     50660     50661     50660     50662
     50663     50664     50663     50665     50666     50667     50666     50668
     50669     50670     50669     50671     50672     50673     50672     50674
     50675     50676     50675     50677     50678     50679     50678     50680
     50681     50682     50681     50683     50684     50685     50684     50686
     50687     50688     50687     50689     50690     50691     50690     50692
     50693     50694     50693     50695     50696     50697     50696     50698
     50699     50700     50699     50701     50702     50703     50702     50704
     50705     50706     50705     50707     50708     50709     50708     50710
     50711     50712     50711     50713     50714     50715     50714     50716
     50717     50718     50717     50719     50720     50721     50720     50722
     50723     50724     50723     50725     50726     50727     50726     50728
     50729     50730     50729     50731     50732     50733     50732     50734
     50735     50736     50735     50737     50738     50739     50738     50740
     50741     50742     50741     50743     50744     50745     50744     50746
     50747     50748     50747     50749     50750     50751     50750     50752
     50753     50754     50753     50755     50756     50757     50756     50758
     50759     50760     50759     50761     50762     50763     50762     50764
     50765     50766     50765     50767     50768     50769     50768     50770
     50771     50772     50771     50773     50774     50775     50774     50776
     50777     50778     50777     50779     50780     50781     50780     50782
     50783     50784     50783     50785     50786     50787     50786     50788
     50789     50790     50789     50791     50792     50793     50792     50794
     50795     50796     50795     50797     50798     50799     50798     50800
     50801     50802     50801     50803     50804     50805     50804     50806
     50807     50808     50807     50809     50810     50811     50810     50812
     50813     50814     50813     50815     50816     50817     50816     50818
     50819     50820     50819     50821     50822     50823     50822     50824
     50825     50826     50825     50827     50828     50829     50828     50830
     50831     50832     50831     50833     50834     50835     50834     50836
     50837     50838     50837     50839     50840     50841     50840     50842
     50843     50844     50843     50845     50846     50847     50846     50848
     50849     50850     50849     50851     50852     50853     50852     50854
     50855     50856     50855     50857     50858     50859     50858     50860
     50861     50862     50861     50863     50864     50865     50864     50866
     50867     50868     50867     50869     50870     50871     50870     50872
     50873     50874     50873     50875     50876     50877     50876     50878
     50879     50880     50879     50881     50882     50883     50882     50884
     50885     50886     50885     50887     50888     50889     50888     50890
     50891     50892     50891     50893     50894     50895     50894     50896
     50897     50898     50897     50899     50900     50901     50900     50902
     50903     50904     50903     50905     50906     50907     50906     50908
     50909     50910     50909     50911     50912     50913     50912     50914
     50915     50916     50915     50917     50918     50919     50918     50920
     50921     50922     50921     50923     50924     50925     50924     50926
     50927     50928     50927     50929     50930     50931     50930     50932
     50933     50934     50933     50935     50936     50937     50936     50938
     50939     50940     50939     50941     50942     50943     50942     50944
     50945     50946     50945     50947     50948     50949     50948     50950
     50951     50952     50951     50953     50954     50955     50954     50956
     50957     50958     50957     50959     50960     50961     50960     50962
     50963     50964     50963     50965     50966     50967     50966     50968
     50969     50970     50969     50971     50972     50973     50972     50974
     50975     50976     50975     50977     50978     50979     50978     50980
     50981     50982     50981     50983     50984     50985     50984     50986
     50987     50988     50987     50989     50990     50991     50990     50992
     50993     50994     50993     50995     50996     50997     50996     50998
     50999     51000     50999     51001     51002     51003     51002     51004
     51005     51006     51005     51007     51008     51009     51008     51010
     51011     51012     51011     51013     51014     51015     51014     51016
     51017     51018     51017     51019     51020     51021     51020     51022
     51023     51024     51023     51025     51026     51027     51026     51028
     51029     51030     51029     51031     51032     51033     51032     51034
     51035     51036     51035     51037     51038     51039     51038     51040
     51041     51042     51041     51043     51044     51045     51044     51046
     51047     51048     51047     51049     51050     51051     51050     51052
     51053     51054     51053     51055     51056     51057     51056     51058
     51059     51060     51059     51061     51062     51063     51062     51064
     51065     51066     51065     51067     51068     51069     51068     51070
     51071     51072     51071     51073     51074     51075     51074     51076
     51077     51078     51077     51079     51080     51081     51080     51082
     51083     51084     51083     51085     51086     51087     51086     51088
     51089     51090     51089     51091     51092     51093     51092     51094
     51095     51096     51095     51097     51098     51099     51098     51100
     51101     51102     51101     51103     51104     51105     51104     51106
     51107     51108     51107     51109     51110     51111     51110     51112
     51113     51114     51113     51115     51116     51117     51116     51118
     51119     51120     51119     51121     51122     51123     51122     51124
     51125     51126     51125     51127     51128     51129     51128     51130
     51131     51132     51131     51133     51134     51135     51134     51136
     51137     51138     51137     51139     51140     51141     51140     51142
     51143     51144     51143     51145     51146     51147     51146     51148
     51149     51150     51149     51151     51152     51153     51152     51154
     51155     51156     51155     51157     51158     51159     51158     51160
     51161     51162     51161     51163     51164     51165     51164     51166
     51167     51168     51167     51169     51170     51171     51170     51172
     51173     51174     51173     51175     51176     51177     51176     51178
     51179     51180     51179     51181     51182     51183     51182     51184
     51185     51186     51185     51187     51188     51189     51188     51190
     51191     51192     51191     51193     51194     51195     51194     51196
     51197     51198     51197     51199     51200     51201     51200     51202
     51203     51204     51203     51205     51206     51207     51206     51208
     51209     51210     51209     51211     51212     51213     51212     51214
     51215     51216     51215     51217     51218     51219     51218     51220
     51221     51222     51221     51223     51224     51225     51224     51226
     51227     51228     51227     51229     51230     51231     51230     51232
     51233     51234     51233     51235     51236     51237     51236     51238
     51239     51240     51239     51241     51242     51243     51242     51244
     51245     51246     51245     51247     51248     51249     51248     51250
     51251     51252     51251     51253     51254     51255     51254     51256
     51257     51258     51257     51259     51260     51261     51260     51262
     51263     51264     51263     51265     51266     51267     51266     51268
     51269     51270     51269     51271     51272     51273     51272     51274
     51275     51276     51275     51277     51278     51279     51278     51280
     51281     51282     51281     51283     51284     51285     51284     51286
     51287     51288     51287     51289     51290     51291     51290     51292
     51293     51294     51293     51295     51296     51297     51296     51298
     51299     51300     51299     51301     51302     51303     51302     51304
     51305     51306     51305     51307     51308     51309     51308     51310
     51311     51312     51311     51313     51314     51315     51314     51316
     51317     51318     51317     51319     51320     51321     51320     51322
     51323     51324     51323     51325     51326     51327     51326     51328
     51329     51330     51329     51331     51332     51333     51332     51334
     51335     51336     51335     51337     51338     51339     51338     51340
     51341     51342     51341     51343     51344     51345     51344     51346
     51347     51348     51347     51349     51350     51351     51350     51352
     51353     51354     51353     51355     51356     51357     51356     51358
     51359     51360     51359     51361     51362     51363     51362     51364
     51365     51366     51365     51367     51368     51369     51368     51370
     51371     51372     51371     51373     51374     51375     51374     51376
     51377     51378     51377     51379     51380     51381     51380     51382
     51383     51384     51383     51385     51386     51387     51386     51388
     51389     51390     51389     51391     51392     51393     51392     51394
     51395     51396     51395     51397     51398     51399     51398     51400
     51401     51402     51401     51403     51404     51405     51404     51406
     51407     51408     51407     51409     51410     51411     51410     51412
     51413     51414     51413     51415     51416     51417     51416     51418
     51419     51420     51419     51421     51422     51423     51422     51424
     51425     51426     51425     51427     51428     51429     51428     51430
     51431     51432     51431     51433     51434     51435     51434     51436
     51437     51438     51437     51439     51440     51441     51440     51442
     51443     51444     51443     51445     51446     51447     51446     51448
     51449     51450     51449     51451     51452     51453     51452     51454
     51455     51456     51455     51457     51458     51459     51458     51460
     51461     51462     51461     51463     51464     51465     51464     51466
     51467     51468     51467     51469     51470     51471     51470     51472
     51473     51474     51473     51475     51476     51477     51476     51478
     51479     51480     51479     51481     51482     51483     51482     51484
     51485     51486     51485     51487     51488     51489     51488     51490
     51491     51492     51491     51493     51494     51495     51494     51496
     51497     51498     51497     51499     51500     51501     51500     51502
     51503     51504     51503     51505     51506     51507     51506     51508
     51509     51510     51509     51511     51512     51513     51512     51514
     51515     51516     51515     51517     51518     51519     51518     51520
     51521     51522     51521     51523     51524     51525     51524     51526
     51527     51528     51527     51529     51530     51531     51530     51532
     51533     51534     51533     51535     51536     51537     51536     51538
     51539     51540     51539     51541     51542     51543     51542     51544
     51545     51546     51545     51547     51548     51549     51548     51550
     51551     51552     51551     51553     51554     51555     51554     51556
     51557     51558     51557     51559     51560     51561     51560     51562
     51563     51564     51563     51565     51566     51567     51566     51568
     51569     51570     51569     51571     51572     51573     51572     51574
     51575     51576     51575     51577     51578     51579     51578     51580
     51581     51582     51581     51583     51584     51585     51584     51586
     51587     51588     51587     51589     51590     51591     51590     51592
     51593     51594     51593     51595     51596     51597     51596     51598
     51599     51600     51599     51601     51602     51603     51602     51604
     51605     51606     51605     51607     51608     51609     51608     51610
     51611     51612     51611     51613     51614     51615     51614     51616
     51617     51618     51617     51619     51620     51621     51620     51622
     51623     51624     51623     51625     51626     51627     51626     51628
     51629     51630     51629     51631     51632     51633     51632     51634
     51635     51636     51635     51637     51638     51639     51638     51640
     51641     51642     51641     51643     51644     51645     51644     51646
     51647     51648     51647     51649     51650     51651     51650     51652
     51653     51654     51653     51655     51656     51657     51656     51658
     51659     51660     51659     51661     51662     51663     51662     51664
     51665     51666     51665     51667     51668     51669     51668     51670
     51671     51672     51671     51673     51674     51675     51674     51676
     51677     51678     51677     51679     51680     51681     51680     51682
     51683     51684     51683     51685     51686     51687     51686     51688
     51689     51690     51689     51691     51692     51693     51692     51694
     51695     51696     51695     51697     51698     51699     51698     51700
     51701     51702     51701     51703     51704     51705     51704     51706
     51707     51708     51707     51709     51710     51711     51710     51712
     51713     51714     51713     51715     51716     51717     51716     51718
     51719     51720     51719     51721     51722     51723     51722     51724
     51725     51726     51725     51727     51728     51729     51728     51730
     51731     51732     51731     51733     51734     51735     51734     51736
     51737     51738     51737     51739     51740     51741     51740     51742
     51743     51744     51743     51745     51746     51747     51746     51748
     51749     51750     51749     51751     51752     51753     51752     51754
     51755     51756     51755     51757     51758     51759     51758     51760
     51761     51762     51761     51763     51764     51765     51764     51766
     51767     51768     51767     51769     51770     51771     51770     51772
     51773     51774     51773     51775     51776     51777     51776     51778
     51779     51780     51779     51781     51782     51783     51782     51784
     51785     51786     51785     51787     51788     51789     51788     51790
     51791     51792     51791     51793     51794     51795     51794     51796
     51797     51798     51797     51799     51800     51801     51800     51802
     51803     51804     51803     51805     51806     51807     51806     51808
     51809     51810     51809     51811     51812     51813     51812     51814
     51815     51816     51815     51817     51818     51819     51818     51820
     51821     51822     51821     51823     51824     51825     51824     51826
     51827     51828     51827     51829     51830     51831     51830     51832
     51833     51834     51833     51835     51836     51837     51836     51838
     51839     51840     51839     51841     51842     51843     51842     51844
     51845     51846     51845     51847     51848     51849     51848     51850
     51851     51852     51851     51853     51854     51855     51854     51856
     51857     51858     51857     51859     51860     51861     51860     51862
     51863     51864     51863     51865     51866     51867     51866     51868
     51869     51870     51869     51871     51872     51873     51872     51874
     51875     51876     51875     51877     51878     51879     51878     51880
     51881     51882     51881     51883     51884     51885     51884     51886
     51887     51888     51887     51889     51890     51891     51890     51892
     51893     51894     51893     51895     51896     51897     51896     51898
     51899     51900     51899     51901     51902     51903     51902     51904
     51905     51906     51905     51907     51908     51909     51908     51910
     51911     51912     51911     51913     51914     51915     51914     51916
     51917     51918     51917     51919     51920     51921     51920     51922
     51923     51924     51923     51925     51926     51927     51926     51928
     51929     51930     51929     51931     51932     51933     51932     51934
     51935     51936     51935     51937     51938     51939     51938     51940
     51941     51942     51941     51943     51944     51945     51944     51946
     51947     51948     51947     51949     51950     51951     51950     51952
     51953     51954     51953     51955     51956     51957     51956     51958
     51959     51960     51959     51961     51962     51963     51962     51964
     51965     51966     51965     51967     51968     51969     51968     51970
     51971     51972     51971     51973     51974     51975     51974     51976
     51977     51978     51977     51979     51980     51981     51980     51982
     51983     51984     51983     51985     51986     51987     51986     51988
     51989     51990     51989     51991     51992     51993     51992     51994
     51995     51996     51995     51997     51998     51999     51998     52000
     52001     52002     52001     52003     52004     52005     52004     52006
     52007     52008     52007     52009     52010     52011     52010     52012
     52013     52014     52013     52015     52016     52017     52016     52018
     52019     52020     52019     52021     52022     52023     52022     52024
     52025     52026     52025     52027     52028     52029     52028     52030
     52031     52032     52031     52033     52034     52035     52034     52036
     52037     52038     52037     52039     52040     52041     52040     52042
     52043     52044     52043     52045     52046     52047     52046     52048
     52049     52050     52049     52051     52052     52053     52052     52054
     52055     52056     52055     52057     52058     52059     52058     52060
     52061     52062     52061     52063     52064     52065     52064     52066
     52067     52068     52067     52069     52070     52071     52070     52072
     52073     52074     52073     52075     52076     52077     52076     52078
     52079     52080     52079     52081     52082     52083     52082     52084
     52085     52086     52085     52087     52088     52089     52088     52090
     52091     52092     52091     52093     52094     52095     52094     52096
     52097     52098     52097     52099     52100     52101     52100     52102
     52103     52104     52103     52105     52106     52107     52106     52108
     52109     52110     52109     52111     52112     52113     52112     52114
     52115     52116     52115     52117     52118     52119     52118     52120
     52121     52122     52121     52123     52124     52125     52124     52126
     52127     52128     52127     52129     52130     52131     52130     52132
     52133     52134     52133     52135     52136     52137     52136     52138
     52139     52140     52139     52141     52142     52143     52142     52144
     52145     52146     52145     52147     52148     52149     52148     52150
     52151     52152     52151     52153     52154     52155     52154     52156
     52157     52158     52157     52159     52160     52161     52160     52162
     52163     52164     52163     52165     52166     52167     52166     52168
     52169     52170     52169     52171     52172     52173     52172     52174
     52175     52176     52175     52177     52178     52179     52178     52180
     52181     52182     52181     52183     52184     52185     52184     52186
     52187     52188     52187     52189     52190     52191     52190     52192
     52193     52194     52193     52195     52196     52197     52196     52198
     52199     52200     52199     52201     52202     52203     52202     52204
     52205     52206     52205     52207     52208     52209     52208     52210
     52211     52212     52211     52213     52214     52215     52214     52216
     52217     52218     52217     52219     52220     52221     52220     52222
     52223     52224     52223     52225     52226     52227     52226     52228
     52229     52230     52229     52231     52232     52233     52232     52234
     52235     52236     52235     52237     52238     52239     52238     52240
     52241     52242     52241     52243     52244     52245     52244     52246
     52247     52248     52247     52249     52250     52251     52250     52252
     52253     52254     52253     52255     52256     52257     52256     52258
     52259     52260     52259     52261     52262     52263     52262     52264
     52265     52266     52265     52267     52268     52269     52268     52270
     52271     52272     52271     52273     52274     52275     52274     52276
     52277     52278     52277     52279     52280     52281     52280     52282
     52283     52284     52283     52285     52286     52287     52286     52288
     52289     52290     52289     52291     52292     52293     52292     52294
     52295     52296     52295     52297     52298     52299     52298     52300
     52301     52302     52301     52303     52304     52305     52304     52306
     52307     52308     52307     52309     52310     52311     52310     52312
     52313     52314     52313     52315     52316     52317     52316     52318
     52319     52320     52319     52321     52322     52323     52322     52324
     52325     52326     52325     52327     52328     52329     52328     52330
     52331     52332     52331     52333     52334     52335     52334     52336
     52337     52338     52337     52339     52340     52341     52340     52342
     52343     52344     52343     52345     52346     52347     52346     52348
     52349     52350     52349     52351     52352     52353     52352     52354
     52355     52356     52355     52357     52358     52359     52358     52360
     52361     52362     52361     52363     52364     52365     52364     52366
     52367     52368     52367     52369     52370     52371     52370     52372
     52373     52374     52373     52375     52376     52377     52376     52378
     52379     52380     52379     52381     52382     52383     52382     52384
     52385     52386     52385     52387     52388     52389     52388     52390
     52391     52392     52391     52393     52394     52395     52394     52396
     52397     52398     52397     52399     52400     52401     52400     52402
     52403     52404     52403     52405     52406     52407     52406     52408
     52409     52410     52409     52411     52412     52413     52412     52414
     52415     52416     52415     52417     52418     52419     52418     52420
     52421     52422     52421     52423     52424     52425     52424     52426
     52427     52428     52427     52429     52430     52431     52430     52432
     52433     52434     52433     52435     52436     52437     52436     52438
     52439     52440     52439     52441     52442     52443     52442     52444
     52445     52446     52445     52447     52448     52449     52448     52450
     52451     52452     52451     52453     52454     52455     52454     52456
     52457     52458     52457     52459     52460     52461     52460     52462
     52463     52464     52463     52465     52466     52467     52466     52468
     52469     52470     52469     52471     52472     52473     52472     52474
     52475     52476     52475     52477     52478     52479     52478     52480
     52481     52482     52481     52483     52484     52485     52484     52486
     52487     52488     52487     52489     52490     52491     52490     52492
     52493     52494     52493     52495     52496     52497     52496     52498
     52499     52500     52499     52501     52502     52503     52502     52504
     52505     52506     52505     52507     52508     52509     52508     52510
     52511     52512     52511     52513     52514     52515     52514     52516
     52517     52518     52517     52519     52520     52521     52520     52522
     52523     52524     52523     52525     52526     52527     52526     52528
     52529     52530     52529     52531     52532     52533     52532     52534
     52535     52536     52535     52537     52538     52539     52538     52540
     52541     52542     52541     52543     52544     52545     52544     52546
     52547     52548     52547     52549     52550     52551     52550     52552
     52553     52554     52553     52555     52556     52557     52556     52558
     52559     52560     52559     52561     52562     52563     52562     52564
     52565     52566     52565     52567     52568     52569     52568     52570
     52571     52572     52571     52573     52574     52575     52574     52576
     52577     52578     52577     52579     52580     52581     52580     52582
     52583     52584     52583     52585     52586     52587     52586     52588
     52589     52590     52589     52591     52592     52593     52592     52594
     52595     52596     52595     52597     52598     52599     52598     52600
     52601     52602     52601     52603     52604     52605     52604     52606
     52607     52608     52607     52609     52610     52611     52610     52612
     52613     52614     52613     52615     52616     52617     52616     52618
     52619     52620     52619     52621     52622     52623     52622     52624
     52625     52626     52625     52627     52628     52629     52628     52630
     52631     52632     52631     52633     52634     52635     52634     52636
     52637     52638     52637     52639     52640     52641     52640     52642
     52643     52644     52643     52645     52646     52647     52646     52648
     52649     52650     52649     52651     52652     52653     52652     52654
     52655     52656     52655     52657     52658     52659     52658     52660
     52661     52662     52661     52663     52664     52665     52664     52666
     52667     52668     52667     52669     52670     52671     52670     52672
     52673     52674     52673     52675     52676     52677     52676     52678
     52679     52680     52679     52681     52682     52683     52682     52684
     52685     52686     52685     52687     52688     52689     52688     52690
     52691     52692     52691     52693     52694     52695     52694     52696
     52697     52698     52697     52699     52700     52701     52700     52702
     52703     52704     52703     52705     52706     52707     52706     52708
     52709     52710     52709     52711     52712     52713     52712     52714
     52715     52716     52715     52717     52718     52719     52718     52720
     52721     52722     52721     52723     52724     52725     52724     52726
     52727     52728     52727     52729     52730     52731     52730     52732
     52733     52734     52733     52735     52736     52737     52736     52738
     52739     52740     52739     52741     52742     52743     52742     52744
     52745     52746     52745     52747     52748     52749     52748     52750
     52751     52752     52751     52753     52754     52755     52754     52756
     52757     52758     52757     52759     52760     52761     52760     52762
     52763     52764     52763     52765     52766     52767     52766     52768
     52769     52770     52769     52771     52772     52773     52772     52774
     52775     52776     52775     52777     52778     52779     52778     52780
     52781     52782     52781     52783     52784     52785     52784     52786
     52787     52788     52787     52789     52790     52791     52790     52792
     52793     52794     52793     52795     52796     52797     52796     52798
     52799     52800     52799     52801     52802     52803     52802     52804
     52805     52806     52805     52807     52808     52809     52808     52810
     52811     52812     52811     52813     52814     52815     52814     52816
     52817     52818     52817     52819     52820     52821     52820     52822
     52823     52824     52823     52825     52826     52827     52826     52828
     52829     52830     52829     52831     52832     52833     52832     52834
     52835     52836     52835     52837     52838     52839     52838     52840
     52841     52842     52841     52843     52844     52845     52844     52846
     52847     52848     52847     52849     52850     52851     52850     52852
     52853     52854     52853     52855     52856     52857     52856     52858
     52859     52860     52859     52861     52862     52863     52862     52864
     52865     52866     52865     52867     52868     52869     52868     52870
     52871     52872     52871     52873     52874     52875     52874     52876
     52877     52878     52877     52879     52880     52881     52880     52882
     52883     52884     52883     52885     52886     52887     52886     52888
     52889     52890     52889     52891     52892     52893     52892     52894
     52895     52896     52895     52897     52898     52899     52898     52900
     52901     52902     52901     52903     52904     52905     52904     52906
     52907     52908     52907     52909     52910     52911     52910     52912
     52913     52914     52913     52915     52916     52917     52916     52918
     52919     52920     52919     52921     52922     52923     52922     52924
     52925     52926     52925     52927     52928     52929     52928     52930
     52931     52932     52931     52933     52934     52935     52934     52936
     52937     52938     52937     52939     52940     52941     52940     52942
     52943     52944     52943     52945     52946     52947     52946     52948
     52949     52950     52949     52951     52952     52953     52952     52954
     52955     52956     52955     52957     52958     52959     52958     52960
     52961     52962     52961     52963     52964     52965     52964     52966
     52967     52968     52967     52969     52970     52971     52970     52972
     52973     52974     52973     52975     52976     52977     52976     52978
     52979     52980     52979     52981     52982     52983     52982     52984
     52985     52986     52985     52987     52988     52989     52988     52990
     52991     52992     52991     52993     52994     52995     52994     52996
     52997     52998     52997     52999     53000     53001     53000     53002
     53003     53004     53003     53005     53006     53007     53006     53008
     53009     53010     53009     53011     53012     53013     53012     53014
     53015     53016     53015     53017     53018     53019     53018     53020
     53021     53022     53021     53023     53024     53025     53024     53026
     53027     53028     53027     53029     53030     53031     53030     53032
     53033     53034     53033     53035     53036     53037     53036     53038
     53039     53040     53039     53041     53042     53043     53042     53044
     53045     53046     53045     53047     53048     53049     53048     53050
     53051     53052     53051     53053     53054     53055     53054     53056
     53057     53058     53057     53059     53060     53061     53060     53062
     53063     53064     53063     53065     53066     53067     53066     53068
     53069     53070     53069     53071     53072     53073     53072     53074
     53075     53076     53075     53077     53078     53079     53078     53080
     53081     53082     53081     53083     53084     53085     53084     53086
     53087     53088     53087     53089     53090     53091     53090     53092
     53093     53094     53093     53095     53096     53097     53096     53098
     53099     53100     53099     53101     53102     53103     53102     53104
     53105     53106     53105     53107     53108     53109     53108     53110
     53111     53112     53111     53113     53114     53115     53114     53116
     53117     53118     53117     53119     53120     53121     53120     53122
     53123     53124     53123     53125     53126     53127     53126     53128
     53129     53130     53129     53131     53132     53133     53132     53134
     53135     53136     53135     53137     53138     53139     53138     53140
     53141     53142     53141     53143     53144     53145     53144     53146
     53147     53148     53147     53149     53150     53151     53150     53152
     53153     53154     53153     53155     53156     53157     53156     53158
     53159     53160     53159     53161     53162     53163     53162     53164
     53165     53166     53165     53167     53168     53169     53168     53170
     53171     53172     53171     53173     53174     53175     53174     53176
     53177     53178     53177     53179     53180     53181     53180     53182
     53183     53184     53183     53185     53186     53187     53186     53188
     53189     53190     53189     53191     53192     53193     53192     53194
     53195     53196     53195     53197     53198     53199     53198     53200
     53201     53202     53201     53203     53204     53205     53204     53206
     53207     53208     53207     53209     53210     53211     53210     53212
     53213     53214     53213     53215     53216     53217     53216     53218
     53219     53220     53219     53221     53222     53223     53222     53224
     53225     53226     53225     53227     53228     53229     53228     53230
     53231     53232     53231     53233     53234     53235     53234     53236
     53237     53238     53237     53239     53240     53241     53240     53242
     53243     53244     53243     53245     53246     53247     53246     53248
     53249     53250     53249     53251     53252     53253     53252     53254
     53255     53256     53255     53257     53258     53259     53258     53260
     53261     53262     53261     53263     53264     53265     53264     53266
     53267     53268     53267     53269     53270     53271     53270     53272
     53273     53274     53273     53275     53276     53277     53276     53278
     53279     53280     53279     53281     53282     53283     53282     53284
     53285     53286     53285     53287     53288     53289     53288     53290
     53291     53292     53291     53293     53294     53295     53294     53296
     53297     53298     53297     53299     53300     53301     53300     53302
     53303     53304     53303     53305     53306     53307     53306     53308
     53309     53310     53309     53311     53312     53313     53312     53314
     53315     53316     53315     53317     53318     53319     53318     53320
     53321     53322     53321     53323     53324     53325     53324     53326
     53327     53328     53327     53329     53330     53331     53330     53332
     53333     53334     53333     53335     53336     53337     53336     53338
     53339     53340     53339     53341     53342     53343     53342     53344
     53345     53346     53345     53347     53348     53349     53348     53350
     53351     53352     53351     53353     53354     53355     53354     53356
     53357     53358     53357     53359     53360     53361     53360     53362
     53363     53364     53363     53365     53366     53367     53366     53368
     53369     53370     53369     53371     53372     53373     53372     53374
     53375     53376     53375     53377     53378     53379     53378     53380
     53381     53382     53381     53383     53384     53385     53384     53386
     53387     53388     53387     53389     53390     53391     53390     53392
     53393     53394     53393     53395     53396     53397     53396     53398
     53399     53400     53399     53401     53402     53403     53402     53404
     53405     53406     53405     53407     53408     53409     53408     53410
     53411     53412     53411     53413     53414     53415     53414     53416
     53417     53418     53417     53419     53420     53421     53420     53422
     53423     53424     53423     53425     53426     53427     53426     53428
     53429     53430     53429     53431     53432     53433     53432     53434
     53435     53436     53435     53437     53438     53439     53438     53440
     53441     53442     53441     53443     53444     53445     53444     53446
     53447     53448     53447     53449     53450     53451     53450     53452
     53453     53454     53453     53455     53456     53457     53456     53458
     53459     53460     53459     53461     53462     53463     53462     53464
     53465     53466     53465     53467     53468     53469     53468     53470
     53471     53472     53471     53473     53474     53475     53474     53476
     53477     53478     53477     53479     53480     53481     53480     53482
     53483     53484     53483     53485     53486     53487     53486     53488
     53489     53490     53489     53491     53492     53493     53492     53494
     53495     53496     53495     53497     53498     53499     53498     53500
     53501     53502     53501     53503     53504     53505     53504     53506
     53507     53508     53507     53509     53510     53511     53510     53512
     53513     53514     53513     53515     53516     53517     53516     53518
     53519     53520     53519     53521     53522     53523     53522     53524
     53525     53526     53525     53527     53528     53529     53528     53530
     53531     53532     53531     53533     53534     53535     53534     53536
     53537     53538     53537     53539     53540     53541     53540     53542
     53543     53544     53543     53545     53546     53547     53546     53548
     53549     53550     53549     53551     53552     53553     53552     53554
     53555     53556     53555     53557     53558     53559     53558     53560
     53561     53562     53561     53563     53564     53565     53564     53566
     53567     53568     53567     53569     53570     53571     53570     53572
     53573     53574     53573     53575     53576     53577     53576     53578
     53579     53580     53579     53581     53582     53583     53582     53584
     53585     53586     53585     53587     53588     53589     53588     53590
     53591     53592     53591     53593     53594     53595     53594     53596
     53597     53598     53597     53599     53600     53601     53600     53602
     53603     53604     53603     53605     53606     53607     53606     53608
     53609     53610     53609     53611     53612     53613     53612     53614
     53615     53616     53615     53617     53618     53619     53618     53620
     53621     53622     53621     53623     53624     53625     53624     53626
     53627     53628     53627     53629     53630     53631     53630     53632
     53633     53634     53633     53635     53636     53637     53636     53638
     53639     53640     53639     53641     53642     53643     53642     53644
     53645     53646     53645     53647     53648     53649     53648     53650
     53651     53652     53651     53653     53654     53655     53654     53656
     53657     53658     53657     53659     53660     53661     53660     53662
     53663     53664     53663     53665     53666     53667     53666     53668
     53669     53670     53669     53671     53672     53673     53672     53674
     53675     53676     53675     53677     53678     53679     53678     53680
     53681     53682     53681     53683     53684     53685     53684     53686
     53687     53688     53687     53689     53690     53691     53690     53692
     53693     53694     53693     53695     53696     53697     53696     53698
     53699     53700     53699     53701     53702     53703     53702     53704
     53705     53706     53705     53707     53708     53709     53708     53710
     53711     53712     53711     53713     53714     53715     53714     53716
     53717     53718     53717     53719     53720     53721     53720     53722
     53723     53724     53723     53725     53726     53727     53726     53728
     53729     53730     53729     53731     53732     53733     53732     53734
     53735     53736     53735     53737     53738     53739     53738     53740
     53741     53742     53741     53743     53744     53745     53744     53746
     53747     53748     53747     53749     53750     53751     53750     53752
     53753     53754     53753     53755     53756     53757     53756     53758
     53759     53760     53759     53761     53762     53763     53762     53764
     53765     53766     53765     53767     53768     53769     53768     53770
     53771     53772     53771     53773     53774     53775     53774     53776
     53777     53778     53777     53779     53780     53781     53780     53782
     53783     53784     53783     53785     53786     53787     53786     53788
     53789     53790     53789     53791     53792     53793     53792     53794
     53795     53796     53795     53797     53798     53799     53798     53800
     53801     53802     53801     53803     53804     53805     53804     53806
     53807     53808     53807     53809     53810     53811     53810     53812
     53813     53814     53813     53815     53816     53817     53816     53818
     53819     53820     53819     53821     53822     53823     53822     53824
     53825     53826     53825     53827     53828     53829     53828     53830
     53831     53832     53831     53833     53834     53835     53834     53836
     53837     53838     53837     53839     53840     53841     53840     53842
     53843     53844     53843     53845     53846     53847     53846     53848
     53849     53850     53849     53851     53852     53853     53852     53854
     53855     53856     53855     53857     53858     53859     53858     53860
     53861     53862     53861     53863     53864     53865     53864     53866
     53867     53868     53867     53869     53870     53871     53870     53872
     53873     53874     53873     53875     53876     53877     53876     53878
     53879     53880     53879     53881     53882     53883     53882     53884
     53885     53886     53885     53887     53888     53889     53888     53890
     53891     53892     53891     53893     53894     53895     53894     53896
     53897     53898     53897     53899     53900     53901     53900     53902
     53903     53904     53903     53905     53906     53907     53906     53908
     53909     53910     53909     53911     53912     53913     53912     53914
     53915     53916     53915     53917     53918     53919     53918     53920
     53921     53922     53921     53923     53924     53925     53924     53926
     53927     53928     53927     53929     53930     53931     53930     53932
     53933     53934     53933     53935     53936     53937     53936     53938
     53939     53940     53939     53941     53942     53943     53942     53944
     53945     53946     53945     53947     53948     53949     53948     53950
     53951     53952     53951     53953     53954     53955     53954     53956
     53957     53958     53957     53959     53960     53961     53960     53962
     53963     53964     53963     53965     53966     53967     53966     53968
     53969     53970     53969     53971     53972     53973     53972     53974
     53975     53976     53975     53977     53978     53979     53978     53980
     53981     53982     53981     53983     53984     53985     53984     53986
     53987     53988     53987     53989     53990     53991     53990     53992
     53993     53994     53993     53995     53996     53997     53996     53998
     53999     54000     53999     54001     54002     54003     54002     54004
     54005     54006     54005     54007     54008     54009     54008     54010
     54011     54012     54011     54013     54014     54015     54014     54016
     54017     54018     54017     54019     54020     54021     54020     54022
     54023     54024     54023     54025     54026     54027     54026     54028
     54029     54030     54029     54031     54032     54033     54032     54034
     54035     54036     54035     54037     54038     54039     54038     54040
     54041     54042     54041     54043     54044     54045     54044     54046
     54047     54048     54047     54049     54050     54051     54050     54052
     54053     54054     54053     54055     54056     54057     54056     54058
     54059     54060     54059     54061     54062     54063     54062     54064
     54065     54066     54065     54067     54068     54069     54068     54070
     54071     54072     54071     54073     54074     54075     54074     54076
     54077     54078     54077     54079     54080     54081     54080     54082
     54083     54084     54083     54085     54086     54087     54086     54088
     54089     54090     54089     54091     54092     54093     54092     54094
     54095     54096     54095     54097     54098     54099     54098     54100
     54101     54102     54101     54103     54104     54105     54104     54106
     54107     54108     54107     54109     54110     54111     54110     54112
     54113     54114     54113     54115     54116     54117     54116     54118
     54119     54120     54119     54121     54122     54123     54122     54124
     54125     54126     54125     54127     54128     54129     54128     54130
     54131     54132     54131     54133     54134     54135     54134     54136
     54137     54138     54137     54139     54140     54141     54140     54142
     54143     54144     54143     54145     54146     54147     54146     54148
     54149     54150     54149     54151     54152     54153     54152     54154
     54155     54156     54155     54157     54158     54159     54158     54160
     54161     54162     54161     54163     54164     54165     54164     54166
     54167     54168     54167     54169     54170     54171     54170     54172
     54173     54174     54173     54175     54176     54177     54176     54178
     54179     54180     54179     54181     54182     54183     54182     54184
     54185     54186     54185     54187     54188     54189     54188     54190
     54191     54192     54191     54193     54194     54195     54194     54196
     54197     54198     54197     54199     54200     54201     54200     54202
     54203     54204     54203     54205     54206     54207     54206     54208
     54209     54210     54209     54211     54212     54213     54212     54214
     54215     54216     54215     54217     54218     54219     54218     54220
     54221     54222     54221     54223     54224     54225     54224     54226
     54227     54228     54227     54229     54230     54231     54230     54232
     54233     54234     54233     54235     54236     54237     54236     54238
     54239     54240     54239     54241     54242     54243     54242     54244
     54245     54246     54245     54247     54248     54249     54248     54250
     54251     54252     54251     54253     54254     54255     54254     54256
     54257     54258     54257     54259     54260     54261     54260     54262
     54263     54264     54263     54265     54266     54267     54266     54268
     54269     54270     54269     54271     54272     54273     54272     54274
     54275     54276     54275     54277     54278     54279     54278     54280
     54281     54282     54281     54283     54284     54285     54284     54286
     54287     54288     54287     54289     54290     54291     54290     54292
     54293     54294     54293     54295     54296     54297     54296     54298
     54299     54300     54299     54301     54302     54303     54302     54304
     54305     54306     54305     54307     54308     54309     54308     54310
     54311     54312     54311     54313     54314     54315     54314     54316
     54317     54318     54317     54319     54320     54321     54320     54322
     54323     54324     54323     54325     54326     54327     54326     54328
     54329     54330     54329     54331     54332     54333     54332     54334
     54335     54336     54335     54337     54338     54339     54338     54340
     54341     54342     54341     54343     54344     54345     54344     54346
     54347     54348     54347     54349     54350     54351     54350     54352
     54353     54354     54353     54355     54356     54357     54356     54358
     54359     54360     54359     54361     54362     54363     54362     54364
     54365     54366     54365     54367     54368     54369     54368     54370
     54371     54372     54371     54373     54374     54375     54374     54376
     54377     54378     54377     54379     54380     54381     54380     54382
     54383     54384     54383     54385     54386     54387     54386     54388
     54389     54390     54389     54391     54392     54393     54392     54394
     54395     54396     54395     54397     54398     54399     54398     54400
     54401     54402     54401     54403     54404     54405     54404     54406
     54407     54408     54407     54409     54410     54411     54410     54412
     54413     54414     54413     54415     54416     54417     54416     54418
     54419     54420     54419     54421     54422     54423     54422     54424
     54425     54426     54425     54427     54428     54429     54428     54430
     54431     54432     54431     54433     54434     54435     54434     54436
     54437     54438     54437     54439     54440     54441     54440     54442
     54443     54444     54443     54445     54446     54447     54446     54448
     54449     54450     54449     54451     54452     54453     54452     54454
     54455     54456     54455     54457     54458     54459     54458     54460
     54461     54462     54461     54463     54464     54465     54464     54466
     54467     54468     54467     54469     54470     54471     54470     54472
     54473     54474     54473     54475     54476     54477     54476     54478
     54479     54480     54479     54481     54482     54483     54482     54484
     54485     54486     54485     54487     54488     54489     54488     54490
     54491     54492     54491     54493     54494     54495     54494     54496
     54497     54498     54497     54499     54500     54501     54500     54502
     54503     54504     54503     54505     54506     54507     54506     54508
     54509     54510     54509     54511     54512     54513     54512     54514
     54515     54516     54515     54517     54518     54519     54518     54520
     54521     54522     54521     54523     54524     54525     54524     54526
     54527     54528     54527     54529     54530     54531     54530     54532
     54533     54534     54533     54535     54536     54537     54536     54538
     54539     54540     54539     54541     54542     54543     54542     54544
     54545     54546     54545     54547     54548     54549     54548     54550
     54551     54552     54551     54553     54554     54555     54554     54556
     54557     54558     54557     54559     54560     54561     54560     54562
     54563     54564     54563     54565     54566     54567     54566     54568
     54569     54570     54569     54571     54572     54573     54572     54574
     54575     54576     54575     54577     54578     54579     54578     54580
     54581     54582     54581     54583     54584     54585     54584     54586
     54587     54588     54587     54589     54590     54591     54590     54592
     54593     54594     54593     54595     54596     54597     54596     54598
     54599     54600     54599     54601     54602     54603     54602     54604
     54605     54606     54605     54607     54608     54609     54608     54610
     54611     54612     54611     54613     54614     54615     54614     54616
     54617     54618     54617     54619     54620     54621     54620     54622
     54623     54624     54623     54625     54626     54627     54626     54628
     54629     54630     54629     54631     54632     54633     54632     54634
     54635     54636     54635     54637     54638     54639     54638     54640
     54641     54642     54641     54643     54644     54645     54644     54646
     54647     54648     54647     54649     54650     54651     54650     54652
     54653     54654     54653     54655     54656     54657     54656     54658
     54659     54660     54659     54661     54662     54663     54662     54664
     54665     54666     54665     54667     54668     54669     54668     54670
     54671     54672     54671     54673     54674     54675     54674     54676
     54677     54678     54677     54679     54680     54681     54680     54682
     54683     54684     54683     54685     54686     54687     54686     54688
     54689     54690     54689     54691     54692     54693     54692     54694
     54695     54696     54695     54697     54698     54699     54698     54700
     54701     54702     54701     54703     54704     54705     54704     54706
     54707     54708     54707     54709     54710     54711     54710     54712
     54713     54714     54713     54715     54716     54717     54716     54718
     54719     54720     54719     54721     54722     54723     54722     54724
     54725     54726     54725     54727     54728     54729     54728     54730
     54731     54732     54731     54733     54734     54735     54734     54736
     54737     54738     54737     54739     54740     54741     54740     54742
     54743     54744     54743     54745     54746     54747     54746     54748
     54749     54750     54749     54751     54752     54753     54752     54754
     54755     54756     54755     54757     54758     54759     54758     54760
     54761     54762     54761     54763     54764     54765     54764     54766
     54767     54768     54767     54769     54770     54771     54770     54772
     54773     54774     54773     54775     54776     54777     54776     54778
     54779     54780     54779     54781     54782     54783     54782     54784
     54785     54786     54785     54787     54788     54789     54788     54790
     54791     54792     54791     54793     54794     54795     54794     54796
     54797     54798     54797     54799     54800     54801     54800     54802
     54803     54804     54803     54805     54806     54807     54806     54808
     54809     54810     54809     54811     54812     54813     54812     54814
     54815     54816     54815     54817     54818     54819     54818     54820
     54821     54822     54821     54823     54824     54825     54824     54826
     54827     54828     54827     54829     54830     54831     54830     54832
     54833     54834     54833     54835     54836     54837     54836     54838
     54839     54840     54839     54841     54842     54843     54842     54844
     54845     54846     54845     54847     54848     54849     54848     54850
     54851     54852     54851     54853     54854     54855     54854     54856
     54857     54858     54857     54859     54860     54861     54860     54862
     54863     54864     54863     54865     54866     54867     54866     54868
     54869     54870     54869     54871     54872     54873     54872     54874
     54875     54876     54875     54877     54878     54879     54878     54880
     54881     54882     54881     54883     54884     54885     54884     54886
     54887     54888     54887     54889     54890     54891     54890     54892
     54893     54894     54893     54895     54896     54897     54896     54898
     54899     54900     54899     54901     54902     54903     54902     54904
     54905     54906     54905     54907     54908     54909     54908     54910
     54911     54912     54911     54913     54914     54915     54914     54916
     54917     54918     54917     54919     54920     54921     54920     54922
     54923     54924     54923     54925     54926     54927     54926     54928
     54929     54930     54929     54931     54932     54933     54932     54934
     54935     54936     54935     54937     54938     54939     54938     54940
     54941     54942     54941     54943     54944     54945     54944     54946
     54947     54948     54947     54949     54950     54951     54950     54952
     54953     54954     54953     54955     54956     54957     54956     54958
     54959     54960     54959     54961     54962     54963     54962     54964
     54965     54966     54965     54967     54968     54969     54968     54970
     54971     54972     54971     54973     54974     54975     54974     54976
     54977     54978     54977     54979     54980     54981     54980     54982
     54983     54984     54983     54985     54986     54987     54986     54988
     54989     54990     54989     54991     54992     54993     54992     54994
     54995     54996     54995     54997     54998     54999     54998     55000
     55001     55002     55001     55003     55004     55005     55004     55006
     55007     55008     55007     55009     55010     55011     55010     55012
     55013     55014     55013     55015     55016     55017     55016     55018
     55019     55020     55019     55021     55022     55023     55022     55024
     55025     55026     55025     55027     55028     55029     55028     55030
     55031     55032     55031     55033     55034     55035     55034     55036
     55037     55038     55037     55039     55040     55041     55040     55042
     55043     55044     55043     55045     55046     55047     55046     55048
     55049     55050     55049     55051     55052     55053     55052     55054
     55055     55056     55055     55057     55058     55059     55058     55060
     55061     55062     55061     55063     55064     55065     55064     55066
     55067     55068     55067     55069     55070     55071     55070     55072
     55073     55074     55073     55075     55076     55077     55076     55078
     55079     55080     55079     55081     55082     55083     55082     55084
     55085     55086     55085     55087     55088     55089     55088     55090
     55091     55092     55091     55093     55094     55095     55094     55096
     55097     55098     55097     55099     55100     55101     55100     55102
     55103     55104     55103     55105     55106     55107     55106     55108
     55109     55110     55109     55111     55112     55113     55112     55114
     55115     55116     55115     55117     55118     55119     55118     55120
     55121     55122     55121     55123     55124     55125     55124     55126
     55127     55128     55127     55129     55130     55131     55130     55132
     55133     55134     55133     55135     55136     55137     55136     55138
     55139     55140     55139     55141     55142     55143     55142     55144
     55145     55146     55145     55147     55148     55149     55148     55150
     55151     55152     55151     55153     55154     55155     55154     55156
     55157     55158     55157     55159     55160     55161     55160     55162
     55163     55164     55163     55165     55166     55167     55166     55168
     55169     55170     55169     55171     55172     55173     55172     55174
     55175     55176     55175     55177     55178     55179     55178     55180
     55181     55182     55181     55183     55184     55185     55184     55186
     55187     55188     55187     55189     55190     55191     55190     55192
     55193     55194     55193     55195     55196     55197     55196     55198
     55199     55200     55199     55201     55202     55203     55202     55204
     55205     55206     55205     55207     55208     55209     55208     55210
     55211     55212     55211     55213     55214     55215     55214     55216
     55217     55218     55217     55219     55220     55221     55220     55222
     55223     55224     55223     55225     55226     55227     55226     55228
     55229     55230     55229     55231     55232     55233     55232     55234
     55235     55236     55235     55237     55238     55239     55238     55240
     55241     55242     55241     55243     55244     55245     55244     55246
     55247     55248     55247     55249     55250     55251     55250     55252
     55253     55254     55253     55255     55256     55257     55256     55258
     55259     55260     55259     55261     55262     55263     55262     55264
     55265     55266     55265     55267     55268     55269     55268     55270
     55271     55272     55271     55273     55274     55275     55274     55276
     55277     55278     55277     55279     55280     55281     55280     55282
     55283     55284     55283     55285     55286     55287     55286     55288
     55289     55290     55289     55291     55292     55293     55292     55294
     55295     55296     55295     55297     55298     55299     55298     55300
     55301     55302     55301     55303     55304     55305     55304     55306
     55307     55308     55307     55309     55310     55311     55310     55312
     55313     55314     55313     55315     55316     55317     55316     55318
     55319     55320     55319     55321     55322     55323     55322     55324
     55325     55326     55325     55327     55328     55329     55328     55330
     55331     55332     55331     55333     55334     55335     55334     55336
     55337     55338     55337     55339     55340     55341     55340     55342
     55343     55344     55343     55345     55346     55347     55346     55348
     55349     55350     55349     55351     55352     55353     55352     55354
     55355     55356     55355     55357     55358     55359     55358     55360
     55361     55362     55361     55363     55364     55365     55364     55366
     55367     55368     55367     55369     55370     55371     55370     55372
     55373     55374     55373     55375     55376     55377     55376     55378
     55379     55380     55379     55381     55382     55383     55382     55384
     55385     55386     55385     55387     55388     55389     55388     55390
     55391     55392     55391     55393     55394     55395     55394     55396
     55397     55398     55397     55399     55400     55401     55400     55402
     55403     55404     55403     55405     55406     55407     55406     55408
     55409     55410     55409     55411     55412     55413     55412     55414
     55415     55416     55415     55417     55418     55419     55418     55420
     55421     55422     55421     55423     55424     55425     55424     55426
     55427     55428     55427     55429     55430     55431     55430     55432
     55433     55434     55433     55435     55436     55437     55436     55438
     55439     55440     55439     55441     55442     55443     55442     55444
     55445     55446     55445     55447     55448     55449     55448     55450
     55451     55452     55451     55453     55454     55455     55454     55456
     55457     55458     55457     55459     55460     55461     55460     55462
     55463     55464     55463     55465     55466     55467     55466     55468
     55469     55470     55469     55471     55472     55473     55472     55474
     55475     55476     55475     55477     55478     55479     55478     55480
     55481     55482     55481     55483     55484     55485     55484     55486
     55487     55488     55487     55489     55490     55491     55490     55492
     55493     55494     55493     55495     55496     55497     55496     55498
     55499     55500     55499     55501     55502     55503     55502     55504
     55505     55506     55505     55507     55508     55509     55508     55510
     55511     55512     55511     55513     55514     55515     55514     55516
     55517     55518     55517     55519     55520     55521     55520     55522
     55523     55524     55523     55525     55526     55527     55526     55528
     55529     55530     55529     55531     55532     55533     55532     55534
     55535     55536     55535     55537     55538     55539     55538     55540
     55541     55542     55541     55543     55544     55545     55544     55546
     55547     55548     55547     55549     55550     55551     55550     55552
     55553     55554     55553     55555     55556     55557     55556     55558
     55559     55560     55559     55561     55562     55563     55562     55564
     55565     55566     55565     55567     55568     55569     55568     55570
     55571     55572     55571     55573     55574     55575     55574     55576
     55577     55578     55577     55579     55580     55581     55580     55582
     55583     55584     55583     55585     55586     55587     55586     55588
     55589     55590     55589     55591     55592     55593     55592     55594
     55595     55596     55595     55597     55598     55599     55598     55600
     55601     55602     55601     55603     55604     55605     55604     55606
     55607     55608     55607     55609     55610     55611     55610     55612
     55613     55614     55613     55615     55616     55617     55616     55618
     55619     55620     55619     55621     55622     55623     55622     55624
     55625     55626     55625     55627     55628     55629     55628     55630
     55631     55632     55631     55633     55634     55635     55634     55636
     55637     55638     55637     55639     55640     55641     55640     55642
     55643     55644     55643     55645     55646     55647     55646     55648
     55649     55650     55649     55651     55652     55653     55652     55654
     55655     55656     55655     55657     55658     55659     55658     55660
     55661     55662     55661     55663     55664     55665     55664     55666
     55667     55668     55667     55669     55670     55671     55670     55672
     55673     55674     55673     55675     55676     55677     55676     55678
     55679     55680     55679     55681     55682     55683     55682     55684
     55685     55686     55685     55687     55688     55689     55688     55690
     55691     55692     55691     55693     55694     55695     55694     55696
     55697     55698     55697     55699     55700     55701     55700     55702
     55703     55704     55703     55705     55706     55707     55706     55708
     55709     55710     55709     55711     55712     55713     55712     55714
     55715     55716     55715     55717     55718     55719     55718     55720
     55721     55722     55721     55723     55724     55725     55724     55726
     55727     55728     55727     55729     55730     55731     55730     55732
     55733     55734     55733     55735     55736     55737     55736     55738
     55739     55740     55739     55741     55742     55743     55742     55744
     55745     55746     55745     55747     55748     55749     55748     55750
     55751     55752     55751     55753     55754     55755     55754     55756
     55757     55758     55757     55759     55760     55761     55760     55762
     55763     55764     55763     55765     55766     55767     55766     55768
     55769     55770     55769     55771     55772     55773     55772     55774
     55775     55776     55775     55777     55778     55779     55778     55780
     55781     55782     55781     55783     55784     55785     55784     55786
     55787     55788     55787     55789     55790     55791     55790     55792
     55793     55794     55793     55795     55796     55797     55796     55798
     55799     55800     55799     55801     55802     55803     55802     55804
     55805     55806     55805     55807     55808     55809     55808     55810
     55811     55812     55811     55813     55814     55815     55814     55816
     55817     55818     55817     55819     55820     55821     55820     55822
     55823     55824     55823     55825     55826     55827     55826     55828
     55829     55830     55829     55831     55832     55833     55832     55834
     55835     55836     55835     55837     55838     55839     55838     55840
     55841     55842     55841     55843     55844     55845     55844     55846
     55847     55848     55847     55849     55850     55851     55850     55852
     55853     55854     55853     55855     55856     55857     55856     55858
     55859     55860     55859     55861     55862     55863     55862     55864
     55865     55866     55865     55867     55868     55869     55868     55870
     55871     55872     55871     55873     55874     55875     55874     55876
     55877     55878     55877     55879     55880     55881     55880     55882
     55883     55884     55883     55885     55886     55887     55886     55888
     55889     55890     55889     55891     55892     55893     55892     55894
     55895     55896     55895     55897     55898     55899     55898     55900
     55901     55902     55901     55903     55904     55905     55904     55906
     55907     55908     55907     55909     55910     55911     55910     55912
     55913     55914     55913     55915     55916     55917     55916     55918
     55919     55920     55919     55921     55922     55923     55922     55924
     55925     55926     55925     55927     55928     55929     55928     55930
     55931     55932     55931     55933     55934     55935     55934     55936
     55937     55938     55937     55939     55940     55941     55940     55942
     55943     55944     55943     55945     55946     55947     55946     55948
     55949     55950     55949     55951     55952     55953     55952     55954
     55955     55956     55955     55957     55958     55959     55958     55960
     55961     55962     55961     55963     55964     55965     55964     55966
     55967     55968     55967     55969     55970     55971     55970     55972
     55973     55974     55973     55975     55976     55977     55976     55978
     55979     55980     55979     55981     55982     55983     55982     55984
     55985     55986     55985     55987     55988     55989     55988     55990
     55991     55992     55991     55993     55994     55995     55994     55996
     55997     55998     55997     55999     56000     56001     56000     56002
     56003     56004     56003     56005     56006     56007     56006     56008
     56009     56010     56009     56011     56012     56013     56012     56014
     56015     56016     56015     56017     56018     56019     56018     56020
     56021     56022     56021     56023     56024     56025     56024     56026
     56027     56028     56027     56029     56030     56031     56030     56032
     56033     56034     56033     56035     56036     56037     56036     56038
     56039     56040     56039     56041     56042     56043     56042     56044
     56045     56046     56045     56047     56048     56049     56048     56050
     56051     56052     56051     56053     56054     56055     56054     56056
     56057     56058     56057     56059     56060     56061     56060     56062
     56063     56064     56063     56065     56066     56067     56066     56068
     56069     56070     56069     56071     56072     56073     56072     56074
     56075     56076     56075     56077     56078     56079     56078     56080
     56081     56082     56081     56083     56084     56085     56084     56086
     56087     56088     56087     56089     56090     56091     56090     56092
     56093     56094     56093     56095     56096     56097     56096     56098
     56099     56100     56099     56101     56102     56103     56102     56104
     56105     56106     56105     56107     56108     56109     56108     56110
     56111     56112     56111     56113     56114     56115     56114     56116
     56117     56118     56117     56119     56120     56121     56120     56122
     56123     56124     56123     56125     56126     56127     56126     56128
     56129     56130     56129     56131     56132     56133     56132     56134
     56135     56136     56135     56137     56138     56139     56138     56140
     56141     56142     56141     56143     56144     56145     56144     56146
     56147     56148     56147     56149     56150     56151     56150     56152
     56153     56154     56153     56155     56156     56157     56156     56158
     56159     56160     56159     56161     56162     56163     56162     56164
     56165     56166     56165     56167     56168     56169     56168     56170
     56171     56172     56171     56173     56174     56175     56174     56176
     56177     56178     56177     56179     56180     56181     56180     56182
     56183     56184     56183     56185     56186     56187     56186     56188
     56189     56190     56189     56191     56192     56193     56192     56194
     56195     56196     56195     56197     56198     56199     56198     56200
     56201     56202     56201     56203     56204     56205     56204     56206
     56207     56208     56207     56209     56210     56211     56210     56212
     56213     56214     56213     56215     56216     56217     56216     56218
     56219     56220     56219     56221     56222     56223     56222     56224
     56225     56226     56225     56227     56228     56229     56228     56230
     56231     56232     56231     56233     56234     56235     56234     56236
     56237     56238     56237     56239     56240     56241     56240     56242
     56243     56244     56243     56245     56246     56247     56246     56248
     56249     56250     56249     56251     56252     56253     56252     56254
     56255     56256     56255     56257     56258     56259     56258     56260
     56261     56262     56261     56263     56264     56265     56264     56266
     56267     56268     56267     56269     56270     56271     56270     56272
     56273     56274     56273     56275     56276     56277     56276     56278
     56279     56280     56279     56281     56282     56283     56282     56284
     56285     56286     56285     56287     56288     56289     56288     56290
     56291     56292     56291     56293     56294     56295     56294     56296
     56297     56298     56297     56299     56300     56301     56300     56302
     56303     56304     56303     56305     56306     56307     56306     56308
     56309     56310     56309     56311     56312     56313     56312     56314
     56315     56316     56315     56317     56318     56319     56318     56320
     56321     56322     56321     56323     56324     56325     56324     56326
     56327     56328     56327     56329     56330     56331     56330     56332
     56333     56334     56333     56335     56336     56337     56336     56338
     56339     56340     56339     56341     56342     56343     56342     56344
     56345     56346     56345     56347     56348     56349     56348     56350
     56351     56352     56351     56353     56354     56355     56354     56356
     56357     56358     56357     56359     56360     56361     56360     56362
     56363     56364     56363     56365     56366     56367     56366     56368
     56369     56370     56369     56371     56372     56373     56372     56374
     56375     56376     56375     56377     56378     56379     56378     56380
     56381     56382     56381     56383     56384     56385     56384     56386
     56387     56388     56387     56389     56390     56391     56390     56392
     56393     56394     56393     56395     56396     56397     56396     56398
     56399     56400     56399     56401     56402     56403     56402     56404
     56405     56406     56405     56407     56408     56409     56408     56410
     56411     56412     56411     56413     56414     56415     56414     56416
     56417     56418     56417     56419     56420     56421     56420     56422
     56423     56424     56423     56425     56426     56427     56426     56428
     56429     56430     56429     56431     56432     56433     56432     56434
     56435     56436     56435     56437     56438     56439     56438     56440
     56441     56442     56441     56443     56444     56445     56444     56446
     56447     56448     56447     56449     56450     56451     56450     56452
     56453     56454     56453     56455     56456     56457     56456     56458
     56459     56460     56459     56461     56462     56463     56462     56464
     56465     56466     56465     56467     56468     56469     56468     56470
     56471     56472     56471     56473     56474     56475     56474     56476
     56477     56478     56477     56479     56480     56481     56480     56482
     56483     56484     56483     56485     56486     56487     56486     56488
     56489     56490     56489     56491     56492     56493     56492     56494
     56495     56496     56495     56497     56498     56499     56498     56500
     56501     56502     56501     56503     56504     56505     56504     56506
     56507     56508     56507     56509     56510     56511     56510     56512
     56513     56514     56513     56515     56516     56517     56516     56518
     56519     56520     56519     56521     56522     56523     56522     56524
     56525     56526     56525     56527     56528     56529     56528     56530
     56531     56532     56531     56533     56534     56535     56534     56536
     56537     56538     56537     56539     56540     56541     56540     56542
     56543     56544     56543     56545     56546     56547     56546     56548
     56549     56550     56549     56551     56552     56553     56552     56554
     56555     56556     56555     56557     56558     56559     56558     56560
     56561     56562     56561     56563     56564     56565     56564     56566
     56567     56568     56567     56569     56570     56571     56570     56572
     56573     56574     56573     56575     56576     56577     56576     56578
     56579     56580     56579     56581     56582     56583     56582     56584
     56585     56586     56585     56587     56588     56589     56588     56590
     56591     56592     56591     56593     56594     56595     56594     56596
     56597     56598     56597     56599     56600     56601     56600     56602
     56603     56604     56603     56605     56606     56607     56606     56608
     56609     56610     56609     56611     56612     56613     56612     56614
     56615     56616     56615     56617     56618     56619     56618     56620
     56621     56622     56621     56623     56624     56625     56624     56626
     56627     56628     56627     56629     56630     56631     56630     56632
     56633     56634     56633     56635     56636     56637     56636     56638
     56639     56640     56639     56641     56642     56643     56642     56644
     56645     56646     56645     56647     56648     56649     56648     56650
     56651     56652     56651     56653     56654     56655     56654     56656
     56657     56658     56657     56659     56660     56661     56660     56662
     56663     56664     56663     56665     56666     56667     56666     56668
     56669     56670     56669     56671     56672     56673     56672     56674
     56675     56676     56675     56677     56678     56679     56678     56680
     56681     56682     56681     56683     56684     56685     56684     56686
     56687     56688     56687     56689     56690     56691     56690     56692
     56693     56694     56693     56695     56696     56697     56696     56698
     56699     56700     56699     56701     56702     56703     56702     56704
     56705     56706     56705     56707     56708     56709     56708     56710
     56711     56712     56711     56713     56714     56715     56714     56716
     56717     56718     56717     56719     56720     56721     56720     56722
     56723     56724     56723     56725     56726     56727     56726     56728
     56729     56730     56729     56731     56732     56733     56732     56734
     56735     56736     56735     56737     56738     56739     56738     56740
     56741     56742     56741     56743     56744     56745     56744     56746
     56747     56748     56747     56749     56750     56751     56750     56752
     56753     56754     56753     56755     56756     56757     56756     56758
     56759     56760     56759     56761     56762     56763     56762     56764
     56765     56766     56765     56767     56768     56769     56768     56770
     56771     56772     56771     56773     56774     56775     56774     56776
     56777     56778     56777     56779     56780     56781     56780     56782
     56783     56784     56783     56785     56786     56787     56786     56788
     56789     56790     56789     56791     56792     56793     56792     56794
     56795     56796     56795     56797     56798     56799     56798     56800
     56801     56802     56801     56803     56804     56805     56804     56806
     56807     56808     56807     56809     56810     56811     56810     56812
     56813     56814     56813     56815     56816     56817     56816     56818
     56819     56820     56819     56821     56822     56823     56822     56824
     56825     56826     56825     56827     56828     56829     56828     56830
     56831     56832     56831     56833     56834     56835     56834     56836
     56837     56838     56837     56839     56840     56841     56840     56842
     56843     56844     56843     56845     56846     56847     56846     56848
     56849     56850     56849     56851     56852     56853     56852     56854
     56855     56856     56855     56857     56858     56859     56858     56860
     56861     56862     56861     56863     56864     56865     56864     56866
     56867     56868     56867     56869     56870     56871     56870     56872
     56873     56874     56873     56875     56876     56877     56876     56878
     56879     56880     56879     56881     56882     56883     56882     56884
     56885     56886     56885     56887     56888     56889     56888     56890
     56891     56892     56891     56893     56894     56895     56894     56896
     56897     56898     56897     56899     56900     56901     56900     56902
     56903     56904     56903     56905     56906     56907     56906     56908
     56909     56910     56909     56911     56912     56913     56912     56914
     56915     56916     56915     56917     56918     56919     56918     56920
     56921     56922     56921     56923     56924     56925     56924     56926
     56927     56928     56927     56929     56930     56931     56930     56932
     56933     56934     56933     56935     56936     56937     56936     56938
     56939     56940     56939     56941     56942     56943     56942     56944
     56945     56946     56945     56947     56948     56949     56948     56950
     56951     56952     56951     56953     56954     56955     56954     56956
     56957     56958     56957     56959     56960     56961     56960     56962
     56963     56964     56963     56965     56966     56967     56966     56968
     56969     56970     56969     56971     56972     56973     56972     56974
     56975     56976     56975     56977     56978     56979     56978     56980
     56981     56982     56981     56983     56984     56985     56984     56986
     56987     56988     56987     56989     56990     56991     56990     56992
     56993     56994     56993     56995     56996     56997     56996     56998
     56999     57000     56999     57001     57002     57003     57002     57004
     57005     57006     57005     57007     57008     57009     57008     57010
     57011     57012     57011     57013     57014     57015     57014     57016
     57017     57018     57017     57019     57020     57021     57020     57022
     57023     57024     57023     57025     57026     57027     57026     57028
     57029     57030     57029     57031     57032     57033     57032     57034
     57035     57036     57035     57037     57038     57039     57038     57040
     57041     57042     57041     57043     57044     57045     57044     57046
     57047     57048     57047     57049     57050     57051     57050     57052
     57053     57054     57053     57055     57056     57057     57056     57058
     57059     57060     57059     57061     57062     57063     57062     57064
     57065     57066     57065     57067     57068     57069     57068     57070
     57071     57072     57071     57073     57074     57075     57074     57076
     57077     57078     57077     57079     57080     57081     57080     57082
     57083     57084     57083     57085     57086     57087     57086     57088
     57089     57090     57089     57091     57092     57093     57092     57094
     57095     57096     57095     57097     57098     57099     57098     57100
     57101     57102     57101     57103     57104     57105     57104     57106
     57107     57108     57107     57109     57110     57111     57110     57112
     57113     57114     57113     57115     57116     57117     57116     57118
     57119     57120     57119     57121     57122     57123     57122     57124
     57125     57126     57125     57127     57128     57129     57128     57130
     57131     57132     57131     57133     57134     57135     57134     57136
     57137     57138     57137     57139     57140     57141     57140     57142
     57143     57144     57143     57145     57146     57147     57146     57148
     57149     57150     57149     57151     57152     57153     57152     57154
     57155     57156     57155     57157     57158     57159     57158     57160
     57161     57162     57161     57163     57164     57165     57164     57166
     57167     57168     57167     57169     57170     57171     57170     57172
     57173     57174     57173     57175     57176     57177     57176     57178
     57179     57180     57179     57181     57182     57183     57182     57184
     57185     57186     57185     57187     57188     57189     57188     57190
     57191     57192     57191     57193     57194     57195     57194     57196
     57197     57198     57197     57199     57200     57201     57200     57202
     57203     57204     57203     57205     57206     57207     57206     57208
     57209     57210     57209     57211     57212     57213     57212     57214
     57215     57216     57215     57217     57218     57219     57218     57220
     57221     57222     57221     57223     57224     57225     57224     57226
     57227     57228     57227     57229     57230     57231     57230     57232
     57233     57234     57233     57235     57236     57237     57236     57238
     57239     57240     57239     57241     57242     57243     57242     57244
     57245     57246     57245     57247     57248     57249     57248     57250
     57251     57252     57251     57253     57254     57255     57254     57256
     57257     57258     57257     57259     57260     57261     57260     57262
     57263     57264     57263     57265     57266     57267     57266     57268
     57269     57270     57269     57271     57272     57273     57272     57274
     57275     57276     57275     57277     57278     57279     57278     57280
     57281     57282     57281     57283     57284     57285     57284     57286
     57287     57288     57287     57289     57290     57291     57290     57292
     57293     57294     57293     57295     57296     57297     57296     57298
     57299     57300     57299     57301     57302     57303     57302     57304
     57305     57306     57305     57307     57308     57309     57308     57310
     57311     57312     57311     57313     57314     57315     57314     57316
     57317     57318     57317     57319     57320     57321     57320     57322
     57323     57324     57323     57325     57326     57327     57326     57328
     57329     57330     57329     57331     57332     57333     57332     57334
     57335     57336     57335     57337     57338     57339     57338     57340
     57341     57342     57341     57343     57344     57345     57344     57346
     57347     57348     57347     57349     57350     57351     57350     57352
     57353     57354     57353     57355     57356     57357     57356     57358
     57359     57360     57359     57361     57362     57363     57362     57364
     57365     57366     57365     57367     57368     57369     57368     57370
     57371     57372     57371     57373     57374     57375     57374     57376
     57377     57378     57377     57379     57380     57381     57380     57382
     57383     57384     57383     57385     57386     57387     57386     57388
     57389     57390     57389     57391     57392     57393     57392     57394
     57395     57396     57395     57397     57398     57399     57398     57400
     57401     57402     57401     57403     57404     57405     57404     57406
     57407     57408     57407     57409     57410     57411     57410     57412
     57413     57414     57413     57415     57416     57417     57416     57418
     57419     57420     57419     57421     57422     57423     57422     57424
     57425     57426     57425     57427     57428     57429     57428     57430
     57431     57432     57431     57433     57434     57435     57434     57436
     57437     57438     57437     57439     57440     57441     57440     57442
     57443     57444     57443     57445     57446     57447     57446     57448
     57449     57450     57449     57451     57452     57453     57452     57454
     57455     57456     57455     57457     57458     57459     57458     57460
     57461     57462     57461     57463     57464     57465     57464     57466
     57467     57468     57467     57469     57470     57471     57470     57472
     57473     57474     57473     57475     57476     57477     57476     57478
     57479     57480     57479     57481     57482     57483     57482     57484
     57485     57486     57485     57487     57488     57489     57488     57490
     57491     57492     57491     57493     57494     57495     57494     57496
     57497     57498     57497     57499     57500     57501     57500     57502
     57503     57504     57503     57505     57506     57507     57506     57508
     57509     57510     57509     57511     57512     57513     57512     57514
     57515     57516     57515     57517     57518     57519     57518     57520
     57521     57522     57521     57523     57524     57525     57524     57526
     57527     57528     57527     57529     57530     57531     57530     57532
     57533     57534     57533     57535     57536     57537     57536     57538
     57539     57540     57539     57541     57542     57543     57542     57544
     57545     57546     57545     57547     57548     57549     57548     57550
     57551     57552     57551     57553     57554     57555     57554     57556
     57557     57558     57557     57559     57560     57561     57560     57562
     57563     57564     57563     57565     57566     57567     57566     57568
     57569     57570     57569     57571     57572     57573     57572     57574
     57575     57576     57575     57577     57578     57579     57578     57580
     57581     57582     57581     57583     57584     57585     57584     57586
     57587     57588     57587     57589     57590     57591     57590     57592
     57593     57594     57593     57595     57596     57597     57596     57598
     57599     57600     57599     57601     57602     57603     57602     57604
     57605     57606     57605     57607     57608     57609     57608     57610
     57611     57612     57611     57613     57614     57615     57614     57616
     57617     57618     57617     57619     57620     57621     57620     57622
     57623     57624     57623     57625     57626     57627     57626     57628
     57629     57630     57629     57631     57632     57633     57632     57634
     57635     57636     57635     57637     57638     57639     57638     57640
     57641     57642     57641     57643     57644     57645     57644     57646
     57647     57648     57647     57649     57650     57651     57650     57652
     57653     57654     57653     57655     57656     57657     57656     57658
     57659     57660     57659     57661     57662     57663     57662     57664
     57665     57666     57665     57667     57668     57669     57668     57670
     57671     57672     57671     57673     57674     57675     57674     57676
     57677     57678     57677     57679     57680     57681     57680     57682
     57683     57684     57683     57685     57686     57687     57686     57688
     57689     57690     57689     57691     57692     57693     57692     57694
     57695     57696     57695     57697     57698     57699     57698     57700
     57701     57702     57701     57703     57704     57705     57704     57706
     57707     57708     57707     57709     57710     57711     57710     57712
     57713     57714     57713     57715     57716     57717     57716     57718
     57719     57720     57719     57721     57722     57723     57722     57724
     57725     57726     57725     57727     57728     57729     57728     57730
     57731     57732     57731     57733     57734     57735     57734     57736
     57737     57738     57737     57739     57740     57741     57740     57742
     57743     57744     57743     57745     57746     57747     57746     57748
     57749     57750     57749     57751     57752     57753     57752     57754
     57755     57756     57755     57757     57758     57759     57758     57760
     57761     57762     57761     57763     57764     57765     57764     57766
     57767     57768     57767     57769     57770     57771     57770     57772
     57773     57774     57773     57775     57776     57777     57776     57778
     57779     57780     57779     57781     57782     57783     57782     57784
     57785     57786     57785     57787     57788     57789     57788     57790
     57791     57792     57791     57793     57794     57795     57794     57796
     57797     57798     57797     57799     57800     57801     57800     57802
     57803     57804     57803     57805     57806     57807     57806     57808
     57809     57810     57809     57811     57812     57813     57812     57814
     57815     57816     57815     57817     57818     57819     57818     57820
     57821     57822     57821     57823     57824     57825     57824     57826
     57827     57828     57827     57829     57830     57831     57830     57832
     57833     57834     57833     57835     57836     57837     57836     57838
     57839     57840     57839     57841     57842     57843     57842     57844
     57845     57846     57845     57847     57848     57849     57848     57850
     57851     57852     57851     57853     57854     57855     57854     57856
     57857     57858     57857     57859     57860     57861     57860     57862
     57863     57864     57863     57865     57866     57867     57866     57868
     57869     57870     57869     57871     57872     57873     57872     57874
     57875     57876     57875     57877     57878     57879     57878     57880
     57881     57882     57881     57883     57884     57885     57884     57886
     57887     57888     57887     57889     57890     57891     57890     57892
     57893     57894     57893     57895     57896     57897     57896     57898
     57899     57900     57899     57901     57902     57903     57902     57904
     57905     57906     57905     57907     57908     57909     57908     57910
     57911     57912     57911     57913     57914     57915     57914     57916
     57917     57918     57917     57919     57920     57921     57920     57922
     57923     57924     57923     57925     57926     57927     57926     57928
     57929     57930     57929     57931     57932     57933     57932     57934
     57935     57936     57935     57937     57938     57939     57938     57940
     57941     57942     57941     57943     57944     57945     57944     57946
     57947     57948     57947     57949     57950     57951     57950     57952
     57953     57954     57953     57955     57956     57957     57956     57958
     57959     57960     57959     57961     57962     57963     57962     57964
     57965     57966     57965     57967     57968     57969     57968     57970
     57971     57972     57971     57973     57974     57975     57974     57976
     57977     57978     57977     57979     57980     57981     57980     57982
     57983     57984     57983     57985     57986     57987     57986     57988
     57989     57990     57989     57991     57992     57993     57992     57994
     57995     57996     57995     57997     57998     57999     57998     58000
     58001     58002     58001     58003     58004     58005     58004     58006
     58007     58008     58007     58009     58010     58011     58010     58012
     58013     58014     58013     58015     58016     58017     58016     58018
     58019     58020     58019     58021     58022     58023     58022     58024
     58025     58026     58025     58027     58028     58029     58028     58030
     58031     58032     58031     58033     58034     58035     58034     58036
     58037     58038     58037     58039     58040     58041     58040     58042
     58043     58044     58043     58045     58046     58047     58046     58048
     58049     58050     58049     58051     58052     58053     58052     58054
     58055     58056     58055     58057     58058     58059     58058     58060
     58061     58062     58061     58063     58064     58065     58064     58066
     58067     58068     58067     58069     58070     58071     58070     58072
     58073     58074     58073     58075     58076     58077     58076     58078
     58079     58080     58079     58081     58082     58083     58082     58084
     58085     58086     58085     58087     58088     58089     58088     58090
     58091     58092     58091     58093     58094     58095     58094     58096
     58097     58098     58097     58099     58100     58101     58100     58102
     58103     58104     58103     58105     58106     58107     58106     58108
     58109     58110     58109     58111     58112     58113     58112     58114
     58115     58116     58115     58117     58118     58119     58118     58120
     58121     58122     58121     58123     58124     58125     58124     58126
     58127     58128     58127     58129     58130     58131     58130     58132
     58133     58134     58133     58135     58136     58137     58136     58138
     58139     58140     58139     58141     58142     58143     58142     58144
     58145     58146     58145     58147     58148     58149     58148     58150
     58151     58152     58151     58153     58154     58155     58154     58156
     58157     58158     58157     58159     58160     58161     58160     58162
     58163     58164     58163     58165     58166     58167     58166     58168
     58169     58170     58169     58171     58172     58173     58172     58174
     58175     58176     58175     58177     58178     58179     58178     58180
     58181     58182     58181     58183     58184     58185     58184     58186
     58187     58188     58187     58189     58190     58191     58190     58192
     58193     58194     58193     58195     58196     58197     58196     58198
     58199     58200     58199     58201     58202     58203     58202     58204
     58205     58206     58205     58207     58208     58209     58208     58210
     58211     58212     58211     58213     58214     58215     58214     58216
     58217     58218     58217     58219     58220     58221     58220     58222
     58223     58224     58223     58225     58226     58227     58226     58228
     58229     58230     58229     58231     58232     58233     58232     58234
     58235     58236     58235     58237     58238     58239     58238     58240
     58241     58242     58241     58243     58244     58245     58244     58246
     58247     58248     58247     58249     58250     58251     58250     58252
     58253     58254     58253     58255     58256     58257     58256     58258
     58259     58260     58259     58261     58262     58263     58262     58264
     58265     58266     58265     58267     58268     58269     58268     58270
     58271     58272     58271     58273     58274     58275     58274     58276
     58277     58278     58277     58279     58280     58281     58280     58282
     58283     58284     58283     58285     58286     58287     58286     58288
     58289     58290     58289     58291     58292     58293     58292     58294
     58295     58296     58295     58297     58298     58299     58298     58300
     58301     58302     58301     58303     58304     58305     58304     58306
     58307     58308     58307     58309     58310     58311     58310     58312
     58313     58314     58313     58315     58316     58317     58316     58318
     58319     58320     58319     58321     58322     58323     58322     58324
     58325     58326     58325     58327     58328     58329     58328     58330
     58331     58332     58331     58333     58334     58335     58334     58336
     58337     58338     58337     58339     58340     58341     58340     58342
     58343     58344     58343     58345     58346     58347     58346     58348
     58349     58350     58349     58351     58352     58353     58352     58354
     58355     58356     58355     58357     58358     58359     58358     58360
     58361     58362     58361     58363     58364     58365     58364     58366
     58367     58368     58367     58369     58370     58371     58370     58372
     58373     58374     58373     58375     58376     58377     58376     58378
     58379     58380     58379     58381     58382     58383     58382     58384
     58385     58386     58385     58387     58388     58389     58388     58390
     58391     58392     58391     58393     58394     58395     58394     58396
     58397     58398     58397     58399     58400     58401     58400     58402
     58403     58404     58403     58405     58406     58407     58406     58408
     58409     58410     58409     58411     58412     58413     58412     58414
     58415     58416     58415     58417     58418     58419     58418     58420
     58421     58422     58421     58423     58424     58425     58424     58426
     58427     58428     58427     58429     58430     58431     58430     58432
     58433     58434     58433     58435     58436     58437     58436     58438
     58439     58440     58439     58441     58442     58443     58442     58444
     58445     58446     58445     58447     58448     58449     58448     58450
     58451     58452     58451     58453     58454     58455     58454     58456
     58457     58458     58457     58459     58460     58461     58460     58462
     58463     58464     58463     58465     58466     58467     58466     58468
     58469     58470     58469     58471     58472     58473     58472     58474
     58475     58476     58475     58477     58478     58479     58478     58480
     58481     58482     58481     58483     58484     58485     58484     58486
     58487     58488     58487     58489     58490     58491     58490     58492
     58493     58494     58493     58495     58496     58497     58496     58498
     58499     58500     58499     58501     58502     58503     58502     58504
     58505     58506     58505     58507     58508     58509     58508     58510
     58511     58512     58511     58513     58514     58515     58514     58516
     58517     58518     58517     58519     58520     58521     58520     58522
     58523     58524     58523     58525     58526     58527     58526     58528
     58529     58530     58529     58531     58532     58533     58532     58534
     58535     58536     58535     58537     58538     58539     58538     58540
     58541     58542     58541     58543     58544     58545     58544     58546
     58547     58548     58547     58549     58550     58551     58550     58552
     58553     58554     58553     58555     58556     58557     58556     58558
     58559     58560     58559     58561     58562     58563     58562     58564
     58565     58566     58565     58567     58568     58569     58568     58570
     58571     58572     58571     58573     58574     58575     58574     58576
     58577     58578     58577     58579     58580     58581     58580     58582
     58583     58584     58583     58585     58586     58587     58586     58588
     58589     58590     58589     58591     58592     58593     58592     58594
     58595     58596     58595     58597     58598     58599     58598     58600
     58601     58602     58601     58603     58604     58605     58604     58606
     58607     58608     58607     58609     58610     58611     58610     58612
     58613     58614     58613     58615     58616     58617     58616     58618
     58619     58620     58619     58621     58622     58623     58622     58624
     58625     58626     58625     58627     58628     58629     58628     58630
     58631     58632     58631     58633     58634     58635     58634     58636
     58637     58638     58637     58639     58640     58641     58640     58642
     58643     58644     58643     58645     58646     58647     58646     58648
     58649     58650     58649     58651     58652     58653     58652     58654
     58655     58656     58655     58657     58658     58659     58658     58660
     58661     58662     58661     58663     58664     58665     58664     58666
     58667     58668     58667     58669     58670     58671     58670     58672
     58673     58674     58673     58675     58676     58677     58676     58678
     58679     58680     58679     58681     58682     58683     58682     58684
     58685     58686     58685     58687     58688     58689     58688     58690
     58691     58692     58691     58693     58694     58695     58694     58696
     58697     58698     58697     58699     58700     58701     58700     58702
     58703     58704     58703     58705     58706     58707     58706     58708
     58709     58710     58709     58711     58712     58713     58712     58714
     58715     58716     58715     58717     58718     58719     58718     58720
     58721     58722     58721     58723     58724     58725     58724     58726
     58727     58728     58727     58729     58730     58731     58730     58732
     58733     58734     58733     58735     58736     58737     58736     58738
     58739     58740     58739     58741     58742     58743     58742     58744
     58745     58746     58745     58747     58748     58749     58748     58750
     58751     58752     58751     58753     58754     58755     58754     58756
     58757     58758     58757     58759     58760     58761     58760     58762
     58763     58764     58763     58765     58766     58767     58766     58768
     58769     58770     58769     58771     58772     58773     58772     58774
     58775     58776     58775     58777     58778     58779     58778     58780
     58781     58782     58781     58783     58784     58785     58784     58786
     58787     58788     58787     58789     58790     58791     58790     58792
     58793     58794     58793     58795     58796     58797     58796     58798
     58799     58800     58799     58801     58802     58803     58802     58804
     58805     58806     58805     58807     58808     58809     58808     58810
     58811     58812     58811     58813     58814     58815     58814     58816
     58817     58818     58817     58819     58820     58821     58820     58822
     58823     58824     58823     58825     58826     58827     58826     58828
     58829     58830     58829     58831     58832     58833     58832     58834
     58835     58836     58835     58837     58838     58839     58838     58840
     58841     58842     58841     58843     58844     58845     58844     58846
     58847     58848     58847     58849     58850     58851     58850     58852
     58853     58854     58853     58855     58856     58857     58856     58858
     58859     58860     58859     58861     58862     58863     58862     58864
     58865     58866     58865     58867     58868     58869     58868     58870
     58871     58872     58871     58873     58874     58875     58874     58876
     58877     58878     58877     58879     58880     58881     58880     58882
     58883     58884     58883     58885     58886     58887     58886     58888
     58889     58890     58889     58891     58892     58893     58892     58894
     58895     58896     58895     58897     58898     58899     58898     58900
     58901     58902     58901     58903     58904     58905     58904     58906
     58907     58908     58907     58909     58910     58911     58910     58912
     58913     58914     58913     58915     58916     58917     58916     58918
     58919     58920     58919     58921     58922     58923     58922     58924
     58925     58926     58925     58927     58928     58929     58928     58930
     58931     58932     58931     58933     58934     58935     58934     58936
     58937     58938     58937     58939     58940     58941     58940     58942
     58943     58944     58943     58945     58946     58947     58946     58948
     58949     58950     58949     58951     58952     58953     58952     58954
     58955     58956     58955     58957     58958     58959     58958     58960
     58961     58962     58961     58963     58964     58965     58964     58966
     58967     58968     58967     58969     58970     58971     58970     58972
     58973     58974     58973     58975     58976     58977     58976     58978
     58979     58980     58979     58981     58982     58983     58982     58984
     58985     58986     58985     58987     58988     58989     58988     58990
     58991     58992     58991     58993     58994     58995     58994     58996
     58997     58998     58997     58999     59000     59001     59000     59002
     59003     59004     59003     59005     59006     59007     59006     59008
     59009     59010     59009     59011     59012     59013     59012     59014
     59015     59016     59015     59017     59018     59019     59018     59020
     59021     59022     59021     59023     59024     59025     59024     59026
     59027     59028     59027     59029     59030     59031     59030     59032
     59033     59034     59033     59035     59036     59037     59036     59038
     59039     59040     59039     59041     59042     59043     59042     59044
     59045     59046     59045     59047     59048     59049     59048     59050
     59051     59052     59051     59053     59054     59055     59054     59056
     59057     59058     59057     59059     59060     59061     59060     59062
     59063     59064     59063     59065     59066     59067     59066     59068
     59069     59070     59069     59071     59072     59073     59072     59074
     59075     59076     59075     59077     59078     59079     59078     59080
     59081     59082     59081     59083     59084     59085     59084     59086
     59087     59088     59087     59089     59090     59091     59090     59092
     59093     59094     59093     59095     59096     59097     59096     59098
     59099     59100     59099     59101     59102     59103     59102     59104
     59105     59106     59105     59107     59108     59109     59108     59110
     59111     59112     59111     59113     59114     59115     59114     59116
     59117     59118     59117     59119     59120     59121     59120     59122
     59123     59124     59123     59125     59126     59127     59126     59128
     59129     59130     59129     59131     59132     59133     59132     59134
     59135     59136     59135     59137     59138     59139     59138     59140
     59141     59142     59141     59143     59144     59145     59144     59146
     59147     59148     59147     59149     59150     59151     59150     59152
     59153     59154     59153     59155     59156     59157     59156     59158
     59159     59160     59159     59161     59162     59163     59162     59164
     59165     59166     59165     59167     59168     59169     59168     59170
     59171     59172     59171     59173     59174     59175     59174     59176
     59177     59178     59177     59179     59180     59181     59180     59182
     59183     59184     59183     59185     59186     59187     59186     59188
     59189     59190     59189     59191     59192     59193     59192     59194
     59195     59196     59195     59197     59198     59199     59198     59200
     59201     59202     59201     59203     59204     59205     59204     59206
     59207     59208     59207     59209     59210     59211     59210     59212
     59213     59214     59213     59215     59216     59217     59216     59218
     59219     59220     59219     59221     59222     59223     59222     59224
     59225     59226     59225     59227     59228     59229     59228     59230
     59231     59232     59231     59233     59234     59235     59234     59236
     59237     59238     59237     59239     59240     59241     59240     59242
     59243     59244     59243     59245     59246     59247     59246     59248
     59249     59250     59249     59251     59252     59253     59252     59254
     59255     59256     59255     59257     59258     59259     59258     59260
     59261     59262     59261     59263     59264     59265     59264     59266
     59267     59268     59267     59269     59270     59271     59270     59272
     59273     59274     59273     59275     59276     59277     59276     59278
     59279     59280     59279     59281     59282     59283     59282     59284
     59285     59286     59285     59287     59288     59289     59288     59290
     59291     59292     59291     59293     59294     59295     59294     59296
     59297     59298     59297     59299     59300     59301     59300     59302
     59303     59304     59303     59305     59306     59307     59306     59308
     59309     59310     59309     59311     59312     59313     59312     59314
     59315     59316     59315     59317     59318     59319     59318     59320
     59321     59322     59321     59323     59324     59325     59324     59326
     59327     59328     59327     59329     59330     59331     59330     59332
     59333     59334     59333     59335     59336     59337     59336     59338
     59339     59340     59339     59341     59342     59343     59342     59344
     59345     59346     59345     59347     59348     59349     59348     59350
     59351     59352     59351     59353     59354     59355     59354     59356
     59357     59358     59357     59359     59360     59361     59360     59362
     59363     59364     59363     59365     59366     59367     59366     59368
     59369     59370     59369     59371     59372     59373     59372     59374
     59375     59376     59375     59377     59378     59379     59378     59380
     59381     59382     59381     59383     59384     59385     59384     59386
     59387     59388     59387     59389     59390     59391     59390     59392
     59393     59394     59393     59395     59396     59397     59396     59398
     59399     59400     59399     59401     59402     59403     59402     59404
     59405     59406     59405     59407     59408     59409     59408     59410
     59411     59412     59411     59413     59414     59415     59414     59416
     59417     59418     59417     59419     59420     59421     59420     59422
     59423     59424     59423     59425     59426     59427     59426     59428
     59429     59430     59429     59431     59432     59433     59432     59434
     59435     59436     59435     59437     59438     59439     59438     59440
     59441     59442     59441     59443     59444     59445     59444     59446
     59447     59448     59447     59449     59450     59451     59450     59452
     59453     59454     59453     59455     59456     59457     59456     59458
     59459     59460     59459     59461     59462     59463     59462     59464
     59465     59466     59465     59467     59468     59469     59468     59470
     59471     59472     59471     59473     59474     59475     59474     59476
     59477     59478     59477     59479     59480     59481     59480     59482
     59483     59484     59483     59485     59486     59487     59486     59488
     59489     59490     59489     59491     59492     59493     59492     59494
     59495     59496     59495     59497     59498     59499     59498     59500
     59501     59502     59501     59503     59504     59505     59504     59506
     59507     59508     59507     59509     59510     59511     59510     59512
     59513     59514     59513     59515     59516     59517     59516     59518
     59519     59520     59519     59521     59522     59523     59522     59524
     59525     59526     59525     59527     59528     59529     59528     59530
     59531     59532     59531     59533     59534     59535     59534     59536
     59537     59538     59537     59539     59540     59541     59540     59542
     59543     59544     59543     59545     59546     59547     59546     59548
     59549     59550     59549     59551     59552     59553     59552     59554
     59555     59556     59555     59557     59558     59559     59558     59560
     59561     59562     59561     59563     59564     59565     59564     59566

     11550 !NACC: acceptors
     24917     24916     24920     24916     24923     24916     24926     24916
     24929     24916     24932     24916     24935     24916     24938     24916
     24941     24916     24944     24916     24947     24916     24950     24916
     24953     24916     24956     24916     24959     24916     24962     24916
     24965     24916     24968     24916     24971     24916     24974     24916
     24977     24916     24980     24916     24983     24916     24986     24916
     24989     24916     24992     24916     24995     24916     24998     24916
     25001     24916     25004     24916     25007     24916     25010     24916
     25013     24916     25016     24916     25019     24916     25022     24916
     25025     24916     25028     24916     25031     24916     25034     24916
     25037     24916     25040     24916     25043     24916     25046     24916
     25049     24916     25052     24916     25055     24916     25058     24916
     25061     24916     25064     24916     25067     24916     25070     24916
     25073     24916     25076     24916     25079     24916     25082     24916
     25085     24916     25088     24916     25091     24916     25094     24916
     25097     24916     25100     24916     25103     24916     25106     24916
     25109     24916     25112     24916     25115     24916     25118     24916
     25121     24916     25124     24916     25127     24916     25130     24916
     25133     24916     25136     24916     25139     24916     25142     24916
     25145     24916     25148     24916     25151     24916     25154     24916
     25157     24916     25160     24916     25163     24916     25166     24916
     25169     24916     25172     24916     25175     24916     25178     24916
     25181     24916     25184     24916     25187     24916     25190     24916
     25193     24916     25196     24916     25199     24916     25202     24916
     25205     24916     25208     24916     25211     24916     25214     24916
     25217     24916     25220     24916     25223     24916     25226     24916
     25229     24916     25232     24916     25235     24916     25238     24916
     25241     24916     25244     24916     25247     24916     25250     24916
     25253     24916     25256     24916     25259     24916     25262     24916
     25265     24916     25268     24916     25271     24916     25274     24916
     25277     24916     25280     24916     25283     24916     25286     24916
     25289     24916     25292     24916     25295     24916     25298     24916
     25301     24916     25304     24916     25307     24916     25310     24916
     25313     24916     25316     24916     25319     24916     25322     24916
     25325     24916     25328     24916     25331     24916     25334     24916
     25337     24916     25340     24916     25343     24916     25346     24916
     25349     24916     25352     24916     25355     24916     25358     24916
     25361     24916     25364     24916     25367     24916     25370     24916
     25373     24916     25376     24916     25379     24916     25382     24916
     25385     24916     25388     24916     25391     24916     25394     24916
     25397     24916     25400     24916     25403     24916     25406     24916
     25409     24916     25412     24916     25415     24916     25418     24916
     25421     24916     25424     24916     25427     24916     25430     24916
     25433     24916     25436     24916     25439     24916     25442     24916
     25445     24916     25448     24916     25451     24916     25454     24916
     25457     24916     25460     24916     25463     24916     25466     24916
     25469     24916     25472     24916     25475     24916     25478     24916
     25481     24916     25484     24916     25487     24916     25490     24916
     25493     24916     25496     24916     25499     24916     25502     24916
     25505     24916     25508     24916     25511     24916     25514     24916
     25517     24916     25520     24916     25523     24916     25526     24916
     25529     24916     25532     24916     25535     24916     25538     24916
     25541     24916     25544     24916     25547     24916     25550     24916
     25553     24916     25556     24916     25559     24916     25562     24916
     25565     24916     25568     24916     25571     24916     25574     24916
     25577     24916     25580     24916     25583     24916     25586     24916
     25589     24916     25592     24916     25595     24916     25598     24916
     25601     24916     25604     24916     25607     24916     25610     24916
     25613     24916     25616     24916     25619     24916     25622     24916
     25625     24916     25628     24916     25631     24916     25634     24916
     25637     24916     25640     24916     25643     24916     25646     24916
     25649     24916     25652     24916     25655     24916     25658     24916
     25661     24916     25664     24916     25667     24916     25670     24916
     25673     24916     25676     24916     25679     24916     25682     24916
     25685     24916     25688     24916     25691     24916     25694     24916
     25697     24916     25700     24916     25703     24916     25706     24916
     25709     24916     25712     24916     25715     24916     25718     24916
     25721     24916     25724     24916     25727     24916     25730     24916
     25733     24916     25736     24916     25739     24916     25742     24916
     25745     24916     25748     24916     25751     24916     25754     24916
     25757     24916     25760     24916     25763     24916     25766     24916
     25769     24916     25772     24916     25775     24916     25778     24916
     25781     24916     25784     24916     25787     24916     25790     24916
     25793     24916     25796     24916     25799     24916     25802     24916
     25805     24916     25808     24916     25811     24916     25814     24916
     25817     24916     25820     24916     25823     24916     25826     24916
     25829     24916     25832     24916     25835     24916     25838     24916
     25841     24916     25844     24916     25847     24916     25850     24916
     25853     24916     25856     24916     25859     24916     25862     24916
     25865     24916     25868     24916     25871     24916     25874     24916
     25877     24916     25880     24916     25883     24916     25886     24916
     25889     24916     25892     24916     25895     24916     25898     24916
     25901     24916     25904     24916     25907     24916     25910     24916
     25913     24916     25916     24916     25919     24916     25922     24916
     25925     24916     25928     24916     25931     24916     25934     24916
     25937     24916     25940     24916     25943     24916     25946     24916
     25949     24916     25952     24916     25955     24916     25958     24916
     25961     24916     25964     24916     25967     24916     25970     24916
     25973     24916     25976     24916     25979     24916     25982     24916
     25985     24916     25988     24916     25991     24916     25994     24916
     25997     24916     26000     24916     26003     24916     26006     24916
     26009     24916     26012     24916     26015     24916     26018     24916
     26021     24916     26024     24916     26027     24916     26030     24916
     26033     24916     26036     24916     26039     24916     26042     24916
     26045     24916     26048     24916     26051     24916     26054     24916
     26057     24916     26060     24916     26063     24916     26066     24916
     26069     24916     26072     24916     26075     24916     26078     24916
     26081     24916     26084     24916     26087     24916     26090     24916
     26093     24916     26096     24916     26099     24916     26102     24916
     26105     24916     26108     24916     26111     24916     26114     24916
     26117     24916     26120     24916     26123     24916     26126     24916
     26129     24916     26132     24916     26135     24916     26138     24916
     26141     24916     26144     24916     26147     24916     26150     24916
     26153     24916     26156     24916     26159     24916     26162     24916
     26165     24916     26168     24916     26171     24916     26174     24916
     26177     24916     26180     24916     26183     24916     26186     24916
     26189     24916     26192     24916     26195     24916     26198     24916
     26201     24916     26204     24916     26207     24916     26210     24916
     26213     24916     26216     24916     26219     24916     26222     24916
     26225     24916     26228     24916     26231     24916     26234     24916
     26237     24916     26240     24916     26243     24916     26246     24916
     26249     24916     26252     24916     26255     24916     26258     24916
     26261     24916     26264     24916     26267     24916     26270     24916
     26273     24916     26276     24916     26279     24916     26282     24916
     26285     24916     26288     24916     26291     24916     26294     24916
     26297     24916     26300     24916     26303     24916     26306     24916
     26309     24916     26312     24916     26315     24916     26318     24916
     26321     24916     26324     24916     26327     24916     26330     24916
     26333     24916     26336     24916     26339     24916     26342     24916
     26345     24916     26348     24916     26351     24916     26354     24916
     26357     24916     26360     24916     26363     24916     26366     24916
     26369     24916     26372     24916     26375     24916     26378     24916
     26381     24916     26384     24916     26387     24916     26390     24916
     26393     24916     26396     24916     26399     24916     26402     24916
     26405     24916     26408     24916     26411     24916     26414     24916
     26417     24916     26420     24916     26423     24916     26426     24916
     26429     24916     26432     24916     26435     24916     26438     24916
     26441     24916     26444     24916     26447     24916     26450     24916
     26453     24916     26456     24916     26459     24916     26462     24916
     26465     24916     26468     24916     26471     24916     26474     24916
     26477     24916     26480     24916     26483     24916     26486     24916
     26489     24916     26492     24916     26495     24916     26498     24916
     26501     24916     26504     24916     26507     24916     26510     24916
     26513     24916     26516     24916     26519     24916     26522     24916
     26525     24916     26528     24916     26531     24916     26534     24916
     26537     24916     26540     24916     26543     24916     26546     24916
     26549     24916     26552     24916     26555     24916     26558     24916
     26561     24916     26564     24916     26567     24916     26570     24916
     26573     24916     26576     24916     26579     24916     26582     24916
     26585     24916     26588     24916     26591     24916     26594     24916
     26597     24916     26600     24916     26603     24916     26606     24916
     26609     24916     26612     24916     26615     24916     26618     24916
     26621     24916     26624     24916     26627     24916     26630     24916
     26633     24916     26636     24916     26639     24916     26642     24916
     26645     24916     26648     24916     26651     24916     26654     24916
     26657     24916     26660     24916     26663     24916     26666     24916
     26669     24916     26672     24916     26675     24916     26678     24916
     26681     24916     26684     24916     26687     24916     26690     24916
     26693     24916     26696     24916     26699     24916     26702     24916
     26705     24916     26708     24916     26711     24916     26714     24916
     26717     24916     26720     24916     26723     24916     26726     24916
     26729     24916     26732     24916     26735     24916     26738     24916
     26741     24916     26744     24916     26747     24916     26750     24916
     26753     24916     26756     24916     26759     24916     26762     24916
     26765     24916     26768     24916     26771     24916     26774     24916
     26777     24916     26780     24916     26783     24916     26786     24916
     26789     24916     26792     24916     26795     24916     26798     24916
     26801     24916     26804     24916     26807     24916     26810     24916
     26813     24916     26816     24916     26819     24916     26822     24916
     26825     24916     26828     24916     26831     24916     26834     24916
     26837     24916     26840     24916     26843     24916     26846     24916
     26849     24916     26852     24916     26855     24916     26858     24916
     26861     24916     26864     24916     26867     24916     26870     24916
     26873     24916     26876     24916     26879     24916     26882     24916
     26885     24916     26888     24916     26891     24916     26894     24916
     26897     24916     26900     24916     26903     24916     26906     24916
     26909     24916     26912     24916     26915     24916     26918     24916
     26921     24916     26924     24916     26927     24916     26930     24916
     26933     24916     26936     24916     26939     24916     26942     24916
     26945     24916     26948     24916     26951     24916     26954     24916
     26957     24916     26960     24916     26963     24916     26966     24916
     26969     24916     26972     24916     26975     24916     26978     24916
     26981     24916     26984     24916     26987     24916     26990     24916
     26993     24916     26996     24916     26999     24916     27002     24916
     27005     24916     27008     24916     27011     24916     27014     24916
     27017     24916     27020     24916     27023     24916     27026     24916
     27029     24916     27032     24916     27035     24916     27038     24916
     27041     24916     27044     24916     27047     24916     27050     24916
     27053     24916     27056     24916     27059     24916     27062     24916
     27065     24916     27068     24916     27071     24916     27074     24916
     27077     24916     27080     24916     27083     24916     27086     24916
     27089     24916     27092     24916     27095     24916     27098     24916
     27101     24916     27104     24916     27107     24916     27110     24916
     27113     24916     27116     24916     27119     24916     27122     24916
     27125     24916     27128     24916     27131     24916     27134     24916
     27137     24916     27140     24916     27143     24916     27146     24916
     27149     24916     27152     24916     27155     24916     27158     24916
     27161     24916     27164     24916     27167     24916     27170     24916
     27173     24916     27176     24916     27179     24916     27182     24916
     27185     24916     27188     24916     27191     24916     27194     24916
     27197     24916     27200     24916     27203     24916     27206     24916
     27209     24916     27212     24916     27215     24916     27218     24916
     27221     24916     27224     24916     27227     24916     27230     24916
     27233     24916     27236     24916     27239     24916     27242     24916
     27245     24916     27248     24916     27251     24916     27254     24916
     27257     24916     27260     24916     27263     24916     27266     24916
     27269     24916     27272     24916     27275     24916     27278     24916
     27281     24916     27284     24916     27287     24916     27290     24916
     27293     24916     27296     24916     27299     24916     27302     24916
     27305     24916     27308     24916     27311     24916     27314     24916
     27317     24916     27320     24916     27323     24916     27326     24916
     27329     24916     27332     24916     27335     24916     27338     24916
     27341     24916     27344     24916     27347     24916     27350     24916
     27353     24916     27356     24916     27359     24916     27362     24916
     27365     24916     27368     24916     27371     24916     27374     24916
     27377     24916     27380     24916     27383     24916     27386     24916
     27389     24916     27392     24916     27395     24916     27398     24916
     27401     24916     27404     24916     27407     24916     27410     24916
     27413     24916     27416     24916     27419     24916     27422     24916
     27425     24916     27428     24916     27431     24916     27434     24916
     27437     24916     27440     24916     27443     24916     27446     24916
     27449     24916     27452     24916     27455     24916     27458     24916
     27461     24916     27464     24916     27467     24916     27470     24916
     27473     24916     27476     24916     27479     24916     27482     24916
     27485     24916     27488     24916     27491     24916     27494     24916
     27497     24916     27500     24916     27503     24916     27506     24916
     27509     24916     27512     24916     27515     24916     27518     24916
     27521     24916     27524     24916     27527     24916     27530     24916
     27533     24916     27536     24916     27539     24916     27542     24916
     27545     24916     27548     24916     27551     24916     27554     24916
     27557     24916     27560     24916     27563     24916     27566     24916
     27569     24916     27572     24916     27575     24916     27578     24916
     27581     24916     27584     24916     27587     24916     27590     24916
     27593     24916     27596     24916     27599     24916     27602     24916
     27605     24916     27608     24916     27611     24916     27614     24916
     27617     24916     27620     24916     27623     24916     27626     24916
     27629     24916     27632     24916     27635     24916     27638     24916
     27641     24916     27644     24916     27647     24916     27650     24916
     27653     24916     27656     24916     27659     24916     27662     24916
     27665     24916     27668     24916     27671     24916     27674     24916
     27677     24916     27680     24916     27683     24916     27686     24916
     27689     24916     27692     24916     27695     24916     27698     24916
     27701     24916     27704     24916     27707     24916     27710     24916
     27713     24916     27716     24916     27719     24916     27722     24916
     27725     24916     27728     24916     27731     24916     27734     24916
     27737     24916     27740     24916     27743     24916     27746     24916
     27749     24916     27752     24916     27755     24916     27758     24916
     27761     24916     27764     24916     27767     24916     27770     24916
     27773     24916     27776     24916     27779     24916     27782     24916
     27785     24916     27788     24916     27791     24916     27794     24916
     27797     24916     27800     24916     27803     24916     27806     24916
     27809     24916     27812     24916     27815     24916     27818     24916
     27821     24916     27824     24916     27827     24916     27830     24916
     27833     24916     27836     24916     27839     24916     27842     24916
     27845     24916     27848     24916     27851     24916     27854     24916
     27857     24916     27860     24916     27863     24916     27866     24916
     27869     24916     27872     24916     27875     24916     27878     24916
     27881     24916     27884     24916     27887     24916     27890     24916
     27893     24916     27896     24916     27899     24916     27902     24916
     27905     24916     27908     24916     27911     24916     27914     24916
     27917     24916     27920     24916     27923     24916     27926     24916
     27929     24916     27932     24916     27935     24916     27938     24916
     27941     24916     27944     24916     27947     24916     27950     24916
     27953     24916     27956     24916     27959     24916     27962     24916
     27965     24916     27968     24916     27971     24916     27974     24916
     27977     24916     27980     24916     27983     24916     27986     24916
     27989     24916     27992     24916     27995     24916     27998     24916
     28001     24916     28004     24916     28007     24916     28010     24916
     28013     24916     28016     24916     28019     24916     28022     24916
     28025     24916     28028     24916     28031     24916     28034     24916
     28037     24916     28040     24916     28043     24916     28046     24916
     28049     24916     28052     24916     28055     24916     28058     24916
     28061     24916     28064     24916     28067     24916     28070     24916
     28073     24916     28076     24916     28079     24916     28082     24916
     28085     24916     28088     24916     28091     24916     28094     24916
     28097     24916     28100     24916     28103     24916     28106     24916
     28109     24916     28112     24916     28115     24916     28118     24916
     28121     24916     28124     24916     28127     24916     28130     24916
     28133     24916     28136     24916     28139     24916     28142     24916
     28145     24916     28148     24916     28151     24916     28154     24916
     28157     24916     28160     24916     28163     24916     28166     24916
     28169     24916     28172     24916     28175     24916     28178     24916
     28181     24916     28184     24916     28187     24916     28190     24916
     28193     24916     28196     24916     28199     24916     28202     24916
     28205     24916     28208     24916     28211     24916     28214     24916
     28217     24916     28220     24916     28223     24916     28226     24916
     28229     24916     28232     24916     28235     24916     28238     24916
     28241     24916     28244     24916     28247     24916     28250     24916
     28253     24916     28256     24916     28259     24916     28262     24916
     28265     24916     28268     24916     28271     24916     28274     24916
     28277     24916     28280     24916     28283     24916     28286     24916
     28289     24916     28292     24916     28295     24916     28298     24916
     28301     24916     28304     24916     28307     24916     28310     24916
     28313     24916     28316     24916     28319     24916     28322     24916
     28325     24916     28328     24916     28331     24916     28334     24916
     28337     24916     28340     24916     28343     24916     28346     24916
     28349     24916     28352     24916     28355     24916     28358     24916
     28361     24916     28364     24916     28367     24916     28370     24916
     28373     24916     28376     24916     28379     24916     28382     24916
     28385     24916     28388     24916     28391     24916     28394     24916
     28397     24916     28400     24916     28403     24916     28406     24916
     28409     24916     28412     24916     28415     24916     28418     24916
     28421     24916     28424     24916     28427     24916     28430     24916
     28433     24916     28436     24916     28439     24916     28442     24916
     28445     24916     28448     24916     28451     24916     28454     24916
     28457     24916     28460     24916     28463     24916     28466     24916
     28469     24916     28472     24916     28475     24916     28478     24916
     28481     24916     28484     24916     28487     24916     28490     24916
     28493     24916     28496     24916     28499     24916     28502     24916
     28505     24916     28508     24916     28511     24916     28514     24916
     28517     24916     28520     24916     28523     24916     28526     24916
     28529     24916     28532     24916     28535     24916     28538     24916
     28541     24916     28544     24916     28547     24916     28550     24916
     28553     24916     28556     24916     28559     24916     28562     24916
     28565     24916     28568     24916     28571     24916     28574     24916
     28577     24916     28580     24916     28583     24916     28586     24916
     28589     24916     28592     24916     28595     24916     28598     24916
     28601     24916     28604     24916     28607     24916     28610     24916
     28613     24916     28616     24916     28619     24916     28622     24916
     28625     24916     28628     24916     28631     24916     28634     24916
     28637     24916     28640     24916     28643     24916     28646     24916
     28649     24916     28652     24916     28655     24916     28658     24916
     28661     24916     28664     24916     28667     24916     28670     24916
     28673     24916     28676     24916     28679     24916     28682     24916
     28685     24916     28688     24916     28691     24916     28694     24916
     28697     24916     28700     24916     28703     24916     28706     24916
     28709     24916     28712     24916     28715     24916     28718     24916
     28721     24916     28724     24916     28727     24916     28730     24916
     28733     24916     28736     24916     28739     24916     28742     24916
     28745     24916     28748     24916     28751     24916     28754     24916
     28757     24916     28760     24916     28763     24916     28766     24916
     28769     24916     28772     24916     28775     24916     28778     24916
     28781     24916     28784     24916     28787     24916     28790     24916
     28793     24916     28796     24916     28799     24916     28802     24916
     28805     24916     28808     24916     28811     24916     28814     24916
     28817     24916     28820     24916     28823     24916     28826     24916
     28829     24916     28832     24916     28835     24916     28838     24916
     28841     24916     28844     24916     28847     24916     28850     24916
     28853     24916     28856     24916     28859     24916     28862     24916
     28865     24916     28868     24916     28871     24916     28874     24916
     28877     24916     28880     24916     28883     24916     28886     24916
     28889     24916     28892     24916     28895     24916     28898     24916
     28901     24916     28904     24916     28907     24916     28910     24916
     28913     24916     28916     24916     28919     24916     28922     24916
     28925     24916     28928     24916     28931     24916     28934     24916
     28937     24916     28940     24916     28943     24916     28946     24916
     28949     24916     28952     24916     28955     24916     28958     24916
     28961     24916     28964     24916     28967     24916     28970     24916
     28973     24916     28976     24916     28979     24916     28982     24916
     28985     24916     28988     24916     28991     24916     28994     24916
     28997     24916     29000     24916     29003     24916     29006     24916
     29009     24916     29012     24916     29015     24916     29018     24916
     29021     24916     29024     24916     29027     24916     29030     24916
     29033     24916     29036     24916     29039     24916     29042     24916
     29045     24916     29048     24916     29051     24916     29054     24916
     29057     24916     29060     24916     29063     24916     29066     24916
     29069     24916     29072     24916     29075     24916     29078     24916
     29081     24916     29084     24916     29087     24916     29090     24916
     29093     24916     29096     24916     29099     24916     29102     24916
     29105     24916     29108     24916     29111     24916     29114     24916
     29117     24916     29120     24916     29123     24916     29126     24916
     29129     24916     29132     24916     29135     24916     29138     24916
     29141     24916     29144     24916     29147     24916     29150     24916
     29153     24916     29156     24916     29159     24916     29162     24916
     29165     24916     29168     24916     29171     24916     29174     24916
     29177     24916     29180     24916     29183     24916     29186     24916
     29189     24916     29192     24916     29195     24916     29198     24916
     29201     24916     29204     24916     29207     24916     29210     24916
     29213     24916     29216     24916     29219     24916     29222     24916
     29225     24916     29228     24916     29231     24916     29234     24916
     29237     24916     29240     24916     29243     24916     29246     24916
     29249     24916     29252     24916     29255     24916     29258     24916
     29261     24916     29264     24916     29267     24916     29270     24916
     29273     24916     29276     24916     29279     24916     29282     24916
     29285     24916     29288     24916     29291     24916     29294     24916
     29297     24916     29300     24916     29303     24916     29306     24916
     29309     24916     29312     24916     29315     24916     29318     24916
     29321     24916     29324     24916     29327     24916     29330     24916
     29333     24916     29336     24916     29339     24916     29342     24916
     29345     24916     29348     24916     29351     24916     29354     24916
     29357     24916     29360     24916     29363     24916     29366     24916
     29369     24916     29372     24916     29375     24916     29378     24916
     29381     24916     29384     24916     29387     24916     29390     24916
     29393     24916     29396     24916     29399     24916     29402     24916
     29405     24916     29408     24916     29411     24916     29414     24916
     29417     24916     29420     24916     29423     24916     29426     24916
     29429     24916     29432     24916     29435     24916     29438     24916
     29441     24916     29444     24916     29447     24916     29450     24916
     29453     24916     29456     24916     29459     24916     29462     24916
     29465     24916     29468     24916     29471     24916     29474     24916
     29477     24916     29480     24916     29483     24916     29486     24916
     29489     24916     29492     24916     29495     24916     29498     24916
     29501     24916     29504     24916     29507     24916     29510     24916
     29513     24916     29516     24916     29519     24916     29522     24916
     29525     24916     29528     24916     29531     24916     29534     24916
     29537     24916     29540     24916     29543     24916     29546     24916
     29549     24916     29552     24916     29555     24916     29558     24916
     29561     24916     29564     24916     29567     24916     29570     24916
     29573     24916     29576     24916     29579     24916     29582     24916
     29585     24916     29588     24916     29591     24916     29594     24916
     29597     24916     29600     24916     29603     24916     29606     24916
     29609     24916     29612     24916     29615     24916     29618     24916
     29621     24916     29624     24916     29627     24916     29630     24916
     29633     24916     29636     24916     29639     24916     29642     24916
     29645     24916     29648     24916     29651     24916     29654     24916
     29657     24916     29660     24916     29663     24916     29666     24916
     29669     24916     29672     24916     29675     24916     29678     24916
     29681     24916     29684     24916     29687     24916     29690     24916
     29693     24916     29696     24916     29699     24916     29702     24916
     29705     24916     29708     24916     29711     24916     29714     24916
     29717     24916     29720     24916     29723     24916     29726     24916
     29729     24916     29732     24916     29735     24916     29738     24916
     29741     24916     29744     24916     29747     24916     29750     24916
     29753     24916     29756     24916     29759     24916     29762     24916
     29765     24916     29768     24916     29771     24916     29774     24916
     29777     24916     29780     24916     29783     24916     29786     24916
     29789     24916     29792     24916     29795     24916     29798     24916
     29801     24916     29804     24916     29807     24916     29810     24916
     29813     24916     29816     24916     29819     24916     29822     24916
     29825     24916     29828     24916     29831     24916     29834     24916
     29837     24916     29840     24916     29843     24916     29846     24916
     29849     24916     29852     24916     29855     24916     29858     24916
     29861     24916     29864     24916     29867     24916     29870     24916
     29873     24916     29876     24916     29879     24916     29882     24916
     29885     24916     29888     24916     29891     24916     29894     24916
     29897     24916     29900     24916     29903     24916     29906     24916
     29909     24916     29912     24916     29915     24916     29918     24916
     29921     24916     29924     24916     29927     24916     29930     24916
     29933     24916     29936     24916     29939     24916     29942     24916
     29945     24916     29948     24916     29951     24916     29954     24916
     29957     24916     29960     24916     29963     24916     29966     24916
     29969     24916     29972     24916     29975     24916     29978     24916
     29981     24916     29984     24916     29987     24916     29990     24916
     29993     24916     29996     24916     29999     24916     30002     24916
     30005     24916     30008     24916     30011     24916     30014     24916
     30017     24916     30020     24916     30023     24916     30026     24916
     30029     24916     30032     24916     30035     24916     30038     24916
     30041     24916     30044     24916     30047     24916     30050     24916
     30053     24916     30056     24916     30059     24916     30062     24916
     30065     24916     30068     24916     30071     24916     30074     24916
     30077     24916     30080     24916     30083     24916     30086     24916
     30089     24916     30092     24916     30095     24916     30098     24916
     30101     24916     30104     24916     30107     24916     30110     24916
     30113     24916     30116     24916     30119     24916     30122     24916
     30125     24916     30128     24916     30131     24916     30134     24916
     30137     24916     30140     24916     30143     24916     30146     24916
     30149     24916     30152     24916     30155     24916     30158     24916
     30161     24916     30164     24916     30167     24916     30170     24916
     30173     24916     30176     24916     30179     24916     30182     24916
     30185     24916     30188     24916     30191     24916     30194     24916
     30197     24916     30200     24916     30203     24916     30206     24916
     30209     24916     30212     24916     30215     24916     30218     24916
     30221     24916     30224     24916     30227     24916     30230     24916
     30233     24916     30236     24916     30239     24916     30242     24916
     30245     24916     30248     24916     30251     24916     30254     24916
     30257     24916     30260     24916     30263     24916     30266     24916
     30269     24916     30272     24916     30275     24916     30278     24916
     30281     24916     30284     24916     30287     24916     30290     24916
     30293     24916     30296     24916     30299     24916     30302     24916
     30305     24916     30308     24916     30311     24916     30314     24916
     30317     24916     30320     24916     30323     24916     30326     24916
     30329     24916     30332     24916     30335     24916     30338     24916
     30341     24916     30344     24916     30347     24916     30350     24916
     30353     24916     30356     24916     30359     24916     30362     24916
     30365     24916     30368     24916     30371     24916     30374     24916
     30377     24916     30380     24916     30383     24916     30386     24916
     30389     24916     30392     24916     30395     24916     30398     24916
     30401     24916     30404     24916     30407     24916     30410     24916
     30413     24916     30416     24916     30419     24916     30422     24916
     30425     24916     30428     24916     30431     24916     30434     24916
     30437     24916     30440     24916     30443     24916     30446     24916
     30449     24916     30452     24916     30455     24916     30458     24916
     30461     24916     30464     24916     30467     24916     30470     24916
     30473     24916     30476     24916     30479     24916     30482     24916
     30485     24916     30488     24916     30491     24916     30494     24916
     30497     24916     30500     24916     30503     24916     30506     24916
     30509     24916     30512     24916     30515     24916     30518     24916
     30521     24916     30524     24916     30527     24916     30530     24916
     30533     24916     30536     24916     30539     24916     30542     24916
     30545     24916     30548     24916     30551     24916     30554     24916
     30557     24916     30560     24916     30563     24916     30566     24916
     30569     24916     30572     24916     30575     24916     30578     24916
     30581     24916     30584     24916     30587     24916     30590     24916
     30593     24916     30596     24916     30599     24916     30602     24916
     30605     24916     30608     24916     30611     24916     30614     24916
     30617     24916     30620     24916     30623     24916     30626     24916
     30629     24916     30632     24916     30635     24916     30638     24916
     30641     24916     30644     24916     30647     24916     30650     24916
     30653     24916     30656     24916     30659     24916     30662     24916
     30665     24916     30668     24916     30671     24916     30674     24916
     30677     24916     30680     24916     30683     24916     30686     24916
     30689     24916     30692     24916     30695     24916     30698     24916
     30701     24916     30704     24916     30707     24916     30710     24916
     30713     24916     30716     24916     30719     24916     30722     24916
     30725     24916     30728     24916     30731     24916     30734     24916
     30737     24916     30740     24916     30743     24916     30746     24916
     30749     24916     30752     24916     30755     24916     30758     24916
     30761     24916     30764     24916     30767     24916     30770     24916
     30773     24916     30776     24916     30779     24916     30782     24916
     30785     24916     30788     24916     30791     24916     30794     24916
     30797     24916     30800     24916     30803     24916     30806     24916
     30809     24916     30812     24916     30815     24916     30818     24916
     30821     24916     30824     24916     30827     24916     30830     24916
     30833     24916     30836     24916     30839     24916     30842     24916
     30845     24916     30848     24916     30851     24916     30854     24916
     30857     24916     30860     24916     30863     24916     30866     24916
     30869     24916     30872     24916     30875     24916     30878     24916
     30881     24916     30884     24916     30887     24916     30890     24916
     30893     24916     30896     24916     30899     24916     30902     24916
     30905     24916     30908     24916     30911     24916     30914     24916
     30917     24916     30920     24916     30923     24916     30926     24916
     30929     24916     30932     24916     30935     24916     30938     24916
     30941     24916     30944     24916     30947     24916     30950     24916
     30953     24916     30956     24916     30959     24916     30962     24916
     30965     24916     30968     24916     30971     24916     30974     24916
     30977     24916     30980     24916     30983     24916     30986     24916
     30989     24916     30992     24916     30995     24916     30998     24916
     31001     24916     31004     24916     31007     24916     31010     24916
     31013     24916     31016     24916     31019     24916     31022     24916
     31025     24916     31028     24916     31031     24916     31034     24916
     31037     24916     31040     24916     31043     24916     31046     24916
     31049     24916     31052     24916     31055     24916     31058     24916
     31061     24916     31064     24916     31067     24916     31070     24916
     31073     24916     31076     24916     31079     24916     31082     24916
     31085     24916     31088     24916     31091     24916     31094     24916
     31097     24916     31100     24916     31103     24916     31106     24916
     31109     24916     31112     24916     31115     24916     31118     24916
     31121     24916     31124     24916     31127     24916     31130     24916
     31133     24916     31136     24916     31139     24916     31142     24916
     31145     24916     31148     24916     31151     24916     31154     24916
     31157     24916     31160     24916     31163     24916     31166     24916
     31169     24916     31172     24916     31175     24916     31178     24916
     31181     24916     31184     24916     31187     24916     31190     24916
     31193     24916     31196     24916     31199     24916     31202     24916
     31205     24916     31208     24916     31211     24916     31214     24916
     31217     24916     31220     24916     31223     24916     31226     24916
     31229     24916     31232     24916     31235     24916     31238     24916
     31241     24916     31244     24916     31247     24916     31250     24916
     31253     24916     31256     24916     31259     24916     31262     24916
     31265     24916     31268     24916     31271     24916     31274     24916
     31277     24916     31280     24916     31283     24916     31286     24916
     31289     24916     31292     24916     31295     24916     31298     24916
     31301     24916     31304     24916     31307     24916     31310     24916
     31313     24916     31316     24916     31319     24916     31322     24916
     31325     24916     31328     24916     31331     24916     31334     24916
     31337     24916     31340     24916     31343     24916     31346     24916
     31349     24916     31352     24916     31355     24916     31358     24916
     31361     24916     31364     24916     31367     24916     31370     24916
     31373     24916     31376     24916     31379     24916     31382     24916
     31385     24916     31388     24916     31391     24916     31394     24916
     31397     24916     31400     24916     31403     24916     31406     24916
     31409     24916     31412     24916     31415     24916     31418     24916
     31421     24916     31424     24916     31427     24916     31430     24916
     31433     24916     31436     24916     31439     24916     31442     24916
     31445     24916     31448     24916     31451     24916     31454     24916
     31457     24916     31460     24916     31463     24916     31466     24916
     31469     24916     31472     24916     31475     24916     31478     24916
     31481     24916     31484     24916     31487     24916     31490     24916
     31493     24916     31496     24916     31499     24916     31502     24916
     31505     24916     31508     24916     31511     24916     31514     24916
     31517     24916     31520     24916     31523     24916     31526     24916
     31529     24916     31532     24916     31535     24916     31538     24916
     31541     24916     31544     24916     31547     24916     31550     24916
     31553     24916     31556     24916     31559     24916     31562     24916
     31565     24916     31568     24916     31571     24916     31574     24916
     31577     24916     31580     24916     31583     24916     31586     24916
     31589     24916     31592     24916     31595     24916     31598     24916
     31601     24916     31604     24916     31607     24916     31610     24916
     31613     24916     31616     24916     31619     24916     31622     24916
     31625     24916     31628     24916     31631     24916     31634     24916
     31637     24916     31640     24916     31643     24916     31646     24916
     31649     24916     31652     24916     31655     24916     31658     24916
     31661     24916     31664     24916     31667     24916     31670     24916
     31673     24916     31676     24916     31679     24916     31682     24916
     31685     24916     31688     24916     31691     24916     31694     24916
     31697     24916     31700     24916     31703     24916     31706     24916
     31709     24916     31712     24916     31715     24916     31718     24916
     31721     24916     31724     24916     31727     24916     31730     24916
     31733     24916     31736     24916     31739     24916     31742     24916
     31745     24916     31748     24916     31751     24916     31754     24916
     31757     24916     31760     24916     31763     24916     31766     24916
     31769     24916     31772     24916     31775     24916     31778     24916
     31781     24916     31784     24916     31787     24916     31790     24916
     31793     24916     31796     24916     31799     24916     31802     24916
     31805     24916     31808     24916     31811     24916     31814     24916
     31817     24916     31820     24916     31823     24916     31826     24916
     31829     24916     31832     24916     31835     24916     31838     24916
     31841     24916     31844     24916     31847     24916     31850     24916
     31853     24916     31856     24916     31859     24916     31862     24916
     31865     24916     31868     24916     31871     24916     31874     24916
     31877     24916     31880     24916     31883     24916     31886     24916
     31889     24916     31892     24916     31895     24916     31898     24916
     31901     24916     31904     24916     31907     24916     31910     24916
     31913     24916     31916     24916     31919     24916     31922     24916
     31925     24916     31928     24916     31931     24916     31934     24916
     31937     24916     31940     24916     31943     24916     31946     24916
     31949     24916     31952     24916     31955     24916     31958     24916
     31961     24916     31964     24916     31967     24916     31970     24916
     31973     24916     31976     24916     31979     24916     31982     24916
     31985     24916     31988     24916     31991     24916     31994     24916
     31997     24916     32000     24916     32003     24916     32006     24916
     32009     24916     32012     24916     32015     24916     32018     24916
     32021     24916     32024     24916     32027     24916     32030     24916
     32033     24916     32036     24916     32039     24916     32042     24916
     32045     24916     32048     24916     32051     24916     32054     24916
     32057     24916     32060     24916     32063     24916     32066     24916
     32069     24916     32072     24916     32075     24916     32078     24916
     32081     24916     32084     24916     32087     24916     32090     24916
     32093     24916     32096     24916     32099     24916     32102     24916
     32105     24916     32108     24916     32111     24916     32114     24916
     32117     24916     32120     24916     32123     24916     32126     24916
     32129     24916     32132     24916     32135     24916     32138     24916
     32141     24916     32144     24916     32147     24916     32150     24916
     32153     24916     32156     24916     32159     24916     32162     24916
     32165     24916     32168     24916     32171     24916     32174     24916
     32177     24916     32180     24916     32183     24916     32186     24916
     32189     24916     32192     24916     32195     24916     32198     24916
     32201     24916     32204     24916     32207     24916     32210     24916
     32213     24916     32216     24916     32219     24916     32222     24916
     32225     24916     32228     24916     32231     24916     32234     24916
     32237     24916     32240     24916     32243     24916     32246     24916
     32249     24916     32252     24916     32255     24916     32258     24916
     32261     24916     32264     24916     32267     24916     32270     24916
     32273     24916     32276     24916     32279     24916     32282     24916
     32285     24916     32288     24916     32291     24916     32294     24916
     32297     24916     32300     24916     32303     24916     32306     24916
     32309     24916     32312     24916     32315     24916     32318     24916
     32321     24916     32324     24916     32327     24916     32330     24916
     32333     24916     32336     24916     32339     24916     32342     24916
     32345     24916     32348     24916     32351     24916     32354     24916
     32357     24916     32360     24916     32363     24916     32366     24916
     32369     24916     32372     24916     32375     24916     32378     24916
     32381     24916     32384     24916     32387     24916     32390     24916
     32393     24916     32396     24916     32399     24916     32402     24916
     32405     24916     32408     24916     32411     24916     32414     24916
     32417     24916     32420     24916     32423     24916     32426     24916
     32429     24916     32432     24916     32435     24916     32438     24916
     32441     24916     32444     24916     32447     24916     32450     24916
     32453     24916     32456     24916     32459     24916     32462     24916
     32465     24916     32468     24916     32471     24916     32474     24916
     32477     24916     32480     24916     32483     24916     32486     24916
     32489     24916     32492     24916     32495     24916     32498     24916
     32501     24916     32504     24916     32507     24916     32510     24916
     32513     24916     32516     24916     32519     24916     32522     24916
     32525     24916     32528     24916     32531     24916     32534     24916
     32537     24916     32540     24916     32543     24916     32546     24916
     32549     24916     32552     24916     32555     24916     32558     24916
     32561     24916     32564     24916     32567     24916     32570     24916
     32573     24916     32576     24916     32579     24916     32582     24916
     32585     24916     32588     24916     32591     24916     32594     24916
     32597     24916     32600     24916     32603     24916     32606     24916
     32609     24916     32612     24916     32615     24916     32618     24916
     32621     24916     32624     24916     32627     24916     32630     24916
     32633     24916     32636     24916     32639     24916     32642     24916
     32645     24916     32648     24916     32651     24916     32654     24916
     32657     24916     32660     24916     32663     24916     32666     24916
     32669     24916     32672     24916     32675     24916     32678     24916
     32681     24916     32684     24916     32687     24916     32690     24916
     32693     24916     32696     24916     32699     24916     32702     24916
     32705     24916     32708     24916     32711     24916     32714     24916
     32717     24916     32720     24916     32723     24916     32726     24916
     32729     24916     32732     24916     32735     24916     32738     24916
     32741     24916     32744     24916     32747     24916     32750     24916
     32753     24916     32756     24916     32759     24916     32762     24916
     32765     24916     32768     24916     32771     24916     32774     24916
     32777     24916     32780     24916     32783     24916     32786     24916
     32789     24916     32792     24916     32795     24916     32798     24916
     32801     24916     32804     24916     32807     24916     32810     24916
     32813     24916     32816     24916     32819     24916     32822     24916
     32825     24916     32828     24916     32831     24916     32834     24916
     32837     24916     32840     24916     32843     24916     32846     24916
     32849     24916     32852     24916     32855     24916     32858     24916
     32861     24916     32864     24916     32867     24916     32870     24916
     32873     24916     32876     24916     32879     24916     32882     24916
     32885     24916     32888     24916     32891     24916     32894     24916
     32897     24916     32900     24916     32903     24916     32906     24916
     32909     24916     32912     24916     32915     24916     32918     24916
     32921     24916     32924     24916     32927     24916     32930     24916
     32933     24916     32936     24916     32939     24916     32942     24916
     32945     24916     32948     24916     32951     24916     32954     24916
     32957     24916     32960     24916     32963     24916     32966     24916
     32969     24916     32972     24916     32975     24916     32978     24916
     32981     24916     32984     24916     32987     24916     32990     24916
     32993     24916     32996     24916     32999     24916     33002     24916
     33005     24916     33008     24916     33011     24916     33014     24916
     33017     24916     33020     24916     33023     24916     33026     24916
     33029     24916     33032     24916     33035     24916     33038     24916
     33041     24916     33044     24916     33047     24916     33050     24916
     33053     24916     33056     24916     33059     24916     33062     24916
     33065     24916     33068     24916     33071     24916     33074     24916
     33077     24916     33080     24916     33083     24916     33086     24916
     33089     24916     33092     24916     33095     24916     33098     24916
     33101     24916     33104     24916     33107     24916     33110     24916
     33113     24916     33116     24916     33119     24916     33122     24916
     33125     24916     33128     24916     33131     24916     33134     24916
     33137     24916     33140     24916     33143     24916     33146     24916
     33149     24916     33152     24916     33155     24916     33158     24916
     33161     24916     33164     24916     33167     24916     33170     24916
     33173     24916     33176     24916     33179     24916     33182     24916
     33185     24916     33188     24916     33191     24916     33194     24916
     33197     24916     33200     24916     33203     24916     33206     24916
     33209     24916     33212     24916     33215     24916     33218     24916
     33221     24916     33224     24916     33227     24916     33230     24916
     33233     24916     33236     24916     33239     24916     33242     24916
     33245     24916     33248     24916     33251     24916     33254     24916
     33257     24916     33260     24916     33263     24916     33266     24916
     33269     24916     33272     24916     33275     24916     33278     24916
     33281     24916     33284     24916     33287     24916     33290     24916
     33293     24916     33296     24916     33299     24916     33302     24916
     33305     24916     33308     24916     33311     24916     33314     24916
     33317     24916     33320     24916     33323     24916     33326     24916
     33329     24916     33332     24916     33335     24916     33338     24916
     33341     24916     33344     24916     33347     24916     33350     24916
     33353     24916     33356     24916     33359     24916     33362     24916
     33365     24916     33368     24916     33371     24916     33374     24916
     33377     24916     33380     24916     33383     24916     33386     24916
     33389     24916     33392     24916     33395     24916     33398     24916
     33401     24916     33404     24916     33407     24916     33410     24916
     33413     24916     33416     24916     33419     24916     33422     24916
     33425     24916     33428     24916     33431     24916     33434     24916
     33437     24916     33440     24916     33443     24916     33446     24916
     33449     24916     33452     24916     33455     24916     33458     24916
     33461     24916     33464     24916     33467     24916     33470     24916
     33473     24916     33476     24916     33479     24916     33482     24916
     33485     24916     33488     24916     33491     24916     33494     24916
     33497     24916     33500     24916     33503     24916     33506     24916
     33509     24916     33512     24916     33515     24916     33518     24916
     33521     24916     33524     24916     33527     24916     33530     24916
     33533     24916     33536     24916     33539     24916     33542     24916
     33545     24916     33548     24916     33551     24916     33554     24916
     33557     24916     33560     24916     33563     24916     33566     24916
     33569     24916     33572     24916     33575     24916     33578     24916
     33581     24916     33584     24916     33587     24916     33590     24916
     33593     24916     33596     24916     33599     24916     33602     24916
     33605     24916     33608     24916     33611     24916     33614     24916
     33617     24916     33620     24916     33623     24916     33626     24916
     33629     24916     33632     24916     33635     24916     33638     24916
     33641     24916     33644     24916     33647     24916     33650     24916
     33653     24916     33656     24916     33659     24916     33662     24916
     33665     24916     33668     24916     33671     24916     33674     24916
     33677     24916     33680     24916     33683     24916     33686     24916
     33689     24916     33692     24916     33695     24916     33698     24916
     33701     24916     33704     24916     33707     24916     33710     24916
     33713     24916     33716     24916     33719     24916     33722     24916
     33725     24916     33728     24916     33731     24916     33734     24916
     33737     24916     33740     24916     33743     24916     33746     24916
     33749     24916     33752     24916     33755     24916     33758     24916
     33761     24916     33764     24916     33767     24916     33770     24916
     33773     24916     33776     24916     33779     24916     33782     24916
     33785     24916     33788     24916     33791     24916     33794     24916
     33797     24916     33800     24916     33803     24916     33806     24916
     33809     24916     33812     24916     33815     24916     33818     24916
     33821     24916     33824     24916     33827     24916     33830     24916
     33833     24916     33836     24916     33839     24916     33842     24916
     33845     24916     33848     24916     33851     24916     33854     24916
     33857     24916     33860     24916     33863     24916     33866     24916
     33869     24916     33872     24916     33875     24916     33878     24916
     33881     24916     33884     24916     33887     24916     33890     24916
     33893     24916     33896     24916     33899     24916     33902     24916
     33905     24916     33908     24916     33911     24916     33914     24916
     33917     24916     33920     24916     33923     24916     33926     24916
     33929     24916     33932     24916     33935     24916     33938     24916
     33941     24916     33944     24916     33947     24916     33950     24916
     33953     24916     33956     24916     33959     24916     33962     24916
     33965     24916     33968     24916     33971     24916     33974     24916
     33977     24916     33980     24916     33983     24916     33986     24916
     33989     24916     33992     24916     33995     24916     33998     24916
     34001     24916     34004     24916     34007     24916     34010     24916
     34013     24916     34016     24916     34019     24916     34022     24916
     34025     24916     34028     24916     34031     24916     34034     24916
     34037     24916     34040     24916     34043     24916     34046     24916
     34049     24916     34052     24916     34055     24916     34058     24916
     34061     24916     34064     24916     34067     24916     34070     24916
     34073     24916     34076     24916     34079     24916     34082     24916
     34085     24916     34088     24916     34091     24916     34094     24916
     34097     24916     34100     24916     34103     24916     34106     24916
     34109     24916     34112     24916     34115     24916     34118     24916
     34121     24916     34124     24916     34127     24916     34130     24916
     34133     24916     34136     24916     34139     24916     34142     24916
     34145     24916     34148     24916     34151     24916     34154     24916
     34157     24916     34160     24916     34163     24916     34166     24916
     34169     24916     34172     24916     34175     24916     34178     24916
     34181     24916     34184     24916     34187     24916     34190     24916
     34193     24916     34196     24916     34199     24916     34202     24916
     34205     24916     34208     24916     34211     24916     34214     24916
     34217     24916     34220     24916     34223     24916     34226     24916
     34229     24916     34232     24916     34235     24916     34238     24916
     34241     24916     34244     24916     34247     24916     34250     24916
     34253     24916     34256     24916     34259     24916     34262     24916
     34265     24916     34268     24916     34271     24916     34274     24916
     34277     24916     34280     24916     34283     24916     34286     24916
     34289     24916     34292     24916     34295     24916     34298     24916
     34301     24916     34304     24916     34307     24916     34310     24916
     34313     24916     34316     24916     34319     24916     34322     24916
     34325     24916     34328     24916     34331     24916     34334     24916
     34337     24916     34340     24916     34343     24916     34346     24916
     34349     24916     34352     24916     34355     24916     34358     24916
     34361     24916     34364     24916     34367     24916     34370     24916
     34373     24916     34376     24916     34379     24916     34382     24916
     34385     24916     34388     24916     34391     24916     34394     24916
     34397     24916     34400     24916     34403     24916     34406     24916
     34409     24916     34412     24916     34415     24916     34418     24916
     34421     24916     34424     24916     34427     24916     34430     24916
     34433     24916     34436     24916     34439     24916     34442     24916
     34445     24916     34448     24916     34451     24916     34454     24916
     34457     24916     34460     24916     34463     24916     34466     24916
     34469     24916     34472     24916     34475     24916     34478     24916
     34481     24916     34484     24916     34487     24916     34490     24916
     34493     24916     34496     24916     34499     24916     34502     24916
     34505     24916     34508     24916     34511     24916     34514     24916
     34517     24916     34520     24916     34523     24916     34526     24916
     34529     24916     34532     24916     34535     24916     34538     24916
     34541     24916     34544     24916     34547     24916     34550     24916
     34553     24916     34556     24916     34559     24916     34562     24916
     34565     24916     34568     24916     34571     24916     34574     24916
     34577     24916     34580     24916     34583     24916     34586     24916
     34589     24916     34592     24916     34595     24916     34598     24916
     34601     24916     34604     24916     34607     24916     34610     24916
     34613     24916     34616     24916     34619     24916     34622     24916
     34625     24916     34628     24916     34631     24916     34634     24916
     34637     24916     34640     24916     34643     24916     34646     24916
     34649     24916     34652     24916     34655     24916     34658     24916
     34661     24916     34664     24916     34667     24916     34670     24916
     34673     24916     34676     24916     34679     24916     34682     24916
     34685     24916     34688     24916     34691     24916     34694     24916
     34697     24916     34700     24916     34703     24916     34706     24916
     34709     24916     34712     24916     34715     24916     34718     24916
     34721     24916     34724     24916     34727     24916     34730     24916
     34733     24916     34736     24916     34739     24916     34742     24916
     34745     24916     34748     24916     34751     24916     34754     24916
     34757     24916     34760     24916     34763     24916     34766     24916
     34769     24916     34772     24916     34775     24916     34778     24916
     34781     24916     34784     24916     34787     24916     34790     24916
     34793     24916     34796     24916     34799     24916     34802     24916
     34805     24916     34808     24916     34811     24916     34814     24916
     34817     24916     34820     24916     34823     24916     34826     24916
     34829     24916     34832     24916     34835     24916     34838     24916
     34841     24916     34844     24916     34847     24916     34850     24916
     34853     24916     34856     24916     34859     24916     34862     24916
     34865     24916     34868     24916     34871     24916     34874     24916
     34877     24916     34880     24916     34883     24916     34886     24916
     34889     24916     34892     24916     34895     24916     34898     24916
     34901     24916     34904     24916     34907     24916     34910     24916
     34913     24916     34916     24916     34919     24916     34922     24916
     34925     24916     34928     24916     34931     24916     34934     24916
     34937     24916     34940     24916     34943     24916     34946     24916
     34949     24916     34952     24916     34955     24916     34958     24916
     34961     24916     34964     24916     34967     24916     34970     24916
     34973     24916     34976     24916     34979     24916     34982     24916
     34985     24916     34988     24916     34991     24916     34994     24916
     34997     24916     35000     24916     35003     24916     35006     24916
     35009     24916     35012     24916     35015     24916     35018     24916
     35021     24916     35024     24916     35027     24916     35030     24916
     35033     24916     35036     24916     35039     24916     35042     24916
     35045     24916     35048     24916     35051     24916     35054     24916
     35057     24916     35060     24916     35063     24916     35066     24916
     35069     24916     35072     24916     35075     24916     35078     24916
     35081     24916     35084     24916     35087     24916     35090     24916
     35093     24916     35096     24916     35099     24916     35102     24916
     35105     24916     35108     24916     35111     24916     35114     24916
     35117     24916     35120     24916     35123     24916     35126     24916
     35129     24916     35132     24916     35135     24916     35138     24916
     35141     24916     35144     24916     35147     24916     35150     24916
     35153     24916     35156     24916     35159     24916     35162     24916
     35165     24916     35168     24916     35171     24916     35174     24916
     35177     24916     35180     24916     35183     24916     35186     24916
     35189     24916     35192     24916     35195     24916     35198     24916
     35201     24916     35204     24916     35207     24916     35210     24916
     35213     24916     35216     24916     35219     24916     35222     24916
     35225     24916     35228     24916     35231     24916     35234     24916
     35237     24916     35240     24916     35243     24916     35246     24916
     35249     24916     35252     24916     35255     24916     35258     24916
     35261     24916     35264     24916     35267     24916     35270     24916
     35273     24916     35276     24916     35279     24916     35282     24916
     35285     24916     35288     24916     35291     24916     35294     24916
     35297     24916     35300     24916     35303     24916     35306     24916
     35309     24916     35312     24916     35315     24916     35318     24916
     35321     24916     35324     24916     35327     24916     35330     24916
     35333     24916     35336     24916     35339     24916     35342     24916
     35345     24916     35348     24916     35351     24916     35354     24916
     35357     24916     35360     24916     35363     24916     35366     24916
     35369     24916     35372     24916     35375     24916     35378     24916
     35381     24916     35384     24916     35387     24916     35390     24916
     35393     24916     35396     24916     35399     24916     35402     24916
     35405     24916     35408     24916     35411     24916     35414     24916
     35417     24916     35420     24916     35423     24916     35426     24916
     35429     24916     35432     24916     35435     24916     35438     24916
     35441     24916     35444     24916     35447     24916     35450     24916
     35453     24916     35456     24916     35459     24916     35462     24916
     35465     24916     35468     24916     35471     24916     35474     24916
     35477     24916     35480     24916     35483     24916     35486     24916
     35489     24916     35492     24916     35495     24916     35498     24916
     35501     24916     35504     24916     35507     24916     35510     24916
     35513     24916     35516     24916     35519     24916     35522     24916
     35525     24916     35528     24916     35531     24916     35534     24916
     35537     24916     35540     24916     35543     24916     35546     24916
     35549     24916     35552     24916     35555     24916     35558     24916
     35561     24916     35564     24916     35567     24916     35570     24916
     35573     24916     35576     24916     35579     24916     35582     24916
     35585     24916     35588     24916     35591     24916     35594     24916
     35597     24916     35600     24916     35603     24916     35606     24916
     35609     24916     35612     24916     35615     24916     35618     24916
     35621     24916     35624     24916     35627     24916     35630     24916
     35633     24916     35636     24916     35639     24916     35642     24916
     35645     24916     35648     24916     35651     24916     35654     24916
     35657     24916     35660     24916     35663     24916     35666     24916
     35669     24916     35672     24916     35675     24916     35678     24916
     35681     24916     35684     24916     35687     24916     35690     24916
     35693     24916     35696     24916     35699     24916     35702     24916
     35705     24916     35708     24916     35711     24916     35714     24916
     35717     24916     35720     24916     35723     24916     35726     24916
     35729     24916     35732     24916     35735     24916     35738     24916
     35741     24916     35744     24916     35747     24916     35750     24916
     35753     24916     35756     24916     35759     24916     35762     24916
     35765     24916     35768     24916     35771     24916     35774     24916
     35777     24916     35780     24916     35783     24916     35786     24916
     35789     24916     35792     24916     35795     24916     35798     24916
     35801     24916     35804     24916     35807     24916     35810     24916
     35813     24916     35816     24916     35819     24916     35822     24916
     35825     24916     35828     24916     35831     24916     35834     24916
     35837     24916     35840     24916     35843     24916     35846     24916
     35849     24916     35852     24916     35855     24916     35858     24916
     35861     24916     35864     24916     35867     24916     35870     24916
     35873     24916     35876     24916     35879     24916     35882     24916
     35885     24916     35888     24916     35891     24916     35894     24916
     35897     24916     35900     24916     35903     24916     35906     24916
     35909     24916     35912     24916     35915     24916     35918     24916
     35921     24916     35924     24916     35927     24916     35930     24916
     35933     24916     35936     24916     35939     24916     35942     24916
     35945     24916     35948     24916     35951     24916     35954     24916
     35957     24916     35960     24916     35963     24916     35966     24916
     35969     24916     35972     24916     35975     24916     35978     24916
     35981     24916     35984     24916     35987     24916     35990     24916
     35993     24916     35996     24916     35999     24916     36002     24916
     36005     24916     36008     24916     36011     24916     36014     24916
     36017     24916     36020     24916     36023     24916     36026     24916
     36029     24916     36032     24916     36035     24916     36038     24916
     36041     24916     36044     24916     36047     24916     36050     24916
     36053     24916     36056     24916     36059     24916     36062     24916
     36065     24916     36068     24916     36071     24916     36074     24916
     36077     24916     36080     24916     36083     24916     36086     24916
     36089     24916     36092     24916     36095     24916     36098     24916
     36101     24916     36104     24916     36107     24916     36110     24916
     36113     24916     36116     24916     36119     24916     36122     24916
     36125     24916     36128     24916     36131     24916     36134     24916
     36137     24916     36140     24916     36143     24916     36146     24916
     36149     24916     36152     24916     36155     24916     36158     24916
     36161     24916     36164     24916     36167     24916     36170     24916
     36173     24916     36176     24916     36179     24916     36182     24916
     36185     24916     36188     24916     36191     24916     36194     24916
     36197     24916     36200     24916     36203     24916     36206     24916
     36209     24916     36212     24916     36215     24916     36218     24916
     36221     24916     36224     24916     36227     24916     36230     24916
     36233     24916     36236     24916     36239     24916     36242     24916
     36245     24916     36248     24916     36251     24916     36254     24916
     36257     24916     36260     24916     36263     24916     36266     24916
     36269     24916     36272     24916     36275     24916     36278     24916
     36281     24916     36284     24916     36287     24916     36290     24916
     36293     24916     36296     24916     36299     24916     36302     24916
     36305     24916     36308     24916     36311     24916     36314     24916
     36317     24916     36320     24916     36323     24916     36326     24916
     36329     24916     36332     24916     36335     24916     36338     24916
     36341     24916     36344     24916     36347     24916     36350     24916
     36353     24916     36356     24916     36359     24916     36362     24916
     36365     24916     36368     24916     36371     24916     36374     24916
     36377     24916     36380     24916     36383     24916     36386     24916
     36389     24916     36392     24916     36395     24916     36398     24916
     36401     24916     36404     24916     36407     24916     36410     24916
     36413     24916     36416     24916     36419     24916     36422     24916
     36425     24916     36428     24916     36431     24916     36434     24916
     36437     24916     36440     24916     36443     24916     36446     24916
     36449     24916     36452     24916     36455     24916     36458     24916
     36461     24916     36464     24916     36467     24916     36470     24916
     36473     24916     36476     24916     36479     24916     36482     24916
     36485     24916     36488     24916     36491     24916     36494     24916
     36497     24916     36500     24916     36503     24916     36506     24916
     36509     24916     36512     24916     36515     24916     36518     24916
     36521     24916     36524     24916     36527     24916     36530     24916
     36533     24916     36536     24916     36539     24916     36542     24916
     36545     24916     36548     24916     36551     24916     36554     24916
     36557     24916     36560     24916     36563     24916     36566     24916
     36569     24916     36572     24916     36575     24916     36578     24916
     36581     24916     36584     24916     36587     24916     36590     24916
     36593     24916     36596     24916     36599     24916     36602     24916
     36605     24916     36608     24916     36611     24916     36614     24916
     36617     24916     36620     24916     36623     24916     36626     24916
     36629     24916     36632     24916     36635     24916     36638     24916
     36641     24916     36644     24916     36647     24916     36650     24916
     36653     24916     36656     24916     36659     24916     36662     24916
     36665     24916     36668     24916     36671     24916     36674     24916
     36677     24916     36680     24916     36683     24916     36686     24916
     36689     24916     36692     24916     36695     24916     36698     24916
     36701     24916     36704     24916     36707     24916     36710     24916
     36713     24916     36716     24916     36719     24916     36722     24916
     36725     24916     36728     24916     36731     24916     36734     24916
     36737     24916     36740     24916     36743     24916     36746     24916
     36749     24916     36752     24916     36755     24916     36758     24916
     36761     24916     36764     24916     36767     24916     36770     24916
     36773     24916     36776     24916     36779     24916     36782     24916
     36785     24916     36788     24916     36791     24916     36794     24916
     36797     24916     36800     24916     36803     24916     36806     24916
     36809     24916     36812     24916     36815     24916     36818     24916
     36821     24916     36824     24916     36827     24916     36830     24916
     36833     24916     36836     24916     36839     24916     36842     24916
     36845     24916     36848     24916     36851     24916     36854     24916
     36857     24916     36860     24916     36863     24916     36866     24916
     36869     24916     36872     24916     36875     24916     36878     24916
     36881     24916     36884     24916     36887     24916     36890     24916
     36893     24916     36896     24916     36899     24916     36902     24916
     36905     24916     36908     24916     36911     24916     36914     24916
     36917     24916     36920     24916     36923     24916     36926     24916
     36929     24916     36932     24916     36935     24916     36938     24916
     36941     24916     36944     24916     36947     24916     36950     24916
     36953     24916     36956     24916     36959     24916     36962     24916
     36965     24916     36968     24916     36971     24916     36974     24916
     36977     24916     36980     24916     36983     24916     36986     24916
     36989     24916     36992     24916     36995     24916     36998     24916
     37001     24916     37004     24916     37007     24916     37010     24916
     37013     24916     37016     24916     37019     24916     37022     24916
     37025     24916     37028     24916     37031     24916     37034     24916
     37037     24916     37040     24916     37043     24916     37046     24916
     37049     24916     37052     24916     37055     24916     37058     24916
     37061     24916     37064     24916     37067     24916     37070     24916
     37073     24916     37076     24916     37079     24916     37082     24916
     37085     24916     37088     24916     37091     24916     37094     24916
     37097     24916     37100     24916     37103     24916     37106     24916
     37109     24916     37112     24916     37115     24916     37118     24916
     37121     24916     37124     24916     37127     24916     37130     24916
     37133     24916     37136     24916     37139     24916     37142     24916
     37145     24916     37148     24916     37151     24916     37154     24916
     37157     24916     37160     24916     37163     24916     37166     24916
     37169     24916     37172     24916     37175     24916     37178     24916
     37181     24916     37184     24916     37187     24916     37190     24916
     37193     24916     37196     24916     37199     24916     37202     24916
     37205     24916     37208     24916     37211     24916     37214     24916
     37217     24916     37220     24916     37223     24916     37226     24916
     37229     24916     37232     24916     37235     24916     37238     24916
     37241     24916     37244     24916     37247     24916     37250     24916
     37253     24916     37256     24916     37259     24916     37262     24916
     37265     24916     37268     24916     37271     24916     37274     24916
     37277     24916     37280     24916     37283     24916     37286     24916
     37289     24916     37292     24916     37295     24916     37298     24916
     37301     24916     37304     24916     37307     24916     37310     24916
     37313     24916     37316     24916     37319     24916     37322     24916
     37325     24916     37328     24916     37331     24916     37334     24916
     37337     24916     37340     24916     37343     24916     37346     24916
     37349     24916     37352     24916     37355     24916     37358     24916
     37361     24916     37364     24916     37367     24916     37370     24916
     37373     24916     37376     24916     37379     24916     37382     24916
     37385     24916     37388     24916     37391     24916     37394     24916
     37397     24916     37400     24916     37403     24916     37406     24916
     37409     24916     37412     24916     37415     24916     37418     24916
     37421     24916     37424     24916     37427     24916     37430     24916
     37433     24916     37436     24916     37439     24916     37442     24916
     37445     24916     37448     24916     37451     24916     37454     24916
     37457     24916     37460     24916     37463     24916     37466     24916
     37469     24916     37472     24916     37475     24916     37478     24916
     37481     24916     37484     24916     37487     24916     37490     24916
     37493     24916     37496     24916     37499     24916     37502     24916
     37505     24916     37508     24916     37511     24916     37514     24916
     37517     24916     37520     24916     37523     24916     37526     24916
     37529     24916     37532     24916     37535     24916     37538     24916
     37541     24916     37544     24916     37547     24916     37550     24916
     37553     24916     37556     24916     37559     24916     37562     24916
     37565     24916     37568     24916     37571     24916     37574     24916
     37577     24916     37580     24916     37583     24916     37586     24916
     37589     24916     37592     24916     37595     24916     37598     24916
     37601     24916     37604     24916     37607     24916     37610     24916
     37613     24916     37616     24916     37619     24916     37622     24916
     37625     24916     37628     24916     37631     24916     37634     24916
     37637     24916     37640     24916     37643     24916     37646     24916
     37649     24916     37652     24916     37655     24916     37658     24916
     37661     24916     37664     24916     37667     24916     37670     24916
     37673     24916     37676     24916     37679     24916     37682     24916
     37685     24916     37688     24916     37691     24916     37694     24916
     37697     24916     37700     24916     37703     24916     37706     24916
     37709     24916     37712     24916     37715     24916     37718     24916
     37721     24916     37724     24916     37727     24916     37730     24916
     37733     24916     37736     24916     37739     24916     37742     24916
     37745     24916     37748     24916     37751     24916     37754     24916
     37757     24916     37760     24916     37763     24916     37766     24916
     37769     24916     37772     24916     37775     24916     37778     24916
     37781     24916     37784     24916     37787     24916     37790     24916
     37793     24916     37796     24916     37799     24916     37802     24916
     37805     24916     37808     24916     37811     24916     37814     24916
     37817     24916     37820     24916     37823     24916     37826     24916
     37829     24916     37832     24916     37835     24916     37838     24916
     37841     24916     37844     24916     37847     24916     37850     24916
     37853     24916     37856     24916     37859     24916     37862     24916
     37865     24916     37868     24916     37871     24916     37874     24916
     37877     24916     37880     24916     37883     24916     37886     24916
     37889     24916     37892     24916     37895     24916     37898     24916
     37901     24916     37904     24916     37907     24916     37910     24916
     37913     24916     37916     24916     37919     24916     37922     24916
     37925     24916     37928     24916     37931     24916     37934     24916
     37937     24916     37940     24916     37943     24916     37946     24916
     37949     24916     37952     24916     37955     24916     37958     24916
     37961     24916     37964     24916     37967     24916     37970     24916
     37973     24916     37976     24916     37979     24916     37982     24916
     37985     24916     37988     24916     37991     24916     37994     24916
     37997     24916     38000     24916     38003     24916     38006     24916
     38009     24916     38012     24916     38015     24916     38018     24916
     38021     24916     38024     24916     38027     24916     38030     24916
     38033     24916     38036     24916     38039     24916     38042     24916
     38045     24916     38048     24916     38051     24916     38054     24916
     38057     24916     38060     24916     38063     24916     38066     24916
     38069     24916     38072     24916     38075     24916     38078     24916
     38081     24916     38084     24916     38087     24916     38090     24916
     38093     24916     38096     24916     38099     24916     38102     24916
     38105     24916     38108     24916     38111     24916     38114     24916
     38117     24916     38120     24916     38123     24916     38126     24916
     38129     24916     38132     24916     38135     24916     38138     24916
     38141     24916     38144     24916     38147     24916     38150     24916
     38153     24916     38156     24916     38159     24916     38162     24916
     38165     24916     38168     24916     38171     24916     38174     24916
     38177     24916     38180     24916     38183     24916     38186     24916
     38189     24916     38192     24916     38195     24916     38198     24916
     38201     24916     38204     24916     38207     24916     38210     24916
     38213     24916     38216     24916     38219     24916     38222     24916
     38225     24916     38228     24916     38231     24916     38234     24916
     38237     24916     38240     24916     38243     24916     38246     24916
     38249     24916     38252     24916     38255     24916     38258     24916
     38261     24916     38264     24916     38267     24916     38270     24916
     38273     24916     38276     24916     38279     24916     38282     24916
     38285     24916     38288     24916     38291     24916     38294     24916
     38297     24916     38300     24916     38303     24916     38306     24916
     38309     24916     38312     24916     38315     24916     38318     24916
     38321     24916     38324     24916     38327     24916     38330     24916
     38333     24916     38336     24916     38339     24916     38342     24916
     38345     24916     38348     24916     38351     24916     38354     24916
     38357     24916     38360     24916     38363     24916     38366     24916
     38369     24916     38372     24916     38375     24916     38378     24916
     38381     24916     38384     24916     38387     24916     38390     24916
     38393     24916     38396     24916     38399     24916     38402     24916
     38405     24916     38408     24916     38411     24916     38414     24916
     38417     24916     38420     24916     38423     24916     38426     24916
     38429     24916     38432     24916     38435     24916     38438     24916
     38441     24916     38444     24916     38447     24916     38450     24916
     38453     24916     38456     24916     38459     24916     38462     24916
     38465     24916     38468     24916     38471     24916     38474     24916
     38477     24916     38480     24916     38483     24916     38486     24916
     38489     24916     38492     24916     38495     24916     38498     24916
     38501     24916     38504     24916     38507     24916     38510     24916
     38513     24916     38516     24916     38519     24916     38522     24916
     38525     24916     38528     24916     38531     24916     38534     24916
     38537     24916     38540     24916     38543     24916     38546     24916
     38549     24916     38552     24916     38555     24916     38558     24916
     38561     24916     38564     24916     38567     24916     38570     24916
     38573     24916     38576     24916     38579     24916     38582     24916
     38585     24916     38588     24916     38591     24916     38594     24916
     38597     24916     38600     24916     38603     24916     38606     24916
     38609     24916     38612     24916     38615     24916     38618     24916
     38621     24916     38624     24916     38627     24916     38630     24916
     38633     24916     38636     24916     38639     24916     38642     24916
     38645     24916     38648     24916     38651     24916     38654     24916
     38657     24916     38660     24916     38663     24916     38666     24916
     38669     24916     38672     24916     38675     24916     38678     24916
     38681     24916     38684     24916     38687     24916     38690     24916
     38693     24916     38696     24916     38699     24916     38702     24916
     38705     24916     38708     24916     38711     24916     38714     24916
     38717     24916     38720     24916     38723     24916     38726     24916
     38729     24916     38732     24916     38735     24916     38738     24916
     38741     24916     38744     24916     38747     24916     38750     24916
     38753     24916     38756     24916     38759     24916     38762     24916
     38765     24916     38768     24916     38771     24916     38774     24916
     38777     24916     38780     24916     38783     24916     38786     24916
     38789     24916     38792     24916     38795     24916     38798     24916
     38801     24916     38804     24916     38807     24916     38810     24916
     38813     24916     38816     24916     38819     24916     38822     24916
     38825     24916     38828     24916     38831     24916     38834     24916
     38837     24916     38840     24916     38843     24916     38846     24916
     38849     24916     38852     24916     38855     24916     38858     24916
     38861     24916     38864     24916     38867     24916     38870     24916
     38873     24916     38876     24916     38879     24916     38882     24916
     38885     24916     38888     24916     38891     24916     38894     24916
     38897     24916     38900     24916     38903     24916     38906     24916
     38909     24916     38912     24916     38915     24916     38918     24916
     38921     24916     38924     24916     38927     24916     38930     24916
     38933     24916     38936     24916     38939     24916     38942     24916
     38945     24916     38948     24916     38951     24916     38954     24916
     38957     24916     38960     24916     38963     24916     38966     24916
     38969     24916     38972     24916     38975     24916     38978     24916
     38981     24916     38984     24916     38987     24916     38990     24916
     38993     24916     38996     24916     38999     24916     39002     24916
     39005     24916     39008     24916     39011     24916     39014     24916
     39017     24916     39020     24916     39023     24916     39026     24916
     39029     24916     39032     24916     39035     24916     39038     24916
     39041     24916     39044     24916     39047     24916     39050     24916
     39053     24916     39056     24916     39059     24916     39062     24916
     39065     24916     39068     24916     39071     24916     39074     24916
     39077     24916     39080     24916     39083     24916     39086     24916
     39089     24916     39092     24916     39095     24916     39098     24916
     39101     24916     39104     24916     39107     24916     39110     24916
     39113     24916     39116     24916     39119     24916     39122     24916
     39125     24916     39128     24916     39131     24916     39134     24916
     39137     24916     39140     24916     39143     24916     39146     24916
     39149     24916     39152     24916     39155     24916     39158     24916
     39161     24916     39164     24916     39167     24916     39170     24916
     39173     24916     39176     24916     39179     24916     39182     24916
     39185     24916     39188     24916     39191     24916     39194     24916
     39197     24916     39200     24916     39203     24916     39206     24916
     39209     24916     39212     24916     39215     24916     39218     24916
     39221     24916     39224     24916     39227     24916     39230     24916
     39233     24916     39236     24916     39239     24916     39242     24916
     39245     24916     39248     24916     39251     24916     39254     24916
     39257     24916     39260     24916     39263     24916     39266     24916
     39269     24916     39272     24916     39275     24916     39278     24916
     39281     24916     39284     24916     39287     24916     39290     24916
     39293     24916     39296     24916     39299     24916     39302     24916
     39305     24916     39308     24916     39311     24916     39314     24916
     39317     24916     39320     24916     39323     24916     39326     24916
     39329     24916     39332     24916     39335     24916     39338     24916
     39341     24916     39344     24916     39347     24916     39350     24916
     39353     24916     39356     24916     39359     24916     39362     24916
     39365     24916     39368     24916     39371     24916     39374     24916
     39377     24916     39380     24916     39383     24916     39386     24916
     39389     24916     39392     24916     39395     24916     39398     24916
     39401     24916     39404     24916     39407     24916     39410     24916
     39413     24916     39416     24916     39419     24916     39422     24916
     39425     24916     39428     24916     39431     24916     39434     24916
     39437     24916     39440     24916     39443     24916     39446     24916
     39449     24916     39452     24916     39455     24916     39458     24916
     39461     24916     39464     24916     39467     24916     39470     24916
     39473     24916     39476     24916     39479     24916     39482     24916
     39485     24916     39488     24916     39491     24916     39494     24916
     39497     24916     39500     24916     39503     24916     39506     24916
     39509     24916     39512     24916     39515     24916     39518     24916
     39521     24916     39524     24916     39527     24916     39530     24916
     39533     24916     39536     24916     39539     24916     39542     24916
     39545     24916     39548     24916     39551     24916     39554     24916
     39557     24916     39560     24916     39563     24916     39566     24916
     39569     24916     39572     24916     39575     24916     39578     24916
     39581     24916     39584     24916     39587     24916     39590     24916
     39593     24916     39596     24916     39599     24916     39602     24916
     39605     24916     39608     24916     39611     24916     39614     24916
     39617     24916     39620     24916     39623     24916     39626     24916
     39629     24916     39632     24916     39635     24916     39638     24916
     39641     24916     39644     24916     39647     24916     39650     24916
     39653     24916     39656     24916     39659     24916     39662     24916
     39665     24916     39668     24916     39671     24916     39674     24916
     39677     24916     39680     24916     39683     24916     39686     24916
     39689     24916     39692     24916     39695     24916     39698     24916
     39701     24916     39704     24916     39707     24916     39710     24916
     39713     24916     39716     24916     39719     24916     39722     24916
     39725     24916     39728     24916     39731     24916     39734     24916
     39737     24916     39740     24916     39743     24916     39746     24916
     39749     24916     39752     24916     39755     24916     39758     24916
     39761     24916     39764     24916     39767     24916     39770     24916
     39773     24916     39776     24916     39779     24916     39782     24916
     39785     24916     39788     24916     39791     24916     39794     24916
     39797     24916     39800     24916     39803     24916     39806     24916
     39809     24916     39812     24916     39815     24916     39818     24916
     39821     24916     39824     24916     39827     24916     39830     24916
     39833     24916     39836     24916     39839     24916     39842     24916
     39845     24916     39848     24916     39851     24916     39854     24916
     39857     24916     39860     24916     39863     24916     39866     24916
     39869     24916     39872     24916     39875     24916     39878     24916
     39881     24916     39884     24916     39887     24916     39890     24916
     39893     24916     39896     24916     39899     24916     39902     24916
     39905     24916     39908     24916     39911     24916     39914     24916
     39917     24916     39920     24916     39923     24916     39926     24916
     39929     24916     39932     24916     39935     24916     39938     24916
     39941     24916     39944     24916     39947     24916     39950     24916
     39953     24916     39956     24916     39959     24916     39962     24916
     39965     24916     39968     24916     39971     24916     39974     24916
     39977     24916     39980     24916     39983     24916     39986     24916
     39989     24916     39992     24916     39995     24916     39998     24916
     40001     24916     40004     24916     40007     24916     40010     24916
     40013     24916     40016     24916     40019     24916     40022     24916
     40025     24916     40028     24916     40031     24916     40034     24916
     40037     24916     40040     24916     40043     24916     40046     24916
     40049     24916     40052     24916     40055     24916     40058     24916
     40061     24916     40064     24916     40067     24916     40070     24916
     40073     24916     40076     24916     40079     24916     40082     24916
     40085     24916     40088     24916     40091     24916     40094     24916
     40097     24916     40100     24916     40103     24916     40106     24916
     40109     24916     40112     24916     40115     24916     40118     24916
     40121     24916     40124     24916     40127     24916     40130     24916
     40133     24916     40136     24916     40139     24916     40142     24916
     40145     24916     40148     24916     40151     24916     40154     24916
     40157     24916     40160     24916     40163     24916     40166     24916
     40169     24916     40172     24916     40175     24916     40178     24916
     40181     24916     40184     24916     40187     24916     40190     24916
     40193     24916     40196     24916     40199     24916     40202     24916
     40205     24916     40208     24916     40211     24916     40214     24916
     40217     24916     40220     24916     40223     24916     40226     24916
     40229     24916     40232     24916     40235     24916     40238     24916
     40241     24916     40244     24916     40247     24916     40250     24916
     40253     24916     40256     24916     40259     24916     40262     24916
     40265     24916     40268     24916     40271     24916     40274     24916
     40277     24916     40280     24916     40283     24916     40286     24916
     40289     24916     40292     24916     40295     24916     40298     24916
     40301     24916     40304     24916     40307     24916     40310     24916
     40313     24916     40316     24916     40319     24916     40322     24916
     40325     24916     40328     24916     40331     24916     40334     24916
     40337     24916     40340     24916     40343     24916     40346     24916
     40349     24916     40352     24916     40355     24916     40358     24916
     40361     24916     40364     24916     40367     24916     40370     24916
     40373     24916     40376     24916     40379     24916     40382     24916
     40385     24916     40388     24916     40391     24916     40394     24916
     40397     24916     40400     24916     40403     24916     40406     24916
     40409     24916     40412     24916     40415     24916     40418     24916
     40421     24916     40424     24916     40427     24916     40430     24916
     40433     24916     40436     24916     40439     24916     40442     24916
     40445     24916     40448     24916     40451     24916     40454     24916
     40457     24916     40460     24916     40463     24916     40466     24916
     40469     24916     40472     24916     40475     24916     40478     24916
     40481     24916     40484     24916     40487     24916     40490     24916
     40493     24916     40496     24916     40499     24916     40502     24916
     40505     24916     40508     24916     40511     24916     40514     24916
     40517     24916     40520     24916     40523     24916     40526     24916
     40529     24916     40532     24916     40535     24916     40538     24916
     40541     24916     40544     24916     40547     24916     40550     24916
     40553     24916     40556     24916     40559     24916     40562     24916
     40565     24916     40568     24916     40571     24916     40574     24916
     40577     24916     40580     24916     40583     24916     40586     24916
     40589     24916     40592     24916     40595     24916     40598     24916
     40601     24916     40604     24916     40607     24916     40610     24916
     40613     24916     40616     24916     40619     24916     40622     24916
     40625     24916     40628     24916     40631     24916     40634     24916
     40637     24916     40640     24916     40643     24916     40646     24916
     40649     24916     40652     24916     40655     24916     40658     24916
     40661     24916     40664     24916     40667     24916     40670     24916
     40673     24916     40676     24916     40679     24916     40682     24916
     40685     24916     40688     24916     40691     24916     40694     24916
     40697     24916     40700     24916     40703     24916     40706     24916
     40709     24916     40712     24916     40715     24916     40718     24916
     40721     24916     40724     24916     40727     24916     40730     24916
     40733     24916     40736     24916     40739     24916     40742     24916
     40745     24916     40748     24916     40751     24916     40754     24916
     40757     24916     40760     24916     40763     24916     40766     24916
     40769     24916     40772     24916     40775     24916     40778     24916
     40781     24916     40784     24916     40787     24916     40790     24916
     40793     24916     40796     24916     40799     24916     40802     24916
     40805     24916     40808     24916     40811     24916     40814     24916
     40817     24916     40820     24916     40823     24916     40826     24916
     40829     24916     40832     24916     40835     24916     40838     24916
     40841     24916     40844     24916     40847     24916     40850     24916
     40853     24916     40856     24916     40859     24916     40862     24916
     40865     24916     40868     24916     40871     24916     40874     24916
     40877     24916     40880     24916     40883     24916     40886     24916
     40889     24916     40892     24916     40895     24916     40898     24916
     40901     24916     40904     24916     40907     24916     40910     24916
     40913     24916     40916     24916     40919     24916     40922     24916
     40925     24916     40928     24916     40931     24916     40934     24916
     40937     24916     40940     24916     40943     24916     40946     24916
     40949     24916     40952     24916     40955     24916     40958     24916
     40961     24916     40964     24916     40967     24916     40970     24916
     40973     24916     40976     24916     40979     24916     40982     24916
     40985     24916     40988     24916     40991     24916     40994     24916
     40997     24916     41000     24916     41003     24916     41006     24916
     41009     24916     41012     24916     41015     24916     41018     24916
     41021     24916     41024     24916     41027     24916     41030     24916
     41033     24916     41036     24916     41039     24916     41042     24916
     41045     24916     41048     24916     41051     24916     41054     24916
     41057     24916     41060     24916     41063     24916     41066     24916
     41069     24916     41072     24916     41075     24916     41078     24916
     41081     24916     41084     24916     41087     24916     41090     24916
     41093     24916     41096     24916     41099     24916     41102     24916
     41105     24916     41108     24916     41111     24916     41114     24916
     41117     24916     41120     24916     41123     24916     41126     24916
     41129     24916     41132     24916     41135     24916     41138     24916
     41141     24916     41144     24916     41147     24916     41150     24916
     41153     24916     41156     24916     41159     24916     41162     24916
     41165     24916     41168     24916     41171     24916     41174     24916
     41177     24916     41180     24916     41183     24916     41186     24916
     41189     24916     41192     24916     41195     24916     41198     24916
     41201     24916     41204     24916     41207     24916     41210     24916
     41213     24916     41216     24916     41219     24916     41222     24916
     41225     24916     41228     24916     41231     24916     41234     24916
     41237     24916     41240     24916     41243     24916     41246     24916
     41249     24916     41252     24916     41255     24916     41258     24916
     41261     24916     41264     24916     41267     24916     41270     24916
     41273     24916     41276     24916     41279     24916     41282     24916
     41285     24916     41288     24916     41291     24916     41294     24916
     41297     24916     41300     24916     41303     24916     41306     24916
     41309     24916     41312     24916     41315     24916     41318     24916
     41321     24916     41324     24916     41327     24916     41330     24916
     41333     24916     41336     24916     41339     24916     41342     24916
     41345     24916     41348     24916     41351     24916     41354     24916
     41357     24916     41360     24916     41363     24916     41366     24916
     41369     24916     41372     24916     41375     24916     41378     24916
     41381     24916     41384     24916     41387     24916     41390     24916
     41393     24916     41396     24916     41399     24916     41402     24916
     41405     24916     41408     24916     41411     24916     41414     24916
     41417     24916     41420     24916     41423     24916     41426     24916
     41429     24916     41432     24916     41435     24916     41438     24916
     41441     24916     41444     24916     41447     24916     41450     24916
     41453     24916     41456     24916     41459     24916     41462     24916
     41465     24916     41468     24916     41471     24916     41474     24916
     41477     24916     41480     24916     41483     24916     41486     24916
     41489     24916     41492     24916     41495     24916     41498     24916
     41501     24916     41504     24916     41507     24916     41510     24916
     41513     24916     41516     24916     41519     24916     41522     24916
     41525     24916     41528     24916     41531     24916     41534     24916
     41537     24916     41540     24916     41543     24916     41546     24916
     41549     24916     41552     24916     41555     24916     41558     24916
     41561     24916     41564     24916     41567     24916     41570     24916
     41573     24916     41576     24916     41579     24916     41582     24916
     41585     24916     41588     24916     41591     24916     41594     24916
     41597     24916     41600     24916     41603     24916     41606     24916
     41609     24916     41612     24916     41615     24916     41618     24916
     41621     24916     41624     24916     41627     24916     41630     24916
     41633     24916     41636     24916     41639     24916     41642     24916
     41645     24916     41648     24916     41651     24916     41654     24916
     41657     24916     41660     24916     41663     24916     41666     24916
     41669     24916     41672     24916     41675     24916     41678     24916
     41681     24916     41684     24916     41687     24916     41690     24916
     41693     24916     41696     24916     41699     24916     41702     24916
     41705     24916     41708     24916     41711     24916     41714     24916
     41717     24916     41720     24916     41723     24916     41726     24916
     41729     24916     41732     24916     41735     24916     41738     24916
     41741     24916     41744     24916     41747     24916     41750     24916
     41753     24916     41756     24916     41759     24916     41762     24916
     41765     24916     41768     24916     41771     24916     41774     24916
     41777     24916     41780     24916     41783     24916     41786     24916
     41789     24916     41792     24916     41795     24916     41798     24916
     41801     24916     41804     24916     41807     24916     41810     24916
     41813     24916     41816     24916     41819     24916     41822     24916
     41825     24916     41828     24916     41831     24916     41834     24916
     41837     24916     41840     24916     41843     24916     41846     24916
     41849     24916     41852     24916     41855     24916     41858     24916
     41861     24916     41864     24916     41867     24916     41870     24916
     41873     24916     41876     24916     41879     24916     41882     24916
     41885     24916     41888     24916     41891     24916     41894     24916
     41897     24916     41900     24916     41903     24916     41906     24916
     41909     24916     41912     24916     41915     24916     41918     24916
     41921     24916     41924     24916     41927     24916     41930     24916
     41933     24916     41936     24916     41939     24916     41942     24916
     41945     24916     41948     24916     41951     24916     41954     24916
     41957     24916     41960     24916     41963     24916     41966     24916
     41969     24916     41972     24916     41975     24916     41978     24916
     41981     24916     41984     24916     41987     24916     41990     24916
     41993     24916     41996     24916     41999     24916     42002     24916
     42005     24916     42008     24916     42011     24916     42014     24916
     42017     24916     42020     24916     42023     24916     42026     24916
     42029     24916     42032     24916     42035     24916     42038     24916
     42041     24916     42044     24916     42047     24916     42050     24916
     42053     24916     42056     24916     42059     24916     42062     24916
     42065     24916     42068     24916     42071     24916     42074     24916
     42077     24916     42080     24916     42083     24916     42086     24916
     42089     24916     42092     24916     42095     24916     42098     24916
     42101     24916     42104     24916     42107     24916     42110     24916
     42113     24916     42116     24916     42119     24916     42122     24916
     42125     24916     42128     24916     42131     24916     42134     24916
     42137     24916     42140     24916     42143     24916     42146     24916
     42149     24916     42152     24916     42155     24916     42158     24916
     42161     24916     42164     24916     42167     24916     42170     24916
     42173     24916     42176     24916     42179     24916     42182     24916
     42185     24916     42188     24916     42191     24916     42194     24916
     42197     24916     42200     24916     42203     24916     42206     24916
     42209     24916     42212     24916     42215     24916     42218     24916
     42221     24916     42224     24916     42227     24916     42230     24916
     42233     24916     42236     24916     42239     24916     42242     24916
     42245     24916     42248     24916     42251     24916     42254     24916
     42257     24916     42260     24916     42263     24916     42266     24916
     42269     24916     42272     24916     42275     24916     42278     24916
     42281     24916     42284     24916     42287     24916     42290     24916
     42293     42292     42296     42292     42299     42292     42302     42292
     42305     42292     42308     42292     42311     42292     42314     42292
     42317     42292     42320     42292     42323     42292     42326     42292
     42329     42292     42332     42292     42335     42292     42338     42292
     42341     42292     42344     42292     42347     42292     42350     42292
     42353     42292     42356     42292     42359     42292     42362     42292
     42365     42292     42368     42292     42371     42292     42374     42292
     42377     42292     42380     42292     42383     42292     42386     42292
     42389     42292     42392     42292     42395     42292     42398     42292
     42401     42292     42404     42292     42407     42292     42410     42292
     42413     42292     42416     42292     42419     42292     42422     42292
     42425     42292     42428     42292     42431     42292     42434     42292
     42437     42292     42440     42292     42443     42292     42446     42292
     42449     42292     42452     42292     42455     42292     42458     42292
     42461     42292     42464     42292     42467     42292     42470     42292
     42473     42292     42476     42292     42479     42292     42482     42292
     42485     42292     42488     42292     42491     42292     42494     42292
     42497     42292     42500     42292     42503     42292     42506     42292
     42509     42292     42512     42292     42515     42292     42518     42292
     42521     42292     42524     42292     42527     42292     42530     42292
     42533     42292     42536     42292     42539     42292     42542     42292
     42545     42292     42548     42292     42551     42292     42554     42292
     42557     42292     42560     42292     42563     42292     42566     42292
     42569     42292     42572     42292     42575     42292     42578     42292
     42581     42292     42584     42292     42587     42292     42590     42292
     42593     42292     42596     42292     42599     42292     42602     42292
     42605     42292     42608     42292     42611     42292     42614     42292
     42617     42292     42620     42292     42623     42292     42626     42292
     42629     42292     42632     42292     42635     42292     42638     42292
     42641     42292     42644     42292     42647     42292     42650     42292
     42653     42292     42656     42292     42659     42292     42662     42292
     42665     42292     42668     42292     42671     42292     42674     42292
     42677     42292     42680     42292     42683     42292     42686     42292
     42689     42292     42692     42292     42695     42292     42698     42292
     42701     42292     42704     42292     42707     42292     42710     42292
     42713     42292     42716     42292     42719     42292     42722     42292
     42725     42292     42728     42292     42731     42292     42734     42292
     42737     42292     42740     42292     42743     42292     42746     42292
     42749     42292     42752     42292     42755     42292     42758     42292
     42761     42292     42764     42292     42767     42292     42770     42292
     42773     42292     42776     42292     42779     42292     42782     42292
     42785     42292     42788     42292     42791     42292     42794     42292
     42797     42292     42800     42292     42803     42292     42806     42292
     42809     42292     42812     42292     42815     42292     42818     42292
     42821     42292     42824     42292     42827     42292     42830     42292
     42833     42292     42836     42292     42839     42292     42842     42292
     42845     42292     42848     42292     42851     42292     42854     42292
     42857     42292     42860     42292     42863     42292     42866     42292
     42869     42292     42872     42292     42875     42292     42878     42292
     42881     42292     42884     42292     42887     42292     42890     42292
     42893     42292     42896     42292     42899     42292     42902     42292
     42905     42292     42908     42292     42911     42292     42914     42292
     42917     42292     42920     42292     42923     42292     42926     42292
     42929     42292     42932     42292     42935     42292     42938     42292
     42941     42292     42944     42292     42947     42292     42950     42292
     42953     42292     42956     42292     42959     42292     42962     42292
     42965     42292     42968     42292     42971     42292     42974     42292
     42977     42292     42980     42292     42983     42292     42986     42292
     42989     42292     42992     42292     42995     42292     42998     42292
     43001     42292     43004     42292     43007     42292     43010     42292
     43013     42292     43016     42292     43019     42292     43022     42292
     43025     42292     43028     42292     43031     42292     43034     42292
     43037     42292     43040     42292     43043     42292     43046     42292
     43049     42292     43052     42292     43055     42292     43058     42292
     43061     42292     43064     42292     43067     42292     43070     42292
     43073     42292     43076     42292     43079     42292     43082     42292
     43085     42292     43088     42292     43091     42292     43094     42292
     43097     42292     43100     42292     43103     42292     43106     42292
     43109     42292     43112     42292     43115     42292     43118     42292
     43121     42292     43124     42292     43127     42292     43130     42292
     43133     42292     43136     42292     43139     42292     43142     42292
     43145     42292     43148     42292     43151     42292     43154     42292
     43157     42292     43160     42292     43163     42292     43166     42292
     43169     42292     43172     42292     43175     42292     43178     42292
     43181     42292     43184     42292     43187     42292     43190     42292
     43193     42292     43196     42292     43199     42292     43202     42292
     43205     42292     43208     42292     43211     42292     43214     42292
     43217     42292     43220     42292     43223     42292     43226     42292
     43229     42292     43232     42292     43235     42292     43238     42292
     43241     42292     43244     42292     43247     42292     43250     42292
     43253     42292     43256     42292     43259     42292     43262     42292
     43265     42292     43268     42292     43271     42292     43274     42292
     43277     42292     43280     42292     43283     42292     43286     42292
     43289     42292     43292     42292     43295     42292     43298     42292
     43301     42292     43304     42292     43307     42292     43310     42292
     43313     42292     43316     42292     43319     42292     43322     42292
     43325     42292     43328     42292     43331     42292     43334     42292
     43337     42292     43340     42292     43343     42292     43346     42292
     43349     42292     43352     42292     43355     42292     43358     42292
     43361     42292     43364     42292     43367     42292     43370     42292
     43373     42292     43376     42292     43379     42292     43382     42292
     43385     42292     43388     42292     43391     42292     43394     42292
     43397     42292     43400     42292     43403     42292     43406     42292
     43409     42292     43412     42292     43415     42292     43418     42292
     43421     42292     43424     42292     43427     42292     43430     42292
     43433     42292     43436     42292     43439     42292     43442     42292
     43445     42292     43448     42292     43451     42292     43454     42292
     43457     42292     43460     42292     43463     42292     43466     42292
     43469     42292     43472     42292     43475     42292     43478     42292
     43481     42292     43484     42292     43487     42292     43490     42292
     43493     42292     43496     42292     43499     42292     43502     42292
     43505     42292     43508     42292     43511     42292     43514     42292
     43517     42292     43520     42292     43523     42292     43526     42292
     43529     42292     43532     42292     43535     42292     43538     42292
     43541     42292     43544     42292     43547     42292     43550     42292
     43553     42292     43556     42292     43559     42292     43562     42292
     43565     42292     43568     42292     43571     42292     43574     42292
     43577     42292     43580     42292     43583     42292     43586     42292
     43589     42292     43592     42292     43595     42292     43598     42292
     43601     42292     43604     42292     43607     42292     43610     42292
     43613     42292     43616     42292     43619     42292     43622     42292
     43625     42292     43628     42292     43631     42292     43634     42292
     43637     42292     43640     42292     43643     42292     43646     42292
     43649     42292     43652     42292     43655     42292     43658     42292
     43661     42292     43664     42292     43667     42292     43670     42292
     43673     42292     43676     42292     43679     42292     43682     42292
     43685     42292     43688     42292     43691     42292     43694     42292
     43697     42292     43700     42292     43703     42292     43706     42292
     43709     42292     43712     42292     43715     42292     43718     42292
     43721     42292     43724     42292     43727     42292     43730     42292
     43733     42292     43736     42292     43739     42292     43742     42292
     43745     42292     43748     42292     43751     42292     43754     42292
     43757     42292     43760     42292     43763     42292     43766     42292
     43769     42292     43772     42292     43775     42292     43778     42292
     43781     42292     43784     42292     43787     42292     43790     42292
     43793     42292     43796     42292     43799     42292     43802     42292
     43805     42292     43808     42292     43811     42292     43814     42292
     43817     42292     43820     42292     43823     42292     43826     42292
     43829     42292     43832     42292     43835     42292     43838     42292
     43841     42292     43844     42292     43847     42292     43850     42292
     43853     42292     43856     42292     43859     42292     43862     42292
     43865     42292     43868     42292     43871     42292     43874     42292
     43877     42292     43880     42292     43883     42292     43886     42292
     43889     42292     43892     42292     43895     42292     43898     42292
     43901     42292     43904     42292     43907     42292     43910     42292
     43913     42292     43916     42292     43919     42292     43922     42292
     43925     42292     43928     42292     43931     42292     43934     42292
     43937     42292     43940     42292     43943     42292     43946     42292
     43949     42292     43952     42292     43955     42292     43958     42292
     43961     42292     43964     42292     43967     42292     43970     42292
     43973     42292     43976     42292     43979     42292     43982     42292
     43985     42292     43988     42292     43991     42292     43994     42292
     43997     42292     44000     42292     44003     42292     44006     42292
     44009     42292     44012     42292     44015     42292     44018     42292
     44021     42292     44024     42292     44027     42292     44030     42292
     44033     42292     44036     42292     44039     42292     44042     42292
     44045     42292     44048     42292     44051     42292     44054     42292
     44057     42292     44060     42292     44063     42292     44066     42292
     44069     42292     44072     42292     44075     42292     44078     42292
     44081     42292     44084     42292     44087     42292     44090     42292
     44093     42292     44096     42292     44099     42292     44102     42292
     44105     42292     44108     42292     44111     42292     44114     42292
     44117     42292     44120     42292     44123     42292     44126     42292
     44129     42292     44132     42292     44135     42292     44138     42292
     44141     42292     44144     42292     44147     42292     44150     42292
     44153     42292     44156     42292     44159     42292     44162     42292
     44165     42292     44168     42292     44171     42292     44174     42292
     44177     42292     44180     42292     44183     42292     44186     42292
     44189     42292     44192     42292     44195     42292     44198     42292
     44201     42292     44204     42292     44207     42292     44210     42292
     44213     42292     44216     42292     44219     42292     44222     42292
     44225     42292     44228     42292     44231     42292     44234     42292
     44237     42292     44240     42292     44243     42292     44246     42292
     44249     42292     44252     42292     44255     42292     44258     42292
     44261     42292     44264     42292     44267     42292     44270     42292
     44273     42292     44276     42292     44279     42292     44282     42292
     44285     42292     44288     42292     44291     42292     44294     42292
     44297     42292     44300     42292     44303     42292     44306     42292
     44309     42292     44312     42292     44315     42292     44318     42292
     44321     42292     44324     42292     44327     42292     44330     42292
     44333     42292     44336     42292     44339     42292     44342     42292
     44345     42292     44348     42292     44351     42292     44354     42292
     44357     42292     44360     42292     44363     42292     44366     42292
     44369     42292     44372     42292     44375     42292     44378     42292
     44381     42292     44384     42292     44387     42292     44390     42292
     44393     42292     44396     42292     44399     42292     44402     42292
     44405     42292     44408     42292     44411     42292     44414     42292
     44417     42292     44420     42292     44423     42292     44426     42292
     44429     42292     44432     42292     44435     42292     44438     42292
     44441     42292     44444     42292     44447     42292     44450     42292
     44453     42292     44456     42292     44459     42292     44462     42292
     44465     42292     44468     42292     44471     42292     44474     42292
     44477     42292     44480     42292     44483     42292     44486     42292
     44489     42292     44492     42292     44495     42292     44498     42292
     44501     42292     44504     42292     44507     42292     44510     42292
     44513     42292     44516     42292     44519     42292     44522     42292
     44525     42292     44528     42292     44531     42292     44534     42292
     44537     42292     44540     42292     44543     42292     44546     42292
     44549     42292     44552     42292     44555     42292     44558     42292
     44561     42292     44564     42292     44567     42292     44570     42292
     44573     42292     44576     42292     44579     42292     44582     42292
     44585     42292     44588     42292     44591     42292     44594     42292
     44597     42292     44600     42292     44603     42292     44606     42292
     44609     42292     44612     42292     44615     42292     44618     42292
     44621     42292     44624     42292     44627     42292     44630     42292
     44633     42292     44636     42292     44639     42292     44642     42292
     44645     42292     44648     42292     44651     42292     44654     42292
     44657     42292     44660     42292     44663     42292     44666     42292
     44669     42292     44672     42292     44675     42292     44678     42292
     44681     42292     44684     42292     44687     42292     44690     42292
     44693     42292     44696     42292     44699     42292     44702     42292
     44705     42292     44708     42292     44711     42292     44714     42292
     44717     42292     44720     42292     44723     42292     44726     42292
     44729     42292     44732     42292     44735     42292     44738     42292
     44741     42292     44744     42292     44747     42292     44750     42292
     44753     42292     44756     42292     44759     42292     44762     42292
     44765     42292     44768     42292     44771     42292     44774     42292
     44777     42292     44780     42292     44783     42292     44786     42292
     44789     42292     44792     42292     44795     42292     44798     42292
     44801     42292     44804     42292     44807     42292     44810     42292
     44813     42292     44816     42292     44819     42292     44822     42292
     44825     42292     44828     42292     44831     42292     44834     42292
     44837     42292     44840     42292     44843     42292     44846     42292
     44849     42292     44852     42292     44855     42292     44858     42292
     44861     42292     44864     42292     44867     42292     44870     42292
     44873     42292     44876     42292     44879     42292     44882     42292
     44885     42292     44888     42292     44891     42292     44894     42292
     44897     42292     44900     42292     44903     42292     44906     42292
     44909     42292     44912     42292     44915     42292     44918     42292
     44921     42292     44924     42292     44927     42292     44930     42292
     44933     42292     44936     42292     44939     42292     44942     42292
     44945     42292     44948     42292     44951     42292     44954     42292
     44957     42292     44960     42292     44963     42292     44966     42292
     44969     42292     44972     42292     44975     42292     44978     42292
     44981     42292     44984     42292     44987     42292     44990     42292
     44993     42292     44996     42292     44999     42292     45002     42292
     45005     42292     45008     42292     45011     42292     45014     42292
     45017     42292     45020     42292     45023     42292     45026     42292
     45029     42292     45032     42292     45035     42292     45038     42292
     45041     42292     45044     42292     45047     42292     45050     42292
     45053     42292     45056     42292     45059     42292     45062     42292
     45065     42292     45068     42292     45071     42292     45074     42292
     45077     42292     45080     42292     45083     42292     45086     42292
     45089     42292     45092     42292     45095     42292     45098     42292
     45101     42292     45104     42292     45107     42292     45110     42292
     45113     42292     45116     42292     45119     42292     45122     42292
     45125     42292     45128     42292     45131     42292     45134     42292
     45137     42292     45140     42292     45143     42292     45146     42292
     45149     42292     45152     42292     45155     42292     45158     42292
     45161     42292     45164     42292     45167     42292     45170     42292
     45173     42292     45176     42292     45179     42292     45182     42292
     45185     42292     45188     42292     45191     42292     45194     42292
     45197     42292     45200     42292     45203     42292     45206     42292
     45209     42292     45212     42292     45215     42292     45218     42292
     45221     42292     45224     42292     45227     42292     45230     42292
     45233     42292     45236     42292     45239     42292     45242     42292
     45245     42292     45248     42292     45251     42292     45254     42292
     45257     42292     45260     42292     45263     42292     45266     42292
     45269     42292     45272     42292     45275     42292     45278     42292
     45281     42292     45284     42292     45287     42292     45290     42292
     45293     42292     45296     42292     45299     42292     45302     42292
     45305     42292     45308     42292     45311     42292     45314     42292
     45317     42292     45320     42292     45323     42292     45326     42292
     45329     42292     45332     42292     45335     42292     45338     42292
     45341     42292     45344     42292     45347     42292     45350     42292
     45353     42292     45356     42292     45359     42292     45362     42292
     45365     42292     45368     42292     45371     42292     45374     42292
     45377     42292     45380     42292     45383     42292     45386     42292
     45389     42292     45392     42292     45395     42292     45398     42292
     45401     42292     45404     42292     45407     42292     45410     42292
     45413     42292     45416     42292     45419     42292     45422     42292
     45425     42292     45428     42292     45431     42292     45434     42292
     45437     42292     45440     42292     45443     42292     45446     42292
     45449     42292     45452     42292     45455     42292     45458     42292
     45461     42292     45464     42292     45467     42292     45470     42292
     45473     42292     45476     42292     45479     42292     45482     42292
     45485     42292     45488     42292     45491     42292     45494     42292
     45497     42292     45500     42292     45503     42292     45506     42292
     45509     42292     45512     42292     45515     42292     45518     42292
     45521     42292     45524     42292     45527     42292     45530     42292
     45533     42292     45536     42292     45539     42292     45542     42292
     45545     42292     45548     42292     45551     42292     45554     42292
     45557     42292     45560     42292     45563     42292     45566     42292
     45569     42292     45572     42292     45575     42292     45578     42292
     45581     42292     45584     42292     45587     42292     45590     42292
     45593     42292     45596     42292     45599     42292     45602     42292
     45605     42292     45608     42292     45611     42292     45614     42292
     45617     42292     45620     42292     45623     42292     45626     42292
     45629     42292     45632     42292     45635     42292     45638     42292
     45641     42292     45644     42292     45647     42292     45650     42292
     45653     42292     45656     42292     45659     42292     45662     42292
     45665     42292     45668     42292     45671     42292     45674     42292
     45677     42292     45680     42292     45683     42292     45686     42292
     45689     42292     45692     42292     45695     42292     45698     42292
     45701     42292     45704     42292     45707     42292     45710     42292
     45713     42292     45716     42292     45719     42292     45722     42292
     45725     42292     45728     42292     45731     42292     45734     42292
     45737     42292     45740     42292     45743     42292     45746     42292
     45749     42292     45752     42292     45755     42292     45758     42292
     45761     42292     45764     42292     45767     42292     45770     42292
     45773     42292     45776     42292     45779     42292     45782     42292
     45785     42292     45788     42292     45791     42292     45794     42292
     45797     42292     45800     42292     45803     42292     45806     42292
     45809     42292     45812     42292     45815     42292     45818     42292
     45821     42292     45824     42292     45827     42292     45830     42292
     45833     42292     45836     42292     45839     42292     45842     42292
     45845     42292     45848     42292     45851     42292     45854     42292
     45857     42292     45860     42292     45863     42292     45866     42292
     45869     42292     45872     42292     45875     42292     45878     42292
     45881     42292     45884     42292     45887     42292     45890     42292
     45893     42292     45896     42292     45899     42292     45902     42292
     45905     42292     45908     42292     45911     42292     45914     42292
     45917     42292     45920     42292     45923     42292     45926     42292
     45929     42292     45932     42292     45935     42292     45938     42292
     45941     42292     45944     42292     45947     42292     45950     42292
     45953     42292     45956     42292     45959     42292     45962     42292
     45965     42292     45968     42292     45971     42292     45974     42292
     45977     42292     45980     42292     45983     42292     45986     42292
     45989     42292     45992     42292     45995     42292     45998     42292
     46001     42292     46004     42292     46007     42292     46010     42292
     46013     42292     46016     42292     46019     42292     46022     42292
     46025     42292     46028     42292     46031     42292     46034     42292
     46037     42292     46040     42292     46043     42292     46046     42292
     46049     42292     46052     42292     46055     42292     46058     42292
     46061     42292     46064     42292     46067     42292     46070     42292
     46073     42292     46076     42292     46079     42292     46082     42292
     46085     42292     46088     42292     46091     42292     46094     42292
     46097     42292     46100     42292     46103     42292     46106     42292
     46109     42292     46112     42292     46115     42292     46118     42292
     46121     42292     46124     42292     46127     42292     46130     42292
     46133     42292     46136     42292     46139     42292     46142     42292
     46145     42292     46148     42292     46151     42292     46154     42292
     46157     42292     46160     42292     46163     42292     46166     42292
     46169     42292     46172     42292     46175     42292     46178     42292
     46181     42292     46184     42292     46187     42292     46190     42292
     46193     42292     46196     42292     46199     42292     46202     42292
     46205     42292     46208     42292     46211     42292     46214     42292
     46217     42292     46220     42292     46223     42292     46226     42292
     46229     42292     46232     42292     46235     42292     46238     42292
     46241     42292     46244     42292     46247     42292     46250     42292
     46253     42292     46256     42292     46259     42292     46262     42292
     46265     42292     46268     42292     46271     42292     46274     42292
     46277     42292     46280     42292     46283     42292     46286     42292
     46289     42292     46292     42292     46295     42292     46298     42292
     46301     42292     46304     42292     46307     42292     46310     42292
     46313     42292     46316     42292     46319     42292     46322     42292
     46325     42292     46328     42292     46331     42292     46334     42292
     46337     42292     46340     42292     46343     42292     46346     42292
     46349     42292     46352     42292     46355     42292     46358     42292
     46361     42292     46364     42292     46367     42292     46370     42292
     46373     42292     46376     42292     46379     42292     46382     42292
     46385     42292     46388     42292     46391     42292     46394     42292
     46397     42292     46400     42292     46403     42292     46406     42292
     46409     42292     46412     42292     46415     42292     46418     42292
     46421     42292     46424     42292     46427     42292     46430     42292
     46433     42292     46436     42292     46439     42292     46442     42292
     46445     42292     46448     42292     46451     42292     46454     42292
     46457     42292     46460     42292     46463     42292     46466     42292
     46469     42292     46472     42292     46475     42292     46478     42292
     46481     42292     46484     42292     46487     42292     46490     42292
     46493     42292     46496     42292     46499     42292     46502     42292
     46505     42292     46508     42292     46511     42292     46514     42292
     46517     42292     46520     42292     46523     42292     46526     42292
     46529     42292     46532     42292     46535     42292     46538     42292
     46541     42292     46544     42292     46547     42292     46550     42292
     46553     42292     46556     42292     46559     42292     46562     42292
     46565     42292     46568     42292     46571     42292     46574     42292
     46577     42292     46580     42292     46583     42292     46586     42292
     46589     42292     46592     42292     46595     42292     46598     42292
     46601     42292     46604     42292     46607     42292     46610     42292
     46613     42292     46616     42292     46619     42292     46622     42292
     46625     42292     46628     42292     46631     42292     46634     42292
     46637     42292     46640     42292     46643     42292     46646     42292
     46649     42292     46652     42292     46655     42292     46658     42292
     46661     42292     46664     42292     46667     42292     46670     42292
     46673     42292     46676     42292     46679     42292     46682     42292
     46685     42292     46688     42292     46691     42292     46694     42292
     46697     42292     46700     42292     46703     42292     46706     42292
     46709     42292     46712     42292     46715     42292     46718     42292
     46721     42292     46724     42292     46727     42292     46730     42292
     46733     42292     46736     42292     46739     42292     46742     42292
     46745     42292     46748     42292     46751     42292     46754     42292
     46757     42292     46760     42292     46763     42292     46766     42292
     46769     42292     46772     42292     46775     42292     46778     42292
     46781     42292     46784     42292     46787     42292     46790     42292
     46793     42292     46796     42292     46799     42292     46802     42292
     46805     42292     46808     42292     46811     42292     46814     42292
     46817     42292     46820     42292     46823     42292     46826     42292
     46829     42292     46832     42292     46835     42292     46838     42292
     46841     42292     46844     42292     46847     42292     46850     42292
     46853     42292     46856     42292     46859     42292     46862     42292
     46865     42292     46868     42292     46871     42292     46874     42292
     46877     42292     46880     42292     46883     42292     46886     42292
     46889     42292     46892     42292     46895     42292     46898     42292
     46901     42292     46904     42292     46907     42292     46910     42292
     46913     42292     46916     42292     46919     42292     46922     42292
     46925     42292     46928     42292     46931     42292     46934     42292
     46937     42292     46940     42292     46943     42292     46946     42292
     46949     42292     46952     42292     46955     42292     46958     42292
     46961     42292     46964     42292     46967     42292     46970     42292
     46973     42292     46976     42292     46979     42292     46982     42292
     46985     42292     46988     42292     46991     42292     46994     42292
     46997     42292     47000     42292     47003     42292     47006     42292
     47009     42292     47012     42292     47015     42292     47018     42292
     47021     42292     47024     42292     47027     42292     47030     42292
     47033     42292     47036     42292     47039     42292     47042     42292
     47045     42292     47048     42292     47051     42292     47054     42292
     47057     42292     47060     42292     47063     42292     47066     42292
     47069     42292     47072     42292     47075     42292     47078     42292
     47081     42292     47084     42292     47087     42292     47090     42292
     47093     42292     47096     42292     47099     42292     47102     42292
     47105     42292     47108     42292     47111     42292     47114     42292
     47117     42292     47120     42292     47123     42292     47126     42292
     47129     42292     47132     42292     47135     42292     47138     42292
     47141     42292     47144     42292     47147     42292     47150     42292
     47153     42292     47156     42292     47159     42292     47162     42292
     47165     42292     47168     42292     47171     42292     47174     42292
     47177     42292     47180     42292     47183     42292     47186     42292
     47189     42292     47192     42292     47195     42292     47198     42292
     47201     42292     47204     42292     47207     42292     47210     42292
     47213     42292     47216     42292     47219     42292     47222     42292
     47225     42292     47228     42292     47231     42292     47234     42292
     47237     42292     47240     42292     47243     42292     47246     42292
     47249     42292     47252     42292     47255     42292     47258     42292
     47261     42292     47264     42292     47267     42292     47270     42292
     47273     42292     47276     42292     47279     42292     47282     42292
     47285     42292     47288     42292     47291     42292     47294     42292
     47297     42292     47300     42292     47303     42292     47306     42292
     47309     42292     47312     42292     47315     42292     47318     42292
     47321     42292     47324     42292     47327     42292     47330     42292
     47333     42292     47336     42292     47339     42292     47342     42292
     47345     42292     47348     42292     47351     42292     47354     42292
     47357     42292     47360     42292     47363     42292     47366     42292
     47369     42292     47372     42292     47375     42292     47378     42292
     47381     42292     47384     42292     47387     42292     47390     42292
     47393     42292     47396     42292     47399     42292     47402     42292
     47405     42292     47408     42292     47411     42292     47414     42292
     47417     42292     47420     42292     47423     42292     47426     42292
     47429     42292     47432     42292     47435     42292     47438     42292
     47441     42292     47444     42292     47447     42292     47450     42292
     47453     42292     47456     42292     47459     42292     47462     42292
     47465     42292     47468     42292     47471     42292     47474     42292
     47477     42292     47480     42292     47483     42292     47486     42292
     47489     42292     47492     42292     47495     42292     47498     42292
     47501     42292     47504     42292     47507     42292     47510     42292
     47513     42292     47516     42292     47519     42292     47522     42292
     47525     42292     47528     42292     47531     42292     47534     42292
     47537     42292     47540     42292     47543     42292     47546     42292
     47549     42292     47552     42292     47555     42292     47558     42292
     47561     42292     47564     42292     47567     42292     47570     42292
     47573     42292     47576     42292     47579     42292     47582     42292
     47585     42292     47588     42292     47591     42292     47594     42292
     47597     42292     47600     42292     47603     42292     47606     42292
     47609     42292     47612     42292     47615     42292     47618     42292
     47621     42292     47624     42292     47627     42292     47630     42292
     47633     42292     47636     42292     47639     42292     47642     42292
     47645     42292     47648     42292     47651     42292     47654     42292
     47657     42292     47660     42292     47663     42292     47666     42292
     47669     42292     47672     42292     47675     42292     47678     42292
     47681     42292     47684     42292     47687     42292     47690     42292
     47693     42292     47696     42292     47699     42292     47702     42292
     47705     42292     47708     42292     47711     42292     47714     42292
     47717     42292     47720     42292     47723     42292     47726     42292
     47729     42292     47732     42292     47735     42292     47738     42292
     47741     42292     47744     42292     47747     42292     47750     42292
     47753     42292     47756     42292     47759     42292     47762     42292
     47765     42292     47768     42292     47771     42292     47774     42292
     47777     42292     47780     42292     47783     42292     47786     42292
     47789     42292     47792     42292     47795     42292     47798     42292
     47801     42292     47804     42292     47807     42292     47810     42292
     47813     42292     47816     42292     47819     42292     47822     42292
     47825     42292     47828     42292     47831     42292     47834     42292
     47837     42292     47840     42292     47843     42292     47846     42292
     47849     42292     47852     42292     47855     42292     47858     42292
     47861     42292     47864     42292     47867     42292     47870     42292
     47873     42292     47876     42292     47879     42292     47882     42292
     47885     42292     47888     42292     47891     42292     47894     42292
     47897     42292     47900     42292     47903     42292     47906     42292
     47909     42292     47912     42292     47915     42292     47918     42292
     47921     42292     47924     42292     47927     42292     47930     42292
     47933     42292     47936     42292     47939     42292     47942     42292
     47945     42292     47948     42292     47951     42292     47954     42292
     47957     42292     47960     42292     47963     42292     47966     42292
     47969     42292     47972     42292     47975     42292     47978     42292
     47981     42292     47984     42292     47987     42292     47990     42292
     47993     42292     47996     42292     47999     42292     48002     42292
     48005     42292     48008     42292     48011     42292     48014     42292
     48017     42292     48020     42292     48023     42292     48026     42292
     48029     42292     48032     42292     48035     42292     48038     42292
     48041     42292     48044     42292     48047     42292     48050     42292
     48053     42292     48056     42292     48059     42292     48062     42292
     48065     42292     48068     42292     48071     42292     48074     42292
     48077     42292     48080     42292     48083     42292     48086     42292
     48089     42292     48092     42292     48095     42292     48098     42292
     48101     42292     48104     42292     48107     42292     48110     42292
     48113     42292     48116     42292     48119     42292     48122     42292
     48125     42292     48128     42292     48131     42292     48134     42292
     48137     42292     48140     42292     48143     42292     48146     42292
     48149     42292     48152     42292     48155     42292     48158     42292
     48161     42292     48164     42292     48167     42292     48170     42292
     48173     42292     48176     42292     48179     42292     48182     42292
     48185     42292     48188     42292     48191     42292     48194     42292
     48197     42292     48200     42292     48203     42292     48206     42292
     48209     42292     48212     42292     48215     42292     48218     42292
     48221     42292     48224     42292     48227     42292     48230     42292
     48233     42292     48236     42292     48239     42292     48242     42292
     48245     42292     48248     42292     48251     42292     48254     42292
     48257     42292     48260     42292     48263     42292     48266     42292
     48269     42292     48272     42292     48275     42292     48278     42292
     48281     42292     48284     42292     48287     42292     48290     42292
     48293     42292     48296     42292     48299     42292     48302     42292
     48305     42292     48308     42292     48311     42292     48314     42292
     48317     42292     48320     42292     48323     42292     48326     42292
     48329     42292     48332     42292     48335     42292     48338     42292
     48341     42292     48344     42292     48347     42292     48350     42292
     48353     42292     48356     42292     48359     42292     48362     42292
     48365     42292     48368     42292     48371     42292     48374     42292
     48377     42292     48380     42292     48383     42292     48386     42292
     48389     42292     48392     42292     48395     42292     48398     42292
     48401     42292     48404     42292     48407     42292     48410     42292
     48413     42292     48416     42292     48419     42292     48422     42292
     48425     42292     48428     42292     48431     42292     48434     42292
     48437     42292     48440     42292     48443     42292     48446     42292
     48449     42292     48452     42292     48455     42292     48458     42292
     48461     42292     48464     42292     48467     42292     48470     42292
     48473     42292     48476     42292     48479     42292     48482     42292
     48485     42292     48488     42292     48491     42292     48494     42292
     48497     42292     48500     42292     48503     42292     48506     42292
     48509     42292     48512     42292     48515     42292     48518     42292
     48521     42292     48524     42292     48527     42292     48530     42292
     48533     42292     48536     42292     48539     42292     48542     42292
     48545     42292     48548     42292     48551     42292     48554     42292
     48557     42292     48560     42292     48563     42292     48566     42292
     48569     42292     48572     42292     48575     42292     48578     42292
     48581     42292     48584     42292     48587     42292     48590     42292
     48593     42292     48596     42292     48599     42292     48602     42292
     48605     42292     48608     42292     48611     42292     48614     42292
     48617     42292     48620     42292     48623     42292     48626     42292
     48629     42292     48632     42292     48635     42292     48638     42292
     48641     42292     48644     42292     48647     42292     48650     42292
     48653     42292     48656     42292     48659     42292     48662     42292
     48665     42292     48668     42292     48671     42292     48674     42292
     48677     42292     48680     42292     48683     42292     48686     42292
     48689     42292     48692     42292     48695     42292     48698     42292
     48701     42292     48704     42292     48707     42292     48710     42292
     48713     42292     48716     42292     48719     42292     48722     42292
     48725     42292     48728     42292     48731     42292     48734     42292
     48737     42292     48740     42292     48743     42292     48746     42292
     48749     42292     48752     42292     48755     42292     48758     42292
     48761     42292     48764     42292     48767     42292     48770     42292
     48773     42292     48776     42292     48779     42292     48782     42292
     48785     42292     48788     42292     48791     42292     48794     42292
     48797     42292     48800     42292     48803     42292     48806     42292
     48809     42292     48812     42292     48815     42292     48818     42292
     48821     42292     48824     42292     48827     42292     48830     42292
     48833     42292     48836     42292     48839     42292     48842     42292
     48845     42292     48848     42292     48851     42292     48854     42292
     48857     42292     48860     42292     48863     42292     48866     42292
     48869     42292     48872     42292     48875     42292     48878     42292
     48881     42292     48884     42292     48887     42292     48890     42292
     48893     42292     48896     42292     48899     42292     48902     42292
     48905     42292     48908     42292     48911     42292     48914     42292
     48917     42292     48920     42292     48923     42292     48926     42292
     48929     42292     48932     42292     48935     42292     48938     42292
     48941     42292     48944     42292     48947     42292     48950     42292
     48953     42292     48956     42292     48959     42292     48962     42292
     48965     42292     48968     42292     48971     42292     48974     42292
     48977     42292     48980     42292     48983     42292     48986     42292
     48989     42292     48992     42292     48995     42292     48998     42292
     49001     42292     49004     42292     49007     42292     49010     42292
     49013     42292     49016     42292     49019     42292     49022     42292
     49025     42292     49028     42292     49031     42292     49034     42292
     49037     42292     49040     42292     49043     42292     49046     42292
     49049     42292     49052     42292     49055     42292     49058     42292
     49061     42292     49064     42292     49067     42292     49070     42292
     49073     42292     49076     42292     49079     42292     49082     42292
     49085     42292     49088     42292     49091     42292     49094     42292
     49097     42292     49100     42292     49103     42292     49106     42292
     49109     42292     49112     42292     49115     42292     49118     42292
     49121     42292     49124     42292     49127     42292     49130     42292
     49133     42292     49136     42292     49139     42292     49142     42292
     49145     42292     49148     42292     49151     42292     49154     42292
     49157     42292     49160     42292     49163     42292     49166     42292
     49169     42292     49172     42292     49175     42292     49178     42292
     49181     42292     49184     42292     49187     42292     49190     42292
     49193     42292     49196     42292     49199     42292     49202     42292
     49205     42292     49208     42292     49211     42292     49214     42292
     49217     42292     49220     42292     49223     42292     49226     42292
     49229     42292     49232     42292     49235     42292     49238     42292
     49241     42292     49244     42292     49247     42292     49250     42292
     49253     42292     49256     42292     49259     42292     49262     42292
     49265     42292     49268     42292     49271     42292     49274     42292
     49277     42292     49280     42292     49283     42292     49286     42292
     49289     42292     49292     42292     49295     42292     49298     42292
     49301     42292     49304     42292     49307     42292     49310     42292
     49313     42292     49316     42292     49319     42292     49322     42292
     49325     42292     49328     42292     49331     42292     49334     42292
     49337     42292     49340     42292     49343     42292     49346     42292
     49349     42292     49352     42292     49355     42292     49358     42292
     49361     42292     49364     42292     49367     42292     49370     42292
     49373     42292     49376     42292     49379     42292     49382     42292
     49385     42292     49388     42292     49391     42292     49394     42292
     49397     42292     49400     42292     49403     42292     49406     42292
     49409     42292     49412     42292     49415     42292     49418     42292
     49421     42292     49424     42292     49427     42292     49430     42292
     49433     42292     49436     42292     49439     42292     49442     42292
     49445     42292     49448     42292     49451     42292     49454     42292
     49457     42292     49460     42292     49463     42292     49466     42292
     49469     42292     49472     42292     49475     42292     49478     42292
     49481     42292     49484     42292     49487     42292     49490     42292
     49493     42292     49496     42292     49499     42292     49502     42292
     49505     42292     49508     42292     49511     42292     49514     42292
     49517     42292     49520     42292     49523     42292     49526     42292
     49529     42292     49532     42292     49535     42292     49538     42292
     49541     42292     49544     42292     49547     42292     49550     42292
     49553     42292     49556     42292     49559     42292     49562     42292
     49565     42292     49568     42292     49571     42292     49574     42292
     49577     42292     49580     42292     49583     42292     49586     42292
     49589     42292     49592     42292     49595     42292     49598     42292
     49601     42292     49604     42292     49607     42292     49610     42292
     49613     42292     49616     42292     49619     42292     49622     42292
     49625     42292     49628     42292     49631     42292     49634     42292
     49637     42292     49640     42292     49643     42292     49646     42292
     49649     42292     49652     42292     49655     42292     49658     42292
     49661     42292     49664     42292     49667     42292     49670     42292
     49673     42292     49676     42292     49679     42292     49682     42292
     49685     42292     49688     42292     49691     42292     49694     42292
     49697     42292     49700     42292     49703     42292     49706     42292
     49709     42292     49712     42292     49715     42292     49718     42292
     49721     42292     49724     42292     49727     42292     49730     42292
     49733     42292     49736     42292     49739     42292     49742     42292
     49745     42292     49748     42292     49751     42292     49754     42292
     49757     42292     49760     42292     49763     42292     49766     42292
     49769     42292     49772     42292     49775     42292     49778     42292
     49781     42292     49784     42292     49787     42292     49790     42292
     49793     42292     49796     42292     49799     42292     49802     42292
     49805     42292     49808     42292     49811     42292     49814     42292
     49817     42292     49820     42292     49823     42292     49826     42292
     49829     42292     49832     42292     49835     42292     49838     42292
     49841     42292     49844     42292     49847     42292     49850     42292
     49853     42292     49856     42292     49859     42292     49862     42292
     49865     42292     49868     42292     49871     42292     49874     42292
     49877     42292     49880     42292     49883     42292     49886     42292
     49889     42292     49892     42292     49895     42292     49898     42292
     49901     42292     49904     42292     49907     42292     49910     42292
     49913     42292     49916     42292     49919     42292     49922     42292
     49925     42292     49928     42292     49931     42292     49934     42292
     49937     42292     49940     42292     49943     42292     49946     42292
     49949     42292     49952     42292     49955     42292     49958     42292
     49961     42292     49964     42292     49967     42292     49970     42292
     49973     42292     49976     42292     49979     42292     49982     42292
     49985     42292     49988     42292     49991     42292     49994     42292
     49997     42292     50000     42292     50003     42292     50006     42292
     50009     42292     50012     42292     50015     42292     50018     42292
     50021     42292     50024     42292     50027     42292     50030     42292
     50033     42292     50036     42292     50039     42292     50042     42292
     50045     42292     50048     42292     50051     42292     50054     42292
     50057     42292     50060     42292     50063     42292     50066     42292
     50069     42292     50072     42292     50075     42292     50078     42292
     50081     42292     50084     42292     50087     42292     50090     42292
     50093     42292     50096     42292     50099     42292     50102     42292
     50105     42292     50108     42292     50111     42292     50114     42292
     50117     42292     50120     42292     50123     42292     50126     42292
     50129     42292     50132     42292     50135     42292     50138     42292
     50141     42292     50144     42292     50147     42292     50150     42292
     50153     42292     50156     42292     50159     42292     50162     42292
     50165     42292     50168     42292     50171     42292     50174     42292
     50177     42292     50180     42292     50183     42292     50186     42292
     50189     42292     50192     42292     50195     42292     50198     42292
     50201     42292     50204     42292     50207     42292     50210     42292
     50213     42292     50216     42292     50219     42292     50222     42292
     50225     42292     50228     42292     50231     42292     50234     42292
     50237     42292     50240     42292     50243     42292     50246     42292
     50249     42292     50252     42292     50255     42292     50258     42292
     50261     42292     50264     42292     50267     42292     50270     42292
     50273     42292     50276     42292     50279     42292     50282     42292
     50285     42292     50288     42292     50291     42292     50294     42292
     50297     42292     50300     42292     50303     42292     50306     42292
     50309     42292     50312     42292     50315     42292     50318     42292
     50321     42292     50324     42292     50327     42292     50330     42292
     50333     42292     50336     42292     50339     42292     50342     42292
     50345     42292     50348     42292     50351     42292     50354     42292
     50357     42292     50360     42292     50363     42292     50366     42292
     50369     42292     50372     42292     50375     42292     50378     42292
     50381     42292     50384     42292     50387     42292     50390     42292
     50393     42292     50396     42292     50399     42292     50402     42292
     50405     42292     50408     42292     50411     42292     50414     42292
     50417     42292     50420     42292     50423     42292     50426     42292
     50429     42292     50432     42292     50435     42292     50438     42292
     50441     42292     50444     42292     50447     42292     50450     42292
     50453     42292     50456     42292     50459     42292     50462     42292
     50465     42292     50468     42292     50471     42292     50474     42292
     50477     42292     50480     42292     50483     42292     50486     42292
     50489     42292     50492     42292     50495     42292     50498     42292
     50501     42292     50504     42292     50507     42292     50510     42292
     50513     42292     50516     42292     50519     42292     50522     42292
     50525     42292     50528     42292     50531     42292     50534     42292
     50537     42292     50540     42292     50543     42292     50546     42292
     50549     42292     50552     42292     50555     42292     50558     42292
     50561     42292     50564     42292     50567     42292     50570     42292
     50573     42292     50576     42292     50579     42292     50582     42292
     50585     42292     50588     42292     50591     42292     50594     42292
     50597     42292     50600     42292     50603     42292     50606     42292
     50609     42292     50612     42292     50615     42292     50618     42292
     50621     42292     50624     42292     50627     42292     50630     42292
     50633     42292     50636     42292     50639     42292     50642     42292
     50645     42292     50648     42292     50651     42292     50654     42292
     50657     42292     50660     42292     50663     42292     50666     42292
     50669     42292     50672     42292     50675     42292     50678     42292
     50681     42292     50684     42292     50687     42292     50690     42292
     50693     42292     50696     42292     50699     42292     50702     42292
     50705     42292     50708     42292     50711     42292     50714     42292
     50717     42292     50720     42292     50723     42292     50726     42292
     50729     42292     50732     42292     50735     42292     50738     42292
     50741     42292     50744     42292     50747     42292     50750     42292
     50753     42292     50756     42292     50759     42292     50762     42292
     50765     42292     50768     42292     50771     42292     50774     42292
     50777     42292     50780     42292     50783     42292     50786     42292
     50789     42292     50792     42292     50795     42292     50798     42292
     50801     42292     50804     42292     50807     42292     50810     42292
     50813     42292     50816     42292     50819     42292     50822     42292
     50825     42292     50828     42292     50831     42292     50834     42292
     50837     42292     50840     42292     50843     42292     50846     42292
     50849     42292     50852     42292     50855     42292     50858     42292
     50861     42292     50864     42292     50867     42292     50870     42292
     50873     42292     50876     42292     50879     42292     50882     42292
     50885     42292     50888     42292     50891     42292     50894     42292
     50897     42292     50900     42292     50903     42292     50906     42292
     50909     42292     50912     42292     50915     42292     50918     42292
     50921     42292     50924     42292     50927     42292     50930     42292
     50933     42292     50936     42292     50939     42292     50942     42292
     50945     42292     50948     42292     50951     42292     50954     42292
     50957     42292     50960     42292     50963     42292     50966     42292
     50969     42292     50972     42292     50975     42292     50978     42292
     50981     42292     50984     42292     50987     42292     50990     42292
     50993     42292     50996     42292     50999     42292     51002     42292
     51005     42292     51008     42292     51011     42292     51014     42292
     51017     42292     51020     42292     51023     42292     51026     42292
     51029     42292     51032     42292     51035     42292     51038     42292
     51041     42292     51044     42292     51047     42292     51050     42292
     51053     42292     51056     42292     51059     42292     51062     42292
     51065     42292     51068     42292     51071     42292     51074     42292
     51077     42292     51080     42292     51083     42292     51086     42292
     51089     42292     51092     42292     51095     42292     51098     42292
     51101     42292     51104     42292     51107     42292     51110     42292
     51113     42292     51116     42292     51119     42292     51122     42292
     51125     42292     51128     42292     51131     42292     51134     42292
     51137     42292     51140     42292     51143     42292     51146     42292
     51149     42292     51152     42292     51155     42292     51158     42292
     51161     42292     51164     42292     51167     42292     51170     42292
     51173     42292     51176     42292     51179     42292     51182     42292
     51185     42292     51188     42292     51191     42292     51194     42292
     51197     42292     51200     42292     51203     42292     51206     42292
     51209     42292     51212     42292     51215     42292     51218     42292
     51221     42292     51224     42292     51227     42292     51230     42292
     51233     42292     51236     42292     51239     42292     51242     42292
     51245     42292     51248     42292     51251     42292     51254     42292
     51257     42292     51260     42292     51263     42292     51266     42292
     51269     42292     51272     42292     51275     42292     51278     42292
     51281     42292     51284     42292     51287     42292     51290     42292
     51293     42292     51296     42292     51299     42292     51302     42292
     51305     42292     51308     42292     51311     42292     51314     42292
     51317     42292     51320     42292     51323     42292     51326     42292
     51329     42292     51332     42292     51335     42292     51338     42292
     51341     42292     51344     42292     51347     42292     51350     42292
     51353     42292     51356     42292     51359     42292     51362     42292
     51365     42292     51368     42292     51371     42292     51374     42292
     51377     42292     51380     42292     51383     42292     51386     42292
     51389     42292     51392     42292     51395     42292     51398     42292
     51401     42292     51404     42292     51407     42292     51410     42292
     51413     42292     51416     42292     51419     42292     51422     42292
     51425     42292     51428     42292     51431     42292     51434     42292
     51437     42292     51440     42292     51443     42292     51446     42292
     51449     42292     51452     42292     51455     42292     51458     42292
     51461     42292     51464     42292     51467     42292     51470     42292
     51473     42292     51476     42292     51479     42292     51482     42292
     51485     42292     51488     42292     51491     42292     51494     42292
     51497     42292     51500     42292     51503     42292     51506     42292
     51509     42292     51512     42292     51515     42292     51518     42292
     51521     42292     51524     42292     51527     42292     51530     42292
     51533     42292     51536     42292     51539     42292     51542     42292
     51545     42292     51548     42292     51551     42292     51554     42292
     51557     42292     51560     42292     51563     42292     51566     42292
     51569     42292     51572     42292     51575     42292     51578     42292
     51581     42292     51584     42292     51587     42292     51590     42292
     51593     42292     51596     42292     51599     42292     51602     42292
     51605     42292     51608     42292     51611     42292     51614     42292
     51617     42292     51620     42292     51623     42292     51626     42292
     51629     42292     51632     42292     51635     42292     51638     42292
     51641     42292     51644     42292     51647     42292     51650     42292
     51653     42292     51656     42292     51659     42292     51662     42292
     51665     42292     51668     42292     51671     42292     51674     42292
     51677     42292     51680     42292     51683     42292     51686     42292
     51689     42292     51692     42292     51695     42292     51698     42292
     51701     42292     51704     42292     51707     42292     51710     42292
     51713     42292     51716     42292     51719     42292     51722     42292
     51725     42292     51728     42292     51731     42292     51734     42292
     51737     42292     51740     42292     51743     42292     51746     42292
     51749     42292     51752     42292     51755     42292     51758     42292
     51761     42292     51764     42292     51767     42292     51770     42292
     51773     42292     51776     42292     51779     42292     51782     42292
     51785     42292     51788     42292     51791     42292     51794     42292
     51797     42292     51800     42292     51803     42292     51806     42292
     51809     42292     51812     42292     51815     42292     51818     42292
     51821     42292     51824     42292     51827     42292     51830     42292
     51833     42292     51836     42292     51839     42292     51842     42292
     51845     42292     51848     42292     51851     42292     51854     42292
     51857     42292     51860     42292     51863     42292     51866     42292
     51869     42292     51872     42292     51875     42292     51878     42292
     51881     42292     51884     42292     51887     42292     51890     42292
     51893     42292     51896     42292     51899     42292     51902     42292
     51905     42292     51908     42292     51911     42292     51914     42292
     51917     42292     51920     42292     51923     42292     51926     42292
     51929     42292     51932     42292     51935     42292     51938     42292
     51941     42292     51944     42292     51947     42292     51950     42292
     51953     42292     51956     42292     51959     42292     51962     42292
     51965     42292     51968     42292     51971     42292     51974     42292
     51977     42292     51980     42292     51983     42292     51986     42292
     51989     42292     51992     42292     51995     42292     51998     42292
     52001     42292     52004     42292     52007     42292     52010     42292
     52013     42292     52016     42292     52019     42292     52022     42292
     52025     42292     52028     42292     52031     42292     52034     42292
     52037     42292     52040     42292     52043     42292     52046     42292
     52049     42292     52052     42292     52055     42292     52058     42292
     52061     42292     52064     42292     52067     42292     52070     42292
     52073     42292     52076     42292     52079     42292     52082     42292
     52085     42292     52088     42292     52091     42292     52094     42292
     52097     42292     52100     42292     52103     42292     52106     42292
     52109     42292     52112     42292     52115     42292     52118     42292
     52121     42292     52124     42292     52127     42292     52130     42292
     52133     42292     52136     42292     52139     42292     52142     42292
     52145     42292     52148     42292     52151     42292     52154     42292
     52157     42292     52160     42292     52163     42292     52166     42292
     52169     42292     52172     42292     52175     42292     52178     42292
     52181     42292     52184     42292     52187     42292     52190     42292
     52193     42292     52196     42292     52199     42292     52202     42292
     52205     42292     52208     42292     52211     42292     52214     42292
     52217     42292     52220     42292     52223     42292     52226     42292
     52229     42292     52232     42292     52235     42292     52238     42292
     52241     42292     52244     42292     52247     42292     52250     42292
     52253     42292     52256     42292     52259     42292     52262     42292
     52265     42292     52268     42292     52271     42292     52274     42292
     52277     42292     52280     42292     52283     42292     52286     42292
     52289     42292     52292     42292     52295     42292     52298     42292
     52301     42292     52304     42292     52307     42292     52310     42292
     52313     42292     52316     42292     52319     42292     52322     42292
     52325     42292     52328     42292     52331     42292     52334     42292
     52337     42292     52340     42292     52343     42292     52346     42292
     52349     42292     52352     42292     52355     42292     52358     42292
     52361     42292     52364     42292     52367     42292     52370     42292
     52373     42292     52376     42292     52379     42292     52382     42292
     52385     42292     52388     42292     52391     42292     52394     42292
     52397     42292     52400     42292     52403     42292     52406     42292
     52409     42292     52412     42292     52415     42292     52418     42292
     52421     42292     52424     42292     52427     42292     52430     42292
     52433     42292     52436     42292     52439     42292     52442     42292
     52445     42292     52448     42292     52451     42292     52454     42292
     52457     42292     52460     42292     52463     42292     52466     42292
     52469     42292     52472     42292     52475     42292     52478     42292
     52481     42292     52484     42292     52487     42292     52490     42292
     52493     42292     52496     42292     52499     42292     52502     42292
     52505     42292     52508     42292     52511     42292     52514     42292
     52517     42292     52520     42292     52523     42292     52526     42292
     52529     42292     52532     42292     52535     42292     52538     42292
     52541     42292     52544     42292     52547     42292     52550     42292
     52553     42292     52556     42292     52559     42292     52562     42292
     52565     42292     52568     42292     52571     42292     52574     42292
     52577     42292     52580     42292     52583     42292     52586     42292
     52589     42292     52592     42292     52595     42292     52598     42292
     52601     42292     52604     42292     52607     42292     52610     42292
     52613     42292     52616     42292     52619     42292     52622     42292
     52625     42292     52628     42292     52631     42292     52634     42292
     52637     42292     52640     42292     52643     42292     52646     42292
     52649     42292     52652     42292     52655     42292     52658     42292
     52661     42292     52664     42292     52667     42292     52670     42292
     52673     42292     52676     42292     52679     42292     52682     42292
     52685     42292     52688     42292     52691     42292     52694     42292
     52697     42292     52700     42292     52703     42292     52706     42292
     52709     42292     52712     42292     52715     42292     52718     42292
     52721     42292     52724     42292     52727     42292     52730     42292
     52733     42292     52736     42292     52739     42292     52742     42292
     52745     42292     52748     42292     52751     42292     52754     42292
     52757     42292     52760     42292     52763     42292     52766     42292
     52769     42292     52772     42292     52775     42292     52778     42292
     52781     42292     52784     42292     52787     42292     52790     42292
     52793     42292     52796     42292     52799     42292     52802     42292
     52805     42292     52808     42292     52811     42292     52814     42292
     52817     42292     52820     42292     52823     42292     52826     42292
     52829     42292     52832     42292     52835     42292     52838     42292
     52841     42292     52844     42292     52847     42292     52850     42292
     52853     42292     52856     42292     52859     42292     52862     42292
     52865     42292     52868     42292     52871     42292     52874     42292
     52877     42292     52880     42292     52883     42292     52886     42292
     52889     42292     52892     42292     52895     42292     52898     42292
     52901     42292     52904     42292     52907     42292     52910     42292
     52913     42292     52916     42292     52919     42292     52922     42292
     52925     42292     52928     42292     52931     42292     52934     42292
     52937     42292     52940     42292     52943     42292     52946     42292
     52949     42292     52952     42292     52955     42292     52958     42292
     52961     42292     52964     42292     52967     42292     52970     42292
     52973     42292     52976     42292     52979     42292     52982     42292
     52985     42292     52988     42292     52991     42292     52994     42292
     52997     42292     53000     42292     53003     42292     53006     42292
     53009     42292     53012     42292     53015     42292     53018     42292
     53021     42292     53024     42292     53027     42292     53030     42292
     53033     42292     53036     42292     53039     42292     53042     42292
     53045     42292     53048     42292     53051     42292     53054     42292
     53057     42292     53060     42292     53063     42292     53066     42292
     53069     42292     53072     42292     53075     42292     53078     42292
     53081     42292     53084     42292     53087     42292     53090     42292
     53093     42292     53096     42292     53099     42292     53102     42292
     53105     42292     53108     42292     53111     42292     53114     42292
     53117     42292     53120     42292     53123     42292     53126     42292
     53129     42292     53132     42292     53135     42292     53138     42292
     53141     42292     53144     42292     53147     42292     53150     42292
     53153     42292     53156     42292     53159     42292     53162     42292
     53165     42292     53168     42292     53171     42292     53174     42292
     53177     42292     53180     42292     53183     42292     53186     42292
     53189     42292     53192     42292     53195     42292     53198     42292
     53201     42292     53204     42292     53207     42292     53210     42292
     53213     42292     53216     42292     53219     42292     53222     42292
     53225     42292     53228     42292     53231     42292     53234     42292
     53237     42292     53240     42292     53243     42292     53246     42292
     53249     42292     53252     42292     53255     42292     53258     42292
     53261     42292     53264     42292     53267     42292     53270     42292
     53273     42292     53276     42292     53279     42292     53282     42292
     53285     42292     53288     42292     53291     42292     53294     42292
     53297     42292     53300     42292     53303     42292     53306     42292
     53309     42292     53312     42292     53315     42292     53318     42292
     53321     42292     53324     42292     53327     42292     53330     42292
     53333     42292     53336     42292     53339     42292     53342     42292
     53345     42292     53348     42292     53351     42292     53354     42292
     53357     42292     53360     42292     53363     42292     53366     42292
     53369     42292     53372     42292     53375     42292     53378     42292
     53381     42292     53384     42292     53387     42292     53390     42292
     53393     42292     53396     42292     53399     42292     53402     42292
     53405     42292     53408     42292     53411     42292     53414     42292
     53417     42292     53420     42292     53423     42292     53426     42292
     53429     42292     53432     42292     53435     42292     53438     42292
     53441     42292     53444     42292     53447     42292     53450     42292
     53453     42292     53456     42292     53459     42292     53462     42292
     53465     42292     53468     42292     53471     42292     53474     42292
     53477     42292     53480     42292     53483     42292     53486     42292
     53489     42292     53492     42292     53495     42292     53498     42292
     53501     42292     53504     42292     53507     42292     53510     42292
     53513     42292     53516     42292     53519     42292     53522     42292
     53525     42292     53528     42292     53531     42292     53534     42292
     53537     42292     53540     42292     53543     42292     53546     42292
     53549     42292     53552     42292     53555     42292     53558     42292
     53561     42292     53564     42292     53567     42292     53570     42292
     53573     42292     53576     42292     53579     42292     53582     42292
     53585     42292     53588     42292     53591     42292     53594     42292
     53597     42292     53600     42292     53603     42292     53606     42292
     53609     42292     53612     42292     53615     42292     53618     42292
     53621     42292     53624     42292     53627     42292     53630     42292
     53633     42292     53636     42292     53639     42292     53642     42292
     53645     42292     53648     42292     53651     42292     53654     42292
     53657     42292     53660     42292     53663     42292     53666     42292
     53669     42292     53672     42292     53675     42292     53678     42292
     53681     42292     53684     42292     53687     42292     53690     42292
     53693     42292     53696     42292     53699     42292     53702     42292
     53705     42292     53708     42292     53711     42292     53714     42292
     53717     42292     53720     42292     53723     42292     53726     42292
     53729     42292     53732     42292     53735     42292     53738     42292
     53741     42292     53744     42292     53747     42292     53750     42292
     53753     42292     53756     42292     53759     42292     53762     42292
     53765     42292     53768     42292     53771     42292     53774     42292
     53777     42292     53780     42292     53783     42292     53786     42292
     53789     42292     53792     42292     53795     42292     53798     42292
     53801     42292     53804     42292     53807     42292     53810     42292
     53813     42292     53816     42292     53819     42292     53822     42292
     53825     42292     53828     42292     53831     42292     53834     42292
     53837     42292     53840     42292     53843     42292     53846     42292
     53849     42292     53852     42292     53855     42292     53858     42292
     53861     42292     53864     42292     53867     42292     53870     42292
     53873     42292     53876     42292     53879     42292     53882     42292
     53885     42292     53888     42292     53891     42292     53894     42292
     53897     42292     53900     42292     53903     42292     53906     42292
     53909     42292     53912     42292     53915     42292     53918     42292
     53921     42292     53924     42292     53927     42292     53930     42292
     53933     42292     53936     42292     53939     42292     53942     42292
     53945     42292     53948     42292     53951     42292     53954     42292
     53957     42292     53960     42292     53963     42292     53966     42292
     53969     42292     53972     42292     53975     42292     53978     42292
     53981     42292     53984     42292     53987     42292     53990     42292
     53993     42292     53996     42292     53999     42292     54002     42292
     54005     42292     54008     42292     54011     42292     54014     42292
     54017     42292     54020     42292     54023     42292     54026     42292
     54029     42292     54032     42292     54035     42292     54038     42292
     54041     42292     54044     42292     54047     42292     54050     42292
     54053     42292     54056     42292     54059     42292     54062     42292
     54065     42292     54068     42292     54071     42292     54074     42292
     54077     42292     54080     42292     54083     42292     54086     42292
     54089     42292     54092     42292     54095     42292     54098     42292
     54101     42292     54104     42292     54107     42292     54110     42292
     54113     42292     54116     42292     54119     42292     54122     42292
     54125     42292     54128     42292     54131     42292     54134     42292
     54137     42292     54140     42292     54143     42292     54146     42292
     54149     42292     54152     42292     54155     42292     54158     42292
     54161     42292     54164     42292     54167     42292     54170     42292
     54173     42292     54176     42292     54179     42292     54182     42292
     54185     42292     54188     42292     54191     42292     54194     42292
     54197     42292     54200     42292     54203     42292     54206     42292
     54209     42292     54212     42292     54215     42292     54218     42292
     54221     42292     54224     42292     54227     42292     54230     42292
     54233     42292     54236     42292     54239     42292     54242     42292
     54245     42292     54248     42292     54251     42292     54254     42292
     54257     42292     54260     42292     54263     42292     54266     42292
     54269     42292     54272     42292     54275     42292     54278     42292
     54281     42292     54284     42292     54287     42292     54290     42292
     54293     42292     54296     42292     54299     42292     54302     42292
     54305     42292     54308     42292     54311     42292     54314     42292
     54317     42292     54320     42292     54323     42292     54326     42292
     54329     42292     54332     42292     54335     42292     54338     42292
     54341     42292     54344     42292     54347     42292     54350     42292
     54353     42292     54356     42292     54359     42292     54362     42292
     54365     42292     54368     42292     54371     42292     54374     42292
     54377     42292     54380     42292     54383     42292     54386     42292
     54389     42292     54392     42292     54395     42292     54398     42292
     54401     42292     54404     42292     54407     42292     54410     42292
     54413     42292     54416     42292     54419     42292     54422     42292
     54425     42292     54428     42292     54431     42292     54434     42292
     54437     42292     54440     42292     54443     42292     54446     42292
     54449     42292     54452     42292     54455     42292     54458     42292
     54461     42292     54464     42292     54467     42292     54470     42292
     54473     42292     54476     42292     54479     42292     54482     42292
     54485     42292     54488     42292     54491     42292     54494     42292
     54497     42292     54500     42292     54503     42292     54506     42292
     54509     42292     54512     42292     54515     42292     54518     42292
     54521     42292     54524     42292     54527     42292     54530     42292
     54533     42292     54536     42292     54539     42292     54542     42292
     54545     42292     54548     42292     54551     42292     54554     42292
     54557     42292     54560     42292     54563     42292     54566     42292
     54569     42292     54572     42292     54575     42292     54578     42292
     54581     42292     54584     42292     54587     42292     54590     42292
     54593     42292     54596     42292     54599     42292     54602     42292
     54605     42292     54608     42292     54611     42292     54614     42292
     54617     42292     54620     42292     54623     42292     54626     42292
     54629     42292     54632     42292     54635     42292     54638     42292
     54641     42292     54644     42292     54647     42292     54650     42292
     54653     42292     54656     42292     54659     42292     54662     42292
     54665     42292     54668     42292     54671     42292     54674     42292
     54677     42292     54680     42292     54683     42292     54686     42292
     54689     42292     54692     42292     54695     42292     54698     42292
     54701     42292     54704     42292     54707     42292     54710     42292
     54713     42292     54716     42292     54719     42292     54722     42292
     54725     42292     54728     42292     54731     42292     54734     42292
     54737     42292     54740     42292     54743     42292     54746     42292
     54749     42292     54752     42292     54755     42292     54758     42292
     54761     42292     54764     42292     54767     42292     54770     42292
     54773     42292     54776     42292     54779     42292     54782     42292
     54785     42292     54788     42292     54791     42292     54794     42292
     54797     42292     54800     42292     54803     42292     54806     42292
     54809     42292     54812     42292     54815     42292     54818     42292
     54821     42292     54824     42292     54827     42292     54830     42292
     54833     42292     54836     42292     54839     42292     54842     42292
     54845     42292     54848     42292     54851     42292     54854     42292
     54857     42292     54860     42292     54863     42292     54866     42292
     54869     42292     54872     42292     54875     42292     54878     42292
     54881     42292     54884     42292     54887     42292     54890     42292
     54893     42292     54896     42292     54899     42292     54902     42292
     54905     42292     54908     42292     54911     42292     54914     42292
     54917     42292     54920     42292     54923     42292     54926     42292
     54929     42292     54932     42292     54935     42292     54938     42292
     54941     42292     54944     42292     54947     42292     54950     42292
     54953     42292     54956     42292     54959     42292     54962     42292
     54965     42292     54968     42292     54971     42292     54974     42292
     54977     42292     54980     42292     54983     42292     54986     42292
     54989     42292     54992     42292     54995     42292     54998     42292
     55001     42292     55004     42292     55007     42292     55010     42292
     55013     42292     55016     42292     55019     42292     55022     42292
     55025     42292     55028     42292     55031     42292     55034     42292
     55037     42292     55040     42292     55043     42292     55046     42292
     55049     42292     55052     42292     55055     42292     55058     42292
     55061     42292     55064     42292     55067     42292     55070     42292
     55073     42292     55076     42292     55079     42292     55082     42292
     55085     42292     55088     42292     55091     42292     55094     42292
     55097     42292     55100     42292     55103     42292     55106     42292
     55109     42292     55112     42292     55115     42292     55118     42292
     55121     42292     55124     42292     55127     42292     55130     42292
     55133     42292     55136     42292     55139     42292     55142     42292
     55145     42292     55148     42292     55151     42292     55154     42292
     55157     42292     55160     42292     55163     42292     55166     42292
     55169     42292     55172     42292     55175     42292     55178     42292
     55181     42292     55184     42292     55187     42292     55190     42292
     55193     42292     55196     42292     55199     42292     55202     42292
     55205     42292     55208     42292     55211     42292     55214     42292
     55217     42292     55220     42292     55223     42292     55226     42292
     55229     42292     55232     42292     55235     42292     55238     42292
     55241     42292     55244     42292     55247     42292     55250     42292
     55253     42292     55256     42292     55259     42292     55262     42292
     55265     42292     55268     42292     55271     42292     55274     42292
     55277     42292     55280     42292     55283     42292     55286     42292
     55289     42292     55292     42292     55295     42292     55298     42292
     55301     42292     55304     42292     55307     42292     55310     42292
     55313     42292     55316     42292     55319     42292     55322     42292
     55325     42292     55328     42292     55331     42292     55334     42292
     55337     42292     55340     42292     55343     42292     55346     42292
     55349     42292     55352     42292     55355     42292     55358     42292
     55361     42292     55364     42292     55367     42292     55370     42292
     55373     42292     55376     42292     55379     42292     55382     42292
     55385     42292     55388     42292     55391     42292     55394     42292
     55397     42292     55400     42292     55403     42292     55406     42292
     55409     42292     55412     42292     55415     42292     55418     42292
     55421     42292     55424     42292     55427     42292     55430     42292
     55433     42292     55436     42292     55439     42292     55442     42292
     55445     42292     55448     42292     55451     42292     55454     42292
     55457     42292     55460     42292     55463     42292     55466     42292
     55469     42292     55472     42292     55475     42292     55478     42292
     55481     42292     55484     42292     55487     42292     55490     42292
     55493     42292     55496     42292     55499     42292     55502     42292
     55505     42292     55508     42292     55511     42292     55514     42292
     55517     42292     55520     42292     55523     42292     55526     42292
     55529     42292     55532     42292     55535     42292     55538     42292
     55541     42292     55544     42292     55547     42292     55550     42292
     55553     42292     55556     42292     55559     42292     55562     42292
     55565     42292     55568     42292     55571     42292     55574     42292
     55577     42292     55580     42292     55583     42292     55586     42292
     55589     42292     55592     42292     55595     42292     55598     42292
     55601     42292     55604     42292     55607     42292     55610     42292
     55613     42292     55616     42292     55619     42292     55622     42292
     55625     42292     55628     42292     55631     42292     55634     42292
     55637     42292     55640     42292     55643     42292     55646     42292
     55649     42292     55652     42292     55655     42292     55658     42292
     55661     42292     55664     42292     55667     42292     55670     42292
     55673     42292     55676     42292     55679     42292     55682     42292
     55685     42292     55688     42292     55691     42292     55694     42292
     55697     42292     55700     42292     55703     42292     55706     42292
     55709     42292     55712     42292     55715     42292     55718     42292
     55721     42292     55724     42292     55727     42292     55730     42292
     55733     42292     55736     42292     55739     42292     55742     42292
     55745     42292     55748     42292     55751     42292     55754     42292
     55757     42292     55760     42292     55763     42292     55766     42292
     55769     42292     55772     42292     55775     42292     55778     42292
     55781     42292     55784     42292     55787     42292     55790     42292
     55793     42292     55796     42292     55799     42292     55802     42292
     55805     42292     55808     42292     55811     42292     55814     42292
     55817     42292     55820     42292     55823     42292     55826     42292
     55829     42292     55832     42292     55835     42292     55838     42292
     55841     42292     55844     42292     55847     42292     55850     42292
     55853     42292     55856     42292     55859     42292     55862     42292
     55865     42292     55868     42292     55871     42292     55874     42292
     55877     42292     55880     42292     55883     42292     55886     42292
     55889     42292     55892     42292     55895     42292     55898     42292
     55901     42292     55904     42292     55907     42292     55910     42292
     55913     42292     55916     42292     55919     42292     55922     42292
     55925     42292     55928     42292     55931     42292     55934     42292
     55937     42292     55940     42292     55943     42292     55946     42292
     55949     42292     55952     42292     55955     42292     55958     42292
     55961     42292     55964     42292     55967     42292     55970     42292
     55973     42292     55976     42292     55979     42292     55982     42292
     55985     42292     55988     42292     55991     42292     55994     42292
     55997     42292     56000     42292     56003     42292     56006     42292
     56009     42292     56012     42292     56015     42292     56018     42292
     56021     42292     56024     42292     56027     42292     56030     42292
     56033     42292     56036     42292     56039     42292     56042     42292
     56045     42292     56048     42292     56051     42292     56054     42292
     56057     42292     56060     42292     56063     42292     56066     42292
     56069     42292     56072     42292     56075     42292     56078     42292
     56081     42292     56084     42292     56087     42292     56090     42292
     56093     42292     56096     42292     56099     42292     56102     42292
     56105     42292     56108     42292     56111     42292     56114     42292
     56117     42292     56120     42292     56123     42292     56126     42292
     56129     42292     56132     42292     56135     42292     56138     42292
     56141     42292     56144     42292     56147     42292     56150     42292
     56153     42292     56156     42292     56159     42292     56162     42292
     56165     42292     56168     42292     56171     42292     56174     42292
     56177     42292     56180     42292     56183     42292     56186     42292
     56189     42292     56192     42292     56195     42292     56198     42292
     56201     42292     56204     42292     56207     42292     56210     42292
     56213     42292     56216     42292     56219     42292     56222     42292
     56225     42292     56228     42292     56231     42292     56234     42292
     56237     42292     56240     42292     56243     42292     56246     42292
     56249     42292     56252     42292     56255     42292     56258     42292
     56261     42292     56264     42292     56267     42292     56270     42292
     56273     42292     56276     42292     56279     42292     56282     42292
     56285     42292     56288     42292     56291     42292     56294     42292
     56297     42292     56300     42292     56303     42292     56306     42292
     56309     42292     56312     42292     56315     42292     56318     42292
     56321     42292     56324     42292     56327     42292     56330     42292
     56333     42292     56336     42292     56339     42292     56342     42292
     56345     42292     56348     42292     56351     42292     56354     42292
     56357     42292     56360     42292     56363     42292     56366     42292
     56369     42292     56372     42292     56375     42292     56378     42292
     56381     42292     56384     42292     56387     42292     56390     42292
     56393     42292     56396     42292     56399     42292     56402     42292
     56405     42292     56408     42292     56411     42292     56414     42292
     56417     42292     56420     42292     56423     42292     56426     42292
     56429     42292     56432     42292     56435     42292     56438     42292
     56441     42292     56444     42292     56447     42292     56450     42292
     56453     42292     56456     42292     56459     42292     56462     42292
     56465     42292     56468     42292     56471     42292     56474     42292
     56477     42292     56480     42292     56483     42292     56486     42292
     56489     42292     56492     42292     56495     42292     56498     42292
     56501     42292     56504     42292     56507     42292     56510     42292
     56513     42292     56516     42292     56519     42292     56522     42292
     56525     42292     56528     42292     56531     42292     56534     42292
     56537     42292     56540     42292     56543     42292     56546     42292
     56549     42292     56552     42292     56555     42292     56558     42292
     56561     42292     56564     42292     56567     42292     56570     42292
     56573     42292     56576     42292     56579     42292     56582     42292
     56585     42292     56588     42292     56591     42292     56594     42292
     56597     42292     56600     42292     56603     42292     56606     42292
     56609     42292     56612     42292     56615     42292     56618     42292
     56621     42292     56624     42292     56627     42292     56630     42292
     56633     42292     56636     42292     56639     42292     56642     42292
     56645     42292     56648     42292     56651     42292     56654     42292
     56657     42292     56660     42292     56663     42292     56666     42292
     56669     42292     56672     42292     56675     42292     56678     42292
     56681     42292     56684     42292     56687     42292     56690     42292
     56693     42292     56696     42292     56699     42292     56702     42292
     56705     42292     56708     42292     56711     42292     56714     42292
     56717     42292     56720     42292     56723     42292     56726     42292
     56729     42292     56732     42292     56735     42292     56738     42292
     56741     42292     56744     42292     56747     42292     56750     42292
     56753     42292     56756     42292     56759     42292     56762     42292
     56765     42292     56768     42292     56771     42292     56774     42292
     56777     42292     56780     42292     56783     42292     56786     42292
     56789     42292     56792     42292     56795     42292     56798     42292
     56801     42292     56804     42292     56807     42292     56810     42292
     56813     42292     56816     42292     56819     42292     56822     42292
     56825     42292     56828     42292     56831     42292     56834     42292
     56837     42292     56840     42292     56843     42292     56846     42292
     56849     42292     56852     42292     56855     42292     56858     42292
     56861     42292     56864     42292     56867     42292     56870     42292
     56873     42292     56876     42292     56879     42292     56882     42292
     56885     42292     56888     42292     56891     42292     56894     42292
     56897     42292     56900     42292     56903     42292     56906     42292
     56909     42292     56912     42292     56915     42292     56918     42292
     56921     42292     56924     42292     56927     42292     56930     42292
     56933     42292     56936     42292     56939     42292     56942     42292
     56945     42292     56948     42292     56951     42292     56954     42292
     56957     42292     56960     42292     56963     42292     56966     42292
     56969     42292     56972     42292     56975     42292     56978     42292
     56981     42292     56984     42292     56987     42292     56990     42292
     56993     42292     56996     42292     56999     42292     57002     42292
     57005     42292     57008     42292     57011     42292     57014     42292
     57017     42292     57020     42292     57023     42292     57026     42292
     57029     42292     57032     42292     57035     42292     57038     42292
     57041     42292     57044     42292     57047     42292     57050     42292
     57053     42292     57056     42292     57059     42292     57062     42292
     57065     42292     57068     42292     57071     42292     57074     42292
     57077     42292     57080     42292     57083     42292     57086     42292
     57089     42292     57092     42292     57095     42292     57098     42292
     57101     42292     57104     42292     57107     42292     57110     42292
     57113     42292     57116     42292     57119     42292     57122     42292
     57125     42292     57128     42292     57131     42292     57134     42292
     57137     42292     57140     42292     57143     42292     57146     42292
     57149     42292     57152     42292     57155     42292     57158     42292
     57161     42292     57164     42292     57167     42292     57170     42292
     57173     42292     57176     42292     57179     42292     57182     42292
     57185     42292     57188     42292     57191     42292     57194     42292
     57197     42292     57200     42292     57203     42292     57206     42292
     57209     42292     57212     42292     57215     42292     57218     42292
     57221     42292     57224     42292     57227     42292     57230     42292
     57233     42292     57236     42292     57239     42292     57242     42292
     57245     42292     57248     42292     57251     42292     57254     42292
     57257     42292     57260     42292     57263     42292     57266     42292
     57269     42292     57272     42292     57275     42292     57278     42292
     57281     42292     57284     42292     57287     42292     57290     42292
     57293     42292     57296     42292     57299     42292     57302     42292
     57305     42292     57308     42292     57311     42292     57314     42292
     57317     42292     57320     42292     57323     42292     57326     42292
     57329     42292     57332     42292     57335     42292     57338     42292
     57341     42292     57344     42292     57347     42292     57350     42292
     57353     42292     57356     42292     57359     42292     57362     42292
     57365     42292     57368     42292     57371     42292     57374     42292
     57377     42292     57380     42292     57383     42292     57386     42292
     57389     42292     57392     42292     57395     42292     57398     42292
     57401     42292     57404     42292     57407     42292     57410     42292
     57413     42292     57416     42292     57419     42292     57422     42292
     57425     42292     57428     42292     57431     42292     57434     42292
     57437     42292     57440     42292     57443     42292     57446     42292
     57449     42292     57452     42292     57455     42292     57458     42292
     57461     42292     57464     42292     57467     42292     57470     42292
     57473     42292     57476     42292     57479     42292     57482     42292
     57485     42292     57488     42292     57491     42292     57494     42292
     57497     42292     57500     42292     57503     42292     57506     42292
     57509     42292     57512     42292     57515     42292     57518     42292
     57521     42292     57524     42292     57527     42292     57530     42292
     57533     42292     57536     42292     57539     42292     57542     42292
     57545     42292     57548     42292     57551     42292     57554     42292
     57557     42292     57560     42292     57563     42292     57566     42292
     57569     42292     57572     42292     57575     42292     57578     42292
     57581     42292     57584     42292     57587     42292     57590     42292
     57593     42292     57596     42292     57599     42292     57602     42292
     57605     42292     57608     42292     57611     42292     57614     42292
     57617     42292     57620     42292     57623     42292     57626     42292
     57629     42292     57632     42292     57635     42292     57638     42292
     57641     42292     57644     42292     57647     42292     57650     42292
     57653     42292     57656     42292     57659     42292     57662     42292
     57665     42292     57668     42292     57671     42292     57674     42292
     57677     42292     57680     42292     57683     42292     57686     42292
     57689     42292     57692     42292     57695     42292     57698     42292
     57701     42292     57704     42292     57707     42292     57710     42292
     57713     42292     57716     42292     57719     42292     57722     42292
     57725     42292     57728     42292     57731     42292     57734     42292
     57737     42292     57740     42292     57743     42292     57746     42292
     57749     42292     57752     42292     57755     42292     57758     42292
     57761     42292     57764     42292     57767     42292     57770     42292
     57773     42292     57776     42292     57779     42292     57782     42292
     57785     42292     57788     42292     57791     42292     57794     42292
     57797     42292     57800     42292     57803     42292     57806     42292
     57809     42292     57812     42292     57815     42292     57818     42292
     57821     42292     57824     42292     57827     42292     57830     42292
     57833     42292     57836     42292     57839     42292     57842     42292
     57845     42292     57848     42292     57851     42292     57854     42292
     57857     42292     57860     42292     57863     42292     57866     42292
     57869     42292     57872     42292     57875     42292     57878     42292
     57881     42292     57884     42292     57887     42292     57890     42292
     57893     42292     57896     42292     57899     42292     57902     42292
     57905     42292     57908     42292     57911     42292     57914     42292
     57917     42292     57920     42292     57923     42292     57926     42292
     57929     42292     57932     42292     57935     42292     57938     42292
     57941     42292     57944     42292     57947     42292     57950     42292
     57953     42292     57956     42292     57959     42292     57962     42292
     57965     42292     57968     42292     57971     42292     57974     42292
     57977     42292     57980     42292     57983     42292     57986     42292
     57989     42292     57992     42292     57995     42292     57998     42292
     58001     42292     58004     42292     58007     42292     58010     42292
     58013     42292     58016     42292     58019     42292     58022     42292
     58025     42292     58028     42292     58031     42292     58034     42292
     58037     42292     58040     42292     58043     42292     58046     42292
     58049     42292     58052     42292     58055     42292     58058     42292
     58061     42292     58064     42292     58067     42292     58070     42292
     58073     42292     58076     42292     58079     42292     58082     42292
     58085     42292     58088     42292     58091     42292     58094     42292
     58097     42292     58100     42292     58103     42292     58106     42292
     58109     42292     58112     42292     58115     42292     58118     42292
     58121     42292     58124     42292     58127     42292     58130     42292
     58133     42292     58136     42292     58139     42292     58142     42292
     58145     42292     58148     42292     58151     42292     58154     42292
     58157     42292     58160     42292     58163     42292     58166     42292
     58169     42292     58172     42292     58175     42292     58178     42292
     58181     42292     58184     42292     58187     42292     58190     42292
     58193     42292     58196     42292     58199     42292     58202     42292
     58205     42292     58208     42292     58211     42292     58214     42292
     58217     42292     58220     42292     58223     42292     58226     42292
     58229     42292     58232     42292     58235     42292     58238     42292
     58241     42292     58244     42292     58247     42292     58250     42292
     58253     42292     58256     42292     58259     42292     58262     42292
     58265     42292     58268     42292     58271     42292     58274     42292
     58277     42292     58280     42292     58283     42292     58286     42292
     58289     42292     58292     42292     58295     42292     58298     42292
     58301     42292     58304     42292     58307     42292     58310     42292
     58313     42292     58316     42292     58319     42292     58322     42292
     58325     42292     58328     42292     58331     42292     58334     42292
     58337     42292     58340     42292     58343     42292     58346     42292
     58349     42292     58352     42292     58355     42292     58358     42292
     58361     42292     58364     42292     58367     42292     58370     42292
     58373     42292     58376     42292     58379     42292     58382     42292
     58385     42292     58388     42292     58391     42292     58394     42292
     58397     42292     58400     42292     58403     42292     58406     42292
     58409     42292     58412     42292     58415     42292     58418     42292
     58421     42292     58424     42292     58427     42292     58430     42292
     58433     42292     58436     42292     58439     42292     58442     42292
     58445     42292     58448     42292     58451     42292     58454     42292
     58457     42292     58460     42292     58463     42292     58466     42292
     58469     42292     58472     42292     58475     42292     58478     42292
     58481     42292     58484     42292     58487     42292     58490     42292
     58493     42292     58496     42292     58499     42292     58502     42292
     58505     42292     58508     42292     58511     42292     58514     42292
     58517     42292     58520     42292     58523     42292     58526     42292
     58529     42292     58532     42292     58535     42292     58538     42292
     58541     42292     58544     42292     58547     42292     58550     42292
     58553     42292     58556     42292     58559     42292     58562     42292
     58565     42292     58568     42292     58571     42292     58574     42292
     58577     42292     58580     42292     58583     42292     58586     42292
     58589     42292     58592     42292     58595     42292     58598     42292
     58601     42292     58604     42292     58607     42292     58610     42292
     58613     42292     58616     42292     58619     42292     58622     42292
     58625     42292     58628     42292     58631     42292     58634     42292
     58637     42292     58640     42292     58643     42292     58646     42292
     58649     42292     58652     42292     58655     42292     58658     42292
     58661     42292     58664     42292     58667     42292     58670     42292
     58673     42292     58676     42292     58679     42292     58682     42292
     58685     42292     58688     42292     58691     42292     58694     42292
     58697     42292     58700     42292     58703     42292     58706     42292
     58709     42292     58712     42292     58715     42292     58718     42292
     58721     42292     58724     42292     58727     42292     58730     42292
     58733     42292     58736     42292     58739     42292     58742     42292
     58745     42292     58748     42292     58751     42292     58754     42292
     58757     42292     58760     42292     58763     42292     58766     42292
     58769     42292     58772     42292     58775     42292     58778     42292
     58781     42292     58784     42292     58787     42292     58790     42292
     58793     42292     58796     42292     58799     42292     58802     42292
     58805     42292     58808     42292     58811     42292     58814     42292
     58817     42292     58820     42292     58823     42292     58826     42292
     58829     42292     58832     42292     58835     42292     58838     42292
     58841     42292     58844     42292     58847     42292     58850     42292
     58853     42292     58856     42292     58859     42292     58862     42292
     58865     42292     58868     42292     58871     42292     58874     42292
     58877     42292     58880     42292     58883     42292     58886     42292
     58889     42292     58892     42292     58895     42292     58898     42292
     58901     42292     58904     42292     58907     42292     58910     42292
     58913     42292     58916     42292     58919     42292     58922     42292
     58925     42292     58928     42292     58931     42292     58934     42292
     58937     42292     58940     42292     58943     42292     58946     42292
     58949     42292     58952     42292     58955     42292     58958     42292
     58961     42292     58964     42292     58967     42292     58970     42292
     58973     42292     58976     42292     58979     42292     58982     42292
     58985     42292     58988     42292     58991     42292     58994     42292
     58997     42292     59000     42292     59003     42292     59006     42292
     59009     42292     59012     42292     59015     42292     59018     42292
     59021     42292     59024     42292     59027     42292     59030     42292
     59033     42292     59036     42292     59039     42292     59042     42292
     59045     42292     59048     42292     59051     42292     59054     42292
     59057     42292     59060     42292     59063     42292     59066     42292
     59069     42292     59072     42292     59075     42292     59078     42292
     59081     42292     59084     42292     59087     42292     59090     42292
     59093     42292     59096     42292     59099     42292     59102     42292
     59105     42292     59108     42292     59111     42292     59114     42292
     59117     42292     59120     42292     59123     42292     59126     42292
     59129     42292     59132     42292     59135     42292     59138     42292
     59141     42292     59144     42292     59147     42292     59150     42292
     59153     42292     59156     42292     59159     42292     59162     42292
     59165     42292     59168     42292     59171     42292     59174     42292
     59177     42292     59180     42292     59183     42292     59186     42292
     59189     42292     59192     42292     59195     42292     59198     42292
     59201     42292     59204     42292     59207     42292     59210     42292
     59213     42292     59216     42292     59219     42292     59222     42292
     59225     42292     59228     42292     59231     42292     59234     42292
     59237     42292     59240     42292     59243     42292     59246     42292
     59249     42292     59252     42292     59255     42292     59258     42292
     59261     42292     59264     42292     59267     42292     59270     42292
     59273     42292     59276     42292     59279     42292     59282     42292
     59285     42292     59288     42292     59291     42292     59294     42292
     59297     42292     59300     42292     59303     42292     59306     42292
     59309     42292     59312     42292     59315     42292     59318     42292
     59321     42292     59324     42292     59327     42292     59330     42292
     59333     42292     59336     42292     59339     42292     59342     42292
     59345     42292     59348     42292     59351     42292     59354     42292
     59357     42292     59360     42292     59363     42292     59366     42292
     59369     42292     59372     42292     59375     42292     59378     42292
     59381     42292     59384     42292     59387     42292     59390     42292
     59393     42292     59396     42292     59399     42292     59402     42292
     59405     42292     59408     42292     59411     42292     59414     42292
     59417     42292     59420     42292     59423     42292     59426     42292
     59429     42292     59432     42292     59435     42292     59438     42292
     59441     42292     59444     42292     59447     42292     59450     42292
     59453     42292     59456     42292     59459     42292     59462     42292
     59465     42292     59468     42292     59471     42292     59474     42292
     59477     42292     59480     42292     59483     42292     59486     42292
     59489     42292     59492     42292     59495     42292     59498     42292
     59501     42292     59504     42292     59507     42292     59510     42292
     59513     42292     59516     42292     59519     42292     59522     42292
     59525     42292     59528     42292     59531     42292     59534     42292
     59537     42292     59540     42292     59543     42292     59546     42292
     59549     42292     59552     42292     59555     42292     59558     42292
     59561     42292     59564     42292

         0 !NNB

         0         0         0         0         0         0         0         0
         0         0         0         0         0         0         0         0
         0         0         0         0         0         0         0         0
         0         0         0         0         0         0         0         0
         0         0         0         0         0         0         0         0
         0         0         0         0         0         0         0         0
         0         0         0         0         0         0         0         0
         0         0         0         0         0         0         0         0
         0         0         0         0         0         0         0         0
         0         0         0         0         0         0         0         0
         0         0         0         0         0         0         0         0
         0         0         0         0         0         0         0         0
         0         0         0         0         0         0         0         0
         0         0         0         0         0         0         0         0
         0         0         0         0         0         0         0         0
         0         0         0         0         0         0         0         0
         0         0         0         0         0         0         0         0
         0         0         0         0         0         0         0         0
         0         0         0         0         0         0         0         0
         0         0         0         0         0         0         0         0
         0         0         0         0         0         0         0         0
         0         0         0         0         0         0         0         0
         0         0         0         0         0         0         0         0
         0         0         0         0         0         0         0         0
         0         0         0         0         0         0         0         0
         0         0         0         0         0         0         0         0
         0         0         0         0         0         0         0         0
         0         0         0         0         0         0         0         0
         0         0         0         0         0         0         0         0
         0         0         0         0         0         0         0         0
         0         0         0         0         0         0         0         0
         0         0         0         0         0         0         0         0
         0         0         0         0         0         0         0         0
         0         0         0         0         0         0         0         0
         0         0         0         0         0         0         0         0
         0         0         0         0         0         0         0         0
         0         0         0         0         0         0         0         0
         0         0         0         0         0         0         0         0
         0         0         0         0         0         0         0         0
         0         0         0         0         0         0         0         0
         0         0         0         0         0         0         0         0
         0         0         0         0         0         0         0         0
         0         0         0         0         0         0         0         0
         0         0         0         0         0         0         0         0
         0         0         0         0         0         0         0         0
         0         0         0         0         0         0         0         0
         0         0         0         0         0         0         0         0
         0         0         0         0         0         0         0         0
         0         0         0         0         0         0         0         0
         0         0         0         0         0         0         0         0
         0         0         0         0         0         0         0         0
         0         0         0         0         0         0         0         0
         0         0         0         0         0         0         0         0
         0         0         0         0         0         0         0         0
         0         0         0         0         0         0         0         0
         0         0         0         0         0         0         0         0
         0         0         0         0         0         0         0         0
         0         0         0         0         0         0         0         0
         0         0         0         0         0         0         0         0
         0         0         0         0         0         0         0         0
         0         0         0         0         0         0         0         0
         0         0         0         0         0         0         0         0
         0         0         0         0         0         0         0         0
         0         0         0         0         0         0         0         0
         0         0         0         0         0         0         0         0
         0         0         0         0         0         0         0         0
         0         0         0         0         0         0         0         0
         0         0         0         0         0         0         0         0
         0         0         0         0         0         0         0         0
         0         0         0         0         0         0         0         0
         0         0         0         0         0         0         0         0
         0         0         0         0         0         0         0         0
         0         0         0         0         0         0         0         0
         0         0         0         0         0         0         0         0
         0         0         0         0         0         0         0         0
         0         0         0         0         0         0         0         0
         0         0         0         0         0         0         0         0
         0         0         0         0         0         0         0         0
         0         0         0         0         0         0         0         0
         0         0         0         0         0         0         0         0
         0         0         0         0         0         0         0         0
         0         0         0         0         0         0         0         0
         0         0         0         0         0         0         0         0
         0         0         0         0         0         0         0         0
         0         0         0         0         0         0         0         0
         0         0         0         0         0         0         0         0
         0         0         0         0         0         0         0         0
         0         0         0         0         0         0         0         0
         0         0         0         0         0         0         0         0
         0         0         0         0         0         0         0         0
         0         0         0         0         0         0         0         0
         0         0         0         0         0         0         0         0
         0         0         0         0         0         0         0         0
         0         0         0         0         0         0         0         0
         0         0         0         0         0         0         0         0
         0         0         0         0         0         0         0         0
         0         0         0         0         0         0         0         0
         0         0         0         0         0         0         0         0
         0         0         0         0         0         0         0         0
         0         0         0         0         0         0         0         0
         0         0         0         0         0         0         0         0
         0         0         0         0         0         0         0         0
         0         0         0         0         0         0         0         0
         0         0         0         0         0         0         0         0
         0         0         0         0         0         0         0         0
         0         0         0         0         0         0         0         0
         0         0         0         0         0         0         0         0
         0         0         0         0         0         0         0         0
         0         0         0         0         0         0         0         0
         0         0         0         0         0         0         0         0
         0         0         0         0         0         0         0         0
         0         0         0         0         0         0         0         0
         0         0         0         0         0         0         0         0
         0         0         0         0         0         0         0         0
         0         0         0         0         0         0         0         0
         0         0         0         0         0         0         0         0
         0         0         0         0         0         0         0         0
         0         0         0         0         0         0         0         0
         0         0         0         0         0         0         0         0
         0         0         0         0         0         0         0         0
         0         0         0         0         0         0         0         0
         0         0         0         0         0         0         0         0
         0         0         0         0         0         0         0         0
         0         0         0         0         0         0         0         0
         0         0         0         0         0         0         0         0
         0         0         0         0         0         0         0         0
         0         0         0         0         0         0         0         0
         0         0         0         0         0         0         0         0
         0         0         0         0         0         0         0         0
         0         0         0         0         0         0         0         0
         0         0         0         0         0         0         0         0
         0         0         0         0         0         0         0         0
         0         0         0         0         0         0         0         0
         0         0         0         0         0         0         0         0
         0         0         0         0         0         0         0         0
         0         0         0         0         0         0         0         0
         0         0         0         0         0         0         0         0
         0         0         0         0         0         0         0         0
         0         0         0         0         0         0         0         0
         0         0         0         0         0         0         0         0
         0         0         0         0         0         0         0         0
         0         0         0         0         0         0         0         0
         0         0         0         0         0         0         0         0
         0         0         0         0         0         0         0         0
         0         0         0         0         0         0         0         0
         0         0         0         0         0         0         0         0
         0         0         0         0         0         0         0         0
         0         0         0         0         0         0         0         0
         0         0         0         0         0         0         0         0
         0         0         0         0         0         0         0         0
         0         0         0         0         0         0         0         0
         0         0         0         0         0         0         0         0
         0         0         0         0         0         0         0         0
         0         0         0         0         0         0         0         0
         0         0         0         0         0         0         0         0
         0         0         0         0         0         0         0         0
         0         0         0         0         0         0         0         0
         0         0         0         0         0         0         0         0
         0         0         0         0         0         0         0         0
         0         0         0         0         0         0         0         0
         0         0         0         0         0         0         0         0
         0         0         0         0         0         0         0         0
         0         0         0         0         0         0         0         0
         0         0         0         0         0         0         0         0
         0         0         0         0         0         0         0         0
         0         0         0         0         0         0         0         0
         0         0         0         0         0         0         0         0
         0         0         0         0         0         0         0         0
         0         0         0         0         0         0         0         0
         0         0         0         0         0         0         0         0
         0         0         0         0         0         0         0         0
         0         0         0         0         0         0         0         0
         0         0         0         0         0         0         0         0
         0         0         0         0         0         0         0         0
         0         0         0         0         0         0         0         0
         0         0         0         0         0         0         0         0
         0         0         0         0         0         0         0         0
         0         0         0         0         0         0         0         0
         0         0         0         0         0         0         0         0
         0         0         0         0         0         0         0         0
         0         0         0         0         0         0         0         0
         0         0         0         0         0         0         0         0
         0         0         0         0         0         0         0         0
         0         0         0         0         0         0         0         0
         0         0         0         0         0         0         0         0
         0         0         0         0         0         0         0         0
         0         0         0         0         0         0         0         0
         0         0         0         0         0         0         0         0
         0         0         0         0         0         0         0         0
         0         0         0         0         0         0         0         0
         0         0         0         0         0         0         0         0
         0         0         0         0         0         0         0         0
         0         0         0         0         0         0         0         0
         0         0         0         0         0         0         0         0
         0         0         0         0         0         0         0         0
         0         0         0         0         0         0         0         0
         0         0         0         0         0         0         0         0
         0         0         0         0         0         0         0         0
         0         0         0         0         0         0         0         0
         0         0         0         0         0         0         0         0
         0         0         0         0         0         0         0         0
         0         0         0         0         0         0         0         0
         0         0         0         0         0         0         0         0
         0         0         0         0         0         0         0         0
         0         0         0         0         0         0         0         0
         0         0         0         0         0         0         0         0
         0         0         0         0         0         0         0         0
         0         0         0         0         0         0         0         0
         0         0         0         0         0         0         0         0
         0         0         0         0         0         0         0         0
         0         0         0         0         0         0         0         0
         0         0         0         0         0         0         0         0
         0         0         0         0         0         0         0         0
         0         0         0         0         0         0         0         0
         0         0         0         0         0         0         0         0
         0         0         0         0         0         0         0         0
         0         0         0         0         0         0         0         0
         0         0         0         0         0         0         0         0
         0         0         0         0         0         0         0         0
         0         0         0         0         0         0         0         0
         0         0         0         0         0         0         0         0
         0         0         0         0         0         0         0         0
         0         0         0         0         0         0         0         0
         0         0         0         0         0         0         0         0
         0         0         0         0         0         0         0         0
         0         0         0         0         0         0         0         0
         0         0         0         0         0         0         0         0
         0         0         0         0         0         0         0         0
         0         0         0         0         0         0         0         0
         0         0         0         0         0         0         0         0
         0         0         0         0         0         0         0         0
         0         0         0         0         0         0         0         0
         0         0         0         0         0         0         0         0
         0         0         0         0         0         0         0         0
         0         0         0         0         0         0         0         0
         0         0         0         0         0         0         0         0
         0         0         0         0         0         0         0         0
         0         0         0         0         0         0         0         0
         0         0         0         0         0         0         0         0
         0         0         0         0         0         0         0         0
         0         0         0         0         0         0         0         0
         0         0         0         0         0         0         0         0
         0         0         0         0         0         0         0         0
         0         0         0         0         0         0         0         0
         0         0         0         0         0         0         0         0
         0         0         0         0         0         0         0         0
         0         0         0         0         0         0         0         0
         0         0         0         0         0         0         0         0
         0         0         0         0         0         0         0         0
         0         0         0         0         0         0         0         0
         0         0         0         0         0         0         0         0
         0         0         0         0         0         0         0         0
         0         0         0         0         0         0         0         0
         0         0         0         0         0         0         0         0
         0         0         0         0         0         0         0         0
         0         0         0         0         0         0         0         0
         0         0         0         0         0         0         0         0
         0         0         0         0         0         0         0         0
         0         0         0         0         0         0         0         0
         0         0         0         0         0         0         0         0
         0         0         0         0         0         0         0         0
         0         0         0         0         0         0         0         0
         0         0         0         0         0         0         0         0
         0         0         0         0         0         0         0         0
         0         0         0         0         0         0         0         0
         0         0         0         0         0         0         0         0
         0         0         0         0         0         0         0         0
         0         0         0         0         0         0         0         0
         0         0         0         0         0         0         0         0
         0         0         0         0         0         0         0         0
         0         0         0         0         0         0         0         0
         0         0         0         0         0         0         0         0
         0         0         0         0         0         0         0         0
         0         0         0         0         0         0         0         0
         0         0         0         0         0         0         0         0
         0         0         0         0         0         0         0         0
         0         0         0         0         0         0         0         0
         0         0         0         0         0         0         0         0
         0         0         0         0         0         0         0         0
         0         0         0         0         0         0         0         0
         0         0         0         0         0         0         0         0
         0         0         0         0         0         0         0         0
         0         0         0         0         0         0         0         0
         0         0         0         0         0         0         0         0
         0         0         0         0         0         0         0         0
         0         0         0         0         0         0         0         0
         0         0         0         0         0         0         0         0
         0         0         0         0         0         0         0         0
         0         0         0         0         0         0         0         0
         0         0         0         0         0         0         0         0
         0         0         0         0         0         0         0         0
         0         0         0         0         0         0         0         0
         0         0         0         0         0         0         0         0
         0         0         0         0         0         0         0         0
         0         0         0         0         0         0         0         0
         0         0         0         0         0         0         0         0
         0         0         0         0         0         0         0         0
         0         0         0         0         0         0         0         0
         0         0         0         0         0         0         0         0
         0         0         0         0         0         0         0         0
         0         0         0         0         0         0         0         0
         0         0         0         0         0         0         0         0
         0         0         0         0         0         0         0         0
         0         0         0         0         0         0         0         0
         0         0         0         0         0         0         0         0
         0         0         0         0         0         0         0         0
         0         0         0         0         0         0         0         0
         0         0         0         0         0         0         0         0
         0         0         0         0         0         0         0         0
         0         0         0         0         0         0         0         0
         0         0         0         0         0         0         0         0
         0         0         0         0         0         0         0         0
         0         0         0         0         0         0         0         0
         0         0         0         0         0         0         0         0
         0         0         0         0         0         0         0         0
         0         0         0         0         0         0         0         0
         0         0         0         0         0         0         0         0
         0         0         0         0         0         0         0         0
         0         0         0         0         0         0         0         0
         0         0         0         0         0         0         0         0
         0         0         0         0         0         0         0         0
         0         0         0         0         0         0         0         0
         0         0         0         0         0         0         0         0
         0         0         0         0         0         0         0         0
         0         0         0         0         0         0         0         0
         0         0         0         0         0         0         0         0
         0         0         0         0         0         0         0         0
         0         0         0         0         0         0         0         0
         0         0         0         0         0         0         0         0
         0         0         0         0         0         0         0         0
         0         0         0         0         0         0         0         0
         0         0         0         0         0         0         0         0
         0         0         0         0         0         0         0         0
         0         0         0         0         0         0         0         0
         0         0         0         0         0         0         0         0
         0         0         0         0         0         0         0         0
         0         0         0         0         0         0         0         0
         0         0         0         0         0         0         0         0
         0         0         0         0         0         0         0         0
         0         0         0         0         0         0         0         0
         0         0         0         0         0         0         0         0
         0         0         0         0         0         0         0         0
         0         0         0         0         0         0         0         0
         0         0         0         0         0         0         0         0
         0         0         0         0         0         0         0         0
         0         0         0         0         0         0         0         0
         0         0         0         0         0         0         0         0
         0         0         0         0         0         0         0         0
         0         0         0         0         0         0         0         0
         0         0         0         0         0         0         0         0
         0         0         0         0         0         0         0         0
         0         0         0         0         0         0         0         0
         0         0         0         0         0         0         0         0
         0         0         0         0         0         0         0         0
         0         0         0         0         0         0         0         0
         0         0         0         0         0         0         0         0
         0         0         0         0         0         0         0         0
         0         0         0         0         0         0         0         0
         0         0         0         0         0         0         0         0
         0         0         0         0         0         0         0         0
         0         0         0         0         0         0         0         0
         0         0         0         0         0         0         0         0
         0         0         0         0         0         0         0         0
         0         0         0         0         0         0         0         0
         0         0         0         0         0         0         0         0
         0         0         0         0         0         0         0         0
         0         0         0         0         0         0         0         0
         0         0         0         0         0         0         0         0
         0         0         0         0         0         0         0         0
         0         0         0         0         0         0         0         0
         0         0         0         0         0         0         0         0
         0         0         0         0         0         0         0         0
         0         0         0         0         0         0         0         0
         0         0         0         0         0         0         0         0
         0         0         0         0         0         0         0         0
         0         0         0         0         0         0         0         0
         0         0         0         0         0         0         0         0
         0         0         0         0         0         0         0         0
         0         0         0         0         0         0         0         0
         0         0         0         0         0         0         0         0
         0         0         0         0         0         0         0         0
         0         0         0         0         0         0         0         0
         0         0         0         0         0         0         0         0
         0         0         0         0         0         0         0         0
         0         0         0         0         0         0         0         0
         0         0         0         0         0         0         0         0
         0         0         0         0         0         0         0         0
         0         0         0         0         0         0         0         0
         0         0         0         0         0         0         0         0
         0         0         0         0         0         0         0         0
         0         0         0         0         0         0         0         0
         0         0         0         0         0         0         0         0
         0         0         0         0         0         0         0         0
         0         0         0         0         0         0         0         0
         0         0         0         0         0         0         0         0
         0         0         0         0         0         0         0         0
         0         0         0         0         0         0         0         0
         0         0         0         0         0         0         0         0
         0         0         0         0         0         0         0         0
         0         0         0         0         0         0         0         0
         0         0         0         0         0         0         0         0
         0         0         0         0         0         0         0         0
         0         0         0         0         0         0         0         0
         0         0         0         0         0         0         0         0
         0         0         0         0         0         0         0         0
         0         0         0         0         0         0         0         0
         0         0         0         0         0         0         0         0
         0         0         0         0         0         0         0         0
         0         0         0         0         0         0         0         0
         0         0         0         0         0         0         0         0
         0         0         0         0         0         0         0         0
         0         0         0         0         0         0         0         0
         0         0         0         0         0         0         0         0
         0         0         0         0         0         0         0         0
         0         0         0         0         0         0         0         0
         0         0         0         0         0         0         0         0
         0         0         0         0         0         0         0         0
         0         0         0         0         0         0         0         0
         0         0         0         0         0         0         0         0
         0         0         0         0         0         0         0         0
         0         0         0         0         0         0         0         0
         0         0         0         0         0         0         0         0
         0         0         0         0         0         0         0         0
         0         0         0         0         0         0         0         0
         0         0         0         0         0         0         0         0
         0         0         0         0         0         0         0         0
         0         0         0         0         0         0         0         0
         0         0         0         0         0         0         0         0
         0         0         0         0         0         0         0         0
         0         0         0         0         0         0         0         0
         0         0         0         0         0         0         0         0
         0         0         0         0         0         0         0         0
         0         0         0         0         0         0         0         0
         0         0         0         0         0         0         0         0
         0         0         0         0         0         0         0         0
         0         0         0         0         0         0         0         0
         0         0         0         0         0         0         0         0
         0         0         0         0         0         0         0         0
         0         0         0         0         0         0         0         0
         0         0         0         0         0         0         0         0
         0         0         0         0         0         0         0         0
         0         0         0         0         0         0         0         0
         0         0         0         0         0         0         0         0
         0         0         0         0         0         0         0         0
         0         0         0         0         0         0         0         0
         0         0         0         0         0         0         0         0
         0         0         0         0         0         0         0         0
         0         0         0         0         0         0         0         0
         0         0         0         0         0         0         0         0
         0         0         0         0         0         0         0         0
         0         0         0         0         0         0         0         0
         0         0         0         0         0         0         0         0
         0         0         0         0         0         0         0         0
         0         0         0         0         0         0         0         0
         0         0         0         0         0         0         0         0
         0         0         0         0         0         0         0         0
         0         0         0         0         0         0         0         0
         0         0         0         0         0         0         0         0
         0         0         0         0         0         0         0         0
         0         0         0         0         0         0         0         0
         0         0         0         0         0         0         0         0
         0         0         0         0         0         0         0         0
         0         0         0         0         0         0         0         0
         0         0         0         0         0         0         0         0
         0         0         0         0         0         0         0         0
         0         0         0         0         0         0         0         0
         0         0         0         0         0         0         0         0
         0         0         0         0         0         0         0         0
         0         0         0         0         0         0         0         0
         0         0         0         0         0         0         0         0
         0         0         0         0         0         0         0         0
         0         0         0         0         0         0         0         0
         0         0         0         0         0         0         0         0
         0         0         0         0         0         0         0         0
         0         0         0         0         0         0         0         0
         0         0         0         0         0         0         0         0
         0         0         0         0         0         0         0         0
         0         0         0         0         0         0         0         0
         0         0         0         0         0         0         0         0
         0         0         0         0         0         0         0         0
         0         0         0         0         0         0         0         0
         0         0         0         0         0         0         0         0
         0         0         0         0         0         0         0         0
         0         0         0         0         0         0         0         0
         0         0         0         0         0         0         0         0
         0         0         0         0         0         0         0         0
         0         0         0         0         0         0         0         0
         0         0         0         0         0         0         0         0
         0         0         0         0         0         0         0         0
         0         0         0         0         0         0         0         0
         0         0         0         0         0         0         0         0
         0         0         0         0         0         0         0         0
         0         0         0         0         0         0         0         0
         0         0         0         0         0         0         0         0
         0         0         0         0         0         0         0         0
         0         0         0         0         0         0         0         0
         0         0         0         0         0         0         0         0
         0         0         0         0         0         0         0         0
         0         0         0         0         0         0         0         0
         0         0         0         0         0         0         0         0
         0         0         0         0         0         0         0         0
         0         0         0         0         0         0         0         0
         0         0         0         0         0         0         0         0
         0         0         0         0         0         0         0         0
         0         0         0         0         0         0         0         0
         0         0         0         0         0         0         0         0
         0         0         0         0         0         0         0         0
         0         0         0         0         0         0         0         0
         0         0         0         0         0         0         0         0
         0         0         0         0         0         0         0         0
         0         0         0         0         0         0         0         0
         0         0         0         0         0         0         0         0
         0         0         0         0         0         0         0         0
         0         0         0         0         0         0         0         0
         0         0         0         0         0         0         0         0
         0         0         0         0         0         0         0         0
         0         0         0         0         0         0         0         0
         0         0         0         0         0         0         0         0
         0         0         0         0         0         0         0         0
         0         0         0         0         0         0         0         0
         0         0         0         0         0         0         0         0
         0         0         0         0         0         0         0         0
         0         0         0         0         0         0         0         0
         0         0         0         0         0         0         0         0
         0         0         0         0         0         0         0         0
         0         0         0         0         0         0         0         0
         0         0         0         0         0         0         0         0
         0         0         0         0         0         0         0         0
         0         0         0         0         0         0         0         0
         0         0         0         0         0         0         0         0
         0         0         0         0         0         0         0         0
         0         0         0         0         0         0         0         0
         0         0         0         0         0         0         0         0
         0         0         0         0         0         0         0         0
         0         0         0         0         0         0         0         0
         0         0         0         0         0         0         0         0
         0         0         0         0         0         0         0         0
         0         0         0         0         0         0         0         0
         0         0         0         0         0         0         0         0
         0         0         0         0         0         0         0         0
         0         0         0         0         0         0         0         0
         0         0         0         0         0         0         0         0
         0         0         0         0         0         0         0         0
         0         0         0         0         0         0         0         0
         0         0         0         0         0         0         0         0
         0         0         0         0         0         0         0         0
         0         0         0         0         0         0         0         0
         0         0         0         0         0         0         0         0
         0         0         0         0         0         0         0         0
         0         0         0         0         0         0         0         0
         0         0         0         0         0         0         0         0
         0         0         0         0         0         0         0         0
         0         0         0         0         0         0         0         0
         0         0         0         0         0         0         0         0
         0         0         0         0         0         0         0         0
         0         0         0         0         0         0         0         0
         0         0         0         0         0         0         0         0
         0         0         0         0         0         0         0         0
         0         0         0         0         0         0         0         0
         0         0         0         0         0         0         0         0
         0         0         0         0         0         0         0         0
         0         0         0         0         0         0         0         0
         0         0         0         0         0         0         0         0
         0         0         0         0         0         0         0         0
         0         0         0         0         0         0         0         0
         0         0         0         0         0         0         0         0
         0         0         0         0         0         0         0         0
         0         0         0         0         0         0         0         0
         0         0         0         0         0         0         0         0
         0         0         0         0         0         0         0         0
         0         0         0         0         0         0         0         0
         0         0         0         0         0         0         0         0
         0         0         0         0         0         0         0         0
         0         0         0         0         0         0         0         0
         0         0         0         0         0         0         0         0
         0         0         0         0         0         0         0         0
         0         0         0         0         0         0         0         0
         0         0         0         0         0         0         0         0
         0         0         0         0         0         0         0         0
         0         0         0         0         0         0         0         0
         0         0         0         0         0         0         0         0
         0         0         0         0         0         0         0         0
         0         0         0         0         0         0         0         0
         0         0         0         0         0         0         0         0
         0         0         0         0         0         0         0         0
         0         0         0         0         0         0         0         0
         0         0         0         0         0         0         0         0
         0         0         0         0         0         0         0         0
         0         0         0         0         0         0         0         0
         0         0         0         0         0         0         0         0
         0         0         0         0         0         0         0         0
         0         0         0         0         0         0         0         0
         0         0         0         0         0         0         0         0
         0         0         0         0         0         0         0         0
         0         0         0         0         0         0         0         0
         0         0         0         0         0         0         0         0
         0         0         0         0         0         0         0         0
         0         0         0         0         0         0         0         0
         0         0         0         0         0         0         0         0
         0         0         0         0         0         0         0         0
         0         0         0         0         0         0         0         0
         0         0         0         0         0         0         0         0
         0         0         0         0         0         0         0         0
         0         0         0         0         0         0         0         0
         0         0         0         0         0         0         0         0
         0         0         0         0         0         0         0         0
         0         0         0         0         0         0         0         0
         0         0         0         0         0         0         0         0
         0         0         0         0         0         0         0         0
         0         0         0         0         0         0         0         0
         0         0         0         0         0         0         0         0
         0         0         0         0         0         0         0         0
         0         0         0         0         0         0         0         0
         0         0         0         0         0         0         0         0
         0         0         0         0         0         0         0         0
         0         0         0         0         0         0         0         0
         0         0         0         0         0         0         0         0
         0         0         0         0         0         0         0         0
         0         0         0         0         0         0         0         0
         0         0         0         0         0         0         0         0
         0         0         0         0         0         0         0         0
         0         0         0         0         0         0         0         0
         0         0         0         0         0         0         0         0
         0         0         0         0         0         0         0         0
         0         0         0         0         0         0         0         0
         0         0         0         0         0         0         0         0
         0         0         0         0         0         0         0         0
         0         0         0         0         0         0         0         0
         0         0         0         0         0         0         0         0
         0         0         0         0         0         0         0         0
         0         0         0         0         0         0         0         0
         0         0         0         0         0         0         0         0
         0         0         0         0         0         0         0         0
         0         0         0         0         0         0         0         0
         0         0         0         0         0         0         0         0
         0         0         0         0         0         0         0         0
         0         0         0         0         0         0         0         0
         0         0         0         0         0         0         0         0
         0         0         0         0         0         0         0         0
         0         0         0         0         0         0         0         0
         0         0         0         0         0         0         0         0
         0         0         0         0         0         0         0         0
         0         0         0         0         0         0         0         0
         0         0         0         0         0         0         0         0
         0         0         0         0         0         0         0         0
         0         0         0         0         0         0         0         0
         0         0         0         0         0         0         0         0
         0         0         0         0         0         0         0         0
         0         0         0         0         0         0         0         0
         0         0         0         0         0         0         0         0
         0         0         0         0         0         0         0         0
         0         0         0         0         0         0         0         0
         0         0         0         0         0         0         0         0
         0         0         0         0         0         0         0         0
         0         0         0         0         0         0         0         0
         0         0         0         0         0         0         0         0
         0         0         0         0         0         0         0         0
         0         0         0         0         0         0         0         0
         0         0         0         0         0         0         0         0
         0         0         0         0         0         0         0         0
         0         0         0         0         0         0         0         0
         0         0         0         0         0         0         0         0
         0         0         0         0         0         0         0         0
         0         0         0         0         0         0         0         0
         0         0         0         0         0         0         0         0
         0         0         0         0         0         0         0         0
         0         0         0         0         0         0         0         0
         0         0         0         0         0         0         0         0
         0         0         0         0         0         0         0         0
         0         0         0         0         0         0         0         0
         0         0         0         0         0         0         0         0
         0         0         0         0         0         0         0         0
         0         0         0         0         0         0         0         0
         0         0         0         0         0         0         0         0
         0         0         0         0         0         0         0         0
         0         0         0         0         0         0         0         0
         0         0         0         0         0         0         0         0
         0         0         0         0         0         0         0         0
         0         0         0         0         0         0         0         0
         0         0         0         0         0         0         0         0
         0         0         0         0         0         0         0         0
         0         0         0         0         0         0         0         0
         0         0         0         0         0         0         0         0
         0         0         0         0         0         0         0         0
         0         0         0         0         0         0         0         0
         0         0         0         0         0         0         0         0
         0         0         0         0         0         0         0         0
         0         0         0         0         0         0         0         0
         0         0         0         0         0         0         0         0
         0         0         0         0         0         0         0         0
         0         0         0         0         0         0         0         0
         0         0         0         0         0         0         0         0
         0         0         0         0         0         0         0         0
         0         0         0         0         0         0         0         0
         0         0         0         0         0         0         0         0
         0         0         0         0         0         0         0         0
         0         0         0         0         0         0         0         0
         0         0         0         0         0         0         0         0
         0         0         0         0         0         0         0         0
         0         0         0         0         0         0         0         0
         0         0         0         0         0         0         0         0
         0         0         0         0         0         0         0         0
         0         0         0         0         0         0         0         0
         0         0         0         0         0         0         0         0
         0         0         0         0         0         0         0         0
         0         0         0         0         0         0         0         0
         0         0         0         0         0         0         0         0
         0         0         0         0         0         0         0         0
         0         0         0         0         0         0         0         0
         0         0         0         0         0         0         0         0
         0         0         0         0         0         0         0         0
         0         0         0         0         0         0         0         0
         0         0         0         0         0         0         0         0
         0         0         0         0         0         0         0         0
         0         0         0         0         0         0         0         0
         0         0         0         0         0         0         0         0
         0         0         0         0         0         0         0         0
         0         0         0         0         0         0         0         0
         0         0         0         0         0         0         0         0
         0         0         0         0         0         0         0         0
         0         0         0         0         0         0         0         0
         0         0         0         0         0         0         0         0
         0         0         0         0         0         0         0         0
         0         0         0         0         0         0         0         0
         0         0         0         0         0         0         0         0
         0         0         0         0         0         0         0         0
         0         0         0         0         0         0         0         0
         0         0         0         0         0         0         0         0
         0         0         0         0         0         0         0         0
         0         0         0         0         0         0         0         0
         0         0         0         0         0         0         0         0
         0         0         0         0         0         0         0         0
         0         0         0         0         0         0         0         0
         0         0         0         0         0         0         0         0
         0         0         0         0         0         0         0         0
         0         0         0         0         0         0         0         0
         0         0         0         0         0         0         0         0
         0         0         0         0         0         0         0         0
         0         0         0         0         0         0         0         0
         0         0         0         0         0         0         0         0
         0         0         0         0         0         0         0         0
         0         0         0         0         0         0         0         0
         0         0         0         0         0         0         0         0
         0         0         0         0         0         0         0         0
         0         0         0         0         0         0         0         0
         0         0         0         0         0         0         0         0
         0         0         0         0         0         0         0         0
         0         0         0         0         0         0         0         0
         0         0         0         0         0         0         0         0
         0         0         0         0         0         0         0         0
         0         0         0         0         0         0         0         0
         0         0         0         0         0         0         0         0
         0         0         0         0         0         0         0         0
         0         0         0         0         0         0         0         0
         0         0         0         0         0         0         0         0
         0         0         0         0         0         0         0         0
         0         0         0         0         0         0         0         0
         0         0         0         0         0         0         0         0
         0         0         0         0         0         0         0         0
         0         0         0         0         0         0         0         0
         0         0         0         0         0         0         0         0
         0         0         0         0         0         0         0         0
         0         0         0         0         0         0         0         0
         0         0         0         0         0         0         0         0
         0         0         0         0         0         0         0         0
         0         0         0         0         0         0         0         0
         0         0         0         0         0         0         0         0
         0         0         0         0         0         0         0         0
         0         0         0         0         0         0         0         0
         0         0         0         0         0         0         0         0
         0         0         0         0         0         0         0         0
         0         0         0         0         0         0         0         0
         0         0         0         0         0         0         0         0
         0         0         0         0         0         0         0         0
         0         0         0         0         0         0         0         0
         0         0         0         0         0         0         0         0
         0         0         0         0         0         0         0         0
         0         0         0         0         0         0         0         0
         0         0         0         0         0         0         0         0
         0         0         0         0         0         0         0         0
         0         0         0         0         0         0         0         0
         0         0         0         0         0         0         0         0
         0         0         0         0         0         0         0         0
         0         0         0         0         0         0         0         0
         0         0         0         0         0         0         0         0
         0         0         0         0         0         0         0         0
         0         0         0         0         0         0         0         0
         0         0         0         0         0         0         0         0
         0         0         0         0         0         0         0         0
         0         0         0         0         0         0         0         0
         0         0         0         0         0         0         0         0
         0         0         0         0         0         0         0         0
         0         0         0         0         0         0         0         0
         0         0         0         0         0         0         0         0
         0         0         0         0         0         0         0         0
         0         0         0         0         0         0         0         0
         0         0         0         0         0         0         0         0
         0         0         0         0         0         0         0         0
         0         0         0         0         0         0         0         0
         0         0         0         0         0         0         0         0
         0         0         0         0         0         0         0         0
         0         0         0         0         0         0         0         0
         0         0         0         0         0         0         0         0
         0         0         0         0         0         0         0         0
         0         0         0         0         0         0         0         0
         0         0         0         0         0         0         0         0
         0         0         0         0         0         0         0         0
         0         0         0         0         0         0         0         0
         0         0         0         0         0         0         0         0
         0         0         0         0         0         0         0         0
         0         0         0         0         0         0         0         0
         0         0         0         0         0         0         0         0
         0         0         0         0         0         0         0         0
         0         0         0         0         0         0         0         0
         0         0         0         0         0         0         0         0
         0         0         0         0         0         0         0         0
         0         0         0         0         0         0         0         0
         0         0         0         0         0         0         0         0
         0         0         0         0         0         0         0         0
         0         0         0         0         0         0         0         0
         0         0         0         0         0         0         0         0
         0         0         0         0         0         0         0         0
         0         0         0         0         0         0         0         0
         0         0         0         0         0         0         0         0
         0         0         0         0         0         0         0         0
         0         0         0         0         0         0         0         0
         0         0         0         0         0         0         0         0
         0         0         0         0         0         0         0         0
         0         0         0         0         0         0         0         0
         0         0         0         0         0         0         0         0
         0         0         0         0         0         0         0         0
         0         0         0         0         0         0         0         0
         0         0         0         0         0         0         0         0
         0         0         0         0         0         0         0         0
         0         0         0         0         0         0         0         0
         0         0         0         0         0         0         0         0
         0         0         0         0         0         0         0         0
         0         0         0         0         0         0         0         0
         0         0         0         0         0         0         0         0
         0         0         0         0         0         0         0         0
         0         0         0         0         0         0         0         0
         0         0         0         0         0         0         0         0
         0         0         0         0         0         0         0         0
         0         0         0         0         0         0         0         0
         0         0         0         0         0         0         0         0
         0         0         0         0         0         0         0         0
         0         0         0         0         0         0         0         0
         0         0         0         0         0         0         0         0
         0         0         0         0         0         0         0         0
         0         0         0         0         0         0         0         0
         0         0         0         0         0         0         0         0
         0         0         0         0         0         0         0         0
         0         0         0         0         0         0         0         0
         0         0         0         0         0         0         0         0
         0         0         0         0         0         0         0         0
         0         0         0         0         0         0         0         0
         0         0         0         0         0         0         0         0
         0         0         0         0         0         0         0         0
         0         0         0         0         0         0         0         0
         0         0         0         0         0         0         0         0
         0         0         0         0         0         0         0         0
         0         0         0         0         0         0         0         0
         0         0         0         0         0         0         0         0
         0         0         0         0         0         0         0         0
         0         0         0         0         0         0         0         0
         0         0         0         0         0         0         0         0
         0         0         0         0         0         0         0         0
         0         0         0         0         0         0         0         0
         0         0         0         0         0         0         0         0
         0         0         0         0         0         0         0         0
         0         0         0         0         0         0         0         0
         0         0         0         0         0         0         0         0
         0         0         0         0         0         0         0         0
         0         0         0         0         0         0         0         0
         0         0         0         0         0         0         0         0
         0         0         0         0         0         0         0         0
         0         0         0         0         0         0         0         0
         0         0         0         0         0         0         0         0
         0         0         0         0         0         0         0         0
         0         0         0         0         0         0         0         0
         0         0         0         0         0         0         0         0
         0         0         0         0         0         0         0         0
         0         0         0         0         0         0         0         0
         0         0         0         0         0         0         0         0
         0         0         0         0         0         0         0         0
         0         0         0         0         0         0         0         0
         0         0         0         0         0         0         0         0
         0         0         0         0         0         0         0         0
         0         0         0         0         0         0         0         0
         0         0         0         0         0         0         0         0
         0         0         0         0         0         0         0         0
         0         0         0         0         0         0         0         0
         0         0         0         0         0         0         0         0
         0         0         0         0         0         0         0         0
         0         0         0         0         0         0         0         0
         0         0         0         0         0         0         0         0
         0         0         0         0         0         0         0         0
         0         0         0         0         0         0         0         0
         0         0         0         0         0         0         0         0
         0         0         0         0         0         0         0         0
         0         0         0         0         0         0         0         0
         0         0         0         0         0         0         0         0
         0         0         0         0         0         0         0         0
         0         0         0         0         0         0         0         0
         0         0         0         0         0         0         0         0
         0         0         0         0         0         0         0         0
         0         0         0         0         0         0         0         0
         0         0         0         0         0         0         0         0
         0         0         0         0         0         0         0         0
         0         0         0         0         0         0         0         0
         0         0         0         0         0         0         0         0
         0         0         0         0         0         0         0         0
         0         0         0         0         0         0         0         0
         0         0         0         0         0         0         0         0
         0         0         0         0         0         0         0         0
         0         0         0         0         0         0         0         0
         0         0         0         0         0         0         0         0
         0         0         0         0         0         0         0         0
         0         0         0         0         0         0         0         0
         0         0         0         0         0         0         0         0
         0         0         0         0         0         0         0         0
         0         0         0         0         0         0         0         0
         0         0         0         0         0         0         0         0
         0         0         0         0         0         0         0         0
         0         0         0         0         0         0         0         0
         0         0         0         0         0         0         0         0
         0         0         0         0         0         0         0         0
         0         0         0         0         0         0         0         0
         0         0         0         0         0         0         0         0
         0         0         0         0         0         0         0         0
         0         0         0         0         0         0         0         0
         0         0         0         0         0         0         0         0
         0         0         0         0         0         0         0         0
         0         0         0         0         0         0         0         0
         0         0         0         0         0         0         0         0
         0         0         0         0         0         0         0         0
         0         0         0         0         0         0         0         0
         0         0         0         0         0         0         0         0
         0         0         0         0         0         0         0         0
         0         0         0         0         0         0         0         0
         0         0         0         0         0         0         0         0
         0         0         0         0         0         0         0         0
         0         0         0         0         0         0         0         0
         0         0         0         0         0         0         0         0
         0         0         0         0         0         0         0         0
         0         0         0         0         0         0         0         0
         0         0         0         0         0         0         0         0
         0         0         0         0         0         0         0         0
         0         0         0         0         0         0         0         0
         0         0         0         0         0         0         0         0
         0         0         0         0         0         0         0         0
         0         0         0         0         0         0         0         0
         0         0         0         0         0         0         0         0
         0         0         0         0         0         0         0         0
         0         0         0         0         0         0         0         0
         0         0         0         0         0         0         0         0
         0         0         0         0         0         0         0         0
         0         0         0         0         0         0         0         0
         0         0         0         0         0         0         0         0
         0         0         0         0         0         0         0         0
         0         0         0         0         0         0         0         0
         0         0         0         0         0         0         0         0
         0         0         0         0         0         0         0         0
         0         0         0         0         0         0         0         0
         0         0         0         0         0         0         0         0
         0         0         0         0         0         0         0         0
         0         0         0         0         0         0         0         0
         0         0         0         0         0         0         0         0
         0         0         0         0         0         0         0         0
         0         0         0         0         0         0         0         0
         0         0         0         0         0         0         0         0
         0         0         0         0         0         0         0         0
         0         0         0         0         0         0         0         0
         0         0         0         0         0         0         0         0
         0         0         0         0         0         0         0         0
         0         0         0         0         0         0         0         0
         0         0         0         0         0         0         0         0
         0         0         0         0         0         0         0         0
         0         0         0         0         0         0         0         0
         0         0         0         0         0         0         0         0
         0         0         0         0         0         0         0         0
         0         0         0         0         0         0         0         0
         0         0         0         0         0         0         0         0
         0         0         0         0         0         0         0         0
         0         0         0         0         0         0         0         0
         0         0         0         0         0         0         0         0
         0         0         0         0         0         0         0         0
         0         0         0         0         0         0         0         0
         0         0         0         0         0         0         0         0
         0         0         0         0         0         0         0         0
         0         0         0         0         0         0         0         0
         0         0         0         0         0         0         0         0
         0         0         0         0         0         0         0         0
         0         0         0         0         0         0         0         0
         0         0         0         0         0         0         0         0
         0         0         0         0         0         0         0         0
         0         0         0         0         0         0         0         0
         0         0         0         0         0         0         0         0
         0         0         0         0         0         0         0         0
         0         0         0         0         0         0         0         0
         0         0         0         0         0         0         0         0
         0         0         0         0         0         0         0         0
         0         0         0         0         0         0         0         0
         0         0         0         0         0         0         0         0
         0         0         0         0         0         0         0         0
         0         0         0         0         0         0         0         0
         0         0         0         0         0         0         0         0
         0         0         0         0         0         0         0         0
         0         0         0         0         0         0         0         0
         0         0         0         0         0         0         0         0
         0         0         0         0         0         0         0         0
         0         0         0         0         0         0         0         0
         0         0         0         0         0         0         0         0
         0         0         0         0         0         0         0         0
         0         0         0         0         0         0         0         0
         0         0         0         0         0         0         0         0
         0         0         0         0         0         0         0         0
         0         0         0         0         0         0         0         0
         0         0         0         0         0         0         0         0
         0         0         0         0         0         0         0         0
         0         0         0         0         0         0         0         0
         0         0         0         0         0         0         0         0
         0         0         0         0         0         0         0         0
         0         0         0         0         0         0         0         0
         0         0         0         0         0         0         0         0
         0         0         0         0         0         0         0         0
         0         0         0         0         0         0         0         0
         0         0         0         0         0         0         0         0
         0         0         0         0         0         0         0         0
         0         0         0         0         0         0         0         0
         0         0         0         0         0         0         0         0
         0         0         0         0         0         0         0         0
         0         0         0         0         0         0         0         0
         0         0         0         0         0         0         0         0
         0         0         0         0         0         0         0         0
         0         0         0         0         0         0         0         0
         0         0         0         0         0         0         0         0
         0         0         0         0         0         0         0         0
         0         0         0         0         0         0         0         0
         0         0         0         0         0         0         0         0
         0         0         0         0         0         0         0         0
         0         0         0         0         0         0         0         0
         0         0         0         0         0         0         0         0
         0         0         0         0         0         0         0         0
         0         0         0         0         0         0         0         0
         0         0         0         0         0         0         0         0
         0         0         0         0         0         0         0         0
         0         0         0         0         0         0         0         0
         0         0         0         0         0         0         0         0
         0         0         0         0         0         0         0         0
         0         0         0         0         0         0         0         0
         0         0         0         0         0         0         0         0
         0         0         0         0         0         0         0         0
         0         0         0         0         0         0         0         0
         0         0         0         0         0         0         0         0
         0         0         0         0         0         0         0         0
         0         0         0         0         0         0         0         0
         0         0         0         0         0         0         0         0
         0         0         0         0         0         0         0         0
         0         0         0         0         0         0         0         0
         0         0         0         0         0         0         0         0
         0         0         0         0         0         0         0         0
         0         0         0         0         0         0         0         0
         0         0         0         0         0         0         0         0
         0         0         0         0         0         0         0         0
         0         0         0         0         0         0         0         0
         0         0         0         0         0         0         0         0
         0         0         0         0         0         0         0         0
         0         0         0         0         0         0         0         0
         0         0         0         0         0         0         0         0
         0         0         0         0         0         0         0         0
         0         0         0         0         0         0         0         0
         0         0         0         0         0         0         0         0
         0         0         0         0         0         0         0         0
         0         0         0         0         0         0         0         0
         0         0         0         0         0         0         0         0
         0         0         0         0         0         0         0         0
         0         0         0         0         0         0         0         0
         0         0         0         0         0         0         0         0
         0         0         0         0         0         0         0         0
         0         0         0         0         0         0         0         0
         0         0         0         0         0         0         0         0
         0         0         0         0         0         0         0         0
         0         0         0         0         0         0         0         0
         0         0         0         0         0         0         0         0
         0         0         0         0         0         0         0         0
         0         0         0         0         0         0         0         0
         0         0         0         0         0         0         0         0
         0         0         0         0         0         0         0         0
         0         0         0         0         0         0         0         0
         0         0         0         0         0         0         0         0
         0         0         0         0         0         0         0         0
         0         0         0         0         0         0         0         0
         0         0         0         0         0         0         0         0
         0         0         0         0         0         0         0         0
         0         0         0         0         0         0         0         0
         0         0         0         0         0         0         0         0
         0         0         0         0         0         0         0         0
         0         0         0         0         0         0         0         0
         0         0         0         0         0         0         0         0
         0         0         0         0         0         0         0         0
         0         0         0         0         0         0         0         0
         0         0         0         0         0         0         0         0
         0         0         0         0         0         0         0         0
         0         0         0         0         0         0         0         0
         0         0         0         0         0         0         0         0
         0         0         0         0         0         0         0         0
         0         0         0         0         0         0         0         0
         0         0         0         0         0         0         0         0
         0         0         0         0         0         0         0         0
         0         0         0         0         0         0         0         0
         0         0         0         0         0         0         0         0
         0         0         0         0         0         0         0         0
         0         0         0         0         0         0         0         0
         0         0         0         0         0         0         0         0
         0         0         0         0         0         0         0         0
         0         0         0         0         0         0         0         0
         0         0         0         0         0         0         0         0
         0         0         0         0         0         0         0         0
         0         0         0         0         0         0         0         0
         0         0         0         0         0         0         0         0
         0         0         0         0         0         0         0         0
         0         0         0         0         0         0         0         0
         0         0         0         0         0         0         0         0
         0         0         0         0         0         0         0         0
         0         0         0         0         0         0         0         0
         0         0         0         0         0         0         0         0
         0         0         0         0         0         0         0         0
         0         0         0         0         0         0         0         0
         0         0         0         0         0         0         0         0
         0         0         0         0         0         0         0         0
         0         0         0         0         0         0         0         0
         0         0         0         0         0         0         0         0
         0         0         0         0         0         0         0         0
         0         0         0         0         0         0         0         0
         0         0         0         0         0         0         0         0
         0         0         0         0         0         0         0         0
         0         0         0         0         0         0         0         0
         0         0         0         0         0         0         0         0
         0         0         0         0         0         0         0         0
         0         0         0         0         0         0         0         0
         0         0         0         0         0         0         0         0
         0         0         0         0         0         0         0         0
         0         0         0         0         0         0         0         0
         0         0         0         0         0         0         0         0
         0         0         0         0         0         0         0         0
         0         0         0         0         0         0         0         0
         0         0         0         0         0         0         0         0
         0         0         0         0         0         0         0         0
         0         0         0         0         0         0         0         0
         0         0         0         0         0         0         0         0
         0         0         0         0         0         0         0         0
         0         0         0         0         0         0         0         0
         0         0         0         0         0         0         0         0
         0         0         0         0         0         0         0         0
         0         0         0         0         0         0         0         0
         0         0         0         0         0         0         0         0
         0         0         0         0         0         0         0         0
         0         0         0         0         0         0         0         0
         0         0         0         0         0         0         0         0
         0         0         0         0         0         0         0         0
         0         0         0         0         0         0         0         0
         0         0         0         0         0         0         0         0
         0         0         0         0         0         0         0         0
         0         0         0         0         0         0         0         0
         0         0         0         0         0         0         0         0
         0         0         0         0         0         0         0         0
         0         0         0         0         0         0         0         0
         0         0         0         0         0         0         0         0
         0         0         0         0         0         0         0         0
         0         0         0         0         0         0         0         0
         0         0         0         0         0         0         0         0
         0         0         0         0         0         0         0         0
         0         0         0         0         0         0         0         0
         0         0         0         0         0         0         0         0
         0         0         0         0         0         0         0         0
         0         0         0         0         0         0         0         0
         0         0         0         0         0         0         0         0
         0         0         0         0         0         0         0         0
         0         0         0         0         0         0         0         0
         0         0         0         0         0         0         0         0
         0         0         0         0         0         0         0         0
         0         0         0         0         0         0         0         0
         0         0         0         0         0         0         0         0
         0         0         0         0         0         0         0         0
         0         0         0         0         0         0         0         0
         0         0         0         0         0         0         0         0
         0         0         0         0         0         0         0         0
         0         0         0         0         0         0         0         0
         0         0         0         0         0         0         0         0
         0         0         0         0         0         0         0         0
         0         0         0         0         0         0         0         0
         0         0         0         0         0         0         0         0
         0         0         0         0         0         0         0         0
         0         0         0         0         0         0         0         0
         0         0         0         0         0         0         0         0
         0         0         0         0         0         0         0         0
         0         0         0         0         0         0         0         0
         0         0         0         0         0         0         0         0
         0         0         0         0         0         0         0         0
         0         0         0         0         0         0         0         0
         0         0         0         0         0         0         0         0
         0         0         0         0         0         0         0         0
         0         0         0         0         0         0         0         0
         0         0         0         0         0         0         0         0
         0         0         0         0         0         0         0         0
         0         0         0         0         0         0         0         0
         0         0         0         0         0         0         0         0
         0         0         0         0         0         0         0         0
         0         0         0         0         0         0         0         0
         0         0         0         0         0         0         0         0
         0         0         0         0         0         0         0         0
         0         0         0         0         0         0         0         0
         0         0         0         0         0         0         0         0
         0         0         0         0         0         0         0         0
         0         0         0         0         0         0         0         0
         0         0         0         0         0         0         0         0
         0         0         0         0         0         0         0         0
         0         0         0         0         0         0         0         0
         0         0         0         0         0         0         0         0
         0         0         0         0         0         0         0         0
         0         0         0         0         0         0         0         0
         0         0         0         0         0         0         0         0
         0         0         0         0         0         0         0         0
         0         0         0         0         0         0         0         0
         0         0         0         0         0         0         0         0
         0         0         0         0         0         0         0         0
         0         0         0         0         0         0         0         0
         0         0         0         0         0         0         0         0
         0         0         0         0         0         0         0         0
         0         0         0         0         0         0         0         0
         0         0         0         0         0         0         0         0
         0         0         0         0         0         0         0         0
         0         0         0         0         0         0         0         0
         0         0         0         0         0         0         0         0
         0         0         0         0         0         0         0         0
         0         0         0         0         0         0         0         0
         0         0         0         0         0         0         0         0
         0         0         0         0         0         0         0         0
         0         0         0         0         0         0         0         0
         0         0         0         0         0         0         0         0
         0         0         0         0         0         0         0         0
         0         0         0         0         0         0         0         0
         0         0         0         0         0         0         0         0
         0         0         0         0         0         0         0         0
         0         0         0         0         0         0         0         0
         0         0         0         0         0         0         0         0
         0         0         0         0         0         0         0         0
         0         0         0         0         0         0         0         0
         0         0         0         0         0         0         0         0
         0         0         0         0         0         0         0         0
         0         0         0         0         0         0         0         0
         0         0         0         0         0         0         0         0
         0         0         0         0         0         0         0         0
         0         0         0         0         0         0         0         0
         0         0         0         0         0         0         0         0
         0         0         0         0         0         0         0         0
         0         0         0         0         0         0         0         0
         0         0         0         0         0         0         0         0
         0         0         0         0         0         0         0         0
         0         0         0         0         0         0         0         0
         0         0         0         0         0         0         0         0
         0         0         0         0         0         0         0         0
         0         0         0         0         0         0         0         0
         0         0         0         0         0         0         0         0
         0         0         0         0         0         0         0         0
         0         0         0         0         0         0         0         0
         0         0         0         0         0         0         0         0
         0         0         0         0         0         0         0         0
         0         0         0         0         0         0         0         0
         0         0         0         0         0         0         0         0
         0         0         0         0         0         0         0         0
         0         0         0         0         0         0         0         0
         0         0         0         0         0         0         0         0
         0         0         0         0         0         0         0         0
         0         0         0         0         0         0         0         0
         0         0         0         0         0         0         0         0
         0         0         0         0         0         0         0         0
         0         0         0         0         0         0         0         0
         0         0         0         0         0         0         0         0
         0         0         0         0         0         0         0         0
         0         0         0         0         0         0         0         0
         0         0         0         0         0         0         0         0
         0         0         0         0         0         0         0         0
         0         0         0         0         0         0         0         0
         0         0         0         0         0         0         0         0
         0         0         0         0         0         0         0         0
         0         0         0         0         0         0         0         0
         0         0         0         0         0         0         0         0
         0         0         0         0         0         0         0         0
         0         0         0         0         0         0         0         0
         0         0         0         0         0         0         0         0
         0         0         0         0         0         0         0         0
         0         0         0         0         0         0         0         0
         0         0         0         0         0         0         0         0
         0         0         0         0         0         0         0         0
         0         0         0         0         0         0         0         0
         0         0         0         0         0         0         0         0
         0         0         0         0         0         0         0         0
         0         0         0         0         0         0         0         0
         0         0         0         0         0         0         0         0
         0         0         0         0         0         0         0         0
         0         0         0         0         0         0         0         0
         0         0         0         0         0         0         0         0
         0         0         0         0         0         0         0         0
         0         0         0         0         0         0         0         0
         0         0         0         0         0         0         0         0
         0         0         0         0         0         0         0         0
         0         0         0         0         0         0         0         0
         0         0         0         0         0         0         0         0
         0         0         0         0         0         0         0         0
         0         0         0         0         0         0         0         0
         0         0         0         0         0         0         0         0
         0         0         0         0         0         0         0         0
         0         0         0         0         0         0         0         0
         0         0         0         0         0         0         0         0
         0         0         0         0         0         0         0         0
         0         0         0         0         0         0         0         0
         0         0         0         0         0         0         0         0
         0         0         0         0         0         0         0         0
         0         0         0         0         0         0         0         0
         0         0         0         0         0         0         0         0
         0         0         0         0         0         0         0         0
         0         0         0         0         0         0         0         0
         0         0         0         0         0         0         0         0
         0         0         0         0         0         0         0         0
         0         0         0         0         0         0         0         0
         0         0         0         0         0         0         0         0
         0         0         0         0         0         0         0         0
         0         0         0         0         0         0         0         0
         0         0         0         0         0         0         0         0
         0         0         0         0         0         0         0         0
         0         0         0         0         0         0         0         0
         0         0         0         0         0         0         0         0
         0         0         0         0         0         0         0         0
         0         0         0         0         0         0         0         0
         0         0         0         0         0         0         0         0
         0         0         0         0         0         0         0         0
         0         0         0         0         0         0         0         0
         0         0         0         0         0         0         0         0
         0         0         0         0         0         0         0         0
         0         0         0         0         0         0         0         0
         0         0         0         0         0         0         0         0
         0         0         0         0         0         0         0         0
         0         0         0         0         0         0         0         0
         0         0         0         0         0         0         0         0
         0         0         0         0         0         0         0         0
         0         0         0         0         0         0         0         0
         0         0         0         0         0         0         0         0
         0         0         0         0         0         0         0         0
         0         0         0         0         0         0         0         0
         0         0         0         0         0         0         0         0
         0         0         0         0         0         0         0         0
         0         0         0         0         0         0         0         0
         0         0         0         0         0         0         0         0
         0         0         0         0         0         0         0         0
         0         0         0         0         0         0         0         0
         0         0         0         0         0         0         0         0
         0         0         0         0         0         0         0         0
         0         0         0         0         0         0         0         0
         0         0         0         0         0         0         0         0
         0         0         0         0         0         0         0         0
         0         0         0         0         0         0         0         0
         0         0         0         0         0         0         0         0
         0         0         0         0         0         0         0         0
         0         0         0         0         0         0         0         0
         0         0         0         0         0         0         0         0
         0         0         0         0         0         0         0         0
         0         0         0         0         0         0         0         0
         0         0         0         0         0         0         0         0
         0         0         0         0         0         0         0         0
         0         0         0         0         0         0         0         0
         0         0         0         0         0         0         0         0
         0         0         0         0         0         0         0         0
         0         0         0         0         0         0         0         0
         0         0         0         0         0         0         0         0
         0         0         0         0         0         0         0         0
         0         0         0         0         0         0         0         0
         0         0         0         0         0         0         0         0
         0         0         0         0         0         0         0         0
         0         0         0         0         0         0         0         0
         0         0         0         0         0         0         0         0
         0         0         0         0         0         0         0         0
         0         0         0         0         0         0         0         0
         0         0         0         0         0         0         0         0
         0         0         0         0         0         0         0         0
         0         0         0         0         0         0         0         0
         0         0         0         0         0         0         0         0
         0         0         0         0         0         0         0         0
         0         0         0         0         0         0         0         0
         0         0         0         0         0         0         0         0
         0         0         0         0         0         0         0         0
         0         0         0         0         0         0         0         0
         0         0         0         0         0         0         0         0
         0         0         0         0         0         0         0         0
         0         0         0         0         0         0         0         0
         0         0         0         0         0         0         0         0
         0         0         0         0         0         0         0         0
         0         0         0         0         0         0         0         0
         0         0         0         0         0         0         0         0
         0         0         0         0         0         0         0         0
         0         0         0         0         0         0         0         0
         0         0         0         0         0         0         0         0
         0         0         0         0         0         0         0         0
         0         0         0         0         0         0         0         0
         0         0         0         0         0         0         0         0
         0         0         0         0         0         0         0         0
         0         0         0         0         0         0         0         0
         0         0         0         0         0         0         0         0
         0         0         0         0         0         0         0         0
         0         0         0         0         0         0         0         0
         0         0         0         0         0         0         0         0
         0         0         0         0         0         0         0         0
         0         0         0         0         0         0         0         0
         0         0         0         0         0         0         0         0
         0         0         0         0         0         0         0         0
         0         0         0         0         0         0         0         0
         0         0         0         0         0         0         0         0
         0         0         0         0         0         0         0         0
         0         0         0         0         0         0         0         0
         0         0         0         0         0         0         0         0
         0         0         0         0         0         0         0         0
         0         0         0         0         0         0         0         0
         0         0         0         0         0         0         0         0
         0         0         0         0         0         0         0         0
         0         0         0         0         0         0         0         0
         0         0         0         0         0         0         0         0
         0         0         0         0         0         0         0         0
         0         0         0         0         0         0         0         0
         0         0         0         0         0         0         0         0
         0         0         0         0         0         0         0         0
         0         0         0         0         0         0         0         0
         0         0         0         0         0         0         0         0
         0         0         0         0         0         0         0         0
         0         0         0         0         0         0         0         0
         0         0         0         0         0         0         0         0
         0         0         0         0         0         0         0         0
         0         0         0         0         0         0         0         0
         0         0         0         0         0         0         0         0
         0         0         0         0         0         0         0         0
         0         0         0         0         0         0         0         0
         0         0         0         0         0         0         0         0
         0         0         0         0         0         0         0         0
         0         0         0         0         0         0         0         0
         0         0         0         0         0         0         0         0
         0         0         0         0         0         0         0         0
         0         0         0         0         0         0         0         0
         0         0         0         0         0         0         0         0
         0         0         0         0         0         0         0         0
         0         0         0         0         0         0         0         0
         0         0         0         0         0         0         0         0
         0         0         0         0         0         0         0         0
         0         0         0         0         0         0         0         0
         0         0         0         0         0         0         0         0
         0         0         0         0         0         0         0         0
         0         0         0         0         0         0         0         0
         0         0         0         0         0         0         0         0
         0         0         0         0         0         0         0         0
         0         0         0         0         0         0         0         0
         0         0         0         0         0         0         0         0
         0         0         0         0         0         0         0         0
         0         0         0         0         0         0         0         0
         0         0         0         0         0         0         0         0
         0         0         0         0         0         0         0         0
         0         0         0         0         0         0         0         0
         0         0         0         0         0         0         0         0
         0         0         0         0         0         0         0         0
         0         0         0         0         0         0         0         0
         0         0         0         0         0         0         0         0
         0         0         0         0         0         0         0         0
         0         0         0         0         0         0         0         0
         0         0         0         0         0         0         0         0
         0         0         0         0         0         0         0         0
         0         0         0         0         0         0         0         0
         0         0         0         0         0         0         0         0
         0         0         0         0         0         0         0         0
         0         0         0         0         0         0         0         0
         0         0         0         0         0         0         0         0
         0         0         0         0         0         0         0         0
         0         0         0         0         0         0         0         0
         0         0         0         0         0         0         0         0
         0         0         0         0         0         0         0         0
         0         0         0         0         0         0         0         0
         0         0         0         0         0         0         0         0
         0         0         0         0         0         0         0         0
         0         0         0         0         0         0         0         0
         0         0         0         0         0         0         0         0
         0         0         0         0         0         0         0         0
         0         0         0         0         0         0         0         0
         0         0         0         0         0         0         0         0
         0         0         0         0         0         0         0         0
         0         0         0         0         0         0         0         0
         0         0         0         0         0         0         0         0
         0         0         0         0         0         0         0         0
         0         0         0         0         0         0         0         0
         0         0         0         0         0         0         0         0
         0         0         0         0         0         0         0         0
         0         0         0         0         0         0         0         0
         0         0         0         0         0         0         0         0
         0         0         0         0         0         0         0         0
         0         0         0         0         0         0         0         0
         0         0         0         0         0         0         0         0
         0         0         0         0         0         0         0         0
         0         0         0         0         0         0         0         0
         0         0         0         0         0         0         0         0
         0         0         0         0         0         0         0         0
         0         0         0         0         0         0         0         0
         0         0         0         0         0         0         0         0
         0         0         0         0         0         0         0         0
         0         0         0         0         0         0         0         0
         0         0         0         0         0         0         0         0
         0         0         0         0         0         0         0         0
         0         0         0         0         0         0         0         0
         0         0         0         0         0         0         0         0
         0         0         0         0         0         0         0         0
         0         0         0         0         0         0         0         0
         0         0         0         0         0         0         0         0
         0         0         0         0         0         0         0         0
         0         0         0         0         0         0         0         0
         0         0         0         0         0         0         0         0
         0         0         0         0         0         0         0         0
         0         0         0         0         0         0         0         0
         0         0         0         0         0         0         0         0
         0         0         0         0         0         0         0         0
         0         0         0         0         0         0         0         0
         0         0         0         0         0         0         0         0
         0         0         0         0         0         0         0         0
         0         0         0         0         0         0         0         0
         0         0         0         0         0         0         0         0
         0         0         0         0         0         0         0         0
         0         0         0         0         0         0         0         0
         0         0         0         0         0         0         0         0
         0         0         0         0         0         0         0         0
         0         0         0         0         0         0         0         0
         0         0         0         0         0         0         0         0
         0         0         0         0         0         0         0         0
         0         0         0         0         0         0         0         0
         0         0         0         0         0         0         0         0
         0         0         0         0         0         0         0         0
         0         0         0         0         0         0         0         0
         0         0         0         0         0         0         0         0
         0         0         0         0         0         0         0         0
         0         0         0         0         0         0         0         0
         0         0         0         0         0         0         0         0
         0         0         0         0         0         0         0         0
         0         0         0         0         0         0         0         0
         0         0         0         0         0         0         0         0
         0         0         0         0         0         0         0         0
         0         0         0         0         0         0         0         0
         0         0         0         0         0         0         0         0
         0         0         0         0         0         0         0         0
         0         0         0         0         0         0         0         0
         0         0         0         0         0         0         0         0
         0         0         0         0         0         0         0         0
         0         0         0         0         0         0         0         0
         0         0         0         0         0         0         0         0
         0         0         0         0         0         0         0         0
         0         0         0         0         0         0         0         0
         0         0         0         0         0         0         0         0
         0         0         0         0         0         0         0         0
         0         0         0         0         0         0         0         0
         0         0         0         0         0         0         0         0
         0         0         0         0         0         0         0         0
         0         0         0         0         0         0         0         0
         0         0         0         0         0         0         0         0
         0         0         0         0         0         0         0         0
         0         0         0         0         0         0         0         0
         0         0         0         0         0         0         0         0
         0         0         0         0         0         0         0         0
         0         0         0         0         0         0         0         0
         0         0         0         0         0         0         0         0
         0         0         0         0         0         0         0         0
         0         0         0         0         0         0         0         0
         0         0         0         0         0         0         0         0
         0         0         0         0         0         0         0         0
         0         0         0         0         0         0         0         0
         0         0         0         0         0         0         0         0
         0         0         0         0         0         0         0         0
         0         0         0         0         0         0         0         0
         0         0         0         0         0         0         0         0
         0         0         0         0         0         0         0         0
         0         0         0         0         0         0         0         0
         0         0         0         0         0         0         0         0
         0         0         0         0         0         0         0         0
         0         0         0         0         0         0         0         0
         0         0         0         0         0         0         0         0
         0         0         0         0         0         0         0         0
         0         0         0         0         0         0         0         0
         0         0         0         0         0         0         0         0
         0         0         0         0         0         0         0         0
         0         0         0         0         0         0         0         0
         0         0         0         0         0         0         0         0
         0         0         0         0         0         0         0         0
         0         0         0         0         0         0         0         0
         0         0         0         0         0         0         0         0
         0         0         0         0         0         0         0         0
         0         0         0         0         0         0         0         0
         0         0         0         0         0         0         0         0
         0         0         0         0         0         0         0         0
         0         0         0         0         0         0         0         0
         0         0         0         0         0         0         0         0
         0         0         0         0         0         0         0         0
         0         0         0         0         0         0         0         0
         0         0         0         0         0         0         0         0
         0         0         0         0         0         0         0         0
         0         0         0         0         0         0         0         0
         0         0         0         0         0         0         0         0
         0         0         0         0         0         0         0         0
         0         0         0         0         0         0         0         0
         0         0         0         0         0         0         0         0
         0         0         0         0         0         0         0         0
         0         0         0         0         0         0         0         0
         0         0         0         0         0         0         0         0
         0         0         0         0         0         0         0         0
         0         0         0         0         0         0         0         0
         0         0         0         0         0         0         0         0
         0         0         0         0         0         0         0         0
         0         0         0         0         0         0         0         0
         0         0         0         0         0         0         0         0
         0         0         0         0         0         0         0         0
         0         0         0         0         0         0         0         0
         0         0         0         0         0         0         0         0
         0         0         0         0         0         0         0         0
         0         0         0         0         0         0         0         0
         0         0         0         0         0         0         0         0
         0         0         0         0         0         0         0         0
         0         0         0         0         0         0         0         0
         0         0         0         0         0         0         0         0
         0         0         0         0         0         0         0         0
         0         0         0         0         0         0         0         0
         0         0         0         0         0         0         0         0
         0         0         0         0         0         0         0         0
         0         0         0         0         0         0         0         0
         0         0         0         0         0         0         0         0
         0         0         0         0         0         0         0         0
         0         0         0         0         0         0         0         0
         0         0         0         0         0         0         0         0
         0         0         0         0         0         0         0         0
         0         0         0         0         0         0         0         0
         0         0         0         0         0         0         0         0
         0         0         0         0         0         0         0         0
         0         0         0         0         0         0         0         0
         0         0         0         0         0         0         0         0
         0         0         0         0         0         0         0         0
         0         0         0         0         0         0         0         0
         0         0         0         0         0         0         0         0
         0         0         0         0         0         0         0         0
         0         0         0         0         0         0         0         0
         0         0         0         0         0         0         0         0
         0         0         0         0         0         0         0         0
         0         0         0         0         0         0         0         0
         0         0         0         0         0         0         0         0
         0         0         0         0         0         0         0         0
         0         0         0         0         0         0         0         0
         0         0         0         0         0         0         0         0
         0         0         0         0         0         0         0         0
         0         0         0         0         0         0         0         0
         0         0         0         0         0         0         0         0
         0         0         0         0         0         0         0         0
         0         0         0         0         0         0         0         0
         0         0         0         0         0         0         0         0
         0         0         0         0         0         0         0         0
         0         0         0         0         0         0         0         0
         0         0         0         0         0         0         0         0
         0         0         0         0         0         0         0         0
         0         0         0         0         0         0         0         0
         0         0         0         0         0         0         0         0
         0         0         0         0         0         0         0         0
         0         0         0         0         0         0         0         0
         0         0         0         0         0         0         0         0
         0         0         0         0         0         0         0         0
         0         0         0         0         0         0         0         0
         0         0         0         0         0         0         0         0
         0         0         0         0         0         0         0         0
         0         0         0         0         0         0         0         0
         0         0         0         0         0         0         0         0
         0         0         0         0         0         0         0         0
         0         0         0         0         0         0         0         0
         0         0         0         0         0         0         0         0
         0         0         0         0         0         0         0         0
         0         0         0         0         0         0         0         0
         0         0         0         0         0         0         0         0
         0         0         0         0         0         0         0         0
         0         0         0         0         0         0         0         0
         0         0         0         0         0         0         0         0
         0         0         0         0         0         0         0         0
         0         0         0         0         0         0         0         0
         0         0         0         0         0         0         0         0
         0         0         0         0         0         0         0         0
         0         0         0         0         0         0         0         0
         0         0         0         0         0         0         0         0
         0         0         0         0         0         0         0         0
         0         0         0         0         0         0         0         0
         0         0         0         0         0         0         0         0
         0         0         0         0         0         0         0         0
         0         0         0         0         0         0         0         0
         0         0         0         0         0         0         0         0
         0         0         0         0         0         0         0         0
         0         0         0         0         0         0         0         0
         0         0         0         0         0         0         0         0
         0         0         0         0         0         0         0         0
         0         0         0         0         0         0         0         0
         0         0         0         0         0         0         0         0
         0         0         0         0         0         0         0         0
         0         0         0         0         0         0         0         0
         0         0         0         0         0         0         0         0
         0         0         0         0         0         0         0         0
         0         0         0         0         0         0         0         0
         0         0         0         0         0         0         0         0
         0         0         0         0         0         0         0         0
         0         0         0         0         0         0         0         0
         0         0         0         0         0         0         0         0
         0         0         0         0         0         0         0         0
         0         0         0         0         0         0         0         0
         0         0         0         0         0         0         0         0
         0         0         0         0         0         0         0         0
         0         0         0         0         0         0         0         0
         0         0         0         0         0         0         0         0
         0         0         0         0         0         0         0         0
         0         0         0         0         0         0         0         0
         0         0         0         0         0         0         0         0
         0         0         0         0         0         0         0         0
         0         0         0         0         0         0         0         0
         0         0         0         0         0         0         0         0
         0         0         0         0         0         0         0         0
         0         0         0         0         0         0         0         0
         0         0         0         0         0         0         0         0
         0         0         0         0         0         0         0         0
         0         0         0         0         0         0         0         0
         0         0         0         0         0         0         0         0
         0         0         0         0         0         0         0         0
         0         0         0         0         0         0         0         0
         0         0         0         0         0         0         0         0
         0         0         0         0         0         0         0         0
         0         0         0         0         0         0         0         0
         0         0         0         0         0         0         0         0
         0         0         0         0         0         0         0         0
         0         0         0         0         0         0         0         0
         0         0         0         0         0         0         0         0
         0         0         0         0         0         0         0         0
         0         0         0         0         0         0         0         0
         0         0         0         0         0         0         0         0
         0         0         0         0         0         0         0         0
         0         0         0         0         0         0         0         0
         0         0         0         0         0         0         0         0
         0         0         0         0         0         0         0         0
         0         0         0         0         0         0         0         0
         0         0         0         0         0         0         0         0
         0         0         0         0         0         0         0         0
         0         0         0         0         0         0         0         0
         0         0         0         0         0         0         0         0
         0         0         0         0         0         0         0         0
         0         0         0         0         0         0         0         0
         0         0         0         0         0         0         0         0
         0         0         0         0         0         0         0         0
         0         0         0         0         0         0         0         0
         0         0         0         0         0         0         0         0
         0         0         0         0         0         0         0         0
         0         0         0         0         0         0         0         0
         0         0         0         0         0         0         0         0
         0         0         0         0         0         0         0         0
         0         0         0         0         0         0         0         0
         0         0         0         0         0         0         0         0
         0         0         0         0         0         0         0         0
         0         0         0         0         0         0         0         0
         0         0         0         0         0         0         0         0
         0         0         0         0         0         0         0         0
         0         0         0         0         0         0         0         0
         0         0         0         0         0         0         0         0
         0         0         0         0         0         0         0         0
         0         0         0         0         0         0         0         0
         0         0         0         0         0         0         0         0
         0         0         0         0         0         0         0         0
         0         0         0         0         0         0         0         0
         0         0         0         0         0         0         0         0
         0         0         0         0         0         0         0         0
         0         0         0         0         0         0         0         0
         0         0         0         0         0         0         0         0
         0         0         0         0         0         0         0         0
         0         0         0         0         0         0         0         0
         0         0         0         0         0         0         0         0
         0         0         0         0         0         0         0         0
         0         0         0         0         0         0         0         0
         0         0         0         0         0         0         0         0
         0         0         0         0         0         0         0         0
         0         0         0         0         0         0         0         0
         0         0         0         0         0         0         0         0
         0         0         0         0         0         0         0         0
         0         0         0         0         0         0         0         0
         0         0         0         0         0         0         0         0
         0         0         0         0         0         0         0         0
         0         0         0         0         0         0         0         0
         0         0         0         0         0         0         0         0
         0         0         0         0         0         0         0         0
         0         0         0         0         0         0         0         0
         0         0         0         0         0         0         0         0
         0         0         0         0         0         0         0         0
         0         0         0         0         0         0         0         0
         0         0         0         0         0         0         0         0
         0         0         0         0         0         0         0         0
         0         0         0         0         0         0         0         0
         0         0         0         0         0         0         0         0
         0         0         0         0         0         0         0         0
         0         0         0         0         0         0         0         0
         0         0         0         0         0         0         0         0
         0         0         0         0         0         0         0         0
         0         0         0         0         0         0         0         0
         0         0         0         0         0         0         0         0
         0         0         0         0         0         0         0         0
         0         0         0         0         0         0         0         0
         0         0         0         0         0         0         0         0
         0         0         0         0         0         0         0         0
         0         0         0         0         0         0         0         0
         0         0         0         0         0         0         0         0
         0         0         0         0         0         0         0         0
         0         0         0         0         0         0         0         0
         0         0         0         0         0         0         0         0
         0         0         0         0         0         0         0         0
         0         0         0         0         0         0         0         0
         0         0         0         0         0         0         0         0
         0         0         0         0         0         0         0         0
         0         0         0         0         0         0         0         0
         0         0         0         0         0         0         0         0
         0         0         0         0         0         0         0         0
         0         0         0         0         0         0         0         0
         0         0         0         0         0         0         0         0
         0         0         0         0         0         0         0         0
         0         0         0         0         0         0         0         0
         0         0         0         0         0         0         0         0
         0         0         0         0         0         0         0         0
         0         0         0         0         0         0         0         0
         0         0         0         0         0         0         0         0
         0         0         0         0         0         0         0         0
         0         0         0         0         0         0         0         0
         0         0         0         0         0         0         0         0
         0         0         0         0         0         0         0         0
         0         0         0         0         0         0         0         0
         0         0         0         0         0         0         0         0
         0         0         0         0         0         0         0         0
         0         0         0         0         0         0         0         0
         0         0         0         0         0         0         0         0
         0         0         0         0         0         0         0         0
         0         0         0         0         0         0         0         0
         0         0         0         0         0         0         0         0
         0         0         0         0         0         0         0         0
         0         0         0         0         0         0         0         0
         0         0         0         0         0         0         0         0
         0         0         0         0         0         0         0         0
         0         0         0         0         0         0         0         0
         0         0         0         0         0         0         0         0
         0         0         0         0         0         0         0         0
         0         0         0         0         0         0         0         0
         0         0         0         0         0         0         0         0
         0         0         0         0         0         0         0         0
         0         0         0         0         0         0         0         0
         0         0         0         0         0         0         0         0
         0         0         0         0         0         0         0         0
         0         0         0         0         0         0         0         0
         0         0         0         0         0         0         0         0
         0         0         0         0         0         0         0         0
         0         0         0         0         0         0         0         0
         0         0         0         0         0         0         0         0
         0         0         0         0         0         0         0         0
         0         0         0         0         0         0         0         0
         0         0         0         0         0         0         0         0
         0         0         0         0         0         0         0         0
         0         0         0         0         0         0         0         0
         0         0         0         0         0         0         0         0
         0         0         0         0         0         0         0         0
         0         0         0         0         0         0         0         0
         0         0         0         0         0         0         0         0
         0         0         0         0         0         0         0         0
         0         0         0         0         0         0         0         0
         0         0         0         0         0         0         0         0
         0         0         0         0         0         0         0         0
         0         0         0         0         0         0         0         0
         0         0         0         0         0         0         0         0
         0         0         0         0         0         0         0         0
         0         0         0         0         0         0         0         0
         0         0         0         0         0         0         0         0
         0         0         0         0         0         0         0         0
         0         0         0         0         0         0         0         0
         0         0         0         0         0         0         0         0
         0         0         0         0         0         0         0         0
         0         0         0         0         0         0         0         0
         0         0         0         0         0         0         0         0
         0         0         0         0         0         0         0         0
         0         0         0         0         0         0         0         0
         0         0         0         0         0         0         0         0
         0         0         0         0         0         0         0         0
         0         0         0         0         0         0         0         0
         0         0         0         0         0         0         0         0
         0         0         0         0         0         0         0         0
         0         0         0         0         0         0         0         0
         0         0         0         0         0         0         0         0
         0         0         0         0         0         0         0         0
         0         0         0         0         0         0         0         0
         0         0         0         0         0         0         0         0
         0         0         0         0         0         0         0         0
         0         0         0         0         0         0         0         0
         0         0         0         0         0         0         0         0
         0         0         0         0         0         0         0         0
         0         0         0         0         0         0         0         0
         0         0         0         0         0         0         0         0
         0         0         0         0         0         0         0         0
         0         0         0         0         0         0         0         0
         0         0         0         0         0         0         0         0
         0         0         0         0         0         0         0         0
         0         0         0         0         0         0         0         0
         0         0         0         0         0         0         0         0
         0         0         0         0         0         0         0         0
         0         0         0         0         0         0         0         0
         0         0         0         0         0         0         0         0
         0         0         0         0         0         0         0         0
         0         0         0         0         0         0         0         0
         0         0         0         0         0         0         0         0
         0         0         0         0         0         0         0         0
         0         0         0         0         0         0         0         0
         0         0         0         0         0         0         0         0
         0         0         0         0         0         0         0         0
         0         0         0         0         0         0         0         0
         0         0         0         0         0         0         0         0
         0         0         0         0         0         0         0         0
         0         0         0         0         0         0         0         0
         0         0         0         0         0         0         0         0
         0         0         0         0         0         0         0         0
         0         0         0         0         0         0         0         0
         0         0         0         0         0         0         0         0
         0         0         0         0         0         0         0         0
         0         0         0         0         0         0         0         0
         0         0         0         0         0         0         0         0
         0         0         0         0         0         0         0         0
         0         0         0         0         0         0         0         0
         0         0         0         0         0         0         0         0
         0         0         0         0         0         0         0         0
         0         0         0         0         0         0         0         0
         0         0         0         0         0         0         0         0
         0         0         0         0         0         0         0         0
         0         0         0         0         0         0         0         0
         0         0         0         0         0         0         0         0
         0         0         0         0         0         0         0         0
         0         0         0         0         0         0         0         0
         0         0         0         0         0         0         0         0
         0         0         0         0         0         0         0         0
         0         0         0         0         0         0         0         0
         0         0         0         0         0         0         0         0
         0         0         0         0         0         0         0         0
         0         0         0         0         0         0         0         0
         0         0         0         0         0         0         0         0
         0         0         0         0         0         0         0         0
         0         0         0         0         0         0         0         0
         0         0         0         0         0         0         0         0
         0         0         0         0         0         0         0         0
         0         0         0         0         0         0         0         0
         0         0         0         0         0         0         0         0
         0         0         0         0         0         0         0         0
         0         0         0         0         0         0         0         0
         0         0         0         0         0         0         0         0
         0         0         0         0         0         0         0         0
         0         0         0         0         0         0         0         0
         0         0         0         0         0         0         0         0
         0         0         0         0         0         0         0         0
         0         0         0         0         0         0         0         0
         0         0         0         0         0         0         0         0
         0         0         0         0         0         0         0         0
         0         0         0         0         0         0         0         0
         0         0         0         0         0         0         0         0
         0         0         0         0         0         0         0         0
         0         0         0         0         0         0         0         0
         0         0         0         0         0         0         0         0
         0         0         0         0         0         0         0         0
         0         0         0         0         0         0         0         0
         0         0         0         0         0         0         0         0
         0         0         0         0         0         0         0         0
         0         0         0         0         0         0         0         0
         0         0         0         0         0         0         0         0
         0         0         0         0         0         0         0         0
         0         0         0         0         0         0         0         0
         0         0         0         0         0         0         0         0
         0         0         0         0         0         0         0         0
         0         0         0         0         0         0         0         0
         0         0         0         0         0         0         0         0
         0         0         0         0         0         0         0         0
         0         0         0         0         0         0         0         0
         0         0         0         0         0         0         0         0
         0         0         0         0         0         0         0         0
         0         0         0         0         0         0         0         0
         0         0         0         0         0         0         0         0
         0         0         0         0         0         0         0         0
         0         0         0         0         0         0         0         0
         0         0         0         0         0         0         0         0
         0         0         0         0         0         0         0         0
         0         0         0         0         0         0         0         0
         0         0         0         0         0         0         0         0
         0         0         0         0         0         0         0         0
         0         0         0         0         0         0         0         0
         0         0         0         0         0         0         0         0
         0         0         0         0         0         0         0         0
         0         0         0         0         0         0         0         0
         0         0         0         0         0         0         0         0
         0         0         0         0         0         0         0         0
         0         0         0         0         0         0         0         0
         0         0         0         0         0         0         0         0
         0         0         0         0         0         0         0         0
         0         0         0         0         0         0         0         0
         0         0         0         0         0         0         0         0
         0         0         0         0         0         0         0         0
         0         0         0         0         0         0         0         0
         0         0         0         0         0         0         0         0
         0         0         0         0         0         0         0         0
         0         0         0         0         0         0         0         0
         0         0         0         0         0         0         0         0
         0         0         0         0         0         0         0         0
         0         0         0         0         0         0         0         0
         0         0         0         0         0         0         0         0
         0         0         0         0         0         0         0         0
         0         0         0         0         0         0         0         0
         0         0         0         0         0         0         0         0
         0         0         0         0         0         0         0         0
         0         0         0         0         0         0         0         0
         0         0         0         0         0         0         0         0
         0         0         0         0         0         0         0         0
         0         0         0         0         0         0         0         0
         0         0         0         0         0         0         0         0
         0         0         0         0         0         0         0         0
         0         0         0         0         0         0         0         0
         0         0         0         0         0         0         0         0
         0         0         0         0         0         0         0         0
         0         0         0         0         0         0         0         0
         0         0         0         0         0         0         0         0
         0         0         0         0         0         0         0         0
         0         0         0         0         0         0         0         0
         0         0         0         0         0         0         0         0
         0         0         0         0         0         0         0         0
         0         0         0         0         0         0         0         0
         0         0         0         0         0         0         0         0
         0         0         0         0         0         0         0         0
         0         0         0         0         0         0         0         0
         0         0         0         0         0         0         0         0
         0         0         0         0         0         0         0         0
         0         0         0         0         0         0         0         0
         0         0         0         0         0         0         0         0
         0         0         0         0         0         0         0         0
         0         0         0         0         0         0         0         0
         0         0         0         0         0         0         0         0
         0         0         0         0         0         0         0         0
         0         0         0         0         0         0         0         0
         0         0         0         0         0         0         0         0
         0         0         0         0         0         0         0         0
         0         0         0         0         0         0         0         0
         0         0         0         0         0         0         0         0
         0         0         0         0         0         0         0         0
         0         0         0         0         0         0         0         0
         0         0         0         0         0         0         0         0
         0         0         0         0         0         0         0         0
         0         0         0         0         0         0         0         0
         0         0         0         0         0         0         0         0
         0         0         0         0         0         0         0         0
         0         0         0         0         0         0         0         0
         0         0         0         0         0         0         0         0
         0         0         0         0         0         0         0         0
         0         0         0         0         0         0         0         0
         0         0         0         0         0         0         0         0
         0         0         0         0         0         0         0         0
         0         0         0         0         0         0         0         0
         0         0         0         0         0         0         0         0
         0         0         0         0         0         0         0         0
         0         0         0         0         0         0         0         0
         0         0         0         0         0         0         0         0
         0         0         0         0         0         0         0         0
         0         0         0         0         0         0         0         0
         0         0         0         0         0         0         0         0
         0         0         0         0         0         0         0         0
         0         0         0         0         0         0         0         0
         0         0         0         0         0         0         0         0
         0         0         0         0         0         0         0         0
         0         0         0         0         0         0         0         0
         0         0         0         0         0         0         0         0
         0         0         0         0         0         0         0         0
         0         0         0         0         0         0         0         0
         0         0         0         0         0         0         0         0
         0         0         0         0         0         0         0         0
         0         0         0         0         0         0         0         0
         0         0         0         0         0         0         0         0
         0         0         0         0         0         0         0         0
         0         0         0         0         0         0         0         0
         0         0         0         0         0         0         0         0
         0         0         0         0         0         0         0         0
         0         0         0         0         0         0         0         0
         0         0         0         0         0         0         0         0
         0         0         0         0         0         0         0         0
         0         0         0         0         0         0         0         0
         0         0         0         0         0         0         0         0
         0         0         0         0         0         0         0         0
         0         0         0         0         0         0         0         0
         0         0         0         0         0         0         0         0
         0         0         0         0         0         0         0         0
         0         0         0         0         0         0         0         0
         0         0         0         0         0         0         0         0
         0         0         0         0         0         0         0         0
         0         0         0         0         0         0         0         0
         0         0         0         0         0         0         0         0
         0         0         0         0         0         0         0         0
         0         0         0         0         0         0         0         0
         0         0         0         0         0         0         0         0
         0         0         0         0         0         0         0         0
         0         0         0         0         0         0         0         0
         0         0         0         0         0         0         0         0
         0         0         0         0         0         0         0         0
         0         0         0         0         0         0         0         0
         0         0         0         0         0         0         0         0
         0         0         0         0         0         0         0         0
         0         0         0         0         0         0         0         0
         0         0         0         0         0         0         0         0
         0         0         0         0         0         0         0         0
         0         0         0         0         0         0         0         0
         0         0         0         0         0         0         0         0
         0         0         0         0         0         0         0         0
         0         0         0         0         0         0         0         0
         0         0         0         0         0         0         0         0
         0         0         0         0         0         0         0         0
         0         0         0         0         0         0         0         0
         0         0         0         0         0         0         0         0
         0         0         0         0         0         0         0         0
         0         0         0         0         0         0         0         0
         0         0         0         0         0         0         0         0
         0         0         0         0         0         0         0         0
         0         0         0         0         0         0         0         0
         0         0         0         0         0         0         0         0
         0         0         0         0         0         0         0         0
         0         0         0         0         0         0         0         0
         0         0         0         0         0         0         0         0
         0         0         0         0         0         0         0         0
         0         0         0         0         0         0         0         0
         0         0         0         0         0         0         0         0
         0         0         0         0         0         0         0         0
         0         0         0         0         0         0         0         0
         0         0         0         0         0         0         0         0
         0         0         0         0         0         0         0         0
         0         0         0         0         0         0         0         0
         0         0         0         0         0         0         0         0
         0         0         0         0         0         0         0         0
         0         0         0         0         0         0         0         0
         0         0         0         0         0         0         0         0
         0         0         0         0         0         0         0         0
         0         0         0         0         0         0         0         0
         0         0         0         0         0         0         0         0
         0         0         0         0         0         0         0         0
         0         0         0         0         0         0         0         0
         0         0         0         0         0         0         0         0
         0         0         0         0         0         0         0         0
         0         0         0         0         0         0         0         0
         0         0         0         0         0         0         0         0
         0         0         0         0         0         0         0         0
         0         0         0         0         0         0         0         0
         0         0         0         0         0         0         0         0
         0         0         0         0         0         0         0         0
         0         0         0         0         0         0         0         0
         0         0         0         0         0         0         0         0
         0         0         0         0         0         0         0         0
         0         0         0         0         0         0         0         0
         0         0         0         0         0         0         0         0
         0         0         0         0         0         0         0         0
         0         0         0         0         0         0         0         0
         0         0         0         0         0         0         0         0
         0         0         0         0         0         0         0         0
         0         0         0         0         0         0         0         0
         0         0         0         0         0         0         0         0
         0         0         0         0         0         0         0         0
         0         0         0         0         0         0         0         0
         0         0         0         0         0         0         0         0
         0         0         0         0         0         0         0         0
         0         0         0         0         0         0         0         0
         0         0         0         0         0         0         0         0
         0         0         0         0         0         0         0         0
         0         0         0         0         0         0         0         0
         0         0         0         0         0         0         0         0
         0         0         0         0         0         0         0         0
         0         0         0         0         0         0         0         0
         0         0         0         0         0         0         0         0
         0         0         0         0         0         0         0         0
         0         0         0         0         0         0         0         0
         0         0         0         0         0         0         0         0
         0         0         0         0         0         0         0         0
         0         0         0         0         0         0         0         0
         0         0         0         0         0         0         0         0
         0         0         0         0         0         0         0         0
         0         0         0         0         0         0         0         0
         0         0         0         0         0         0         0         0
         0         0         0         0         0         0         0         0
         0         0         0         0         0         0         0         0
         0         0         0         0         0         0         0         0
         0         0         0         0         0         0         0         0
         0         0         0         0         0         0         0         0
         0         0         0         0         0         0         0         0
         0         0         0         0         0         0         0         0
         0         0         0         0         0         0         0         0
         0         0         0         0         0         0         0         0
         0         0         0         0         0         0         0         0
         0         0         0         0         0         0         0         0
         0         0         0         0         0         0         0         0
         0         0         0         0         0         0         0         0
         0         0         0         0         0         0         0         0
         0         0         0         0         0         0         0         0
         0         0         0         0         0         0         0         0
         0         0         0         0         0         0         0         0
         0         0         0         0         0         0         0         0
         0         0         0         0         0         0         0         0
         0         0         0         0         0         0         0         0
         0         0         0         0         0         0         0         0
         0         0         0         0         0         0         0         0
         0         0         0         0         0         0         0         0
         0         0         0         0         0         0         0         0
         0         0         0         0         0         0         0         0
         0         0         0         0         0         0         0         0
         0         0         0         0         0         0         0         0
         0         0         0         0         0         0         0         0
         0         0         0         0         0         0         0         0
         0         0         0         0         0         0         0         0
         0         0         0         0         0         0         0         0
         0         0         0         0         0         0         0         0
         0         0         0         0         0         0         0         0
         0         0         0         0         0         0         0         0
         0         0         0         0         0         0         0         0
         0         0         0         0         0         0         0         0
         0         0         0         0         0         0         0         0
         0         0         0         0         0         0         0         0
         0         0         0         0         0         0         0         0
         0         0         0         0         0         0         0         0
         0         0         0         0         0         0         0         0
         0         0         0         0         0         0         0         0
         0         0         0         0         0         0         0         0
         0         0         0         0         0         0         0         0
         0         0         0         0         0         0         0         0
         0         0         0         0         0         0         0         0
         0         0         0         0         0         0         0         0
         0         0         0         0         0         0         0         0
         0         0         0         0         0         0         0         0
         0         0         0         0         0         0         0         0
         0         0         0         0         0         0         0         0
         0         0         0         0         0         0         0         0
         0         0         0         0         0         0         0         0
         0         0         0         0         0         0         0         0
         0         0         0         0         0         0         0         0
         0         0         0         0         0         0         0         0
         0         0         0         0         0         0         0         0
         0         0         0         0         0         0         0         0
         0         0         0         0         0         0         0         0
         0         0         0         0         0         0         0         0
         0         0         0         0         0         0         0         0
         0         0         0         0         0         0         0         0
         0         0         0         0         0         0         0         0
         0         0         0         0         0         0         0         0
         0         0         0         0         0         0         0         0
         0         0         0         0         0         0         0         0
         0         0         0         0         0         0         0         0
         0         0         0         0         0         0         0         0
         0         0         0         0         0         0         0         0
         0         0         0         0         0         0         0         0
         0         0         0         0         0         0         0         0
         0         0         0         0         0         0         0         0
         0         0         0         0         0         0         0         0
         0         0         0         0         0         0         0         0
         0         0         0         0         0         0         0         0
         0         0         0         0         0         0         0         0
         0         0         0         0         0         0         0         0
         0         0         0         0         0         0         0         0
         0         0         0         0         0         0         0         0
         0         0         0         0         0         0         0         0
         0         0         0         0         0         0         0         0
         0         0         0         0         0         0         0         0
         0         0         0         0         0         0         0         0
         0         0         0         0         0         0         0         0
         0         0         0         0         0         0         0         0
         0         0         0         0         0         0         0         0
         0         0         0         0         0         0         0         0
         0         0         0         0         0         0         0         0
         0         0         0         0         0         0         0         0
         0         0         0         0         0         0         0         0
         0         0         0         0         0         0         0         0
         0         0         0         0         0         0         0         0
         0         0         0         0         0         0         0         0
         0         0         0         0         0         0         0         0
         0         0         0         0         0         0         0         0
         0         0         0         0         0         0         0         0
         0         0         0         0         0         0         0         0
         0         0         0         0         0         0         0         0
         0         0         0         0         0         0         0         0
         0         0         0         0         0         0         0         0
         0         0         0         0         0         0         0         0
         0         0         0         0         0         0         0         0
         0         0         0         0         0         0         0         0
         0         0         0         0         0         0         0         0
         0         0         0         0         0         0         0         0
         0         0         0         0         0         0         0         0
         0         0         0         0         0         0         0         0
         0         0         0         0         0         0         0         0
         0         0         0         0         0         0         0         0
         0         0         0         0         0         0         0         0
         0         0         0         0         0         0         0         0
         0         0         0         0         0         0         0         0
         0         0         0         0         0         0         0         0
         0         0         0         0         0         0         0         0
         0         0         0         0         0         0         0         0
         0         0         0         0         0         0         0         0
         0         0         0         0         0         0         0         0
         0         0         0         0         0         0         0         0
         0         0         0         0         0         0         0         0
         0         0         0         0         0         0         0         0
         0         0         0         0         0         0         0         0
         0         0         0         0         0         0         0         0
         0         0         0         0         0         0         0         0
         0         0         0         0         0         0         0         0
         0         0         0         0         0         0         0         0
         0         0         0         0         0         0         0         0
         0         0         0         0         0         0         0         0
         0         0         0         0         0         0         0         0
         0         0         0         0         0         0         0         0
         0         0         0         0         0         0         0         0
         0         0         0         0         0         0         0         0
         0         0         0         0         0         0         0         0
         0         0         0         0         0         0         0         0
         0         0         0         0         0         0         0         0
         0         0         0         0         0         0         0         0
         0         0         0         0         0         0         0         0
         0         0         0         0         0         0         0         0
         0         0         0         0         0         0         0         0
         0         0         0         0         0         0         0         0
         0         0         0         0         0         0         0         0
         0         0         0         0         0         0         0         0
         0         0         0         0         0         0         0         0
         0         0         0         0         0         0         0         0
         0         0         0         0         0         0         0         0
         0         0         0         0         0         0         0         0
         0         0         0         0         0         0         0         0
         0         0         0         0         0         0         0         0
         0         0         0         0         0         0         0         0
         0         0         0         0         0         0         0         0
         0         0         0         0         0         0         0         0
         0         0         0         0         0         0         0         0
         0         0         0         0         0         0         0         0
         0         0         0         0         0         0         0         0
         0         0         0         0         0         0         0         0
         0         0         0         0         0         0         0         0
         0         0         0         0         0         0         0         0
         0         0         0         0         0         0         0         0
         0         0         0         0         0         0         0         0
         0         0         0         0         0         0         0         0
         0         0         0         0         0         0         0         0
         0         0         0         0         0         0         0         0
         0         0         0         0         0         0         0         0
         0         0         0         0         0         0         0         0
         0         0         0         0         0         0         0         0
         0         0         0         0         0         0         0         0
         0         0         0         0         0         0         0         0
         0         0         0         0         0         0         0         0
         0         0         0         0         0         0         0         0
         0         0         0         0         0         0         0         0
         0         0         0         0         0         0         0         0
         0         0         0         0         0         0         0         0
         0         0         0         0         0         0         0         0
         0         0         0         0         0         0         0         0
         0         0         0         0         0         0         0         0
         0         0         0         0         0         0         0         0
         0         0         0         0         0         0         0         0
         0         0         0         0         0         0         0         0
         0         0         0         0         0         0         0         0
         0         0         0         0         0         0         0         0
         0         0         0         0         0         0         0         0
         0         0         0         0         0         0         0         0
         0         0         0         0         0         0         0         0
         0         0         0         0         0         0         0         0
         0         0         0         0         0         0         0         0
         0         0         0         0         0         0         0         0
         0         0         0         0         0         0         0         0
         0         0         0         0         0         0         0         0
         0         0         0         0         0         0         0         0
         0         0         0         0         0         0         0         0
         0         0         0         0         0         0         0         0
         0         0         0         0         0         0         0         0
         0         0         0         0         0         0         0         0
         0         0         0         0         0         0         0         0
         0         0         0         0         0         0         0         0
         0         0         0         0         0         0         0         0
         0         0         0         0         0         0         0         0
         0         0         0         0         0         0         0         0
         0         0         0         0         0         0         0         0
         0         0         0         0         0         0         0         0
         0         0         0         0         0         0         0         0
         0         0         0         0         0         0         0         0
         0         0         0         0         0         0         0         0
         0         0         0         0         0         0         0         0
         0         0         0         0         0         0         0         0
         0         0         0         0         0         0         0         0
         0         0         0         0         0         0         0         0
         0         0         0         0         0         0         0         0
         0         0         0         0         0         0         0         0
         0         0         0         0         0         0         0         0
         0         0         0         0         0         0         0         0
         0         0         0         0         0         0         0         0
         0         0         0         0         0         0         0         0
         0         0         0         0         0         0         0         0
         0         0         0         0         0         0         0         0
         0         0         0         0         0         0         0         0
         0         0         0         0         0         0         0         0
         0         0         0         0         0         0         0         0
         0         0         0         0         0         0         0         0
         0         0         0         0         0         0         0         0
         0         0         0         0         0         0         0         0
         0         0         0         0         0         0         0         0
         0         0         0         0         0         0         0         0
         0         0         0         0         0         0         0         0
         0         0         0         0         0         0         0         0
         0         0         0         0         0         0         0         0
         0         0         0         0         0         0         0         0
         0         0         0         0         0         0         0         0
         0         0         0         0         0         0         0         0
         0         0         0         0         0         0         0         0
         0         0         0         0         0         0         0         0
         0         0         0         0         0         0         0         0
         0         0         0         0         0         0         0         0
         0         0         0         0         0         0         0         0
         0         0         0         0         0         0         0         0
         0         0         0         0         0         0         0         0
         0         0         0         0         0         0         0         0
         0         0         0         0         0         0         0         0
         0         0         0         0         0         0         0         0
         0         0         0         0         0         0         0         0
         0         0         0         0         0         0         0         0
         0         0         0         0         0         0         0         0
         0         0         0         0         0         0         0         0
         0         0         0         0         0         0         0         0
         0         0         0         0         0         0         0         0
         0         0         0         0         0         0         0         0
         0         0         0         0         0         0         0         0
         0         0         0         0         0         0         0         0
         0         0         0         0         0         0         0         0
         0         0         0         0         0         0         0         0
         0         0         0         0         0         0         0         0
         0         0         0         0         0         0         0         0
         0         0         0         0         0         0         0         0
         0         0         0         0         0         0         0         0
         0         0         0         0         0         0         0         0
         0         0         0         0         0         0         0         0
         0         0         0         0         0         0         0         0
         0         0         0         0         0         0         0         0
         0         0         0         0         0         0         0         0
         0         0         0         0         0         0         0         0
         0         0         0         0         0         0         0         0
         0         0         0         0         0         0         0         0
         0         0         0         0         0         0         0         0
         0         0         0         0         0         0         0         0
         0         0         0         0         0         0         0         0
         0         0         0         0         0         0         0         0
         0         0         0         0         0         0         0         0
         0         0         0         0         0         0         0         0
         0         0         0         0         0         0         0         0
         0         0         0         0         0         0         0         0
         0         0         0         0         0         0         0         0
         0         0         0         0         0         0         0         0
         0         0         0         0         0         0         0         0
         0         0         0         0         0         0         0         0
         0         0         0         0         0         0         0         0
         0         0         0         0         0         0         0         0
         0         0         0         0         0         0         0         0
         0         0         0         0         0         0         0         0
         0         0         0         0         0         0         0         0
         0         0         0         0         0         0         0         0
         0         0         0         0         0         0         0         0
         0         0         0         0         0         0         0         0
         0         0         0         0         0         0         0         0
         0         0         0         0         0         0         0         0
         0         0         0         0         0         0         0         0
         0         0         0         0         0         0         0         0
         0         0         0         0         0         0         0         0
         0         0         0         0         0         0         0         0
         0         0         0         0         0         0         0         0
         0         0         0         0         0         0         0         0
         0         0         0         0         0         0         0         0
         0         0         0         0         0         0         0         0
         0         0         0         0         0         0         0         0
         0         0         0         0         0         0         0         0
         0         0         0         0         0         0         0         0
         0         0         0         0         0         0         0         0
         0         0         0         0         0         0         0         0
         0         0         0         0         0         0         0         0
         0         0         0         0         0         0         0         0
         0         0         0         0         0         0         0         0
         0         0         0         0         0         0         0         0
         0         0         0         0         0         0         0         0
         0         0         0         0         0         0         0         0
         0         0         0         0         0         0         0         0
         0         0         0         0         0         0         0         0
         0         0         0         0         0         0         0         0
         0         0         0         0         0         0         0         0
         0         0         0         0         0         0         0         0
         0         0         0         0         0         0         0         0
         0         0         0         0         0         0         0         0
         0         0         0         0         0         0         0         0
         0         0         0         0         0         0         0         0
         0         0         0         0         0         0         0         0
         0         0         0         0         0         0         0         0
         0         0         0         0         0         0         0         0
         0         0         0         0         0         0         0         0
         0         0         0         0         0         0         0         0
         0         0         0         0         0         0         0         0
         0         0         0         0         0         0         0         0
         0         0         0         0         0         0         0         0
         0         0         0         0         0         0         0         0
         0         0         0         0         0         0         0         0
         0         0         0         0         0         0         0         0
         0         0         0         0         0         0         0         0
         0         0         0         0         0         0         0         0
         0         0         0         0         0         0         0         0
         0         0         0         0         0         0         0         0
         0         0         0         0         0         0         0         0
         0         0         0         0         0         0         0         0
         0         0         0         0         0         0         0         0
         0         0         0         0         0         0         0         0
         0         0         0         0         0         0         0         0
         0         0         0         0         0         0         0         0
         0         0         0         0         0         0         0         0
         0         0         0         0         0         0         0         0
         0         0         0         0         0         0         0         0
         0         0         0         0         0         0         0         0
         0         0         0         0         0         0         0         0
         0         0         0         0         0         0         0         0
         0         0         0         0         0         0         0         0
         0         0         0         0         0         0         0         0
         0         0         0         0         0         0         0         0
         0         0         0         0         0         0         0         0
         0         0         0         0         0         0         0         0
         0         0         0         0         0         0         0         0
         0         0         0         0         0         0         0         0
         0         0         0         0         0         0         0         0
         0         0         0         0         0         0         0         0
         0         0         0         0         0         0         0         0
         0         0         0         0         0         0         0         0
         0         0         0         0         0         0         0         0
         0         0         0         0         0         0         0         0
         0         0         0         0         0         0         0         0
         0         0         0         0         0         0         0         0
         0         0         0         0         0         0         0         0
         0         0         0         0         0         0         0         0
         0         0         0         0         0         0         0         0
         0         0         0         0         0         0         0         0
         0         0         0         0         0         0         0         0
         0         0         0         0         0         0         0         0
         0         0         0         0         0         0         0         0
         0         0         0         0         0         0         0         0
         0         0         0         0         0         0         0         0
         0         0         0         0         0         0         0         0
         0         0         0         0         0         0         0         0
         0         0         0         0         0         0         0         0
         0         0         0         0         0         0         0         0
         0         0         0         0         0         0         0         0
         0         0         0         0         0         0         0         0
         0         0         0         0         0         0         0         0
         0         0         0         0         0         0         0         0
         0         0         0         0         0         0         0         0
         0         0         0         0         0         0         0         0
         0         0         0         0         0         0         0         0
         0         0         0         0         0         0         0         0
         0         0         0         0         0         0         0         0
         0         0         0         0         0         0         0         0
         0         0         0         0         0         0         0         0
         0         0         0         0         0         0         0         0
         0         0         0         0         0         0         0         0
         0         0         0         0         0         0         0         0
         0         0         0         0         0         0         0         0
         0         0         0         0         0         0         0         0
         0         0         0         0         0         0         0         0
         0         0         0         0         0         0         0         0
         0         0         0         0         0         0         0         0
         0         0         0         0         0         0         0         0
         0         0         0         0         0         0         0         0
         0         0         0         0         0         0         0         0
         0         0         0         0         0         0         0         0
         0         0         0         0         0         0         0         0
         0         0         0         0         0         0         0         0
         0         0         0         0         0         0         0         0
         0         0         0         0         0         0         0         0
         0         0         0         0         0         0         0         0
         0         0         0         0         0         0         0         0
         0         0         0         0         0         0         0         0
         0         0         0         0         0         0         0         0
         0         0         0         0         0         0         0         0
         0         0         0         0         0         0         0         0
         0         0         0         0         0         0         0         0
         0         0         0         0         0         0         0         0
         0         0         0         0         0         0         0         0
         0         0         0         0         0         0         0         0
         0         0         0         0         0         0         0         0
         0         0         0         0         0         0         0         0
         0         0         0         0         0         0         0         0
         0         0         0         0         0         0         0         0
         0         0         0         0         0         0         0         0
         0         0         0         0         0         0         0         0
         0         0         0         0         0         0         0         0
         0         0         0         0         0         0         0         0
         0         0         0         0         0         0         0         0
         0         0         0         0         0         0         0         0
         0         0         0         0         0         0         0         0
         0         0         0         0         0         0         0         0
         0         0         0         0         0         0         0         0
         0         0         0         0         0         0         0         0
         0         0         0         0         0         0         0         0
         0         0         0         0         0         0         0         0
         0         0         0         0         0         0         0         0
         0         0         0         0         0         0         0         0
         0         0         0         0         0         0         0         0
         0         0         0         0         0         0         0         0
         0         0         0         0         0         0         0         0
         0         0         0         0         0         0         0         0
         0         0         0         0         0         0         0         0
         0         0         0         0         0         0         0         0
         0         0         0         0         0         0         0         0
         0         0         0         0         0         0         0         0
         0         0         0         0         0         0         0         0
         0         0         0         0         0         0         0         0
         0         0         0         0         0         0         0         0
         0         0         0         0         0         0         0         0
         0         0         0         0         0         0         0         0
         0         0         0         0         0         0         0         0
         0         0         0         0         0         0         0         0
         0         0         0         0         0         0         0         0
         0         0         0         0         0         0         0         0
         0         0         0         0         0         0         0         0
         0         0         0         0         0         0         0         0
         0         0         0         0         0         0         0         0
         0         0         0         0         0         0         0         0
         0         0         0         0         0         0         0         0
         0         0         0         0         0         0         0         0
         0         0         0         0         0         0         0         0
         0         0         0         0         0         0         0         0
         0         0         0         0         0         0         0         0
         0         0         0         0         0         0         0         0
         0         0         0         0         0         0         0         0
         0         0         0         0         0         0         0         0
         0         0         0         0         0         0         0         0
         0         0         0         0         0         0         0         0
         0         0         0         0         0         0         0         0
         0         0         0         0         0         0         0         0
         0         0         0         0         0         0         0         0
         0         0         0         0         0         0         0         0
         0         0         0         0         0         0         0         0
         0         0         0         0         0         0         0         0
         0         0         0         0         0         0         0         0
         0         0         0         0         0         0         0         0
         0         0         0         0         0         0         0         0
         0         0         0         0         0         0         0         0
         0         0         0         0         0         0         0         0
         0         0         0         0         0         0         0         0
         0         0         0         0         0         0         0         0
         0         0         0         0         0         0         0         0
         0         0         0         0         0         0         0         0
         0         0         0         0         0         0         0         0
         0         0         0         0         0         0         0         0
         0         0         0         0         0         0         0         0
         0         0         0         0         0         0         0         0
         0         0         0         0         0         0         0         0
         0         0         0         0         0         0         0         0
         0         0         0         0         0         0         0         0
         0         0         0         0         0         0         0         0
         0         0         0         0         0         0         0         0
         0         0         0         0         0         0         0         0
         0         0         0         0         0         0         0         0
         0         0         0         0         0         0         0         0
         0         0         0         0         0         0         0         0
         0         0         0         0         0         0         0         0
         0         0         0         0         0         0         0         0
         0         0         0         0         0         0         0         0
         0         0         0         0         0         0         0         0
         0         0         0         0         0         0         0         0
         0         0         0         0         0         0         0         0
         0         0         0         0         0         0         0         0
         0         0         0         0         0         0         0         0
         0         0         0         0         0         0         0         0
         0         0         0         0         0         0         0         0
         0         0         0         0         0         0         0         0
         0         0         0         0         0         0         0         0
         0         0         0         0         0         0         0         0
         0         0         0         0         0         0         0         0
         0         0         0         0         0         0         0         0
         0         0         0         0         0         0         0         0
         0         0         0         0         0         0         0         0
         0         0         0         0         0         0         0         0
         0         0         0         0         0         0         0         0
         0         0         0         0         0         0         0         0
         0         0         0         0         0         0         0         0
         0         0         0         0         0         0         0         0
         0         0         0         0         0         0         0         0
         0         0         0         0         0         0         0         0
         0         0         0         0         0         0         0         0
         0         0         0         0         0         0         0         0
         0         0         0         0         0         0         0         0
         0         0         0         0         0         0         0         0
         0         0         0         0         0         0         0         0
         0         0         0         0         0         0         0         0
         0         0         0         0         0         0         0         0
         0         0         0         0         0         0         0         0
         0         0         0         0         0         0         0         0
         0         0         0         0         0         0         0         0
         0         0         0         0         0         0         0         0
         0         0         0         0         0         0         0         0
         0         0         0         0         0         0         0         0
         0         0         0         0         0         0         0         0
         0         0         0         0         0         0         0         0
         0         0         0         0         0         0         0         0
         0         0         0         0         0         0         0         0
         0         0         0         0         0         0         0         0
         0         0         0         0         0         0         0         0
         0         0         0         0         0         0         0         0
         0         0         0         0         0         0         0         0
         0         0         0         0         0         0         0         0
         0         0         0         0         0         0         0         0
         0         0         0         0         0         0         0         0
         0         0         0         0         0         0         0         0
         0         0         0         0         0         0         0         0
         0         0         0         0         0         0         0         0
         0         0         0         0         0         0         0         0
         0         0         0         0         0         0         0         0
         0         0         0         0         0         0         0         0
         0         0         0         0         0         0         0         0
         0         0         0         0         0         0         0         0
         0         0         0         0         0         0         0         0
         0         0         0         0         0         0         0         0
         0         0         0         0         0         0         0         0
         0         0         0         0         0         0         0         0
         0         0         0         0         0         0         0         0
         0         0         0         0         0         0         0         0
         0         0         0         0         0         0         0         0
         0         0         0         0         0         0         0         0
         0         0         0         0         0         0         0         0
         0         0         0         0         0         0         0         0
         0         0         0         0         0         0         0         0
         0         0         0         0         0         0         0         0
         0         0         0         0         0         0         0         0
         0         0         0         0         0         0         0         0
         0         0         0         0         0         0         0         0
         0         0         0         0         0         0         0         0
         0         0         0         0         0         0         0         0
         0         0         0         0         0         0         0         0
         0         0         0         0         0         0         0         0
         0         0         0         0         0         0         0         0
         0         0         0         0         0         0         0         0
         0         0         0         0         0         0         0         0
         0         0         0         0         0         0         0         0
         0         0         0         0         0         0         0         0
         0         0         0         0         0         0         0         0
         0         0         0         0         0         0         0         0
         0         0         0         0         0         0         0         0
         0         0         0         0         0         0         0         0
         0         0         0         0         0         0         0         0
         0         0         0         0         0         0         0         0
         0         0         0         0         0         0         0         0
         0         0         0         0         0         0         0         0
         0         0         0         0         0         0         0         0
         0         0         0         0         0         0         0         0
         0         0         0         0         0         0         0         0
         0         0         0         0         0         0         0         0
         0         0         0         0         0         0         0         0
         0         0         0         0         0         0         0         0
         0         0         0         0         0         0         0         0
         0         0         0         0         0         0         0         0
         0         0         0         0         0         0         0         0
         0         0         0         0         0         0         0         0
         0         0         0         0         0         0         0         0
         0         0         0         0         0         0         0         0
         0         0         0         0         0         0         0         0
         0         0         0         0         0         0         0         0
         0         0         0         0         0         0         0         0
         0         0         0         0         0         0         0         0
         0         0         0         0         0         0         0         0
         0         0         0         0         0         0         0         0
         0         0         0         0         0         0         0         0
         0         0         0         0         0         0         0         0
         0         0         0         0         0         0         0         0
         0         0         0         0         0         0         0         0
         0         0         0         0         0         0         0         0
         0         0         0         0         0         0         0         0
         0         0         0         0         0         0         0         0
         0         0         0         0         0         0         0         0
         0         0         0         0         0         0         0         0
         0         0         0         0         0         0         0         0
         0         0         0         0         0         0         0         0
         0         0         0         0         0         0         0         0
         0         0         0         0         0         0         0         0
         0         0         0         0         0         0         0         0
         0         0         0         0         0         0         0         0
         0         0         0         0         0         0         0         0
         0         0         0         0         0         0         0         0
         0         0         0         0         0         0         0         0
         0         0         0         0         0         0         0         0
         0         0         0         0         0         0         0         0
         0         0         0         0         0         0         0         0
         0         0         0         0         0         0         0         0
         0         0         0         0         0         0         0         0
         0         0         0         0         0         0         0         0
         0         0         0         0         0         0         0         0
         0         0         0         0         0         0         0         0
         0         0         0         0         0         0         0         0
         0         0         0         0         0         0         0         0
         0         0         0         0         0         0         0         0
         0         0         0         0         0         0         0         0
         0         0         0         0         0         0         0         0
         0         0         0         0         0         0         0         0
         0         0         0         0         0         0         0         0
         0         0         0         0         0         0         0         0
         0         0         0         0         0         0         0         0
         0         0         0         0         0         0         0         0
         0         0         0         0         0         0         0         0
         0         0         0         0         0         0         0         0
         0         0         0         0         0         0         0         0
         0         0         0         0         0         0         0         0
         0         0         0         0         0         0         0         0
         0         0         0         0         0         0         0         0
         0         0         0         0         0         0         0         0
         0         0         0         0         0         0         0         0
         0         0         0         0         0         0         0         0
         0         0         0         0         0         0         0         0
         0         0         0         0         0         0         0         0
         0         0         0         0         0         0         0         0
         0         0         0         0         0         0         0         0
         0         0         0         0         0         0         0         0
         0         0         0         0         0         0         0         0
         0         0         0         0         0         0         0         0
         0         0         0         0         0         0         0         0
         0         0         0         0         0         0         0         0
         0         0         0         0         0         0         0         0
         0         0         0         0         0         0         0         0
         0         0         0         0         0         0         0         0
         0         0         0         0         0         0         0         0
         0         0         0         0         0         0         0         0
         0         0         0         0         0         0         0         0
         0         0         0         0         0         0         0         0
         0         0         0         0         0         0         0         0
         0         0         0         0         0         0         0         0
         0         0         0         0         0         0         0         0
         0         0         0         0         0         0         0         0
         0         0         0         0         0         0         0         0
         0         0         0         0         0         0         0         0
         0         0         0         0         0         0         0         0
         0         0         0         0         0         0         0         0
         0         0         0         0         0         0         0         0
         0         0         0         0         0         0         0         0
         0         0         0         0         0         0         0         0
         0         0         0         0         0         0         0         0
         0         0         0         0         0         0         0         0
         0         0         0         0         0         0         0         0
         0         0         0         0         0         0         0         0
         0         0         0         0         0         0         0         0
         0         0         0         0         0         0         0         0
         0         0         0         0         0         0         0         0
         0         0         0         0         0         0         0         0
         0         0         0         0         0         0         0         0
         0         0         0         0         0         0         0         0
         0         0         0         0         0         0         0         0
         0         0         0         0         0         0         0         0
         0         0         0         0         0         0         0         0
         0         0         0         0         0         0         0         0
         0         0         0         0         0         0         0         0
         0         0         0         0         0         0         0         0
         0         0         0         0         0         0         0         0
         0         0         0         0         0         0         0         0
         0         0         0         0         0         0         0         0
         0         0         0         0         0         0         0         0
         0         0         0         0         0         0         0         0
         0         0         0         0         0         0         0         0
         0         0         0         0         0         0         0         0
         0         0         0         0         0         0         0         0
         0         0         0         0         0         0         0         0
         0         0         0         0         0         0         0         0
         0         0         0         0         0         0         0         0
         0         0         0         0         0         0         0         0
         0         0         0         0         0         0         0         0
         0         0         0         0         0         0         0         0
         0         0         0         0         0         0         0         0
         0         0         0         0         0         0         0         0
         0         0         0         0         0         0         0         0
         0         0         0         0         0         0         0         0
         0         0         0         0         0         0         0         0
         0         0         0         0         0         0         0         0
         0         0         0         0         0         0         0         0
         0         0         0         0         0         0         0         0
         0         0         0         0         0         0         0         0
         0         0         0         0         0         0         0         0
         0         0         0         0         0         0         0         0
         0         0         0         0         0         0         0         0
         0         0         0         0         0         0         0         0
         0         0         0         0         0         0         0         0
         0         0         0         0         0         0         0         0
         0         0         0         0         0         0         0         0
         0         0         0         0         0         0         0         0
         0         0         0         0         0         0         0         0
         0         0         0         0         0         0         0         0
         0         0         0         0         0         0         0         0
         0         0         0         0         0         0         0         0
         0         0         0         0         0         0         0         0
         0         0         0         0         0         0         0         0
         0         0         0         0         0         0         0         0
         0         0         0         0         0         0         0         0
         0         0         0         0         0         0         0         0
         0         0         0         0         0         0         0         0
         0         0         0         0         0         0         0         0
         0         0         0         0         0         0         0         0
         0         0         0         0         0         0         0         0
         0         0         0         0         0         0         0         0
         0         0         0         0         0         0         0         0
         0         0         0         0         0         0         0         0
         0         0         0         0         0         0         0         0
         0         0         0         0         0         0         0         0
         0         0         0         0         0         0         0         0
         0         0         0         0         0         0         0         0
         0         0         0         0         0         0         0         0
         0         0         0         0         0         0         0         0
         0         0         0         0         0         0         0         0
         0         0         0         0         0         0         0         0
         0         0         0         0         0         0         0         0
         0         0         0         0         0         0         0         0
         0         0         0         0         0         0         0         0
         0         0         0         0         0         0         0         0
         0         0         0         0         0         0         0         0
         0         0         0         0         0         0         0         0
         0         0         0         0         0         0         0         0
         0         0         0         0         0         0         0         0
         0         0         0         0         0         0         0         0
         0         0         0         0         0         0         0         0
         0         0         0         0         0         0         0         0
         0         0         0         0         0         0         0         0
         0         0         0         0         0         0         0         0
         0         0         0         0         0         0         0         0
         0         0         0         0         0         0         0         0
         0         0         0         0         0         0         0         0
         0         0         0         0         0         0         0         0
         0         0         0         0         0         0         0         0
         0         0         0         0         0         0         0         0
         0         0         0         0         0         0         0         0
         0         0         0         0         0         0         0         0
         0         0         0         0         0         0         0         0
         0         0         0         0         0         0         0         0
         0         0         0         0         0         0         0         0
         0         0         0         0         0         0         0         0
         0         0         0         0         0         0         0         0
         0         0         0         0         0         0         0         0
         0         0         0         0         0         0         0         0
         0         0         0         0         0         0         0         0
         0         0         0         0         0         0         0         0
         0         0         0         0         0         0         0         0
         0         0         0         0         0         0         0         0
         0         0         0         0         0         0         0         0
         0         0         0         0         0         0         0         0
         0         0         0         0         0         0         0         0
         0         0         0         0         0         0         0         0
         0         0         0         0         0         0         0         0
         0         0         0         0         0         0         0         0
         0         0         0         0         0         0         0         0
         0         0         0         0         0         0         0         0
         0         0         0         0         0         0         0         0
         0         0         0         0         0         0         0         0
         0         0         0         0         0         0         0         0
         0         0         0         0         0         0         0         0
         0         0         0         0         0         0         0         0
         0         0         0         0         0         0         0         0
         0         0         0         0         0         0         0         0
         0         0         0         0         0         0         0         0
         0         0         0         0         0         0         0         0
         0         0         0         0         0         0         0         0
         0         0         0         0         0         0         0         0
         0         0         0         0         0         0         0         0
         0         0         0         0         0         0         0         0
         0         0         0         0         0         0         0         0
         0         0         0         0         0         0         0         0
         0         0         0         0         0         0         0         0
         0         0         0         0         0         0         0         0
         0         0         0         0         0         0         0         0
         0         0         0         0         0         0         0         0
         0         0         0         0         0         0         0         0
         0         0         0         0         0         0         0         0
         0         0         0         0         0         0         0         0
         0         0         0         0         0         0         0         0
         0         0         0         0         0         0         0         0
         0         0         0         0         0         0         0         0
         0         0         0         0         0         0         0         0
         0         0         0         0         0         0         0         0
         0         0         0         0         0         0         0         0
         0         0         0         0         0         0         0         0
         0         0         0         0         0         0         0         0
         0         0         0         0         0         0         0         0
         0         0         0         0         0         0         0         0
         0         0         0         0         0         0         0         0
         0         0         0         0         0         0         0         0
         0         0         0         0         0         0         0         0
         0         0         0         0         0         0         0         0
         0         0         0         0         0         0         0         0
         0         0         0         0         0         0         0         0
         0         0         0         0         0         0         0         0
         0         0         0         0         0         0         0         0
         0         0         0         0         0         0         0         0
         0         0         0         0         0         0         0         0
         0         0         0         0         0         0         0         0
         0         0         0         0         0         0         0         0
         0         0         0         0         0         0         0         0
         0         0         0         0         0         0         0         0
         0         0         0         0         0         0         0         0
         0         0         0         0         0         0         0         0
         0         0         0         0         0         0         0         0
         0         0         0         0         0         0         0         0
         0         0         0         0         0         0         0         0
         0         0         0         0         0         0         0         0
         0         0         0         0         0         0         0         0
         0         0         0         0         0         0         0         0
         0         0         0         0         0         0         0         0
         0         0         0         0         0         0         0         0
         0         0         0         0         0         0         0         0
         0         0         0         0         0         0         0         0
         0         0         0         0         0         0         0         0
         0         0         0         0         0         0         0         0
         0         0         0         0         0         0         0         0
         0         0         0         0         0         0         0         0
         0         0         0         0         0         0         0         0
         0         0         0         0         0         0         0         0
         0         0         0         0         0         0         0         0
         0         0         0         0         0         0         0         0
         0         0         0         0         0         0         0         0
         0         0         0         0         0         0         0         0
         0         0         0         0         0         0         0         0
         0         0         0         0         0         0         0         0
         0         0         0         0         0         0         0         0
         0         0         0         0         0         0         0         0
         0         0         0         0         0         0         0         0
         0         0         0         0         0         0         0         0
         0         0         0         0         0         0         0         0
         0         0         0         0         0         0         0         0
         0         0         0         0         0         0         0         0
         0         0         0         0         0         0         0         0
         0         0         0         0         0         0         0         0
         0         0         0         0         0         0         0         0
         0         0         0         0         0         0         0         0
         0         0         0         0         0         0         0         0
         0         0         0         0         0         0         0         0
         0         0         0         0         0         0         0         0
         0         0         0         0         0         0         0         0
         0         0         0         0         0         0         0         0
         0         0         0         0         0         0         0         0
         0         0         0         0         0         0         0         0
         0         0         0         0         0         0         0         0
         0         0         0         0         0         0         0         0
         0         0         0         0         0         0         0         0
         0         0         0         0         0         0         0         0
         0         0         0         0         0         0         0         0
         0         0         0         0         0         0         0         0
         0         0         0         0         0         0         0         0
         0         0         0         0         0         0         0         0
         0         0         0         0         0         0         0         0
         0         0         0         0         0         0         0         0
         0         0         0         0         0         0         0         0
         0         0         0         0         0         0         0         0
         0         0         0         0         0         0         0         0
         0         0         0         0         0         0         0         0
         0         0         0         0         0         0         0         0
         0         0         0         0         0         0         0         0
         0         0         0         0         0         0         0         0
         0         0         0         0         0         0         0         0
         0         0         0         0         0         0         0         0
         0         0         0         0         0         0         0         0
         0         0         0         0         0         0         0         0
         0         0         0         0         0         0         0         0
         0         0         0         0         0         0         0         0
         0         0         0         0         0         0         0         0
         0         0         0         0         0         0         0         0
         0         0         0         0         0         0         0         0
         0         0         0         0         0         0         0         0
         0         0         0         0         0         0         0         0
         0         0         0         0         0         0         0         0
         0         0         0         0         0         0         0         0
         0         0         0         0         0         0         0         0
         0         0         0         0         0         0         0         0
         0         0         0         0         0         0         0         0
         0         0         0         0         0         0         0         0
         0         0         0         0         0         0         0         0
         0         0         0         0         0         0         0         0
         0         0         0         0         0         0         0         0
         0         0         0         0         0         0         0         0
         0         0         0         0         0         0         0         0
         0         0         0         0         0         0         0         0
         0         0         0         0         0         0         0         0
         0         0         0         0         0         0         0         0
         0         0         0         0         0         0         0         0
         0         0         0         0         0         0         0         0
         0         0         0         0         0         0         0         0
         0         0         0         0         0         0         0         0
         0         0         0         0         0         0         0         0
         0         0         0         0         0         0         0         0
         0         0         0         0         0         0         0         0
         0         0         0         0         0         0         0         0
         0         0         0         0         0         0         0         0
         0         0         0         0         0         0         0         0
         0         0         0         0         0         0         0         0
         0         0         0         0         0         0         0         0
         0         0         0         0         0         0         0         0
         0         0         0         0         0         0         0         0
         0         0         0         0         0         0         0         0
         0         0         0         0         0         0         0         0
         0         0         0         0         0         0         0         0
         0         0         0         0         0         0         0         0
         0         0         0         0         0         0         0         0
         0         0         0         0         0         0         0         0
         0         0         0         0         0         0         0         0
         0         0         0         0         0         0         0         0
         0         0         0         0         0         0         0         0
         0         0         0         0         0         0         0         0
         0         0         0         0         0         0         0         0
         0         0         0         0         0         0         0         0
         0         0         0         0         0         0         0         0
         0         0         0         0         0         0         0         0
         0         0         0         0         0         0         0         0
         0         0         0         0         0         0         0         0
         0         0         0         0         0         0         0         0
         0         0         0         0         0         0         0         0
         0         0         0         0         0         0         0         0
         0         0         0         0         0         0         0         0
         0         0         0         0         0         0         0         0
         0         0         0         0         0         0         0         0
         0         0         0         0         0         0         0         0
         0         0         0         0         0         0         0         0
         0         0         0         0         0         0         0         0
         0         0         0         0         0         0         0         0
         0         0         0         0         0         0         0         0
         0         0         0         0         0         0         0         0
         0         0         0         0         0         0         0         0
         0         0         0         0         0         0         0         0
         0         0         0         0         0         0         0         0
         0         0         0         0         0         0         0         0
         0         0         0         0         0         0         0         0
         0         0         0         0         0         0         0         0
         0         0         0         0         0         0         0         0
         0         0         0         0         0         0         0         0
         0         0         0         0         0         0         0         0
         0         0         0         0         0         0         0         0
         0         0         0         0         0         0         0         0
         0         0         0         0         0         0         0         0
         0         0         0         0         0         0         0         0
         0         0         0         0         0         0         0         0
         0         0         0         0         0         0         0         0
         0         0         0         0         0         0         0         0
         0         0         0         0         0         0         0         0
         0         0         0         0         0         0         0         0
         0         0         0         0         0         0         0         0
         0         0         0         0         0         0         0         0
         0         0         0         0         0         0         0         0
         0         0         0         0         0         0         0         0
         0         0         0         0         0         0         0         0
         0         0         0         0         0         0         0         0
         0         0         0         0         0         0         0         0
         0         0         0         0         0         0         0         0
         0         0         0         0         0         0         0         0
         0         0         0         0         0         0         0         0
         0         0         0         0         0         0         0         0
         0         0         0         0         0         0         0         0
         0         0         0         0         0         0         0         0
         0         0         0         0         0         0         0         0
         0         0         0         0         0         0         0         0
         0         0         0         0         0         0         0         0
         0         0         0         0         0         0         0         0
         0         0         0         0         0         0         0         0
         0         0         0         0         0         0         0         0
         0         0         0         0         0         0         0         0
         0         0         0         0         0         0         0         0
         0         0         0         0         0         0         0         0
         0         0         0         0         0         0         0         0
         0         0         0         0         0         0         0         0
         0         0         0         0         0         0         0         0
         0         0         0         0         0         0         0         0
         0         0         0         0         0         0         0         0
         0         0         0         0         0         0         0         0
         0         0         0         0         0         0         0         0
         0         0         0         0         0         0         0         0
         0         0         0         0         0         0         0         0
         0         0         0         0         0         0         0         0
         0         0         0         0         0         0         0         0
         0         0         0         0         0         0         0         0
         0         0         0         0         0         0         0         0
         0         0         0         0         0         0         0         0
         0         0         0         0         0         0         0         0
         0         0         0         0         0         0         0         0
         0         0         0         0         0         0         0         0
         0         0         0         0         0         0         0         0
         0         0         0         0         0         0         0         0
         0         0         0         0         0         0         0         0
         0         0         0         0         0         0         0         0
         0         0         0         0         0         0         0         0
         0         0         0         0         0         0         0         0
         0         0         0         0         0         0         0         0
         0         0         0         0         0         0         0         0
         0         0         0         0         0         0         0         0
         0         0         0         0         0         0         0         0
         0         0         0         0         0         0         0         0
         0         0         0         0         0         0         0         0
         0         0         0         0         0         0         0         0
         0         0         0         0         0         0         0         0
         0         0         0         0         0         0         0         0
         0         0         0         0         0         0         0         0
         0         0         0         0         0         0         0         0
         0         0         0         0         0         0         0         0
         0         0         0         0         0         0         0         0
         0         0         0         0         0         0         0         0
         0         0         0         0         0         0         0         0
         0         0         0         0         0         0         0         0
         0         0         0         0         0         0         0         0
         0         0         0         0         0         0         0         0
         0         0         0         0         0         0         0         0
         0         0         0         0         0         0         0         0
         0         0         0         0         0         0         0         0
         0         0         0         0         0         0         0         0
         0         0         0         0         0         0         0         0
         0         0         0         0         0         0         0         0
         0         0         0         0         0         0         0         0
         0         0         0         0         0         0         0         0
         0         0         0         0         0         0         0         0
         0         0         0         0         0         0         0         0
         0         0         0         0         0         0         0         0
         0         0         0         0         0         0         0         0
         0         0         0         0         0         0         0         0
         0         0         0         0         0         0         0         0
         0         0         0         0         0         0         0         0
         0         0         0         0         0         0         0         0
         0         0         0         0         0         0         0         0
         0         0         0         0         0         0         0         0
         0         0         0         0         0         0         0         0
         0         0         0         0         0         0         0         0
         0         0         0         0         0         0         0         0
         0         0         0         0         0         0         0         0
         0         0         0         0         0         0         0         0
         0         0         0         0         0         0         0         0
         0         0         0         0         0         0         0         0
         0         0         0         0         0         0         0         0
         0         0         0         0         0         0         0         0
         0         0         0         0         0         0         0         0
         0         0         0         0         0         0         0         0
         0         0         0         0         0         0         0         0
         0         0         0         0         0         0         0         0
         0         0         0         0         0         0         0         0
         0         0         0         0         0         0         0         0
         0         0         0         0         0         0         0         0
         0         0         0         0         0         0         0         0
         0         0         0         0         0         0         0         0
         0         0         0         0         0         0         0         0
         0         0         0         0         0         0         0         0
         0         0         0         0         0         0         0         0
         0         0         0         0         0         0         0         0
         0         0         0         0         0         0         0         0
         0         0         0         0         0         0         0         0
         0         0         0         0         0         0         0         0
         0         0         0         0         0         0         0         0
         0         0         0         0         0         0         0         0
         0         0         0         0         0         0         0         0
         0         0         0         0         0         0         0         0
         0         0         0         0         0         0         0         0
         0         0         0         0         0         0         0         0
         0         0         0         0         0         0         0         0
         0         0         0         0         0         0         0         0
         0         0         0         0         0         0         0         0
         0         0         0         0         0         0         0         0
         0         0         0         0         0         0         0         0
         0         0         0         0         0         0         0         0
         0         0         0         0         0         0         0         0
         0         0         0         0         0         0         0         0
         0         0         0         0         0         0         0         0
         0         0         0         0         0         0         0         0
         0         0         0         0         0         0         0         0
         0         0         0         0         0         0         0         0
         0         0         0         0         0         0         0         0
         0         0         0         0         0         0         0         0
         0         0         0         0         0         0         0         0
         0         0         0         0         0         0         0         0
         0         0         0         0         0         0         0         0
         0         0         0         0         0         0         0         0
         0         0         0         0         0         0         0         0
         0         0         0         0         0         0         0         0
         0         0         0         0         0         0         0         0
         0         0         0         0         0         0         0         0
         0         0         0         0         0         0         0         0
         0         0         0         0         0         0         0         0
         0         0         0         0         0         0         0         0
         0         0         0         0         0         0         0         0
         0         0         0         0         0         0         0         0
         0         0         0         0         0         0         0         0
         0         0         0         0         0         0         0         0
         0         0         0         0         0         0         0         0
         0         0         0         0         0         0         0         0
         0         0         0         0         0         0         0         0
         0         0         0         0         0         0         0         0
         0         0         0         0         0         0         0         0
         0         0         0         0         0         0         0         0
         0         0         0         0         0         0         0         0
         0         0         0         0         0         0         0         0
         0         0         0         0         0         0         0         0
         0         0         0         0         0         0         0         0
         0         0         0         0         0         0         0         0
         0         0         0         0         0         0         0         0
         0         0         0         0         0         0         0         0
         0         0         0         0         0         0         0         0
         0         0         0         0         0         0         0         0
         0         0         0         0         0         0         0         0
         0         0         0         0         0         0         0         0
         0         0         0         0         0         0         0         0
         0         0         0         0         0         0         0         0
         0         0         0         0         0         0         0         0
         0         0         0         0         0         0         0         0
         0         0         0         0         0         0         0         0
         0         0         0         0         0         0         0         0
         0         0         0         0         0         0         0         0
         0         0         0         0         0         0         0         0
         0         0         0         0         0         0         0         0
         0         0         0         0         0         0         0         0
         0         0         0         0         0         0         0         0
         0         0         0         0         0         0         0         0
         0         0         0         0         0         0         0         0
         0         0         0         0         0         0         0         0
         0         0         0         0         0         0         0         0
         0         0         0         0         0         0         0         0
         0         0         0         0         0         0         0         0
         0         0         0         0         0         0         0         0
         0         0         0         0         0         0         0         0
         0         0         0         0         0         0         0         0
         0         0         0         0         0         0         0         0
         0         0         0         0         0         0         0         0
         0         0         0         0         0         0         0         0
         0         0         0         0         0         0         0         0
         0         0         0         0         0         0         0         0
         0         0         0         0         0         0         0         0
         0         0         0         0         0         0         0         0
         0         0         0         0         0         0         0         0
         0         0         0         0         0         0         0         0
         0         0         0         0         0         0         0         0
         0         0         0         0         0         0         0         0
         0         0         0         0         0         0         0         0
         0         0         0         0         0         0         0         0
         0         0         0         0         0         0         0         0
         0         0         0         0         0         0         0         0
         0         0         0         0         0         0         0         0
         0         0         0         0         0         0         0         0
         0         0         0         0         0         0         0         0
         0         0         0         0         0         0         0         0
         0         0         0         0         0         0         0         0
         0         0         0         0         0         0         0         0
         0         0         0         0         0         0         0         0
         0         0         0         0         0         0         0         0
         0         0         0         0         0         0         0         0
         0         0         0         0         0         0         0         0
         0         0         0         0         0         0         0         0
         0         0         0         0         0         0         0         0
         0         0         0         0         0         0         0         0
         0         0         0         0         0         0         0         0
         0         0         0         0         0         0         0         0
         0         0         0         0         0         0         0         0
         0         0         0         0         0         0         0         0
         0         0         0         0         0         0         0         0
         0         0         0         0         0         0         0         0
         0         0         0         0         0         0         0         0
         0         0         0         0         0         0         0         0
         0         0         0         0         0         0         0         0
         0         0         0         0         0         0         0         0
         0         0         0         0         0         0         0         0
         0         0         0         0         0         0         0         0
         0         0         0         0         0         0         0         0
         0         0         0         0         0         0         0         0
         0         0         0         0         0         0         0         0
         0         0         0         0         0         0         0         0
         0         0         0         0         0         0         0         0
         0         0         0         0         0         0         0         0
         0         0         0         0         0         0         0         0
         0         0         0         0         0         0         0         0
         0         0         0         0         0         0         0         0
         0         0         0         0         0         0         0         0
         0         0         0         0         0         0         0         0
         0         0         0         0         0         0         0         0
         0         0         0         0         0         0         0         0
         0         0         0         0         0         0         0         0
         0         0         0         0         0         0         0         0
         0         0         0         0         0         0         0         0
         0         0         0         0         0         0         0         0
         0         0         0         0         0         0         0         0
         0         0         0         0         0         0         0         0
         0         0         0         0         0         0         0         0
         0         0         0         0         0         0         0         0
         0         0         0         0         0         0         0         0
         0         0         0         0         0         0         0         0
         0         0         0         0         0         0         0         0
         0         0         0         0         0         0         0         0
         0         0         0         0         0         0         0         0
         0         0         0         0         0         0         0         0
         0         0         0         0         0         0         0         0
         0         0         0         0         0         0         0         0
         0         0         0         0         0         0         0         0
         0         0         0         0         0         0         0         0
         0         0         0         0         0         0         0         0
         0         0         0         0         0         0         0         0
         0         0         0         0         0         0         0         0
         0         0         0         0         0         0         0         0
         0         0         0         0         0         0         0         0
         0         0         0         0         0         0         0         0
         0         0         0         0         0         0         0         0
         0         0         0         0         0         0         0         0
         0         0         0         0         0         0         0         0
         0         0         0         0         0         0         0         0
         0         0         0         0         0         0         0         0
         0         0         0         0         0         0         0         0
         0         0         0         0         0         0         0         0
         0         0         0         0         0         0         0         0
         0         0         0         0         0         0         0         0
         0         0         0         0         0         0         0         0
         0         0         0         0         0         0         0         0
         0         0         0         0         0         0         0         0
         0         0         0         0         0         0         0         0
         0         0         0         0         0         0         0         0
         0         0         0         0         0         0         0         0
         0         0         0         0         0         0         0         0
         0         0         0         0         0         0         0         0
         0         0         0         0         0         0         0         0
         0         0         0         0         0         0         0         0
         0         0         0         0         0         0         0         0
         0         0         0         0         0         0         0         0
         0         0         0         0         0         0         0         0
         0         0         0         0         0         0         0         0
         0         0         0         0         0         0         0         0
         0         0         0         0         0         0         0         0
         0         0         0         0         0         0         0         0
         0         0         0         0         0         0         0         0
         0         0         0         0         0         0         0         0
         0         0         0         0         0         0         0         0
         0         0         0         0         0         0         0         0
         0         0         0         0         0         0         0         0
         0         0         0         0         0         0         0         0
         0         0         0         0         0         0         0         0
         0         0         0         0         0         0         0         0
         0         0         0         0         0         0         0         0
         0         0         0         0         0         0         0         0
         0         0         0         0         0         0         0         0
         0         0         0         0         0         0         0         0
         0         0         0         0         0         0         0         0
         0         0         0         0         0         0         0         0
         0         0         0         0         0         0         0         0
         0         0         0         0         0         0         0         0
         0         0         0         0         0         0         0         0
         0         0         0         0         0         0         0         0
         0         0         0         0         0         0         0         0
         0         0         0         0         0         0         0         0
         0         0         0         0         0         0         0         0
         0         0         0         0         0         0         0         0
         0         0         0         0         0         0         0         0
         0         0         0         0         0         0         0         0
         0         0         0         0         0         0         0         0
         0         0         0         0         0         0         0         0
         0         0         0         0         0         0         0         0
         0         0         0         0         0         0         0         0
         0         0         0         0         0         0         0         0
         0         0         0         0         0         0         0         0
         0         0         0         0         0         0         0         0
         0         0         0         0         0         0         0         0
         0         0         0         0         0         0         0         0
         0         0         0         0         0         0         0         0
         0         0         0         0         0         0         0         0
         0         0         0         0         0         0         0         0
         0         0         0         0         0         0         0         0
         0         0         0         0         0         0         0         0
         0         0         0         0         0         0         0         0
         0         0         0         0         0         0         0         0
         0         0         0         0         0         0         0         0
         0         0         0         0         0         0         0         0
         0         0         0         0         0         0         0         0
         0         0         0         0         0         0         0         0
         0         0         0         0         0         0         0         0
         0         0         0         0         0         0         0         0
         0         0         0         0         0         0         0         0
         0         0         0         0         0         0         0         0
         0         0         0         0         0         0         0         0
         0         0         0         0         0         0         0         0
         0         0         0         0         0         0         0         0
         0         0         0         0         0         0         0         0
         0         0         0         0         0         0         0         0
         0         0         0         0         0         0         0         0
         0         0         0         0         0         0         0         0
         0         0         0         0         0         0         0         0
         0         0         0         0         0         0         0         0
         0         0         0         0         0         0         0         0
         0         0         0         0         0         0         0         0
         0         0         0         0         0         0         0         0
         0         0         0         0         0         0         0         0
         0         0         0         0         0         0         0         0
         0         0         0         0         0         0         0         0
         0         0         0         0         0         0         0         0
         0         0         0         0         0         0         0         0
         0         0         0         0         0         0         0         0
         0         0         0         0         0         0         0         0
         0         0         0         0         0         0         0         0
         0         0         0         0         0         0         0         0
         0         0         0         0         0         0         0         0
         0         0         0         0         0         0         0         0
         0         0         0         0         0         0         0         0
         0         0         0         0         0         0         0         0
         0         0         0         0         0         0         0         0
         0         0         0         0         0         0         0         0
         0         0         0         0         0         0         0         0
         0         0         0         0         0         0         0         0
         0         0         0         0         0         0         0         0
         0         0         0         0         0         0         0         0
         0         0         0         0         0         0         0         0
         0         0         0         0         0         0         0         0
         0         0         0         0         0         0         0         0
         0         0         0         0         0         0         0         0
         0         0         0         0         0         0         0         0
         0         0         0         0         0         0         0         0
         0         0         0         0         0         0         0         0
         0         0         0         0         0         0         0         0
         0         0         0         0         0         0         0         0
         0         0         0         0         0         0         0         0
         0         0         0         0         0         0         0         0
         0         0         0         0         0         0         0         0
         0         0         0         0         0         0         0         0
         0         0         0         0         0         0         0         0
         0         0         0         0         0         0         0         0
         0         0         0         0         0         0         0         0
         0         0         0         0         0         0         0         0
         0         0         0         0         0         0         0         0
         0         0         0         0         0         0         0         0
         0         0         0         0         0         0         0         0
         0         0         0         0         0         0         0         0
         0         0         0         0         0         0         0         0
         0         0         0         0         0         0         0         0
         0         0         0         0         0         0         0         0
         0         0         0         0         0         0         0         0
         0         0         0         0         0         0         0         0
         0         0         0         0         0         0         0         0
         0         0         0         0         0         0         0         0
         0         0         0         0         0         0         0         0
         0         0         0         0         0         0         0         0
         0         0         0         0         0         0         0         0
         0         0         0         0         0         0         0         0
         0         0         0         0         0         0         0         0
         0         0         0         0         0         0         0         0
         0         0         0         0         0         0         0         0
         0         0         0         0         0         0         0         0
         0         0         0         0         0         0         0         0
         0         0         0         0         0         0         0         0
         0         0         0         0         0         0         0         0
         0         0         0         0         0         0         0         0
         0         0         0         0         0         0         0         0
         0         0         0         0         0         0         0         0
         0         0         0         0         0         0         0         0
         0         0         0         0         0         0         0         0
         0         0         0         0         0         0         0         0
         0         0         0         0         0         0         0         0
         0         0         0         0         0         0         0         0
         0         0         0         0         0         0         0         0
         0         0         0         0         0         0         0         0
         0         0         0         0         0         0         0         0
         0         0         0         0         0         0         0         0
         0         0         0         0         0         0         0         0
         0         0         0         0         0         0         0         0
         0         0         0         0         0         0         0         0
         0         0         0         0         0         0         0         0
         0         0         0         0         0         0         0         0
         0         0         0         0         0         0         0         0
         0         0         0         0         0         0         0         0
         0         0         0         0         0         0         0         0
         0         0         0         0         0         0         0         0
         0         0         0         0         0         0         0         0
         0         0         0         0         0         0         0         0
         0         0         0         0         0         0         0         0
         0         0         0         0         0         0         0         0
         0         0         0         0         0         0         0         0
         0         0         0         0         0         0         0         0
         0         0         0         0         0         0         0         0
         0         0         0         0         0         0         0         0
         0         0         0         0         0         0         0         0
         0         0         0         0         0         0         0         0
         0         0         0         0         0         0         0         0
         0         0         0         0         0         0         0         0
         0         0         0         0         0         0         0         0
         0         0         0         0         0         0         0         0
         0         0         0         0         0         0         0         0
         0         0         0         0         0         0         0         0
         0         0         0         0         0         0         0         0
         0         0         0         0         0         0         0         0
         0         0         0         0         0         0         0         0
         0         0         0         0         0         0         0         0
         0         0         0         0         0         0         0         0
         0         0         0         0         0         0         0         0
         0         0         0         0         0         0         0         0
         0         0         0         0         0         0         0         0
         0         0         0         0         0         0         0         0
         0         0         0         0         0         0         0         0
         0         0         0         0         0         0         0         0
         0         0         0         0         0         0         0         0
         0         0         0         0         0         0         0         0
         0         0         0         0         0         0         0         0
         0         0         0         0         0         0         0         0
         0         0         0         0         0         0         0         0
         0         0         0         0         0         0         0         0
         0         0         0         0         0         0         0         0
         0         0         0         0         0         0         0         0
         0         0         0         0         0         0         0         0
         0         0         0         0         0         0         0         0
         0         0         0         0         0         0         0         0
         0         0         0         0         0         0         0         0
         0         0         0         0         0         0         0         0
         0         0         0         0         0         0         0         0
         0         0         0         0         0         0         0         0
         0         0         0         0         0         0         0         0
         0         0         0         0         0         0         0         0
         0         0         0         0         0         0         0         0
         0         0         0         0         0         0         0         0
         0         0         0         0         0         0         0         0
         0         0         0         0         0         0         0         0
         0         0         0         0         0         0         0         0
         0         0         0         0         0         0         0         0
         0         0         0         0         0         0         0         0
         0         0         0         0         0         0         0         0
         0         0         0         0         0         0         0         0
         0         0         0         0         0         0         0         0
         0         0         0         0         0         0         0         0
         0         0         0         0         0         0         0         0
         0         0         0         0         0         0         0         0
         0         0         0         0         0         0         0         0
         0         0         0         0         0         0         0         0
         0         0         0         0         0         0         0         0
         0         0         0         0         0         0         0         0
         0         0         0         0         0         0         0         0
         0         0         0         0         0         0         0         0
         0         0         0         0         0         0         0         0
         0         0         0         0         0         0         0         0
         0         0         0         0         0         0         0         0
         0         0         0         0         0         0         0         0
         0         0         0         0         0         0         0         0
         0         0         0         0         0         0         0         0
         0         0         0         0         0         0         0         0
         0         0         0         0         0         0         0         0
         0         0         0         0         0         0         0         0
         0         0         0         0         0         0         0         0
         0         0         0         0         0         0         0         0
         0         0         0         0         0         0         0         0
         0         0         0         0         0         0         0         0
         0         0         0         0         0         0         0         0
         0         0         0         0         0         0         0         0
         0         0         0         0         0         0         0         0
         0         0         0         0         0         0         0         0
         0         0         0         0         0         0         0         0
         0         0         0         0         0         0         0         0
         0         0         0         0         0         0         0         0
         0         0         0         0         0         0         0         0
         0         0         0         0         0         0         0         0
         0         0         0         0         0         0         0         0
         0         0         0         0         0         0         0         0
         0         0         0         0         0         0         0         0
         0         0         0         0         0         0         0         0
         0         0         0         0         0         0         0         0
         0         0         0         0         0         0         0         0
         0         0         0         0         0         0         0         0
         0         0         0         0         0         0         0         0
         0         0         0         0         0         0         0         0
         0         0         0         0         0         0         0         0
         0         0         0         0         0         0         0         0
         0         0         0         0         0         0         0         0
         0         0         0         0         0         0         0         0
         0         0         0         0         0         0         0         0
         0         0         0         0         0         0         0         0
         0         0         0         0         0         0         0         0
         0         0         0         0         0         0         0         0
         0         0         0         0         0         0         0         0
         0         0         0         0         0         0         0         0
         0         0         0         0         0         0         0         0
         0         0         0         0         0         0         0         0
         0         0         0         0         0         0         0         0
         0         0         0         0         0         0         0         0
         0         0         0         0         0         0         0         0
         0         0         0         0         0         0         0         0
         0         0         0         0         0         0         0         0
         0         0         0         0         0         0         0         0
         0         0         0         0         0         0         0         0
         0         0         0         0         0         0         0         0
         0         0         0         0         0         0         0         0
         0         0         0         0         0         0         0         0
         0         0         0         0         0         0         0         0
         0         0         0         0         0         0         0         0
         0         0         0         0         0         0         0         0
         0         0         0         0         0         0         0         0
         0         0         0         0         0         0         0         0
         0         0         0         0         0         0         0         0
         0         0         0         0         0         0         0         0
         0         0         0         0         0         0         0         0
         0         0         0         0         0         0         0         0
         0         0         0         0         0         0         0         0
         0         0         0         0         0         0         0         0
         0         0         0         0         0         0         0         0
         0         0         0         0         0         0         0         0
         0         0         0         0         0         0         0         0
         0         0         0         0         0         0         0         0
         0         0         0         0         0         0         0         0
         0         0         0         0         0         0         0         0
         0         0         0         0         0         0         0         0
         0         0         0         0         0         0         0         0
         0         0         0         0         0         0         0         0
         0         0         0         0         0         0         0         0
         0         0         0         0         0         0         0         0
         0         0         0         0         0         0         0         0
         0         0         0         0         0         0         0         0
         0         0         0         0         0         0         0         0
         0         0         0         0         0         0         0         0
         0         0         0         0         0         0         0         0
         0         0         0         0         0         0         0         0
         0         0         0         0         0         0         0         0
         0         0         0         0         0         0         0         0
         0         0         0         0         0         0         0         0
         0         0         0         0         0         0         0         0
         0         0         0         0         0         0         0         0
         0         0         0         0         0         0         0         0
         0         0         0         0         0         0         0         0
         0         0         0         0         0         0         0         0
         0         0         0         0         0         0         0         0
         0         0         0         0         0         0         0         0
         0         0         0         0         0         0         0         0
         0         0         0         0         0         0         0         0
         0         0         0         0         0         0         0         0
         0         0         0         0         0         0         0         0
         0         0         0         0         0         0         0         0
         0         0         0         0         0         0         0         0
         0         0         0         0         0         0         0         0
         0         0         0         0         0         0         0         0
         0         0         0         0         0         0         0         0
         0         0         0         0         0         0         0         0
         0         0         0         0         0         0         0         0
         0         0         0         0         0         0         0         0
         0         0         0         0         0         0         0         0
         0         0         0         0         0         0         0         0
         0         0         0         0         0         0         0         0
         0         0         0         0         0         0         0         0
         0         0         0         0         0         0         0         0
         0         0         0         0         0         0         0         0
         0         0         0         0         0         0         0         0
         0         0         0         0         0         0         0         0
         0         0         0         0         0         0         0         0
         0         0         0         0         0         0         0         0
         0         0         0         0         0         0         0         0
         0         0         0         0         0         0         0         0
         0         0         0         0         0         0         0         0
         0         0         0         0         0         0         0         0
         0         0         0         0         0         0         0         0
         0         0         0         0         0         0         0         0
         0         0         0         0         0         0         0         0
         0         0         0         0         0         0         0         0
         0         0         0         0         0         0         0         0
         0         0         0         0         0         0         0         0
         0         0         0         0         0         0         0         0
         0         0         0         0         0         0         0         0
         0         0         0         0         0         0         0         0
         0         0         0         0         0         0         0         0
         0         0         0         0         0         0         0         0
         0         0         0         0         0         0         0         0
         0         0         0         0         0         0         0         0
         0         0         0         0         0         0         0         0
         0         0         0         0         0         0         0         0
         0         0         0         0         0         0         0         0
         0         0         0         0         0         0         0         0
         0         0         0         0         0         0         0         0
         0         0         0         0         0         0         0         0
         0         0         0         0         0         0         0         0
         0         0         0         0         0         0         0         0
         0         0         0         0         0         0         0         0
         0         0         0         0         0         0         0         0
         0         0         0         0         0         0         0         0
         0         0         0         0         0         0         0         0
         0         0         0         0         0         0         0         0
         0         0         0         0         0         0         0         0
         0         0         0         0         0         0         0         0
         0         0         0         0         0         0         0         0
         0         0         0         0         0         0         0         0
         0         0         0         0         0         0         0         0
         0         0         0         0         0         0         0         0
         0         0         0         0         0         0         0         0
         0         0         0         0         0         0         0         0
         0         0         0         0         0         0         0         0
         0         0         0         0         0         0         0         0
         0         0         0         0         0         0         0         0
         0         0         0         0         0         0         0         0
         0         0         0         0         0         0         0         0
         0         0         0         0         0         0         0         0
         0         0         0         0         0         0         0         0
         0         0         0         0         0         0         0         0
         0         0         0         0         0         0         0         0
         0         0         0         0         0         0         0         0
         0         0         0         0         0         0         0         0
         0         0         0         0         0         0         0         0
         0         0         0         0         0         0         0         0
         0         0         0         0         0         0         0         0
         0         0         0         0         0         0         0         0
         0         0         0         0         0         0         0         0
         0         0         0         0         0         0         0         0
         0         0         0         0         0         0         0         0
         0         0         0         0         0         0         0         0
         0         0         0         0         0         0         0         0
         0         0         0         0         0         0         0         0
         0         0         0         0         0         0         0         0
         0         0         0         0         0         0         0         0
         0         0         0         0         0         0         0         0
         0         0         0         0         0         0         0         0
         0         0         0         0         0         0         0         0
         0         0         0         0         0         0         0         0
         0         0         0         0         0         0         0         0
         0         0         0         0         0         0         0         0
         0         0         0         0         0         0         0         0
         0         0         0         0         0         0         0         0
         0         0         0         0         0         0         0         0
         0         0         0         0         0         0         0         0
         0         0         0         0         0         0         0         0
         0         0         0         0         0         0         0         0
         0         0         0         0         0         0         0         0
         0         0         0         0         0         0         0         0
         0         0         0         0         0         0         0         0
         0         0         0         0         0         0         0         0
         0         0         0         0         0         0         0         0
         0         0         0         0         0         0         0         0
         0         0         0         0         0         0         0         0
         0         0         0         0         0         0         0         0
         0         0         0         0         0         0         0         0
         0         0         0         0         0         0         0         0
         0         0         0         0         0         0         0         0
         0         0         0         0         0         0         0         0
         0         0         0         0         0         0         0         0
         0         0         0         0         0         0         0         0
         0         0         0         0         0         0         0         0
         0         0         0         0         0         0         0         0
         0         0         0         0         0         0         0         0
         0         0         0         0         0         0         0         0
         0         0         0         0         0         0         0         0
         0         0         0         0         0         0         0         0
         0         0         0         0         0         0         0         0
         0         0         0         0         0         0         0         0
         0         0         0         0         0         0         0         0
         0         0         0         0         0         0         0         0
         0         0         0         0         0         0         0         0
         0         0         0         0         0         0         0         0
         0         0         0         0         0         0         0         0
         0         0         0         0         0         0         0         0
         0         0         0         0         0         0         0         0
         0         0         0         0         0         0         0         0
         0         0         0         0         0         0         0         0
         0         0         0         0         0         0         0         0
         0         0         0         0         0         0         0         0
         0         0         0         0         0         0         0         0
         0         0         0         0         0         0         0         0
         0         0         0         0         0         0         0         0
         0         0         0         0         0         0         0         0
         0         0         0         0         0         0         0         0
         0         0         0         0         0         0         0         0
         0         0         0         0         0         0         0         0
         0         0         0         0         0         0         0         0
         0         0         0         0         0         0         0         0
         0         0         0         0         0         0         0         0
         0         0         0         0         0         0         0         0
         0         0         0         0         0         0         0         0
         0         0         0         0         0         0         0         0
         0         0         0         0         0         0         0         0
         0         0         0         0         0         0         0         0
         0         0         0         0         0         0         0         0
         0         0         0         0         0         0         0         0
         0         0         0         0         0         0         0         0
         0         0         0         0         0         0         0         0
         0         0         0         0         0         0         0         0
         0         0         0         0         0         0         0         0
         0         0         0         0         0         0         0         0
         0         0         0         0         0         0         0         0
         0         0         0         0         0         0         0         0
         0         0         0         0         0         0         0         0
         0         0         0         0         0         0         0         0
         0         0         0         0         0         0         0         0
         0         0         0         0         0         0         0         0
         0         0         0         0         0         0         0         0
         0         0         0         0         0         0         0         0
         0         0         0         0         0         0         0         0
         0         0         0         0         0         0         0         0
         0         0         0         0         0         0         0         0
         0         0         0         0         0         0         0         0
         0         0         0         0         0         0         0         0
         0         0         0         0         0         0         0         0
         0         0         0         0         0         0         0         0
         0         0         0         0         0         0         0         0
         0         0         0         0         0         0         0         0
         0         0         0         0         0         0         0         0
         0         0         0         0         0         0         0         0
         0         0         0         0         0         0         0         0
         0         0         0         0         0         0         0         0
         0         0         0         0         0         0         0         0
         0         0         0         0         0         0         0         0
         0         0         0         0         0         0         0         0
         0         0         0         0         0         0         0         0
         0         0         0         0         0         0         0         0
         0         0         0         0         0         0         0         0
         0         0         0         0         0         0         0         0
         0         0         0         0         0         0         0         0
         0         0         0         0         0         0         0         0
         0         0         0         0         0         0         0         0
         0         0         0         0         0         0         0         0
         0         0         0         0         0         0         0         0
         0         0         0         0         0         0         0         0
         0         0         0         0         0         0         0         0
         0         0         0         0         0         0         0         0
         0         0         0         0         0         0         0         0
         0         0         0         0         0         0         0         0
         0         0         0         0         0         0         0         0
         0         0         0         0         0         0         0         0
         0         0         0         0         0         0         0         0
         0         0         0         0         0         0         0         0
         0         0         0         0         0         0         0         0
         0         0         0         0         0         0         0         0
         0         0         0         0         0         0         0         0
         0         0         0         0         0         0         0         0
         0         0         0         0         0         0         0         0
         0         0         0         0         0         0         0         0
         0         0         0         0         0         0         0         0
         0         0         0         0         0         0         0         0
         0         0         0         0         0         0         0         0
         0         0         0         0         0         0         0         0
         0         0         0         0         0         0         0         0
         0         0         0         0         0         0         0         0
         0         0         0         0         0         0         0         0
         0         0         0         0         0         0         0         0
         0         0         0         0         0         0         0         0
         0         0         0         0         0         0         0         0
         0         0         0         0         0         0         0         0
         0         0         0         0         0         0         0         0
         0         0         0         0         0         0         0         0
         0         0         0         0         0         0         0         0
         0         0         0         0         0         0         0         0
         0         0         0         0         0         0         0         0
         0         0         0         0         0         0         0         0
         0         0         0         0         0         0         0         0
         0         0         0         0         0         0         0         0
         0         0         0         0         0         0         0         0
         0         0         0         0         0         0         0         0
         0         0         0         0         0         0         0         0
         0         0         0         0         0         0         0         0
         0         0         0         0         0         0         0         0
         0         0         0         0         0         0         0         0
         0         0         0         0         0         0         0         0
         0         0         0         0         0         0         0         0
         0         0         0         0         0         0         0         0
         0         0         0         0         0         0         0         0
         0         0         0         0         0         0         0         0
         0         0         0         0         0         0         0         0
         0         0         0         0         0         0         0         0
         0         0         0         0         0         0         0         0
         0         0         0         0         0         0         0         0
         0         0         0         0         0         0         0         0
         0         0         0         0         0         0         0         0
         0         0         0         0         0         0         0         0
         0         0         0         0         0         0         0         0
         0         0         0         0         0         0         0         0
         0         0         0         0         0         0         0         0
         0         0         0         0         0         0         0         0
         0         0         0         0         0         0         0         0
         0         0         0         0         0         0         0         0
         0         0         0         0         0         0         0         0
         0         0         0         0         0         0         0         0
         0         0         0         0         0         0         0         0
         0         0         0         0         0         0         0         0
         0         0         0         0         0         0         0         0
         0         0         0         0         0         0         0         0
         0         0         0         0         0         0         0         0
         0         0         0         0         0         0         0         0
         0         0         0         0         0         0         0         0
         0         0         0         0         0         0         0         0
         0         0         0         0         0         0         0         0
         0         0         0         0         0         0         0         0
         0         0         0         0         0         0         0         0
         0         0         0         0         0         0         0         0
         0         0         0         0         0         0         0         0
         0         0         0         0         0         0         0         0
         0         0         0         0         0         0         0         0
         0         0         0         0         0         0         0         0
         0         0         0         0         0         0         0         0
         0         0         0         0         0         0         0         0
         0         0         0         0         0         0         0         0
         0         0         0         0         0         0         0         0
         0         0         0         0         0         0         0         0
         0         0         0         0         0         0         0         0
         0         0         0         0         0         0         0         0
         0         0         0         0         0         0         0         0
         0         0         0         0         0         0         0         0
         0         0         0         0         0         0         0         0
         0         0         0         0         0         0         0         0
         0         0         0         0         0         0         0         0
         0         0         0         0         0         0         0         0
         0         0         0         0         0         0         0         0
         0         0         0         0         0         0         0         0
         0         0         0         0         0         0         0         0
         0         0         0         0         0         0         0         0
         0         0         0         0         0         0         0         0
         0         0         0         0         0         0         0         0
         0         0         0         0         0         0         0         0
         0         0         0         0         0         0         0         0
         0         0         0         0         0         0         0         0
         0         0         0         0         0         0         0         0
         0         0         0         0         0         0         0         0
         0         0         0         0         0         0         0         0
         0         0         0         0         0         0         0         0
         0         0         0         0         0         0         0         0
         0         0         0         0         0         0         0         0
         0         0         0         0         0         0         0         0
         0         0         0         0         0         0         0         0
         0         0         0         0         0         0         0         0
         0         0         0         0         0         0         0         0
         0         0         0         0         0         0         0         0
         0         0         0         0         0         0         0         0
         0         0         0         0         0         0         0         0
         0         0         0         0         0         0         0         0
         0         0         0         0         0         0         0         0
         0         0         0         0         0         0         0         0
         0         0         0         0         0         0         0         0
         0         0         0         0         0         0         0         0
         0         0         0         0         0         0         0         0
         0         0         0         0         0         0         0         0
         0         0         0         0         0         0         0         0
         0         0         0         0         0         0         0         0
         0         0         0         0         0         0         0         0
         0         0         0         0         0         0         0         0
         0         0         0         0         0         0         0         0
         0         0         0         0         0         0         0         0
         0         0         0         0         0         0         0         0
         0         0         0         0         0         0         0         0
         0         0         0         0         0         0         0         0
         0         0         0         0         0         0         0         0
         0         0         0         0         0         0         0         0
         0         0         0         0         0         0         0         0
         0         0         0         0         0         0         0         0
         0         0         0         0         0         0         0         0
         0         0         0         0         0         0         0         0
         0         0         0         0         0         0         0         0
         0         0         0         0         0         0         0         0
         0         0         0         0         0         0         0         0
         0         0         0         0         0         0         0         0
         0         0         0         0         0         0         0         0
         0         0         0         0         0         0         0         0
         0         0         0         0         0         0         0         0
         0         0         0         0         0         0         0         0
         0         0         0         0         0         0         0         0
         0         0         0         0         0         0         0         0
         0         0         0         0         0         0         0         0
         0         0         0         0         0         0         0         0
         0         0         0         0         0         0         0         0
         0         0         0         0         0         0         0         0
         0         0         0         0         0         0         0         0
         0         0         0         0         0         0         0         0
         0         0         0         0         0         0         0         0
         0         0         0         0         0         0         0         0
         0         0         0         0         0         0         0         0
         0         0         0         0         0         0         0         0
         0         0         0         0         0         0         0         0
         0         0         0         0         0         0         0         0
         0         0         0         0         0         0         0         0
         0         0         0         0         0         0         0         0
         0         0         0         0         0         0         0         0
         0         0         0         0         0         0         0         0
         0         0         0         0         0         0         0         0
         0         0         0         0         0         0         0         0
         0         0         0         0         0         0         0         0
         0         0         0         0         0         0         0         0
         0         0         0         0         0         0         0         0
         0         0         0         0         0         0         0         0
         0         0         0         0         0         0         0         0
         0         0         0         0         0         0         0         0
         0         0         0         0         0         0         0         0
         0         0         0         0         0         0         0         0
         0         0         0         0         0         0         0         0
         0         0         0         0         0         0         0         0
         0         0         0         0         0         0         0         0
         0         0         0         0         0         0         0         0
         0         0         0         0         0         0         0         0
         0         0         0         0         0         0         0         0
         0         0         0         0         0         0         0         0
         0         0         0         0         0         0         0         0
         0         0         0         0         0         0         0         0
         0         0         0         0         0         0         0         0
         0         0         0         0         0         0         0         0
         0         0         0         0         0         0         0         0
         0         0         0         0         0         0         0         0
         0         0         0         0         0         0         0         0
         0         0         0         0         0         0         0         0
         0         0         0         0         0         0         0         0
         0         0         0         0         0         0         0         0
         0         0         0         0         0         0         0         0
         0         0         0         0         0         0         0         0
         0         0         0         0         0         0         0         0
         0         0         0         0         0         0         0         0
         0         0         0         0         0         0         0         0
         0         0         0         0         0         0         0         0
         0         0         0         0         0         0         0         0
         0         0         0         0         0         0         0         0
         0         0         0         0         0         0         0         0
         0         0         0         0         0         0         0         0
         0         0         0         0         0         0         0         0
         0         0         0         0         0         0         0         0
         0         0         0         0         0         0         0         0
         0         0         0         0         0         0         0         0
         0         0         0         0         0         0         0         0
         0         0         0         0         0         0         0         0
         0         0         0         0         0         0         0         0
         0         0         0         0         0         0         0         0
         0         0         0         0         0         0         0         0
         0         0         0         0         0         0         0         0
         0         0         0         0         0         0         0         0
         0         0         0         0         0         0         0         0
         0         0         0         0         0         0         0         0
         0         0         0         0         0         0         0         0
         0         0         0         0         0         0         0         0
         0         0         0         0         0         0         0         0
         0         0         0         0         0         0         0         0
         0         0         0         0         0         0         0         0
         0         0         0         0         0         0         0         0
         0         0         0         0         0         0         0         0
         0         0         0         0         0         0         0         0
         0         0         0         0         0         0         0         0
         0         0         0         0         0         0         0         0
         0         0         0         0         0         0         0         0
         0         0         0         0         0         0         0         0
         0         0         0         0         0         0         0         0
         0         0         0         0         0         0         0         0
         0         0         0         0         0         0         0         0
         0         0         0         0         0         0         0         0
         0         0         0         0         0         0         0         0
         0         0         0         0         0         0         0         0
         0         0         0         0         0         0         0         0
         0         0         0         0         0         0         0         0
         0         0         0         0         0         0         0         0
         0         0         0         0         0         0         0         0
         0         0         0         0         0         0         0         0
         0         0         0         0         0         0         0         0
         0         0         0         0         0         0         0         0
         0         0         0         0         0         0         0         0
         0         0         0         0         0         0         0         0
         0         0         0         0         0         0         0         0
         0         0         0         0         0         0         0         0
         0         0         0         0         0         0         0         0
         0         0         0         0         0         0         0         0
         0         0         0         0         0         0         0         0
         0         0         0         0         0         0         0         0
         0         0         0         0         0         0         0         0
         0         0         0         0         0         0         0         0
         0         0         0         0         0         0         0         0
         0         0         0         0         0         0         0         0
         0         0         0         0         0         0         0         0
         0         0         0         0         0         0         0         0
         0         0         0         0         0         0         0         0
         0         0         0         0         0         0         0         0
         0         0         0         0         0         0         0         0
         0         0         0         0         0         0         0         0
         0         0         0         0         0         0         0         0
         0         0         0         0         0         0         0         0
         0         0         0         0         0         0         0         0
         0         0         0         0         0         0         0         0
         0         0         0         0         0         0         0         0
         0         0         0         0         0         0         0         0
         0         0         0         0         0         0         0         0
         0         0         0         0         0         0         0         0
         0         0         0         0         0         0         0         0
         0         0         0         0         0         0         0         0
         0         0         0         0         0         0         0         0
         0         0         0         0         0         0         0         0
         0         0         0         0         0         0         0         0
         0         0         0         0         0         0         0         0
         0         0         0         0         0         0         0         0
         0         0         0         0         0         0         0         0
         0         0         0         0         0         0         0         0
         0         0         0         0         0         0         0         0
         0         0         0         0         0         0         0         0
         0         0         0         0         0         0         0         0
         0         0         0         0         0         0         0         0
         0         0         0         0         0         0         0         0
         0         0         0         0         0         0         0         0
         0         0         0         0         0         0         0         0
         0         0         0         0         0         0         0         0
         0         0         0         0         0         0         0         0
         0         0         0         0         0         0         0         0
         0         0         0         0         0         0         0         0
         0         0         0         0         0         0         0         0
         0         0         0         0         0         0         0         0
         0         0         0         0         0         0         0         0
         0         0         0         0         0         0         0         0
         0         0         0         0         0         0         0         0
         0         0         0         0         0         0         0         0
         0         0         0         0         0         0         0         0
         0         0         0         0         0         0         0         0
         0         0         0         0         0         0         0         0
         0         0         0         0         0         0         0         0
         0         0         0         0         0         0         0         0
         0         0         0         0         0         0         0         0
         0         0         0         0         0         0         0         0
         0         0         0         0         0         0         0         0
         0         0         0         0         0         0         0         0
         0         0         0         0         0         0         0         0
         0         0         0         0         0         0         0         0
         0         0         0         0         0         0         0         0
         0         0         0         0         0         0         0         0
         0         0         0         0         0         0         0         0
         0         0         0         0         0         0         0         0
         0         0         0         0         0         0         0         0
         0         0         0         0         0         0         0         0
         0         0         0         0         0         0         0         0
         0         0         0         0         0         0         0         0
         0         0         0         0         0         0         0         0
         0         0         0         0         0         0         0         0
         0         0         0         0         0         0         0         0
         0         0         0         0         0         0         0         0
         0         0         0         0         0         0         0         0
         0         0         0         0         0         0         0         0
         0         0         0         0         0         0         0         0
         0         0         0         0         0         0         0         0
         0         0         0         0         0         0         0         0
         0         0         0         0         0         0         0         0
         0         0         0         0         0         0         0         0
         0         0         0         0         0         0         0         0
         0         0         0         0         0         0         0         0
         0         0         0         0         0         0         0         0
         0         0         0         0         0         0         0         0
         0         0         0         0         0         0         0         0
         0         0         0         0         0         0         0         0
         0         0         0         0         0         0         0         0
         0         0         0         0         0         0         0         0
         0         0         0         0         0         0         0         0
         0         0         0         0         0         0         0         0
         0         0         0         0         0         0         0         0
         0         0         0         0         0         0         0         0
         0         0         0         0         0         0         0         0
         0         0         0         0         0         0         0         0
         0         0         0         0         0         0         0         0
         0         0         0         0         0         0         0         0
         0         0         0         0         0         0         0         0
         0         0         0         0         0         0         0         0
         0         0         0         0         0         0         0         0
         0         0         0         0         0         0         0         0
         0         0         0         0         0         0         0         0
         0         0         0         0         0         0         0         0
         0         0         0         0         0         0         0         0
         0         0         0         0         0         0         0         0
         0         0         0         0         0         0         0         0
         0         0         0         0         0         0         0         0
         0         0         0         0         0         0         0         0
         0         0         0         0         0         0         0         0
         0         0         0         0         0         0         0         0
         0         0         0         0         0         0         0         0
         0         0         0         0         0         0         0         0
         0         0         0         0         0         0         0         0
         0         0         0         0         0         0         0         0
         0         0         0         0         0         0         0         0
         0         0         0         0         0         0         0         0
         0         0         0         0         0         0         0         0
         0         0         0         0         0         0         0         0
         0         0         0         0         0         0         0         0
         0         0         0         0         0         0         0         0
         0         0         0         0         0         0         0         0
         0         0         0         0         0         0         0         0
         0         0         0         0         0         0         0         0
         0         0         0         0         0         0         0         0
         0         0         0         0         0         0         0         0
         0         0         0         0         0         0         0         0
         0         0         0         0         0         0         0         0
         0         0         0         0         0         0         0         0
         0         0         0         0         0         0         0         0
         0         0         0         0         0         0         0         0
         0         0         0         0         0         0         0         0
         0         0         0         0         0         0         0         0
         0         0         0         0         0         0         0         0
         0         0         0         0         0         0         0         0
         0         0         0         0         0         0         0         0
         0         0         0         0         0         0         0         0
         0         0         0         0         0         0         0         0
         0         0         0         0         0         0         0         0
         0         0         0         0         0         0         0         0
         0         0         0         0         0         0         0         0
         0         0         0         0         0         0         0         0
         0         0         0         0         0         0         0         0
         0         0         0         0         0         0         0         0
         0         0         0         0         0         0         0         0
         0         0         0         0         0         0         0         0
         0         0         0         0         0         0         0         0
         0         0         0         0         0         0         0         0
         0         0         0         0         0         0         0         0
         0         0         0         0         0         0         0         0
         0         0         0         0         0         0         0         0
         0         0         0         0         0         0         0         0
         0         0         0         0         0         0         0         0
         0         0         0         0         0         0         0         0
         0         0         0         0         0         0         0         0
         0         0         0         0         0         0         0         0
         0         0         0         0         0         0         0         0
         0         0         0         0         0         0         0         0
         0         0         0         0         0         0         0         0
         0         0         0         0         0         0         0         0
         0         0         0         0         0         0         0         0
         0         0         0         0         0         0         0         0
         0         0         0         0         0         0         0         0
         0         0         0         0         0         0         0         0
         0         0         0         0         0         0         0         0
         0         0         0         0         0         0         0         0
         0         0         0         0         0         0         0         0
         0         0         0         0         0         0         0         0
         0         0         0         0         0         0         0         0
         0         0         0         0         0         0         0         0
         0         0         0         0         0         0         0         0
         0         0         0         0         0         0         0         0
         0         0         0         0         0         0         0         0
         0         0         0         0         0         0         0         0
         0         0         0         0         0         0         0         0
         0         0         0         0         0         0         0         0
         0         0         0         0         0         0         0         0
         0         0         0         0         0         0         0         0
         0         0         0         0         0         0         0         0
         0         0         0         0         0         0         0         0
         0         0         0         0         0         0         0         0
         0         0         0         0         0         0         0         0
         0         0         0         0         0         0         0         0
         0         0         0         0         0         0         0         0
         0         0         0         0         0         0         0         0
         0         0         0         0         0         0         0         0
         0         0         0         0         0         0         0         0
         0         0         0         0         0         0         0         0
         0         0         0         0         0         0         0         0
         0         0         0         0         0         0         0         0
         0         0         0         0         0         0         0         0
         0         0         0         0         0         0         0         0
         0         0         0         0         0         0         0         0
         0         0         0         0         0         0         0         0
         0         0         0         0         0         0         0         0
         0         0         0         0         0         0         0         0
         0         0         0         0         0         0         0         0
         0         0         0         0         0         0         0         0
         0         0         0         0         0         0         0         0
         0         0         0         0         0         0         0         0
         0         0         0         0         0         0         0         0
         0         0         0         0         0         0         0         0
         0         0         0         0         0         0         0         0
         0         0         0         0         0         0         0         0
         0         0         0         0         0         0         0         0
         0         0         0         0         0         0         0         0
         0         0         0         0         0         0         0         0
         0         0         0         0         0         0         0         0
         0         0         0         0         0         0         0         0
         0         0         0         0         0         0         0         0
         0         0         0         0         0         0         0         0
         0         0         0         0         0         0         0         0
         0         0         0         0         0         0         0         0
         0         0         0         0         0         0         0         0
         0         0         0         0         0         0         0         0
         0         0         0         0         0         0         0         0
         0         0         0         0         0         0         0         0
         0         0         0         0         0         0         0         0
         0         0         0         0         0         0         0         0
         0         0         0         0         0         0         0         0
         0         0         0         0         0         0         0         0
         0         0         0         0         0         0         0         0
         0         0         0         0         0         0         0         0
         0         0         0         0         0         0         0         0
         0         0         0         0         0         0         0         0
         0         0         0         0         0         0         0         0
         0         0         0         0         0         0         0         0
         0         0         0         0         0         0         0         0
         0         0         0         0         0         0         0         0
         0         0         0         0         0         0         0         0
         0         0         0         0         0         0         0         0
         0         0         0         0         0         0         0         0
         0         0         0         0         0         0         0         0
         0         0         0         0         0         0         0         0
         0         0         0         0         0         0         0         0
         0         0         0         0         0         0         0         0
         0         0         0         0         0         0         0         0
         0         0         0         0         0         0         0         0
         0         0         0         0         0         0         0         0
         0         0         0         0         0         0         0         0
         0         0         0         0         0         0         0         0
         0         0         0         0         0         0         0         0
         0         0         0         0         0         0         0         0
         0         0         0         0         0         0         0         0
         0         0         0         0         0         0         0         0
         0         0         0         0         0         0         0         0
         0         0         0         0         0         0         0         0
         0         0         0         0         0         0         0         0
         0         0         0         0         0         0         0         0
         0         0         0         0         0         0         0         0
         0         0         0         0         0         0         0         0
         0         0         0         0         0         0         0         0
         0         0         0         0         0         0         0         0
         0         0         0         0         0         0         0         0
         0         0         0         0         0         0         0         0
         0         0         0         0         0         0         0         0
         0         0         0         0         0         0         0         0
         0         0         0         0         0         0         0         0
         0         0         0         0         0         0         0         0
         0         0         0         0         0         0         0         0
         0         0         0         0         0         0         0         0
         0         0         0         0         0         0         0         0
         0         0         0         0         0         0         0         0
         0         0         0         0         0         0         0         0
         0         0         0         0         0         0         0         0
         0         0         0         0         0         0         0         0
         0         0         0         0         0         0         0         0
         0         0         0         0         0         0         0         0
         0         0         0         0         0         0         0         0
         0         0         0         0         0         0         0         0
         0         0         0         0         0         0         0         0
         0         0         0         0         0         0         0         0
         0         0         0         0         0         0         0         0
         0         0         0         0         0         0         0         0
         0         0         0         0         0         0         0         0
         0         0         0         0         0         0         0         0
         0         0         0         0         0         0         0         0
         0         0         0         0         0         0         0         0
         0         0         0         0         0         0         0         0
         0         0         0         0         0         0         0         0
         0         0         0         0         0         0         0         0
         0         0         0         0         0         0         0         0
         0         0         0         0         0         0         0         0
         0         0         0         0         0         0         0         0
         0         0         0         0         0         0         0         0
         0         0         0         0         0         0         0         0
         0         0         0         0         0         0         0         0
         0         0         0         0         0         0         0         0
         0         0         0         0         0         0         0         0
         0         0         0         0         0         0         0         0
         0         0         0         0         0         0         0         0
         0         0         0         0         0         0         0         0
         0         0         0         0         0         0         0         0
         0         0         0         0         0         0         0         0
         0         0         0         0         0         0         0         0
         0         0         0         0         0         0         0         0
         0         0         0         0         0         0         0         0
         0         0         0         0         0         0         0         0
         0         0         0         0         0         0         0         0
         0         0         0         0         0         0         0         0
         0         0         0         0         0         0         0         0
         0         0         0         0         0         0         0         0
         0         0         0         0         0         0         0         0
         0         0         0         0         0         0         0         0
         0         0         0         0         0         0         0         0
         0         0         0         0         0         0         0         0
         0         0         0         0         0         0         0         0
         0         0         0         0         0         0         0         0
         0         0         0         0         0         0         0         0
         0         0         0         0         0         0         0         0
         0         0         0         0         0         0         0         0
         0         0         0         0         0         0         0         0
         0         0         0         0         0         0         0         0
         0         0         0         0         0         0         0         0
         0         0         0         0         0         0         0         0
         0         0         0         0         0         0         0         0
         0         0         0         0         0         0         0         0
         0         0         0         0         0         0         0         0
         0         0         0         0         0         0         0         0
         0         0         0         0         0         0         0         0
         0         0         0         0         0         0         0         0
         0         0         0         0         0         0         0         0
         0         0         0         0         0         0         0         0
         0         0         0         0         0         0         0         0
         0         0         0         0         0         0         0         0
         0         0         0         0         0         0         0         0
         0         0         0         0         0         0         0         0
         0         0         0         0         0         0         0         0
         0         0         0         0         0         0         0         0
         0         0         0         0         0         0         0         0
         0         0         0         0         0         0         0         0
         0         0         0         0         0         0         0         0
         0         0         0         0         0         0         0         0
         0         0         0         0         0         0         0         0
         0         0         0         0         0         0         0         0
         0         0         0         0         0         0         0         0
         0         0         0         0         0         0         0         0
         0         0         0         0         0         0         0         0
         0         0         0         0         0         0         0         0
         0         0         0         0         0         0         0         0
         0         0         0         0         0         0         0         0
         0         0         0         0         0         0         0         0
         0         0         0         0         0         0         0         0
         0         0         0         0         0         0         0         0
         0         0         0         0         0         0         0         0
         0         0         0         0         0         0         0         0
         0         0         0         0         0         0         0         0
         0         0         0         0         0         0         0         0
         0         0         0         0         0         0         0         0
         0         0         0         0         0         0         0         0
         0         0         0         0         0         0         0         0
         0         0         0         0         0         0         0         0
         0         0         0         0         0         0         0         0
         0         0         0         0         0         0         0         0
         0         0         0         0         0         0         0         0
         0         0         0         0         0         0         0         0
         0         0         0         0         0         0         0         0
         0         0         0         0         0         0         0         0
         0         0         0         0         0         0         0         0
         0         0         0         0         0         0         0         0
         0         0         0         0         0         0         0         0
         0         0         0         0         0         0         0         0
         0         0         0         0         0         0         0         0
         0         0         0         0         0         0         0         0
         0         0         0         0         0         0         0         0
         0         0         0         0         0         0         0         0
         0         0         0         0         0         0         0         0
         0         0         0         0         0         0         0         0
         0         0         0         0         0         0         0         0
         0         0         0         0         0         0         0         0
         0         0         0         0         0         0         0         0
         0         0         0         0         0         0         0         0
         0         0         0         0         0         0         0         0
         0         0         0         0         0         0         0         0
         0         0         0         0         0         0         0         0
         0         0         0         0         0         0         0         0
         0         0         0         0         0         0         0         0
         0         0         0         0         0         0         0         0
         0         0         0         0         0         0         0         0
         0         0         0         0         0         0         0         0
         0         0         0         0         0         0         0         0
         0         0         0         0         0         0         0         0
         0         0         0         0         0         0         0         0
         0         0         0         0         0         0         0         0
         0         0         0         0         0         0         0         0
         0         0         0         0         0         0         0         0
         0         0         0         0         0         0         0         0
         0         0         0         0         0         0         0         0
         0         0         0         0         0         0         0         0
         0         0         0         0         0         0         0         0
         0         0         0         0         0         0         0         0
         0         0         0         0         0         0         0         0
         0         0         0         0         0         0         0         0
         0         0         0         0         0         0         0         0
         0         0         0         0         0         0         0         0
         0         0         0         0         0         0         0         0
         0         0         0         0         0         0         0         0
         0         0         0         0         0         0         0         0
         0         0         0         0         0         0         0         0
         0         0         0         0         0         0         0         0
         0         0         0         0         0         0         0         0
         0         0         0         0         0         0         0         0
         0         0         0         0         0         0         0         0
         0         0         0         0         0         0         0         0
         0         0         0         0         0         0         0         0
         0         0         0         0         0         0         0         0
         0         0         0         0         0         0         0         0
         0         0         0         0         0         0         0         0
         0         0         0         0         0         0         0         0
         0         0         0         0         0         0         0         0
         0         0         0         0         0         0         0         0
         0         0         0         0         0         0         0         0
         0         0         0         0         0         0         0         0
         0         0         0         0         0         0         0         0
         0         0         0         0         0         0         0         0
         0         0         0         0         0         0         0         0
         0         0         0         0         0         0         0         0
         0         0         0         0         0         0         0         0
         0         0         0         0         0         0         0         0
         0         0         0         0         0         0         0         0
         0         0         0         0         0         0         0         0
         0         0         0         0         0         0         0         0
         0         0         0         0         0         0         0         0
         0         0         0         0         0         0         0         0
         0         0         0         0         0         0         0         0
         0         0         0         0         0         0         0         0
         0         0         0         0         0         0         0         0
         0         0         0         0         0         0         0         0
         0         0         0         0         0         0         0         0
         0         0         0         0         0         0         0         0
         0         0         0         0         0         0         0         0
         0         0         0         0         0         0         0         0
         0         0         0         0         0         0         0         0
         0         0         0         0         0         0         0         0
         0         0         0         0         0         0         0         0
         0         0         0         0         0         0         0         0
         0         0         0         0         0         0         0         0
         0         0         0         0         0         0         0         0
         0         0         0         0         0         0         0         0
         0         0         0         0         0         0         0         0
         0         0         0         0         0         0         0         0
         0         0         0         0         0         0         0         0
         0         0         0         0         0         0         0         0
         0         0         0         0         0         0         0         0
         0         0         0         0         0         0         0         0
         0         0         0         0         0         0         0         0
         0         0         0         0         0         0         0         0
         0         0         0         0         0         0         0         0
         0         0         0         0         0         0         0         0
         0         0         0         0         0         0         0         0
         0         0         0         0         0         0         0         0
         0         0         0         0         0         0         0         0
         0         0         0         0         0         0         0         0
         0         0         0         0         0         0         0         0
         0         0         0         0         0         0         0         0
         0         0         0         0         0         0         0         0
         0         0         0         0         0         0         0         0
         0         0         0         0         0         0         0         0
         0         0         0         0         0         0         0         0
         0         0         0         0         0         0         0         0
         0         0         0         0         0         0         0         0
         0         0         0         0         0         0         0         0
         0         0         0         0         0         0         0         0
         0         0         0         0         0         0         0         0
         0         0         0         0         0         0         0         0
         0         0         0         0         0         0         0         0
         0         0         0         0         0         0         0         0
         0         0         0         0         0         0         0         0
         0         0         0         0         0         0         0         0
         0         0         0         0         0         0         0         0
         0         0         0         0         0         0         0         0
         0         0         0         0         0         0         0         0
         0         0         0         0         0         0         0         0
         0         0         0         0         0         0         0         0
         0         0         0         0         0         0         0         0
         0         0         0         0         0         0         0         0
         0         0         0         0         0         0         0         0
         0         0         0         0         0         0         0         0
         0         0         0         0         0         0         0         0
         0         0         0         0         0         0         0         0
         0         0         0         0         0         0         0         0
         0         0         0         0         0         0         0         0
         0         0         0         0         0         0         0         0
         0         0         0         0         0         0         0         0
         0         0         0         0         0         0         0         0
         0         0         0         0         0         0         0         0
         0         0         0         0         0         0         0         0
         0         0         0         0         0         0         0         0
         0         0         0         0         0         0         0         0
         0         0         0         0         0         0         0         0
         0         0         0         0         0         0         0         0
         0         0         0         0         0         0         0         0
         0         0         0         0         0         0         0         0
         0         0         0         0         0         0         0         0
         0         0         0         0         0         0         0         0
         0         0         0         0         0         0         0         0
         0         0         0         0         0         0         0         0
         0         0         0         0         0         0         0         0
         0         0         0         0         0         0         0         0
         0         0         0         0         0         0         0         0
         0         0         0         0         0         0         0         0
         0         0         0         0         0         0         0         0
         0         0         0         0         0         0         0         0
         0         0         0         0         0         0         0         0
         0         0         0         0         0         0         0         0
         0         0         0         0         0         0         0         0
         0         0         0         0         0         0         0         0
         0         0         0         0         0         0         0         0
         0         0         0         0         0         0         0         0
         0         0         0         0         0         0         0         0
         0         0         0         0         0         0         0         0
         0         0         0         0         0         0         0         0
         0         0         0         0         0         0         0         0
         0         0         0         0         0         0         0         0
         0         0         0         0         0         0         0         0
         0         0         0         0         0         0         0         0
         0         0         0         0         0         0         0         0
         0         0         0         0         0         0         0         0
         0         0         0         0         0         0         0         0
         0         0         0         0         0         0         0         0
         0         0         0         0         0         0         0         0
         0         0         0         0         0         0         0         0
         0         0         0         0         0         0         0         0
         0         0         0         0         0         0         0         0
         0         0         0         0         0         0         0         0
         0         0         0         0         0         0         0         0
         0         0         0         0         0         0         0         0
         0         0         0         0         0         0         0         0
         0         0         0         0         0         0         0         0
         0         0         0         0         0         0         0         0
         0         0         0         0         0         0         0         0
         0         0         0         0         0         0         0         0
         0         0         0         0         0         0         0         0
         0         0         0         0         0         0         0         0
         0         0         0         0         0         0         0         0
         0         0         0         0         0         0         0         0
         0         0         0         0         0         0         0         0
         0         0         0         0         0         0         0         0
         0         0         0         0         0         0         0         0
         0         0         0         0         0         0         0         0
         0         0         0         0         0         0         0         0
         0         0         0         0         0         0         0         0
         0         0         0         0         0         0         0         0
         0         0         0         0         0         0         0         0
         0         0         0         0         0         0         0         0
         0         0         0         0         0         0         0         0
         0         0         0         0         0         0         0         0
         0         0         0         0         0         0         0         0
         0         0         0         0         0         0         0         0
         0         0         0         0         0         0         0         0
         0         0         0         0         0         0         0         0
         0         0         0         0         0         0         0         0
         0         0         0         0         0         0         0         0
         0         0         0         0         0         0         0         0
         0         0         0         0         0         0         0         0
         0         0         0         0         0         0         0         0
         0         0         0         0         0         0         0         0
         0         0         0         0         0         0         0         0
         0         0         0         0         0         0         0         0
         0         0         0         0         0         0         0         0
         0         0         0         0         0         0         0         0
         0         0         0         0         0         0         0         0
         0         0         0         0         0         0         0         0
         0         0         0         0         0         0         0         0
         0         0         0         0         0         0         0         0
         0         0         0         0         0         0         0         0
         0         0         0         0         0         0         0         0
         0         0         0         0         0         0         0         0
         0         0         0         0         0         0         0         0
         0         0         0         0         0         0         0         0
         0         0         0         0         0         0         0         0
         0         0         0         0         0         0         0         0
         0         0         0         0         0         0         0         0
         0         0         0         0         0         0         0         0
         0         0         0         0         0         0         0         0
         0         0         0         0         0         0         0         0
         0         0         0         0         0         0         0         0
         0         0         0         0         0         0         0         0
         0         0         0         0         0         0         0         0
         0         0         0         0         0         0         0         0
         0         0         0         0         0         0         0         0
         0         0         0         0         0         0         0         0
         0         0         0         0         0         0         0         0
         0         0         0         0         0         0         0         0
         0         0         0         0         0         0         0         0
         0         0         0         0         0         0         0         0
         0         0         0         0         0         0         0         0
         0         0         0         0         0         0         0         0
         0         0         0         0         0         0         0         0
         0         0         0         0         0         0         0         0
         0         0         0         0         0         0         0         0
         0         0         0         0         0         0         0         0
         0         0         0         0         0         0         0         0
         0         0         0         0         0         0         0         0
         0         0         0         0         0         0         0         0
         0         0         0         0         0         0         0         0
         0         0         0         0         0         0         0         0
         0         0         0         0         0         0         0         0
         0         0         0         0         0         0         0         0
         0         0         0         0         0         0         0         0
         0         0         0         0         0         0         0         0
         0         0         0         0         0         0         0         0
         0         0         0         0         0         0         0         0
         0         0         0         0         0         0         0         0
         0         0         0         0         0         0         0         0
         0         0         0         0         0         0         0         0
         0         0         0         0         0         0         0         0
         0         0         0         0         0         0         0         0
         0         0         0         0         0         0         0         0
         0         0         0         0         0         0         0         0
         0         0         0         0         0         0         0         0
         0         0         0         0         0         0         0         0
         0         0         0         0         0         0         0         0
         0         0         0         0         0         0         0         0
         0         0         0         0         0         0         0         0
         0         0         0         0         0         0         0         0
         0         0         0         0         0         0         0         0
         0         0         0         0         0         0         0         0
         0         0         0         0         0         0         0         0
         0         0         0         0         0         0         0         0
         0         0         0         0         0         0         0         0
         0         0         0         0         0         0         0         0
         0         0         0         0         0         0         0         0
         0         0         0         0         0         0         0         0
         0         0         0         0         0         0         0         0
         0         0         0         0         0         0         0         0
         0         0         0         0         0         0         0         0
         0         0         0         0         0         0         0         0
         0         0         0         0         0         0         0         0
         0         0         0         0         0         0         0         0
         0         0         0         0         0         0         0         0
         0         0         0         0         0         0         0         0
         0         0         0         0         0         0         0         0
         0         0         0         0         0         0         0         0
         0         0         0         0         0         0         0         0
         0         0         0         0         0         0         0         0
         0         0         0         0         0         0         0         0
         0         0         0         0         0         0         0         0
         0         0         0         0         0         0         0         0
         0         0         0         0         0         0         0         0
         0         0         0         0         0         0         0         0
         0         0         0         0         0         0         0         0
         0         0         0         0         0         0         0         0
         0         0         0         0         0         0         0         0
         0         0         0         0         0         0         0         0
         0         0         0         0         0         0         0         0
         0         0         0         0         0         0         0         0
         0         0         0         0         0         0         0         0
         0         0         0         0         0         0         0         0
         0         0         0         0         0         0         0         0
         0         0         0         0         0         0         0         0
         0         0         0         0         0         0         0         0
         0         0         0         0         0         0         0         0
         0         0         0         0         0         0         0         0
         0         0         0         0         0         0         0         0
         0         0         0         0         0         0         0         0
         0         0         0         0         0         0         0         0
         0         0         0         0         0         0         0         0
         0         0         0         0         0         0         0         0
         0         0         0         0         0         0         0         0
         0         0         0         0         0         0         0         0
         0         0         0         0         0         0         0         0
         0         0         0         0         0         0         0         0
         0         0         0         0         0         0         0         0
         0         0         0         0         0         0         0         0
         0         0         0         0         0         0         0         0
         0         0         0         0         0         0         0         0
         0         0         0         0         0         0         0         0
         0         0         0         0         0         0         0         0
         0         0         0         0         0         0         0         0
         0         0         0         0         0         0         0         0
         0         0         0         0         0         0         0         0
         0         0         0         0         0         0         0         0
         0         0         0         0         0         0         0         0
         0         0         0         0         0         0         0         0
         0         0         0         0         0         0         0         0
         0         0         0         0         0         0         0         0
         0         0         0         0         0         0         0         0
         0         0         0         0         0         0         0         0
         0         0         0         0         0         0         0         0
         0         0         0         0         0         0         0         0
         0         0         0         0         0         0         0         0
         0         0         0         0         0         0         0         0
         0         0         0         0         0         0         0         0
         0         0         0         0         0         0         0         0
         0         0         0         0         0         0         0         0
         0         0         0         0         0         0         0         0
         0         0         0         0         0         0         0         0
         0         0         0         0         0         0         0         0
         0         0         0         0         0         0         0         0
         0         0         0         0         0         0         0         0
         0         0         0         0         0         0         0         0
         0         0         0         0         0         0         0         0
         0         0         0         0         0         0         0         0
         0         0         0         0         0         0         0         0
         0         0         0         0         0         0         0         0
         0         0         0         0         0         0         0         0
         0         0         0         0         0         0         0         0
         0         0         0         0         0         0         0         0
         0         0         0         0         0         0         0         0
         0         0         0         0         0         0         0         0
         0         0         0         0         0         0         0         0
         0         0         0         0         0         0         0         0
         0         0         0         0         0         0         0         0
         0         0         0         0         0         0         0         0
         0         0         0         0         0         0         0         0
         0         0         0         0         0         0         0         0
         0         0         0         0         0         0         0         0
         0         0         0         0         0         0         0         0
         0         0         0         0         0         0         0         0
         0         0         0         0         0         0         0         0
         0         0         0         0         0         0         0         0
         0         0         0         0         0         0         0         0
         0         0         0         0         0         0         0         0
         0         0         0         0         0         0         0         0
         0         0         0         0         0         0         0         0
         0         0         0         0         0         0         0         0
         0         0         0         0         0         0         0         0
         0         0         0         0         0         0         0         0
         0         0         0         0         0         0         0         0
         0         0         0         0         0         0         0         0
         0         0         0         0         0         0         0         0
         0         0         0         0         0         0         0         0
         0         0         0         0         0         0         0         0
         0         0         0         0         0         0         0         0
         0         0         0         0         0         0         0         0
         0         0         0         0         0         0         0         0
         0         0         0         0         0         0         0         0
         0         0         0         0         0         0         0         0
         0         0         0         0         0         0         0         0
         0         0         0         0         0         0         0         0
         0         0         0         0         0         0         0         0
         0         0         0         0         0         0         0         0
         0         0         0         0         0         0         0         0
         0         0         0         0         0         0         0         0
         0         0         0         0         0         0         0         0
         0         0         0         0         0         0         0         0
         0         0         0         0         0         0         0         0
         0         0         0         0         0         0         0         0
         0         0         0         0         0         0         0         0
         0         0         0         0         0         0         0         0
         0         0         0         0         0         0         0         0
         0         0         0         0         0         0         0         0
         0         0         0         0         0         0         0         0
         0         0         0         0         0         0         0         0
         0         0         0         0         0         0         0         0
         0         0         0         0         0         0         0         0
         0         0         0         0         0         0         0         0
         0         0         0         0         0         0         0         0
         0         0         0         0         0         0         0         0
         0         0         0         0         0         0         0         0
         0         0         0         0         0         0         0         0
         0         0         0         0         0         0         0         0
         0         0         0         0         0         0         0         0
         0         0         0         0         0         0         0         0
         0         0         0         0         0         0         0         0
         0         0         0         0         0         0         0         0
         0         0         0         0         0         0         0         0
         0         0         0         0         0         0         0         0
         0         0         0         0         0         0         0         0
         0         0         0         0         0         0         0         0
         0         0         0         0         0         0         0         0
         0         0         0         0         0         0         0         0
         0         0         0         0         0         0         0         0
         0         0         0         0         0         0         0         0
         0         0         0         0         0         0         0         0
         0         0         0         0         0         0         0         0
         0         0         0         0         0         0         0         0
         0         0         0         0         0         0         0         0
         0         0         0         0         0         0         0         0
         0         0         0         0         0         0         0         0
         0         0         0         0         0         0         0         0
         0         0         0         0         0         0         0         0
         0         0         0         0         0         0         0         0
         0         0         0         0         0         0         0         0
         0         0         0         0         0         0         0         0
         0         0         0         0         0         0         0         0
         0         0         0         0         0         0         0         0
         0         0         0         0         0         0         0         0
         0         0         0         0         0         0         0         0
         0         0         0         0         0         0         0         0
         0         0         0         0         0         0         0         0
         0         0         0         0         0         0         0         0
         0         0         0         0         0         0         0         0
         0         0         0         0         0         0         0         0
         0         0         0         0         0         0         0         0
         0         0         0         0         0         0         0         0
         0         0         0         0         0         0         0         0
         0         0         0         0         0         0         0         0
         0         0         0         0         0         0         0         0
         0         0         0         0         0         0         0         0
         0         0         0         0         0         0         0         0
         0         0         0         0         0         0         0         0
         0         0         0         0         0         0         0         0
         0         0         0         0         0         0         0         0
         0         0         0         0         0         0         0         0
         0         0         0         0         0         0         0         0
         0         0         0         0         0         0         0         0
         0         0         0         0         0         0         0         0
         0         0         0         0         0         0         0         0
         0         0         0         0         0         0         0         0
         0         0         0         0         0         0         0         0
         0         0         0         0         0         0         0         0
         0         0         0         0         0         0         0         0
         0         0         0         0         0         0         0         0
         0         0         0         0         0         0         0         0
         0         0         0         0         0         0         0         0
         0         0         0         0         0         0         0         0
         0         0         0         0         0         0         0         0
         0         0         0         0         0         0         0         0
         0         0         0         0         0         0         0         0
         0         0         0         0         0         0         0         0
         0         0         0         0         0         0         0         0
         0         0         0         0         0         0         0         0
         0         0         0         0         0         0         0         0
         0         0         0         0         0         0         0         0
         0         0         0         0         0         0         0         0
         0         0         0         0         0         0         0         0
         0         0         0         0         0         0         0         0
         0         0         0         0         0         0         0         0
         0         0         0         0         0         0         0         0
         0         0         0         0         0         0         0         0
         0         0         0         0         0         0         0         0
         0         0         0         0         0         0         0         0
         0         0         0         0         0         0         0         0
         0         0         0         0         0         0         0         0
         0         0         0         0         0         0         0         0
         0         0         0         0         0         0         0         0
         0         0         0         0         0         0         0         0
         0         0         0         0         0         0         0         0
         0         0         0         0         0         0         0         0
         0         0         0         0         0         0         0         0
         0         0         0         0         0         0         0         0
         0         0         0         0         0         0         0         0
         0         0         0         0         0         0         0         0
         0         0         0         0         0         0         0         0
         0         0         0         0         0         0         0         0
         0         0         0         0         0         0         0         0
         0         0         0         0         0         0         0         0
         0         0         0         0         0         0         0         0
         0         0         0         0         0         0         0         0
         0         0         0         0         0         0         0         0
         0         0         0         0         0         0         0         0
         0         0         0         0         0         0         0         0
         0         0         0         0         0         0         0         0
         0         0         0         0         0         0         0         0
         0         0         0         0         0         0         0         0
         0         0         0         0         0         0         0         0
         0         0         0         0         0         0         0         0
         0         0         0         0         0         0         0         0
         0         0         0         0         0         0         0         0
         0         0         0         0         0         0         0         0
         0         0         0         0         0         0         0         0
         0         0         0         0         0         0         0         0
         0         0         0         0         0         0         0         0
         0         0         0         0         0         0         0         0
         0         0         0         0         0         0         0         0
         0         0         0         0         0         0         0         0
         0         0         0         0         0         0         0         0
         0         0         0         0         0         0         0         0
         0         0         0         0         0         0         0         0
         0         0         0         0         0         0         0         0
         0         0         0         0         0         0         0         0
         0         0         0         0         0         0         0         0
         0         0         0         0         0         0         0         0
         0         0         0         0         0         0         0         0
         0         0         0         0         0         0         0         0
         0         0         0         0         0         0         0         0
         0         0         0         0         0         0         0         0
         0         0         0         0         0         0         0         0
         0         0         0         0         0         0         0         0
         0         0         0         0         0         0         0         0
         0         0         0         0         0         0         0         0
         0         0         0         0         0         0         0         0
         0         0         0         0         0         0         0         0
         0         0         0         0         0         0         0         0
         0         0         0         0         0         0         0         0
         0         0         0         0         0         0         0         0
         0         0         0         0         0         0         0         0
         0         0         0         0         0         0         0         0
         0         0         0         0         0         0         0         0
         0         0         0         0         0         0         0         0
         0         0         0         0         0         0         0         0
         0         0         0         0         0         0         0         0
         0         0         0         0         0         0         0         0
         0         0         0         0         0         0         0         0
         0         0         0         0         0         0         0         0
         0         0         0         0         0         0         0         0
         0         0         0         0         0         0         0         0
         0         0         0         0         0         0         0         0
         0         0         0         0         0         0         0         0
         0         0         0         0         0         0         0         0
         0         0         0         0         0         0         0         0
         0         0         0         0         0         0         0         0
         0         0         0         0         0         0         0         0
         0         0         0         0         0         0         0         0
         0         0         0         0         0         0         0         0
         0         0         0         0         0         0         0         0
         0         0         0         0         0         0         0         0
         0         0         0         0         0         0         0         0
         0         0         0         0         0         0         0         0
         0         0         0         0         0         0         0         0
         0         0         0         0         0         0         0         0
         0         0         0         0         0         0         0         0
         0         0         0         0         0         0         0         0
         0         0         0         0         0         0         0         0
         0         0         0         0         0         0         0         0
         0         0         0         0         0         0         0         0
         0         0         0         0         0         0         0         0
         0         0         0         0         0         0         0         0
         0         0         0         0         0         0         0         0
         0         0         0         0         0         0         0         0
         0         0         0         0         0         0         0         0
         0         0         0         0         0         0         0         0
         0         0         0         0         0         0         0         0
         0         0         0         0         0         0         0         0
         0         0         0         0         0         0         0         0
         0         0         0         0         0         0         0         0
         0         0         0         0         0         0         0         0
         0         0         0         0         0         0         0         0
         0         0         0         0         0         0         0         0
         0         0         0         0         0         0         0         0
         0         0         0         0         0         0         0         0
         0         0         0         0         0         0         0         0
         0         0         0         0         0         0         0         0
         0         0         0         0         0         0         0         0
         0         0         0         0         0         0         0         0
         0         0         0         0         0         0         0         0
         0         0         0         0         0         0         0         0
         0         0         0         0         0         0         0         0
         0         0         0         0         0         0         0         0
         0         0         0         0         0         0         0         0
         0         0         0         0         0         0         0         0
         0         0         0         0         0         0         0         0
         0         0         0         0         0         0         0         0
         0         0         0         0         0         0         0         0
         0         0         0         0         0         0         0         0
         0         0         0         0         0         0         0         0
         0         0         0         0         0         0         0         0
         0         0         0         0         0         0         0         0
         0         0         0         0         0         0         0         0
         0         0         0         0         0         0         0         0
         0         0         0         0         0         0         0         0
         0         0         0         0         0         0         0         0
         0         0         0         0         0         0         0         0
         0         0         0         0         0         0         0         0
         0         0         0         0         0         0         0         0
         0         0         0         0         0         0         0         0
         0         0         0         0         0         0         0         0
         0         0         0         0         0         0         0         0
         0         0         0         0         0         0         0         0
         0         0         0         0         0         0         0         0
         0         0         0         0         0         0         0         0
         0         0         0         0         0         0         0         0
         0         0         0         0         0         0         0         0
         0         0         0         0         0         0         0         0
         0         0         0         0         0         0         0         0
         0         0         0         0         0         0         0         0
         0         0         0         0         0         0         0         0
         0         0         0         0         0         0         0         0
         0         0         0         0         0         0         0         0
         0         0         0         0         0         0         0         0
         0         0         0         0         0         0         0         0
         0         0         0         0         0         0         0         0
         0         0         0         0         0         0         0         0
         0         0         0         0         0         0         0         0
         0         0         0         0         0         0         0         0
         0         0         0         0         0         0         0         0
         0         0         0         0         0         0         0         0
         0         0         0         0         0         0         0         0
         0         0         0         0         0         0         0         0
         0         0         0         0         0         0         0         0
         0         0         0         0         0         0         0         0
         0         0         0         0         0         0         0         0
         0         0         0         0         0         0         0         0
         0         0         0         0         0         0         0         0
         0         0         0         0         0         0         0         0
         0         0         0         0         0         0         0         0
         0         0         0         0         0         0         0         0
         0         0         0         0         0         0         0         0
         0         0         0         0         0         0         0         0
         0         0         0         0         0         0         0         0
         0         0         0         0         0         0         0         0
         0         0         0         0         0         0         0         0
         0         0         0         0         0         0         0         0
         0         0         0         0         0         0         0         0
         0         0         0         0         0         0         0         0
         0         0         0         0         0         0         0         0
         0         0         0         0         0         0         0         0
         0         0         0         0         0         0         0         0
         0         0         0         0         0         0         0         0
         0         0         0         0         0         0         0         0
         0         0         0         0         0         0         0         0
         0         0         0         0         0         0         0         0
         0         0         0         0         0         0         0         0
         0         0         0         0         0         0         0         0
         0         0         0         0         0         0         0         0
         0         0         0         0         0         0         0         0
         0         0         0         0         0         0         0         0
         0         0         0         0         0         0         0         0
         0         0         0         0         0         0         0         0
         0         0         0         0         0         0         0         0
         0         0         0         0         0         0         0         0
         0         0         0         0         0         0         0         0
         0         0         0         0         0         0         0         0
         0         0         0         0         0         0         0         0
         0         0         0         0         0         0         0         0
         0         0         0         0         0         0         0         0
         0         0         0         0         0         0         0         0
         0         0         0         0         0         0         0         0
         0         0         0         0         0         0         0         0
         0         0         0         0         0         0         0         0
         0         0         0         0         0         0         0         0
         0         0         0         0         0         0         0         0
         0         0         0         0         0         0         0         0
         0         0         0         0         0         0         0         0
         0         0         0         0         0         0         0         0
         0         0         0         0         0         0         0         0
         0         0         0         0         0         0         0         0
         0         0         0         0         0         0         0         0
         0         0         0         0         0         0         0         0
         0         0         0         0         0         0         0         0
         0         0         0         0         0         0         0         0
         0         0         0         0         0         0         0         0
         0         0         0         0         0         0         0         0
         0         0         0         0         0         0         0         0
         0         0         0         0         0         0         0         0
         0         0         0         0         0         0         0         0
         0         0         0         0         0         0         0         0
         0         0         0         0         0         0         0         0
         0         0         0         0         0         0         0         0
         0         0         0         0         0         0         0         0
         0         0         0         0         0         0         0         0
         0         0         0         0         0         0         0         0
         0         0         0         0         0         0         0         0
         0         0         0         0         0         0         0         0
         0         0         0         0         0         0         0         0
         0         0         0         0         0         0         0         0
         0         0         0         0         0         0         0         0
         0         0         0         0         0         0         0         0
         0         0         0         0         0         0         0         0
         0         0         0         0         0         0         0         0
         0         0         0         0         0         0         0         0
         0         0         0         0         0         0         0         0
         0         0         0         0         0         0         0         0
         0         0         0         0         0         0         0         0
         0         0         0         0         0         0         0         0
         0         0         0         0         0         0         0         0
         0         0         0         0         0         0         0         0
         0         0         0         0         0         0         0         0
         0         0         0         0         0         0         0         0
         0         0         0         0         0         0         0         0
         0         0         0         0         0         0         0         0
         0         0         0         0         0         0         0         0
         0         0         0         0         0         0         0         0
         0         0         0         0         0         0         0         0
         0         0         0         0         0         0         0         0
         0         0         0         0         0         0         0         0
         0         0         0         0         0         0         0         0
         0         0         0         0         0         0         0         0
         0         0         0         0         0         0         0         0
         0         0         0         0         0         0         0         0
         0         0         0         0         0         0         0         0
         0         0         0         0         0         0         0         0
         0         0         0         0         0         0         0         0
         0         0         0         0         0         0         0         0
         0         0         0         0         0         0         0         0
         0         0         0         0         0         0         0         0
         0         0         0         0         0         0         0         0
         0         0         0         0         0         0         0         0
         0         0         0         0         0         0         0         0
         0         0         0         0         0         0         0         0
         0         0         0         0         0         0         0         0
         0         0         0         0         0         0         0         0
         0         0         0         0         0         0         0         0
         0         0         0         0         0         0         0         0
         0         0         0         0         0         0         0         0
         0         0         0         0         0         0         0         0
         0         0         0         0         0         0         0         0
         0         0         0         0         0         0         0         0
         0         0         0         0         0         0         0         0
         0         0         0         0         0         0         0         0
         0         0         0         0         0         0         0         0
         0         0         0         0         0         0         0         0
         0         0         0         0         0         0         0         0
         0         0         0         0         0         0         0         0
         0         0         0         0         0         0         0         0
         0         0         0         0         0         0         0         0
         0         0         0         0         0         0         0         0
         0         0         0         0         0         0         0         0
         0         0         0         0         0         0         0         0
         0         0         0         0         0         0         0         0
         0         0         0         0         0         0         0         0
         0         0         0         0         0         0         0         0
         0         0         0         0         0         0         0         0
         0         0         0         0         0         0         0         0
         0         0         0         0         0         0         0         0
         0         0         0         0         0         0         0         0
         0         0         0         0         0         0         0         0
         0         0         0         0         0         0         0         0
         0         0         0         0         0         0         0         0
         0         0         0         0         0         0         0         0
         0         0         0         0         0         0         0         0
         0         0         0         0         0         0         0         0
         0         0         0         0         0         0         0         0
         0         0         0         0         0         0         0         0
         0         0         0         0         0         0         0         0
         0         0         0         0         0         0         0         0
         0         0         0         0         0         0         0         0
         0         0         0         0         0         0         0         0
         0         0         0         0         0         0         0         0
         0         0         0         0         0         0         0         0
         0         0         0         0         0         0         0         0
         0         0         0         0         0         0         0         0
         0         0         0         0         0         0         0         0
         0         0         0         0         0         0         0         0
         0         0         0         0         0         0         0         0
         0         0         0         0         0         0         0         0
         0         0         0         0         0         0         0         0
         0         0         0         0         0         0         0         0
         0         0         0         0         0         0         0         0
         0         0         0         0         0         0         0         0
         0         0         0         0         0         0         0         0
         0         0         0         0         0         0         0         0
         0         0         0         0         0         0         0         0
         0         0         0         0         0         0         0         0
         0         0         0         0         0         0         0         0
         0         0         0         0         0         0         0         0
         0         0         0         0         0         0         0         0
         0         0         0         0         0         0         0         0
         0         0         0         0         0         0         0         0
         0         0         0         0         0         0         0         0
         0         0         0         0         0         0         0         0
         0         0         0         0         0         0         0         0
         0         0         0         0         0         0         0         0
         0         0         0         0         0         0         0         0
         0         0         0         0         0         0         0         0
         0         0         0         0         0         0         0         0
         0         0         0         0         0         0         0         0
         0         0         0         0         0         0         0         0
         0         0         0         0         0         0         0         0
         0         0         0         0         0         0         0         0
         0         0         0         0         0         0         0         0
         0         0         0         0         0         0         0         0
         0         0         0         0         0         0         0         0
         0         0         0         0         0         0         0         0
         0         0         0         0         0         0         0         0
         0         0         0         0         0         0         0         0
         0         0         0         0         0         0         0         0
         0         0         0         0         0         0         0         0
         0         0         0         0         0         0         0         0
         0         0         0         0         0         0         0         0
         0         0         0         0         0         0         0         0
         0         0         0         0         0         0         0         0
         0         0         0         0         0         0         0         0
         0         0         0         0         0         0         0         0
         0         0         0         0         0         0         0         0
         0         0         0         0         0         0         0         0
         0         0         0         0         0         0         0         0
         0         0         0         0         0         0         0         0
         0         0         0         0         0         0         0         0
         0         0         0         0         0         0         0         0
         0         0         0         0         0         0         0         0
         0         0         0         0         0         0         0         0
         0         0         0         0         0         0         0         0
         0         0         0         0         0         0         0         0
         0         0         0         0         0         0         0         0
         0         0         0         0         0         0         0         0
         0         0         0         0         0         0         0         0
         0         0         0         0         0         0         0         0
         0         0         0         0         0         0         0         0
         0         0         0         0         0         0         0         0
         0         0         0         0         0         0         0         0
         0         0         0         0         0         0         0         0
         0         0         0         0         0         0         0         0
         0         0         0         0         0         0         0         0
         0         0         0         0         0         0         0         0
         0         0         0         0         0         0         0         0
         0         0         0         0         0         0         0         0
         0         0         0         0         0         0         0         0
         0         0         0         0         0         0         0         0
         0         0         0         0         0         0         0         0
         0         0         0         0         0         0         0         0
         0         0         0         0         0         0         0         0
         0         0         0         0         0         0         0         0
         0         0         0         0         0         0         0         0
         0         0         0         0         0         0         0         0
         0         0         0         0         0         0         0         0
         0         0         0         0         0         0         0         0
         0         0         0         0         0         0         0         0
         0         0         0         0         0         0         0         0
         0         0         0         0         0         0         0         0
         0         0         0         0         0         0         0         0
         0         0         0         0         0         0         0         0
         0         0         0         0         0         0         0         0
         0         0         0         0         0         0         0         0
         0         0         0         0         0         0         0         0
         0         0         0         0         0         0         0         0
         0         0         0         0         0         0         0         0
         0         0         0         0         0         0         0         0
         0         0         0         0         0         0         0         0
         0         0         0         0         0         0         0         0
         0         0         0         0         0         0         0         0
         0         0         0         0         0         0         0         0
         0         0         0         0         0         0         0         0
         0         0         0         0         0         0         0         0
         0         0         0         0         0         0         0         0
         0         0         0         0         0         0         0         0
         0         0         0         0         0         0         0         0
         0         0         0         0         0         0         0         0
         0         0         0         0         0         0         0         0
         0         0         0         0         0         0         0         0
         0         0         0         0         0         0         0         0
         0         0         0         0         0         0         0         0
         0         0         0         0         0         0         0         0
         0         0         0         0         0         0         0         0
         0         0         0         0         0         0         0         0
         0         0         0         0         0         0         0         0
         0         0         0         0         0         0         0         0
         0         0         0         0         0         0         0         0
         0         0         0         0         0         0         0         0
         0         0         0         0         0         0         0         0
         0         0         0         0         0         0         0         0
         0         0         0         0         0         0         0         0
         0         0         0         0         0         0         0         0
         0         0         0         0         0         0         0         0
         0         0         0         0         0         0         0         0
         0         0         0         0         0         0         0         0
         0         0         0         0         0         0         0         0
         0         0         0         0         0         0         0         0
         0         0         0         0         0         0         0         0
         0         0         0         0         0         0         0         0
         0         0         0         0         0         0         0         0
         0         0         0         0         0         0         0         0
         0         0         0         0         0         0         0         0
         0         0         0         0         0         0         0         0
         0         0         0         0         0         0         0         0
         0         0         0         0         0         0         0         0
         0         0         0         0         0         0         0         0
         0         0         0         0         0         0         0         0
         0         0         0         0         0         0         0         0
         0         0         0         0         0         0         0         0
         0         0         0         0         0         0         0         0
         0         0         0         0         0         0         0         0
         0         0         0         0         0         0         0         0
         0         0         0         0         0         0         0         0
         0         0         0         0         0         0         0         0
         0         0         0         0         0         0         0         0
         0         0         0         0         0         0         0         0
         0         0         0         0         0         0         0         0
         0         0         0         0         0         0         0         0
         0         0         0         0         0         0         0         0
         0         0         0         0         0         0         0         0
         0         0         0         0         0         0         0         0
         0         0         0         0         0         0         0         0
         0         0         0         0         0         0         0         0
         0         0         0         0         0         0         0         0
         0         0         0         0         0         0         0         0
         0         0         0         0         0         0         0         0
         0         0         0         0         0         0         0         0
         0         0         0         0         0         0         0         0
         0         0         0         0         0         0         0         0
         0         0         0         0         0         0         0         0
         0         0         0         0         0         0         0         0
         0         0         0         0         0         0         0         0
         0         0         0         0         0         0         0         0
         0         0         0         0         0         0         0         0
         0         0         0         0         0         0         0         0
         0         0         0         0         0         0         0         0
         0         0         0         0         0         0         0         0
         0         0         0         0         0         0         0         0
         0         0         0         0         0         0         0         0
         0         0         0         0         0         0         0         0
         0         0         0         0         0         0         0         0
         0         0         0         0         0         0         0         0
         0         0         0         0         0         0         0         0
         0         0         0         0         0         0         0         0
         0         0         0         0         0         0         0         0
         0         0         0         0         0         0         0         0
         0         0         0         0         0         0         0         0
         0         0         0         0         0         0         0         0
         0         0         0         0         0         0         0         0
         0         0         0         0         0         0         0         0
         0         0         0         0         0         0         0         0
         0         0         0         0         0         0         0         0
         0         0         0         0         0         0         0         0
         0         0         0         0         0         0         0         0
         0         0         0         0         0         0         0         0
         0         0         0         0         0         0         0         0
         0         0         0         0         0         0         0         0
         0         0         0         0         0         0         0         0
         0         0         0         0         0         0         0         0
         0         0         0         0         0         0         0         0
         0         0         0         0         0         0         0         0
         0         0         0         0         0         0         0         0
         0         0         0         0         0         0         0         0
         0         0         0         0         0         0         0         0
         0         0         0         0         0         0         0         0
         0         0         0         0         0         0         0         0
         0         0         0         0         0         0         0         0
         0         0         0         0         0         0         0         0
         0         0         0         0         0         0         0         0
         0         0         0         0         0         0         0         0
         0         0         0         0         0         0         0         0
         0         0         0         0         0         0         0         0
         0         0         0         0         0         0         0         0
         0         0         0         0         0         0         0         0
         0         0         0         0         0         0         0         0
         0         0         0         0         0         0         0         0
         0         0         0         0         0         0         0         0
         0         0         0         0         0         0         0         0
         0         0         0         0         0         0         0         0
         0         0         0         0         0         0         0         0
         0         0         0         0         0         0         0         0
         0         0         0         0         0         0         0         0
         0         0         0         0         0         0         0         0
         0         0         0         0         0         0         0         0
         0         0         0         0         0         0         0         0
         0         0         0         0         0         0         0         0
         0         0         0         0         0         0         0         0
         0         0         0         0         0         0         0         0
         0         0         0         0         0         0         0         0
         0         0         0         0         0         0         0         0
         0         0         0         0         0         0         0         0
         0         0         0         0         0         0         0         0
         0         0         0         0         0         0         0         0
         0         0         0         0         0         0         0         0
         0         0         0         0         0         0         0         0
         0         0         0         0         0         0         0         0
         0         0         0         0         0         0         0         0
         0         0         0         0         0         0         0         0
         0         0         0         0         0         0         0         0
         0         0         0         0         0         0         0         0
         0         0         0         0         0         0         0         0
         0         0         0         0         0         0         0         0
         0         0         0         0         0         0         0         0
         0         0         0         0         0         0         0         0
         0         0         0         0         0         0         0         0
         0         0         0         0         0         0         0         0
         0         0         0         0         0         0         0         0
         0         0         0         0         0         0         0         0
         0         0         0         0         0         0         0         0
         0         0         0         0         0         0         0         0
         0         0         0         0         0         0         0         0
         0         0         0         0         0         0         0         0
         0         0         0         0         0         0         0         0
         0         0         0         0         0         0         0         0
         0         0         0         0         0         0         0         0
         0         0         0         0         0         0         0         0
         0         0         0         0         0         0         0         0
         0         0         0         0         0         0         0         0
         0         0         0         0         0         0         0         0
         0         0         0         0         0         0         0         0
         0         0         0         0         0         0         0         0
         0         0         0         0         0         0         0         0
         0         0         0         0         0         0         0         0
         0         0         0         0         0         0         0         0
         0         0         0         0         0         0         0         0
         0         0         0         0         0         0         0         0
         0         0         0         0         0         0         0         0
         0         0         0         0         0         0         0         0
         0         0         0         0         0         0         0         0
         0         0         0         0         0         0         0         0
         0         0         0         0         0         0         0         0
         0         0         0         0         0         0         0         0
         0         0         0         0         0         0         0         0
         0         0         0         0         0         0         0         0
         0         0         0         0         0         0         0         0
         0         0         0         0         0         0         0         0
         0         0         0         0         0         0         0         0
         0         0         0         0         0         0         0         0
         0         0         0         0         0         0         0         0
         0         0         0         0         0         0         0         0
         0         0         0         0         0         0         0         0
         0         0         0         0         0         0         0         0
         0         0         0         0         0         0         0         0
         0         0         0         0         0         0         0         0
         0         0         0         0         0         0         0         0
         0         0         0         0         0         0         0         0
         0         0         0         0         0         0         0         0
         0         0         0         0         0         0         0         0
         0         0         0         0         0         0         0         0
         0         0         0         0         0         0         0         0
         0         0         0         0         0         0         0         0
         0         0         0         0         0         0         0         0
         0         0         0         0         0         0         0         0
         0         0         0         0         0         0         0         0
         0         0         0         0         0         0         0         0
         0         0         0         0         0         0         0         0
         0         0         0         0         0         0         0         0
         0         0         0         0         0         0         0         0
         0         0         0         0         0         0         0         0
         0         0         0         0         0         0         0         0
         0         0         0         0         0         0         0         0
         0         0         0         0         0         0         0         0
         0         0         0         0         0         0         0         0
         0         0         0         0         0         0         0         0
         0         0         0         0         0         0         0         0
         0         0         0         0         0         0         0         0
         0         0         0         0         0         0         0         0
         0         0         0         0         0         0         0         0
         0         0         0         0         0         0         0         0
         0         0         0         0         0         0         0         0
         0         0         0         0         0         0         0         0
         0         0         0         0         0         0         0         0
         0         0         0         0         0         0         0         0
         0         0         0         0         0         0         0         0
         0         0         0         0         0         0         0         0
         0         0         0         0         0         0         0         0
         0         0         0         0         0         0         0         0
         0         0         0         0         0         0         0         0
         0         0         0         0         0         0         0         0
         0         0         0         0         0         0         0         0
         0         0         0         0         0         0         0         0
         0         0         0         0         0         0         0         0
         0         0         0         0         0         0         0         0
         0         0         0         0         0         0         0         0
         0         0         0         0         0         0         0         0
         0         0         0         0         0         0         0         0
         0         0         0         0         0         0         0         0
         0         0         0         0         0         0         0         0
         0         0         0         0         0         0         0         0
         0         0         0         0         0         0         0         0
         0         0         0         0         0         0         0         0
         0         0         0         0         0         0         0         0
         0         0         0         0         0         0         0         0
         0         0         0         0         0         0         0         0
         0         0         0         0         0         0         0         0
         0         0         0         0         0         0         0         0
         0         0         0         0         0         0         0         0
         0         0         0         0         0         0         0         0
         0         0         0         0         0         0         0         0
         0         0         0         0         0         0         0         0
         0         0         0         0         0         0         0         0
         0         0         0         0         0         0         0         0
         0         0         0         0         0         0         0         0
         0         0         0         0         0         0         0         0
         0         0         0         0         0         0         0         0
         0         0         0         0         0         0         0         0
         0         0         0         0         0         0         0         0
         0         0         0         0         0         0         0         0
         0         0         0         0         0         0         0         0
         0         0         0         0         0         0         0         0
         0         0         0         0         0         0         0         0
         0         0         0         0         0         0         0         0
         0         0         0         0         0         0         0         0
         0         0         0         0         0         0         0         0
         0         0         0         0         0         0         0         0
         0         0         0         0         0         0         0         0
         0         0         0         0         0         0         0         0
         0         0         0         0         0         0         0         0
         0         0         0         0         0         0         0         0
         0         0         0         0         0         0         0         0
         0         0         0         0         0         0         0         0
         0         0         0         0         0         0         0         0
         0         0         0         0         0         0         0         0
         0         0         0         0         0         0         0         0
         0         0         0         0         0         0         0         0
         0         0         0         0         0         0         0         0
         0         0         0         0         0         0         0         0
         0         0         0         0         0         0         0         0
         0         0         0         0         0         0         0         0
         0         0         0         0         0         0         0         0
         0         0         0         0         0         0         0         0
         0         0         0         0         0         0         0         0
         0         0         0         0         0         0         0         0
         0         0         0         0         0         0         0         0
         0         0         0         0         0         0         0         0
         0         0         0         0         0         0         0         0
         0         0         0         0         0         0         0         0
         0         0         0         0         0         0         0         0
         0         0         0         0         0         0         0         0
         0         0         0         0         0         0         0         0
         0         0         0         0         0         0         0         0
         0         0         0         0         0         0         0         0
         0         0         0         0         0         0         0         0
         0         0         0         0         0         0         0         0
         0         0         0         0         0         0         0         0
         0         0         0         0         0         0         0         0
         0         0         0         0         0         0         0         0
         0         0         0         0         0         0         0         0
         0         0         0         0         0         0         0         0
         0         0         0         0         0         0         0         0
         0         0         0         0         0         0         0         0
         0         0         0         0         0         0         0         0
         0         0         0         0         0         0         0         0
         0         0         0         0         0         0         0         0
         0         0         0         0         0         0         0         0
         0         0         0         0         0         0         0         0
         0         0         0         0         0         0         0         0
         0         0         0         0         0         0         0         0
         0         0         0         0         0         0         0         0
         0         0         0         0         0         0         0         0
         0         0         0         0         0         0         0         0
         0         0         0         0         0         0         0         0
         0         0         0         0         0         0         0         0
         0         0         0         0         0         0         0         0
         0         0         0         0         0         0         0         0
         0         0         0         0         0         0         0         0
         0         0         0         0         0         0         0         0
         0         0         0         0         0         0         0         0
         0         0         0         0         0         0         0         0
         0         0         0         0         0         0         0         0
         0         0         0         0         0         0         0         0
         0         0         0         0         0         0         0         0
         0         0         0         0         0         0         0         0
         0         0         0         0         0         0         0         0
         0         0         0         0         0         0         0         0
         0         0         0         0         0         0         0         0
         0         0         0         0         0         0         0         0
         0         0         0         0         0         0         0         0
         0         0         0         0         0         0         0         0
         0         0         0         0         0         0         0         0
         0         0         0         0         0         0         0         0
         0         0         0         0         0         0         0         0
         0         0         0         0         0         0         0         0
         0         0         0         0         0         0         0         0
         0         0         0         0         0         0         0         0
         0         0         0         0         0         0         0         0
         0         0         0         0         0         0         0         0
         0         0         0         0         0         0         0         0
         0         0         0         0         0         0         0         0
         0         0         0         0         0         0         0         0
         0         0         0         0         0         0         0         0
         0         0         0         0         0         0         0         0
         0         0         0         0         0         0         0         0
         0         0         0         0         0         0         0         0
         0         0         0         0         0         0         0         0
         0         0         0         0         0         0         0         0
         0         0         0         0         0         0         0         0
         0         0         0         0         0         0         0         0
         0         0         0         0         0         0         0         0
         0         0         0         0         0         0         0         0
         0         0         0         0         0         0         0         0
         0         0         0         0         0         0         0         0
         0         0         0         0         0         0         0         0
         0         0         0         0         0         0         0         0
         0         0         0         0         0         0         0         0
         0         0         0         0         0         0         0         0
         0         0         0         0         0         0         0         0
         0         0         0         0         0         0         0         0
         0         0         0         0         0         0         0         0
         0         0         0         0         0         0         0         0
         0         0         0         0         0         0         0         0
         0         0         0         0         0         0         0         0
         0         0         0         0         0         0         0         0
         0         0         0         0         0         0         0         0
         0         0         0         0         0         0         0         0
         0         0         0         0         0         0         0         0
         0         0         0         0         0         0         0         0
         0         0         0         0         0         0         0         0
         0         0         0         0         0         0         0         0
         0         0         0         0         0         0         0         0
         0         0         0         0         0         0         0         0
         0         0         0         0         0         0         0         0
         0         0         0         0         0         0         0         0
         0         0         0         0         0         0         0         0
         0         0         0         0         0         0         0         0
         0         0         0         0         0         0         0         0
         0         0         0         0         0         0         0         0
         0         0         0         0         0         0         0         0
         0         0         0         0         0         0         0         0
         0         0         0         0         0         0         0         0
         0         0         0         0         0         0         0         0
         0         0         0         0         0         0         0         0
         0         0         0         0         0         0         0         0
         0         0         0         0         0         0         0         0
         0         0         0         0         0         0         0         0
         0         0         0         0         0         0         0         0
         0         0         0         0         0         0         0         0
         0         0         0         0         0         0         0         0
         0         0         0         0         0         0         0         0
         0         0         0         0         0         0         0         0
         0         0         0         0         0         0         0         0
         0         0         0         0         0         0         0         0
         0         0         0         0         0         0         0         0
         0         0         0         0         0         0         0         0
         0         0         0         0         0         0         0         0
         0         0         0         0         0         0         0         0
         0         0         0         0         0         0         0         0
         0         0         0         0         0         0         0         0
         0         0         0         0         0         0         0         0
         0         0         0         0         0         0         0         0
         0         0         0         0         0         0         0         0
         0         0         0         0         0         0         0         0
         0         0         0         0         0         0         0         0
         0         0         0         0         0         0         0         0
         0         0         0         0         0         0         0         0
         0         0         0         0         0         0         0         0
         0         0         0         0         0         0         0         0
         0         0         0         0         0         0         0         0
         0         0         0         0         0         0         0         0
         0         0         0         0         0         0         0         0
         0         0         0         0         0         0         0         0
         0         0         0         0         0         0         0         0
         0         0         0         0         0         0         0         0
         0         0         0         0         0         0         0         0
         0         0         0         0         0         0         0         0
         0         0         0         0         0         0         0         0
         0         0         0         0         0         0         0         0
         0         0         0         0         0         0         0         0
         0         0         0         0         0         0         0         0
         0         0         0         0         0         0         0         0
         0         0         0         0         0         0         0         0
         0         0         0         0         0         0         0         0
         0         0         0         0         0         0         0         0
         0         0         0         0         0         0         0         0
         0         0         0         0         0         0         0         0
         0         0         0         0         0         0         0         0
         0         0         0         0         0         0         0         0
         0         0         0         0         0         0         0         0
         0         0         0         0         0         0         0         0
         0         0         0         0         0         0         0         0
         0         0         0         0         0         0         0         0
         0         0         0         0         0         0         0         0
         0         0         0         0         0         0         0         0
         0         0         0         0         0         0         0         0
         0         0         0         0         0         0         0         0
         0         0         0         0         0         0         0         0
         0         0         0         0         0         0         0         0
         0         0         0         0         0         0         0         0
         0         0         0         0         0         0         0         0
         0         0         0         0         0         0         0         0
         0         0         0         0         0         0         0         0
         0         0         0         0         0         0         0         0
         0         0         0         0         0         0         0         0
         0         0         0         0         0         0         0         0
         0         0         0         0         0         0         0         0
         0         0         0         0         0         0         0         0
         0         0         0         0         0         0         0         0
         0         0         0         0         0         0         0         0
         0         0         0         0         0         0         0         0
         0         0         0         0         0         0         0         0
         0         0         0         0         0         0         0         0
         0         0         0         0         0         0         0         0
         0         0         0         0         0         0         0         0
         0         0         0         0         0         0         0         0
         0         0         0         0         0         0         0         0
         0         0         0         0         0         0         0         0
         0         0         0         0         0         0         0         0
         0         0         0         0         0         0         0         0
         0         0         0         0         0         0         0         0
         0         0         0         0         0         0         0         0
         0         0         0         0         0         0         0         0
         0         0         0         0         0         0         0         0
         0         0         0         0         0         0         0         0
         0         0         0         0         0         0         0         0
         0         0         0         0         0         0         0         0
         0         0         0         0         0         0         0         0
         0         0         0         0         0         0         0         0
         0         0         0         0         0         0         0         0
         0         0         0         0         0         0         0         0
         0         0         0         0         0         0         0         0
         0         0         0         0         0         0         0         0
         0         0         0         0         0         0         0         0
         0         0         0         0         0         0         0         0
         0         0         0         0         0         0         0         0
         0         0         0         0         0         0         0         0
         0         0         0         0         0         0         0         0
         0         0         0         0         0         0         0         0
         0         0         0         0         0         0         0         0
         0         0         0         0         0         0         0         0
         0         0         0         0         0         0         0         0
         0         0         0         0         0         0         0         0
         0         0         0         0         0         0         0         0
         0         0         0         0         0         0         0         0
         0         0         0         0         0         0         0         0
         0         0         0         0         0         0         0         0
         0         0         0         0         0         0         0         0
         0         0         0         0         0         0         0         0
         0         0         0         0         0         0         0         0
         0         0         0         0         0         0         0         0
         0         0         0         0         0         0         0         0
         0         0         0         0         0         0         0         0
         0         0         0         0         0         0         0         0
         0         0         0         0         0         0         0         0
         0         0         0         0         0         0         0         0
         0         0         0         0         0         0         0         0
         0         0         0         0         0         0         0         0
         0         0         0         0         0         0         0         0
         0         0         0         0         0         0         0         0
         0         0         0         0         0         0         0         0
         0         0         0         0         0         0         0         0
         0         0         0         0         0         0         0         0
         0         0         0         0         0         0         0         0
         0         0         0         0         0         0         0         0
         0         0         0         0         0         0         0         0
         0         0         0         0         0         0         0         0
         0         0         0         0         0         0         0         0
         0         0         0         0         0         0         0         0
         0         0         0         0         0         0         0         0
         0         0         0         0         0         0         0         0
         0         0         0         0         0         0         0         0
         0         0         0         0         0         0         0         0
         0         0         0         0         0         0         0         0
         0         0         0         0         0         0         0         0
         0         0         0         0         0         0         0         0
         0         0         0         0         0         0         0         0
         0         0         0         0         0         0         0         0
         0         0         0         0         0         0         0         0
         0         0         0         0         0         0         0         0
         0         0         0         0         0         0         0         0
         0         0         0         0         0         0         0         0
         0         0         0         0         0         0         0         0
         0         0         0         0         0         0         0         0
         0         0         0         0         0         0         0         0
         0         0         0         0         0         0         0         0
         0         0         0         0         0         0         0         0
         0         0         0         0         0         0         0         0
         0         0         0         0         0         0         0         0
         0         0         0         0         0         0         0         0
         0         0         0         0         0         0         0         0
         0         0         0         0         0         0         0         0
         0         0         0         0         0         0         0         0
         0         0         0         0         0         0         0         0
         0         0         0         0         0         0         0         0
         0         0         0         0         0         0         0         0
         0         0         0         0         0         0         0         0
         0         0         0         0         0         0         0         0
         0         0         0         0         0         0         0         0
         0         0         0         0         0         0         0         0
         0         0         0         0         0         0         0         0
         0         0         0         0         0         0         0         0
         0         0         0         0         0         0         0         0
         0         0         0         0         0         0         0         0
         0         0         0         0         0         0         0         0
         0         0         0         0         0         0         0         0
         0         0         0         0         0         0         0         0
         0         0         0         0         0         0         0         0
         0         0         0         0         0         0         0         0
         0         0         0         0         0         0         0         0
         0         0         0         0         0         0         0         0
         0         0         0         0         0         0         0         0
         0         0         0         0         0         0         0         0
         0         0         0         0         0         0         0         0
         0         0         0         0         0         0         0         0
         0         0         0         0         0         0         0         0
         0         0         0         0         0         0         0         0
         0         0         0         0         0         0         0         0
         0         0         0         0         0         0         0         0
         0         0         0         0         0         0         0         0
         0         0         0         0         0         0         0         0
         0         0         0         0         0         0         0         0
         0         0         0         0         0         0         0         0
         0         0         0         0         0         0         0         0
         0         0         0         0         0         0         0         0
         0         0         0         0         0         0         0         0
         0         0         0         0         0         0         0         0
         0         0         0         0         0         0         0         0
         0         0         0         0         0         0         0         0
         0         0         0         0         0         0         0         0
         0         0         0         0         0         0         0         0
         0         0         0         0         0         0         0         0
         0         0         0         0         0         0         0         0
         0         0         0         0         0         0         0         0
         0         0         0         0         0         0         0         0
         0         0         0         0         0         0         0         0
         0         0         0         0         0         0         0         0
         0         0         0         0         0         0         0         0
         0         0         0         0         0         0         0         0
         0         0         0         0         0         0         0         0
         0         0         0         0         0         0         0         0
         0         0         0         0         0         0         0         0
         0         0         0         0         0         0         0         0
         0         0         0         0         0         0         0         0
         0         0         0         0         0         0         0         0
         0         0         0         0         0         0         0         0
         0         0         0         0         0         0         0         0
         0         0         0         0         0         0         0         0
         0         0         0         0         0         0         0         0
         0         0         0         0         0         0         0         0
         0         0         0         0         0         0         0         0
         0         0         0         0         0         0         0         0
         0         0         0         0         0         0         0         0
         0         0         0         0         0         0         0         0
         0         0         0         0         0         0         0         0
         0         0         0         0         0         0         0         0
         0         0         0         0         0         0         0         0
         0         0         0         0         0         0         0         0
         0         0         0         0         0         0         0         0
         0         0         0         0         0         0         0         0
         0         0         0         0         0         0         0         0
         0         0         0         0         0         0         0         0
         0         0         0         0         0         0         0         0
         0         0         0         0         0         0         0         0
         0         0         0         0         0         0         0         0
         0         0         0         0         0         0         0         0
         0         0         0         0         0         0         0         0
         0         0         0         0         0         0         0         0
         0         0         0         0         0         0         0         0
         0         0         0         0         0         0         0         0
         0         0         0         0         0         0         0         0
         0         0         0         0         0         0         0         0
         0         0         0         0         0         0         0         0
         0         0         0         0         0         0         0         0
         0         0         0         0         0         0         0         0
         0         0         0         0         0         0         0         0
         0         0         0         0         0         0         0         0
         0         0         0         0         0         0         0         0
         0         0         0         0         0         0         0         0
         0         0         0         0         0         0         0         0
         0         0         0         0         0         0         0         0
         0         0         0         0         0         0         0         0
         0         0         0         0         0         0         0         0
         0         0         0         0         0         0         0         0
         0         0         0         0         0         0         0         0
         0         0         0         0         0         0         0         0
         0         0         0         0         0         0         0         0
         0         0         0         0         0         0         0         0
         0         0         0         0         0         0         0         0
         0         0         0         0         0         0         0         0
         0         0         0         0         0         0         0         0
         0         0         0         0         0         0         0         0
         0         0         0         0         0         0         0         0
         0         0         0         0         0         0         0         0
         0         0         0         0         0         0         0         0
         0         0         0         0         0         0         0         0
         0         0         0         0         0         0         0         0
         0         0         0         0         0         0         0         0
         0         0         0         0         0         0         0         0
         0         0         0         0         0         0         0         0
         0         0         0         0         0         0         0         0
         0         0         0         0         0         0         0         0
         0         0         0         0         0         0         0         0
         0         0         0         0         0         0         0         0
         0         0         0         0         0         0         0         0
         0         0         0         0         0         0         0         0
         0         0         0         0         0         0         0         0
         0         0         0         0         0         0         0         0
         0         0         0         0         0         0         0         0
         0         0         0         0         0         0         0         0
         0         0         0         0         0         0         0         0
         0         0         0         0         0         0         0         0
         0         0         0         0         0         0         0         0
         0         0         0         0         0         0         0         0
         0         0         0         0         0         0         0         0
         0         0         0         0         0         0         0         0
         0         0         0         0         0         0         0         0
         0         0         0         0         0         0         0         0
         0         0         0         0         0         0         0         0
         0         0         0         0         0         0         0         0
         0         0         0         0         0         0         0         0
         0         0         0         0         0         0         0         0
         0         0         0         0         0         0         0         0
         0         0         0         0         0         0         0         0
         0         0         0         0         0         0         0         0
         0         0         0         0         0         0         0         0
         0         0         0         0         0         0         0         0
         0         0         0         0         0         0         0         0
         0         0         0         0         0         0         0         0
         0         0         0         0         0         0         0         0
         0         0         0         0         0         0         0         0
         0         0         0         0         0         0         0         0
         0         0         0         0         0         0         0         0
         0         0         0         0         0         0         0         0
         0         0         0         0         0         0         0         0
         0         0         0         0         0         0         0         0
         0         0         0         0         0         0         0         0
         0         0         0         0         0         0         0         0
         0         0         0         0         0         0         0         0
         0         0         0         0         0         0         0         0
         0         0         0         0         0         0         0         0
         0         0         0         0         0         0         0         0
         0         0         0         0         0         0         0         0
         0         0         0         0         0         0         0         0
         0         0         0         0         0         0         0         0
         0         0         0         0         0         0         0         0
         0         0         0         0         0         0         0         0
         0         0         0         0         0         0         0         0
         0         0         0         0         0         0         0         0
         0         0         0         0         0         0         0         0
         0         0         0         0         0         0         0         0
         0         0         0         0         0         0         0         0
         0         0         0         0         0         0         0         0
         0         0         0         0         0         0         0         0
         0         0         0         0         0         0         0         0
         0         0         0         0         0         0         0         0
         0         0         0         0         0         0         0         0
         0         0         0         0         0         0         0         0
         0         0         0         0         0         0         0         0
         0         0         0         0         0         0         0         0
         0         0         0         0         0         0         0         0
         0         0         0         0         0         0         0         0
         0         0         0         0         0         0         0         0
         0         0         0         0         0         0         0         0
         0         0         0         0         0         0         0         0
         0         0         0         0         0         0         0         0
         0         0         0         0         0         0         0         0
         0         0         0         0         0         0         0         0
         0         0         0         0         0         0         0         0
         0         0         0         0         0         0         0         0
         0         0         0         0         0         0         0         0
         0         0         0         0         0         0         0         0
         0         0         0         0         0         0         0         0
         0         0         0         0         0         0         0         0
         0         0         0         0         0         0         0         0
         0         0         0         0         0         0         0         0
         0         0         0         0         0         0         0         0
         0         0         0         0         0         0         0         0
         0         0         0         0         0         0         0         0
         0         0         0         0         0         0         0         0
         0         0         0         0         0         0         0         0
         0         0         0         0         0         0         0         0
         0         0         0         0         0         0         0         0
         0         0         0         0         0         0         0         0
         0         0         0         0         0         0         0         0
         0         0         0         0         0         0         0         0
         0         0         0         0         0         0         0         0
         0         0         0         0         0         0         0         0
         0         0         0         0         0         0         0         0
         0         0         0         0         0         0         0         0
         0         0         0         0         0         0         0         0
         0         0         0         0         0         0         0         0
         0         0         0         0         0         0         0         0
         0         0         0         0         0         0         0         0
         0         0         0         0         0         0         0         0
         0         0         0         0         0         0         0         0
         0         0         0         0         0         0         0         0
         0         0         0         0         0         0         0         0
         0         0         0         0         0         0         0         0
         0         0         0         0         0         0         0         0
         0         0         0         0         0         0         0         0
         0         0         0         0         0         0         0         0
         0         0         0         0         0         0         0         0
         0         0         0         0         0         0         0         0
         0         0         0         0         0         0         0         0
         0         0         0         0         0         0         0         0
         0         0         0         0         0         0         0         0
         0         0         0         0         0         0         0         0
         0         0         0         0         0         0         0         0
         0         0         0         0         0         0         0         0
         0         0         0         0         0         0         0         0
         0         0         0         0         0         0         0         0
         0         0         0         0         0         0         0         0
         0         0         0         0         0         0         0         0
         0         0         0         0         0         0         0         0
         0         0         0         0         0         0         0         0
         0         0         0         0         0         0         0         0
         0         0         0         0         0         0         0         0
         0         0         0         0         0         0         0         0
         0         0         0         0         0         0         0         0
         0         0         0         0         0         0         0         0
         0         0         0         0         0         0         0         0
         0         0         0         0         0         0         0         0
         0         0         0         0         0         0         0         0
         0         0         0         0         0         0         0         0
         0         0         0         0         0         0         0         0
         0         0         0         0         0         0         0         0
         0         0         0         0         0         0         0         0
         0         0         0         0         0         0         0         0
         0         0         0         0         0         0         0         0
         0         0         0         0         0         0         0         0
         0         0         0         0         0         0         0         0
         0         0         0         0         0         0         0         0
         0         0         0         0         0         0         0         0
         0         0         0         0         0         0         0         0
         0         0         0         0         0         0         0         0
         0         0         0         0         0         0         0         0
         0         0         0         0         0         0         0         0
         0         0         0         0         0         0         0         0
         0         0         0         0         0         0         0         0
         0         0         0         0         0         0         0         0
         0         0         0         0         0         0         0         0
         0         0         0         0         0         0         0         0
         0         0         0         0         0         0         0         0
         0         0         0         0         0         0         0         0
         0         0         0         0         0         0         0         0
         0         0         0         0         0         0         0         0
         0         0         0         0         0         0         0         0
         0         0         0         0         0         0         0         0
         0         0         0         0         0         0         0         0
         0         0         0         0         0         0         0         0
         0         0         0         0         0         0         0         0
         0         0         0         0         0         0         0         0
         0         0         0         0         0         0         0         0
         0         0         0         0         0         0         0         0
         0         0         0         0         0         0         0         0
         0         0         0         0         0         0         0         0
         0         0         0         0         0         0         0         0
         0         0         0         0         0         0         0         0
         0         0         0         0         0         0         0         0
         0         0         0         0         0         0         0         0
         0         0         0         0         0         0         0         0
         0         0         0         0         0         0         0         0
         0         0         0         0         0         0         0         0
         0         0         0         0         0         0         0         0
         0         0         0         0         0         0         0         0
         0         0         0         0         0         0         0         0
         0         0         0         0         0         0         0         0
         0         0         0         0         0         0         0         0
         0         0         0         0         0         0         0         0
         0         0         0         0         0         0         0         0
         0         0         0         0         0         0         0         0
         0         0         0         0         0         0         0         0
         0         0         0         0         0         0         0         0
         0         0         0         0         0         0         0         0
         0         0         0         0         0         0         0         0
         0         0         0         0         0         0         0         0
         0         0         0         0         0         0         0         0
         0         0         0         0         0         0         0         0
         0         0         0         0         0         0         0         0
         0         0         0         0         0         0         0         0
         0         0         0         0         0         0         0         0
         0         0         0         0         0         0         0         0
         0         0         0         0         0         0         0         0
         0         0         0         0         0         0         0         0
         0         0         0         0         0         0         0         0
         0         0         0         0         0         0         0         0
         0         0         0         0         0         0         0         0
         0         0         0         0         0         0         0         0
         0         0         0         0         0         0         0         0
         0         0         0         0         0         0         0         0
         0         0         0         0         0         0         0         0
         0         0         0         0         0         0         0         0
         0         0         0         0         0         0         0         0
         0         0         0         0         0         0         0         0
         0         0         0         0         0         0         0         0
         0         0         0         0         0         0         0         0
         0         0         0         0         0         0         0         0
         0         0         0         0         0         0         0         0
         0         0         0         0         0         0         0         0
         0         0         0         0         0         0         0         0
         0         0         0         0         0         0         0         0
         0         0         0         0         0         0         0         0
         0         0         0         0         0         0         0         0
         0         0         0         0         0         0         0         0
         0         0         0         0         0         0         0         0
         0         0         0         0         0         0         0         0
         0         0         0         0         0         0         0         0
         0         0         0         0         0         0         0         0
         0         0         0         0         0         0         0         0
         0         0         0         0         0         0         0         0
         0         0         0         0         0         0         0         0
         0         0         0         0         0         0         0         0
         0         0         0         0         0         0         0         0
         0         0         0         0         0         0         0         0
         0         0         0         0         0         0         0         0
         0         0         0         0         0         0         0         0
         0         0         0         0         0         0         0         0
         0         0         0         0         0         0         0         0
         0         0         0         0         0         0         0         0
         0         0         0         0         0         0         0         0
         0         0         0         0         0         0         0         0
         0         0         0         0         0         0         0         0
         0         0         0         0         0         0         0         0
         0         0         0         0         0         0         0         0
         0         0         0         0         0         0         0         0
         0         0         0         0         0         0         0         0
         0         0         0         0         0         0         0         0
         0         0         0         0         0         0         0         0
         0         0         0         0         0         0         0         0
         0         0         0         0         0         0         0         0
         0         0         0         0         0         0         0         0
         0         0         0         0         0         0         0         0
         0         0         0         0         0         0         0         0
         0         0         0         0         0         0         0         0
         0         0         0         0         0         0         0         0
         0         0         0         0         0         0         0         0
         0         0         0         0         0         0         0         0
         0         0         0         0         0         0         0         0
         0         0         0         0         0         0         0         0
         0         0         0         0         0         0         0         0
         0         0         0         0         0         0         0         0
         0         0         0         0         0         0         0         0
         0         0         0         0         0         0         0         0
         0         0         0         0         0         0         0         0
         0         0         0         0         0         0         0         0
         0         0         0         0         0         0         0         0
         0         0         0         0         0         0         0         0
         0         0         0         0         0         0         0         0
         0         0         0         0         0         0         0         0
         0         0         0         0         0         0         0         0
         0         0         0         0         0         0         0         0
         0         0         0         0         0         0         0         0
         0         0         0         0         0         0         0         0
         0         0         0         0         0         0         0         0
         0         0         0         0         0         0         0         0
         0         0         0         0         0         0         0         0
         0         0         0         0         0         0         0         0
         0         0         0         0         0         0         0         0
         0         0         0         0         0         0         0         0
         0         0         0         0         0         0         0         0
         0         0         0         0         0         0         0         0
         0         0         0         0         0         0         0         0
         0         0         0         0         0         0         0         0
         0         0         0         0         0         0         0         0
         0         0         0         0         0         0         0         0
         0         0         0         0         0         0         0         0
         0         0         0         0         0         0         0         0
         0         0         0         0         0         0         0         0
         0         0         0         0         0         0         0         0
         0         0         0         0         0         0         0         0
         0         0         0         0         0         0         0         0
         0         0         0         0         0         0         0         0
         0         0         0         0         0         0         0         0
         0         0         0         0         0         0         0         0
         0         0         0         0         0         0         0         0
         0         0         0         0         0         0         0         0
         0         0         0         0         0         0         0         0
         0         0         0         0         0         0         0         0
         0         0         0         0         0         0         0         0
         0         0         0         0         0         0         0         0
         0         0         0         0         0         0         0         0
         0         0         0         0         0         0         0         0
         0         0         0         0         0         0         0         0
         0         0         0         0         0         0         0         0
         0         0         0         0         0         0         0         0
         0         0         0         0         0         0         0         0
         0         0         0         0         0         0         0         0
         0         0         0         0         0         0         0         0
         0         0         0         0         0         0         0         0
         0         0         0         0         0         0         0         0
         0         0         0         0         0         0         0         0
         0         0         0         0         0         0         0         0
         0         0         0         0         0         0         0         0
         0         0         0         0         0         0         0         0
         0         0         0         0         0         0         0         0
         0         0         0         0         0         0         0         0
         0         0         0         0         0         0         0         0
         0         0         0         0         0         0         0         0
         0         0         0         0         0         0         0         0
         0         0         0         0         0         0         0         0
         0         0         0         0         0         0         0         0
         0         0         0         0         0         0         0         0
         0         0         0         0         0         0         0         0
         0         0         0         0         0         0         0         0
         0         0         0         0         0         0         0         0
         0         0         0         0         0         0         0         0
         0         0         0         0         0         0         0         0
         0         0         0         0         0         0         0         0
         0         0         0         0         0         0         0         0
         0         0         0         0         0         0         0         0
         0         0         0         0         0         0         0         0
         0         0         0         0         0         0         0         0
         0         0         0         0         0         0         0         0
         0         0         0         0         0         0         0         0
         0         0         0         0         0         0         0         0
         0         0         0         0         0         0         0         0
         0         0         0         0         0         0         0         0
         0         0         0         0         0         0         0         0
         0         0         0         0         0         0         0         0
         0         0         0         0         0         0         0         0
         0         0         0         0         0         0         0         0
         0         0         0         0         0         0         0         0
         0         0         0         0         0         0         0         0
         0         0         0         0         0         0         0         0
         0         0         0         0         0         0         0         0
         0         0         0         0         0         0         0         0
         0         0         0         0         0         0         0         0
         0         0         0         0         0         0         0         0
         0         0         0         0         0         0         0         0
         0         0         0         0         0         0         0         0
         0         0         0         0         0         0         0         0
         0         0         0         0         0         0         0         0
         0         0         0         0         0         0         0         0
         0         0         0         0         0         0         0         0
         0         0         0         0         0         0         0         0
         0         0         0         0         0         0         0         0
         0         0         0         0         0         0         0         0
         0         0         0         0         0         0         0         0
         0         0         0         0         0         0         0         0
         0         0         0         0         0         0         0         0
         0         0         0         0         0         0         0         0
         0         0         0         0         0         0         0         0
         0         0         0         0         0         0         0         0
         0         0         0         0         0         0         0         0
         0         0         0         0         0         0         0         0
         0         0         0         0         0         0         0         0
         0         0         0         0         0         0         0         0
         0         0         0         0         0         0         0         0
         0         0         0         0         0         0         0         0
         0         0         0         0         0         0         0         0
         0         0         0         0         0         0         0         0
         0         0         0         0         0         0         0         0
         0         0         0         0         0         0         0         0
         0         0         0         0         0         0         0         0
         0         0         0         0         0         0         0         0
         0         0         0         0         0         0         0         0
         0         0         0         0         0         0         0         0
         0         0         0         0         0         0         0         0
         0         0         0         0         0         0         0         0
         0         0         0         0         0         0         0         0
         0         0         0         0         0         0         0         0
         0         0         0         0         0         0         0         0
         0         0         0         0         0         0         0         0
         0         0         0         0         0         0         0         0
         0         0         0         0         0         0         0         0
         0         0         0         0         0         0         0         0
         0         0         0         0         0         0         0         0
         0         0         0         0         0         0         0         0
         0         0         0         0         0         0         0         0
         0         0         0         0         0         0         0         0
         0         0         0         0         0         0         0         0
         0         0         0         0         0         0         0         0
         0         0         0         0         0         0         0         0
         0         0         0         0         0         0         0         0
         0         0         0         0         0         0         0         0
         0         0         0         0         0         0         0         0
         0         0         0         0         0         0         0         0
         0         0         0         0         0         0         0         0
         0         0         0         0         0         0         0         0
         0         0         0         0         0         0         0         0
         0         0         0         0         0         0         0         0
         0         0         0         0         0         0         0         0
         0         0         0         0         0         0         0         0
         0         0         0         0         0         0         0         0
         0         0         0         0         0         0         0         0
         0         0         0         0         0         0         0         0
         0         0         0         0         0         0         0         0
         0         0         0         0         0         0         0         0
         0         0         0         0         0         0         0         0
         0         0         0         0         0         0         0         0
         0         0         0         0         0         0         0         0
         0         0         0         0         0         0         0         0
         0         0         0         0         0         0         0         0
         0         0         0         0         0         0         0         0
         0         0         0         0         0         0         0         0
         0         0         0         0         0         0         0         0
         0         0         0         0         0         0         0         0
         0         0         0         0         0         0         0         0
         0         0         0         0         0         0         0         0
         0         0         0         0         0         0         0         0
         0         0         0         0         0         0         0         0
         0         0         0         0         0         0         0         0
         0         0         0         0         0         0         0         0
         0         0         0         0         0         0         0         0
         0         0         0         0         0         0         0         0
         0         0         0         0         0         0         0         0
         0         0         0         0         0         0         0         0
         0         0         0         0         0         0         0         0
         0         0         0         0         0         0         0         0
         0         0         0         0         0         0         0         0
         0         0         0         0         0         0         0         0
         0         0         0         0         0         0         0         0
         0         0         0         0         0         0         0         0
         0         0         0         0         0         0         0         0
         0         0         0         0         0         0         0         0
         0         0         0         0         0         0         0         0
         0         0         0         0         0         0         0         0
         0         0         0         0         0         0         0         0
         0         0         0         0         0         0         0         0
         0         0         0         0         0         0         0         0
         0         0         0         0         0         0         0         0
         0         0         0         0         0         0         0         0
         0         0         0         0         0         0         0         0
         0         0         0         0         0         0         0         0
         0         0         0         0         0         0         0         0
         0         0         0         0         0         0         0         0
         0         0         0         0         0         0         0         0
         0         0         0         0         0         0         0         0
         0         0         0         0         0         0         0         0
         0         0         0         0         0         0         0         0
         0         0         0         0         0         0         0         0
         0         0         0         0         0         0         0         0
         0         0         0         0         0         0         0         0
         0         0         0         0         0         0         0         0
         0         0         0         0         0         0         0         0
         0         0         0         0         0         0         0         0
         0         0         0         0         0         0         0         0
         0         0         0         0         0         0         0         0
         0         0         0         0         0         0         0         0
         0         0         0         0         0         0         0         0
         0         0         0         0         0         0         0         0
         0         0         0         0         0         0         0         0
         0         0         0         0         0         0         0         0
         0         0         0         0         0         0         0         0
         0         0         0         0         0         0         0         0
         0         0         0         0         0         0         0         0
         0         0         0         0         0         0         0         0
         0         0         0         0         0         0         0         0
         0         0         0         0         0         0         0         0
         0         0         0         0         0         0         0         0
         0         0         0         0         0         0         0         0
         0         0         0         0         0         0         0         0
         0         0         0         0         0         0         0         0
         0         0         0         0         0         0         0         0
         0         0         0         0         0         0         0         0
         0         0         0         0         0         0         0         0
         0         0         0         0         0         0         0         0
         0         0         0         0         0         0         0         0
         0         0         0         0         0         0         0         0
         0         0         0         0         0         0         0         0
         0         0         0         0         0         0         0         0
         0         0         0         0         0         0         0         0
         0         0         0         0         0         0         0         0
         0         0         0         0         0         0         0         0
         0         0         0         0         0         0         0         0
         0         0         0         0         0         0         0         0
         0         0         0         0         0         0         0         0
         0         0         0         0         0         0         0         0
         0         0         0         0         0         0         0         0
         0         0         0         0         0         0         0         0
         0         0         0         0         0         0         0         0
         0         0         0         0         0         0         0         0
         0         0         0         0         0         0         0         0
         0         0         0         0         0         0         0         0
         0         0         0         0         0         0         0         0
         0         0         0         0         0         0         0         0
         0         0         0         0         0         0         0         0
         0         0         0         0         0         0         0         0
         0         0         0         0         0         0         0         0
         0         0         0         0         0         0         0         0
         0         0         0         0         0         0         0         0
         0         0         0         0         0         0         0         0
         0         0         0         0         0         0         0         0
         0         0         0         0         0         0         0         0
         0         0         0         0         0         0         0         0
         0         0         0         0         0         0         0         0
         0         0         0         0         0         0         0         0
         0         0         0         0         0         0         0         0
         0         0         0         0         0         0         0         0
         0         0         0         0         0         0         0         0
         0         0         0         0         0         0         0         0
         0         0         0         0         0         0         0         0
         0         0         0         0         0         0         0         0
         0         0         0         0         0         0         0         0
         0         0         0         0         0         0         0         0
         0         0         0         0         0         0         0         0
         0         0         0         0         0         0         0         0
         0         0         0         0         0         0         0         0
         0         0         0         0         0         0         0         0
         0         0         0         0         0         0         0         0
         0         0         0         0         0         0         0         0
         0         0         0         0         0         0         0         0
         0         0         0         0         0         0         0         0
         0         0         0         0         0         0         0         0
         0         0         0         0         0         0         0         0
         0         0         0         0         0         0         0         0
         0         0         0         0         0         0         0         0
         0         0         0         0         0         0         0         0
         0         0         0         0         0         0         0         0
         0         0         0         0         0         0         0         0
         0         0         0         0         0         0         0         0
         0         0         0         0         0         0         0         0
         0         0         0         0         0         0         0         0
         0         0         0         0         0         0         0         0
         0         0         0         0         0         0         0         0
         0         0         0         0         0         0         0         0
         0         0         0         0         0         0         0         0
         0         0         0         0         0         0         0         0
         0         0         0         0         0         0         0         0
         0         0         0         0         0         0         0         0
         0         0         0         0         0         0         0         0
         0         0         0         0         0         0         0         0
         0         0         0         0         0         0         0         0
         0         0         0         0         0         0         0         0
         0         0         0         0         0         0         0         0
         0         0         0         0         0         0         0         0
         0         0         0         0         0         0         0         0
         0         0         0         0         0         0         0         0
         0         0         0         0         0         0         0         0
         0         0         0         0         0         0         0         0
         0         0         0         0         0         0         0         0
         0         0         0         0         0         0         0         0
         0         0         0         0         0         0         0         0
         0         0         0         0         0         0         0         0
         0         0         0         0         0         0         0         0
         0         0         0         0         0         0         0         0
         0         0         0         0         0         0         0         0
         0         0         0         0         0         0         0         0
         0         0         0         0         0         0         0         0
         0         0         0         0         0         0         0         0
         0         0         0         0         0         0         0         0
         0         0         0         0         0         0         0         0
         0         0         0         0         0         0         0         0
         0         0         0         0         0         0         0         0
         0         0         0         0         0         0         0         0
         0         0         0         0         0         0         0         0
         0         0         0         0         0         0         0         0
         0         0         0         0         0         0         0         0
         0         0         0         0         0         0         0         0
         0         0         0         0         0         0         0         0
         0         0         0         0         0         0         0         0
         0         0         0         0         0         0         0         0
         0         0         0         0         0         0         0         0
         0         0         0         0         0         0         0         0
         0         0         0         0         0         0         0         0
         0         0         0         0         0         0         0         0
         0         0         0         0         0         0         0         0
         0         0         0         0         0         0         0         0
         0         0         0         0         0         0         0         0
         0         0         0         0         0         0         0         0
         0         0         0         0         0         0         0         0
         0         0         0         0         0         0         0         0
         0         0         0         0         0         0         0         0
         0         0         0         0         0         0         0         0
         0         0         0         0         0         0         0         0
         0         0         0         0         0         0         0         0
         0         0         0         0         0         0         0         0
         0         0         0         0         0         0         0         0
         0         0         0         0         0         0         0         0
         0         0         0         0         0         0         0         0
         0         0         0         0         0         0         0         0
         0         0         0         0         0         0         0         0
         0         0         0         0         0         0         0         0
         0         0         0         0         0         0         0         0
         0         0         0         0         0         0         0         0
         0         0         0         0         0         0         0         0
         0         0         0         0         0         0         0         0
         0         0         0         0         0         0         0         0
         0         0         0         0         0         0         0         0
         0         0         0         0         0         0         0         0
         0         0         0         0         0         0         0         0
         0         0         0         0         0         0         0         0
         0         0         0         0         0         0         0         0
         0         0         0         0         0         0         0         0
         0         0         0         0         0         0         0         0
         0         0         0         0         0         0         0         0
         0         0         0         0         0         0         0         0
         0         0         0         0         0         0         0         0
         0         0         0         0         0         0         0         0
         0         0         0         0         0         0         0         0
         0         0         0         0         0         0         0         0
         0         0         0         0         0         0         0         0
         0         0         0         0         0         0         0         0
         0         0         0         0         0         0         0         0
         0         0         0         0         0         0         0         0
         0         0         0         0         0         0         0         0
         0         0         0         0         0         0         0         0
         0         0         0         0         0         0         0         0
         0         0         0         0         0         0         0         0
         0         0         0         0         0         0         0         0
         0         0         0         0         0         0         0         0
         0         0         0         0         0         0         0         0
         0         0         0         0         0         0         0         0
         0         0         0         0         0         0         0         0
         0         0         0         0         0         0         0         0
         0         0         0         0         0         0         0         0
         0         0         0         0         0         0         0         0
         0         0         0         0         0         0         0         0
         0         0         0         0         0         0         0         0
         0         0         0         0         0         0         0         0
         0         0         0         0         0         0         0         0
         0         0         0         0         0         0         0         0
         0         0         0         0         0         0         0         0
         0         0         0         0         0         0         0         0
         0         0         0         0         0         0         0         0
         0         0         0         0         0         0         0         0
         0         0         0         0         0         0         0         0
         0         0         0         0         0         0         0         0
         0         0         0         0         0         0         0         0
         0         0         0         0         0         0         0         0
         0         0         0         0         0         0         0         0
         0         0         0         0         0         0         0         0
         0         0         0         0         0         0         0         0
         0         0         0         0         0         0         0         0
         0         0         0         0         0         0         0         0
         0         0         0         0         0         0         0         0
         0         0         0         0         0         0         0         0
         0         0         0         0         0         0         0         0
         0         0         0         0         0         0         0         0
         0         0         0         0         0         0         0         0
         0         0         0         0         0         0         0         0
         0         0         0         0         0         0         0         0
         0         0         0         0         0         0         0         0
         0         0         0         0         0         0         0         0
         0         0         0         0         0         0         0         0
         0         0         0         0         0         0         0         0
         0         0         0         0         0         0         0         0
         0         0         0         0         0         0         0         0
         0         0         0         0         0         0         0         0
         0         0         0         0         0         0         0         0
         0         0         0         0         0         0         0         0
         0         0         0         0         0         0         0         0
         0         0         0         0         0         0         0         0
         0         0         0         0         0         0         0         0
         0         0         0         0         0         0         0         0
         0         0         0         0         0         0         0         0
         0         0         0         0         0         0         0         0
         0         0         0         0         0         0         0         0
         0         0         0         0         0         0         0         0
         0         0         0         0         0         0         0         0
         0         0         0         0         0         0         0         0
         0         0         0         0         0         0         0         0
         0         0         0         0         0         0         0         0
         0         0         0         0         0         0         0         0
         0         0         0         0         0         0         0         0
         0         0         0         0         0         0         0         0
         0         0         0         0         0         0         0         0
         0         0         0         0         0         0         0         0
         0         0         0         0         0         0         0         0
         0         0         0         0         0         0         0         0
         0         0         0         0         0         0         0         0
         0         0         0         0         0         0         0         0
         0         0         0         0         0         0         0         0
         0         0         0         0         0         0         0         0
         0         0         0         0         0         0         0         0
         0         0         0         0         0         0         0         0
         0         0         0         0         0         0         0         0
         0         0         0         0         0         0         0         0
         0         0         0         0         0         0         0         0
         0         0         0         0         0         0         0         0
         0         0         0         0         0         0         0         0
         0         0         0         0         0         0         0         0
         0         0         0         0         0         0         0         0
         0         0         0         0         0         0         0         0
         0         0         0         0         0         0         0         0
         0         0         0         0         0         0         0         0
         0         0         0         0         0         0         0         0
         0         0         0         0         0         0         0         0
         0         0         0         0         0         0         0         0
         0         0         0         0         0         0         0         0
         0         0         0         0         0         0         0         0
         0         0         0         0         0         0         0         0
         0         0         0         0         0         0         0         0
         0         0         0         0         0         0         0         0
         0         0         0         0         0         0         0         0
         0         0         0         0         0         0         0         0
         0         0         0         0         0         0         0         0
         0         0         0         0         0         0         0         0
         0         0         0         0         0         0         0         0
         0         0         0         0         0         0         0         0
         0         0         0         0         0         0         0         0
         0         0         0         0         0         0         0         0
         0         0         0         0         0         0         0         0
         0         0         0         0         0         0         0         0
         0         0         0         0         0         0         0         0
         0         0         0         0         0         0         0         0
         0         0         0         0         0         0         0         0
         0         0         0         0         0         0         0         0
         0         0         0         0         0         0         0         0
         0         0         0         0         0         0         0         0
         0         0         0         0         0         0         0         0
         0         0         0         0         0         0         0         0
         0         0         0         0         0         0         0         0
         0         0         0         0         0         0         0         0
         0         0         0         0         0         0         0         0
         0         0         0         0         0         0         0         0
         0         0         0         0         0         0         0         0
         0         0         0         0         0         0         0         0
         0         0         0         0         0         0         0         0
         0         0         0         0         0         0         0         0
         0         0         0         0         0         0         0         0
         0         0         0         0         0         0         0         0
         0         0         0         0         0         0         0         0
         0         0         0         0         0         0         0         0
         0         0         0         0         0         0         0         0
         0         0         0         0         0         0         0         0
         0         0         0         0         0         0         0         0
         0         0         0         0         0         0         0         0
         0         0         0         0         0         0         0         0
         0         0         0         0         0         0         0         0
         0         0         0         0         0         0         0         0
         0         0         0         0         0         0         0         0
         0         0         0         0         0         0         0         0
         0         0         0         0         0         0         0         0
         0         0         0         0         0         0         0         0
         0         0         0         0         0         0         0         0
         0         0         0         0         0         0         0         0
         0         0         0         0         0         0         0         0
         0         0         0         0         0         0         0         0
         0         0         0         0         0         0         0         0
         0         0         0         0         0         0         0         0
         0         0         0         0         0         0         0         0
         0         0         0         0         0         0         0         0
         0         0         0         0         0         0         0         0
         0         0         0         0         0         0         0         0
         0         0         0         0         0         0         0         0
         0         0         0         0         0         0         0         0
         0         0         0         0         0         0         0         0
         0         0         0         0         0         0         0         0
         0         0         0         0         0         0         0         0
         0         0         0         0         0         0         0         0
         0         0         0         0         0         0         0         0
         0         0         0         0         0         0         0         0
         0         0         0         0         0         0         0         0
         0         0         0         0         0         0         0         0
         0         0         0         0         0         0         0         0
         0         0         0         0         0         0         0         0
         0         0         0         0         0         0         0         0
         0         0         0         0         0         0         0         0
         0         0         0         0         0         0         0         0
         0         0         0         0         0         0         0         0
         0         0         0         0         0         0         0         0
         0         0         0         0         0         0         0         0
         0         0         0         0         0         0         0         0
         0         0         0         0         0         0         0         0
         0         0         0         0         0         0         0         0
         0         0         0         0         0         0         0         0
         0         0         0         0         0         0         0         0
         0         0         0         0         0         0         0         0
         0         0         0         0         0         0         0         0
         0         0         0         0         0         0         0         0
         0         0         0         0         0         0         0         0
         0         0         0         0         0         0         0         0
         0         0         0         0         0         0         0         0
         0         0         0         0         0         0         0         0
         0         0         0         0         0         0         0         0
         0         0         0         0         0         0         0         0
         0         0         0         0         0         0         0         0
         0         0         0         0         0         0         0         0
         0         0         0         0         0         0         0         0
         0         0         0         0         0         0         0         0
         0         0         0         0         0         0         0         0
         0         0         0         0         0         0         0         0
         0         0         0         0         0         0         0         0
         0         0         0         0         0         0         0         0
         0         0         0         0         0         0         0         0
         0         0         0         0         0         0         0         0
         0         0         0         0         0         0         0         0
         0         0         0         0         0         0         0         0
         0         0         0         0         0         0         0         0
         0         0         0         0         0         0         0         0
         0         0         0         0         0         0         0         0
         0         0         0         0         0         0         0         0
         0         0         0         0         0         0         0         0
         0         0         0         0         0         0         0         0
         0         0         0         0         0         0         0         0
         0         0         0         0         0         0         0         0
         0         0         0         0         0         0         0         0
         0         0         0         0         0         0         0         0
         0         0         0         0         0         0         0         0
         0         0         0         0         0         0         0         0
         0         0         0         0         0         0         0         0
         0         0         0         0         0         0         0         0
         0         0         0         0         0         0         0         0
         0         0         0         0         0         0         0         0
         0         0         0         0         0         0         0         0
         0         0         0         0         0         0         0         0
         0         0         0         0         0         0         0         0
         0         0         0         0         0         0         0         0
         0         0         0         0         0         0         0         0
         0         0         0         0         0         0         0         0
         0         0         0         0         0         0         0         0
         0         0         0         0         0         0         0         0
         0         0         0         0         0         0         0         0
         0         0         0         0         0         0         0         0
         0         0         0         0         0         0         0         0
         0         0         0         0         0         0         0         0
         0         0         0         0         0         0         0         0
         0         0         0         0         0         0         0         0
         0         0         0         0         0         0         0         0
         0         0         0         0         0         0         0         0
         0         0         0         0         0         0         0         0
         0         0         0         0         0         0         0         0
         0         0         0         0         0         0         0         0
         0         0         0         0         0         0         0         0
         0         0         0         0         0         0         0         0
         0         0         0         0         0         0         0         0
         0         0         0         0         0         0         0         0
         0         0         0         0         0         0         0         0
         0         0         0         0         0         0         0         0
         0         0         0         0         0         0         0         0
         0         0         0         0         0         0         0         0
         0         0         0         0         0         0         0         0
         0         0         0         0         0         0         0         0
         0         0         0         0         0         0         0         0
         0         0         0         0         0         0         0         0
         0         0         0         0         0         0         0         0
         0         0         0         0         0         0         0         0
         0         0         0         0         0         0         0         0
         0         0         0         0         0         0         0         0
         0         0         0         0         0         0         0         0
         0         0         0         0         0         0         0         0
         0         0         0         0         0         0         0         0
         0         0         0         0         0         0         0         0
         0         0         0         0         0         0         0         0
         0         0         0         0         0         0         0         0
         0         0         0         0         0         0         0         0
         0         0         0         0         0         0         0         0
         0         0         0         0         0         0         0         0
         0         0         0         0         0         0         0         0
         0         0         0         0         0         0         0         0
         0         0         0         0         0         0         0         0
         0         0         0         0         0         0         0         0
         0         0         0         0         0         0         0         0
         0         0         0         0         0         0         0         0
         0         0         0         0         0         0         0         0
         0         0         0         0         0         0         0         0
         0         0         0         0         0         0         0         0
         0         0         0         0         0         0         0         0
         0         0         0         0         0         0         0         0
         0         0         0         0         0         0         0         0
         0         0         0         0         0         0         0         0
         0         0         0         0         0         0         0         0
         0         0         0         0         0         0         0         0
         0         0         0         0         0         0         0         0
         0         0         0         0         0         0         0         0
         0         0         0         0         0         0         0         0
         0         0         0         0         0         0         0         0
         0         0         0         0         0         0         0         0
         0         0         0         0         0         0         0         0
         0         0         0         0         0         0         0         0
         0         0         0         0         0         0         0         0
         0         0         0         0         0         0         0         0
         0         0         0         0         0         0         0         0
         0         0         0         0         0         0         0         0
         0         0         0         0         0         0         0         0
         0         0         0         0         0         0         0         0
         0         0         0         0         0         0         0         0
         0         0         0         0         0         0         0         0
         0         0         0         0         0         0         0         0
         0         0         0         0         0         0         0         0
         0         0         0         0         0         0         0         0
         0         0         0         0         0         0         0         0
         0         0         0         0         0         0         0         0
         0         0         0         0         0         0         0         0
         0         0         0         0         0         0         0         0
         0         0         0         0         0         0         0         0
         0         0         0         0         0         0         0         0
         0         0         0         0         0         0         0         0
         0         0         0         0         0         0         0         0
         0         0         0         0         0         0         0         0
         0         0         0         0         0         0         0         0
         0         0         0         0         0         0         0         0
         0         0         0         0         0         0         0         0
         0         0         0         0         0         0         0         0
         0         0         0         0         0         0         0         0
         0         0         0         0         0         0         0         0
         0         0         0         0         0         0         0         0
         0         0         0         0         0         0         0         0
         0         0         0         0         0         0         0         0
         0         0         0         0         0         0         0         0
         0         0         0         0         0         0         0         0
         0         0         0         0         0         0         0         0
         0         0         0         0         0         0         0         0
         0         0         0         0         0         0         0         0
         0         0         0         0         0         0         0         0
         0         0         0         0         0         0         0         0
         0         0         0         0         0         0         0         0
         0         0         0         0         0         0         0         0
         0         0         0         0         0         0         0         0
         0         0         0         0         0         0         0         0
         0         0         0         0         0         0         0         0
         0         0         0         0         0         0         0         0
         0         0         0         0         0         0         0         0
         0         0         0         0         0         0         0         0
         0         0         0         0         0         0         0         0
         0         0         0         0         0         0         0         0
         0         0         0         0         0         0         0         0
         0         0         0         0         0         0         0         0
         0         0         0         0         0         0         0         0
         0         0         0         0         0         0         0         0
         0         0         0         0         0         0         0         0
         0         0         0         0         0         0         0         0
         0         0         0         0         0         0         0         0
         0         0         0         0         0         0         0         0
         0         0         0         0         0         0         0         0
         0         0         0         0         0         0         0         0
         0         0         0         0         0         0         0         0
         0         0         0         0         0         0         0         0
         0         0         0         0         0         0         0         0
         0         0         0         0         0         0         0         0
         0         0         0         0         0         0         0         0
         0         0         0         0         0         0         0         0
         0         0         0         0         0         0         0         0
         0         0         0         0         0         0         0         0
         0         0         0         0         0         0         0         0
         0         0         0         0         0         0         0         0
         0         0         0         0         0         0         0         0
         0         0         0         0         0         0         0         0
         0         0         0         0         0         0         0         0
         0         0         0         0         0         0         0         0
         0         0         0         0         0         0         0         0
         0         0         0         0         0         0         0         0
         0         0         0         0         0         0         0         0
         0         0         0         0         0         0         0         0
         0         0         0         0         0         0         0         0
         0         0         0         0         0         0         0         0
         0         0         0         0         0         0         0         0
         0         0         0         0         0         0         0         0
         0         0         0         0         0         0         0         0
         0         0         0         0         0         0         0         0
         0         0         0         0         0         0         0         0
         0         0         0         0         0         0         0         0
         0         0         0         0         0         0         0         0
         0         0         0         0         0         0         0         0
         0         0         0         0         0         0         0         0
         0         0         0         0         0         0         0         0
         0         0         0         0         0         0         0         0
         0         0         0         0         0         0         0         0
         0         0         0         0         0         0         0         0
         0         0         0         0         0         0         0         0
         0         0         0         0         0         0         0         0
         0         0         0         0         0         0         0         0
         0         0         0         0         0         0         0         0
         0         0         0         0         0         0         0         0
         0         0         0         0         0         0         0         0
         0         0         0         0         0         0         0         0
         0         0         0         0         0         0         0         0
         0         0         0         0         0         0         0         0
         0         0         0         0         0         0         0         0
         0         0         0         0         0         0         0         0
         0         0         0         0         0         0         0         0
         0         0         0         0         0         0         0         0
         0         0         0         0         0         0         0         0
         0         0         0         0         0         0         0         0
         0         0         0         0         0         0         0         0
         0         0         0         0         0         0         0         0
         0         0         0         0         0         0         0         0
         0         0         0         0         0         0         0         0
         0         0         0         0         0         0         0         0
         0         0         0         0         0         0         0         0
         0         0         0         0         0         0         0         0
         0         0         0         0         0         0         0         0
         0         0         0         0         0         0         0         0
         0         0         0         0         0         0         0         0
         0         0         0         0         0         0         0         0
         0         0         0         0         0         0         0         0
         0         0         0         0         0         0         0         0
         0         0         0         0         0         0         0         0
         0         0         0         0         0         0         0         0
         0         0         0         0         0         0         0         0
         0         0         0         0         0         0         0         0
         0         0         0         0         0         0         0         0
         0         0         0         0         0         0         0         0
         0         0         0         0         0         0         0         0
         0         0         0         0         0         0         0         0
         0         0         0         0         0         0         0         0
         0         0         0         0         0         0         0         0
         0         0         0         0         0         0         0         0
         0         0         0         0         0         0         0         0
         0         0         0         0         0         0         0         0
         0         0         0         0         0         0         0         0
         0         0         0         0         0         0         0         0
         0         0         0         0         0         0         0         0
         0         0         0         0         0         0         0         0
         0         0         0         0         0         0         0         0
         0         0         0         0         0         0         0         0
         0         0         0         0         0         0         0         0
         0         0         0         0         0         0         0         0
         0         0         0         0         0         0         0         0
         0         0         0         0         0         0         0         0
         0         0         0         0         0         0         0         0
         0         0         0         0         0         0         0         0
         0         0         0         0         0         0         0         0
         0         0         0         0         0         0         0         0
         0         0         0         0         0         0         0         0
         0         0         0         0         0         0         0         0
         0         0         0         0         0         0         0         0
         0         0         0         0         0         0         0         0
         0         0         0         0         0         0         0         0
         0         0         0         0         0         0         0         0
         0         0         0         0         0         0         0         0
         0         0         0         0         0         0         0         0
         0         0         0         0         0         0         0         0
         0         0         0         0         0         0         0         0
         0         0         0         0         0         0         0         0
         0         0         0         0         0         0         0         0
         0         0         0         0         0         0         0         0
         0         0         0         0         0         0         0         0
         0         0         0         0         0         0         0         0
         0         0         0         0         0         0         0         0
         0         0         0         0         0         0         0         0
         0         0         0         0         0         0         0         0
         0         0         0         0         0         0         0         0
         0         0         0         0         0         0         0         0
         0         0         0         0         0         0         0         0
         0         0         0         0         0         0         0         0
         0         0         0         0         0         0         0         0
         0         0         0         0         0         0         0         0
         0         0         0         0         0         0         0         0
         0         0         0         0         0         0         0         0
         0         0         0         0         0         0         0         0
         0         0         0         0         0         0         0         0
         0         0         0         0         0         0         0         0
         0         0         0         0         0         0         0         0
         0         0         0         0         0         0         0         0
         0         0         0         0         0         0         0         0
         0         0         0         0         0         0         0         0
         0         0         0         0         0         0         0         0
         0         0         0         0         0         0         0         0
         0         0         0         0         0         0         0         0
         0         0         0         0         0         0         0         0
         0         0         0         0         0         0         0         0
         0         0         0         0         0         0         0         0
         0         0         0         0         0         0         0         0
         0         0         0         0         0         0         0         0
         0         0         0         0         0         0         0         0
         0         0         0         0         0         0         0         0
         0         0         0         0         0         0         0         0
         0         0         0         0         0         0         0         0
         0         0         0         0         0         0         0         0
         0         0         0         0         0         0         0         0
         0         0         0         0         0         0         0         0
         0         0         0         0         0         0         0         0
         0         0         0         0         0         0         0         0
         0         0         0         0         0         0         0         0
         0         0         0         0         0         0         0         0
         0         0         0         0         0         0         0         0
         0         0         0         0         0         0         0         0
         0         0         0         0         0         0         0         0
         0         0         0         0         0         0         0         0
         0         0         0         0         0         0         0         0
         0         0         0         0         0         0         0         0
         0         0         0         0         0         0         0         0
         0         0         0         0         0         0         0         0
         0         0         0         0         0         0         0         0
         0         0         0         0         0         0         0         0
         0         0         0         0         0         0         0         0
         0         0         0         0         0         0         0         0
         0         0         0         0         0         0         0         0
         0         0         0         0         0         0         0         0
         0         0         0         0         0         0         0         0
         0         0         0         0         0         0         0         0
         0         0         0         0         0         0         0         0
         0         0         0         0         0         0         0         0
         0         0         0         0         0         0         0         0
         0         0         0         0         0         0         0         0
         0         0         0         0         0         0         0         0
         0         0         0         0         0         0         0         0
         0         0         0         0         0         0         0         0
         0         0         0         0         0         0         0         0
         0         0         0         0         0         0         0         0
         0         0         0         0         0         0         0         0
         0         0         0         0         0         0         0         0
         0         0         0         0         0         0         0         0
         0         0         0         0         0         0         0         0
         0         0         0         0         0         0         0         0
         0         0         0         0         0         0         0         0
         0         0         0         0         0         0         0         0
         0         0         0         0         0         0         0         0
         0         0         0         0         0         0         0         0
         0         0         0         0         0         0         0         0
         0         0         0         0         0         0         0         0
         0         0         0         0         0         0         0         0
         0         0         0         0         0         0         0         0
         0         0         0         0         0         0         0         0
         0         0         0         0         0         0         0         0
         0         0         0         0         0         0         0         0
         0         0         0         0         0         0         0         0
         0         0         0         0         0         0         0         0
         0         0         0         0         0         0         0         0
         0         0         0         0         0         0         0         0
         0         0         0         0         0         0         0         0
         0         0         0         0         0         0         0         0
         0         0         0         0         0         0         0         0
         0         0         0         0         0         0         0         0
         0         0         0         0         0         0         0         0
         0         0         0         0         0         0         0         0
         0         0         0         0         0         0         0         0
         0         0         0         0         0         0         0         0
         0         0         0         0         0         0         0         0
         0         0         0         0         0         0         0         0
         0         0         0         0         0         0         0         0
         0         0         0         0         0         0         0         0
         0         0         0         0         0         0         0         0
         0         0         0         0         0         0         0         0
         0         0         0         0         0         0         0         0
         0         0         0         0         0         0         0         0
         0         0         0         0         0         0         0         0
         0         0         0         0         0         0         0         0
         0         0         0         0         0         0         0         0
         0         0         0         0         0         0         0         0
         0         0         0         0         0         0         0         0
         0         0         0         0         0         0         0         0
         0         0         0         0         0         0         0         0
         0         0         0         0         0         0         0         0
         0         0         0         0         0         0         0         0
         0         0         0         0         0         0         0         0
         0         0         0         0         0         0         0         0
         0         0         0         0         0         0         0         0
         0         0         0         0         0         0         0         0
         0         0         0         0         0         0         0         0
         0         0         0         0         0         0         0         0
         0         0         0         0         0         0         0         0
         0         0         0         0         0         0         0         0
         0         0         0         0         0         0         0         0
         0         0         0         0         0         0         0         0
         0         0         0         0         0         0         0         0
         0         0         0         0         0         0         0         0
         0         0         0         0         0         0         0         0
         0         0         0         0         0         0         0         0
         0         0         0         0         0         0         0         0
         0         0         0         0         0         0         0         0
         0         0         0         0         0         0         0         0
         0         0         0         0         0         0         0         0
         0         0         0         0         0         0         0         0
         0         0         0         0         0         0         0         0
         0         0         0         0         0         0         0         0
         0         0         0         0         0         0         0         0
         0         0         0         0         0         0         0         0
         0         0         0         0         0         0         0         0
         0         0         0         0         0         0         0         0
         0         0         0         0         0         0         0         0
         0         0         0         0         0         0         0         0
         0         0         0         0         0         0         0         0
         0         0         0         0         0         0         0         0
         0         0         0         0         0         0         0         0
         0         0         0         0         0         0         0         0
         0         0         0         0         0         0         0         0
         0         0         0         0         0         0         0         0
         0         0         0         0         0         0         0         0
         0         0         0         0         0         0         0         0
         0         0         0         0         0         0         0         0
         0         0         0         0         0         0         0         0
         0         0         0         0         0         0         0         0
         0         0         0         0         0         0         0         0
         0         0         0         0         0         0         0         0
         0         0         0         0         0         0         0         0
         0         0         0         0         0         0         0         0
         0         0         0         0         0         0         0         0
         0         0         0         0         0         0         0         0
         0         0         0         0         0         0         0         0
         0         0         0         0         0         0         0         0
         0         0         0         0         0         0         0         0
         0         0         0         0         0         0         0         0
         0         0         0         0         0         0         0         0
         0         0         0         0         0         0         0         0
         0         0         0         0         0         0         0         0
         0         0         0         0         0         0         0         0
         0         0         0         0         0         0         0         0
         0         0         0         0         0         0         0         0
         0         0         0         0         0         0         0         0
         0         0         0         0         0         0         0         0
         0         0         0         0         0         0         0         0
         0         0         0         0         0         0         0         0
         0         0         0         0         0         0         0         0
         0         0         0         0         0         0         0         0
         0         0         0         0         0         0         0         0
         0         0         0         0         0         0         0         0
         0         0         0         0         0         0         0         0
         0         0         0         0         0         0         0         0
         0         0         0         0         0         0         0         0
         0         0         0         0         0         0         0         0
         0         0         0         0         0         0         0         0
         0         0         0         0         0         0         0         0
         0         0         0         0         0         0         0         0
         0         0         0         0         0         0         0         0
         0         0         0         0         0         0         0         0
         0         0         0         0         0         0         0         0
         0         0         0         0         0         0         0         0
         0         0         0         0         0         0         0         0
         0         0         0         0         0         0         0         0
         0         0         0         0         0         0         0         0
         0         0         0         0         0         0         0         0
         0         0         0         0         0         0         0         0
         0         0         0         0         0         0         0         0
         0         0         0         0         0         0         0         0
         0         0         0         0         0         0         0         0
         0         0         0         0         0         0         0         0
         0         0         0         0         0         0         0         0
         0         0         0         0         0         0         0         0
         0         0         0         0         0         0         0         0
         0         0         0         0         0         0         0         0
         0         0         0         0         0         0         0         0
         0         0         0         0         0         0         0         0
         0         0         0         0         0         0         0         0
         0         0         0         0         0         0         0         0
         0         0         0         0         0         0         0         0
         0         0         0         0         0         0         0         0
         0         0         0         0         0         0         0         0
         0         0         0         0         0         0         0         0
         0         0         0         0         0         0         0         0
         0         0         0         0         0         0         0         0
         0         0         0         0         0         0         0         0
         0         0         0         0         0         0         0         0
         0         0         0         0         0         0         0         0
         0         0         0         0         0         0         0         0
         0         0         0         0         0         0         0         0
         0         0         0         0         0         0         0         0
         0         0         0         0         0         0         0         0
         0         0         0         0         0         0         0         0
         0         0         0         0         0         0         0         0
         0         0         0         0         0         0         0         0
         0         0         0         0         0         0         0         0
         0         0         0         0         0         0         0         0
         0         0         0         0         0         0         0         0
         0         0         0         0         0         0         0         0
         0         0         0         0         0         0         0         0
         0         0         0         0         0         0         0         0
         0         0         0         0         0         0         0         0
         0         0         0         0         0         0         0         0
         0         0         0         0         0         0         0         0
         0         0         0         0         0         0         0         0
         0         0         0         0         0         0         0         0
         0         0         0         0         0         0         0         0
         0         0         0         0         0         0         0         0
         0         0         0         0         0         0         0         0
         0         0         0         0         0         0         0         0
         0         0         0         0         0         0         0         0
         0         0         0         0         0         0         0         0
         0         0         0         0         0         0         0         0
         0         0         0         0         0         0         0         0
         0         0         0         0         0         0         0         0
         0         0         0         0         0         0         0         0
         0         0         0         0         0         0         0         0
         0         0         0         0         0         0         0         0
         0         0         0         0         0         0         0         0
         0         0         0         0         0         0         0         0
         0         0         0         0         0         0         0         0
         0         0         0         0         0         0         0         0
         0         0         0         0         0         0         0         0
         0         0         0         0         0         0         0         0
         0         0         0         0         0         0         0         0
         0         0         0         0         0         0         0         0
         0         0         0         0         0         0         0         0
         0         0         0         0         0         0         0         0
         0         0         0         0         0         0         0         0
         0         0         0         0         0         0         0         0
         0         0         0         0         0         0         0         0
         0         0         0         0         0         0         0         0
         0         0         0         0         0         0         0         0
         0         0         0         0         0         0         0         0
         0         0         0         0         0         0         0         0
         0         0         0         0         0         0         0         0
         0         0         0         0         0         0         0         0
         0         0         0         0         0         0         0         0
         0         0         0         0         0         0         0         0
         0         0         0         0         0         0         0         0
         0         0         0         0         0         0         0         0
         0         0         0         0         0         0         0         0
         0         0         0         0         0         0         0         0
         0         0         0         0         0         0         0         0
         0         0         0         0         0         0         0         0
         0         0         0         0         0         0         0         0
         0         0         0         0         0         0         0         0
         0         0         0         0         0         0         0         0
         0         0         0         0         0         0         0         0
         0         0         0         0         0         0         0         0
         0         0         0         0         0         0         0         0
         0         0         0         0         0         0         0         0
         0         0         0         0         0         0         0         0
         0         0         0         0         0         0         0         0
         0         0         0         0         0         0         0         0
         0         0         0         0         0         0         0         0
         0         0         0         0         0         0         0         0
         0         0         0         0         0         0         0         0
         0         0         0         0         0         0         0         0
         0         0         0         0         0         0         0         0
         0         0         0         0         0         0         0         0
         0         0         0         0         0         0         0         0
         0         0         0         0         0         0         0         0
         0         0         0         0         0         0         0         0
         0         0         0         0         0         0         0         0
         0         0         0         0         0         0         0         0
         0         0         0         0         0         0         0         0
         0         0         0         0         0         0         0         0
         0         0         0         0         0         0         0         0
         0         0         0         0         0         0         0         0
         0         0         0         0         0         0         0         0
         0         0         0         0         0         0         0         0
         0         0         0         0         0         0         0         0
         0         0         0         0         0         0         0         0
         0         0         0         0         0         0         0         0
         0         0         0         0         0         0         0         0
         0         0         0         0         0         0         0         0
         0         0         0         0         0         0         0         0
         0         0         0         0         0         0         0         0
         0         0         0         0         0         0         0         0
         0         0         0         0         0         0         0         0
         0         0         0         0         0         0         0         0
         0         0         0         0         0         0         0         0
         0         0         0         0         0         0         0         0
         0         0         0         0         0         0         0         0
         0         0         0         0         0         0         0         0
         0         0         0         0         0         0         0         0
         0         0         0         0         0         0         0         0
         0         0         0         0         0         0         0         0
         0         0         0         0         0         0         0         0
         0         0         0         0         0         0         0         0
         0         0         0         0         0         0         0         0
         0         0         0         0         0         0         0         0
         0         0         0         0         0         0         0         0
         0         0         0         0         0         0         0         0
         0         0         0         0         0         0         0         0
         0         0         0         0         0         0         0         0
         0         0         0         0         0         0         0         0
         0         0         0         0         0         0         0         0
         0         0         0         0         0         0         0         0
         0         0         0         0         0         0         0         0
         0         0         0         0         0         0         0         0
         0         0         0         0         0         0         0         0
         0         0         0         0         0         0         0         0
         0         0         0         0         0         0         0         0
         0         0         0         0         0         0         0         0
         0         0         0         0         0         0         0         0
         0         0         0         0         0         0         0         0
         0         0         0         0         0         0         0         0
         0         0         0         0         0         0         0         0
         0         0         0         0         0         0         0         0
         0         0         0         0         0         0         0         0
         0         0         0         0         0         0         0         0
         0         0         0         0         0         0         0         0
         0         0         0         0         0         0         0         0
         0         0         0         0         0         0         0         0
         0         0         0         0         0         0         0         0
         0         0         0         0         0         0         0         0
         0         0         0         0         0         0         0         0
         0         0         0         0         0         0         0         0
         0         0         0         0         0         0         0         0
         0         0         0         0         0         0         0         0
         0         0         0         0         0         0         0         0
         0         0         0         0         0         0         0         0
         0         0         0         0         0         0         0         0
         0         0         0         0         0         0         0         0
         0         0         0         0         0         0         0         0
         0         0         0         0         0         0         0         0
         0         0         0         0         0         0         0         0
         0         0         0         0         0         0         0         0
         0         0         0         0         0         0         0         0
         0         0         0         0         0         0         0         0
         0         0         0         0         0         0         0         0
         0         0         0         0         0         0         0         0
         0         0         0         0         0         0         0         0
         0         0         0         0         0         0         0         0
         0         0         0         0         0         0         0         0
         0         0         0         0         0         0         0         0
         0         0         0         0         0         0         0         0
         0         0         0         0         0         0         0         0
         0         0         0         0         0         0         0         0
         0         0         0         0         0         0         0         0
         0         0         0         0         0         0         0         0
         0         0         0         0         0         0         0         0
         0         0         0         0         0         0         0         0
         0         0         0         0         0         0         0         0
         0         0         0         0         0         0         0         0
         0         0         0         0         0         0         0         0
         0         0         0         0         0         0         0         0
         0         0         0         0         0         0         0         0
         0         0         0         0         0         0         0         0
         0         0         0         0         0         0         0         0
         0         0         0         0         0         0         0         0
         0         0         0         0         0         0         0         0
         0         0         0         0         0         0         0         0
         0         0         0         0         0         0         0         0
         0         0         0         0         0         0         0         0
         0         0         0         0         0         0         0         0
         0         0         0         0         0         0         0         0
         0         0         0         0         0         0         0         0
         0         0         0         0         0         0         0         0
         0         0         0         0         0         0         0         0
         0         0         0         0         0         0         0         0
         0         0         0         0         0         0         0         0
         0         0         0         0         0         0         0         0
         0         0         0         0         0         0         0         0
         0         0         0         0         0         0         0         0
         0         0         0         0         0         0         0         0
         0         0         0         0         0         0         0         0
         0         0         0         0         0         0         0         0
         0         0         0         0         0         0         0         0
         0         0         0         0         0         0         0         0
         0         0         0         0         0         0         0         0
         0         0         0         0         0         0         0         0
         0         0         0         0         0         0         0         0
         0         0         0         0         0         0         0         0
         0         0         0         0         0         0         0         0
         0         0         0         0         0         0         0         0
         0         0         0         0         0         0         0         0
         0         0         0         0         0         0         0         0
         0         0         0         0         0         0         0         0
         0         0         0         0         0         0         0         0
         0         0         0         0         0         0         0         0
         0         0         0         0         0         0         0         0
         0         0         0         0         0         0         0         0
         0         0         0         0         0         0         0         0
         0         0         0         0         0         0         0         0
         0         0         0         0         0         0         0         0
         0         0         0         0         0         0         0         0
         0         0         0         0         0         0         0         0
         0         0         0         0         0         0         0         0
         0         0         0         0         0         0         0         0
         0         0         0         0         0         0         0         0
         0         0         0         0         0         0         0         0
         0         0         0         0         0         0         0         0
         0         0         0         0         0         0         0         0
         0         0         0         0         0         0         0         0
         0         0         0         0         0         0         0         0
         0         0         0         0         0         0         0         0
         0         0         0         0         0         0         0         0
         0         0         0         0         0         0         0         0
         0         0         0         0         0         0         0         0
         0         0         0         0         0         0         0         0
         0         0         0         0         0         0         0         0
         0         0         0         0         0         0         0         0
         0         0         0         0         0         0         0         0
         0         0         0         0         0         0         0         0
         0         0         0         0         0         0         0         0
         0         0         0         0         0         0         0         0
         0         0         0         0         0         0         0         0
         0         0         0         0         0         0         0         0
         0         0         0         0         0         0         0         0
         0         0         0         0         0         0         0         0
         0         0         0         0         0         0         0         0
         0         0         0         0         0         0         0         0
         0         0         0         0         0         0         0         0
         0         0         0         0         0         0         0         0
         0         0         0         0         0         0         0         0
         0         0         0         0         0         0         0         0
         0         0         0         0         0         0         0         0
         0         0         0         0         0         0         0         0
         0         0         0         0         0         0         0         0
         0         0         0         0         0         0         0         0
         0         0         0         0         0         0         0         0
         0         0         0         0         0         0         0         0
         0         0         0         0         0         0         0         0
         0         0         0         0         0         0         0         0
         0         0         0         0         0         0         0         0
         0         0         0         0         0         0         0         0
         0         0         0         0         0         0         0         0
         0         0         0         0         0         0         0         0
         0         0         0         0         0         0         0         0
         0         0         0         0         0         0         0         0
         0         0         0         0         0         0         0         0
         0         0         0         0         0         0         0         0
         0         0         0         0         0         0         0         0
         0         0         0         0         0         0         0         0
         0         0         0         0         0         0         0         0
         0         0         0         0         0         0         0         0
         0         0         0         0         0         0         0         0
         0         0         0         0         0         0         0         0
         0         0         0         0         0         0         0         0
         0         0         0         0         0         0         0         0
         0         0         0         0         0         0         0         0
         0         0         0         0         0         0         0         0
         0         0         0         0         0         0         0         0
         0         0         0         0         0         0         0         0
         0         0         0         0         0         0         0         0
         0         0         0         0         0         0         0         0
         0         0         0         0         0         0         0         0
         0         0         0         0         0         0         0         0
         0         0         0         0         0         0         0         0
         0         0         0         0         0         0         0         0
         0         0         0         0         0         0         0         0
         0         0         0         0         0         0         0         0
         0         0         0         0         0         0         0         0
         0         0         0         0         0         0         0         0
         0         0         0         0         0         0         0         0
         0         0         0         0         0         0         0         0
         0         0         0         0         0         0         0         0

     18430         0 !NGRP NST2
         0         2         0         7         2         0        18         1         0
        26         1         0        35         1         0        38         1         0
        41         1         0        44         1         0        47         1         0
        50         1         0        53         1         0        55         1         0
        58         1         0        60         1         0        63         1         0
        66         1         0        69         1         0        72         1         0
        75         1         0        79         1         0        82         1         0
        85         1         0        88         1         0        91         1         0
        94         1         0        97         1         0       100         1         0
       103         1         0       106         1         0       109         1         0
       112         1         0       115         1         0       119         2         0
       126         2         0       137         1         0       145         1         0
       154         1         0       157         1         0       160         1         0
       163         1         0       166         1         0       169         1         0
       172         1         0       174         1         0       177         1         0
       179         1         0       182         1         0       185         1         0
       188         1         0       191         1         0       194         1         0
       198         1         0       201         1         0       204         1         0
       207         1         0       210         1         0       213         1         0
       216         1         0       219         1         0       222         1         0
       225         1         0       228         1         0       231         1         0
       234         1         0       237         1         0       241         1         0
       246         1         0       250         2         0       261         1         0
       269         1         0       278         1         0       281         1         0
       284         1         0       287         1         0       290         1         0
       293         1         0       296         1         0       298         1         0
       300         1         0       303         1         0       306         1         0
       309         1         0       312         1         0       315         1         0
       319         1         0       322         1         0       325         1         0
       328         1         0       331         1         0       334         1         0
       337         1         0       340         1         0       343         1         0
       346         1         0       349         1         0       352         1         0
       355         1         0       358         1         0       362         1         0
       367         1         0       371         2         0       382         1         0
       390         1         0       399         1         0       402         1         0
       405         1         0       408         1         0       411         1         0
       414         1         0       417         1         0       419         1         0
       422         1         0       424         1         0       427         1         0
       430         1         0       433         1         0       436         1         0
       439         1         0       443         1         0       446         1         0
       449         1         0       452         1         0       455         1         0
       458         1         0       461         1         0       464         1         0
       467         1         0       470         1         0       473         1         0
       476         1         0       479         1         0       482         1         0
       486         2         0       493         2         0       504         1         0
       512         1         0       521         1         0       524         1         0
       527         1         0       530         1         0       533         1         0
       536         1         0       539         1         0       541         1         0
       544         1         0       546         1         0       549         1         0
       552         1         0       555         1         0       558         1         0
       561         1         0       565         1         0       568         1         0
       571         1         0       574         1         0       577         1         0
       580         1         0       583         1         0       586         1         0
       589         1         0       592         1         0       595         1         0
       598         1         0       601         1         0       605         2         0
       612         2         0       623         1         0       631         1         0
       640         1         0       643         1         0       646         1         0
       649         1         0       652         1         0       655         1         0
       658         1         0       660         1         0       663         1         0
       665         1         0       668         1         0       671         1         0
       674         1         0       677         1         0       680         1         0
       684         1         0       687         1         0       690         1         0
       693         1         0       696         1         0       699         1         0
       702         1         0       705         1         0       708         1         0
       711         1         0       714         1         0       717         1         0
       720         1         0       723         1         0       727         1         0
       732         1         0       736         2         0       747         1         0
       755         1         0       764         1         0       767         1         0
       770         1         0       773         1         0       776         1         0
       779         1         0       782         1         0       784         1         0
       787         1         0       789         1         0       792         1         0
       795         1         0       798         1         0       801         1         0
       804         1         0       808         1         0       811         1         0
       814         1         0       817         1         0       820         1         0
       823         1         0       826         1         0       829         1         0
       832         1         0       835         1         0       838         1         0
       841         1         0       844         1         0       847         1         0
       851         1         0       856         1         0       860         2         0
       871         1         0       879         1         0       888         1         0
       891         1         0       894         1         0       897         1         0
       900         1         0       903         1         0       906         1         0
       908         1         0       910         1         0       913         1         0
       916         1         0       919         1         0       922         1         0
       925         1         0       929         1         0       932         1         0
       935         1         0       938         1         0       941         1         0
       944         1         0       947         1         0       950         1         0
       953         1         0       956         1         0       959         1         0
       962         1         0       965         1         0       968         1         0
       972         2         0       979         2         0       990         1         0
       998         1         0      1007         1         0      1010         1         0
      1013         1         0      1016         1         0      1019         1         0
      1022         1         0      1025         1         0      1027         1         0
      1030         1         0      1032         1         0      1035         1         0
      1038         1         0      1041         1         0      1044         1         0
      1047         1         0      1051         1         0      1054         1         0
      1057         1         0      1060         1         0      1063         1         0
      1066         1         0      1069         1         0      1072         1         0
      1075         1         0      1078         1         0      1081         1         0
      1084         1         0      1087         1         0      1090         1         0
      1094         2         0      1101         2         0      1112         1         0
      1120         1         0      1129         1         0      1132         1         0
      1135         1         0      1138         1         0      1141         1         0
      1144         1         0      1147         1         0      1149         1         0
      1151         1         0      1154         1         0      1157         1         0
      1160         1         0      1163         1         0      1166         1         0
      1169         1         0      1172         1         0      1176         1         0
      1179         1         0      1182         1         0      1185         1         0
      1188         1         0      1191         1         0      1194         1         0
      1197         1         0      1200         1         0      1203         1         0
      1206         1         0      1209         1         0      1212         1         0
      1215         1         0      1219         2         0      1226         2         0
      1237         1         0      1245         1         0      1254         1         0
      1257         1         0      1260         1         0      1263         1         0
      1266         1         0      1269         1         0      1272         1         0
      1274         1         0      1277         1         0      1279         1         0
      1282         1         0      1285         1         0      1288         1         0
      1291         1         0      1294         1         0      1298         1         0
      1301         1         0      1304         1         0      1307         1         0
      1310         1         0      1313         1         0      1316         1         0
      1319         1         0      1322         1         0      1325         1         0
      1328         1         0      1331         1         0      1334         1         0
      1337         1         0      1341         2         0      1348         2         0
      1359         1         0      1367         1         0      1376         1         0
      1379         1         0      1382         1         0      1385         1         0
      1388         1         0      1391         1         0      1394         1         0
      1396         1         0      1399         1         0      1401         1         0
      1404         1         0      1407         1         0      1410         1         0
      1413         1         0      1416         1         0      1420         1         0
      1423         1         0      1426         1         0      1429         1         0
      1432         1         0      1435         1         0      1438         1         0
      1441         1         0      1444         1         0      1447         1         0
      1450         1         0      1453         1         0      1456         1         0
      1459         1         0      1463         2         0      1470         2         0
      1481         1         0      1489         1         0      1498         1         0
      1501         1         0      1504         1         0      1507         1         0
      1510         1         0      1513         1         0      1516         1         0
      1518         1         0      1520         1         0      1523         1         0
      1526         1         0      1529         1         0      1532         1         0
      1535         1         0      1538         1         0      1541         1         0
      1545         1         0      1548         1         0      1551         1         0
      1554         1         0      1557         1         0      1560         1         0
      1563         1         0      1566         1         0      1569         1         0
      1572         1         0      1575         1         0      1578         1         0
      1581         1         0      1584         1         0      1588         2         0
      1595         2         0      1606         1         0      1614         1         0
      1623         1         0      1626         1         0      1629         1         0
      1632         1         0      1635         1         0      1638         1         0
      1641         1         0      1643         1         0      1646         1         0
      1648         1         0      1651         1         0      1654         1         0
      1657         1         0      1660         1         0      1663         1         0
      1667         1         0      1670         1         0      1673         1         0
      1676         1         0      1679         1         0      1682         1         0
      1685         1         0      1688         1         0      1691         1         0
      1694         1         0      1697         1         0      1700         1         0
      1703         1         0      1706         1         0      1710         2         0
      1717         2         0      1728         1         0      1736         1         0
      1745         1         0      1748         1         0      1751         1         0
      1754         1         0      1757         1         0      1760         1         0
      1763         1         0      1765         1         0      1767         1         0
      1770         1         0      1773         1         0      1776         1         0
      1779         1         0      1782         1         0      1786         1         0
      1789         1         0      1792         1         0      1795         1         0
      1798         1         0      1801         1         0      1804         1         0
      1806         1         0      1808         1         0      1811         1         0
      1814         1         0      1817         1         0      1820         1         0
      1823         1         0      1826         1         0      1829         1         0
      1833         1         0      1838         1         0      1842         2         0
      1853         1         0      1861         1         0      1870         1         0
      1873         1         0      1876         1         0      1879         1         0
      1882         1         0      1885         1         0      1888         1         0
      1890         1         0      1892         1         0      1895         1         0
      1898         1         0      1901         1         0      1904         1         0
      1907         1         0      1911         1         0      1914         1         0
      1917         1         0      1920         1         0      1923         1         0
      1926         1         0      1929         1         0      1932         1         0
      1935         1         0      1938         1         0      1941         1         0
      1944         1         0      1947         1         0      1950         1         0
      1954         2         0      1961         2         0      1972         1         0
      1980         1         0      1989         1         0      1992         1         0
      1995         1         0      1998         1         0      2001         1         0
      2004         1         0      2007         1         0      2009         1         0
      2012         1         0      2014         1         0      2017         1         0
      2020         1         0      2023         1         0      2026         1         0
      2029         1         0      2033         1         0      2036         1         0
      2039         1         0      2042         1         0      2045         1         0
      2048         1         0      2051         1         0      2054         1         0
      2057         1         0      2060         1         0      2063         1         0
      2066         1         0      2069         1         0      2072         1         0
      2076         2         0      2083         2         0      2094         1         0
      2102         1         0      2111         1         0      2114         1         0
      2117         1         0      2120         1         0      2123         1         0
      2126         1         0      2129         1         0      2131         1         0
      2134         1         0      2136         1         0      2139         1         0
      2142         1         0      2145         1         0      2148         1         0
      2151         1         0      2155         1         0      2158         1         0
      2161         1         0      2164         1         0      2167         1         0
      2170         1         0      2173         1         0      2176         1         0
      2179         1         0      2182         1         0      2185         1         0
      2188         1         0      2191         1         0      2195         2         0
      2202         2         0      2213         1         0      2221         1         0
      2230         1         0      2233         1         0      2236         1         0
      2239         1         0      2242         1         0      2245         1         0
      2248         1         0      2250         1         0      2252         1         0
      2255         1         0      2258         1         0      2261         1         0
      2264         1         0      2267         1         0      2271         1         0
      2274         1         0      2277         1         0      2280         1         0
      2283         1         0      2286         1         0      2289         1         0
      2291         1         0      2293         1         0      2296         1         0
      2299         1         0      2302         1         0      2305         1         0
      2308         1         0      2311         1         0      2314         1         0
      2318         2         0      2325         2         0      2336         1         0
      2344         1         0      2353         1         0      2356         1         0
      2359         1         0      2362         1         0      2365         1         0
      2368         1         0      2371         1         0      2373         1         0
      2375         1         0      2378         1         0      2381         1         0
      2384         1         0      2387         1         0      2390         1         0
      2393         1         0      2396         1         0      2400         1         0
      2403         1         0      2406         1         0      2409         1         0
      2412         1         0      2415         1         0      2418         1         0
      2421         1         0      2424         1         0      2427         1         0
      2430         1         0      2433         1         0      2436         1         0
      2439         1         0      2443         2         0      2450         2         0
      2461         1         0      2469         1         0      2478         1         0
      2481         1         0      2484         1         0      2487         1         0
      2490         1         0      2493         1         0      2496         1         0
      2498         1         0      2500         1         0      2503         1         0
      2506         1         0      2509         1         0      2512         1         0
      2515         1         0      2519         1         0      2522         1         0
      2525         1         0      2528         1         0      2531         1         0
      2534         1         0      2537         1         0      2539         1         0
      2541         1         0      2544         1         0      2547         1         0
      2550         1         0      2553         1         0      2556         1         0
      2559         1         0      2562         1         0      2566         2         0
      2573         2         0      2584         1         0      2592         1         0
      2601         1         0      2604         1         0      2607         1         0
      2610         1         0      2613         1         0      2616         1         0
      2619         1         0      2621         1         0      2624         1         0
      2626         1         0      2629         1         0      2632         1         0
      2635         1         0      2638         1         0      2641         1         0
      2645         1         0      2648         1         0      2651         1         0
      2654         1         0      2657         1         0      2660         1         0
      2663         1         0      2666         1         0      2669         1         0
      2672         1         0      2675         1         0      2678         1         0
      2681         1         0      2684         1         0      2688         1         0
      2693         1         0      2697         2         0      2708         1         0
      2716         1         0      2725         1         0      2728         1         0
      2731         1         0      2734         1         0      2737         1         0
      2740         1         0      2743         1         0      2745         1         0
      2747         1         0      2750         1         0      2753         1         0
      2756         1         0      2759         1         0      2762         1         0
      2766         1         0      2769         1         0      2772         1         0
      2775         1         0      2778         1         0      2781         1         0
      2784         1         0      2787         1         0      2790         1         0
      2793         1         0      2796         1         0      2799         1         0
      2802         1         0      2805         1         0      2809         2         0
      2816         2         0      2827         1         0      2835         1         0
      2844         1         0      2847         1         0      2850         1         0
      2853         1         0      2856         1         0      2859         1         0
      2862         1         0      2864         1         0      2867         1         0
      2869         1         0      2872         1         0      2875         1         0
      2878         1         0      2881         1         0      2884         1         0
      2888         1         0      2891         1         0      2894         1         0
      2897         1         0      2900         1         0      2903         1         0
      2906         1         0      2909         1         0      2912         1         0
      2915         1         0      2918         1         0      2921         1         0
      2924         1         0      2927         1         0      2931         2         0
      2938         2         0      2949         1         0      2957         1         0
      2966         1         0      2969         1         0      2972         1         0
      2975         1         0      2978         1         0      2981         1         0
      2984         1         0      2986         1         0      2989         1         0
      2991         1         0      2994         1         0      2997         1         0
      3000         1         0      3003         1         0      3006         1         0
      3010         1         0      3013         1         0      3016         1         0
      3019         1         0      3022         1         0      3025         1         0
      3028         1         0      3031         1         0      3034         1         0
      3037         1         0      3040         1         0      3043         1         0
      3046         1         0      3049         1         0      3053         2         0
      3060         2         0      3071         1         0      3079         1         0
      3088         1         0      3091         1         0      3094         1         0
      3097         1         0      3100         1         0      3103         1         0
      3106         1         0      3108         1         0      3111         1         0
      3113         1         0      3116         1         0      3119         1         0
      3122         1         0      3125         1         0      3128         1         0
      3132         1         0      3135         1         0      3138         1         0
      3141         1         0      3144         1         0      3147         1         0
      3150         1         0      3153         1         0      3156         1         0
      3159         1         0      3162         1         0      3165         1         0
      3168         1         0      3171         1         0      3175         2         0
      3182         2         0      3193         1         0      3201         1         0
      3210         1         0      3213         1         0      3216         1         0
      3219         1         0      3222         1         0      3225         1         0
      3228         1         0      3230         1         0      3233         1         0
      3235         1         0      3238         1         0      3241         1         0
      3244         1         0      3247         1         0      3250         1         0
      3254         1         0      3257         1         0      3260         1         0
      3263         1         0      3266         1         0      3269         1         0
      3272         1         0      3275         1         0      3278         1         0
      3281         1         0      3284         1         0      3287         1         0
      3290         1         0      3293         1         0      3297         2         0
      3304         2         0      3315         1         0      3323         1         0
      3332         1         0      3335         1         0      3338         1         0
      3341         1         0      3344         1         0      3347         1         0
      3350         1         0      3352         1         0      3355         1         0
      3357         1         0      3360         1         0      3363         1         0
      3366         1         0      3369         1         0      3372         1         0
      3376         1         0      3379         1         0      3382         1         0
      3385         1         0      3388         1         0      3391         1         0
      3394         1         0      3397         1         0      3400         1         0
      3403         1         0      3406         1         0      3409         1         0
      3412         1         0      3415         1         0      3419         1         0
      3424         1         0      3428         2         0      3439         1         0
      3447         1         0      3456         1         0      3459         1         0
      3462         1         0      3465         1         0      3468         1         0
      3471         1         0      3474         1         0      3476         1         0
      3479         1         0      3481         1         0      3484         1         0
      3487         1         0      3490         1         0      3493         1         0
      3496         1         0      3500         1         0      3503         1         0
      3506         1         0      3509         1         0      3512         1         0
      3515         1         0      3518         1         0      3521         1         0
      3524         1         0      3527         1         0      3530         1         0
      3533         1         0      3536         1         0      3539         1         0
      3543         2         0      3550         2         0      3561         1         0
      3569         1         0      3578         1         0      3581         1         0
      3584         1         0      3587         1         0      3590         1         0
      3593         1         0      3596         1         0      3598         1         0
      3601         1         0      3603         1         0      3606         1         0
      3609         1         0      3612         1         0      3615         1         0
      3618         1         0      3622         1         0      3625         1         0
      3628         1         0      3631         1         0      3634         1         0
      3637         1         0      3640         1         0      3643         1         0
      3646         1         0      3649         1         0      3652         1         0
      3655         1         0      3658         1         0      3661         1         0
      3665         1         0      3670         1         0      3674         2         0
      3685         1         0      3693         1         0      3702         1         0
      3705         1         0      3708         1         0      3711         1         0
      3714         1         0      3717         1         0      3720         1         0
      3722         1         0      3724         1         0      3727         1         0
      3730         1         0      3733         1         0      3736         1         0
      3739         1         0      3743         1         0      3746         1         0
      3749         1         0      3752         1         0      3755         1         0
      3758         1         0      3761         1         0      3764         1         0
      3767         1         0      3770         1         0      3773         1         0
      3776         1         0      3779         1         0      3782         1         0
      3786         2         0      3793         2         0      3804         1         0
      3812         1         0      3821         1         0      3824         1         0
      3827         1         0      3830         1         0      3833         1         0
      3836         1         0      3839         1         0      3841         1         0
      3843         1         0      3846         1         0      3849         1         0
      3852         1         0      3855         1         0      3858         1         0
      3862         1         0      3865         1         0      3868         1         0
      3871         1         0      3874         1         0      3877         1         0
      3880         1         0      3882         1         0      3884         1         0
      3887         1         0      3890         1         0      3893         1         0
      3896         1         0      3899         1         0      3902         1         0
      3905         1         0      3909         2         0      3916         2         0
      3927         1         0      3935         1         0      3944         1         0
      3947         1         0      3950         1         0      3953         1         0
      3956         1         0      3959         1         0      3962         1         0
      3964         1         0      3966         1         0      3969         1         0
      3972         1         0      3975         1         0      3978         1         0
      3981         1         0      3985         1         0      3988         1         0
      3991         1         0      3994         1         0      3997         1         0
      4000         1         0      4003         1         0      4005         1         0
      4007         1         0      4010         1         0      4013         1         0
      4016         1         0      4019         1         0      4022         1         0
      4025         1         0      4028         1         0      4032         1         0
      4037         1         0      4041         2         0      4052         1         0
      4060         1         0      4069         1         0      4072         1         0
      4075         1         0      4078         1         0      4081         1         0
      4084         1         0      4087         1         0      4089         1         0
      4092         1         0      4094         1         0      4097         1         0
      4100         1         0      4103         1         0      4106         1         0
      4109         1         0      4113         1         0      4116         1         0
      4119         1         0      4122         1         0      4125         1         0
      4128         1         0      4131         1         0      4134         1         0
      4137         1         0      4140         1         0      4143         1         0
      4146         1         0      4149         1         0      4152         1         0
      4156         2         0      4163         2         0      4174         1         0
      4182         1         0      4191         1         0      4194         1         0
      4197         1         0      4200         1         0      4203         1         0
      4206         1         0      4209         1         0      4211         1         0
      4214         1         0      4216         1         0      4219         1         0
      4222         1         0      4225         1         0      4228         1         0
      4231         1         0      4235         1         0      4238         1         0
      4241         1         0      4244         1         0      4247         1         0
      4250         1         0      4253         1         0      4256         1         0
      4259         1         0      4262         1         0      4265         1         0
      4268         1         0      4271         1         0      4274         1         0
      4278         2         0      4285         2         0      4296         1         0
      4304         1         0      4313         1         0      4316         1         0
      4319         1         0      4322         1         0      4325         1         0
      4328         1         0      4331         1         0      4333         1         0
      4335         1         0      4338         1         0      4341         1         0
      4344         1         0      4347         1         0      4350         1         0
      4353         1         0      4356         1         0      4360         1         0
      4363         1         0      4366         1         0      4369         1         0
      4372         1         0      4375         1         0      4378         1         0
      4381         1         0      4384         1         0      4387         1         0
      4390         1         0      4393         1         0      4396         1         0
      4399         1         0      4403         2         0      4410         2         0
      4421         1         0      4429         1         0      4438         1         0
      4441         1         0      4444         1         0      4447         1         0
      4450         1         0      4453         1         0      4456         1         0
      4458         1         0      4460         1         0      4463         1         0
      4466         1         0      4469         1         0      4472         1         0
      4475         1         0      4479         1         0      4482         1         0
      4485         1         0      4488         1         0      4491         1         0
      4494         1         0      4497         1         0      4499         1         0
      4501         1         0      4504         1         0      4507         1         0
      4510         1         0      4513         1         0      4516         1         0
      4519         1         0      4522         1         0      4526         2         0
      4533         2         0      4544         1         0      4552         1         0
      4561         1         0      4564         1         0      4567         1         0
      4570         1         0      4573         1         0      4576         1         0
      4579         1         0      4581         1         0      4584         1         0
      4586         1         0      4589         1         0      4592         1         0
      4595         1         0      4598         1         0      4601         1         0
      4605         1         0      4608         1         0      4611         1         0
      4614         1         0      4617         1         0      4620         1         0
      4623         1         0      4626         1         0      4629         1         0
      4632         1         0      4635         1         0      4638         1         0
      4641         1         0      4644         1         0      4648         2         0
      4655         2         0      4666         1         0      4674         1         0
      4683         1         0      4686         1         0      4689         1         0
      4692         1         0      4695         1         0      4698         1         0
      4701         1         0      4703         1         0      4706         1         0
      4708         1         0      4711         1         0      4714         1         0
      4717         1         0      4720         1         0      4723         1         0
      4727         1         0      4730         1         0      4733         1         0
      4736         1         0      4739         1         0      4742         1         0
      4745         1         0      4748         1         0      4751         1         0
      4754         1         0      4757         1         0      4760         1         0
      4763         1         0      4766         1         0      4770         1         0
      4775         1         0      4779         2         0      4790         1         0
      4798         1         0      4807         1         0      4810         1         0
      4813         1         0      4816         1         0      4819         1         0
      4822         1         0      4825         1         0      4827         1         0
      4830         1         0      4832         1         0      4835         1         0
      4838         1         0      4841         1         0      4844         1         0
      4847         1         0      4851         1         0      4854         1         0
      4857         1         0      4860         1         0      4863         1         0
      4866         1         0      4869         1         0      4872         1         0
      4875         1         0      4878         1         0      4881         1         0
      4884         1         0      4887         1         0      4890         1         0
      4894         2         0      4901         2         0      4912         1         0
      4920         1         0      4929         1         0      4932         1         0
      4935         1         0      4938         1         0      4941         1         0
      4944         1         0      4947         1         0      4949         1         0
      4952         1         0      4954         1         0      4957         1         0
      4960         1         0      4963         1         0      4966         1         0
      4969         1         0      4973         1         0      4976         1         0
      4979         1         0      4982         1         0      4985         1         0
      4988         1         0      4991         1         0      4994         1         0
      4997         1         0      5000         1         0      5003         1         0
      5006         1         0      5009         1         0      5013         2         0
      5020         2         0      5031         1         0      5039         1         0
      5048         1         0      5051         1         0      5054         1         0
      5057         1         0      5060         1         0      5063         1         0
      5066         1         0      5068         1         0      5071         1         0
      5073         1         0      5076         1         0      5079         1         0
      5082         1         0      5085         1         0      5088         1         0
      5092         1         0      5095         1         0      5098         1         0
      5101         1         0      5104         1         0      5107         1         0
      5110         1         0      5113         1         0      5116         1         0
      5119         1         0      5122         1         0      5125         1         0
      5128         1         0      5131         1         0      5135         2         0
      5142         2         0      5153         1         0      5161         1         0
      5170         1         0      5173         1         0      5176         1         0
      5179         1         0      5182         1         0      5185         1         0
      5188         1         0      5190         1         0      5193         1         0
      5195         1         0      5198         1         0      5201         1         0
      5204         1         0      5207         1         0      5210         1         0
      5214         1         0      5217         1         0      5220         1         0
      5223         1         0      5226         1         0      5229         1         0
      5232         1         0      5235         1         0      5238         1         0
      5241         1         0      5244         1         0      5247         1         0
      5250         1         0      5254         2         0      5261         2         0
      5272         1         0      5280         1         0      5289         1         0
      5292         1         0      5295         1         0      5298         1         0
      5301         1         0      5304         1         0      5307         1         0
      5309         1         0      5312         1         0      5314         1         0
      5317         1         0      5320         1         0      5323         1         0
      5326         1         0      5329         1         0      5333         1         0
      5336         1         0      5339         1         0      5342         1         0
      5345         1         0      5348         1         0      5351         1         0
      5354         1         0      5357         1         0      5360         1         0
      5363         1         0      5366         1         0      5369         1         0
      5372         1         0      5376         2         0      5383         2         0
      5394         1         0      5402         1         0      5411         1         0
      5414         1         0      5417         1         0      5420         1         0
      5423         1         0      5426         1         0      5429         1         0
      5431         1         0      5434         1         0      5436         1         0
      5439         1         0      5442         1         0      5445         1         0
      5448         1         0      5451         1         0      5455         1         0
      5458         1         0      5461         1         0      5464         1         0
      5467         1         0      5470         1         0      5473         1         0
      5476         1         0      5479         1         0      5482         1         0
      5485         1         0      5488         1         0      5491         1         0
      5494         1         0      5498         2         0      5505         2         0
      5516         1         0      5524         1         0      5533         1         0
      5536         1         0      5539         1         0      5542         1         0
      5545         1         0      5548         1         0      5551         1         0
      5553         1         0      5556         1         0      5558         1         0
      5561         1         0      5564         1         0      5567         1         0
      5570         1         0      5573         1         0      5577         1         0
      5580         1         0      5583         1         0      5586         1         0
      5589         1         0      5592         1         0      5595         1         0
      5598         1         0      5601         1         0      5604         1         0
      5607         1         0      5610         1         0      5613         1         0
      5616         1         0      5620         1         0      5625         1         0
      5629         2         0      5640         1         0      5648         1         0
      5657         1         0      5660         1         0      5663         1         0
      5666         1         0      5669         1         0      5672         1         0
      5675         1         0      5677         1         0      5680         1         0
      5682         1         0      5685         1         0      5688         1         0
      5691         1         0      5694         1         0      5697         1         0
      5701         1         0      5704         1         0      5707         1         0
      5710         1         0      5713         1         0      5716         1         0
      5719         1         0      5722         1         0      5725         1         0
      5728         1         0      5731         1         0      5734         1         0
      5737         1         0      5740         1         0      5744         1         0
      5749         1         0      5753         2         0      5764         1         0
      5772         1         0      5781         1         0      5784         1         0
      5787         1         0      5790         1         0      5793         1         0
      5796         1         0      5799         1         0      5801         1         0
      5803         1         0      5806         1         0      5809         1         0
      5812         1         0      5815         1         0      5818         1         0
      5822         1         0      5825         1         0      5828         1         0
      5831         1         0      5834         1         0      5837         1         0
      5840         1         0      5843         1         0      5846         1         0
      5849         1         0      5852         1         0      5855         1         0
      5858         1         0      5861         1         0      5865         1         0
      5870         1         0      5874         2         0      5885         1         0
      5893         1         0      5902         1         0      5905         1         0
      5908         1         0      5911         1         0      5914         1         0
      5917         1         0      5920         1         0      5922         1         0
      5925         1         0      5927         1         0      5930         1         0
      5933         1         0      5936         1         0      5939         1         0
      5942         1         0      5946         1         0      5949         1         0
      5952         1         0      5955         1         0      5958         1         0
      5961         1         0      5964         1         0      5967         1         0
      5970         1         0      5973         1         0      5976         1         0
      5979         1         0      5982         1         0      5985         1         0
      5989         2         0      5996         2         0      6007         1         0
      6015         1         0      6024         1         0      6027         1         0
      6030         1         0      6033         1         0      6036         1         0
      6039         1         0      6042         1         0      6044         1         0
      6047         1         0      6049         1         0      6052         1         0
      6055         1         0      6058         1         0      6061         1         0
      6064         1         0      6068         1         0      6071         1         0
      6074         1         0      6077         1         0      6080         1         0
      6083         1         0      6086         1         0      6089         1         0
      6092         1         0      6095         1         0      6098         1         0
      6101         1         0      6104         1         0      6107         1         0
      6111         2         0      6118         2         0      6129         1         0
      6137         1         0      6146         1         0      6149         1         0
      6152         1         0      6155         1         0      6158         1         0
      6161         1         0      6164         1         0      6166         1         0
      6169         1         0      6171         1         0      6174         1         0
      6177         1         0      6180         1         0      6183         1         0
      6186         1         0      6190         1         0      6193         1         0
      6196         1         0      6199         1         0      6202         1         0
      6205         1         0      6208         1         0      6211         1         0
      6214         1         0      6217         1         0      6220         1         0
      6223         1         0      6226         1         0      6229         1         0
      6233         2         0      6240         2         0      6251         1         0
      6259         1         0      6268         1         0      6271         1         0
      6274         1         0      6277         1         0      6280         1         0
      6283         1         0      6286         1         0      6288         1         0
      6291         1         0      6293         1         0      6296         1         0
      6299         1         0      6302         1         0      6305         1         0
      6308         1         0      6312         1         0      6315         1         0
      6318         1         0      6321         1         0      6324         1         0
      6327         1         0      6330         1         0      6333         1         0
      6336         1         0      6339         1         0      6342         1         0
      6345         1         0      6348         1         0      6351         1         0
      6355         2         0      6362         2         0      6373         1         0
      6381         1         0      6390         1         0      6393         1         0
      6396         1         0      6399         1         0      6402         1         0
      6405         1         0      6408         1         0      6410         1         0
      6413         1         0      6415         1         0      6418         1         0
      6421         1         0      6424         1         0      6427         1         0
      6430         1         0      6434         1         0      6437         1         0
      6440         1         0      6443         1         0      6446         1         0
      6449         1         0      6452         1         0      6455         1         0
      6458         1         0      6461         1         0      6464         1         0
      6467         1         0      6470         1         0      6473         1         0
      6477         1         0      6482         1         0      6486         2         0
      6497         1         0      6505         1         0      6514         1         0
      6517         1         0      6520         1         0      6523         1         0
      6526         1         0      6529         1         0      6532         1         0
      6534         1         0      6537         1         0      6539         1         0
      6542         1         0      6545         1         0      6548         1         0
      6551         1         0      6554         1         0      6558         1         0
      6561         1         0      6564         1         0      6567         1         0
      6570         1         0      6573         1         0      6576         1         0
      6579         1         0      6582         1         0      6585         1         0
      6588         1         0      6591         1         0      6594         1         0
      6597         1         0      6601         1         0      6606         1         0
      6610         2         0      6621         1         0      6629         1         0
      6638         1         0      6641         1         0      6644         1         0
      6647         1         0      6650         1         0      6653         1         0
      6656         1         0      6658         1         0      6661         1         0
      6663         1         0      6666         1         0      6669         1         0
      6672         1         0      6675         1         0      6678         1         0
      6682         1         0      6685         1         0      6688         1         0
      6691         1         0      6694         1         0      6697         1         0
      6700         1         0      6703         1         0      6706         1         0
      6709         1         0      6712         1         0      6715         1         0
      6718         1         0      6721         1         0      6725         2         0
      6732         2         0      6743         1         0      6751         1         0
      6760         1         0      6763         1         0      6766         1         0
      6769         1         0      6772         1         0      6775         1         0
      6778         1         0      6780         1         0      6783         1         0
      6785         1         0      6788         1         0      6791         1         0
      6794         1         0      6797         1         0      6800         1         0
      6804         1         0      6807         1         0      6810         1         0
      6813         1         0      6816         1         0      6819         1         0
      6822         1         0      6825         1         0      6828         1         0
      6831         1         0      6834         1         0      6837         1         0
      6840         1         0      6844         2         0      6851         2         0
      6862         1         0      6870         1         0      6879         1         0
      6882         1         0      6885         1         0      6888         1         0
      6891         1         0      6894         1         0      6897         1         0
      6899         1         0      6902         1         0      6904         1         0
      6907         1         0      6910         1         0      6913         1         0
      6916         1         0      6919         1         0      6923         1         0
      6926         1         0      6929         1         0      6932         1         0
      6935         1         0      6938         1         0      6941         1         0
      6944         1         0      6947         1         0      6950         1         0
      6953         1         0      6956         1         0      6959         1         0
      6962         1         0      6966         2         0      6973         2         0
      6984         1         0      6992         1         0      7001         1         0
      7004         1         0      7007         1         0      7010         1         0
      7013         1         0      7016         1         0      7019         1         0
      7021         1         0      7024         1         0      7026         1         0
      7029         1         0      7032         1         0      7035         1         0
      7038         1         0      7041         1         0      7045         1         0
      7048         1         0      7051         1         0      7054         1         0
      7057         1         0      7060         1         0      7063         1         0
      7066         1         0      7069         1         0      7072         1         0
      7075         1         0      7078         1         0      7081         1         0
      7084         1         0      7088         2         0      7095         2         0
      7106         1         0      7114         1         0      7123         1         0
      7126         1         0      7129         1         0      7132         1         0
      7135         1         0      7138         1         0      7141         1         0
      7143         1         0      7146         1         0      7148         1         0
      7151         1         0      7154         1         0      7157         1         0
      7160         1         0      7163         1         0      7167         1         0
      7170         1         0      7173         1         0      7176         1         0
      7179         1         0      7182         1         0      7185         1         0
      7188         1         0      7191         1         0      7194         1         0
      7197         1         0      7200         1         0      7203         1         0
      7206         1         0      7210         2         0      7217         2         0
      7228         1         0      7236         1         0      7245         1         0
      7248         1         0      7251         1         0      7254         1         0
      7257         1         0      7260         1         0      7263         1         0
      7265         1         0      7268         1         0      7270         1         0
      7273         1         0      7276         1         0      7279         1         0
      7282         1         0      7285         1         0      7289         1         0
      7292         1         0      7295         1         0      7298         1         0
      7301         1         0      7304         1         0      7307         1         0
      7310         1         0      7313         1         0      7316         1         0
      7319         1         0      7322         1         0      7325         1         0
      7328         1         0      7332         2         0      7339         2         0
      7350         1         0      7358         1         0      7367         1         0
      7370         1         0      7373         1         0      7376         1         0
      7379         1         0      7382         1         0      7385         1         0
      7387         1         0      7390         1         0      7392         1         0
      7395         1         0      7398         1         0      7401         1         0
      7404         1         0      7407         1         0      7411         1         0
      7414         1         0      7417         1         0      7420         1         0
      7423         1         0      7426         1         0      7429         1         0
      7432         1         0      7435         1         0      7438         1         0
      7441         1         0      7444         1         0      7447         1         0
      7450         1         0      7454         1         0      7459         1         0
      7463         2         0      7474         1         0      7482         1         0
      7491         1         0      7494         1         0      7497         1         0
      7500         1         0      7503         1         0      7506         1         0
      7509         1         0      7511         1         0      7514         1         0
      7516         1         0      7519         1         0      7522         1         0
      7525         1         0      7528         1         0      7531         1         0
      7535         1         0      7538         1         0      7541         1         0
      7544         1         0      7547         1         0      7550         1         0
      7553         1         0      7556         1         0      7559         1         0
      7562         1         0      7565         1         0      7568         1         0
      7571         1         0      7574         1         0      7578         2         0
      7585         2         0      7596         1         0      7604         1         0
      7613         1         0      7616         1         0      7619         1         0
      7622         1         0      7625         1         0      7628         1         0
      7631         1         0      7633         1         0      7635         1         0
      7638         1         0      7641         1         0      7644         1         0
      7647         1         0      7650         1         0      7653         1         0
      7656         1         0      7660         1         0      7663         1         0
      7666         1         0      7669         1         0      7672         1         0
      7675         1         0      7678         1         0      7681         1         0
      7684         1         0      7687         1         0      7690         1         0
      7693         1         0      7696         1         0      7699         1         0
      7703         2         0      7714         1         0      7718         2         0
      7729         1         0      7737         1         0      7746         1         0
      7754         1         0      7763         1         0      7766         1         0
      7769         1         0      7772         1         0      7775         1         0
      7778         1         0      7781         1         0      7784         1         0
      7787         1         0      7789         1         0      7791         1         0
      7794         1         0      7797         1         0      7800         1         0
      7803         1         0      7806         1         0      7810         1         0
      7813         1         0      7816         1         0      7819         1         0
      7822         1         0      7825         1         0      7828         1         0
      7831         1         0      7834         1         0      7837         1         0
      7840         1         0      7843         1         0      7846         1         0
      7849         1         0      7853         1         0      7856         1         0
      7859         1         0      7862         1         0      7865         1         0
      7868         1         0      7871         1         0      7874         1         0
      7877         1         0      7879         1         0      7881         1         0
      7884         1         0      7887         1         0      7890         1         0
      7893         1         0      7896         1         0      7900         1         0
      7903         1         0      7906         1         0      7909         1         0
      7912         1         0      7915         1         0      7918         1         0
      7921         1         0      7924         1         0      7927         1         0
      7930         1         0      7933         1         0      7936         1         0
      7939         1         0      7943         2         0      7950         2         0
      7961         1         0      7969         1         0      7978         1         0
      7981         1         0      7984         1         0      7987         1         0
      7990         1         0      7993         1         0      7996         1         0
      7998         1         0      8000         1         0      8003         1         0
      8006         1         0      8009         1         0      8012         1         0
      8015         1         0      8018         1         0      8021         1         0
      8025         1         0      8028         1         0      8031         1         0
      8034         1         0      8037         1         0      8040         1         0
      8043         1         0      8046         1         0      8049         1         0
      8052         1         0      8055         1         0      8058         1         0
      8061         1         0      8064         1         0      8068         2         0
      8075         2         0      8086         1         0      8094         1         0
      8103         1         0      8106         1         0      8109         1         0
      8112         1         0      8115         1         0      8118         1         0
      8121         1         0      8123         1         0      8125         1         0
      8128         1         0      8131         1         0      8134         1         0
      8137         1         0      8140         1         0      8144         1         0
      8147         1         0      8150         1         0      8153         1         0
      8156         1         0      8159         1         0      8162         1         0
      8164         1         0      8166         1         0      8169         1         0
      8172         1         0      8175         1         0      8178         1         0
      8181         1         0      8184         1         0      8187         1         0
      8191         2         0      8198         2         0      8209         1         0
      8217         1         0      8226         1         0      8229         1         0
      8232         1         0      8235         1         0      8238         1         0
      8241         1         0      8244         1         0      8246         1         0
      8249         1         0      8251         1         0      8254         1         0
      8257         1         0      8260         1         0      8263         1         0
      8266         1         0      8270         1         0      8273         1         0
      8276         1         0      8279         1         0      8282         1         0
      8285         1         0      8288         1         0      8291         1         0
      8294         1         0      8297         1         0      8300         1         0
      8303         1         0      8306         1         0      8309         1         0
      8313         1         0      8318         1         0      8322         2         0
      8333         1         0      8341         1         0      8350         1         0
      8353         1         0      8356         1         0      8359         1         0
      8362         1         0      8365         1         0      8368         1         0
      8370         1         0      8372         1         0      8375         1         0
      8378         1         0      8381         1         0      8384         1         0
      8387         1         0      8391         1         0      8394         1         0
      8397         1         0      8400         1         0      8403         1         0
      8406         1         0      8409         1         0      8412         1         0
      8415         1         0      8418         1         0      8421         1         0
      8424         1         0      8427         1         0      8430         1         0
      8434         2         0      8441         2         0      8452         1         0
      8460         1         0      8469         1         0      8472         1         0
      8475         1         0      8478         1         0      8481         1         0
      8484         1         0      8487         1         0      8489         1         0
      8492         1         0      8494         1         0      8497         1         0
      8500         1         0      8503         1         0      8506         1         0
      8509         1         0      8513         1         0      8516         1         0
      8519         1         0      8522         1         0      8525         1         0
      8528         1         0      8531         1         0      8534         1         0
      8537         1         0      8540         1         0      8543         1         0
      8546         1         0      8549         1         0      8552         1         0
      8556         2         0      8563         2         0      8574         1         0
      8582         1         0      8591         1         0      8594         1         0
      8597         1         0      8600         1         0      8603         1         0
      8606         1         0      8609         1         0      8611         1         0
      8614         1         0      8616         1         0      8619         1         0
      8622         1         0      8625         1         0      8628         1         0
      8631         1         0      8635         1         0      8638         1         0
      8641         1         0      8644         1         0      8647         1         0
      8650         1         0      8653         1         0      8656         1         0
      8659         1         0      8662         1         0      8665         1         0
      8668         1         0      8671         1         0      8674         1         0
      8678         2         0      8685         2         0      8696         1         0
      8704         1         0      8713         1         0      8716         1         0
      8719         1         0      8722         1         0      8725         1         0
      8728         1         0      8731         1         0      8733         1         0
      8736         1         0      8738         1         0      8741         1         0
      8744         1         0      8747         1         0      8750         1         0
      8753         1         0      8757         1         0      8760         1         0
      8763         1         0      8766         1         0      8769         1         0
      8772         1         0      8775         1         0      8778         1         0
      8781         1         0      8784         1         0      8787         1         0
      8790         1         0      8793         1         0      8796         1         0
      8800         2         0      8807         2         0      8818         1         0
      8826         1         0      8835         1         0      8838         1         0
      8841         1         0      8844         1         0      8847         1         0
      8850         1         0      8853         1         0      8855         1         0
      8858         1         0      8860         1         0      8863         1         0
      8866         1         0      8869         1         0      8872         1         0
      8875         1         0      8879         1         0      8882         1         0
      8885         1         0      8888         1         0      8891         1         0
      8894         1         0      8897         1         0      8900         1         0
      8903         1         0      8906         1         0      8909         1         0
      8912         1         0      8915         1         0      8918         1         0
      8922         2         0      8929         2         0      8940         1         0
      8948         1         0      8957         1         0      8960         1         0
      8963         1         0      8966         1         0      8969         1         0
      8972         1         0      8975         1         0      8977         1         0
      8980         1         0      8982         1         0      8985         1         0
      8988         1         0      8991         1         0      8994         1         0
      8997         1         0      9001         1         0      9004         1         0
      9007         1         0      9010         1         0      9013         1         0
      9016         1         0      9019         1         0      9022         1         0
      9025         1         0      9028         1         0      9031         1         0
      9034         1         0      9037         1         0      9040         1         0
      9044         1         0      9049         1         0      9053         2         0
      9064         1         0      9072         1         0      9081         1         0
      9084         1         0      9087         1         0      9090         1         0
      9093         1         0      9096         1         0      9099         1         0
      9101         1         0      9103         1         0      9106         1         0
      9109         1         0      9112         1         0      9115         1         0
      9118         1         0      9122         1         0      9125         1         0
      9128         1         0      9131         1         0      9134         1         0
      9137         1         0      9140         1         0      9143         1         0
      9146         1         0      9149         1         0      9152         1         0
      9155         1         0      9158         1         0      9161         1         0
      9165         2         0      9172         2         0      9183         1         0
      9191         1         0      9200         1         0      9203         1         0
      9206         1         0      9209         1         0      9212         1         0
      9215         1         0      9218         1         0      9220         1         0
      9222         1         0      9225         1         0      9228         1         0
      9231         1         0      9234         1         0      9237         1         0
      9240         1         0      9243         1         0      9247         1         0
      9250         1         0      9253         1         0      9256         1         0
      9259         1         0      9262         1         0      9265         1         0
      9268         1         0      9271         1         0      9274         1         0
      9277         1         0      9280         1         0      9283         1         0
      9286         1         0      9290         2         0      9297         2         0
      9308         1         0      9316         1         0      9325         1         0
      9328         1         0      9331         1         0      9334         1         0
      9337         1         0      9340         1         0      9343         1         0
      9345         1         0      9348         1         0      9350         1         0
      9353         1         0      9356         1         0      9359         1         0
      9362         1         0      9365         1         0      9369         1         0
      9372         1         0      9375         1         0      9378         1         0
      9381         1         0      9384         1         0      9387         1         0
      9390         1         0      9393         1         0      9396         1         0
      9399         1         0      9402         1         0      9405         1         0
      9409         2         0      9416         2         0      9427         1         0
      9435         1         0      9444         1         0      9447         1         0
      9450         1         0      9453         1         0      9456         1         0
      9459         1         0      9462         1         0      9464         1         0
      9467         1         0      9469         1         0      9472         1         0
      9475         1         0      9478         1         0      9481         1         0
      9484         1         0      9488         1         0      9491         1         0
      9494         1         0      9497         1         0      9500         1         0
      9503         1         0      9506         1         0      9509         1         0
      9512         1         0      9515         1         0      9518         1         0
      9521         1         0      9524         1         0      9527         1         0
      9531         2         0      9538         2         0      9549         1         0
      9557         1         0      9566         1         0      9569         1         0
      9572         1         0      9575         1         0      9578         1         0
      9581         1         0      9584         1         0      9586         1         0
      9588         1         0      9591         1         0      9594         1         0
      9597         1         0      9600         1         0      9603         1         0
      9606         1         0      9609         1         0      9613         1         0
      9616         1         0      9619         1         0      9622         1         0
      9625         1         0      9628         1         0      9631         1         0
      9634         1         0      9637         1         0      9640         1         0
      9643         1         0      9646         1         0      9649         1         0
      9652         1         0      9656         2         0      9663         2         0
      9674         1         0      9682         1         0      9691         1         0
      9694         1         0      9697         1         0      9700         1         0
      9703         1         0      9706         1         0      9709         1         0
      9711         1         0      9714         1         0      9716         1         0
      9719         1         0      9722         1         0      9725         1         0
      9728         1         0      9731         1         0      9735         1         0
      9738         1         0      9741         1         0      9744         1         0
      9747         1         0      9750         1         0      9753         1         0
      9756         1         0      9759         1         0      9762         1         0
      9765         1         0      9768         1         0      9771         1         0
      9775         2         0      9782         2         0      9793         1         0
      9801         1         0      9810         1         0      9813         1         0
      9816         1         0      9819         1         0      9822         1         0
      9825         1         0      9828         1         0      9830         1         0
      9833         1         0      9835         1         0      9838         1         0
      9841         1         0      9844         1         0      9847         1         0
      9850         1         0      9854         1         0      9857         1         0
      9860         1         0      9863         1         0      9866         1         0
      9869         1         0      9872         1         0      9875         1         0
      9878         1         0      9881         1         0      9884         1         0
      9887         1         0      9890         1         0      9893         1         0
      9897         2         0      9904         2         0      9915         1         0
      9923         1         0      9932         1         0      9935         1         0
      9938         1         0      9941         1         0      9944         1         0
      9947         1         0      9950         1         0      9952         1         0
      9955         1         0      9957         1         0      9960         1         0
      9963         1         0      9966         1         0      9969         1         0
      9972         1         0      9976         1         0      9979         1         0
      9982         1         0      9985         1         0      9988         1         0
      9991         1         0      9994         1         0      9997         1         0
     10000         1         0     10003         1         0     10006         1         0
     10009         1         0     10012         1         0     10016         2         0
     10023         2         0     10034         1         0     10042         1         0
     10051         1         0     10054         1         0     10057         1         0
     10060         1         0     10063         1         0     10066         1         0
     10069         1         0     10071         1         0     10074         1         0
     10076         1         0     10079         1         0     10082         1         0
     10085         1         0     10088         1         0     10091         1         0
     10095         1         0     10098         1         0     10101         1         0
     10104         1         0     10107         1         0     10110         1         0
     10113         1         0     10116         1         0     10119         1         0
     10122         1         0     10125         1         0     10128         1         0
     10131         1         0     10134         1         0     10138         2         0
     10145         2         0     10156         1         0     10164         1         0
     10173         1         0     10176         1         0     10179         1         0
     10182         1         0     10185         1         0     10188         1         0
     10191         1         0     10193         1         0     10196         1         0
     10198         1         0     10201         1         0     10204         1         0
     10207         1         0     10210         1         0     10213         1         0
     10217         1         0     10220         1         0     10223         1         0
     10226         1         0     10229         1         0     10232         1         0
     10235         1         0     10238         1         0     10241         1         0
     10244         1         0     10247         1         0     10250         1         0
     10253         1         0     10257         2         0     10264         2         0
     10275         1         0     10283         1         0     10292         1         0
     10295         1         0     10298         1         0     10301         1         0
     10304         1         0     10307         1         0     10310         1         0
     10312         1         0     10314         1         0     10317         1         0
     10320         1         0     10323         1         0     10326         1         0
     10329         1         0     10332         1         0     10335         1         0
     10339         1         0     10342         1         0     10345         1         0
     10348         1         0     10351         1         0     10354         1         0
     10357         1         0     10360         1         0     10363         1         0
     10366         1         0     10369         1         0     10372         1         0
     10375         1         0     10378         1         0     10382         2         0
     10389         2         0     10400         1         0     10408         1         0
     10417         1         0     10420         1         0     10423         1         0
     10426         1         0     10429         1         0     10432         1         0
     10435         1         0     10437         1         0     10439         1         0
     10442         1         0     10445         1         0     10448         1         0
     10451         1         0     10454         1         0     10457         1         0
     10460         1         0     10464         1         0     10467         1         0
     10470         1         0     10473         1         0     10476         1         0
     10479         1         0     10482         1         0     10485         1         0
     10488         1         0     10491         1         0     10494         1         0
     10497         1         0     10500         1         0     10503         1         0
     10507         2         0     10514         2         0     10525         1         0
     10533         1         0     10542         1         0     10545         1         0
     10548         1         0     10551         1         0     10554         1         0
     10557         1         0     10560         1         0     10562         1         0
     10565         1         0     10567         1         0     10570         1         0
     10573         1         0     10576         1         0     10579         1         0
     10582         1         0     10586         1         0     10589         1         0
     10592         1         0     10595         1         0     10598         1         0
     10601         1         0     10604         1         0     10607         1         0
     10610         1         0     10613         1         0     10616         1         0
     10619         1         0     10622         1         0     10626         2         0
     10633         2         0     10644         1         0     10652         1         0
     10661         1         0     10664         1         0     10667         1         0
     10670         1         0     10673         1         0     10676         1         0
     10679         1         0     10681         1         0     10684         1         0
     10686         1         0     10689         1         0     10692         1         0
     10695         1         0     10698         1         0     10701         1         0
     10705         1         0     10708         1         0     10711         1         0
     10714         1         0     10717         1         0     10720         1         0
     10723         1         0     10726         1         0     10729         1         0
     10732         1         0     10735         1         0     10738         1         0
     10741         1         0     10744         1         0     10748         2         0
     10755         2         0     10766         1         0     10774         1         0
     10783         1         0     10786         1         0     10789         1         0
     10792         1         0     10795         1         0     10798         1         0
     10801         1         0     10803         1         0     10806         1         0
     10808         1         0     10811         1         0     10814         1         0
     10817         1         0     10820         1         0     10823         1         0
     10827         1         0     10830         1         0     10833         1         0
     10836         1         0     10839         1         0     10842         1         0
     10845         1         0     10848         1         0     10851         1         0
     10854         1         0     10857         1         0     10860         1         0
     10863         1         0     10866         1         0     10870         2         0
     10877         2         0     10888         1         0     10896         1         0
     10905         1         0     10908         1         0     10911         1         0
     10914         1         0     10917         1         0     10920         1         0
     10923         1         0     10925         1         0     10928         1         0
     10930         1         0     10933         1         0     10936         1         0
     10939         1         0     10942         1         0     10945         1         0
     10949         1         0     10952         1         0     10955         1         0
     10958         1         0     10961         1         0     10964         1         0
     10967         1         0     10970         1         0     10973         1         0
     10976         1         0     10979         1         0     10982         1         0
     10985         1         0     10988         1         0     10992         2         0
     11003         1         0     11007         2         0     11018         1         0
     11026         1         0     11035         1         0     11043         1         0
     11052         1         0     11055         1         0     11058         1         0
     11061         1         0     11064         1         0     11067         1         0
     11070         1         0     11073         1         0     11076         1         0
     11078         1         0     11080         1         0     11083         1         0
     11086         1         0     11089         1         0     11092         1         0
     11095         1         0     11099         1         0     11102         1         0
     11105         1         0     11108         1         0     11111         1         0
     11114         1         0     11117         1         0     11120         1         0
     11123         1         0     11126         1         0     11129         1         0
     11132         1         0     11135         1         0     11138         1         0
     11142         1         0     11145         1         0     11148         1         0
     11151         1         0     11154         1         0     11157         1         0
     11160         1         0     11163         1         0     11166         1         0
     11168         1         0     11170         1         0     11173         1         0
     11176         1         0     11179         1         0     11182         1         0
     11185         1         0     11189         1         0     11192         1         0
     11195         1         0     11198         1         0     11201         1         0
     11204         1         0     11207         1         0     11210         1         0
     11213         1         0     11216         1         0     11219         1         0
     11222         1         0     11225         1         0     11228         1         0
     11232         2         0     11239         2         0     11250         1         0
     11258         1         0     11267         1         0     11270         1         0
     11273         1         0     11276         1         0     11279         1         0
     11282         1         0     11285         1         0     11287         1         0
     11290         1         0     11292         1         0     11295         1         0
     11298         1         0     11301         1         0     11304         1         0
     11307         1         0     11311         1         0     11314         1         0
     11317         1         0     11320         1         0     11323         1         0
     11326         1         0     11329         1         0     11332         1         0
     11335         1         0     11338         1         0     11341         1         0
     11344         1         0     11347         1         0     11350         1         0
     11354         2         0     11361         2         0     11372         1         0
     11380         1         0     11389         1         0     11392         1         0
     11395         1         0     11398         1         0     11401         1         0
     11404         1         0     11407         1         0     11409         1         0
     11412         1         0     11414         1         0     11417         1         0
     11420         1         0     11423         1         0     11426         1         0
     11429         1         0     11433         1         0     11436         1         0
     11439         1         0     11442         1         0     11445         1         0
     11448         1         0     11451         1         0     11454         1         0
     11457         1         0     11460         1         0     11463         1         0
     11466         1         0     11469         1         0     11472         1         0
     11476         2         0     11483         2         0     11494         1         0
     11502         1         0     11511         1         0     11514         1         0
     11517         1         0     11520         1         0     11523         1         0
     11526         1         0     11529         1         0     11531         1         0
     11534         1         0     11536         1         0     11539         1         0
     11542         1         0     11545         1         0     11548         1         0
     11551         1         0     11555         1         0     11558         1         0
     11561         1         0     11564         1         0     11567         1         0
     11570         1         0     11573         1         0     11576         1         0
     11579         1         0     11582         1         0     11585         1         0
     11588         1         0     11591         1         0     11594         1         0
     11598         2         0     11605         2         0     11616         1         0
     11624         1         0     11633         1         0     11636         1         0
     11639         1         0     11642         1         0     11645         1         0
     11648         1         0     11651         1         0     11653         1         0
     11655         1         0     11658         1         0     11661         1         0
     11664         1         0     11667         1         0     11670         1         0
     11673         1         0     11676         1         0     11680         1         0
     11683         1         0     11686         1         0     11689         1         0
     11692         1         0     11695         1         0     11698         1         0
     11701         1         0     11704         1         0     11707         1         0
     11710         1         0     11713         1         0     11716         1         0
     11719         1         0     11723         2         0     11730         2         0
     11741         1         0     11749         1         0     11758         1         0
     11761         1         0     11764         1         0     11767         1         0
     11770         1         0     11773         1         0     11776         1         0
     11778         1         0     11781         1         0     11783         1         0
     11786         1         0     11789         1         0     11792         1         0
     11795         1         0     11798         1         0     11802         1         0
     11805         1         0     11808         1         0     11811         1         0
     11814         1         0     11817         1         0     11820         1         0
     11823         1         0     11826         1         0     11829         1         0
     11832         1         0     11835         1         0     11838         1         0
     11841         1         0     11845         2         0     11852         2         0
     11863         1         0     11871         1         0     11880         1         0
     11883         1         0     11886         1         0     11889         1         0
     11892         1         0     11895         1         0     11898         1         0
     11900         1         0     11902         1         0     11905         1         0
     11908         1         0     11911         1         0     11914         1         0
     11917         1         0     11921         1         0     11924         1         0
     11927         1         0     11930         1         0     11933         1         0
     11936         1         0     11939         1         0     11941         1         0
     11943         1         0     11946         1         0     11949         1         0
     11952         1         0     11955         1         0     11958         1         0
     11961         1         0     11964         1         0     11968         2         0
     11975         2         0     11986         1         0     11994         1         0
     12003         1         0     12006         1         0     12009         1         0
     12012         1         0     12015         1         0     12018         1         0
     12021         1         0     12023         1         0     12026         1         0
     12028         1         0     12031         1         0     12034         1         0
     12037         1         0     12040         1         0     12043         1         0
     12047         1         0     12050         1         0     12053         1         0
     12056         1         0     12059         1         0     12062         1         0
     12065         1         0     12068         1         0     12071         1         0
     12074         1         0     12077         1         0     12080         1         0
     12083         1         0     12087         1         0     12092         1         0
     12096         2         0     12107         1         0     12115         1         0
     12124         1         0     12127         1         0     12130         1         0
     12133         1         0     12136         1         0     12139         1         0
     12142         1         0     12144         1         0     12146         1         0
     12149         1         0     12152         1         0     12155         1         0
     12158         1         0     12161         1         0     12165         1         0
     12168         1         0     12171         1         0     12174         1         0
     12177         1         0     12180         1         0     12183         1         0
     12186         1         0     12189         1         0     12192         1         0
     12195         1         0     12198         1         0     12201         1         0
     12204         1         0     12208         2         0     12215         2         0
     12226         1         0     12234         1         0     12243         1         0
     12246         1         0     12249         1         0     12252         1         0
     12255         1         0     12258         1         0     12261         1         0
     12263         1         0     12265         1         0     12268         1         0
     12271         1         0     12274         1         0     12277         1         0
     12280         1         0     12283         1         0     12286         1         0
     12290         1         0     12293         1         0     12296         1         0
     12299         1         0     12302         1         0     12305         1         0
     12308         1         0     12311         1         0     12314         1         0
     12317         1         0     12320         1         0     12323         1         0
     12326         1         0     12329         1         0     12333         2         0
     12340         2         0     12351         1         0     12359         1         0
     12368         1         0     12371         1         0     12374         1         0
     12377         1         0     12380         1         0     12383         1         0
     12386         1         0     12388         1         0     12390         1         0
     12393         1         0     12396         1         0     12399         1         0
     12402         1         0     12405         1         0     12408         1         0
     12411         1         0     12415         1         0     12418         1         0
     12421         1         0     12424         1         0     12427         1         0
     12430         1         0     12433         1         0     12436         1         0
     12439         1         0     12442         1         0     12445         1         0
     12448         1         0     12451         1         0     12454         1         0
     12458         1         0     12463         1         0     12467         2         0
     12478         1         0     12486         1         0     12495         1         0
     12498         1         0     12501         1         0     12504         1         0
     12507         1         0     12510         1         0     12513         1         0
     12515         1         0     12518         1         0     12520         1         0
     12523         1         0     12526         1         0     12529         1         0
     12532         1         0     12535         1         0     12539         1         0
     12542         1         0     12545         1         0     12548         1         0
     12551         1         0     12554         1         0     12557         1         0
     12560         1         0     12563         1         0     12566         1         0
     12569         1         0     12572         1         0     12575         1         0
     12578         1         0     12582         2         0     12589         2         0
     12600         1         0     12608         1         0     12617         1         0
     12620         1         0     12623         1         0     12626         1         0
     12629         1         0     12632         1         0     12635         1         0
     12637         1         0     12639         1         0     12642         1         0
     12645         1         0     12648         1         0     12651         1         0
     12654         1         0     12657         1         0     12660         1         0
     12664         1         0     12667         1         0     12670         1         0
     12673         1         0     12676         1         0     12679         1         0
     12682         1         0     12685         1         0     12688         1         0
     12691         1         0     12694         1         0     12697         1         0
     12700         1         0     12703         1         0     12707         2         0
     12714         2         0     12725         1         0     12733         1         0
     12742         1         0     12745         1         0     12748         1         0
     12751         1         0     12754         1         0     12757         1         0
     12760         1         0     12762         1         0     12765         1         0
     12767         1         0     12770         1         0     12773         1         0
     12776         1         0     12779         1         0     12782         1         0
     12786         1         0     12789         1         0     12792         1         0
     12795         1         0     12798         1         0     12801         1         0
     12804         1         0     12807         1         0     12810         1         0
     12813         1         0     12816         1         0     12819         1         0
     12822         1         0     12825         1         0     12829         2         0
     12836         2         0     12847         1         0     12855         1         0
     12864         1         0     12867         1         0     12870         1         0
     12873         1         0     12876         1         0     12879         1         0
     12882         1         0     12884         1         0     12887         1         0
     12889         1         0     12892         1         0     12895         1         0
     12898         1         0     12901         1         0     12904         1         0
     12908         1         0     12911         1         0     12914         1         0
     12917         1         0     12920         1         0     12923         1         0
     12926         1         0     12929         1         0     12932         1         0
     12935         1         0     12938         1         0     12941         1         0
     12944         1         0     12947         1         0     12951         2         0
     12958         2         0     12969         1         0     12977         1         0
     12986         1         0     12989         1         0     12992         1         0
     12995         1         0     12998         1         0     13001         1         0
     13004         1         0     13006         1         0     13009         1         0
     13011         1         0     13014         1         0     13017         1         0
     13020         1         0     13023         1         0     13026         1         0
     13030         1         0     13033         1         0     13036         1         0
     13039         1         0     13042         1         0     13045         1         0
     13048         1         0     13051         1         0     13054         1         0
     13057         1         0     13060         1         0     13063         1         0
     13066         1         0     13070         2         0     13077         2         0
     13088         1         0     13096         1         0     13105         1         0
     13108         1         0     13111         1         0     13114         1         0
     13117         1         0     13120         1         0     13123         1         0
     13125         1         0     13128         1         0     13130         1         0
     13133         1         0     13136         1         0     13139         1         0
     13142         1         0     13145         1         0     13149         1         0
     13152         1         0     13155         1         0     13158         1         0
     13161         1         0     13164         1         0     13167         1         0
     13170         1         0     13173         1         0     13176         1         0
     13179         1         0     13182         1         0     13185         1         0
     13189         2         0     13196         2         0     13207         1         0
     13215         1         0     13224         1         0     13227         1         0
     13230         1         0     13233         1         0     13236         1         0
     13239         1         0     13242         1         0     13244         1         0
     13247         1         0     13249         1         0     13252         1         0
     13255         1         0     13258         1         0     13261         1         0
     13264         1         0     13268         1         0     13271         1         0
     13274         1         0     13277         1         0     13280         1         0
     13283         1         0     13286         1         0     13289         1         0
     13292         1         0     13295         1         0     13298         1         0
     13301         1         0     13304         1         0     13307         1         0
     13311         2         0     13318         2         0     13329         1         0
     13337         1         0     13346         1         0     13349         1         0
     13352         1         0     13355         1         0     13358         1         0
     13361         1         0     13364         1         0     13366         1         0
     13369         1         0     13371         1         0     13374         1         0
     13377         1         0     13380         1         0     13383         1         0
     13386         1         0     13390         1         0     13393         1         0
     13396         1         0     13399         1         0     13402         1         0
     13405         1         0     13408         1         0     13411         1         0
     13414         1         0     13417         1         0     13420         1         0
     13423         1         0     13426         1         0     13429         1         0
     13433         2         0     13440         2         0     13451         1         0
     13459         1         0     13468         1         0     13471         1         0
     13474         1         0     13477         1         0     13480         1         0
     13483         1         0     13486         1         0     13488         1         0
     13491         1         0     13493         1         0     13496         1         0
     13499         1         0     13502         1         0     13505         1         0
     13508         1         0     13512         1         0     13515         1         0
     13518         1         0     13521         1         0     13524         1         0
     13527         1         0     13530         1         0     13533         1         0
     13536         1         0     13539         1         0     13542         1         0
     13545         1         0     13548         1         0     13551         1         0
     13555         2         0     13562         2         0     13573         1         0
     13581         1         0     13590         1         0     13593         1         0
     13596         1         0     13599         1         0     13602         1         0
     13605         1         0     13608         1         0     13610         1         0
     13613         1         0     13615         1         0     13618         1         0
     13621         1         0     13624         1         0     13627         1         0
     13630         1         0     13634         1         0     13637         1         0
     13640         1         0     13643         1         0     13646         1         0
     13649         1         0     13652         1         0     13655         1         0
     13658         1         0     13661         1         0     13664         1         0
     13667         1         0     13670         1         0     13673         1         0
     13677         2         0     13684         2         0     13695         1         0
     13703         1         0     13712         1         0     13715         1         0
     13718         1         0     13721         1         0     13724         1         0
     13727         1         0     13730         1         0     13732         1         0
     13735         1         0     13737         1         0     13740         1         0
     13743         1         0     13746         1         0     13749         1         0
     13752         1         0     13756         1         0     13759         1         0
     13762         1         0     13765         1         0     13768         1         0
     13771         1         0     13774         1         0     13777         1         0
     13780         1         0     13783         1         0     13786         1         0
     13789         1         0     13792         1         0     13795         1         0
     13799         2         0     13806         2         0     13817         1         0
     13825         1         0     13834         1         0     13837         1         0
     13840         1         0     13843         1         0     13846         1         0
     13849         1         0     13852         1         0     13854         1         0
     13857         1         0     13859         1         0     13862         1         0
     13865         1         0     13868         1         0     13871         1         0
     13874         1         0     13878         1         0     13881         1         0
     13884         1         0     13887         1         0     13890         1         0
     13893         1         0     13896         1         0     13899         1         0
     13902         1         0     13905         1         0     13908         1         0
     13911         1         0     13914         1         0     13918         1         0
     13923         1         0     13927         2         0     13938         1         0
     13946         1         0     13955         1         0     13958         1         0
     13961         1         0     13964         1         0     13967         1         0
     13970         1         0     13973         1         0     13975         1         0
     13978         1         0     13980         1         0     13983         1         0
     13986         1         0     13989         1         0     13992         1         0
     13995         1         0     13999         1         0     14002         1         0
     14005         1         0     14008         1         0     14011         1         0
     14014         1         0     14017         1         0     14020         1         0
     14023         1         0     14026         1         0     14029         1         0
     14032         1         0     14035         1         0     14038         1         0
     14042         2         0     14049         2         0     14060         1         0
     14068         1         0     14077         1         0     14080         1         0
     14083         1         0     14086         1         0     14089         1         0
     14092         1         0     14095         1         0     14097         1         0
     14099         1         0     14102         1         0     14105         1         0
     14108         1         0     14111         1         0     14114         1         0
     14117         1         0     14120         1         0     14124         1         0
     14127         1         0     14130         1         0     14133         1         0
     14136         1         0     14139         1         0     14142         1         0
     14145         1         0     14148         1         0     14151         1         0
     14154         1         0     14157         1         0     14160         1         0
     14163         1         0     14167         2         0     14174         2         0
     14185         1         0     14193         1         0     14202         1         0
     14205         1         0     14208         1         0     14211         1         0
     14214         1         0     14217         1         0     14220         1         0
     14222         1         0     14225         1         0     14227         1         0
     14230         1         0     14233         1         0     14236         1         0
     14239         1         0     14242         1         0     14246         1         0
     14249         1         0     14252         1         0     14255         1         0
     14258         1         0     14261         1         0     14264         1         0
     14267         1         0     14270         1         0     14273         1         0
     14276         1         0     14279         1         0     14282         1         0
     14285         1         0     14289         2         0     14296         2         0
     14307         1         0     14315         1         0     14324         1         0
     14327         1         0     14330         1         0     14333         1         0
     14336         1         0     14339         1         0     14342         1         0
     14344         1         0     14346         1         0     14349         1         0
     14352         1         0     14355         1         0     14358         1         0
     14361         1         0     14364         1         0     14367         1         0
     14371         1         0     14374         1         0     14377         1         0
     14380         1         0     14383         1         0     14386         1         0
     14389         1         0     14392         1         0     14395         1         0
     14398         1         0     14401         1         0     14404         1         0
     14407         1         0     14410         1         0     14414         1         0
     14419         1         0     14423         2         0     14434         1         0
     14442         1         0     14451         1         0     14454         1         0
     14457         1         0     14460         1         0     14463         1         0
     14466         1         0     14469         1         0     14471         1         0
     14474         1         0     14476         1         0     14479         1         0
     14482         1         0     14485         1         0     14488         1         0
     14491         1         0     14495         1         0     14498         1         0
     14501         1         0     14504         1         0     14507         1         0
     14510         1         0     14513         1         0     14516         1         0
     14519         1         0     14522         1         0     14525         1         0
     14528         1         0     14531         1         0     14534         1         0
     14538         2         0     14545         2         0     14556         1         0
     14564         1         0     14573         1         0     14576         1         0
     14579         1         0     14582         1         0     14585         1         0
     14588         1         0     14591         1         0     14593         1         0
     14596         1         0     14598         1         0     14601         1         0
     14604         1         0     14607         1         0     14610         1         0
     14613         1         0     14617         1         0     14620         1         0
     14623         1         0     14626         1         0     14629         1         0
     14632         1         0     14635         1         0     14638         1         0
     14641         1         0     14644         1         0     14647         1         0
     14650         1         0     14653         1         0     14656         1         0
     14660         2         0     14667         2         0     14678         1         0
     14686         1         0     14695         1         0     14698         1         0
     14701         1         0     14704         1         0     14707         1         0
     14710         1         0     14713         1         0     14715         1         0
     14718         1         0     14720         1         0     14723         1         0
     14726         1         0     14729         1         0     14732         1         0
     14735         1         0     14739         1         0     14742         1         0
     14745         1         0     14748         1         0     14751         1         0
     14754         1         0     14757         1         0     14760         1         0
     14763         1         0     14766         1         0     14769         1         0
     14772         1         0     14775         1         0     14778         1         0
     14782         2         0     14789         2         0     14800         1         0
     14808         1         0     14817         1         0     14820         1         0
     14823         1         0     14826         1         0     14829         1         0
     14832         1         0     14835         1         0     14837         1         0
     14840         1         0     14842         1         0     14845         1         0
     14848         1         0     14851         1         0     14854         1         0
     14857         1         0     14861         1         0     14864         1         0
     14867         1         0     14870         1         0     14873         1         0
     14876         1         0     14879         1         0     14882         1         0
     14885         1         0     14888         1         0     14891         1         0
     14894         1         0     14897         1         0     14900         1         0
     14904         2         0     14911         2         0     14922         1         0
     14930         1         0     14939         1         0     14942         1         0
     14945         1         0     14948         1         0     14951         1         0
     14954         1         0     14957         1         0     14959         1         0
     14961         1         0     14964         1         0     14967         1         0
     14970         1         0     14973         1         0     14976         1         0
     14980         1         0     14983         1         0     14986         1         0
     14989         1         0     14992         1         0     14995         1         0
     14998         1         0     15000         1         0     15002         1         0
     15005         1         0     15008         1         0     15011         1         0
     15014         1         0     15017         1         0     15020         1         0
     15023         1         0     15027         2         0     15038         1         0
     15042         2         0     15053         1         0     15061         1         0
     15070         1         0     15078         1         0     15087         1         0
     15090         1         0     15093         1         0     15096         1         0
     15099         1         0     15102         1         0     15105         1         0
     15108         1         0     15111         1         0     15113         1         0
     15115         1         0     15118         1         0     15121         1         0
     15124         1         0     15127         1         0     15130         1         0
     15134         1         0     15137         1         0     15140         1         0
     15143         1         0     15146         1         0     15149         1         0
     15152         1         0     15155         1         0     15158         1         0
     15161         1         0     15164         1         0     15167         1         0
     15170         1         0     15173         1         0     15177         1         0
     15180         1         0     15183         1         0     15186         1         0
     15189         1         0     15192         1         0     15195         1         0
     15198         1         0     15201         1         0     15203         1         0
     15205         1         0     15208         1         0     15211         1         0
     15214         1         0     15217         1         0     15220         1         0
     15224         1         0     15227         1         0     15230         1         0
     15233         1         0     15236         1         0     15239         1         0
     15242         1         0     15245         1         0     15248         1         0
     15251         1         0     15254         1         0     15257         1         0
     15260         1         0     15263         1         0     15267         2         0
     15274         2         0     15285         1         0     15293         1         0
     15302         1         0     15305         1         0     15308         1         0
     15311         1         0     15314         1         0     15317         1         0
     15320         1         0     15322         1         0     15325         1         0
     15327         1         0     15330         1         0     15333         1         0
     15336         1         0     15339         1         0     15342         1         0
     15346         1         0     15349         1         0     15352         1         0
     15355         1         0     15358         1         0     15361         1         0
     15364         1         0     15367         1         0     15370         1         0
     15373         1         0     15376         1         0     15379         1         0
     15382         1         0     15385         1         0     15389         2         0
     15396         2         0     15407         1         0     15415         1         0
     15424         1         0     15427         1         0     15430         1         0
     15433         1         0     15436         1         0     15439         1         0
     15442         1         0     15444         1         0     15446         1         0
     15449         1         0     15452         1         0     15455         1         0
     15458         1         0     15461         1         0     15465         1         0
     15468         1         0     15471         1         0     15474         1         0
     15477         1         0     15480         1         0     15483         1         0
     15485         1         0     15487         1         0     15490         1         0
     15493         1         0     15496         1         0     15499         1         0
     15502         1         0     15505         1         0     15508         1         0
     15512         2         0     15519         2         0     15530         1         0
     15538         1         0     15547         1         0     15550         1         0
     15553         1         0     15556         1         0     15559         1         0
     15562         1         0     15565         1         0     15567         1         0
     15570         1         0     15572         1         0     15575         1         0
     15578         1         0     15581         1         0     15584         1         0
     15587         1         0     15591         1         0     15594         1         0
     15597         1         0     15600         1         0     15603         1         0
     15606         1         0     15609         1         0     15612         1         0
     15615         1         0     15618         1         0     15621         1         0
     15624         1         0     15627         1         0     15630         1         0
     15634         2         0     15641         2         0     15652         1         0
     15660         1         0     15669         1         0     15672         1         0
     15675         1         0     15678         1         0     15681         1         0
     15684         1         0     15687         1         0     15689         1         0
     15692         1         0     15694         1         0     15697         1         0
     15700         1         0     15703         1         0     15706         1         0
     15709         1         0     15713         1         0     15716         1         0
     15719         1         0     15722         1         0     15725         1         0
     15728         1         0     15731         1         0     15734         1         0
     15737         1         0     15740         1         0     15743         1         0
     15746         1         0     15749         1         0     15752         1         0
     15756         2         0     15763         2         0     15774         1         0
     15782         1         0     15791         1         0     15794         1         0
     15797         1         0     15800         1         0     15803         1         0
     15806         1         0     15809         1         0     15811         1         0
     15814         1         0     15816         1         0     15819         1         0
     15822         1         0     15825         1         0     15828         1         0
     15831         1         0     15835         1         0     15838         1         0
     15841         1         0     15844         1         0     15847         1         0
     15850         1         0     15853         1         0     15856         1         0
     15859         1         0     15862         1         0     15865         1         0
     15868         1         0     15871         1         0     15875         1         0
     15880         1         0     15884         2         0     15895         1         0
     15903         1         0     15912         1         0     15915         1         0
     15918         1         0     15921         1         0     15924         1         0
     15927         1         0     15930         1         0     15932         1         0
     15934         1         0     15937         1         0     15940         1         0
     15943         1         0     15946         1         0     15949         1         0
     15953         1         0     15956         1         0     15959         1         0
     15962         1         0     15965         1         0     15968         1         0
     15971         1         0     15974         1         0     15977         1         0
     15980         1         0     15983         1         0     15986         1         0
     15989         1         0     15992         1         0     15996         1         0
     16001         1         0     16005         2         0     16016         1         0
     16024         1         0     16033         1         0     16036         1         0
     16039         1         0     16042         1         0     16045         1         0
     16048         1         0     16051         1         0     16053         1         0
     16055         1         0     16058         1         0     16061         1         0
     16064         1         0     16067         1         0     16070         1         0
     16074         1         0     16077         1         0     16080         1         0
     16083         1         0     16086         1         0     16089         1         0
     16092         1         0     16095         1         0     16098         1         0
     16101         1         0     16104         1         0     16107         1         0
     16110         1         0     16113         1         0     16117         2         0
     16124         2         0     16135         1         0     16143         1         0
     16152         1         0     16155         1         0     16158         1         0
     16161         1         0     16164         1         0     16167         1         0
     16170         1         0     16172         1         0     16175         1         0
     16177         1         0     16180         1         0     16183         1         0
     16186         1         0     16189         1         0     16192         1         0
     16196         1         0     16199         1         0     16202         1         0
     16205         1         0     16208         1         0     16211         1         0
     16214         1         0     16217         1         0     16220         1         0
     16223         1         0     16226         1         0     16229         1         0
     16232         1         0     16235         1         0     16239         2         0
     16246         2         0     16257         1         0     16265         1         0
     16274         1         0     16277         1         0     16280         1         0
     16283         1         0     16286         1         0     16289         1         0
     16292         1         0     16294         1         0     16297         1         0
     16299         1         0     16302         1         0     16305         1         0
     16308         1         0     16311         1         0     16314         1         0
     16318         1         0     16321         1         0     16324         1         0
     16327         1         0     16330         1         0     16333         1         0
     16336         1         0     16339         1         0     16342         1         0
     16345         1         0     16348         1         0     16351         1         0
     16354         1         0     16358         2         0     16365         2         0
     16376         1         0     16384         1         0     16393         1         0
     16396         1         0     16399         1         0     16402         1         0
     16405         1         0     16408         1         0     16411         1         0
     16413         1         0     16416         1         0     16418         1         0
     16421         1         0     16424         1         0     16427         1         0
     16430         1         0     16433         1         0     16437         1         0
     16440         1         0     16443         1         0     16446         1         0
     16449         1         0     16452         1         0     16455         1         0
     16458         1         0     16461         1         0     16464         1         0
     16467         1         0     16470         1         0     16473         1         0
     16476         1         0     16480         2         0     16487         2         0
     16498         1         0     16506         1         0     16515         1         0
     16518         1         0     16521         1         0     16524         1         0
     16527         1         0     16530         1         0     16533         1         0
     16535         1         0     16538         1         0     16540         1         0
     16543         1         0     16546         1         0     16549         1         0
     16552         1         0     16555         1         0     16559         1         0
     16562         1         0     16565         1         0     16568         1         0
     16571         1         0     16574         1         0     16577         1         0
     16580         1         0     16583         1         0     16586         1         0
     16589         1         0     16592         1         0     16595         1         0
     16599         2         0     16606         2         0     16617         1         0
     16625         1         0     16634         1         0     16637         1         0
     16640         1         0     16643         1         0     16646         1         0
     16649         1         0     16652         1         0     16654         1         0
     16656         1         0     16659         1         0     16662         1         0
     16665         1         0     16668         1         0     16671         1         0
     16675         1         0     16678         1         0     16681         1         0
     16684         1         0     16687         1         0     16690         1         0
     16693         1         0     16695         1         0     16697         1         0
     16700         1         0     16703         1         0     16706         1         0
     16709         1         0     16712         1         0     16715         1         0
     16718         1         0     16722         2         0     16729         2         0
     16740         1         0     16748         1         0     16757         1         0
     16760         1         0     16763         1         0     16766         1         0
     16769         1         0     16772         1         0     16775         1         0
     16777         1         0     16779         1         0     16782         1         0
     16785         1         0     16788         1         0     16791         1         0
     16794         1         0     16797         1         0     16800         1         0
     16804         1         0     16807         1         0     16810         1         0
     16813         1         0     16816         1         0     16819         1         0
     16822         1         0     16825         1         0     16828         1         0
     16831         1         0     16834         1         0     16837         1         0
     16840         1         0     16843         1         0     16847         2         0
     16854         2         0     16865         1         0     16873         1         0
     16882         1         0     16885         1         0     16888         1         0
     16891         1         0     16894         1         0     16897         1         0
     16900         1         0     16902         1         0     16904         1         0
     16907         1         0     16910         1         0     16913         1         0
     16916         1         0     16919         1         0     16923         1         0
     16926         1         0     16929         1         0     16932         1         0
     16935         1         0     16938         1         0     16941         1         0
     16943         1         0     16945         1         0     16948         1         0
     16951         1         0     16954         1         0     16957         1         0
     16960         1         0     16963         1         0     16966         1         0
     16970         2         0     16977         2         0     16988         1         0
     16996         1         0     17005         1         0     17008         1         0
     17011         1         0     17014         1         0     17017         1         0
     17020         1         0     17023         1         0     17025         1         0
     17028         1         0     17030         1         0     17033         1         0
     17036         1         0     17039         1         0     17042         1         0
     17045         1         0     17049         1         0     17052         1         0
     17055         1         0     17058         1         0     17061         1         0
     17064         1         0     17067         1         0     17070         1         0
     17073         1         0     17076         1         0     17079         1         0
     17082         1         0     17085         1         0     17088         1         0
     17092         2         0     17099         2         0     17110         1         0
     17118         1         0     17127         1         0     17130         1         0
     17133         1         0     17136         1         0     17139         1         0
     17142         1         0     17145         1         0     17147         1         0
     17149         1         0     17152         1         0     17155         1         0
     17158         1         0     17161         1         0     17164         1         0
     17167         1         0     17170         1         0     17174         1         0
     17177         1         0     17180         1         0     17183         1         0
     17186         1         0     17189         1         0     17192         1         0
     17195         1         0     17198         1         0     17201         1         0
     17204         1         0     17207         1         0     17210         1         0
     17213         1         0     17217         2         0     17224         2         0
     17235         1         0     17243         1         0     17252         1         0
     17255         1         0     17258         1         0     17261         1         0
     17264         1         0     17267         1         0     17270         1         0
     17272         1         0     17275         1         0     17277         1         0
     17280         1         0     17283         1         0     17286         1         0
     17289         1         0     17292         1         0     17296         1         0
     17299         1         0     17302         1         0     17305         1         0
     17308         1         0     17311         1         0     17314         1         0
     17317         1         0     17320         1         0     17323         1         0
     17326         1         0     17329         1         0     17332         1         0
     17335         1         0     17339         1         0     17344         1         0
     17348         2         0     17359         1         0     17367         1         0
     17376         1         0     17379         1         0     17382         1         0
     17385         1         0     17388         1         0     17391         1         0
     17394         1         0     17396         1         0     17399         1         0
     17401         1         0     17404         1         0     17407         1         0
     17410         1         0     17413         1         0     17416         1         0
     17420         1         0     17423         1         0     17426         1         0
     17429         1         0     17432         1         0     17435         1         0
     17438         1         0     17441         1         0     17444         1         0
     17447         1         0     17450         1         0     17453         1         0
     17456         1         0     17459         1         0     17463         2         0
     17470         2         0     17481         1         0     17489         1         0
     17498         1         0     17501         1         0     17504         1         0
     17507         1         0     17510         1         0     17513         1         0
     17516         1         0     17518         1         0     17521         1         0
     17523         1         0     17526         1         0     17529         1         0
     17532         1         0     17535         1         0     17538         1         0
     17542         1         0     17545         1         0     17548         1         0
     17551         1         0     17554         1         0     17557         1         0
     17560         1         0     17563         1         0     17566         1         0
     17569         1         0     17572         1         0     17575         1         0
     17578         1         0     17581         1         0     17585         1         0
     17590         1         0     17594         2         0     17605         1         0
     17613         1         0     17622         1         0     17625         1         0
     17628         1         0     17631         1         0     17634         1         0
     17637         1         0     17640         1         0     17642         1         0
     17645         1         0     17647         1         0     17650         1         0
     17653         1         0     17656         1         0     17659         1         0
     17662         1         0     17666         1         0     17669         1         0
     17672         1         0     17675         1         0     17678         1         0
     17681         1         0     17684         1         0     17687         1         0
     17690         1         0     17693         1         0     17696         1         0
     17699         1         0     17702         1         0     17705         1         0
     17709         2         0     17716         2         0     17727         1         0
     17735         1         0     17744         1         0     17747         1         0
     17750         1         0     17753         1         0     17756         1         0
     17759         1         0     17762         1         0     17764         1         0
     17767         1         0     17769         1         0     17772         1         0
     17775         1         0     17778         1         0     17781         1         0
     17784         1         0     17788         1         0     17791         1         0
     17794         1         0     17797         1         0     17800         1         0
     17803         1         0     17806         1         0     17809         1         0
     17812         1         0     17815         1         0     17818         1         0
     17821         1         0     17824         1         0     17827         1         0
     17831         2         0     17838         2         0     17849         1         0
     17857         1         0     17866         1         0     17869         1         0
     17872         1         0     17875         1         0     17878         1         0
     17881         1         0     17884         1         0     17886         1         0
     17889         1         0     17891         1         0     17894         1         0
     17897         1         0     17900         1         0     17903         1         0
     17906         1         0     17910         1         0     17913         1         0
     17916         1         0     17919         1         0     17922         1         0
     17925         1         0     17928         1         0     17931         1         0
     17934         1         0     17937         1         0     17940         1         0
     17943         1         0     17946         1         0     17950         2         0
     17957         2         0     17968         1         0     17976         1         0
     17985         1         0     17988         1         0     17991         1         0
     17994         1         0     17997         1         0     18000         1         0
     18003         1         0     18005         1         0     18008         1         0
     18010         1         0     18013         1         0     18016         1         0
     18019         1         0     18022         1         0     18025         1         0
     18029         1         0     18032         1         0     18035         1         0
     18038         1         0     18041         1         0     18044         1         0
     18047         1         0     18050         1         0     18053         1         0
     18056         1         0     18059         1         0     18062         1         0
     18065         1         0     18069         2         0     18076         2         0
     18087         1         0     18095         1         0     18104         1         0
     18107         1         0     18110         1         0     18113         1         0
     18116         1         0     18119         1         0     18122         1         0
     18124         1         0     18127         1         0     18129         1         0
     18132         1         0     18135         1         0     18138         1         0
     18141         1         0     18144         1         0     18148         1         0
     18151         1         0     18154         1         0     18157         1         0
     18160         1         0     18163         1         0     18166         1         0
     18169         1         0     18172         1         0     18175         1         0
     18178         1         0     18181         1         0     18184         1         0
     18187         1         0     18191         2         0     18198         2         0
     18209         1         0     18217         1         0     18226         1         0
     18229         1         0     18232         1         0     18235         1         0
     18238         1         0     18241         1         0     18244         1         0
     18246         1         0     18249         1         0     18251         1         0
     18254         1         0     18257         1         0     18260         1         0
     18263         1         0     18266         1         0     18270         1         0
     18273         1         0     18276         1         0     18279         1         0
     18282         1         0     18285         1         0     18288         1         0
     18291         1         0     18294         1         0     18297         1         0
     18300         1         0     18303         1         0     18306         1         0
     18309         1         0     18313         2         0     18320         2         0
     18331         1         0     18339         1         0     18348         1         0
     18351         1         0     18354         1         0     18357         1         0
     18360         1         0     18363         1         0     18366         1         0
     18368         1         0     18371         1         0     18373         1         0
     18376         1         0     18379         1         0     18382         1         0
     18385         1         0     18388         1         0     18392         1         0
     18395         1         0     18398         1         0     18401         1         0
     18404         1         0     18407         1         0     18410         1         0
     18413         1         0     18416         1         0     18419         1         0
     18422         1         0     18425         1         0     18428         1         0
     18431         1         0     18435         1         0     18440         1         0
     18444         2         0     18455         1         0     18463         1         0
     18472         1         0     18475         1         0     18478         1         0
     18481         1         0     18484         1         0     18487         1         0
     18490         1         0     18492         1         0     18494         1         0
     18497         1         0     18500         1         0     18503         1         0
     18506         1         0     18509         1         0     18513         1         0
     18516         1         0     18519         1         0     18522         1         0
     18525         1         0     18528         1         0     18531         1         0
     18534         1         0     18537         1         0     18540         1         0
     18543         1         0     18546         1         0     18549         1         0
     18552         1         0     18556         2         0     18563         2         0
     18574         1         0     18582         1         0     18591         1         0
     18594         1         0     18597         1         0     18600         1         0
     18603         1         0     18606         1         0     18609         1         0
     18611         1         0     18613         1         0     18616         1         0
     18619         1         0     18622         1         0     18625         1         0
     18628         1         0     18631         1         0     18634         1         0
     18638         1         0     18641         1         0     18644         1         0
     18647         1         0     18650         1         0     18653         1         0
     18656         1         0     18659         1         0     18662         1         0
     18665         1         0     18668         1         0     18671         1         0
     18674         1         0     18677         1         0     18681         2         0
     18688         2         0     18699         1         0     18707         1         0
     18716         1         0     18719         1         0     18722         1         0
     18725         1         0     18728         1         0     18731         1         0
     18734         1         0     18736         1         0     18739         1         0
     18741         1         0     18744         1         0     18747         1         0
     18750         1         0     18753         1         0     18756         1         0
     18760         1         0     18763         1         0     18766         1         0
     18769         1         0     18772         1         0     18775         1         0
     18778         1         0     18781         1         0     18784         1         0
     18787         1         0     18790         1         0     18793         1         0
     18796         1         0     18799         1         0     18803         2         0
     18810         2         0     18821         1         0     18829         1         0
     18838         1         0     18841         1         0     18844         1         0
     18847         1         0     18850         1         0     18853         1         0
     18856         1         0     18858         1         0     18861         1         0
     18863         1         0     18866         1         0     18869         1         0
     18872         1         0     18875         1         0     18878         1         0
     18882         1         0     18885         1         0     18888         1         0
     18891         1         0     18894         1         0     18897         1         0
     18900         1         0     18903         1         0     18906         1         0
     18909         1         0     18912         1         0     18915         1         0
     18918         1         0     18922         2         0     18929         2         0
     18940         1         0     18948         1         0     18957         1         0
     18960         1         0     18963         1         0     18966         1         0
     18969         1         0     18972         1         0     18975         1         0
     18977         1         0     18980         1         0     18982         1         0
     18985         1         0     18988         1         0     18991         1         0
     18994         1         0     18997         1         0     19001         1         0
     19004         1         0     19007         1         0     19010         1         0
     19013         1         0     19016         1         0     19019         1         0
     19022         1         0     19025         1         0     19028         1         0
     19031         1         0     19034         1         0     19037         1         0
     19040         1         0     19044         2         0     19051         2         0
     19062         1         0     19070         1         0     19079         1         0
     19082         1         0     19085         1         0     19088         1         0
     19091         1         0     19094         1         0     19097         1         0
     19099         1         0     19102         1         0     19104         1         0
     19107         1         0     19110         1         0     19113         1         0
     19116         1         0     19119         1         0     19123         1         0
     19126         1         0     19129         1         0     19132         1         0
     19135         1         0     19138         1         0     19141         1         0
     19144         1         0     19147         1         0     19150         1         0
     19153         1         0     19156         1         0     19159         1         0
     19162         1         0     19166         1         0     19171         1         0
     19175         2         0     19186         1         0     19194         1         0
     19203         1         0     19206         1         0     19209         1         0
     19212         1         0     19215         1         0     19218         1         0
     19221         1         0     19223         1         0     19225         1         0
     19228         1         0     19231         1         0     19234         1         0
     19237         1         0     19240         1         0     19244         1         0
     19247         1         0     19250         1         0     19253         1         0
     19256         1         0     19259         1         0     19262         1         0
     19265         1         0     19268         1         0     19271         1         0
     19274         1         0     19277         1         0     19280         1         0
     19283         1         0     19287         2         0     19294         2         0
     19305         1         0     19313         1         0     19322         1         0
     19325         1         0     19328         1         0     19331         1         0
     19334         1         0     19337         1         0     19340         1         0
     19342         1         0     19345         1         0     19347         1         0
     19350         1         0     19353         1         0     19356         1         0
     19359         1         0     19362         1         0     19366         1         0
     19369         1         0     19372         1         0     19375         1         0
     19378         1         0     19381         1         0     19384         1         0
     19387         1         0     19390         1         0     19393         1         0
     19396         1         0     19399         1         0     19402         1         0
     19405         1         0     19409         2         0     19416         2         0
     19427         1         0     19435         1         0     19444         1         0
     19447         1         0     19450         1         0     19453         1         0
     19456         1         0     19459         1         0     19462         1         0
     19464         1         0     19467         1         0     19469         1         0
     19472         1         0     19475         1         0     19478         1         0
     19481         1         0     19484         1         0     19488         1         0
     19491         1         0     19494         1         0     19497         1         0
     19500         1         0     19503         1         0     19506         1         0
     19509         1         0     19512         1         0     19515         1         0
     19518         1         0     19521         1         0     19524         1         0
     19527         1         0     19531         2         0     19538         2         0
     19549         1         0     19557         1         0     19566         1         0
     19569         1         0     19572         1         0     19575         1         0
     19578         1         0     19581         1         0     19584         1         0
     19586         1         0     19589         1         0     19591         1         0
     19594         1         0     19597         1         0     19600         1         0
     19603         1         0     19606         1         0     19610         1         0
     19613         1         0     19616         1         0     19619         1         0
     19622         1         0     19625         1         0     19628         1         0
     19631         1         0     19634         1         0     19637         1         0
     19640         1         0     19643         1         0     19646         1         0
     19649         1         0     19653         1         0     19658         1         0
     19662         2         0     19673         1         0     19681         1         0
     19690         1         0     19693         1         0     19696         1         0
     19699         1         0     19702         1         0     19705         1         0
     19708         1         0     19710         1         0     19713         1         0
     19715         1         0     19718         1         0     19721         1         0
     19724         1         0     19727         1         0     19730         1         0
     19734         1         0     19737         1         0     19740         1         0
     19743         1         0     19746         1         0     19749         1         0
     19752         1         0     19755         1         0     19758         1         0
     19761         1         0     19764         1         0     19767         1         0
     19770         1         0     19773         1         0     19777         2         0
     19784         2         0     19795         1         0     19803         1         0
     19812         1         0     19815         1         0     19818         1         0
     19821         1         0     19824         1         0     19827         1         0
     19830         1         0     19832         1         0     19834         1         0
     19837         1         0     19840         1         0     19843         1         0
     19846         1         0     19849         1         0     19853         1         0
     19856         1         0     19859         1         0     19862         1         0
     19865         1         0     19868         1         0     19871         1         0
     19873         1         0     19875         1         0     19878         1         0
     19881         1         0     19884         1         0     19887         1         0
     19890         1         0     19893         1         0     19896         1         0
     19900         2         0     19907         2         0     19918         1         0
     19926         1         0     19935         1         0     19938         1         0
     19941         1         0     19944         1         0     19947         1         0
     19950         1         0     19953         1         0     19955         1         0
     19958         1         0     19960         1         0     19963         1         0
     19966         1         0     19969         1         0     19972         1         0
     19975         1         0     19979         1         0     19982         1         0
     19985         1         0     19988         1         0     19991         1         0
     19994         1         0     19997         1         0     20000         1         0
     20003         1         0     20006         1         0     20009         1         0
     20012         1         0     20015         1         0     20018         1         0
     20022         2         0     20029         2         0     20040         1         0
     20048         1         0     20057         1         0     20060         1         0
     20063         1         0     20066         1         0     20069         1         0
     20072         1         0     20075         1         0     20077         1         0
     20080         1         0     20082         1         0     20085         1         0
     20088         1         0     20091         1         0     20094         1         0
     20097         1         0     20101         1         0     20104         1         0
     20107         1         0     20110         1         0     20113         1         0
     20116         1         0     20119         1         0     20122         1         0
     20125         1         0     20128         1         0     20131         1         0
     20134         1         0     20137         1         0     20141         1         0
     20146         1         0     20150         2         0     20161         1         0
     20169         1         0     20178         1         0     20181         1         0
     20184         1         0     20187         1         0     20190         1         0
     20193         1         0     20196         1         0     20198         1         0
     20200         1         0     20203         1         0     20206         1         0
     20209         1         0     20212         1         0     20215         1         0
     20219         1         0     20222         1         0     20225         1         0
     20228         1         0     20231         1         0     20234         1         0
     20237         1         0     20240         1         0     20243         1         0
     20246         1         0     20249         1         0     20252         1         0
     20255         1         0     20258         1         0     20262         1         0
     20267         1         0     20271         2         0     20282         1         0
     20290         1         0     20299         1         0     20302         1         0
     20305         1         0     20308         1         0     20311         1         0
     20314         1         0     20317         1         0     20319         1         0
     20322         1         0     20324         1         0     20327         1         0
     20330         1         0     20333         1         0     20336         1         0
     20339         1         0     20343         1         0     20346         1         0
     20349         1         0     20352         1         0     20355         1         0
     20358         1         0     20361         1         0     20364         1         0
     20367         1         0     20370         1         0     20373         1         0
     20376         1         0     20379         1         0     20382         1         0
     20386         2         0     20393         2         0     20404         1         0
     20412         1         0     20421         1         0     20424         1         0
     20427         1         0     20430         1         0     20433         1         0
     20436         1         0     20439         1         0     20441         1         0
     20443         1         0     20446         1         0     20449         1         0
     20452         1         0     20455         1         0     20458         1         0
     20462         1         0     20465         1         0     20468         1         0
     20471         1         0     20474         1         0     20477         1         0
     20480         1         0     20482         1         0     20484         1         0
     20487         1         0     20490         1         0     20493         1         0
     20496         1         0     20499         1         0     20502         1         0
     20505         1         0     20509         2         0     20516         2         0
     20527         1         0     20535         1         0     20544         1         0
     20547         1         0     20550         1         0     20553         1         0
     20556         1         0     20559         1         0     20562         1         0
     20564         1         0     20567         1         0     20569         1         0
     20572         1         0     20575         1         0     20578         1         0
     20581         1         0     20584         1         0     20588         1         0
     20591         1         0     20594         1         0     20597         1         0
     20600         1         0     20603         1         0     20606         1         0
     20609         1         0     20612         1         0     20615         1         0
     20618         1         0     20621         1         0     20624         1         0
     20627         1         0     20631         2         0     20638         2         0
     20649         1         0     20657         1         0     20666         1         0
     20669         1         0     20672         1         0     20675         1         0
     20678         1         0     20681         1         0     20684         1         0
     20686         1         0     20689         1         0     20691         1         0
     20694         1         0     20697         1         0     20700         1         0
     20703         1         0     20706         1         0     20710         1         0
     20713         1         0     20716         1         0     20719         1         0
     20722         1         0     20725         1         0     20728         1         0
     20731         1         0     20734         1         0     20737         1         0
     20740         1         0     20743         1         0     20746         1         0
     20749         1         0     20753         2         0     20760         2         0
     20771         1         0     20779         1         0     20788         1         0
     20791         1         0     20794         1         0     20797         1         0
     20800         1         0     20803         1         0     20806         1         0
     20808         1         0     20811         1         0     20813         1         0
     20816         1         0     20819         1         0     20822         1         0
     20825         1         0     20828         1         0     20832         1         0
     20835         1         0     20838         1         0     20841         1         0
     20844         1         0     20847         1         0     20850         1         0
     20853         1         0     20856         1         0     20859         1         0
     20862         1         0     20865         1         0     20868         1         0
     20871         1         0     20875         2         0     20882         2         0
     20893         1         0     20901         1         0     20910         1         0
     20913         1         0     20916         1         0     20919         1         0
     20922         1         0     20925         1         0     20928         1         0
     20930         1         0     20932         1         0     20935         1         0
     20938         1         0     20941         1         0     20944         1         0
     20947         1         0     20950         1         0     20953         1         0
     20957         1         0     20960         1         0     20963         1         0
     20966         1         0     20969         1         0     20972         1         0
     20975         1         0     20978         1         0     20981         1         0
     20984         1         0     20987         1         0     20990         1         0
     20993         1         0     20996         1         0     21000         2         0
     21007         2         0     21018         1         0     21026         1         0
     21035         1         0     21038         1         0     21041         1         0
     21044         1         0     21047         1         0     21050         1         0
     21053         1         0     21055         1         0     21057         1         0
     21060         1         0     21063         1         0     21066         1         0
     21069         1         0     21072         1         0     21075         1         0
     21078         1         0     21082         1         0     21085         1         0
     21088         1         0     21091         1         0     21094         1         0
     21097         1         0     21100         1         0     21103         1         0
     21106         1         0     21109         1         0     21112         1         0
     21115         1         0     21118         1         0     21121         1         0
     21125         1         0     21130         1         0     21134         2         0
     21145         1         0     21153         1         0     21162         1         0
     21165         1         0     21168         1         0     21171         1         0
     21174         1         0     21177         1         0     21180         1         0
     21182         1         0     21184         1         0     21187         1         0
     21190         1         0     21193         1         0     21196         1         0
     21199         1         0     21203         1         0     21206         1         0
     21209         1         0     21212         1         0     21215         1         0
     21218         1         0     21221         1         0     21224         1         0
     21227         1         0     21230         1         0     21233         1         0
     21236         1         0     21239         1         0     21242         1         0
     21246         2         0     21253         2         0     21264         1         0
     21272         1         0     21281         1         0     21284         1         0
     21287         1         0     21290         1         0     21293         1         0
     21296         1         0     21299         1         0     21301         1         0
     21304         1         0     21306         1         0     21309         1         0
     21312         1         0     21315         1         0     21318         1         0
     21321         1         0     21325         1         0     21328         1         0
     21331         1         0     21334         1         0     21337         1         0
     21340         1         0     21343         1         0     21346         1         0
     21349         1         0     21352         1         0     21355         1         0
     21358         1         0     21361         1         0     21364         1         0
     21368         2         0     21375         2         0     21386         1         0
     21394         1         0     21403         1         0     21406         1         0
     21409         1         0     21412         1         0     21415         1         0
     21418         1         0     21421         1         0     21423         1         0
     21426         1         0     21428         1         0     21431         1         0
     21434         1         0     21437         1         0     21440         1         0
     21443         1         0     21447         1         0     21450         1         0
     21453         1         0     21456         1         0     21459         1         0
     21462         1         0     21465         1         0     21468         1         0
     21471         1         0     21474         1         0     21477         1         0
     21480         1         0     21483         1         0     21486         1         0
     21490         2         0     21497         2         0     21508         1         0
     21516         1         0     21525         1         0     21528         1         0
     21531         1         0     21534         1         0     21537         1         0
     21540         1         0     21543         1         0     21545         1         0
     21547         1         0     21550         1         0     21553         1         0
     21556         1         0     21559         1         0     21562         1         0
     21565         1         0     21568         1         0     21572         1         0
     21575         1         0     21578         1         0     21581         1         0
     21584         1         0     21587         1         0     21590         1         0
     21593         1         0     21596         1         0     21599         1         0
     21602         1         0     21605         1         0     21608         1         0
     21611         1         0     21615         2         0     21622         2         0
     21633         1         0     21641         1         0     21650         1         0
     21653         1         0     21656         1         0     21659         1         0
     21662         1         0     21665         1         0     21668         1         0
     21670         1         0     21672         1         0     21675         1         0
     21678         1         0     21681         1         0     21684         1         0
     21687         1         0     21690         1         0     21693         1         0
     21697         1         0     21700         1         0     21703         1         0
     21706         1         0     21709         1         0     21712         1         0
     21715         1         0     21718         1         0     21721         1         0
     21724         1         0     21727         1         0     21730         1         0
     21733         1         0     21736         1         0     21740         2         0
     21747         2         0     21758         1         0     21766         1         0
     21775         1         0     21778         1         0     21781         1         0
     21784         1         0     21787         1         0     21790         1         0
     21793         1         0     21795         1         0     21798         1         0
     21800         1         0     21803         1         0     21806         1         0
     21809         1         0     21812         1         0     21815         1         0
     21819         1         0     21822         1         0     21825         1         0
     21828         1         0     21831         1         0     21834         1         0
     21837         1         0     21840         1         0     21843         1         0
     21846         1         0     21849         1         0     21852         1         0
     21855         1         0     21858         1         0     21862         2         0
     21869         2         0     21880         1         0     21888         1         0
     21897         1         0     21900         1         0     21903         1         0
     21906         1         0     21909         1         0     21912         1         0
     21915         1         0     21917         1         0     21919         1         0
     21922         1         0     21925         1         0     21928         1         0
     21931         1         0     21934         1         0     21938         1         0
     21941         1         0     21944         1         0     21947         1         0
     21950         1         0     21953         1         0     21956         1         0
     21958         1         0     21960         1         0     21963         1         0
     21966         1         0     21969         1         0     21972         1         0
     21975         1         0     21978         1         0     21981         1         0
     21985         1         0     21990         1         0     21994         2         0
     22005         1         0     22013         1         0     22022         1         0
     22025         1         0     22028         1         0     22031         1         0
     22034         1         0     22037         1         0     22040         1         0
     22042         1         0     22045         1         0     22047         1         0
     22050         1         0     22053         1         0     22056         1         0
     22059         1         0     22062         1         0     22066         1         0
     22069         1         0     22072         1         0     22075         1         0
     22078         1         0     22081         1         0     22084         1         0
     22087         1         0     22090         1         0     22093         1         0
     22096         1         0     22099         1         0     22102         1         0
     22105         1         0     22109         2         0     22116         2         0
     22127         1         0     22135         1         0     22144         1         0
     22147         1         0     22150         1         0     22153         1         0
     22156         1         0     22159         1         0     22162         1         0
     22164         1         0     22167         1         0     22169         1         0
     22172         1         0     22175         1         0     22178         1         0
     22181         1         0     22184         1         0     22188         1         0
     22191         1         0     22194         1         0     22197         1         0
     22200         1         0     22203         1         0     22206         1         0
     22209         1         0     22212         1         0     22215         1         0
     22218         1         0     22221         1         0     22224         1         0
     22227         1         0     22231         2         0     22238         2         0
     22249         1         0     22257         1         0     22266         1         0
     22269         1         0     22272         1         0     22275         1         0
     22278         1         0     22281         1         0     22284         1         0
     22286         1         0     22289         1         0     22291         1         0
     22294         1         0     22297         1         0     22300         1         0
     22303         1         0     22306         1         0     22310         1         0
     22313         1         0     22316         1         0     22319         1         0
     22322         1         0     22325         1         0     22328         1         0
     22331         1         0     22334         1         0     22337         1         0
     22340         1         0     22343         1         0     22346         1         0
     22349         1         0     22353         1         0     22358         1         0
     22362         2         0     22373         1         0     22381         1         0
     22390         1         0     22393         1         0     22396         1         0
     22399         1         0     22402         1         0     22405         1         0
     22408         1         0     22410         1         0     22412         1         0
     22415         1         0     22418         1         0     22421         1         0
     22424         1         0     22427         1         0     22431         1         0
     22434         1         0     22437         1         0     22440         1         0
     22443         1         0     22446         1         0     22449         1         0
     22452         1         0     22455         1         0     22458         1         0
     22461         1         0     22464         1         0     22467         1         0
     22470         1         0     22474         2         0     22481         2         0
     22492         1         0     22500         1         0     22509         1         0
     22512         1         0     22515         1         0     22518         1         0
     22521         1         0     22524         1         0     22527         1         0
     22529         1         0     22531         1         0     22534         1         0
     22537         1         0     22540         1         0     22543         1         0
     22546         1         0     22550         1         0     22553         1         0
     22556         1         0     22559         1         0     22562         1         0
     22565         1         0     22568         1         0     22570         1         0
     22572         1         0     22575         1         0     22578         1         0
     22581         1         0     22584         1         0     22587         1         0
     22590         1         0     22593         1         0     22597         2         0
     22604         2         0     22615         1         0     22623         1         0
     22632         1         0     22635         1         0     22638         1         0
     22641         1         0     22644         1         0     22647         1         0
     22650         1         0     22652         1         0     22655         1         0
     22657         1         0     22660         1         0     22663         1         0
     22666         1         0     22669         1         0     22672         1         0
     22676         1         0     22679         1         0     22682         1         0
     22685         1         0     22688         1         0     22691         1         0
     22694         1         0     22697         1         0     22700         1         0
     22703         1         0     22706         1         0     22709         1         0
     22712         1         0     22715         1         0     22719         2         0
     22726         2         0     22737         1         0     22745         1         0
     22754         1         0     22757         1         0     22760         1         0
     22763         1         0     22766         1         0     22769         1         0
     22772         1         0     22774         1         0     22777         1         0
     22779         1         0     22782         1         0     22785         1         0
     22788         1         0     22791         1         0     22794         1         0
     22798         1         0     22801         1         0     22804         1         0
     22807         1         0     22810         1         0     22813         1         0
     22816         1         0     22819         1         0     22822         1         0
     22825         1         0     22828         1         0     22831         1         0
     22834         1         0     22838         1         0     22843         1         0
     22847         2         0     22858         1         0     22866         1         0
     22875         1         0     22878         1         0     22881         1         0
     22884         1         0     22887         1         0     22890         1         0
     22893         1         0     22895         1         0     22898         1         0
     22900         1         0     22903         1         0     22906         1         0
     22909         1         0     22912         1         0     22915         1         0
     22919         1         0     22922         1         0     22925         1         0
     22928         1         0     22931         1         0     22934         1         0
     22937         1         0     22940         1         0     22943         1         0
     22946         1         0     22949         1         0     22952         1         0
     22955         1         0     22958         1         0     22962         2         0
     22969         2         0     22980         1         0     22988         1         0
     22997         1         0     23000         1         0     23003         1         0
     23006         1         0     23009         1         0     23012         1         0
     23015         1         0     23017         1         0     23020         1         0
     23022         1         0     23025         1         0     23028         1         0
     23031         1         0     23034         1         0     23037         1         0
     23041         1         0     23044         1         0     23047         1         0
     23050         1         0     23053         1         0     23056         1         0
     23059         1         0     23062         1         0     23065         1         0
     23068         1         0     23071         1         0     23074         1         0
     23077         1         0     23080         1         0     23084         2         0
     23091         2         0     23102         1         0     23110         1         0
     23119         1         0     23122         1         0     23125         1         0
     23128         1         0     23131         1         0     23134         1         0
     23137         1         0     23139         1         0     23141         1         0
     23144         1         0     23147         1         0     23150         1         0
     23153         1         0     23156         1         0     23159         1         0
     23162         1         0     23166         1         0     23169         1         0
     23172         1         0     23175         1         0     23178         1         0
     23181         1         0     23184         1         0     23187         1         0
     23190         1         0     23193         1         0     23196         1         0
     23199         1         0     23202         1         0     23205         1         0
     23209         2         0     23216         2         0     23227         1         0
     23235         1         0     23244         1         0     23247         1         0
     23250         1         0     23253         1         0     23256         1         0
     23259         1         0     23262         1         0     23264         1         0
     23267         1         0     23269         1         0     23272         1         0
     23275         1         0     23278         1         0     23281         1         0
     23284         1         0     23288         1         0     23291         1         0
     23294         1         0     23297         1         0     23300         1         0
     23303         1         0     23306         1         0     23309         1         0
     23312         1         0     23315         1         0     23318         1         0
     23321         1         0     23324         1         0     23327         1         0
     23331         2         0     23338         2         0     23349         1         0
     23357         1         0     23366         1         0     23369         1         0
     23372         1         0     23375         1         0     23378         1         0
     23381         1         0     23384         1         0     23386         1         0
     23389         1         0     23391         1         0     23394         1         0
     23397         1         0     23400         1         0     23403         1         0
     23406         1         0     23410         1         0     23413         1         0
     23416         1         0     23419         1         0     23422         1         0
     23425         1         0     23428         1         0     23431         1         0
     23434         1         0     23437         1         0     23440         1         0
     23443         1         0     23446         1         0     23449         1         0
     23453         2         0     23460         2         0     23471         1         0
     23479         1         0     23488         1         0     23491         1         0
     23494         1         0     23497         1         0     23500         1         0
     23503         1         0     23506         1         0     23508         1         0
     23511         1         0     23513         1         0     23516         1         0
     23519         1         0     23522         1         0     23525         1         0
     23528         1         0     23532         1         0     23535         1         0
     23538         1         0     23541         1         0     23544         1         0
     23547         1         0     23550         1         0     23553         1         0
     23556         1         0     23559         1         0     23562         1         0
     23565         1         0     23568         1         0     23571         1         0
     23575         2         0     23582         2         0     23593         1         0
     23601         1         0     23610         1         0     23613         1         0
     23616         1         0     23619         1         0     23622         1         0
     23625         1         0     23628         1         0     23630         1         0
     23632         1         0     23635         1         0     23638         1         0
     23641         1         0     23644         1         0     23647         1         0
     23650         1         0     23653         1         0     23657         1         0
     23660         1         0     23663         1         0     23666         1         0
     23669         1         0     23672         1         0     23675         1         0
     23678         1         0     23681         1         0     23684         1         0
     23687         1         0     23690         1         0     23693         1         0
     23696         1         0     23700         1         0     23705         1         0
     23709         2         0     23720         1         0     23728         1         0
     23737         1         0     23740         1         0     23743         1         0
     23746         1         0     23749         1         0     23752         1         0
     23755         1         0     23757         1         0     23759         1         0
     23762         1         0     23765         1         0     23768         1         0
     23771         1         0     23774         1         0     23778         1         0
     23781         1         0     23784         1         0     23787         1         0
     23790         1         0     23793         1         0     23796         1         0
     23799         1         0     23802         1         0     23805         1         0
     23808         1         0     23811         1         0     23814         1         0
     23817         1         0     23821         2         0     23828         2         0
     23839         1         0     23847         1         0     23856         1         0
     23859         1         0     23862         1         0     23865         1         0
     23868         1         0     23871         1         0     23874         1         0
     23876         1         0     23879         1         0     23881         1         0
     23884         1         0     23887         1         0     23890         1         0
     23893         1         0     23896         1         0     23900         1         0
     23903         1         0     23906         1         0     23909         1         0
     23912         1         0     23915         1         0     23918         1         0
     23921         1         0     23924         1         0     23927         1         0
     23930         1         0     23933         1         0     23936         1         0
     23940         2         0     23947         2         0     23958         1         0
     23966         1         0     23975         1         0     23978         1         0
     23981         1         0     23984         1         0     23987         1         0
     23990         1         0     23993         1         0     23995         1         0
     23998         1         0     24000         1         0     24003         1         0
     24006         1         0     24009         1         0     24012         1         0
     24015         1         0     24019         1         0     24022         1         0
     24025         1         0     24028         1         0     24031         1         0
     24034         1         0     24037         1         0     24040         1         0
     24043         1         0     24046         1         0     24049         1         0
     24052         1         0     24055         1         0     24058         1         0
     24062         2         0     24069         2         0     24080         1         0
     24088         1         0     24097         1         0     24100         1         0
     24103         1         0     24106         1         0     24109         1         0
     24112         1         0     24115         1         0     24117         1         0
     24119         1         0     24122         1         0     24125         1         0
     24128         1         0     24131         1         0     24134         1         0
     24137         1         0     24140         1         0     24144         1         0
     24147         1         0     24150         1         0     24153         1         0
     24156         1         0     24159         1         0     24162         1         0
     24165         1         0     24168         1         0     24171         1         0
     24174         1         0     24177         1         0     24180         1         0
     24183         1         0     24187         2         0     24198         1         0
     24202         2         0     24213         1         0     24221         1         0
     24230         1         0     24238         1         0     24247         1         0
     24250         1         0     24253         1         0     24256         1         0
     24259         1         0     24262         1         0     24265         1         0
     24268         1         0     24271         1         0     24273         1         0
     24275         1         0     24278         1         0     24281         1         0
     24284         1         0     24287         1         0     24290         1         0
     24294         1         0     24297         1         0     24300         1         0
     24303         1         0     24306         1         0     24309         1         0
     24312         1         0     24315         1         0     24318         1         0
     24321         1         0     24324         1         0     24327         1         0
     24330         1         0     24333         1         0     24337         1         0
     24340         1         0     24343         1         0     24346         1         0
     24349         1         0     24352         1         0     24355         1         0
     24358         1         0     24361         1         0     24363         1         0
     24365         1         0     24368         1         0     24371         1         0
     24374         1         0     24377         1         0     24380         1         0
     24384         1         0     24387         1         0     24390         1         0
     24393         1         0     24396         1         0     24399         1         0
     24402         1         0     24405         1         0     24408         1         0
     24411         1         0     24414         1         0     24417         1         0
     24420         1         0     24423         1         0     24427         1         0
     24432         1         0     24436         2         0     24447         1         0
     24455         1         0     24464         1         0     24467         1         0
     24470         1         0     24473         1         0     24476         1         0
     24479         1         0     24482         1         0     24484         1         0
     24487         1         0     24489         1         0     24492         1         0
     24495         1         0     24498         1         0     24501         1         0
     24504         1         0     24508         1         0     24511         1         0
     24514         1         0     24517         1         0     24520         1         0
     24523         1         0     24526         1         0     24529         1         0
     24532         1         0     24535         1         0     24538         1         0
     24541         1         0     24544         1         0     24547         1         0
     24551         2         0     24558         2         0     24569         1         0
     24577         1         0     24586         1         0     24589         1         0
     24592         1         0     24595         1         0     24598         1         0
     24601         1         0     24604         1         0     24606         1         0
     24609         1         0     24611         1         0     24614         1         0
     24617         1         0     24620         1         0     24623         1         0
     24626         1         0     24630         1         0     24633         1         0
     24636         1         0     24639         1         0     24642         1         0
     24645         1         0     24648         1         0     24651         1         0
     24654         1         0     24657         1         0     24660         1         0
     24663         1         0     24666         1         0     24669         1         0
     24673         2         0     24680         2         0     24691         1         0
     24699         1         0     24708         1         0     24711         1         0
     24714         1         0     24717         1         0     24720         1         0
     24723         1         0     24726         1         0     24728         1         0
     24731         1         0     24733         1         0     24736         1         0
     24739         1         0     24742         1         0     24745         1         0
     24748         1         0     24752         1         0     24755         1         0
     24758         1         0     24761         1         0     24764         1         0
     24767         1         0     24770         1         0     24773         1         0
     24776         1         0     24779         1         0     24782         1         0
     24785         1         0     24788         1         0     24791         1         0
     24795         1         0     24800         1         0     24804         2         0
     24815         1         0     24823         1         0     24832         1         0
     24835         1         0     24838         1         0     24841         1         0
     24844         1         0     24847         1         0     24850         1         0
     24852         1         0     24854         1         0     24857         1         0
     24860         1         0     24863         1         0     24866         1         0
     24869         1         0     24873         1         0     24876         1         0
     24879         1         0     24882         1         0     24885         1         0
     24888         1         0     24891         1         0     24894         1         0
     24897         1         0     24900         1         0     24903         1         0
     24906         1         0     24909         1         0     24912         1         0
     24916         1         0     24919         1         0     24922         1         0
     24925         1         0     24928         1         0     24931         1         0
     24934         1         0     24937         1         0     24940         1         0
     24943         1         0     24946         1         0     24949         1         0
     24952         1         0     24955         1         0     24958         1         0
     24961         1         0     24964         1         0     24967         1         0
     24970         1         0     24973         1         0     24976         1         0
     24979         1         0     24982         1         0     24985         1         0
     24988         1         0     24991         1         0     24994         1         0
     24997         1         0     25000         1         0     25003         1         0
     25006         1         0     25009         1         0     25012         1         0
     25015         1         0     25018         1         0     25021         1         0
     25024         1         0     25027         1         0     25030         1         0
     25033         1         0     25036         1         0     25039         1         0
     25042         1         0     25045         1         0     25048         1         0
     25051         1         0     25054         1         0     25057         1         0
     25060         1         0     25063         1         0     25066         1         0
     25069         1         0     25072         1         0     25075         1         0
     25078         1         0     25081         1         0     25084         1         0
     25087         1         0     25090         1         0     25093         1         0
     25096         1         0     25099         1         0     25102         1         0
     25105         1         0     25108         1         0     25111         1         0
     25114         1         0     25117         1         0     25120         1         0
     25123         1         0     25126         1         0     25129         1         0
     25132         1         0     25135         1         0     25138         1         0
     25141         1         0     25144         1         0     25147         1         0
     25150         1         0     25153         1         0     25156         1         0
     25159         1         0     25162         1         0     25165         1         0
     25168         1         0     25171         1         0     25174         1         0
     25177         1         0     25180         1         0     25183         1         0
     25186         1         0     25189         1         0     25192         1         0
     25195         1         0     25198         1         0     25201         1         0
     25204         1         0     25207         1         0     25210         1         0
     25213         1         0     25216         1         0     25219         1         0
     25222         1         0     25225         1         0     25228         1         0
     25231         1         0     25234         1         0     25237         1         0
     25240         1         0     25243         1         0     25246         1         0
     25249         1         0     25252         1         0     25255         1         0
     25258         1         0     25261         1         0     25264         1         0
     25267         1         0     25270         1         0     25273         1         0
     25276         1         0     25279         1         0     25282         1         0
     25285         1         0     25288         1         0     25291         1         0
     25294         1         0     25297         1         0     25300         1         0
     25303         1         0     25306         1         0     25309         1         0
     25312         1         0     25315         1         0     25318         1         0
     25321         1         0     25324         1         0     25327         1         0
     25330         1         0     25333         1         0     25336         1         0
     25339         1         0     25342         1         0     25345         1         0
     25348         1         0     25351         1         0     25354         1         0
     25357         1         0     25360         1         0     25363         1         0
     25366         1         0     25369         1         0     25372         1         0
     25375         1         0     25378         1         0     25381         1         0
     25384         1         0     25387         1         0     25390         1         0
     25393         1         0     25396         1         0     25399         1         0
     25402         1         0     25405         1         0     25408         1         0
     25411         1         0     25414         1         0     25417         1         0
     25420         1         0     25423         1         0     25426         1         0
     25429         1         0     25432         1         0     25435         1         0
     25438         1         0     25441         1         0     25444         1         0
     25447         1         0     25450         1         0     25453         1         0
     25456         1         0     25459         1         0     25462         1         0
     25465         1         0     25468         1         0     25471         1         0
     25474         1         0     25477         1         0     25480         1         0
     25483         1         0     25486         1         0     25489         1         0
     25492         1         0     25495         1         0     25498         1         0
     25501         1         0     25504         1         0     25507         1         0
     25510         1         0     25513         1         0     25516         1         0
     25519         1         0     25522         1         0     25525         1         0
     25528         1         0     25531         1         0     25534         1         0
     25537         1         0     25540         1         0     25543         1         0
     25546         1         0     25549         1         0     25552         1         0
     25555         1         0     25558         1         0     25561         1         0
     25564         1         0     25567         1         0     25570         1         0
     25573         1         0     25576         1         0     25579         1         0
     25582         1         0     25585         1         0     25588         1         0
     25591         1         0     25594         1         0     25597         1         0
     25600         1         0     25603         1         0     25606         1         0
     25609         1         0     25612         1         0     25615         1         0
     25618         1         0     25621         1         0     25624         1         0
     25627         1         0     25630         1         0     25633         1         0
     25636         1         0     25639         1         0     25642         1         0
     25645         1         0     25648         1         0     25651         1         0
     25654         1         0     25657         1         0     25660         1         0
     25663         1         0     25666         1         0     25669         1         0
     25672         1         0     25675         1         0     25678         1         0
     25681         1         0     25684         1         0     25687         1         0
     25690         1         0     25693         1         0     25696         1         0
     25699         1         0     25702         1         0     25705         1         0
     25708         1         0     25711         1         0     25714         1         0
     25717         1         0     25720         1         0     25723         1         0
     25726         1         0     25729         1         0     25732         1         0
     25735         1         0     25738         1         0     25741         1         0
     25744         1         0     25747         1         0     25750         1         0
     25753         1         0     25756         1         0     25759         1         0
     25762         1         0     25765         1         0     25768         1         0
     25771         1         0     25774         1         0     25777         1         0
     25780         1         0     25783         1         0     25786         1         0
     25789         1         0     25792         1         0     25795         1         0
     25798         1         0     25801         1         0     25804         1         0
     25807         1         0     25810         1         0     25813         1         0
     25816         1         0     25819         1         0     25822         1         0
     25825         1         0     25828         1         0     25831         1         0
     25834         1         0     25837         1         0     25840         1         0
     25843         1         0     25846         1         0     25849         1         0
     25852         1         0     25855         1         0     25858         1         0
     25861         1         0     25864         1         0     25867         1         0
     25870         1         0     25873         1         0     25876         1         0
     25879         1         0     25882         1         0     25885         1         0
     25888         1         0     25891         1         0     25894         1         0
     25897         1         0     25900         1         0     25903         1         0
     25906         1         0     25909         1         0     25912         1         0
     25915         1         0     25918         1         0     25921         1         0
     25924         1         0     25927         1         0     25930         1         0
     25933         1         0     25936         1         0     25939         1         0
     25942         1         0     25945         1         0     25948         1         0
     25951         1         0     25954         1         0     25957         1         0
     25960         1         0     25963         1         0     25966         1         0
     25969         1         0     25972         1         0     25975         1         0
     25978         1         0     25981         1         0     25984         1         0
     25987         1         0     25990         1         0     25993         1         0
     25996         1         0     25999         1         0     26002         1         0
     26005         1         0     26008         1         0     26011         1         0
     26014         1         0     26017         1         0     26020         1         0
     26023         1         0     26026         1         0     26029         1         0
     26032         1         0     26035         1         0     26038         1         0
     26041         1         0     26044         1         0     26047         1         0
     26050         1         0     26053         1         0     26056         1         0
     26059         1         0     26062         1         0     26065         1         0
     26068         1         0     26071         1         0     26074         1         0
     26077         1         0     26080         1         0     26083         1         0
     26086         1         0     26089         1         0     26092         1         0
     26095         1         0     26098         1         0     26101         1         0
     26104         1         0     26107         1         0     26110         1         0
     26113         1         0     26116         1         0     26119         1         0
     26122         1         0     26125         1         0     26128         1         0
     26131         1         0     26134         1         0     26137         1         0
     26140         1         0     26143         1         0     26146         1         0
     26149         1         0     26152         1         0     26155         1         0
     26158         1         0     26161         1         0     26164         1         0
     26167         1         0     26170         1         0     26173         1         0
     26176         1         0     26179         1         0     26182         1         0
     26185         1         0     26188         1         0     26191         1         0
     26194         1         0     26197         1         0     26200         1         0
     26203         1         0     26206         1         0     26209         1         0
     26212         1         0     26215         1         0     26218         1         0
     26221         1         0     26224         1         0     26227         1         0
     26230         1         0     26233         1         0     26236         1         0
     26239         1         0     26242         1         0     26245         1         0
     26248         1         0     26251         1         0     26254         1         0
     26257         1         0     26260         1         0     26263         1         0
     26266         1         0     26269         1         0     26272         1         0
     26275         1         0     26278         1         0     26281         1         0
     26284         1         0     26287         1         0     26290         1         0
     26293         1         0     26296         1         0     26299         1         0
     26302         1         0     26305         1         0     26308         1         0
     26311         1         0     26314         1         0     26317         1         0
     26320         1         0     26323         1         0     26326         1         0
     26329         1         0     26332         1         0     26335         1         0
     26338         1         0     26341         1         0     26344         1         0
     26347         1         0     26350         1         0     26353         1         0
     26356         1         0     26359         1         0     26362         1         0
     26365         1         0     26368         1         0     26371         1         0
     26374         1         0     26377         1         0     26380         1         0
     26383         1         0     26386         1         0     26389         1         0
     26392         1         0     26395         1         0     26398         1         0
     26401         1         0     26404         1         0     26407         1         0
     26410         1         0     26413         1         0     26416         1         0
     26419         1         0     26422         1         0     26425         1         0
     26428         1         0     26431         1         0     26434         1         0
     26437         1         0     26440         1         0     26443         1         0
     26446         1         0     26449         1         0     26452         1         0
     26455         1         0     26458         1         0     26461         1         0
     26464         1         0     26467         1         0     26470         1         0
     26473         1         0     26476         1         0     26479         1         0
     26482         1         0     26485         1         0     26488         1         0
     26491         1         0     26494         1         0     26497         1         0
     26500         1         0     26503         1         0     26506         1         0
     26509         1         0     26512         1         0     26515         1         0
     26518         1         0     26521         1         0     26524         1         0
     26527         1         0     26530         1         0     26533         1         0
     26536         1         0     26539         1         0     26542         1         0
     26545         1         0     26548         1         0     26551         1         0
     26554         1         0     26557         1         0     26560         1         0
     26563         1         0     26566         1         0     26569         1         0
     26572         1         0     26575         1         0     26578         1         0
     26581         1         0     26584         1         0     26587         1         0
     26590         1         0     26593         1         0     26596         1         0
     26599         1         0     26602         1         0     26605         1         0
     26608         1         0     26611         1         0     26614         1         0
     26617         1         0     26620         1         0     26623         1         0
     26626         1         0     26629         1         0     26632         1         0
     26635         1         0     26638         1         0     26641         1         0
     26644         1         0     26647         1         0     26650         1         0
     26653         1         0     26656         1         0     26659         1         0
     26662         1         0     26665         1         0     26668         1         0
     26671         1         0     26674         1         0     26677         1         0
     26680         1         0     26683         1         0     26686         1         0
     26689         1         0     26692         1         0     26695         1         0
     26698         1         0     26701         1         0     26704         1         0
     26707         1         0     26710         1         0     26713         1         0
     26716         1         0     26719         1         0     26722         1         0
     26725         1         0     26728         1         0     26731         1         0
     26734         1         0     26737         1         0     26740         1         0
     26743         1         0     26746         1         0     26749         1         0
     26752         1         0     26755         1         0     26758         1         0
     26761         1         0     26764         1         0     26767         1         0
     26770         1         0     26773         1         0     26776         1         0
     26779         1         0     26782         1         0     26785         1         0
     26788         1         0     26791         1         0     26794         1         0
     26797         1         0     26800         1         0     26803         1         0
     26806         1         0     26809         1         0     26812         1         0
     26815         1         0     26818         1         0     26821         1         0
     26824         1         0     26827         1         0     26830         1         0
     26833         1         0     26836         1         0     26839         1         0
     26842         1         0     26845         1         0     26848         1         0
     26851         1         0     26854         1         0     26857         1         0
     26860         1         0     26863         1         0     26866         1         0
     26869         1         0     26872         1         0     26875         1         0
     26878         1         0     26881         1         0     26884         1         0
     26887         1         0     26890         1         0     26893         1         0
     26896         1         0     26899         1         0     26902         1         0
     26905         1         0     26908         1         0     26911         1         0
     26914         1         0     26917         1         0     26920         1         0
     26923         1         0     26926         1         0     26929         1         0
     26932         1         0     26935         1         0     26938         1         0
     26941         1         0     26944         1         0     26947         1         0
     26950         1         0     26953         1         0     26956         1         0
     26959         1         0     26962         1         0     26965         1         0
     26968         1         0     26971         1         0     26974         1         0
     26977         1         0     26980         1         0     26983         1         0
     26986         1         0     26989         1         0     26992         1         0
     26995         1         0     26998         1         0     27001         1         0
     27004         1         0     27007         1         0     27010         1         0
     27013         1         0     27016         1         0     27019         1         0
     27022         1         0     27025         1         0     27028         1         0
     27031         1         0     27034         1         0     27037         1         0
     27040         1         0     27043         1         0     27046         1         0
     27049         1         0     27052         1         0     27055         1         0
     27058         1         0     27061         1         0     27064         1         0
     27067         1         0     27070         1         0     27073         1         0
     27076         1         0     27079         1         0     27082         1         0
     27085         1         0     27088         1         0     27091         1         0
     27094         1         0     27097         1         0     27100         1         0
     27103         1         0     27106         1         0     27109         1         0
     27112         1         0     27115         1         0     27118         1         0
     27121         1         0     27124         1         0     27127         1         0
     27130         1         0     27133         1         0     27136         1         0
     27139         1         0     27142         1         0     27145         1         0
     27148         1         0     27151         1         0     27154         1         0
     27157         1         0     27160         1         0     27163         1         0
     27166         1         0     27169         1         0     27172         1         0
     27175         1         0     27178         1         0     27181         1         0
     27184         1         0     27187         1         0     27190         1         0
     27193         1         0     27196         1         0     27199         1         0
     27202         1         0     27205         1         0     27208         1         0
     27211         1         0     27214         1         0     27217         1         0
     27220         1         0     27223         1         0     27226         1         0
     27229         1         0     27232         1         0     27235         1         0
     27238         1         0     27241         1         0     27244         1         0
     27247         1         0     27250         1         0     27253         1         0
     27256         1         0     27259         1         0     27262         1         0
     27265         1         0     27268         1         0     27271         1         0
     27274         1         0     27277         1         0     27280         1         0
     27283         1         0     27286         1         0     27289         1         0
     27292         1         0     27295         1         0     27298         1         0
     27301         1         0     27304         1         0     27307         1         0
     27310         1         0     27313         1         0     27316         1         0
     27319         1         0     27322         1         0     27325         1         0
     27328         1         0     27331         1         0     27334         1         0
     27337         1         0     27340         1         0     27343         1         0
     27346         1         0     27349         1         0     27352         1         0
     27355         1         0     27358         1         0     27361         1         0
     27364         1         0     27367         1         0     27370         1         0
     27373         1         0     27376         1         0     27379         1         0
     27382         1         0     27385         1         0     27388         1         0
     27391         1         0     27394         1         0     27397         1         0
     27400         1         0     27403         1         0     27406         1         0
     27409         1         0     27412         1         0     27415         1         0
     27418         1         0     27421         1         0     27424         1         0
     27427         1         0     27430         1         0     27433         1         0
     27436         1         0     27439         1         0     27442         1         0
     27445         1         0     27448         1         0     27451         1         0
     27454         1         0     27457         1         0     27460         1         0
     27463         1         0     27466         1         0     27469         1         0
     27472         1         0     27475         1         0     27478         1         0
     27481         1         0     27484         1         0     27487         1         0
     27490         1         0     27493         1         0     27496         1         0
     27499         1         0     27502         1         0     27505         1         0
     27508         1         0     27511         1         0     27514         1         0
     27517         1         0     27520         1         0     27523         1         0
     27526         1         0     27529         1         0     27532         1         0
     27535         1         0     27538         1         0     27541         1         0
     27544         1         0     27547         1         0     27550         1         0
     27553         1         0     27556         1         0     27559         1         0
     27562         1         0     27565         1         0     27568         1         0
     27571         1         0     27574         1         0     27577         1         0
     27580         1         0     27583         1         0     27586         1         0
     27589         1         0     27592         1         0     27595         1         0
     27598         1         0     27601         1         0     27604         1         0
     27607         1         0     27610         1         0     27613         1         0
     27616         1         0     27619         1         0     27622         1         0
     27625         1         0     27628         1         0     27631         1         0
     27634         1         0     27637         1         0     27640         1         0
     27643         1         0     27646         1         0     27649         1         0
     27652         1         0     27655         1         0     27658         1         0
     27661         1         0     27664         1         0     27667         1         0
     27670         1         0     27673         1         0     27676         1         0
     27679         1         0     27682         1         0     27685         1         0
     27688         1         0     27691         1         0     27694         1         0
     27697         1         0     27700         1         0     27703         1         0
     27706         1         0     27709         1         0     27712         1         0
     27715         1         0     27718         1         0     27721         1         0
     27724         1         0     27727         1         0     27730         1         0
     27733         1         0     27736         1         0     27739         1         0
     27742         1         0     27745         1         0     27748         1         0
     27751         1         0     27754         1         0     27757         1         0
     27760         1         0     27763         1         0     27766         1         0
     27769         1         0     27772         1         0     27775         1         0
     27778         1         0     27781         1         0     27784         1         0
     27787         1         0     27790         1         0     27793         1         0
     27796         1         0     27799         1         0     27802         1         0
     27805         1         0     27808         1         0     27811         1         0
     27814         1         0     27817         1         0     27820         1         0
     27823         1         0     27826         1         0     27829         1         0
     27832         1         0     27835         1         0     27838         1         0
     27841         1         0     27844         1         0     27847         1         0
     27850         1         0     27853         1         0     27856         1         0
     27859         1         0     27862         1         0     27865         1         0
     27868         1         0     27871         1         0     27874         1         0
     27877         1         0     27880         1         0     27883         1         0
     27886         1         0     27889         1         0     27892         1         0
     27895         1         0     27898         1         0     27901         1         0
     27904         1         0     27907         1         0     27910         1         0
     27913         1         0     27916         1         0     27919         1         0
     27922         1         0     27925         1         0     27928         1         0
     27931         1         0     27934         1         0     27937         1         0
     27940         1         0     27943         1         0     27946         1         0
     27949         1         0     27952         1         0     27955         1         0
     27958         1         0     27961         1         0     27964         1         0
     27967         1         0     27970         1         0     27973         1         0
     27976         1         0     27979         1         0     27982         1         0
     27985         1         0     27988         1         0     27991         1         0
     27994         1         0     27997         1         0     28000         1         0
     28003         1         0     28006         1         0     28009         1         0
     28012         1         0     28015         1         0     28018         1         0
     28021         1         0     28024         1         0     28027         1         0
     28030         1         0     28033         1         0     28036         1         0
     28039         1         0     28042         1         0     28045         1         0
     28048         1         0     28051         1         0     28054         1         0
     28057         1         0     28060         1         0     28063         1         0
     28066         1         0     28069         1         0     28072         1         0
     28075         1         0     28078         1         0     28081         1         0
     28084         1         0     28087         1         0     28090         1         0
     28093         1         0     28096         1         0     28099         1         0
     28102         1         0     28105         1         0     28108         1         0
     28111         1         0     28114         1         0     28117         1         0
     28120         1         0     28123         1         0     28126         1         0
     28129         1         0     28132         1         0     28135         1         0
     28138         1         0     28141         1         0     28144         1         0
     28147         1         0     28150         1         0     28153         1         0
     28156         1         0     28159         1         0     28162         1         0
     28165         1         0     28168         1         0     28171         1         0
     28174         1         0     28177         1         0     28180         1         0
     28183         1         0     28186         1         0     28189         1         0
     28192         1         0     28195         1         0     28198         1         0
     28201         1         0     28204         1         0     28207         1         0
     28210         1         0     28213         1         0     28216         1         0
     28219         1         0     28222         1         0     28225         1         0
     28228         1         0     28231         1         0     28234         1         0
     28237         1         0     28240         1         0     28243         1         0
     28246         1         0     28249         1         0     28252         1         0
     28255         1         0     28258         1         0     28261         1         0
     28264         1         0     28267         1         0     28270         1         0
     28273         1         0     28276         1         0     28279         1         0
     28282         1         0     28285         1         0     28288         1         0
     28291         1         0     28294         1         0     28297         1         0
     28300         1         0     28303         1         0     28306         1         0
     28309         1         0     28312         1         0     28315         1         0
     28318         1         0     28321         1         0     28324         1         0
     28327         1         0     28330         1         0     28333         1         0
     28336         1         0     28339         1         0     28342         1         0
     28345         1         0     28348         1         0     28351         1         0
     28354         1         0     28357         1         0     28360         1         0
     28363         1         0     28366         1         0     28369         1         0
     28372         1         0     28375         1         0     28378         1         0
     28381         1         0     28384         1         0     28387         1         0
     28390         1         0     28393         1         0     28396         1         0
     28399         1         0     28402         1         0     28405         1         0
     28408         1         0     28411         1         0     28414         1         0
     28417         1         0     28420         1         0     28423         1         0
     28426         1         0     28429         1         0     28432         1         0
     28435         1         0     28438         1         0     28441         1         0
     28444         1         0     28447         1         0     28450         1         0
     28453         1         0     28456         1         0     28459         1         0
     28462         1         0     28465         1         0     28468         1         0
     28471         1         0     28474         1         0     28477         1         0
     28480         1         0     28483         1         0     28486         1         0
     28489         1         0     28492         1         0     28495         1         0
     28498         1         0     28501         1         0     28504         1         0
     28507         1         0     28510         1         0     28513         1         0
     28516         1         0     28519         1         0     28522         1         0
     28525         1         0     28528         1         0     28531         1         0
     28534         1         0     28537         1         0     28540         1         0
     28543         1         0     28546         1         0     28549         1         0
     28552         1         0     28555         1         0     28558         1         0
     28561         1         0     28564         1         0     28567         1         0
     28570         1         0     28573         1         0     28576         1         0
     28579         1         0     28582         1         0     28585         1         0
     28588         1         0     28591         1         0     28594         1         0
     28597         1         0     28600         1         0     28603         1         0
     28606         1         0     28609         1         0     28612         1         0
     28615         1         0     28618         1         0     28621         1         0
     28624         1         0     28627         1         0     28630         1         0
     28633         1         0     28636         1         0     28639         1         0
     28642         1         0     28645         1         0     28648         1         0
     28651         1         0     28654         1         0     28657         1         0
     28660         1         0     28663         1         0     28666         1         0
     28669         1         0     28672         1         0     28675         1         0
     28678         1         0     28681         1         0     28684         1         0
     28687         1         0     28690         1         0     28693         1         0
     28696         1         0     28699         1         0     28702         1         0
     28705         1         0     28708         1         0     28711         1         0
     28714         1         0     28717         1         0     28720         1         0
     28723         1         0     28726         1         0     28729         1         0
     28732         1         0     28735         1         0     28738         1         0
     28741         1         0     28744         1         0     28747         1         0
     28750         1         0     28753         1         0     28756         1         0
     28759         1         0     28762         1         0     28765         1         0
     28768         1         0     28771         1         0     28774         1         0
     28777         1         0     28780         1         0     28783         1         0
     28786         1         0     28789         1         0     28792         1         0
     28795         1         0     28798         1         0     28801         1         0
     28804         1         0     28807         1         0     28810         1         0
     28813         1         0     28816         1         0     28819         1         0
     28822         1         0     28825         1         0     28828         1         0
     28831         1         0     28834         1         0     28837         1         0
     28840         1         0     28843         1         0     28846         1         0
     28849         1         0     28852         1         0     28855         1         0
     28858         1         0     28861         1         0     28864         1         0
     28867         1         0     28870         1         0     28873         1         0
     28876         1         0     28879         1         0     28882         1         0
     28885         1         0     28888         1         0     28891         1         0
     28894         1         0     28897         1         0     28900         1         0
     28903         1         0     28906         1         0     28909         1         0
     28912         1         0     28915         1         0     28918         1         0
     28921         1         0     28924         1         0     28927         1         0
     28930         1         0     28933         1         0     28936         1         0
     28939         1         0     28942         1         0     28945         1         0
     28948         1         0     28951         1         0     28954         1         0
     28957         1         0     28960         1         0     28963         1         0
     28966         1         0     28969         1         0     28972         1         0
     28975         1         0     28978         1         0     28981         1         0
     28984         1         0     28987         1         0     28990         1         0
     28993         1         0     28996         1         0     28999         1         0
     29002         1         0     29005         1         0     29008         1         0
     29011         1         0     29014         1         0     29017         1         0
     29020         1         0     29023         1         0     29026         1         0
     29029         1         0     29032         1         0     29035         1         0
     29038         1         0     29041         1         0     29044         1         0
     29047         1         0     29050         1         0     29053         1         0
     29056         1         0     29059         1         0     29062         1         0
     29065         1         0     29068         1         0     29071         1         0
     29074         1         0     29077         1         0     29080         1         0
     29083         1         0     29086         1         0     29089         1         0
     29092         1         0     29095         1         0     29098         1         0
     29101         1         0     29104         1         0     29107         1         0
     29110         1         0     29113         1         0     29116         1         0
     29119         1         0     29122         1         0     29125         1         0
     29128         1         0     29131         1         0     29134         1         0
     29137         1         0     29140         1         0     29143         1         0
     29146         1         0     29149         1         0     29152         1         0
     29155         1         0     29158         1         0     29161         1         0
     29164         1         0     29167         1         0     29170         1         0
     29173         1         0     29176         1         0     29179         1         0
     29182         1         0     29185         1         0     29188         1         0
     29191         1         0     29194         1         0     29197         1         0
     29200         1         0     29203         1         0     29206         1         0
     29209         1         0     29212         1         0     29215         1         0
     29218         1         0     29221         1         0     29224         1         0
     29227         1         0     29230         1         0     29233         1         0
     29236         1         0     29239         1         0     29242         1         0
     29245         1         0     29248         1         0     29251         1         0
     29254         1         0     29257         1         0     29260         1         0
     29263         1         0     29266         1         0     29269         1         0
     29272         1         0     29275         1         0     29278         1         0
     29281         1         0     29284         1         0     29287         1         0
     29290         1         0     29293         1         0     29296         1         0
     29299         1         0     29302         1         0     29305         1         0
     29308         1         0     29311         1         0     29314         1         0
     29317         1         0     29320         1         0     29323         1         0
     29326         1         0     29329         1         0     29332         1         0
     29335         1         0     29338         1         0     29341         1         0
     29344         1         0     29347         1         0     29350         1         0
     29353         1         0     29356         1         0     29359         1         0
     29362         1         0     29365         1         0     29368         1         0
     29371         1         0     29374         1         0     29377         1         0
     29380         1         0     29383         1         0     29386         1         0
     29389         1         0     29392         1         0     29395         1         0
     29398         1         0     29401         1         0     29404         1         0
     29407         1         0     29410         1         0     29413         1         0
     29416         1         0     29419         1         0     29422         1         0
     29425         1         0     29428         1         0     29431         1         0
     29434         1         0     29437         1         0     29440         1         0
     29443         1         0     29446         1         0     29449         1         0
     29452         1         0     29455         1         0     29458         1         0
     29461         1         0     29464         1         0     29467         1         0
     29470         1         0     29473         1         0     29476         1         0
     29479         1         0     29482         1         0     29485         1         0
     29488         1         0     29491         1         0     29494         1         0
     29497         1         0     29500         1         0     29503         1         0
     29506         1         0     29509         1         0     29512         1         0
     29515         1         0     29518         1         0     29521         1         0
     29524         1         0     29527         1         0     29530         1         0
     29533         1         0     29536         1         0     29539         1         0
     29542         1         0     29545         1         0     29548         1         0
     29551         1         0     29554         1         0     29557         1         0
     29560         1         0     29563         1         0     29566         1         0
     29569         1         0     29572         1         0     29575         1         0
     29578         1         0     29581         1         0     29584         1         0
     29587         1         0     29590         1         0     29593         1         0
     29596         1         0     29599         1         0     29602         1         0
     29605         1         0     29608         1         0     29611         1         0
     29614         1         0     29617         1         0     29620         1         0
     29623         1         0     29626         1         0     29629         1         0
     29632         1         0     29635         1         0     29638         1         0
     29641         1         0     29644         1         0     29647         1         0
     29650         1         0     29653         1         0     29656         1         0
     29659         1         0     29662         1         0     29665         1         0
     29668         1         0     29671         1         0     29674         1         0
     29677         1         0     29680         1         0     29683         1         0
     29686         1         0     29689         1         0     29692         1         0
     29695         1         0     29698         1         0     29701         1         0
     29704         1         0     29707         1         0     29710         1         0
     29713         1         0     29716         1         0     29719         1         0
     29722         1         0     29725         1         0     29728         1         0
     29731         1         0     29734         1         0     29737         1         0
     29740         1         0     29743         1         0     29746         1         0
     29749         1         0     29752         1         0     29755         1         0
     29758         1         0     29761         1         0     29764         1         0
     29767         1         0     29770         1         0     29773         1         0
     29776         1         0     29779         1         0     29782         1         0
     29785         1         0     29788         1         0     29791         1         0
     29794         1         0     29797         1         0     29800         1         0
     29803         1         0     29806         1         0     29809         1         0
     29812         1         0     29815         1         0     29818         1         0
     29821         1         0     29824         1         0     29827         1         0
     29830         1         0     29833         1         0     29836         1         0
     29839         1         0     29842         1         0     29845         1         0
     29848         1         0     29851         1         0     29854         1         0
     29857         1         0     29860         1         0     29863         1         0
     29866         1         0     29869         1         0     29872         1         0
     29875         1         0     29878         1         0     29881         1         0
     29884         1         0     29887         1         0     29890         1         0
     29893         1         0     29896         1         0     29899         1         0
     29902         1         0     29905         1         0     29908         1         0
     29911         1         0     29914         1         0     29917         1         0
     29920         1         0     29923         1         0     29926         1         0
     29929         1         0     29932         1         0     29935         1         0
     29938         1         0     29941         1         0     29944         1         0
     29947         1         0     29950         1         0     29953         1         0
     29956         1         0     29959         1         0     29962         1         0
     29965         1         0     29968         1         0     29971         1         0
     29974         1         0     29977         1         0     29980         1         0
     29983         1         0     29986         1         0     29989         1         0
     29992         1         0     29995         1         0     29998         1         0
     30001         1         0     30004         1         0     30007         1         0
     30010         1         0     30013         1         0     30016         1         0
     30019         1         0     30022         1         0     30025         1         0
     30028         1         0     30031         1         0     30034         1         0
     30037         1         0     30040         1         0     30043         1         0
     30046         1         0     30049         1         0     30052         1         0
     30055         1         0     30058         1         0     30061         1         0
     30064         1         0     30067         1         0     30070         1         0
     30073         1         0     30076         1         0     30079         1         0
     30082         1         0     30085         1         0     30088         1         0
     30091         1         0     30094         1         0     30097         1         0
     30100         1         0     30103         1         0     30106         1         0
     30109         1         0     30112         1         0     30115         1         0
     30118         1         0     30121         1         0     30124         1         0
     30127         1         0     30130         1         0     30133         1         0
     30136         1         0     30139         1         0     30142         1         0
     30145         1         0     30148         1         0     30151         1         0
     30154         1         0     30157         1         0     30160         1         0
     30163         1         0     30166         1         0     30169         1         0
     30172         1         0     30175         1         0     30178         1         0
     30181         1         0     30184         1         0     30187         1         0
     30190         1         0     30193         1         0     30196         1         0
     30199         1         0     30202         1         0     30205         1         0
     30208         1         0     30211         1         0     30214         1         0
     30217         1         0     30220         1         0     30223         1         0
     30226         1         0     30229         1         0     30232         1         0
     30235         1         0     30238         1         0     30241         1         0
     30244         1         0     30247         1         0     30250         1         0
     30253         1         0     30256         1         0     30259         1         0
     30262         1         0     30265         1         0     30268         1         0
     30271         1         0     30274         1         0     30277         1         0
     30280         1         0     30283         1         0     30286         1         0
     30289         1         0     30292         1         0     30295         1         0
     30298         1         0     30301         1         0     30304         1         0
     30307         1         0     30310         1         0     30313         1         0
     30316         1         0     30319         1         0     30322         1         0
     30325         1         0     30328         1         0     30331         1         0
     30334         1         0     30337         1         0     30340         1         0
     30343         1         0     30346         1         0     30349         1         0
     30352         1         0     30355         1         0     30358         1         0
     30361         1         0     30364         1         0     30367         1         0
     30370         1         0     30373         1         0     30376         1         0
     30379         1         0     30382         1         0     30385         1         0
     30388         1         0     30391         1         0     30394         1         0
     30397         1         0     30400         1         0     30403         1         0
     30406         1         0     30409         1         0     30412         1         0
     30415         1         0     30418         1         0     30421         1         0
     30424         1         0     30427         1         0     30430         1         0
     30433         1         0     30436         1         0     30439         1         0
     30442         1         0     30445         1         0     30448         1         0
     30451         1         0     30454         1         0     30457         1         0
     30460         1         0     30463         1         0     30466         1         0
     30469         1         0     30472         1         0     30475         1         0
     30478         1         0     30481         1         0     30484         1         0
     30487         1         0     30490         1         0     30493         1         0
     30496         1         0     30499         1         0     30502         1         0
     30505         1         0     30508         1         0     30511         1         0
     30514         1         0     30517         1         0     30520         1         0
     30523         1         0     30526         1         0     30529         1         0
     30532         1         0     30535         1         0     30538         1         0
     30541         1         0     30544         1         0     30547         1         0
     30550         1         0     30553         1         0     30556         1         0
     30559         1         0     30562         1         0     30565         1         0
     30568         1         0     30571         1         0     30574         1         0
     30577         1         0     30580         1         0     30583         1         0
     30586         1         0     30589         1         0     30592         1         0
     30595         1         0     30598         1         0     30601         1         0
     30604         1         0     30607         1         0     30610         1         0
     30613         1         0     30616         1         0     30619         1         0
     30622         1         0     30625         1         0     30628         1         0
     30631         1         0     30634         1         0     30637         1         0
     30640         1         0     30643         1         0     30646         1         0
     30649         1         0     30652         1         0     30655         1         0
     30658         1         0     30661         1         0     30664         1         0
     30667         1         0     30670         1         0     30673         1         0
     30676         1         0     30679         1         0     30682         1         0
     30685         1         0     30688         1         0     30691         1         0
     30694         1         0     30697         1         0     30700         1         0
     30703         1         0     30706         1         0     30709         1         0
     30712         1         0     30715         1         0     30718         1         0
     30721         1         0     30724         1         0     30727         1         0
     30730         1         0     30733         1         0     30736         1         0
     30739         1         0     30742         1         0     30745         1         0
     30748         1         0     30751         1         0     30754         1         0
     30757         1         0     30760         1         0     30763         1         0
     30766         1         0     30769         1         0     30772         1         0
     30775         1         0     30778         1         0     30781         1         0
     30784         1         0     30787         1         0     30790         1         0
     30793         1         0     30796         1         0     30799         1         0
     30802         1         0     30805         1         0     30808         1         0
     30811         1         0     30814         1         0     30817         1         0
     30820         1         0     30823         1         0     30826         1         0
     30829         1         0     30832         1         0     30835         1         0
     30838         1         0     30841         1         0     30844         1         0
     30847         1         0     30850         1         0     30853         1         0
     30856         1         0     30859         1         0     30862         1         0
     30865         1         0     30868         1         0     30871         1         0
     30874         1         0     30877         1         0     30880         1         0
     30883         1         0     30886         1         0     30889         1         0
     30892         1         0     30895         1         0     30898         1         0
     30901         1         0     30904         1         0     30907         1         0
     30910         1         0     30913         1         0     30916         1         0
     30919         1         0     30922         1         0     30925         1         0
     30928         1         0     30931         1         0     30934         1         0
     30937         1         0     30940         1         0     30943         1         0
     30946         1         0     30949         1         0     30952         1         0
     30955         1         0     30958         1         0     30961         1         0
     30964         1         0     30967         1         0     30970         1         0
     30973         1         0     30976         1         0     30979         1         0
     30982         1         0     30985         1         0     30988         1         0
     30991         1         0     30994         1         0     30997         1         0
     31000         1         0     31003         1         0     31006         1         0
     31009         1         0     31012         1         0     31015         1         0
     31018         1         0     31021         1         0     31024         1         0
     31027         1         0     31030         1         0     31033         1         0
     31036         1         0     31039         1         0     31042         1         0
     31045         1         0     31048         1         0     31051         1         0
     31054         1         0     31057         1         0     31060         1         0
     31063         1         0     31066         1         0     31069         1         0
     31072         1         0     31075         1         0     31078         1         0
     31081         1         0     31084         1         0     31087         1         0
     31090         1         0     31093         1         0     31096         1         0
     31099         1         0     31102         1         0     31105         1         0
     31108         1         0     31111         1         0     31114         1         0
     31117         1         0     31120         1         0     31123         1         0
     31126         1         0     31129         1         0     31132         1         0
     31135         1         0     31138         1         0     31141         1         0
     31144         1         0     31147         1         0     31150         1         0
     31153         1         0     31156         1         0     31159         1         0
     31162         1         0     31165         1         0     31168         1         0
     31171         1         0     31174         1         0     31177         1         0
     31180         1         0     31183         1         0     31186         1         0
     31189         1         0     31192         1         0     31195         1         0
     31198         1         0     31201         1         0     31204         1         0
     31207         1         0     31210         1         0     31213         1         0
     31216         1         0     31219         1         0     31222         1         0
     31225         1         0     31228         1         0     31231         1         0
     31234         1         0     31237         1         0     31240         1         0
     31243         1         0     31246         1         0     31249         1         0
     31252         1         0     31255         1         0     31258         1         0
     31261         1         0     31264         1         0     31267         1         0
     31270         1         0     31273         1         0     31276         1         0
     31279         1         0     31282         1         0     31285         1         0
     31288         1         0     31291         1         0     31294         1         0
     31297         1         0     31300         1         0     31303         1         0
     31306         1         0     31309         1         0     31312         1         0
     31315         1         0     31318         1         0     31321         1         0
     31324         1         0     31327         1         0     31330         1         0
     31333         1         0     31336         1         0     31339         1         0
     31342         1         0     31345         1         0     31348         1         0
     31351         1         0     31354         1         0     31357         1         0
     31360         1         0     31363         1         0     31366         1         0
     31369         1         0     31372         1         0     31375         1         0
     31378         1         0     31381         1         0     31384         1         0
     31387         1         0     31390         1         0     31393         1         0
     31396         1         0     31399         1         0     31402         1         0
     31405         1         0     31408         1         0     31411         1         0
     31414         1         0     31417         1         0     31420         1         0
     31423         1         0     31426         1         0     31429         1         0
     31432         1         0     31435         1         0     31438         1         0
     31441         1         0     31444         1         0     31447         1         0
     31450         1         0     31453         1         0     31456         1         0
     31459         1         0     31462         1         0     31465         1         0
     31468         1         0     31471         1         0     31474         1         0
     31477         1         0     31480         1         0     31483         1         0
     31486         1         0     31489         1         0     31492         1         0
     31495         1         0     31498         1         0     31501         1         0
     31504         1         0     31507         1         0     31510         1         0
     31513         1         0     31516         1         0     31519         1         0
     31522         1         0     31525         1         0     31528         1         0
     31531         1         0     31534         1         0     31537         1         0
     31540         1         0     31543         1         0     31546         1         0
     31549         1         0     31552         1         0     31555         1         0
     31558         1         0     31561         1         0     31564         1         0
     31567         1         0     31570         1         0     31573         1         0
     31576         1         0     31579         1         0     31582         1         0
     31585         1         0     31588         1         0     31591         1         0
     31594         1         0     31597         1         0     31600         1         0
     31603         1         0     31606         1         0     31609         1         0
     31612         1         0     31615         1         0     31618         1         0
     31621         1         0     31624         1         0     31627         1         0
     31630         1         0     31633         1         0     31636         1         0
     31639         1         0     31642         1         0     31645         1         0
     31648         1         0     31651         1         0     31654         1         0
     31657         1         0     31660         1         0     31663         1         0
     31666         1         0     31669         1         0     31672         1         0
     31675         1         0     31678         1         0     31681         1         0
     31684         1         0     31687         1         0     31690         1         0
     31693         1         0     31696         1         0     31699         1         0
     31702         1         0     31705         1         0     31708         1         0
     31711         1         0     31714         1         0     31717         1         0
     31720         1         0     31723         1         0     31726         1         0
     31729         1         0     31732         1         0     31735         1         0
     31738         1         0     31741         1         0     31744         1         0
     31747         1         0     31750         1         0     31753         1         0
     31756         1         0     31759         1         0     31762         1         0
     31765         1         0     31768         1         0     31771         1         0
     31774         1         0     31777         1         0     31780         1         0
     31783         1         0     31786         1         0     31789         1         0
     31792         1         0     31795         1         0     31798         1         0
     31801         1         0     31804         1         0     31807         1         0
     31810         1         0     31813         1         0     31816         1         0
     31819         1         0     31822         1         0     31825         1         0
     31828         1         0     31831         1         0     31834         1         0
     31837         1         0     31840         1         0     31843         1         0
     31846         1         0     31849         1         0     31852         1         0
     31855         1         0     31858         1         0     31861         1         0
     31864         1         0     31867         1         0     31870         1         0
     31873         1         0     31876         1         0     31879         1         0
     31882         1         0     31885         1         0     31888         1         0
     31891         1         0     31894         1         0     31897         1         0
     31900         1         0     31903         1         0     31906         1         0
     31909         1         0     31912         1         0     31915         1         0
     31918         1         0     31921         1         0     31924         1         0
     31927         1         0     31930         1         0     31933         1         0
     31936         1         0     31939         1         0     31942         1         0
     31945         1         0     31948         1         0     31951         1         0
     31954         1         0     31957         1         0     31960         1         0
     31963         1         0     31966         1         0     31969         1         0
     31972         1         0     31975         1         0     31978         1         0
     31981         1         0     31984         1         0     31987         1         0
     31990         1         0     31993         1         0     31996         1         0
     31999         1         0     32002         1         0     32005         1         0
     32008         1         0     32011         1         0     32014         1         0
     32017         1         0     32020         1         0     32023         1         0
     32026         1         0     32029         1         0     32032         1         0
     32035         1         0     32038         1         0     32041         1         0
     32044         1         0     32047         1         0     32050         1         0
     32053         1         0     32056         1         0     32059         1         0
     32062         1         0     32065         1         0     32068         1         0
     32071         1         0     32074         1         0     32077         1         0
     32080         1         0     32083         1         0     32086         1         0
     32089         1         0     32092         1         0     32095         1         0
     32098         1         0     32101         1         0     32104         1         0
     32107         1         0     32110         1         0     32113         1         0
     32116         1         0     32119         1         0     32122         1         0
     32125         1         0     32128         1         0     32131         1         0
     32134         1         0     32137         1         0     32140         1         0
     32143         1         0     32146         1         0     32149         1         0
     32152         1         0     32155         1         0     32158         1         0
     32161         1         0     32164         1         0     32167         1         0
     32170         1         0     32173         1         0     32176         1         0
     32179         1         0     32182         1         0     32185         1         0
     32188         1         0     32191         1         0     32194         1         0
     32197         1         0     32200         1         0     32203         1         0
     32206         1         0     32209         1         0     32212         1         0
     32215         1         0     32218         1         0     32221         1         0
     32224         1         0     32227         1         0     32230         1         0
     32233         1         0     32236         1         0     32239         1         0
     32242         1         0     32245         1         0     32248         1         0
     32251         1         0     32254         1         0     32257         1         0
     32260         1         0     32263         1         0     32266         1         0
     32269         1         0     32272         1         0     32275         1         0
     32278         1         0     32281         1         0     32284         1         0
     32287         1         0     32290         1         0     32293         1         0
     32296         1         0     32299         1         0     32302         1         0
     32305         1         0     32308         1         0     32311         1         0
     32314         1         0     32317         1         0     32320         1         0
     32323         1         0     32326         1         0     32329         1         0
     32332         1         0     32335         1         0     32338         1         0
     32341         1         0     32344         1         0     32347         1         0
     32350         1         0     32353         1         0     32356         1         0
     32359         1         0     32362         1         0     32365         1         0
     32368         1         0     32371         1         0     32374         1         0
     32377         1         0     32380         1         0     32383         1         0
     32386         1         0     32389         1         0     32392         1         0
     32395         1         0     32398         1         0     32401         1         0
     32404         1         0     32407         1         0     32410         1         0
     32413         1         0     32416         1         0     32419         1         0
     32422         1         0     32425         1         0     32428         1         0
     32431         1         0     32434         1         0     32437         1         0
     32440         1         0     32443         1         0     32446         1         0
     32449         1         0     32452         1         0     32455         1         0
     32458         1         0     32461         1         0     32464         1         0
     32467         1         0     32470         1         0     32473         1         0
     32476         1         0     32479         1         0     32482         1         0
     32485         1         0     32488         1         0     32491         1         0
     32494         1         0     32497         1         0     32500         1         0
     32503         1         0     32506         1         0     32509         1         0
     32512         1         0     32515         1         0     32518         1         0
     32521         1         0     32524         1         0     32527         1         0
     32530         1         0     32533         1         0     32536         1         0
     32539         1         0     32542         1         0     32545         1         0
     32548         1         0     32551         1         0     32554         1         0
     32557         1         0     32560         1         0     32563         1         0
     32566         1         0     32569         1         0     32572         1         0
     32575         1         0     32578         1         0     32581         1         0
     32584         1         0     32587         1         0     32590         1         0
     32593         1         0     32596         1         0     32599         1         0
     32602         1         0     32605         1         0     32608         1         0
     32611         1         0     32614         1         0     32617         1         0
     32620         1         0     32623         1         0     32626         1         0
     32629         1         0     32632         1         0     32635         1         0
     32638         1         0     32641         1         0     32644         1         0
     32647         1         0     32650         1         0     32653         1         0
     32656         1         0     32659         1         0     32662         1         0
     32665         1         0     32668         1         0     32671         1         0
     32674         1         0     32677         1         0     32680         1         0
     32683         1         0     32686         1         0     32689         1         0
     32692         1         0     32695         1         0     32698         1         0
     32701         1         0     32704         1         0     32707         1         0
     32710         1         0     32713         1         0     32716         1         0
     32719         1         0     32722         1         0     32725         1         0
     32728         1         0     32731         1         0     32734         1         0
     32737         1         0     32740         1         0     32743         1         0
     32746         1         0     32749         1         0     32752         1         0
     32755         1         0     32758         1         0     32761         1         0
     32764         1         0     32767         1         0     32770         1         0
     32773         1         0     32776         1         0     32779         1         0
     32782         1         0     32785         1         0     32788         1         0
     32791         1         0     32794         1         0     32797         1         0
     32800         1         0     32803         1         0     32806         1         0
     32809         1         0     32812         1         0     32815         1         0
     32818         1         0     32821         1         0     32824         1         0
     32827         1         0     32830         1         0     32833         1         0
     32836         1         0     32839         1         0     32842         1         0
     32845         1         0     32848         1         0     32851         1         0
     32854         1         0     32857         1         0     32860         1         0
     32863         1         0     32866         1         0     32869         1         0
     32872         1         0     32875         1         0     32878         1         0
     32881         1         0     32884         1         0     32887         1         0
     32890         1         0     32893         1         0     32896         1         0
     32899         1         0     32902         1         0     32905         1         0
     32908         1         0     32911         1         0     32914         1         0
     32917         1         0     32920         1         0     32923         1         0
     32926         1         0     32929         1         0     32932         1         0
     32935         1         0     32938         1         0     32941         1         0
     32944         1         0     32947         1         0     32950         1         0
     32953         1         0     32956         1         0     32959         1         0
     32962         1         0     32965         1         0     32968         1         0
     32971         1         0     32974         1         0     32977         1         0
     32980         1         0     32983         1         0     32986         1         0
     32989         1         0     32992         1         0     32995         1         0
     32998         1         0     33001         1         0     33004         1         0
     33007         1         0     33010         1         0     33013         1         0
     33016         1         0     33019         1         0     33022         1         0
     33025         1         0     33028         1         0     33031         1         0
     33034         1         0     33037         1         0     33040         1         0
     33043         1         0     33046         1         0     33049         1         0
     33052         1         0     33055         1         0     33058         1         0
     33061         1         0     33064         1         0     33067         1         0
     33070         1         0     33073         1         0     33076         1         0
     33079         1         0     33082         1         0     33085         1         0
     33088         1         0     33091         1         0     33094         1         0
     33097         1         0     33100         1         0     33103         1         0
     33106         1         0     33109         1         0     33112         1         0
     33115         1         0     33118         1         0     33121         1         0
     33124         1         0     33127         1         0     33130         1         0
     33133         1         0     33136         1         0     33139         1         0
     33142         1         0     33145         1         0     33148         1         0
     33151         1         0     33154         1         0     33157         1         0
     33160         1         0     33163         1         0     33166         1         0
     33169         1         0     33172         1         0     33175         1         0
     33178         1         0     33181         1         0     33184         1         0
     33187         1         0     33190         1         0     33193         1         0
     33196         1         0     33199         1         0     33202         1         0
     33205         1         0     33208         1         0     33211         1         0
     33214         1         0     33217         1         0     33220         1         0
     33223         1         0     33226         1         0     33229         1         0
     33232         1         0     33235         1         0     33238         1         0
     33241         1         0     33244         1         0     33247         1         0
     33250         1         0     33253         1         0     33256         1         0
     33259         1         0     33262         1         0     33265         1         0
     33268         1         0     33271         1         0     33274         1         0
     33277         1         0     33280         1         0     33283         1         0
     33286         1         0     33289         1         0     33292         1         0
     33295         1         0     33298         1         0     33301         1         0
     33304         1         0     33307         1         0     33310         1         0
     33313         1         0     33316         1         0     33319         1         0
     33322         1         0     33325         1         0     33328         1         0
     33331         1         0     33334         1         0     33337         1         0
     33340         1         0     33343         1         0     33346         1         0
     33349         1         0     33352         1         0     33355         1         0
     33358         1         0     33361         1         0     33364         1         0
     33367         1         0     33370         1         0     33373         1         0
     33376         1         0     33379         1         0     33382         1         0
     33385         1         0     33388         1         0     33391         1         0
     33394         1         0     33397         1         0     33400         1         0
     33403         1         0     33406         1         0     33409         1         0
     33412         1         0     33415         1         0     33418         1         0
     33421         1         0     33424         1         0     33427         1         0
     33430         1         0     33433         1         0     33436         1         0
     33439         1         0     33442         1         0     33445         1         0
     33448         1         0     33451         1         0     33454         1         0
     33457         1         0     33460         1         0     33463         1         0
     33466         1         0     33469         1         0     33472         1         0
     33475         1         0     33478         1         0     33481         1         0
     33484         1         0     33487         1         0     33490         1         0
     33493         1         0     33496         1         0     33499         1         0
     33502         1         0     33505         1         0     33508         1         0
     33511         1         0     33514         1         0     33517         1         0
     33520         1         0     33523         1         0     33526         1         0
     33529         1         0     33532         1         0     33535         1         0
     33538         1         0     33541         1         0     33544         1         0
     33547         1         0     33550         1         0     33553         1         0
     33556         1         0     33559         1         0     33562         1         0
     33565         1         0     33568         1         0     33571         1         0
     33574         1         0     33577         1         0     33580         1         0
     33583         1         0     33586         1         0     33589         1         0
     33592         1         0     33595         1         0     33598         1         0
     33601         1         0     33604         1         0     33607         1         0
     33610         1         0     33613         1         0     33616         1         0
     33619         1         0     33622         1         0     33625         1         0
     33628         1         0     33631         1         0     33634         1         0
     33637         1         0     33640         1         0     33643         1         0
     33646         1         0     33649         1         0     33652         1         0
     33655         1         0     33658         1         0     33661         1         0
     33664         1         0     33667         1         0     33670         1         0
     33673         1         0     33676         1         0     33679         1         0
     33682         1         0     33685         1         0     33688         1         0
     33691         1         0     33694         1         0     33697         1         0
     33700         1         0     33703         1         0     33706         1         0
     33709         1         0     33712         1         0     33715         1         0
     33718         1         0     33721         1         0     33724         1         0
     33727         1         0     33730         1         0     33733         1         0
     33736         1         0     33739         1         0     33742         1         0
     33745         1         0     33748         1         0     33751         1         0
     33754         1         0     33757         1         0     33760         1         0
     33763         1         0     33766         1         0     33769         1         0
     33772         1         0     33775         1         0     33778         1         0
     33781         1         0     33784         1         0     33787         1         0
     33790         1         0     33793         1         0     33796         1         0
     33799         1         0     33802         1         0     33805         1         0
     33808         1         0     33811         1         0     33814         1         0
     33817         1         0     33820         1         0     33823         1         0
     33826         1         0     33829         1         0     33832         1         0
     33835         1         0     33838         1         0     33841         1         0
     33844         1         0     33847         1         0     33850         1         0
     33853         1         0     33856         1         0     33859         1         0
     33862         1         0     33865         1         0     33868         1         0
     33871         1         0     33874         1         0     33877         1         0
     33880         1         0     33883         1         0     33886         1         0
     33889         1         0     33892         1         0     33895         1         0
     33898         1         0     33901         1         0     33904         1         0
     33907         1         0     33910         1         0     33913         1         0
     33916         1         0     33919         1         0     33922         1         0
     33925         1         0     33928         1         0     33931         1         0
     33934         1         0     33937         1         0     33940         1         0
     33943         1         0     33946         1         0     33949         1         0
     33952         1         0     33955         1         0     33958         1         0
     33961         1         0     33964         1         0     33967         1         0
     33970         1         0     33973         1         0     33976         1         0
     33979         1         0     33982         1         0     33985         1         0
     33988         1         0     33991         1         0     33994         1         0
     33997         1         0     34000         1         0     34003         1         0
     34006         1         0     34009         1         0     34012         1         0
     34015         1         0     34018         1         0     34021         1         0
     34024         1         0     34027         1         0     34030         1         0
     34033         1         0     34036         1         0     34039         1         0
     34042         1         0     34045         1         0     34048         1         0
     34051         1         0     34054         1         0     34057         1         0
     34060         1         0     34063         1         0     34066         1         0
     34069         1         0     34072         1         0     34075         1         0
     34078         1         0     34081         1         0     34084         1         0
     34087         1         0     34090         1         0     34093         1         0
     34096         1         0     34099         1         0     34102         1         0
     34105         1         0     34108         1         0     34111         1         0
     34114         1         0     34117         1         0     34120         1         0
     34123         1         0     34126         1         0     34129         1         0
     34132         1         0     34135         1         0     34138         1         0
     34141         1         0     34144         1         0     34147         1         0
     34150         1         0     34153         1         0     34156         1         0
     34159         1         0     34162         1         0     34165         1         0
     34168         1         0     34171         1         0     34174         1         0
     34177         1         0     34180         1         0     34183         1         0
     34186         1         0     34189         1         0     34192         1         0
     34195         1         0     34198         1         0     34201         1         0
     34204         1         0     34207         1         0     34210         1         0
     34213         1         0     34216         1         0     34219         1         0
     34222         1         0     34225         1         0     34228         1         0
     34231         1         0     34234         1         0     34237         1         0
     34240         1         0     34243         1         0     34246         1         0
     34249         1         0     34252         1         0     34255         1         0
     34258         1         0     34261         1         0     34264         1         0
     34267         1         0     34270         1         0     34273         1         0
     34276         1         0     34279         1         0     34282         1         0
     34285         1         0     34288         1         0     34291         1         0
     34294         1         0     34297         1         0     34300         1         0
     34303         1         0     34306         1         0     34309         1         0
     34312         1         0     34315         1         0     34318         1         0
     34321         1         0     34324         1         0     34327         1         0
     34330         1         0     34333         1         0     34336         1         0
     34339         1         0     34342         1         0     34345         1         0
     34348         1         0     34351         1         0     34354         1         0
     34357         1         0     34360         1         0     34363         1         0
     34366         1         0     34369         1         0     34372         1         0
     34375         1         0     34378         1         0     34381         1         0
     34384         1         0     34387         1         0     34390         1         0
     34393         1         0     34396         1         0     34399         1         0
     34402         1         0     34405         1         0     34408         1         0
     34411         1         0     34414         1         0     34417         1         0
     34420         1         0     34423         1         0     34426         1         0
     34429         1         0     34432         1         0     34435         1         0
     34438         1         0     34441         1         0     34444         1         0
     34447         1         0     34450         1         0     34453         1         0
     34456         1         0     34459         1         0     34462         1         0
     34465         1         0     34468         1         0     34471         1         0
     34474         1         0     34477         1         0     34480         1         0
     34483         1         0     34486         1         0     34489         1         0
     34492         1         0     34495         1         0     34498         1         0
     34501         1         0     34504         1         0     34507         1         0
     34510         1         0     34513         1         0     34516         1         0
     34519         1         0     34522         1         0     34525         1         0
     34528         1         0     34531         1         0     34534         1         0
     34537         1         0     34540         1         0     34543         1         0
     34546         1         0     34549         1         0     34552         1         0
     34555         1         0     34558         1         0     34561         1         0
     34564         1         0     34567         1         0     34570         1         0
     34573         1         0     34576         1         0     34579         1         0
     34582         1         0     34585         1         0     34588         1         0
     34591         1         0     34594         1         0     34597         1         0
     34600         1         0     34603         1         0     34606         1         0
     34609         1         0     34612         1         0     34615         1         0
     34618         1         0     34621         1         0     34624         1         0
     34627         1         0     34630         1         0     34633         1         0
     34636         1         0     34639         1         0     34642         1         0
     34645         1         0     34648         1         0     34651         1         0
     34654         1         0     34657         1         0     34660         1         0
     34663         1         0     34666         1         0     34669         1         0
     34672         1         0     34675         1         0     34678         1         0
     34681         1         0     34684         1         0     34687         1         0
     34690         1         0     34693         1         0     34696         1         0
     34699         1         0     34702         1         0     34705         1         0
     34708         1         0     34711         1         0     34714         1         0
     34717         1         0     34720         1         0     34723         1         0
     34726         1         0     34729         1         0     34732         1         0
     34735         1         0     34738         1         0     34741         1         0
     34744         1         0     34747         1         0     34750         1         0
     34753         1         0     34756         1         0     34759         1         0
     34762         1         0     34765         1         0     34768         1         0
     34771         1         0     34774         1         0     34777         1         0
     34780         1         0     34783         1         0     34786         1         0
     34789         1         0     34792         1         0     34795         1         0
     34798         1         0     34801         1         0     34804         1         0
     34807         1         0     34810         1         0     34813         1         0
     34816         1         0     34819         1         0     34822         1         0
     34825         1         0     34828         1         0     34831         1         0
     34834         1         0     34837         1         0     34840         1         0
     34843         1         0     34846         1         0     34849         1         0
     34852         1         0     34855         1         0     34858         1         0
     34861         1         0     34864         1         0     34867         1         0
     34870         1         0     34873         1         0     34876         1         0
     34879         1         0     34882         1         0     34885         1         0
     34888         1         0     34891         1         0     34894         1         0
     34897         1         0     34900         1         0     34903         1         0
     34906         1         0     34909         1         0     34912         1         0
     34915         1         0     34918         1         0     34921         1         0
     34924         1         0     34927         1         0     34930         1         0
     34933         1         0     34936         1         0     34939         1         0
     34942         1         0     34945         1         0     34948         1         0
     34951         1         0     34954         1         0     34957         1         0
     34960         1         0     34963         1         0     34966         1         0
     34969         1         0     34972         1         0     34975         1         0
     34978         1         0     34981         1         0     34984         1         0
     34987         1         0     34990         1         0     34993         1         0
     34996         1         0     34999         1         0     35002         1         0
     35005         1         0     35008         1         0     35011         1         0
     35014         1         0     35017         1         0     35020         1         0
     35023         1         0     35026         1         0     35029         1         0
     35032         1         0     35035         1         0     35038         1         0
     35041         1         0     35044         1         0     35047         1         0
     35050         1         0     35053         1         0     35056         1         0
     35059         1         0     35062         1         0     35065         1         0
     35068         1         0     35071         1         0     35074         1         0
     35077         1         0     35080         1         0     35083         1         0
     35086         1         0     35089         1         0     35092         1         0
     35095         1         0     35098         1         0     35101         1         0
     35104         1         0     35107         1         0     35110         1         0
     35113         1         0     35116         1         0     35119         1         0
     35122         1         0     35125         1         0     35128         1         0
     35131         1         0     35134         1         0     35137         1         0
     35140         1         0     35143         1         0     35146         1         0
     35149         1         0     35152         1         0     35155         1         0
     35158         1         0     35161         1         0     35164         1         0
     35167         1         0     35170         1         0     35173         1         0
     35176         1         0     35179         1         0     35182         1         0
     35185         1         0     35188         1         0     35191         1         0
     35194         1         0     35197         1         0     35200         1         0
     35203         1         0     35206         1         0     35209         1         0
     35212         1         0     35215         1         0     35218         1         0
     35221         1         0     35224         1         0     35227         1         0
     35230         1         0     35233         1         0     35236         1         0
     35239         1         0     35242         1         0     35245         1         0
     35248         1         0     35251         1         0     35254         1         0
     35257         1         0     35260         1         0     35263         1         0
     35266         1         0     35269         1         0     35272         1         0
     35275         1         0     35278         1         0     35281         1         0
     35284         1         0     35287         1         0     35290         1         0
     35293         1         0     35296         1         0     35299         1         0
     35302         1         0     35305         1         0     35308         1         0
     35311         1         0     35314         1         0     35317         1         0
     35320         1         0     35323         1         0     35326         1         0
     35329         1         0     35332         1         0     35335         1         0
     35338         1         0     35341         1         0     35344         1         0
     35347         1         0     35350         1         0     35353         1         0
     35356         1         0     35359         1         0     35362         1         0
     35365         1         0     35368         1         0     35371         1         0
     35374         1         0     35377         1         0     35380         1         0
     35383         1         0     35386         1         0     35389         1         0
     35392         1         0     35395         1         0     35398         1         0
     35401         1         0     35404         1         0     35407         1         0
     35410         1         0     35413         1         0     35416         1         0
     35419         1         0     35422         1         0     35425         1         0
     35428         1         0     35431         1         0     35434         1         0
     35437         1         0     35440         1         0     35443         1         0
     35446         1         0     35449         1         0     35452         1         0
     35455         1         0     35458         1         0     35461         1         0
     35464         1         0     35467         1         0     35470         1         0
     35473         1         0     35476         1         0     35479         1         0
     35482         1         0     35485         1         0     35488         1         0
     35491         1         0     35494         1         0     35497         1         0
     35500         1         0     35503         1         0     35506         1         0
     35509         1         0     35512         1         0     35515         1         0
     35518         1         0     35521         1         0     35524         1         0
     35527         1         0     35530         1         0     35533         1         0
     35536         1         0     35539         1         0     35542         1         0
     35545         1         0     35548         1         0     35551         1         0
     35554         1         0     35557         1         0     35560         1         0
     35563         1         0     35566         1         0     35569         1         0
     35572         1         0     35575         1         0     35578         1         0
     35581         1         0     35584         1         0     35587         1         0
     35590         1         0     35593         1         0     35596         1         0
     35599         1         0     35602         1         0     35605         1         0
     35608         1         0     35611         1         0     35614         1         0
     35617         1         0     35620         1         0     35623         1         0
     35626         1         0     35629         1         0     35632         1         0
     35635         1         0     35638         1         0     35641         1         0
     35644         1         0     35647         1         0     35650         1         0
     35653         1         0     35656         1         0     35659         1         0
     35662         1         0     35665         1         0     35668         1         0
     35671         1         0     35674         1         0     35677         1         0
     35680         1         0     35683         1         0     35686         1         0
     35689         1         0     35692         1         0     35695         1         0
     35698         1         0     35701         1         0     35704         1         0
     35707         1         0     35710         1         0     35713         1         0
     35716         1         0     35719         1         0     35722         1         0
     35725         1         0     35728         1         0     35731         1         0
     35734         1         0     35737         1         0     35740         1         0
     35743         1         0     35746         1         0     35749         1         0
     35752         1         0     35755         1         0     35758         1         0
     35761         1         0     35764         1         0     35767         1         0
     35770         1         0     35773         1         0     35776         1         0
     35779         1         0     35782         1         0     35785         1         0
     35788         1         0     35791         1         0     35794         1         0
     35797         1         0     35800         1         0     35803         1         0
     35806         1         0     35809         1         0     35812         1         0
     35815         1         0     35818         1         0     35821         1         0
     35824         1         0     35827         1         0     35830         1         0
     35833         1         0     35836         1         0     35839         1         0
     35842         1         0     35845         1         0     35848         1         0
     35851         1         0     35854         1         0     35857         1         0
     35860         1         0     35863         1         0     35866         1         0
     35869         1         0     35872         1         0     35875         1         0
     35878         1         0     35881         1         0     35884         1         0
     35887         1         0     35890         1         0     35893         1         0
     35896         1         0     35899         1         0     35902         1         0
     35905         1         0     35908         1         0     35911         1         0
     35914         1         0     35917         1         0     35920         1         0
     35923         1         0     35926         1         0     35929         1         0
     35932         1         0     35935         1         0     35938         1         0
     35941         1         0     35944         1         0     35947         1         0
     35950         1         0     35953         1         0     35956         1         0
     35959         1         0     35962         1         0     35965         1         0
     35968         1         0     35971         1         0     35974         1         0
     35977         1         0     35980         1         0     35983         1         0
     35986         1         0     35989         1         0     35992         1         0
     35995         1         0     35998         1         0     36001         1         0
     36004         1         0     36007         1         0     36010         1         0
     36013         1         0     36016         1         0     36019         1         0
     36022         1         0     36025         1         0     36028         1         0
     36031         1         0     36034         1         0     36037         1         0
     36040         1         0     36043         1         0     36046         1         0
     36049         1         0     36052         1         0     36055         1         0
     36058         1         0     36061         1         0     36064         1         0
     36067         1         0     36070         1         0     36073         1         0
     36076         1         0     36079         1         0     36082         1         0
     36085         1         0     36088         1         0     36091         1         0
     36094         1         0     36097         1         0     36100         1         0
     36103         1         0     36106         1         0     36109         1         0
     36112         1         0     36115         1         0     36118         1         0
     36121         1         0     36124         1         0     36127         1         0
     36130         1         0     36133         1         0     36136         1         0
     36139         1         0     36142         1         0     36145         1         0
     36148         1         0     36151         1         0     36154         1         0
     36157         1         0     36160         1         0     36163         1         0
     36166         1         0     36169         1         0     36172         1         0
     36175         1         0     36178         1         0     36181         1         0
     36184         1         0     36187         1         0     36190         1         0
     36193         1         0     36196         1         0     36199         1         0
     36202         1         0     36205         1         0     36208         1         0
     36211         1         0     36214         1         0     36217         1         0
     36220         1         0     36223         1         0     36226         1         0
     36229         1         0     36232         1         0     36235         1         0
     36238         1         0     36241         1         0     36244         1         0
     36247         1         0     36250         1         0     36253         1         0
     36256         1         0     36259         1         0     36262         1         0
     36265         1         0     36268         1         0     36271         1         0
     36274         1         0     36277         1         0     36280         1         0
     36283         1         0     36286         1         0     36289         1         0
     36292         1         0     36295         1         0     36298         1         0
     36301         1         0     36304         1         0     36307         1         0
     36310         1         0     36313         1         0     36316         1         0
     36319         1         0     36322         1         0     36325         1         0
     36328         1         0     36331         1         0     36334         1         0
     36337         1         0     36340         1         0     36343         1         0
     36346         1         0     36349         1         0     36352         1         0
     36355         1         0     36358         1         0     36361         1         0
     36364         1         0     36367         1         0     36370         1         0
     36373         1         0     36376         1         0     36379         1         0
     36382         1         0     36385         1         0     36388         1         0
     36391         1         0     36394         1         0     36397         1         0
     36400         1         0     36403         1         0     36406         1         0
     36409         1         0     36412         1         0     36415         1         0
     36418         1         0     36421         1         0     36424         1         0
     36427         1         0     36430         1         0     36433         1         0
     36436         1         0     36439         1         0     36442         1         0
     36445         1         0     36448         1         0     36451         1         0
     36454         1         0     36457         1         0     36460         1         0
     36463         1         0     36466         1         0     36469         1         0
     36472         1         0     36475         1         0     36478         1         0
     36481         1         0     36484         1         0     36487         1         0
     36490         1         0     36493         1         0     36496         1         0
     36499         1         0     36502         1         0     36505         1         0
     36508         1         0     36511         1         0     36514         1         0
     36517         1         0     36520         1         0     36523         1         0
     36526         1         0     36529         1         0     36532         1         0
     36535         1         0     36538         1         0     36541         1         0
     36544         1         0     36547         1         0     36550         1         0
     36553         1         0     36556         1         0     36559         1         0
     36562         1         0     36565         1         0     36568         1         0
     36571         1         0     36574         1         0     36577         1         0
     36580         1         0     36583         1         0     36586         1         0
     36589         1         0     36592         1         0     36595         1         0
     36598         1         0     36601         1         0     36604         1         0
     36607         1         0     36610         1         0     36613         1         0
     36616         1         0     36619         1         0     36622         1         0
     36625         1         0     36628         1         0     36631         1         0
     36634         1         0     36637         1         0     36640         1         0
     36643         1         0     36646         1         0     36649         1         0
     36652         1         0     36655         1         0     36658         1         0
     36661         1         0     36664         1         0     36667         1         0
     36670         1         0     36673         1         0     36676         1         0
     36679         1         0     36682         1         0     36685         1         0
     36688         1         0     36691         1         0     36694         1         0
     36697         1         0     36700         1         0     36703         1         0
     36706         1         0     36709         1         0     36712         1         0
     36715         1         0     36718         1         0     36721         1         0
     36724         1         0     36727         1         0     36730         1         0
     36733         1         0     36736         1         0     36739         1         0
     36742         1         0     36745         1         0     36748         1         0
     36751         1         0     36754         1         0     36757         1         0
     36760         1         0     36763         1         0     36766         1         0
     36769         1         0     36772         1         0     36775         1         0
     36778         1         0     36781         1         0     36784         1         0
     36787         1         0     36790         1         0     36793         1         0
     36796         1         0     36799         1         0     36802         1         0
     36805         1         0     36808         1         0     36811         1         0
     36814         1         0     36817         1         0     36820         1         0
     36823         1         0     36826         1         0     36829         1         0
     36832         1         0     36835         1         0     36838         1         0
     36841         1         0     36844         1         0     36847         1         0
     36850         1         0     36853         1         0     36856         1         0
     36859         1         0     36862         1         0     36865         1         0
     36868         1         0     36871         1         0     36874         1         0
     36877         1         0     36880         1         0     36883         1         0
     36886         1         0     36889         1         0     36892         1         0
     36895         1         0     36898         1         0     36901         1         0
     36904         1         0     36907         1         0     36910         1         0
     36913         1         0     36916         1         0     36919         1         0
     36922         1         0     36925         1         0     36928         1         0
     36931         1         0     36934         1         0     36937         1         0
     36940         1         0     36943         1         0     36946         1         0
     36949         1         0     36952         1         0     36955         1         0
     36958         1         0     36961         1         0     36964         1         0
     36967         1         0     36970         1         0     36973         1         0
     36976         1         0     36979         1         0     36982         1         0
     36985         1         0     36988         1         0     36991         1         0
     36994         1         0     36997         1         0     37000         1         0
     37003         1         0     37006         1         0     37009         1         0
     37012         1         0     37015         1         0     37018         1         0
     37021         1         0     37024         1         0     37027         1         0
     37030         1         0     37033         1         0     37036         1         0
     37039         1         0     37042         1         0     37045         1         0
     37048         1         0     37051         1         0     37054         1         0
     37057         1         0     37060         1         0     37063         1         0
     37066         1         0     37069         1         0     37072         1         0
     37075         1         0     37078         1         0     37081         1         0
     37084         1         0     37087         1         0     37090         1         0
     37093         1         0     37096         1         0     37099         1         0
     37102         1         0     37105         1         0     37108         1         0
     37111         1         0     37114         1         0     37117         1         0
     37120         1         0     37123         1         0     37126         1         0
     37129         1         0     37132         1         0     37135         1         0
     37138         1         0     37141         1         0     37144         1         0
     37147         1         0     37150         1         0     37153         1         0
     37156         1         0     37159         1         0     37162         1         0
     37165         1         0     37168         1         0     37171         1         0
     37174         1         0     37177         1         0     37180         1         0
     37183         1         0     37186         1         0     37189         1         0
     37192         1         0     37195         1         0     37198         1         0
     37201         1         0     37204         1         0     37207         1         0
     37210         1         0     37213         1         0     37216         1         0
     37219         1         0     37222         1         0     37225         1         0
     37228         1         0     37231         1         0     37234         1         0
     37237         1         0     37240         1         0     37243         1         0
     37246         1         0     37249         1         0     37252         1         0
     37255         1         0     37258         1         0     37261         1         0
     37264         1         0     37267         1         0     37270         1         0
     37273         1         0     37276         1         0     37279         1         0
     37282         1         0     37285         1         0     37288         1         0
     37291         1         0     37294         1         0     37297         1         0
     37300         1         0     37303         1         0     37306         1         0
     37309         1         0     37312         1         0     37315         1         0
     37318         1         0     37321         1         0     37324         1         0
     37327         1         0     37330         1         0     37333         1         0
     37336         1         0     37339         1         0     37342         1         0
     37345         1         0     37348         1         0     37351         1         0
     37354         1         0     37357         1         0     37360         1         0
     37363         1         0     37366         1         0     37369         1         0
     37372         1         0     37375         1         0     37378         1         0
     37381         1         0     37384         1         0     37387         1         0
     37390         1         0     37393         1         0     37396         1         0
     37399         1         0     37402         1         0     37405         1         0
     37408         1         0     37411         1         0     37414         1         0
     37417         1         0     37420         1         0     37423         1         0
     37426         1         0     37429         1         0     37432         1         0
     37435         1         0     37438         1         0     37441         1         0
     37444         1         0     37447         1         0     37450         1         0
     37453         1         0     37456         1         0     37459         1         0
     37462         1         0     37465         1         0     37468         1         0
     37471         1         0     37474         1         0     37477         1         0
     37480         1         0     37483         1         0     37486         1         0
     37489         1         0     37492         1         0     37495         1         0
     37498         1         0     37501         1         0     37504         1         0
     37507         1         0     37510         1         0     37513         1         0
     37516         1         0     37519         1         0     37522         1         0
     37525         1         0     37528         1         0     37531         1         0
     37534         1         0     37537         1         0     37540         1         0
     37543         1         0     37546         1         0     37549         1         0
     37552         1         0     37555         1         0     37558         1         0
     37561         1         0     37564         1         0     37567         1         0
     37570         1         0     37573         1         0     37576         1         0
     37579         1         0     37582         1         0     37585         1         0
     37588         1         0     37591         1         0     37594         1         0
     37597         1         0     37600         1         0     37603         1         0
     37606         1         0     37609         1         0     37612         1         0
     37615         1         0     37618         1         0     37621         1         0
     37624         1         0     37627         1         0     37630         1         0
     37633         1         0     37636         1         0     37639         1         0
     37642         1         0     37645         1         0     37648         1         0
     37651         1         0     37654         1         0     37657         1         0
     37660         1         0     37663         1         0     37666         1         0
     37669         1         0     37672         1         0     37675         1         0
     37678         1         0     37681         1         0     37684         1         0
     37687         1         0     37690         1         0     37693         1         0
     37696         1         0     37699         1         0     37702         1         0
     37705         1         0     37708         1         0     37711         1         0
     37714         1         0     37717         1         0     37720         1         0
     37723         1         0     37726         1         0     37729         1         0
     37732         1         0     37735         1         0     37738         1         0
     37741         1         0     37744         1         0     37747         1         0
     37750         1         0     37753         1         0     37756         1         0
     37759         1         0     37762         1         0     37765         1         0
     37768         1         0     37771         1         0     37774         1         0
     37777         1         0     37780         1         0     37783         1         0
     37786         1         0     37789         1         0     37792         1         0
     37795         1         0     37798         1         0     37801         1         0
     37804         1         0     37807         1         0     37810         1         0
     37813         1         0     37816         1         0     37819         1         0
     37822         1         0     37825         1         0     37828         1         0
     37831         1         0     37834         1         0     37837         1         0
     37840         1         0     37843         1         0     37846         1         0
     37849         1         0     37852         1         0     37855         1         0
     37858         1         0     37861         1         0     37864         1         0
     37867         1         0     37870         1         0     37873         1         0
     37876         1         0     37879         1         0     37882         1         0
     37885         1         0     37888         1         0     37891         1         0
     37894         1         0     37897         1         0     37900         1         0
     37903         1         0     37906         1         0     37909         1         0
     37912         1         0     37915         1         0     37918         1         0
     37921         1         0     37924         1         0     37927         1         0
     37930         1         0     37933         1         0     37936         1         0
     37939         1         0     37942         1         0     37945         1         0
     37948         1         0     37951         1         0     37954         1         0
     37957         1         0     37960         1         0     37963         1         0
     37966         1         0     37969         1         0     37972         1         0
     37975         1         0     37978         1         0     37981         1         0
     37984         1         0     37987         1         0     37990         1         0
     37993         1         0     37996         1         0     37999         1         0
     38002         1         0     38005         1         0     38008         1         0
     38011         1         0     38014         1         0     38017         1         0
     38020         1         0     38023         1         0     38026         1         0
     38029         1         0     38032         1         0     38035         1         0
     38038         1         0     38041         1         0     38044         1         0
     38047         1         0     38050         1         0     38053         1         0
     38056         1         0     38059         1         0     38062         1         0
     38065         1         0     38068         1         0     38071         1         0
     38074         1         0     38077         1         0     38080         1         0
     38083         1         0     38086         1         0     38089         1         0
     38092         1         0     38095         1         0     38098         1         0
     38101         1         0     38104         1         0     38107         1         0
     38110         1         0     38113         1         0     38116         1         0
     38119         1         0     38122         1         0     38125         1         0
     38128         1         0     38131         1         0     38134         1         0
     38137         1         0     38140         1         0     38143         1         0
     38146         1         0     38149         1         0     38152         1         0
     38155         1         0     38158         1         0     38161         1         0
     38164         1         0     38167         1         0     38170         1         0
     38173         1         0     38176         1         0     38179         1         0
     38182         1         0     38185         1         0     38188         1         0
     38191         1         0     38194         1         0     38197         1         0
     38200         1         0     38203         1         0     38206         1         0
     38209         1         0     38212         1         0     38215         1         0
     38218         1         0     38221         1         0     38224         1         0
     38227         1         0     38230         1         0     38233         1         0
     38236         1         0     38239         1         0     38242         1         0
     38245         1         0     38248         1         0     38251         1         0
     38254         1         0     38257         1         0     38260         1         0
     38263         1         0     38266         1         0     38269         1         0
     38272         1         0     38275         1         0     38278         1         0
     38281         1         0     38284         1         0     38287         1         0
     38290         1         0     38293         1         0     38296         1         0
     38299         1         0     38302         1         0     38305         1         0
     38308         1         0     38311         1         0     38314         1         0
     38317         1         0     38320         1         0     38323         1         0
     38326         1         0     38329         1         0     38332         1         0
     38335         1         0     38338         1         0     38341         1         0
     38344         1         0     38347         1         0     38350         1         0
     38353         1         0     38356         1         0     38359         1         0
     38362         1         0     38365         1         0     38368         1         0
     38371         1         0     38374         1         0     38377         1         0
     38380         1         0     38383         1         0     38386         1         0
     38389         1         0     38392         1         0     38395         1         0
     38398         1         0     38401         1         0     38404         1         0
     38407         1         0     38410         1         0     38413         1         0
     38416         1         0     38419         1         0     38422         1         0
     38425         1         0     38428         1         0     38431         1         0
     38434         1         0     38437         1         0     38440         1         0
     38443         1         0     38446         1         0     38449         1         0
     38452         1         0     38455         1         0     38458         1         0
     38461         1         0     38464         1         0     38467         1         0
     38470         1         0     38473         1         0     38476         1         0
     38479         1         0     38482         1         0     38485         1         0
     38488         1         0     38491         1         0     38494         1         0
     38497         1         0     38500         1         0     38503         1         0
     38506         1         0     38509         1         0     38512         1         0
     38515         1         0     38518         1         0     38521         1         0
     38524         1         0     38527         1         0     38530         1         0
     38533         1         0     38536         1         0     38539         1         0
     38542         1         0     38545         1         0     38548         1         0
     38551         1         0     38554         1         0     38557         1         0
     38560         1         0     38563         1         0     38566         1         0
     38569         1         0     38572         1         0     38575         1         0
     38578         1         0     38581         1         0     38584         1         0
     38587         1         0     38590         1         0     38593         1         0
     38596         1         0     38599         1         0     38602         1         0
     38605         1         0     38608         1         0     38611         1         0
     38614         1         0     38617         1         0     38620         1         0
     38623         1         0     38626         1         0     38629         1         0
     38632         1         0     38635         1         0     38638         1         0
     38641         1         0     38644         1         0     38647         1         0
     38650         1         0     38653         1         0     38656         1         0
     38659         1         0     38662         1         0     38665         1         0
     38668         1         0     38671         1         0     38674         1         0
     38677         1         0     38680         1         0     38683         1         0
     38686         1         0     38689         1         0     38692         1         0
     38695         1         0     38698         1         0     38701         1         0
     38704         1         0     38707         1         0     38710         1         0
     38713         1         0     38716         1         0     38719         1         0
     38722         1         0     38725         1         0     38728         1         0
     38731         1         0     38734         1         0     38737         1         0
     38740         1         0     38743         1         0     38746         1         0
     38749         1         0     38752         1         0     38755         1         0
     38758         1         0     38761         1         0     38764         1         0
     38767         1         0     38770         1         0     38773         1         0
     38776         1         0     38779         1         0     38782         1         0
     38785         1         0     38788         1         0     38791         1         0
     38794         1         0     38797         1         0     38800         1         0
     38803         1         0     38806         1         0     38809         1         0
     38812         1         0     38815         1         0     38818         1         0
     38821         1         0     38824         1         0     38827         1         0
     38830         1         0     38833         1         0     38836         1         0
     38839         1         0     38842         1         0     38845         1         0
     38848         1         0     38851         1         0     38854         1         0
     38857         1         0     38860         1         0     38863         1         0
     38866         1         0     38869         1         0     38872         1         0
     38875         1         0     38878         1         0     38881         1         0
     38884         1         0     38887         1         0     38890         1         0
     38893         1         0     38896         1         0     38899         1         0
     38902         1         0     38905         1         0     38908         1         0
     38911         1         0     38914         1         0     38917         1         0
     38920         1         0     38923         1         0     38926         1         0
     38929         1         0     38932         1         0     38935         1         0
     38938         1         0     38941         1         0     38944         1         0
     38947         1         0     38950         1         0     38953         1         0
     38956         1         0     38959         1         0     38962         1         0
     38965         1         0     38968         1         0     38971         1         0
     38974         1         0     38977         1         0     38980         1         0
     38983         1         0     38986         1         0     38989         1         0
     38992         1         0     38995         1         0     38998         1         0
     39001         1         0     39004         1         0     39007         1         0
     39010         1         0     39013         1         0     39016         1         0
     39019         1         0     39022         1         0     39025         1         0
     39028         1         0     39031         1         0     39034         1         0
     39037         1         0     39040         1         0     39043         1         0
     39046         1         0     39049         1         0     39052         1         0
     39055         1         0     39058         1         0     39061         1         0
     39064         1         0     39067         1         0     39070         1         0
     39073         1         0     39076         1         0     39079         1         0
     39082         1         0     39085         1         0     39088         1         0
     39091         1         0     39094         1         0     39097         1         0
     39100         1         0     39103         1         0     39106         1         0
     39109         1         0     39112         1         0     39115         1         0
     39118         1         0     39121         1         0     39124         1         0
     39127         1         0     39130         1         0     39133         1         0
     39136         1         0     39139         1         0     39142         1         0
     39145         1         0     39148         1         0     39151         1         0
     39154         1         0     39157         1         0     39160         1         0
     39163         1         0     39166         1         0     39169         1         0
     39172         1         0     39175         1         0     39178         1         0
     39181         1         0     39184         1         0     39187         1         0
     39190         1         0     39193         1         0     39196         1         0
     39199         1         0     39202         1         0     39205         1         0
     39208         1         0     39211         1         0     39214         1         0
     39217         1         0     39220         1         0     39223         1         0
     39226         1         0     39229         1         0     39232         1         0
     39235         1         0     39238         1         0     39241         1         0
     39244         1         0     39247         1         0     39250         1         0
     39253         1         0     39256         1         0     39259         1         0
     39262         1         0     39265         1         0     39268         1         0
     39271         1         0     39274         1         0     39277         1         0
     39280         1         0     39283         1         0     39286         1         0
     39289         1         0     39292         1         0     39295         1         0
     39298         1         0     39301         1         0     39304         1         0
     39307         1         0     39310         1         0     39313         1         0
     39316         1         0     39319         1         0     39322         1         0
     39325         1         0     39328         1         0     39331         1         0
     39334         1         0     39337         1         0     39340         1         0
     39343         1         0     39346         1         0     39349         1         0
     39352         1         0     39355         1         0     39358         1         0
     39361         1         0     39364         1         0     39367         1         0
     39370         1         0     39373         1         0     39376         1         0
     39379         1         0     39382         1         0     39385         1         0
     39388         1         0     39391         1         0     39394         1         0
     39397         1         0     39400         1         0     39403         1         0
     39406         1         0     39409         1         0     39412         1         0
     39415         1         0     39418         1         0     39421         1         0
     39424         1         0     39427         1         0     39430         1         0
     39433         1         0     39436         1         0     39439         1         0
     39442         1         0     39445         1         0     39448         1         0
     39451         1         0     39454         1         0     39457         1         0
     39460         1         0     39463         1         0     39466         1         0
     39469         1         0     39472         1         0     39475         1         0
     39478         1         0     39481         1         0     39484         1         0
     39487         1         0     39490         1         0     39493         1         0
     39496         1         0     39499         1         0     39502         1         0
     39505         1         0     39508         1         0     39511         1         0
     39514         1         0     39517         1         0     39520         1         0
     39523         1         0     39526         1         0     39529         1         0
     39532         1         0     39535         1         0     39538         1         0
     39541         1         0     39544         1         0     39547         1         0
     39550         1         0     39553         1         0     39556         1         0
     39559         1         0     39562         1         0     39565         1         0
     39568         1         0     39571         1         0     39574         1         0
     39577         1         0     39580         1         0     39583         1         0
     39586         1         0     39589         1         0     39592         1         0
     39595         1         0     39598         1         0     39601         1         0
     39604         1         0     39607         1         0     39610         1         0
     39613         1         0     39616         1         0     39619         1         0
     39622         1         0     39625         1         0     39628         1         0
     39631         1         0     39634         1         0     39637         1         0
     39640         1         0     39643         1         0     39646         1         0
     39649         1         0     39652         1         0     39655         1         0
     39658         1         0     39661         1         0     39664         1         0
     39667         1         0     39670         1         0     39673         1         0
     39676         1         0     39679         1         0     39682         1         0
     39685         1         0     39688         1         0     39691         1         0
     39694         1         0     39697         1         0     39700         1         0
     39703         1         0     39706         1         0     39709         1         0
     39712         1         0     39715         1         0     39718         1         0
     39721         1         0     39724         1         0     39727         1         0
     39730         1         0     39733         1         0     39736         1         0
     39739         1         0     39742         1         0     39745         1         0
     39748         1         0     39751         1         0     39754         1         0
     39757         1         0     39760         1         0     39763         1         0
     39766         1         0     39769         1         0     39772         1         0
     39775         1         0     39778         1         0     39781         1         0
     39784         1         0     39787         1         0     39790         1         0
     39793         1         0     39796         1         0     39799         1         0
     39802         1         0     39805         1         0     39808         1         0
     39811         1         0     39814         1         0     39817         1         0
     39820         1         0     39823         1         0     39826         1         0
     39829         1         0     39832         1         0     39835         1         0
     39838         1         0     39841         1         0     39844         1         0
     39847         1         0     39850         1         0     39853         1         0
     39856         1         0     39859         1         0     39862         1         0
     39865         1         0     39868         1         0     39871         1         0
     39874         1         0     39877         1         0     39880         1         0
     39883         1         0     39886         1         0     39889         1         0
     39892         1         0     39895         1         0     39898         1         0
     39901         1         0     39904         1         0     39907         1         0
     39910         1         0     39913         1         0     39916         1         0
     39919         1         0     39922         1         0     39925         1         0
     39928         1         0     39931         1         0     39934         1         0
     39937         1         0     39940         1         0     39943         1         0
     39946         1         0     39949         1         0     39952         1         0
     39955         1         0     39958         1         0     39961         1         0
     39964         1         0     39967         1         0     39970         1         0
     39973         1         0     39976         1         0     39979         1         0
     39982         1         0     39985         1         0     39988         1         0
     39991         1         0     39994         1         0     39997         1         0
     40000         1         0     40003         1         0     40006         1         0
     40009         1         0     40012         1         0     40015         1         0
     40018         1         0     40021         1         0     40024         1         0
     40027         1         0     40030         1         0     40033         1         0
     40036         1         0     40039         1         0     40042         1         0
     40045         1         0     40048         1         0     40051         1         0
     40054         1         0     40057         1         0     40060         1         0
     40063         1         0     40066         1         0     40069         1         0
     40072         1         0     40075         1         0     40078         1         0
     40081         1         0     40084         1         0     40087         1         0
     40090         1         0     40093         1         0     40096         1         0
     40099         1         0     40102         1         0     40105         1         0
     40108         1         0     40111         1         0     40114         1         0
     40117         1         0     40120         1         0     40123         1         0
     40126         1         0     40129         1         0     40132         1         0
     40135         1         0     40138         1         0     40141         1         0
     40144         1         0     40147         1         0     40150         1         0
     40153         1         0     40156         1         0     40159         1         0
     40162         1         0     40165         1         0     40168         1         0
     40171         1         0     40174         1         0     40177         1         0
     40180         1         0     40183         1         0     40186         1         0
     40189         1         0     40192         1         0     40195         1         0
     40198         1         0     40201         1         0     40204         1         0
     40207         1         0     40210         1         0     40213         1         0
     40216         1         0     40219         1         0     40222         1         0
     40225         1         0     40228         1         0     40231         1         0
     40234         1         0     40237         1         0     40240         1         0
     40243         1         0     40246         1         0     40249         1         0
     40252         1         0     40255         1         0     40258         1         0
     40261         1         0     40264         1         0     40267         1         0
     40270         1         0     40273         1         0     40276         1         0
     40279         1         0     40282         1         0     40285         1         0
     40288         1         0     40291         1         0     40294         1         0
     40297         1         0     40300         1         0     40303         1         0
     40306         1         0     40309         1         0     40312         1         0
     40315         1         0     40318         1         0     40321         1         0
     40324         1         0     40327         1         0     40330         1         0
     40333         1         0     40336         1         0     40339         1         0
     40342         1         0     40345         1         0     40348         1         0
     40351         1         0     40354         1         0     40357         1         0
     40360         1         0     40363         1         0     40366         1         0
     40369         1         0     40372         1         0     40375         1         0
     40378         1         0     40381         1         0     40384         1         0
     40387         1         0     40390         1         0     40393         1         0
     40396         1         0     40399         1         0     40402         1         0
     40405         1         0     40408         1         0     40411         1         0
     40414         1         0     40417         1         0     40420         1         0
     40423         1         0     40426         1         0     40429         1         0
     40432         1         0     40435         1         0     40438         1         0
     40441         1         0     40444         1         0     40447         1         0
     40450         1         0     40453         1         0     40456         1         0
     40459         1         0     40462         1         0     40465         1         0
     40468         1         0     40471         1         0     40474         1         0
     40477         1         0     40480         1         0     40483         1         0
     40486         1         0     40489         1         0     40492         1         0
     40495         1         0     40498         1         0     40501         1         0
     40504         1         0     40507         1         0     40510         1         0
     40513         1         0     40516         1         0     40519         1         0
     40522         1         0     40525         1         0     40528         1         0
     40531         1         0     40534         1         0     40537         1         0
     40540         1         0     40543         1         0     40546         1         0
     40549         1         0     40552         1         0     40555         1         0
     40558         1         0     40561         1         0     40564         1         0
     40567         1         0     40570         1         0     40573         1         0
     40576         1         0     40579         1         0     40582         1         0
     40585         1         0     40588         1         0     40591         1         0
     40594         1         0     40597         1         0     40600         1         0
     40603         1         0     40606         1         0     40609         1         0
     40612         1         0     40615         1         0     40618         1         0
     40621         1         0     40624         1         0     40627         1         0
     40630         1         0     40633         1         0     40636         1         0
     40639         1         0     40642         1         0     40645         1         0
     40648         1         0     40651         1         0     40654         1         0
     40657         1         0     40660         1         0     40663         1         0
     40666         1         0     40669         1         0     40672         1         0
     40675         1         0     40678         1         0     40681         1         0
     40684         1         0     40687         1         0     40690         1         0
     40693         1         0     40696         1         0     40699         1         0
     40702         1         0     40705         1         0     40708         1         0
     40711         1         0     40714         1         0     40717         1         0
     40720         1         0     40723         1         0     40726         1         0
     40729         1         0     40732         1         0     40735         1         0
     40738         1         0     40741         1         0     40744         1         0
     40747         1         0     40750         1         0     40753         1         0
     40756         1         0     40759         1         0     40762         1         0
     40765         1         0     40768         1         0     40771         1         0
     40774         1         0     40777         1         0     40780         1         0
     40783         1         0     40786         1         0     40789         1         0
     40792         1         0     40795         1         0     40798         1         0
     40801         1         0     40804         1         0     40807         1         0
     40810         1         0     40813         1         0     40816         1         0
     40819         1         0     40822         1         0     40825         1         0
     40828         1         0     40831         1         0     40834         1         0
     40837         1         0     40840         1         0     40843         1         0
     40846         1         0     40849         1         0     40852         1         0
     40855         1         0     40858         1         0     40861         1         0
     40864         1         0     40867         1         0     40870         1         0
     40873         1         0     40876         1         0     40879         1         0
     40882         1         0     40885         1         0     40888         1         0
     40891         1         0     40894         1         0     40897         1         0
     40900         1         0     40903         1         0     40906         1         0
     40909         1         0     40912         1         0     40915         1         0
     40918         1         0     40921         1         0     40924         1         0
     40927         1         0     40930         1         0     40933         1         0
     40936         1         0     40939         1         0     40942         1         0
     40945         1         0     40948         1         0     40951         1         0
     40954         1         0     40957         1         0     40960         1         0
     40963         1         0     40966         1         0     40969         1         0
     40972         1         0     40975         1         0     40978         1         0
     40981         1         0     40984         1         0     40987         1         0
     40990         1         0     40993         1         0     40996         1         0
     40999         1         0     41002         1         0     41005         1         0
     41008         1         0     41011         1         0     41014         1         0
     41017         1         0     41020         1         0     41023         1         0
     41026         1         0     41029         1         0     41032         1         0
     41035         1         0     41038         1         0     41041         1         0
     41044         1         0     41047         1         0     41050         1         0
     41053         1         0     41056         1         0     41059         1         0
     41062         1         0     41065         1         0     41068         1         0
     41071         1         0     41074         1         0     41077         1         0
     41080         1         0     41083         1         0     41086         1         0
     41089         1         0     41092         1         0     41095         1         0
     41098         1         0     41101         1         0     41104         1         0
     41107         1         0     41110         1         0     41113         1         0
     41116         1         0     41119         1         0     41122         1         0
     41125         1         0     41128         1         0     41131         1         0
     41134         1         0     41137         1         0     41140         1         0
     41143         1         0     41146         1         0     41149         1         0
     41152         1         0     41155         1         0     41158         1         0
     41161         1         0     41164         1         0     41167         1         0
     41170         1         0     41173         1         0     41176         1         0
     41179         1         0     41182         1         0     41185         1         0
     41188         1         0     41191         1         0     41194         1         0
     41197         1         0     41200         1         0     41203         1         0
     41206         1         0     41209         1         0     41212         1         0
     41215         1         0     41218         1         0     41221         1         0
     41224         1         0     41227         1         0     41230         1         0
     41233         1         0     41236         1         0     41239         1         0
     41242         1         0     41245         1         0     41248         1         0
     41251         1         0     41254         1         0     41257         1         0
     41260         1         0     41263         1         0     41266         1         0
     41269         1         0     41272         1         0     41275         1         0
     41278         1         0     41281         1         0     41284         1         0
     41287         1         0     41290         1         0     41293         1         0
     41296         1         0     41299         1         0     41302         1         0
     41305         1         0     41308         1         0     41311         1         0
     41314         1         0     41317         1         0     41320         1         0
     41323         1         0     41326         1         0     41329         1         0
     41332         1         0     41335         1         0     41338         1         0
     41341         1         0     41344         1         0     41347         1         0
     41350         1         0     41353         1         0     41356         1         0
     41359         1         0     41362         1         0     41365         1         0
     41368         1         0     41371         1         0     41374         1         0
     41377         1         0     41380         1         0     41383         1         0
     41386         1         0     41389         1         0     41392         1         0
     41395         1         0     41398         1         0     41401         1         0
     41404         1         0     41407         1         0     41410         1         0
     41413         1         0     41416         1         0     41419         1         0
     41422         1         0     41425         1         0     41428         1         0
     41431         1         0     41434         1         0     41437         1         0
     41440         1         0     41443         1         0     41446         1         0
     41449         1         0     41452         1         0     41455         1         0
     41458         1         0     41461         1         0     41464         1         0
     41467         1         0     41470         1         0     41473         1         0
     41476         1         0     41479         1         0     41482         1         0
     41485         1         0     41488         1         0     41491         1         0
     41494         1         0     41497         1         0     41500         1         0
     41503         1         0     41506         1         0     41509         1         0
     41512         1         0     41515         1         0     41518         1         0
     41521         1         0     41524         1         0     41527         1         0
     41530         1         0     41533         1         0     41536         1         0
     41539         1         0     41542         1         0     41545         1         0
     41548         1         0     41551         1         0     41554         1         0
     41557         1         0     41560         1         0     41563         1         0
     41566         1         0     41569         1         0     41572         1         0
     41575         1         0     41578         1         0     41581         1         0
     41584         1         0     41587         1         0     41590         1         0
     41593         1         0     41596         1         0     41599         1         0
     41602         1         0     41605         1         0     41608         1         0
     41611         1         0     41614         1         0     41617         1         0
     41620         1         0     41623         1         0     41626         1         0
     41629         1         0     41632         1         0     41635         1         0
     41638         1         0     41641         1         0     41644         1         0
     41647         1         0     41650         1         0     41653         1         0
     41656         1         0     41659         1         0     41662         1         0
     41665         1         0     41668         1         0     41671         1         0
     41674         1         0     41677         1         0     41680         1         0
     41683         1         0     41686         1         0     41689         1         0
     41692         1         0     41695         1         0     41698         1         0
     41701         1         0     41704         1         0     41707         1         0
     41710         1         0     41713         1         0     41716         1         0
     41719         1         0     41722         1         0     41725         1         0
     41728         1         0     41731         1         0     41734         1         0
     41737         1         0     41740         1         0     41743         1         0
     41746         1         0     41749         1         0     41752         1         0
     41755         1         0     41758         1         0     41761         1         0
     41764         1         0     41767         1         0     41770         1         0
     41773         1         0     41776         1         0     41779         1         0
     41782         1         0     41785         1         0     41788         1         0
     41791         1         0     41794         1         0     41797         1         0
     41800         1         0     41803         1         0     41806         1         0
     41809         1         0     41812         1         0     41815         1         0
     41818         1         0     41821         1         0     41824         1         0
     41827         1         0     41830         1         0     41833         1         0
     41836         1         0     41839         1         0     41842         1         0
     41845         1         0     41848         1         0     41851         1         0
     41854         1         0     41857         1         0     41860         1         0
     41863         1         0     41866         1         0     41869         1         0
     41872         1         0     41875         1         0     41878         1         0
     41881         1         0     41884         1         0     41887         1         0
     41890         1         0     41893         1         0     41896         1         0
     41899         1         0     41902         1         0     41905         1         0
     41908         1         0     41911         1         0     41914         1         0
     41917         1         0     41920         1         0     41923         1         0
     41926         1         0     41929         1         0     41932         1         0
     41935         1         0     41938         1         0     41941         1         0
     41944         1         0     41947         1         0     41950         1         0
     41953         1         0     41956         1         0     41959         1         0
     41962         1         0     41965         1         0     41968         1         0
     41971         1         0     41974         1         0     41977         1         0
     41980         1         0     41983         1         0     41986         1         0
     41989         1         0     41992         1         0     41995         1         0
     41998         1         0     42001         1         0     42004         1         0
     42007         1         0     42010         1         0     42013         1         0
     42016         1         0     42019         1         0     42022         1         0
     42025         1         0     42028         1         0     42031         1         0
     42034         1         0     42037         1         0     42040         1         0
     42043         1         0     42046         1         0     42049         1         0
     42052         1         0     42055         1         0     42058         1         0
     42061         1         0     42064         1         0     42067         1         0
     42070         1         0     42073         1         0     42076         1         0
     42079         1         0     42082         1         0     42085         1         0
     42088         1         0     42091         1         0     42094         1         0
     42097         1         0     42100         1         0     42103         1         0
     42106         1         0     42109         1         0     42112         1         0
     42115         1         0     42118         1         0     42121         1         0
     42124         1         0     42127         1         0     42130         1         0
     42133         1         0     42136         1         0     42139         1         0
     42142         1         0     42145         1         0     42148         1         0
     42151         1         0     42154         1         0     42157         1         0
     42160         1         0     42163         1         0     42166         1         0
     42169         1         0     42172         1         0     42175         1         0
     42178         1         0     42181         1         0     42184         1         0
     42187         1         0     42190         1         0     42193         1         0
     42196         1         0     42199         1         0     42202         1         0
     42205         1         0     42208         1         0     42211         1         0
     42214         1         0     42217         1         0     42220         1         0
     42223         1         0     42226         1         0     42229         1         0
     42232         1         0     42235         1         0     42238         1         0
     42241         1         0     42244         1         0     42247         1         0
     42250         1         0     42253         1         0     42256         1         0
     42259         1         0     42262         1         0     42265         1         0
     42268         1         0     42271         1         0     42274         1         0
     42277         1         0     42280         1         0     42283         1         0
     42286         1         0     42289         1         0     42292         1         0
     42295         1         0     42298         1         0     42301         1         0
     42304         1         0     42307         1         0     42310         1         0
     42313         1         0     42316         1         0     42319         1         0
     42322         1         0     42325         1         0     42328         1         0
     42331         1         0     42334         1         0     42337         1         0
     42340         1         0     42343         1         0     42346         1         0
     42349         1         0     42352         1         0     42355         1         0
     42358         1         0     42361         1         0     42364         1         0
     42367         1         0     42370         1         0     42373         1         0
     42376         1         0     42379         1         0     42382         1         0
     42385         1         0     42388         1         0     42391         1         0
     42394         1         0     42397         1         0     42400         1         0
     42403         1         0     42406         1         0     42409         1         0
     42412         1         0     42415         1         0     42418         1         0
     42421         1         0     42424         1         0     42427         1         0
     42430         1         0     42433         1         0     42436         1         0
     42439         1         0     42442         1         0     42445         1         0
     42448         1         0     42451         1         0     42454         1         0
     42457         1         0     42460         1         0     42463         1         0
     42466         1         0     42469         1         0     42472         1         0
     42475         1         0     42478         1         0     42481         1         0
     42484         1         0     42487         1         0     42490         1         0
     42493         1         0     42496         1         0     42499         1         0
     42502         1         0     42505         1         0     42508         1         0
     42511         1         0     42514         1         0     42517         1         0
     42520         1         0     42523         1         0     42526         1         0
     42529         1         0     42532         1         0     42535         1         0
     42538         1         0     42541         1         0     42544         1         0
     42547         1         0     42550         1         0     42553         1         0
     42556         1         0     42559         1         0     42562         1         0
     42565         1         0     42568         1         0     42571         1         0
     42574         1         0     42577         1         0     42580         1         0
     42583         1         0     42586         1         0     42589         1         0
     42592         1         0     42595         1         0     42598         1         0
     42601         1         0     42604         1         0     42607         1         0
     42610         1         0     42613         1         0     42616         1         0
     42619         1         0     42622         1         0     42625         1         0
     42628         1         0     42631         1         0     42634         1         0
     42637         1         0     42640         1         0     42643         1         0
     42646         1         0     42649         1         0     42652         1         0
     42655         1         0     42658         1         0     42661         1         0
     42664         1         0     42667         1         0     42670         1         0
     42673         1         0     42676         1         0     42679         1         0
     42682         1         0     42685         1         0     42688         1         0
     42691         1         0     42694         1         0     42697         1         0
     42700         1         0     42703         1         0     42706         1         0
     42709         1         0     42712         1         0     42715         1         0
     42718         1         0     42721         1         0     42724         1         0
     42727         1         0     42730         1         0     42733         1         0
     42736         1         0     42739         1         0     42742         1         0
     42745         1         0     42748         1         0     42751         1         0
     42754         1         0     42757         1         0     42760         1         0
     42763         1         0     42766         1         0     42769         1         0
     42772         1         0     42775         1         0     42778         1         0
     42781         1         0     42784         1         0     42787         1         0
     42790         1         0     42793         1         0     42796         1         0
     42799         1         0     42802         1         0     42805         1         0
     42808         1         0     42811         1         0     42814         1         0
     42817         1         0     42820         1         0     42823         1         0
     42826         1         0     42829         1         0     42832         1         0
     42835         1         0     42838         1         0     42841         1         0
     42844         1         0     42847         1         0     42850         1         0
     42853         1         0     42856         1         0     42859         1         0
     42862         1         0     42865         1         0     42868         1         0
     42871         1         0     42874         1         0     42877         1         0
     42880         1         0     42883         1         0     42886         1         0
     42889         1         0     42892         1         0     42895         1         0
     42898         1         0     42901         1         0     42904         1         0
     42907         1         0     42910         1         0     42913         1         0
     42916         1         0     42919         1         0     42922         1         0
     42925         1         0     42928         1         0     42931         1         0
     42934         1         0     42937         1         0     42940         1         0
     42943         1         0     42946         1         0     42949         1         0
     42952         1         0     42955         1         0     42958         1         0
     42961         1         0     42964         1         0     42967         1         0
     42970         1         0     42973         1         0     42976         1         0
     42979         1         0     42982         1         0     42985         1         0
     42988         1         0     42991         1         0     42994         1         0
     42997         1         0     43000         1         0     43003         1         0
     43006         1         0     43009         1         0     43012         1         0
     43015         1         0     43018         1         0     43021         1         0
     43024         1         0     43027         1         0     43030         1         0
     43033         1         0     43036         1         0     43039         1         0
     43042         1         0     43045         1         0     43048         1         0
     43051         1         0     43054         1         0     43057         1         0
     43060         1         0     43063         1         0     43066         1         0
     43069         1         0     43072         1         0     43075         1         0
     43078         1         0     43081         1         0     43084         1         0
     43087         1         0     43090         1         0     43093         1         0
     43096         1         0     43099         1         0     43102         1         0
     43105         1         0     43108         1         0     43111         1         0
     43114         1         0     43117         1         0     43120         1         0
     43123         1         0     43126         1         0     43129         1         0
     43132         1         0     43135         1         0     43138         1         0
     43141         1         0     43144         1         0     43147         1         0
     43150         1         0     43153         1         0     43156         1         0
     43159         1         0     43162         1         0     43165         1         0
     43168         1         0     43171         1         0     43174         1         0
     43177         1         0     43180         1         0     43183         1         0
     43186         1         0     43189         1         0     43192         1         0
     43195         1         0     43198         1         0     43201         1         0
     43204         1         0     43207         1         0     43210         1         0
     43213         1         0     43216         1         0     43219         1         0
     43222         1         0     43225         1         0     43228         1         0
     43231         1         0     43234         1         0     43237         1         0
     43240         1         0     43243         1         0     43246         1         0
     43249         1         0     43252         1         0     43255         1         0
     43258         1         0     43261         1         0     43264         1         0
     43267         1         0     43270         1         0     43273         1         0
     43276         1         0     43279         1         0     43282         1         0
     43285         1         0     43288         1         0     43291         1         0
     43294         1         0     43297         1         0     43300         1         0
     43303         1         0     43306         1         0     43309         1         0
     43312         1         0     43315         1         0     43318         1         0
     43321         1         0     43324         1         0     43327         1         0
     43330         1         0     43333         1         0     43336         1         0
     43339         1         0     43342         1         0     43345         1         0
     43348         1         0     43351         1         0     43354         1         0
     43357         1         0     43360         1         0     43363         1         0
     43366         1         0     43369         1         0     43372         1         0
     43375         1         0     43378         1         0     43381         1         0
     43384         1         0     43387         1         0     43390         1         0
     43393         1         0     43396         1         0     43399         1         0
     43402         1         0     43405         1         0     43408         1         0
     43411         1         0     43414         1         0     43417         1         0
     43420         1         0     43423         1         0     43426         1         0
     43429         1         0     43432         1         0     43435         1         0
     43438         1         0     43441         1         0     43444         1         0
     43447         1         0     43450         1         0     43453         1         0
     43456         1         0     43459         1         0     43462         1         0
     43465         1         0     43468         1         0     43471         1         0
     43474         1         0     43477         1         0     43480         1         0
     43483         1         0     43486         1         0     43489         1         0
     43492         1         0     43495         1         0     43498         1         0
     43501         1         0     43504         1         0     43507         1         0
     43510         1         0     43513         1         0     43516         1         0
     43519         1         0     43522         1         0     43525         1         0
     43528         1         0     43531         1         0     43534         1         0
     43537         1         0     43540         1         0     43543         1         0
     43546         1         0     43549         1         0     43552         1         0
     43555         1         0     43558         1         0     43561         1         0
     43564         1         0     43567         1         0     43570         1         0
     43573         1         0     43576         1         0     43579         1         0
     43582         1         0     43585         1         0     43588         1         0
     43591         1         0     43594         1         0     43597         1         0
     43600         1         0     43603         1         0     43606         1         0
     43609         1         0     43612         1         0     43615         1         0
     43618         1         0     43621         1         0     43624         1         0
     43627         1         0     43630         1         0     43633         1         0
     43636         1         0     43639         1         0     43642         1         0
     43645         1         0     43648         1         0     43651         1         0
     43654         1         0     43657         1         0     43660         1         0
     43663         1         0     43666         1         0     43669         1         0
     43672         1         0     43675         1         0     43678         1         0
     43681         1         0     43684         1         0     43687         1         0
     43690         1         0     43693         1         0     43696         1         0
     43699         1         0     43702         1         0     43705         1         0
     43708         1         0     43711         1         0     43714         1         0
     43717         1         0     43720         1         0     43723         1         0
     43726         1         0     43729         1         0     43732         1         0
     43735         1         0     43738         1         0     43741         1         0
     43744         1         0     43747         1         0     43750         1         0
     43753         1         0     43756         1         0     43759         1         0
     43762         1         0     43765         1         0     43768         1         0
     43771         1         0     43774         1         0     43777         1         0
     43780         1         0     43783         1         0     43786         1         0
     43789         1         0     43792         1         0     43795         1         0
     43798         1         0     43801         1         0     43804         1         0
     43807         1         0     43810         1         0     43813         1         0
     43816         1         0     43819         1         0     43822         1         0
     43825         1         0     43828         1         0     43831         1         0
     43834         1         0     43837         1         0     43840         1         0
     43843         1         0     43846         1         0     43849         1         0
     43852         1         0     43855         1         0     43858         1         0
     43861         1         0     43864         1         0     43867         1         0
     43870         1         0     43873         1         0     43876         1         0
     43879         1         0     43882         1         0     43885         1         0
     43888         1         0     43891         1         0     43894         1         0
     43897         1         0     43900         1         0     43903         1         0
     43906         1         0     43909         1         0     43912         1         0
     43915         1         0     43918         1         0     43921         1         0
     43924         1         0     43927         1         0     43930         1         0
     43933         1         0     43936         1         0     43939         1         0
     43942         1         0     43945         1         0     43948         1         0
     43951         1         0     43954         1         0     43957         1         0
     43960         1         0     43963         1         0     43966         1         0
     43969         1         0     43972         1         0     43975         1         0
     43978         1         0     43981         1         0     43984         1         0
     43987         1         0     43990         1         0     43993         1         0
     43996         1         0     43999         1         0     44002         1         0
     44005         1         0     44008         1         0     44011         1         0
     44014         1         0     44017         1         0     44020         1         0
     44023         1         0     44026         1         0     44029         1         0
     44032         1         0     44035         1         0     44038         1         0
     44041         1         0     44044         1         0     44047         1         0
     44050         1         0     44053         1         0     44056         1         0
     44059         1         0     44062         1         0     44065         1         0
     44068         1         0     44071         1         0     44074         1         0
     44077         1         0     44080         1         0     44083         1         0
     44086         1         0     44089         1         0     44092         1         0
     44095         1         0     44098         1         0     44101         1         0
     44104         1         0     44107         1         0     44110         1         0
     44113         1         0     44116         1         0     44119         1         0
     44122         1         0     44125         1         0     44128         1         0
     44131         1         0     44134         1         0     44137         1         0
     44140         1         0     44143         1         0     44146         1         0
     44149         1         0     44152         1         0     44155         1         0
     44158         1         0     44161         1         0     44164         1         0
     44167         1         0     44170         1         0     44173         1         0
     44176         1         0     44179         1         0     44182         1         0
     44185         1         0     44188         1         0     44191         1         0
     44194         1         0     44197         1         0     44200         1         0
     44203         1         0     44206         1         0     44209         1         0
     44212         1         0     44215         1         0     44218         1         0
     44221         1         0     44224         1         0     44227         1         0
     44230         1         0     44233         1         0     44236         1         0
     44239         1         0     44242         1         0     44245         1         0
     44248         1         0     44251         1         0     44254         1         0
     44257         1         0     44260         1         0     44263         1         0
     44266         1         0     44269         1         0     44272         1         0
     44275         1         0     44278         1         0     44281         1         0
     44284         1         0     44287         1         0     44290         1         0
     44293         1         0     44296         1         0     44299         1         0
     44302         1         0     44305         1         0     44308         1         0
     44311         1         0     44314         1         0     44317         1         0
     44320         1         0     44323         1         0     44326         1         0
     44329         1         0     44332         1         0     44335         1         0
     44338         1         0     44341         1         0     44344         1         0
     44347         1         0     44350         1         0     44353         1         0
     44356         1         0     44359         1         0     44362         1         0
     44365         1         0     44368         1         0     44371         1         0
     44374         1         0     44377         1         0     44380         1         0
     44383         1         0     44386         1         0     44389         1         0
     44392         1         0     44395         1         0     44398         1         0
     44401         1         0     44404         1         0     44407         1         0
     44410         1         0     44413         1         0     44416         1         0
     44419         1         0     44422         1         0     44425         1         0
     44428         1         0     44431         1         0     44434         1         0
     44437         1         0     44440         1         0     44443         1         0
     44446         1         0     44449         1         0     44452         1         0
     44455         1         0     44458         1         0     44461         1         0
     44464         1         0     44467         1         0     44470         1         0
     44473         1         0     44476         1         0     44479         1         0
     44482         1         0     44485         1         0     44488         1         0
     44491         1         0     44494         1         0     44497         1         0
     44500         1         0     44503         1         0     44506         1         0
     44509         1         0     44512         1         0     44515         1         0
     44518         1         0     44521         1         0     44524         1         0
     44527         1         0     44530         1         0     44533         1         0
     44536         1         0     44539         1         0     44542         1         0
     44545         1         0     44548         1         0     44551         1         0
     44554         1         0     44557         1         0     44560         1         0
     44563         1         0     44566         1         0     44569         1         0
     44572         1         0     44575         1         0     44578         1         0
     44581         1         0     44584         1         0     44587         1         0
     44590         1         0     44593         1         0     44596         1         0
     44599         1         0     44602         1         0     44605         1         0
     44608         1         0     44611         1         0     44614         1         0
     44617         1         0     44620         1         0     44623         1         0
     44626         1         0     44629         1         0     44632         1         0
     44635         1         0     44638         1         0     44641         1         0
     44644         1         0     44647         1         0     44650         1         0
     44653         1         0     44656         1         0     44659         1         0
     44662         1         0     44665         1         0     44668         1         0
     44671         1         0     44674         1         0     44677         1         0
     44680         1         0     44683         1         0     44686         1         0
     44689         1         0     44692         1         0     44695         1         0
     44698         1         0     44701         1         0     44704         1         0
     44707         1         0     44710         1         0     44713         1         0
     44716         1         0     44719         1         0     44722         1         0
     44725         1         0     44728         1         0     44731         1         0
     44734         1         0     44737         1         0     44740         1         0
     44743         1         0     44746         1         0     44749         1         0
     44752         1         0     44755         1         0     44758         1         0
     44761         1         0     44764         1         0     44767         1         0
     44770         1         0     44773         1         0     44776         1         0
     44779         1         0     44782         1         0     44785         1         0
     44788         1         0     44791         1         0     44794         1         0
     44797         1         0     44800         1         0     44803         1         0
     44806         1         0     44809         1         0     44812         1         0
     44815         1         0     44818         1         0     44821         1         0
     44824         1         0     44827         1         0     44830         1         0
     44833         1         0     44836         1         0     44839         1         0
     44842         1         0     44845         1         0     44848         1         0
     44851         1         0     44854         1         0     44857         1         0
     44860         1         0     44863         1         0     44866         1         0
     44869         1         0     44872         1         0     44875         1         0
     44878         1         0     44881         1         0     44884         1         0
     44887         1         0     44890         1         0     44893         1         0
     44896         1         0     44899         1         0     44902         1         0
     44905         1         0     44908         1         0     44911         1         0
     44914         1         0     44917         1         0     44920         1         0
     44923         1         0     44926         1         0     44929         1         0
     44932         1         0     44935         1         0     44938         1         0
     44941         1         0     44944         1         0     44947         1         0
     44950         1         0     44953         1         0     44956         1         0
     44959         1         0     44962         1         0     44965         1         0
     44968         1         0     44971         1         0     44974         1         0
     44977         1         0     44980         1         0     44983         1         0
     44986         1         0     44989         1         0     44992         1         0
     44995         1         0     44998         1         0     45001         1         0
     45004         1         0     45007         1         0     45010         1         0
     45013         1         0     45016         1         0     45019         1         0
     45022         1         0     45025         1         0     45028         1         0
     45031         1         0     45034         1         0     45037         1         0
     45040         1         0     45043         1         0     45046         1         0
     45049         1         0     45052         1         0     45055         1         0
     45058         1         0     45061         1         0     45064         1         0
     45067         1         0     45070         1         0     45073         1         0
     45076         1         0     45079         1         0     45082         1         0
     45085         1         0     45088         1         0     45091         1         0
     45094         1         0     45097         1         0     45100         1         0
     45103         1         0     45106         1         0     45109         1         0
     45112         1         0     45115         1         0     45118         1         0
     45121         1         0     45124         1         0     45127         1         0
     45130         1         0     45133         1         0     45136         1         0
     45139         1         0     45142         1         0     45145         1         0
     45148         1         0     45151         1         0     45154         1         0
     45157         1         0     45160         1         0     45163         1         0
     45166         1         0     45169         1         0     45172         1         0
     45175         1         0     45178         1         0     45181         1         0
     45184         1         0     45187         1         0     45190         1         0
     45193         1         0     45196         1         0     45199         1         0
     45202         1         0     45205         1         0     45208         1         0
     45211         1         0     45214         1         0     45217         1         0
     45220         1         0     45223         1         0     45226         1         0
     45229         1         0     45232         1         0     45235         1         0
     45238         1         0     45241         1         0     45244         1         0
     45247         1         0     45250         1         0     45253         1         0
     45256         1         0     45259         1         0     45262         1         0
     45265         1         0     45268         1         0     45271         1         0
     45274         1         0     45277         1         0     45280         1         0
     45283         1         0     45286         1         0     45289         1         0
     45292         1         0     45295         1         0     45298         1         0
     45301         1         0     45304         1         0     45307         1         0
     45310         1         0     45313         1         0     45316         1         0
     45319         1         0     45322         1         0     45325         1         0
     45328         1         0     45331         1         0     45334         1         0
     45337         1         0     45340         1         0     45343         1         0
     45346         1         0     45349         1         0     45352         1         0
     45355         1         0     45358         1         0     45361         1         0
     45364         1         0     45367         1         0     45370         1         0
     45373         1         0     45376         1         0     45379         1         0
     45382         1         0     45385         1         0     45388         1         0
     45391         1         0     45394         1         0     45397         1         0
     45400         1         0     45403         1         0     45406         1         0
     45409         1         0     45412         1         0     45415         1         0
     45418         1         0     45421         1         0     45424         1         0
     45427         1         0     45430         1         0     45433         1         0
     45436         1         0     45439         1         0     45442         1         0
     45445         1         0     45448         1         0     45451         1         0
     45454         1         0     45457         1         0     45460         1         0
     45463         1         0     45466         1         0     45469         1         0
     45472         1         0     45475         1         0     45478         1         0
     45481         1         0     45484         1         0     45487         1         0
     45490         1         0     45493         1         0     45496         1         0
     45499         1         0     45502         1         0     45505         1         0
     45508         1         0     45511         1         0     45514         1         0
     45517         1         0     45520         1         0     45523         1         0
     45526         1         0     45529         1         0     45532         1         0
     45535         1         0     45538         1         0     45541         1         0
     45544         1         0     45547         1         0     45550         1         0
     45553         1         0     45556         1         0     45559         1         0
     45562         1         0     45565         1         0     45568         1         0
     45571         1         0     45574         1         0     45577         1         0
     45580         1         0     45583         1         0     45586         1         0
     45589         1         0     45592         1         0     45595         1         0
     45598         1         0     45601         1         0     45604         1         0
     45607         1         0     45610         1         0     45613         1         0
     45616         1         0     45619         1         0     45622         1         0
     45625         1         0     45628         1         0     45631         1         0
     45634         1         0     45637         1         0     45640         1         0
     45643         1         0     45646         1         0     45649         1         0
     45652         1         0     45655         1         0     45658         1         0
     45661         1         0     45664         1         0     45667         1         0
     45670         1         0     45673         1         0     45676         1         0
     45679         1         0     45682         1         0     45685         1         0
     45688         1         0     45691         1         0     45694         1         0
     45697         1         0     45700         1         0     45703         1         0
     45706         1         0     45709         1         0     45712         1         0
     45715         1         0     45718         1         0     45721         1         0
     45724         1         0     45727         1         0     45730         1         0
     45733         1         0     45736         1         0     45739         1         0
     45742         1         0     45745         1         0     45748         1         0
     45751         1         0     45754         1         0     45757         1         0
     45760         1         0     45763         1         0     45766         1         0
     45769         1         0     45772         1         0     45775         1         0
     45778         1         0     45781         1         0     45784         1         0
     45787         1         0     45790         1         0     45793         1         0
     45796         1         0     45799         1         0     45802         1         0
     45805         1         0     45808         1         0     45811         1         0
     45814         1         0     45817         1         0     45820         1         0
     45823         1         0     45826         1         0     45829         1         0
     45832         1         0     45835         1         0     45838         1         0
     45841         1         0     45844         1         0     45847         1         0
     45850         1         0     45853         1         0     45856         1         0
     45859         1         0     45862         1         0     45865         1         0
     45868         1         0     45871         1         0     45874         1         0
     45877         1         0     45880         1         0     45883         1         0
     45886         1         0     45889         1         0     45892         1         0
     45895         1         0     45898         1         0     45901         1         0
     45904         1         0     45907         1         0     45910         1         0
     45913         1         0     45916         1         0     45919         1         0
     45922         1         0     45925         1         0     45928         1         0
     45931         1         0     45934         1         0     45937         1         0
     45940         1         0     45943         1         0     45946         1         0
     45949         1         0     45952         1         0     45955         1         0
     45958         1         0     45961         1         0     45964         1         0
     45967         1         0     45970         1         0     45973         1         0
     45976         1         0     45979         1         0     45982         1         0
     45985         1         0     45988         1         0     45991         1         0
     45994         1         0     45997         1         0     46000         1         0
     46003         1         0     46006         1         0     46009         1         0
     46012         1         0     46015         1         0     46018         1         0
     46021         1         0     46024         1         0     46027         1         0
     46030         1         0     46033         1         0     46036         1         0
     46039         1         0     46042         1         0     46045         1         0
     46048         1         0     46051         1         0     46054         1         0
     46057         1         0     46060         1         0     46063         1         0
     46066         1         0     46069         1         0     46072         1         0
     46075         1         0     46078         1         0     46081         1         0
     46084         1         0     46087         1         0     46090         1         0
     46093         1         0     46096         1         0     46099         1         0
     46102         1         0     46105         1         0     46108         1         0
     46111         1         0     46114         1         0     46117         1         0
     46120         1         0     46123         1         0     46126         1         0
     46129         1         0     46132         1         0     46135         1         0
     46138         1         0     46141         1         0     46144         1         0
     46147         1         0     46150         1         0     46153         1         0
     46156         1         0     46159         1         0     46162         1         0
     46165         1         0     46168         1         0     46171         1         0
     46174         1         0     46177         1         0     46180         1         0
     46183         1         0     46186         1         0     46189         1         0
     46192         1         0     46195         1         0     46198         1         0
     46201         1         0     46204         1         0     46207         1         0
     46210         1         0     46213         1         0     46216         1         0
     46219         1         0     46222         1         0     46225         1         0
     46228         1         0     46231         1         0     46234         1         0
     46237         1         0     46240         1         0     46243         1         0
     46246         1         0     46249         1         0     46252         1         0
     46255         1         0     46258         1         0     46261         1         0
     46264         1         0     46267         1         0     46270         1         0
     46273         1         0     46276         1         0     46279         1         0
     46282         1         0     46285         1         0     46288         1         0
     46291         1         0     46294         1         0     46297         1         0
     46300         1         0     46303         1         0     46306         1         0
     46309         1         0     46312         1         0     46315         1         0
     46318         1         0     46321         1         0     46324         1         0
     46327         1         0     46330         1         0     46333         1         0
     46336         1         0     46339         1         0     46342         1         0
     46345         1         0     46348         1         0     46351         1         0
     46354         1         0     46357         1         0     46360         1         0
     46363         1         0     46366         1         0     46369         1         0
     46372         1         0     46375         1         0     46378         1         0
     46381         1         0     46384         1         0     46387         1         0
     46390         1         0     46393         1         0     46396         1         0
     46399         1         0     46402         1         0     46405         1         0
     46408         1         0     46411         1         0     46414         1         0
     46417         1         0     46420         1         0     46423         1         0
     46426         1         0     46429         1         0     46432         1         0
     46435         1         0     46438         1         0     46441         1         0
     46444         1         0     46447         1         0     46450         1         0
     46453         1         0     46456         1         0     46459         1         0
     46462         1         0     46465         1         0     46468         1         0
     46471         1         0     46474         1         0     46477         1         0
     46480         1         0     46483         1         0     46486         1         0
     46489         1         0     46492         1         0     46495         1         0
     46498         1         0     46501         1         0     46504         1         0
     46507         1         0     46510         1         0     46513         1         0
     46516         1         0     46519         1         0     46522         1         0
     46525         1         0     46528         1         0     46531         1         0
     46534         1         0     46537         1         0     46540         1         0
     46543         1         0     46546         1         0     46549         1         0
     46552         1         0     46555         1         0     46558         1         0
     46561         1         0     46564         1         0     46567         1         0
     46570         1         0     46573         1         0     46576         1         0
     46579         1         0     46582         1         0     46585         1         0
     46588         1         0     46591         1         0     46594         1         0
     46597         1         0     46600         1         0     46603         1         0
     46606         1         0     46609         1         0     46612         1         0
     46615         1         0     46618         1         0     46621         1         0
     46624         1         0     46627         1         0     46630         1         0
     46633         1         0     46636         1         0     46639         1         0
     46642         1         0     46645         1         0     46648         1         0
     46651         1         0     46654         1         0     46657         1         0
     46660         1         0     46663         1         0     46666         1         0
     46669         1         0     46672         1         0     46675         1         0
     46678         1         0     46681         1         0     46684         1         0
     46687         1         0     46690         1         0     46693         1         0
     46696         1         0     46699         1         0     46702         1         0
     46705         1         0     46708         1         0     46711         1         0
     46714         1         0     46717         1         0     46720         1         0
     46723         1         0     46726         1         0     46729         1         0
     46732         1         0     46735         1         0     46738         1         0
     46741         1         0     46744         1         0     46747         1         0
     46750         1         0     46753         1         0     46756         1         0
     46759         1         0     46762         1         0     46765         1         0
     46768         1         0     46771         1         0     46774         1         0
     46777         1         0     46780         1         0     46783         1         0
     46786         1         0     46789         1         0     46792         1         0
     46795         1         0     46798         1         0     46801         1         0
     46804         1         0     46807         1         0     46810         1         0
     46813         1         0     46816         1         0     46819         1         0
     46822         1         0     46825         1         0     46828         1         0
     46831         1         0     46834         1         0     46837         1         0
     46840         1         0     46843         1         0     46846         1         0
     46849         1         0     46852         1         0     46855         1         0
     46858         1         0     46861         1         0     46864         1         0
     46867         1         0     46870         1         0     46873         1         0
     46876         1         0     46879         1         0     46882         1         0
     46885         1         0     46888         1         0     46891         1         0
     46894         1         0     46897         1         0     46900         1         0
     46903         1         0     46906         1         0     46909         1         0
     46912         1         0     46915         1         0     46918         1         0
     46921         1         0     46924         1         0     46927         1         0
     46930         1         0     46933         1         0     46936         1         0
     46939         1         0     46942         1         0     46945         1         0
     46948         1         0     46951         1         0     46954         1         0
     46957         1         0     46960         1         0     46963         1         0
     46966         1         0     46969         1         0     46972         1         0
     46975         1         0     46978         1         0     46981         1         0
     46984         1         0     46987         1         0     46990         1         0
     46993         1         0     46996         1         0     46999         1         0
     47002         1         0     47005         1         0     47008         1         0
     47011         1         0     47014         1         0     47017         1         0
     47020         1         0     47023         1         0     47026         1         0
     47029         1         0     47032         1         0     47035         1         0
     47038         1         0     47041         1         0     47044         1         0
     47047         1         0     47050         1         0     47053         1         0
     47056         1         0     47059         1         0     47062         1         0
     47065         1         0     47068         1         0     47071         1         0
     47074         1         0     47077         1         0     47080         1         0
     47083         1         0     47086         1         0     47089         1         0
     47092         1         0     47095         1         0     47098         1         0
     47101         1         0     47104         1         0     47107         1         0
     47110         1         0     47113         1         0     47116         1         0
     47119         1         0     47122         1         0     47125         1         0
     47128         1         0     47131         1         0     47134         1         0
     47137         1         0     47140         1         0     47143         1         0
     47146         1         0     47149         1         0     47152         1         0
     47155         1         0     47158         1         0     47161         1         0
     47164         1         0     47167         1         0     47170         1         0
     47173         1         0     47176         1         0     47179         1         0
     47182         1         0     47185         1         0     47188         1         0
     47191         1         0     47194         1         0     47197         1         0
     47200         1         0     47203         1         0     47206         1         0
     47209         1         0     47212         1         0     47215         1         0
     47218         1         0     47221         1         0     47224         1         0
     47227         1         0     47230         1         0     47233         1         0
     47236         1         0     47239         1         0     47242         1         0
     47245         1         0     47248         1         0     47251         1         0
     47254         1         0     47257         1         0     47260         1         0
     47263         1         0     47266         1         0     47269         1         0
     47272         1         0     47275         1         0     47278         1         0
     47281         1         0     47284         1         0     47287         1         0
     47290         1         0     47293         1         0     47296         1         0
     47299         1         0     47302         1         0     47305         1         0
     47308         1         0     47311         1         0     47314         1         0
     47317         1         0     47320         1         0     47323         1         0
     47326         1         0     47329         1         0     47332         1         0
     47335         1         0     47338         1         0     47341         1         0
     47344         1         0     47347         1         0     47350         1         0
     47353         1         0     47356         1         0     47359         1         0
     47362         1         0     47365         1         0     47368         1         0
     47371         1         0     47374         1         0     47377         1         0
     47380         1         0     47383         1         0     47386         1         0
     47389         1         0     47392         1         0     47395         1         0
     47398         1         0     47401         1         0     47404         1         0
     47407         1         0     47410         1         0     47413         1         0
     47416         1         0     47419         1         0     47422         1         0
     47425         1         0     47428         1         0     47431         1         0
     47434         1         0     47437         1         0     47440         1         0
     47443         1         0     47446         1         0     47449         1         0
     47452         1         0     47455         1         0     47458         1         0
     47461         1         0     47464         1         0     47467         1         0
     47470         1         0     47473         1         0     47476         1         0
     47479         1         0     47482         1         0     47485         1         0
     47488         1         0     47491         1         0     47494         1         0
     47497         1         0     47500         1         0     47503         1         0
     47506         1         0     47509         1         0     47512         1         0
     47515         1         0     47518         1         0     47521         1         0
     47524         1         0     47527         1         0     47530         1         0
     47533         1         0     47536         1         0     47539         1         0
     47542         1         0     47545         1         0     47548         1         0
     47551         1         0     47554         1         0     47557         1         0
     47560         1         0     47563         1         0     47566         1         0
     47569         1         0     47572         1         0     47575         1         0
     47578         1         0     47581         1         0     47584         1         0
     47587         1         0     47590         1         0     47593         1         0
     47596         1         0     47599         1         0     47602         1         0
     47605         1         0     47608         1         0     47611         1         0
     47614         1         0     47617         1         0     47620         1         0
     47623         1         0     47626         1         0     47629         1         0
     47632         1         0     47635         1         0     47638         1         0
     47641         1         0     47644         1         0     47647         1         0
     47650         1         0     47653         1         0     47656         1         0
     47659         1         0     47662         1         0     47665         1         0
     47668         1         0     47671         1         0     47674         1         0
     47677         1         0     47680         1         0     47683         1         0
     47686         1         0     47689         1         0     47692         1         0
     47695         1         0     47698         1         0     47701         1         0
     47704         1         0     47707         1         0     47710         1         0
     47713         1         0     47716         1         0     47719         1         0
     47722         1         0     47725         1         0     47728         1         0
     47731         1         0     47734         1         0     47737         1         0
     47740         1         0     47743         1         0     47746         1         0
     47749         1         0     47752         1         0     47755         1         0
     47758         1         0     47761         1         0     47764         1         0
     47767         1         0     47770         1         0     47773         1         0
     47776         1         0     47779         1         0     47782         1         0
     47785         1         0     47788         1         0     47791         1         0
     47794         1         0     47797         1         0     47800         1         0
     47803         1         0     47806         1         0     47809         1         0
     47812         1         0     47815         1         0     47818         1         0
     47821         1         0     47824         1         0     47827         1         0
     47830         1         0     47833         1         0     47836         1         0
     47839         1         0     47842         1         0     47845         1         0
     47848         1         0     47851         1         0     47854         1         0
     47857         1         0     47860         1         0     47863         1         0
     47866         1         0     47869         1         0     47872         1         0
     47875         1         0     47878         1         0     47881         1         0
     47884         1         0     47887         1         0     47890         1         0
     47893         1         0     47896         1         0     47899         1         0
     47902         1         0     47905         1         0     47908         1         0
     47911         1         0     47914         1         0     47917         1         0
     47920         1         0     47923         1         0     47926         1         0
     47929         1         0     47932         1         0     47935         1         0
     47938         1         0     47941         1         0     47944         1         0
     47947         1         0     47950         1         0     47953         1         0
     47956         1         0     47959         1         0     47962         1         0
     47965         1         0     47968         1         0     47971         1         0
     47974         1         0     47977         1         0     47980         1         0
     47983         1         0     47986         1         0     47989         1         0
     47992         1         0     47995         1         0     47998         1         0
     48001         1         0     48004         1         0     48007         1         0
     48010         1         0     48013         1         0     48016         1         0
     48019         1         0     48022         1         0     48025         1         0
     48028         1         0     48031         1         0     48034         1         0
     48037         1         0     48040         1         0     48043         1         0
     48046         1         0     48049         1         0     48052         1         0
     48055         1         0     48058         1         0     48061         1         0
     48064         1         0     48067         1         0     48070         1         0
     48073         1         0     48076         1         0     48079         1         0
     48082         1         0     48085         1         0     48088         1         0
     48091         1         0     48094         1         0     48097         1         0
     48100         1         0     48103         1         0     48106         1         0
     48109         1         0     48112         1         0     48115         1         0
     48118         1         0     48121         1         0     48124         1         0
     48127         1         0     48130         1         0     48133         1         0
     48136         1         0     48139         1         0     48142         1         0
     48145         1         0     48148         1         0     48151         1         0
     48154         1         0     48157         1         0     48160         1         0
     48163         1         0     48166         1         0     48169         1         0
     48172         1         0     48175         1         0     48178         1         0
     48181         1         0     48184         1         0     48187         1         0
     48190         1         0     48193         1         0     48196         1         0
     48199         1         0     48202         1         0     48205         1         0
     48208         1         0     48211         1         0     48214         1         0
     48217         1         0     48220         1         0     48223         1         0
     48226         1         0     48229         1         0     48232         1         0
     48235         1         0     48238         1         0     48241         1         0
     48244         1         0     48247         1         0     48250         1         0
     48253         1         0     48256         1         0     48259         1         0
     48262         1         0     48265         1         0     48268         1         0
     48271         1         0     48274         1         0     48277         1         0
     48280         1         0     48283         1         0     48286         1         0
     48289         1         0     48292         1         0     48295         1         0
     48298         1         0     48301         1         0     48304         1         0
     48307         1         0     48310         1         0     48313         1         0
     48316         1         0     48319         1         0     48322         1         0
     48325         1         0     48328         1         0     48331         1         0
     48334         1         0     48337         1         0     48340         1         0
     48343         1         0     48346         1         0     48349         1         0
     48352         1         0     48355         1         0     48358         1         0
     48361         1         0     48364         1         0     48367         1         0
     48370         1         0     48373         1         0     48376         1         0
     48379         1         0     48382         1         0     48385         1         0
     48388         1         0     48391         1         0     48394         1         0
     48397         1         0     48400         1         0     48403         1         0
     48406         1         0     48409         1         0     48412         1         0
     48415         1         0     48418         1         0     48421         1         0
     48424         1         0     48427         1         0     48430         1         0
     48433         1         0     48436         1         0     48439         1         0
     48442         1         0     48445         1         0     48448         1         0
     48451         1         0     48454         1         0     48457         1         0
     48460         1         0     48463         1         0     48466         1         0
     48469         1         0     48472         1         0     48475         1         0
     48478         1         0     48481         1         0     48484         1         0
     48487         1         0     48490         1         0     48493         1         0
     48496         1         0     48499         1         0     48502         1         0
     48505         1         0     48508         1         0     48511         1         0
     48514         1         0     48517         1         0     48520         1         0
     48523         1         0     48526         1         0     48529         1         0
     48532         1         0     48535         1         0     48538         1         0
     48541         1         0     48544         1         0     48547         1         0
     48550         1         0     48553         1         0     48556         1         0
     48559         1         0     48562         1         0     48565         1         0
     48568         1         0     48571         1         0     48574         1         0
     48577         1         0     48580         1         0     48583         1         0
     48586         1         0     48589         1         0     48592         1         0
     48595         1         0     48598         1         0     48601         1         0
     48604         1         0     48607         1         0     48610         1         0
     48613         1         0     48616         1         0     48619         1         0
     48622         1         0     48625         1         0     48628         1         0
     48631         1         0     48634         1         0     48637         1         0
     48640         1         0     48643         1         0     48646         1         0
     48649         1         0     48652         1         0     48655         1         0
     48658         1         0     48661         1         0     48664         1         0
     48667         1         0     48670         1         0     48673         1         0
     48676         1         0     48679         1         0     48682         1         0
     48685         1         0     48688         1         0     48691         1         0
     48694         1         0     48697         1         0     48700         1         0
     48703         1         0     48706         1         0     48709         1         0
     48712         1         0     48715         1         0     48718         1         0
     48721         1         0     48724         1         0     48727         1         0
     48730         1         0     48733         1         0     48736         1         0
     48739         1         0     48742         1         0     48745         1         0
     48748         1         0     48751         1         0     48754         1         0
     48757         1         0     48760         1         0     48763         1         0
     48766         1         0     48769         1         0     48772         1         0
     48775         1         0     48778         1         0     48781         1         0
     48784         1         0     48787         1         0     48790         1         0
     48793         1         0     48796         1         0     48799         1         0
     48802         1         0     48805         1         0     48808         1         0
     48811         1         0     48814         1         0     48817         1         0
     48820         1         0     48823         1         0     48826         1         0
     48829         1         0     48832         1         0     48835         1         0
     48838         1         0     48841         1         0     48844         1         0
     48847         1         0     48850         1         0     48853         1         0
     48856         1         0     48859         1         0     48862         1         0
     48865         1         0     48868         1         0     48871         1         0
     48874         1         0     48877         1         0     48880         1         0
     48883         1         0     48886         1         0     48889         1         0
     48892         1         0     48895         1         0     48898         1         0
     48901         1         0     48904         1         0     48907         1         0
     48910         1         0     48913         1         0     48916         1         0
     48919         1         0     48922         1         0     48925         1         0
     48928         1         0     48931         1         0     48934         1         0
     48937         1         0     48940         1         0     48943         1         0
     48946         1         0     48949         1         0     48952         1         0
     48955         1         0     48958         1         0     48961         1         0
     48964         1         0     48967         1         0     48970         1         0
     48973         1         0     48976         1         0     48979         1         0
     48982         1         0     48985         1         0     48988         1         0
     48991         1         0     48994         1         0     48997         1         0
     49000         1         0     49003         1         0     49006         1         0
     49009         1         0     49012         1         0     49015         1         0
     49018         1         0     49021         1         0     49024         1         0
     49027         1         0     49030         1         0     49033         1         0
     49036         1         0     49039         1         0     49042         1         0
     49045         1         0     49048         1         0     49051         1         0
     49054         1         0     49057         1         0     49060         1         0
     49063         1         0     49066         1         0     49069         1         0
     49072         1         0     49075         1         0     49078         1         0
     49081         1         0     49084         1         0     49087         1         0
     49090         1         0     49093         1         0     49096         1         0
     49099         1         0     49102         1         0     49105         1         0
     49108         1         0     49111         1         0     49114         1         0
     49117         1         0     49120         1         0     49123         1         0
     49126         1         0     49129         1         0     49132         1         0
     49135         1         0     49138         1         0     49141         1         0
     49144         1         0     49147         1         0     49150         1         0
     49153         1         0     49156         1         0     49159         1         0
     49162         1         0     49165         1         0     49168         1         0
     49171         1         0     49174         1         0     49177         1         0
     49180         1         0     49183         1         0     49186         1         0
     49189         1         0     49192         1         0     49195         1         0
     49198         1         0     49201         1         0     49204         1         0
     49207         1         0     49210         1         0     49213         1         0
     49216         1         0     49219         1         0     49222         1         0
     49225         1         0     49228         1         0     49231         1         0
     49234         1         0     49237         1         0     49240         1         0
     49243         1         0     49246         1         0     49249         1         0
     49252         1         0     49255         1         0     49258         1         0
     49261         1         0     49264         1         0     49267         1         0
     49270         1         0     49273         1         0     49276         1         0
     49279         1         0     49282         1         0     49285         1         0
     49288         1         0     49291         1         0     49294         1         0
     49297         1         0     49300         1         0     49303         1         0
     49306         1         0     49309         1         0     49312         1         0
     49315         1         0     49318         1         0     49321         1         0
     49324         1         0     49327         1         0     49330         1         0
     49333         1         0     49336         1         0     49339         1         0
     49342         1         0     49345         1         0     49348         1         0
     49351         1         0     49354         1         0     49357         1         0
     49360         1         0     49363         1         0     49366         1         0
     49369         1         0     49372         1         0     49375         1         0
     49378         1         0     49381         1         0     49384         1         0
     49387         1         0     49390         1         0     49393         1         0
     49396         1         0     49399         1         0     49402         1         0
     49405         1         0     49408         1         0     49411         1         0
     49414         1         0     49417         1         0     49420         1         0
     49423         1         0     49426         1         0     49429         1         0
     49432         1         0     49435         1         0     49438         1         0
     49441         1         0     49444         1         0     49447         1         0
     49450         1         0     49453         1         0     49456         1         0
     49459         1         0     49462         1         0     49465         1         0
     49468         1         0     49471         1         0     49474         1         0
     49477         1         0     49480         1         0     49483         1         0
     49486         1         0     49489         1         0     49492         1         0
     49495         1         0     49498         1         0     49501         1         0
     49504         1         0     49507         1         0     49510         1         0
     49513         1         0     49516         1         0     49519         1         0
     49522         1         0     49525         1         0     49528         1         0
     49531         1         0     49534         1         0     49537         1         0
     49540         1         0     49543         1         0     49546         1         0
     49549         1         0     49552         1         0     49555         1         0
     49558         1         0     49561         1         0     49564         1         0
     49567         1         0     49570         1         0     49573         1         0
     49576         1         0     49579         1         0     49582         1         0
     49585         1         0     49588         1         0     49591         1         0
     49594         1         0     49597         1         0     49600         1         0
     49603         1         0     49606         1         0     49609         1         0
     49612         1         0     49615         1         0     49618         1         0
     49621         1         0     49624         1         0     49627         1         0
     49630         1         0     49633         1         0     49636         1         0
     49639         1         0     49642         1         0     49645         1         0
     49648         1         0     49651         1         0     49654         1         0
     49657         1         0     49660         1         0     49663         1         0
     49666         1         0     49669         1         0     49672         1         0
     49675         1         0     49678         1         0     49681         1         0
     49684         1         0     49687         1         0     49690         1         0
     49693         1         0     49696         1         0     49699         1         0
     49702         1         0     49705         1         0     49708         1         0
     49711         1         0     49714         1         0     49717         1         0
     49720         1         0     49723         1         0     49726         1         0
     49729         1         0     49732         1         0     49735         1         0
     49738         1         0     49741         1         0     49744         1         0
     49747         1         0     49750         1         0     49753         1         0
     49756         1         0     49759         1         0     49762         1         0
     49765         1         0     49768         1         0     49771         1         0
     49774         1         0     49777         1         0     49780         1         0
     49783         1         0     49786         1         0     49789         1         0
     49792         1         0     49795         1         0     49798         1         0
     49801         1         0     49804         1         0     49807         1         0
     49810         1         0     49813         1         0     49816         1         0
     49819         1         0     49822         1         0     49825         1         0
     49828         1         0     49831         1         0     49834         1         0
     49837         1         0     49840         1         0     49843         1         0
     49846         1         0     49849         1         0     49852         1         0
     49855         1         0     49858         1         0     49861         1         0
     49864         1         0     49867         1         0     49870         1         0
     49873         1         0     49876         1         0     49879         1         0
     49882         1         0     49885         1         0     49888         1         0
     49891         1         0     49894         1         0     49897         1         0
     49900         1         0     49903         1         0     49906         1         0
     49909         1         0     49912         1         0     49915         1         0
     49918         1         0     49921         1         0     49924         1         0
     49927         1         0     49930         1         0     49933         1         0
     49936         1         0     49939         1         0     49942         1         0
     49945         1         0     49948         1         0     49951         1         0
     49954         1         0     49957         1         0     49960         1         0
     49963         1         0     49966         1         0     49969         1         0
     49972         1         0     49975         1         0     49978         1         0
     49981         1         0     49984         1         0     49987         1         0
     49990         1         0     49993         1         0     49996         1         0
     49999         1         0     50002         1         0     50005         1         0
     50008         1         0     50011         1         0     50014         1         0
     50017         1         0     50020         1         0     50023         1         0
     50026         1         0     50029         1         0     50032         1         0
     50035         1         0     50038         1         0     50041         1         0
     50044         1         0     50047         1         0     50050         1         0
     50053         1         0     50056         1         0     50059         1         0
     50062         1         0     50065         1         0     50068         1         0
     50071         1         0     50074         1         0     50077         1         0
     50080         1         0     50083         1         0     50086         1         0
     50089         1         0     50092         1         0     50095         1         0
     50098         1         0     50101         1         0     50104         1         0
     50107         1         0     50110         1         0     50113         1         0
     50116         1         0     50119         1         0     50122         1         0
     50125         1         0     50128         1         0     50131         1         0
     50134         1         0     50137         1         0     50140         1         0
     50143         1         0     50146         1         0     50149         1         0
     50152         1         0     50155         1         0     50158         1         0
     50161         1         0     50164         1         0     50167         1         0
     50170         1         0     50173         1         0     50176         1         0
     50179         1         0     50182         1         0     50185         1         0
     50188         1         0     50191         1         0     50194         1         0
     50197         1         0     50200         1         0     50203         1         0
     50206         1         0     50209         1         0     50212         1         0
     50215         1         0     50218         1         0     50221         1         0
     50224         1         0     50227         1         0     50230         1         0
     50233         1         0     50236         1         0     50239         1         0
     50242         1         0     50245         1         0     50248         1         0
     50251         1         0     50254         1         0     50257         1         0
     50260         1         0     50263         1         0     50266         1         0
     50269         1         0     50272         1         0     50275         1         0
     50278         1         0     50281         1         0     50284         1         0
     50287         1         0     50290         1         0     50293         1         0
     50296         1         0     50299         1         0     50302         1         0
     50305         1         0     50308         1         0     50311         1         0
     50314         1         0     50317         1         0     50320         1         0
     50323         1         0     50326         1         0     50329         1         0
     50332         1         0     50335         1         0     50338         1         0
     50341         1         0     50344         1         0     50347         1         0
     50350         1         0     50353         1         0     50356         1         0
     50359         1         0     50362         1         0     50365         1         0
     50368         1         0     50371         1         0     50374         1         0
     50377         1         0     50380         1         0     50383         1         0
     50386         1         0     50389         1         0     50392         1         0
     50395         1         0     50398         1         0     50401         1         0
     50404         1         0     50407         1         0     50410         1         0
     50413         1         0     50416         1         0     50419         1         0
     50422         1         0     50425         1         0     50428         1         0
     50431         1         0     50434         1         0     50437         1         0
     50440         1         0     50443         1         0     50446         1         0
     50449         1         0     50452         1         0     50455         1         0
     50458         1         0     50461         1         0     50464         1         0
     50467         1         0     50470         1         0     50473         1         0
     50476         1         0     50479         1         0     50482         1         0
     50485         1         0     50488         1         0     50491         1         0
     50494         1         0     50497         1         0     50500         1         0
     50503         1         0     50506         1         0     50509         1         0
     50512         1         0     50515         1         0     50518         1         0
     50521         1         0     50524         1         0     50527         1         0
     50530         1         0     50533         1         0     50536         1         0
     50539         1         0     50542         1         0     50545         1         0
     50548         1         0     50551         1         0     50554         1         0
     50557         1         0     50560         1         0     50563         1         0
     50566         1         0     50569         1         0     50572         1         0
     50575         1         0     50578         1         0     50581         1         0
     50584         1         0     50587         1         0     50590         1         0
     50593         1         0     50596         1         0     50599         1         0
     50602         1         0     50605         1         0     50608         1         0
     50611         1         0     50614         1         0     50617         1         0
     50620         1         0     50623         1         0     50626         1         0
     50629         1         0     50632         1         0     50635         1         0
     50638         1         0     50641         1         0     50644         1         0
     50647         1         0     50650         1         0     50653         1         0
     50656         1         0     50659         1         0     50662         1         0
     50665         1         0     50668         1         0     50671         1         0
     50674         1         0     50677         1         0     50680         1         0
     50683         1         0     50686         1         0     50689         1         0
     50692         1         0     50695         1         0     50698         1         0
     50701         1         0     50704         1         0     50707         1         0
     50710         1         0     50713         1         0     50716         1         0
     50719         1         0     50722         1         0     50725         1         0
     50728         1         0     50731         1         0     50734         1         0
     50737         1         0     50740         1         0     50743         1         0
     50746         1         0     50749         1         0     50752         1         0
     50755         1         0     50758         1         0     50761         1         0
     50764         1         0     50767         1         0     50770         1         0
     50773         1         0     50776         1         0     50779         1         0
     50782         1         0     50785         1         0     50788         1         0
     50791         1         0     50794         1         0     50797         1         0
     50800         1         0     50803         1         0     50806         1         0
     50809         1         0     50812         1         0     50815         1         0
     50818         1         0     50821         1         0     50824         1         0
     50827         1         0     50830         1         0     50833         1         0
     50836         1         0     50839         1         0     50842         1         0
     50845         1         0     50848         1         0     50851         1         0
     50854         1         0     50857         1         0     50860         1         0
     50863         1         0     50866         1         0     50869         1         0
     50872         1         0     50875         1         0     50878         1         0
     50881         1         0     50884         1         0     50887         1         0
     50890         1         0     50893         1         0     50896         1         0
     50899         1         0     50902         1         0     50905         1         0
     50908         1         0     50911         1         0     50914         1         0
     50917         1         0     50920         1         0     50923         1         0
     50926         1         0     50929         1         0     50932         1         0
     50935         1         0     50938         1         0     50941         1         0
     50944         1         0     50947         1         0     50950         1         0
     50953         1         0     50956         1         0     50959         1         0
     50962         1         0     50965         1         0     50968         1         0
     50971         1         0     50974         1         0     50977         1         0
     50980         1         0     50983         1         0     50986         1         0
     50989         1         0     50992         1         0     50995         1         0
     50998         1         0     51001         1         0     51004         1         0
     51007         1         0     51010         1         0     51013         1         0
     51016         1         0     51019         1         0     51022         1         0
     51025         1         0     51028         1         0     51031         1         0
     51034         1         0     51037         1         0     51040         1         0
     51043         1         0     51046         1         0     51049         1         0
     51052         1         0     51055         1         0     51058         1         0
     51061         1         0     51064         1         0     51067         1         0
     51070         1         0     51073         1         0     51076         1         0
     51079         1         0     51082         1         0     51085         1         0
     51088         1         0     51091         1         0     51094         1         0
     51097         1         0     51100         1         0     51103         1         0
     51106         1         0     51109         1         0     51112         1         0
     51115         1         0     51118         1         0     51121         1         0
     51124         1         0     51127         1         0     51130         1         0
     51133         1         0     51136         1         0     51139         1         0
     51142         1         0     51145         1         0     51148         1         0
     51151         1         0     51154         1         0     51157         1         0
     51160         1         0     51163         1         0     51166         1         0
     51169         1         0     51172         1         0     51175         1         0
     51178         1         0     51181         1         0     51184         1         0
     51187         1         0     51190         1         0     51193         1         0
     51196         1         0     51199         1         0     51202         1         0
     51205         1         0     51208         1         0     51211         1         0
     51214         1         0     51217         1         0     51220         1         0
     51223         1         0     51226         1         0     51229         1         0
     51232         1         0     51235         1         0     51238         1         0
     51241         1         0     51244         1         0     51247         1         0
     51250         1         0     51253         1         0     51256         1         0
     51259         1         0     51262         1         0     51265         1         0
     51268         1         0     51271         1         0     51274         1         0
     51277         1         0     51280         1         0     51283         1         0
     51286         1         0     51289         1         0     51292         1         0
     51295         1         0     51298         1         0     51301         1         0
     51304         1         0     51307         1         0     51310         1         0
     51313         1         0     51316         1         0     51319         1         0
     51322         1         0     51325         1         0     51328         1         0
     51331         1         0     51334         1         0     51337         1         0
     51340         1         0     51343         1         0     51346         1         0
     51349         1         0     51352         1         0     51355         1         0
     51358         1         0     51361         1         0     51364         1         0
     51367         1         0     51370         1         0     51373         1         0
     51376         1         0     51379         1         0     51382         1         0
     51385         1         0     51388         1         0     51391         1         0
     51394         1         0     51397         1         0     51400         1         0
     51403         1         0     51406         1         0     51409         1         0
     51412         1         0     51415         1         0     51418         1         0
     51421         1         0     51424         1         0     51427         1         0
     51430         1         0     51433         1         0     51436         1         0
     51439         1         0     51442         1         0     51445         1         0
     51448         1         0     51451         1         0     51454         1         0
     51457         1         0     51460         1         0     51463         1         0
     51466         1         0     51469         1         0     51472         1         0
     51475         1         0     51478         1         0     51481         1         0
     51484         1         0     51487         1         0     51490         1         0
     51493         1         0     51496         1         0     51499         1         0
     51502         1         0     51505         1         0     51508         1         0
     51511         1         0     51514         1         0     51517         1         0
     51520         1         0     51523         1         0     51526         1         0
     51529         1         0     51532         1         0     51535         1         0
     51538         1         0     51541         1         0     51544         1         0
     51547         1         0     51550         1         0     51553         1         0
     51556         1         0     51559         1         0     51562         1         0
     51565         1         0     51568         1         0     51571         1         0
     51574         1         0     51577         1         0     51580         1         0
     51583         1         0     51586         1         0     51589         1         0
     51592         1         0     51595         1         0     51598         1         0
     51601         1         0     51604         1         0     51607         1         0
     51610         1         0     51613         1         0     51616         1         0
     51619         1         0     51622         1         0     51625         1         0
     51628         1         0     51631         1         0     51634         1         0
     51637         1         0     51640         1         0     51643         1         0
     51646         1         0     51649         1         0     51652         1         0
     51655         1         0     51658         1         0     51661         1         0
     51664         1         0     51667         1         0     51670         1         0
     51673         1         0     51676         1         0     51679         1         0
     51682         1         0     51685         1         0     51688         1         0
     51691         1         0     51694         1         0     51697         1         0
     51700         1         0     51703         1         0     51706         1         0
     51709         1         0     51712         1         0     51715         1         0
     51718         1         0     51721         1         0     51724         1         0
     51727         1         0     51730         1         0     51733         1         0
     51736         1         0     51739         1         0     51742         1         0
     51745         1         0     51748         1         0     51751         1         0
     51754         1         0     51757         1         0     51760         1         0
     51763         1         0     51766         1         0     51769         1         0
     51772         1         0     51775         1         0     51778         1         0
     51781         1         0     51784         1         0     51787         1         0
     51790         1         0     51793         1         0     51796         1         0
     51799         1         0     51802         1         0     51805         1         0
     51808         1         0     51811         1         0     51814         1         0
     51817         1         0     51820         1         0     51823         1         0
     51826         1         0     51829         1         0     51832         1         0
     51835         1         0     51838         1         0     51841         1         0
     51844         1         0     51847         1         0     51850         1         0
     51853         1         0     51856         1         0     51859         1         0
     51862         1         0     51865         1         0     51868         1         0
     51871         1         0     51874         1         0     51877         1         0
     51880         1         0     51883         1         0     51886         1         0
     51889         1         0     51892         1         0     51895         1         0
     51898         1         0     51901         1         0     51904         1         0
     51907         1         0     51910         1         0     51913         1         0
     51916         1         0     51919         1         0     51922         1         0
     51925         1         0     51928         1         0     51931         1         0
     51934         1         0     51937         1         0     51940         1         0
     51943         1         0     51946         1         0     51949         1         0
     51952         1         0     51955         1         0     51958         1         0
     51961         1         0     51964         1         0     51967         1         0
     51970         1         0     51973         1         0     51976         1         0
     51979         1         0     51982         1         0     51985         1         0
     51988         1         0     51991         1         0     51994         1         0
     51997         1         0     52000         1         0     52003         1         0
     52006         1         0     52009         1         0     52012         1         0
     52015         1         0     52018         1         0     52021         1         0
     52024         1         0     52027         1         0     52030         1         0
     52033         1         0     52036         1         0     52039         1         0
     52042         1         0     52045         1         0     52048         1         0
     52051         1         0     52054         1         0     52057         1         0
     52060         1         0     52063         1         0     52066         1         0
     52069         1         0     52072         1         0     52075         1         0
     52078         1         0     52081         1         0     52084         1         0
     52087         1         0     52090         1         0     52093         1         0
     52096         1         0     52099         1         0     52102         1         0
     52105         1         0     52108         1         0     52111         1         0
     52114         1         0     52117         1         0     52120         1         0
     52123         1         0     52126         1         0     52129         1         0
     52132         1         0     52135         1         0     52138         1         0
     52141         1         0     52144         1         0     52147         1         0
     52150         1         0     52153         1         0     52156         1         0
     52159         1         0     52162         1         0     52165         1         0
     52168         1         0     52171         1         0     52174         1         0
     52177         1         0     52180         1         0     52183         1         0
     52186         1         0     52189         1         0     52192         1         0
     52195         1         0     52198         1         0     52201         1         0
     52204         1         0     52207         1         0     52210         1         0
     52213         1         0     52216         1         0     52219         1         0
     52222         1         0     52225         1         0     52228         1         0
     52231         1         0     52234         1         0     52237         1         0
     52240         1         0     52243         1         0     52246         1         0
     52249         1         0     52252         1         0     52255         1         0
     52258         1         0     52261         1         0     52264         1         0
     52267         1         0     52270         1         0     52273         1         0
     52276         1         0     52279         1         0     52282         1         0
     52285         1         0     52288         1         0     52291         1         0
     52294         1         0     52297         1         0     52300         1         0
     52303         1         0     52306         1         0     52309         1         0
     52312         1         0     52315         1         0     52318         1         0
     52321         1         0     52324         1         0     52327         1         0
     52330         1         0     52333         1         0     52336         1         0
     52339         1         0     52342         1         0     52345         1         0
     52348         1         0     52351         1         0     52354         1         0
     52357         1         0     52360         1         0     52363         1         0
     52366         1         0     52369         1         0     52372         1         0
     52375         1         0     52378         1         0     52381         1         0
     52384         1         0     52387         1         0     52390         1         0
     52393         1         0     52396         1         0     52399         1         0
     52402         1         0     52405         1         0     52408         1         0
     52411         1         0     52414         1         0     52417         1         0
     52420         1         0     52423         1         0     52426         1         0
     52429         1         0     52432         1         0     52435         1         0
     52438         1         0     52441         1         0     52444         1         0
     52447         1         0     52450         1         0     52453         1         0
     52456         1         0     52459         1         0     52462         1         0
     52465         1         0     52468         1         0     52471         1         0
     52474         1         0     52477         1         0     52480         1         0
     52483         1         0     52486         1         0     52489         1         0
     52492         1         0     52495         1         0     52498         1         0
     52501         1         0     52504         1         0     52507         1         0
     52510         1         0     52513         1         0     52516         1         0
     52519         1         0     52522         1         0     52525         1         0
     52528         1         0     52531         1         0     52534         1         0
     52537         1         0     52540         1         0     52543         1         0
     52546         1         0     52549         1         0     52552         1         0
     52555         1         0     52558         1         0     52561         1         0
     52564         1         0     52567         1         0     52570         1         0
     52573         1         0     52576         1         0     52579         1         0
     52582         1         0     52585         1         0     52588         1         0
     52591         1         0     52594         1         0     52597         1         0
     52600         1         0     52603         1         0     52606         1         0
     52609         1         0     52612         1         0     52615         1         0
     52618         1         0     52621         1         0     52624         1         0
     52627         1         0     52630         1         0     52633         1         0
     52636         1         0     52639         1         0     52642         1         0
     52645         1         0     52648         1         0     52651         1         0
     52654         1         0     52657         1         0     52660         1         0
     52663         1         0     52666         1         0     52669         1         0
     52672         1         0     52675         1         0     52678         1         0
     52681         1         0     52684         1         0     52687         1         0
     52690         1         0     52693         1         0     52696         1         0
     52699         1         0     52702         1         0     52705         1         0
     52708         1         0     52711         1         0     52714         1         0
     52717         1         0     52720         1         0     52723         1         0
     52726         1         0     52729         1         0     52732         1         0
     52735         1         0     52738         1         0     52741         1         0
     52744         1         0     52747         1         0     52750         1         0
     52753         1         0     52756         1         0     52759         1         0
     52762         1         0     52765         1         0     52768         1         0
     52771         1         0     52774         1         0     52777         1         0
     52780         1         0     52783         1         0     52786         1         0
     52789         1         0     52792         1         0     52795         1         0
     52798         1         0     52801         1         0     52804         1         0
     52807         1         0     52810         1         0     52813         1         0
     52816         1         0     52819         1         0     52822         1         0
     52825         1         0     52828         1         0     52831         1         0
     52834         1         0     52837         1         0     52840         1         0
     52843         1         0     52846         1         0     52849         1         0
     52852         1         0     52855         1         0     52858         1         0
     52861         1         0     52864         1         0     52867         1         0
     52870         1         0     52873         1         0     52876         1         0
     52879         1         0     52882         1         0     52885         1         0
     52888         1         0     52891         1         0     52894         1         0
     52897         1         0     52900         1         0     52903         1         0
     52906         1         0     52909         1         0     52912         1         0
     52915         1         0     52918         1         0     52921         1         0
     52924         1         0     52927         1         0     52930         1         0
     52933         1         0     52936         1         0     52939         1         0
     52942         1         0     52945         1         0     52948         1         0
     52951         1         0     52954         1         0     52957         1         0
     52960         1         0     52963         1         0     52966         1         0
     52969         1         0     52972         1         0     52975         1         0
     52978         1         0     52981         1         0     52984         1         0
     52987         1         0     52990         1         0     52993         1         0
     52996         1         0     52999         1         0     53002         1         0
     53005         1         0     53008         1         0     53011         1         0
     53014         1         0     53017         1         0     53020         1         0
     53023         1         0     53026         1         0     53029         1         0
     53032         1         0     53035         1         0     53038         1         0
     53041         1         0     53044         1         0     53047         1         0
     53050         1         0     53053         1         0     53056         1         0
     53059         1         0     53062         1         0     53065         1         0
     53068         1         0     53071         1         0     53074         1         0
     53077         1         0     53080         1         0     53083         1         0
     53086         1         0     53089         1         0     53092         1         0
     53095         1         0     53098         1         0     53101         1         0
     53104         1         0     53107         1         0     53110         1         0
     53113         1         0     53116         1         0     53119         1         0
     53122         1         0     53125         1         0     53128         1         0
     53131         1         0     53134         1         0     53137         1         0
     53140         1         0     53143         1         0     53146         1         0
     53149         1         0     53152         1         0     53155         1         0
     53158         1         0     53161         1         0     53164         1         0
     53167         1         0     53170         1         0     53173         1         0
     53176         1         0     53179         1         0     53182         1         0
     53185         1         0     53188         1         0     53191         1         0
     53194         1         0     53197         1         0     53200         1         0
     53203         1         0     53206         1         0     53209         1         0
     53212         1         0     53215         1         0     53218         1         0
     53221         1         0     53224         1         0     53227         1         0
     53230         1         0     53233         1         0     53236         1         0
     53239         1         0     53242         1         0     53245         1         0
     53248         1         0     53251         1         0     53254         1         0
     53257         1         0     53260         1         0     53263         1         0
     53266         1         0     53269         1         0     53272         1         0
     53275         1         0     53278         1         0     53281         1         0
     53284         1         0     53287         1         0     53290         1         0
     53293         1         0     53296         1         0     53299         1         0
     53302         1         0     53305         1         0     53308         1         0
     53311         1         0     53314         1         0     53317         1         0
     53320         1         0     53323         1         0     53326         1         0
     53329         1         0     53332         1         0     53335         1         0
     53338         1         0     53341         1         0     53344         1         0
     53347         1         0     53350         1         0     53353         1         0
     53356         1         0     53359         1         0     53362         1         0
     53365         1         0     53368         1         0     53371         1         0
     53374         1         0     53377         1         0     53380         1         0
     53383         1         0     53386         1         0     53389         1         0
     53392         1         0     53395         1         0     53398         1         0
     53401         1         0     53404         1         0     53407         1         0
     53410         1         0     53413         1         0     53416         1         0
     53419         1         0     53422         1         0     53425         1         0
     53428         1         0     53431         1         0     53434         1         0
     53437         1         0     53440         1         0     53443         1         0
     53446         1         0     53449         1         0     53452         1         0
     53455         1         0     53458         1         0     53461         1         0
     53464         1         0     53467         1         0     53470         1         0
     53473         1         0     53476         1         0     53479         1         0
     53482         1         0     53485         1         0     53488         1         0
     53491         1         0     53494         1         0     53497         1         0
     53500         1         0     53503         1         0     53506         1         0
     53509         1         0     53512         1         0     53515         1         0
     53518         1         0     53521         1         0     53524         1         0
     53527         1         0     53530         1         0     53533         1         0
     53536         1         0     53539         1         0     53542         1         0
     53545         1         0     53548         1         0     53551         1         0
     53554         1         0     53557         1         0     53560         1         0
     53563         1         0     53566         1         0     53569         1         0
     53572         1         0     53575         1         0     53578         1         0
     53581         1         0     53584         1         0     53587         1         0
     53590         1         0     53593         1         0     53596         1         0
     53599         1         0     53602         1         0     53605         1         0
     53608         1         0     53611         1         0     53614         1         0
     53617         1         0     53620         1         0     53623         1         0
     53626         1         0     53629         1         0     53632         1         0
     53635         1         0     53638         1         0     53641         1         0
     53644         1         0     53647         1         0     53650         1         0
     53653         1         0     53656         1         0     53659         1         0
     53662         1         0     53665         1         0     53668         1         0
     53671         1         0     53674         1         0     53677         1         0
     53680         1         0     53683         1         0     53686         1         0
     53689         1         0     53692         1         0     53695         1         0
     53698         1         0     53701         1         0     53704         1         0
     53707         1         0     53710         1         0     53713         1         0
     53716         1         0     53719         1         0     53722         1         0
     53725         1         0     53728         1         0     53731         1         0
     53734         1         0     53737         1         0     53740         1         0
     53743         1         0     53746         1         0     53749         1         0
     53752         1         0     53755         1         0     53758         1         0
     53761         1         0     53764         1         0     53767         1         0
     53770         1         0     53773         1         0     53776         1         0
     53779         1         0     53782         1         0     53785         1         0
     53788         1         0     53791         1         0     53794         1         0
     53797         1         0     53800         1         0     53803         1         0
     53806         1         0     53809         1         0     53812         1         0
     53815         1         0     53818         1         0     53821         1         0
     53824         1         0     53827         1         0     53830         1         0
     53833         1         0     53836         1         0     53839         1         0
     53842         1         0     53845         1         0     53848         1         0
     53851         1         0     53854         1         0     53857         1         0
     53860         1         0     53863         1         0     53866         1         0
     53869         1         0     53872         1         0     53875         1         0
     53878         1         0     53881         1         0     53884         1         0
     53887         1         0     53890         1         0     53893         1         0
     53896         1         0     53899         1         0     53902         1         0
     53905         1         0     53908         1         0     53911         1         0
     53914         1         0     53917         1         0     53920         1         0
     53923         1         0     53926         1         0     53929         1         0
     53932         1         0     53935         1         0     53938         1         0
     53941         1         0     53944         1         0     53947         1         0
     53950         1         0     53953         1         0     53956         1         0
     53959         1         0     53962         1         0     53965         1         0
     53968         1         0     53971         1         0     53974         1         0
     53977         1         0     53980         1         0     53983         1         0
     53986         1         0     53989         1         0     53992         1         0
     53995         1         0     53998         1         0     54001         1         0
     54004         1         0     54007         1         0     54010         1         0
     54013         1         0     54016         1         0     54019         1         0
     54022         1         0     54025         1         0     54028         1         0
     54031         1         0     54034         1         0     54037         1         0
     54040         1         0     54043         1         0     54046         1         0
     54049         1         0     54052         1         0     54055         1         0
     54058         1         0     54061         1         0     54064         1         0
     54067         1         0     54070         1         0     54073         1         0
     54076         1         0     54079         1         0     54082         1         0
     54085         1         0     54088         1         0     54091         1         0
     54094         1         0     54097         1         0     54100         1         0
     54103         1         0     54106         1         0     54109         1         0
     54112         1         0     54115         1         0     54118         1         0
     54121         1         0     54124         1         0     54127         1         0
     54130         1         0     54133         1         0     54136         1         0
     54139         1         0     54142         1         0     54145         1         0
     54148         1         0     54151         1         0     54154         1         0
     54157         1         0     54160         1         0     54163         1         0
     54166         1         0     54169         1         0     54172         1         0
     54175         1         0     54178         1         0     54181         1         0
     54184         1         0     54187         1         0     54190         1         0
     54193         1         0     54196         1         0     54199         1         0
     54202         1         0     54205         1         0     54208         1         0
     54211         1         0     54214         1         0     54217         1         0
     54220         1         0     54223         1         0     54226         1         0
     54229         1         0     54232         1         0     54235         1         0
     54238         1         0     54241         1         0     54244         1         0
     54247         1         0     54250         1         0     54253         1         0
     54256         1         0     54259         1         0     54262         1         0
     54265         1         0     54268         1         0     54271         1         0
     54274         1         0     54277         1         0     54280         1         0
     54283         1         0     54286         1         0     54289         1         0
     54292         1         0     54295         1         0     54298         1         0
     54301         1         0     54304         1         0     54307         1         0
     54310         1         0     54313         1         0     54316         1         0
     54319         1         0     54322         1         0     54325         1         0
     54328         1         0     54331         1         0     54334         1         0
     54337         1         0     54340         1         0     54343         1         0
     54346         1         0     54349         1         0     54352         1         0
     54355         1         0     54358         1         0     54361         1         0
     54364         1         0     54367         1         0     54370         1         0
     54373         1         0     54376         1         0     54379         1         0
     54382         1         0     54385         1         0     54388         1         0
     54391         1         0     54394         1         0     54397         1         0
     54400         1         0     54403         1         0     54406         1         0
     54409         1         0     54412         1         0     54415         1         0
     54418         1         0     54421         1         0     54424         1         0
     54427         1         0     54430         1         0     54433         1         0
     54436         1         0     54439         1         0     54442         1         0
     54445         1         0     54448         1         0     54451         1         0
     54454         1         0     54457         1         0     54460         1         0
     54463         1         0     54466         1         0     54469         1         0
     54472         1         0     54475         1         0     54478         1         0
     54481         1         0     54484         1         0     54487         1         0
     54490         1         0     54493         1         0     54496         1         0
     54499         1         0     54502         1         0     54505         1         0
     54508         1         0     54511         1         0     54514         1         0
     54517         1         0     54520         1         0     54523         1         0
     54526         1         0     54529         1         0     54532         1         0
     54535         1         0     54538         1         0     54541         1         0
     54544         1         0     54547         1         0     54550         1         0
     54553         1         0     54556         1         0     54559         1         0
     54562         1         0     54565         1         0     54568         1         0
     54571         1         0     54574         1         0     54577         1         0
     54580         1         0     54583         1         0     54586         1         0
     54589         1         0     54592         1         0     54595         1         0
     54598         1         0     54601         1         0     54604         1         0
     54607         1         0     54610         1         0     54613         1         0
     54616         1         0     54619         1         0     54622         1         0
     54625         1         0     54628         1         0     54631         1         0
     54634         1         0     54637         1         0     54640         1         0
     54643         1         0     54646         1         0     54649         1         0
     54652         1         0     54655         1         0     54658         1         0
     54661         1         0     54664         1         0     54667         1         0
     54670         1         0     54673         1         0     54676         1         0
     54679         1         0     54682         1         0     54685         1         0
     54688         1         0     54691         1         0     54694         1         0
     54697         1         0     54700         1         0     54703         1         0
     54706         1         0     54709         1         0     54712         1         0
     54715         1         0     54718         1         0     54721         1         0
     54724         1         0     54727         1         0     54730         1         0
     54733         1         0     54736         1         0     54739         1         0
     54742         1         0     54745         1         0     54748         1         0
     54751         1         0     54754         1         0     54757         1         0
     54760         1         0     54763         1         0     54766         1         0
     54769         1         0     54772         1         0     54775         1         0
     54778         1         0     54781         1         0     54784         1         0
     54787         1         0     54790         1         0     54793         1         0
     54796         1         0     54799         1         0     54802         1         0
     54805         1         0     54808         1         0     54811         1         0
     54814         1         0     54817         1         0     54820         1         0
     54823         1         0     54826         1         0     54829         1         0
     54832         1         0     54835         1         0     54838         1         0
     54841         1         0     54844         1         0     54847         1         0
     54850         1         0     54853         1         0     54856         1         0
     54859         1         0     54862         1         0     54865         1         0
     54868         1         0     54871         1         0     54874         1         0
     54877         1         0     54880         1         0     54883         1         0
     54886         1         0     54889         1         0     54892         1         0
     54895         1         0     54898         1         0     54901         1         0
     54904         1         0     54907         1         0     54910         1         0
     54913         1         0     54916         1         0     54919         1         0
     54922         1         0     54925         1         0     54928         1         0
     54931         1         0     54934         1         0     54937         1         0
     54940         1         0     54943         1         0     54946         1         0
     54949         1         0     54952         1         0     54955         1         0
     54958         1         0     54961         1         0     54964         1         0
     54967         1         0     54970         1         0     54973         1         0
     54976         1         0     54979         1         0     54982         1         0
     54985         1         0     54988         1         0     54991         1         0
     54994         1         0     54997         1         0     55000         1         0
     55003         1         0     55006         1         0     55009         1         0
     55012         1         0     55015         1         0     55018         1         0
     55021         1         0     55024         1         0     55027         1         0
     55030         1         0     55033         1         0     55036         1         0
     55039         1         0     55042         1         0     55045         1         0
     55048         1         0     55051         1         0     55054         1         0
     55057         1         0     55060         1         0     55063         1         0
     55066         1         0     55069         1         0     55072         1         0
     55075         1         0     55078         1         0     55081         1         0
     55084         1         0     55087         1         0     55090         1         0
     55093         1         0     55096         1         0     55099         1         0
     55102         1         0     55105         1         0     55108         1         0
     55111         1         0     55114         1         0     55117         1         0
     55120         1         0     55123         1         0     55126         1         0
     55129         1         0     55132         1         0     55135         1         0
     55138         1         0     55141         1         0     55144         1         0
     55147         1         0     55150         1         0     55153         1         0
     55156         1         0     55159         1         0     55162         1         0
     55165         1         0     55168         1         0     55171         1         0
     55174         1         0     55177         1         0     55180         1         0
     55183         1         0     55186         1         0     55189         1         0
     55192         1         0     55195         1         0     55198         1         0
     55201         1         0     55204         1         0     55207         1         0
     55210         1         0     55213         1         0     55216         1         0
     55219         1         0     55222         1         0     55225         1         0
     55228         1         0     55231         1         0     55234         1         0
     55237         1         0     55240         1         0     55243         1         0
     55246         1         0     55249         1         0     55252         1         0
     55255         1         0     55258         1         0     55261         1         0
     55264         1         0     55267         1         0     55270         1         0
     55273         1         0     55276         1         0     55279         1         0
     55282         1         0     55285         1         0     55288         1         0
     55291         1         0     55294         1         0     55297         1         0
     55300         1         0     55303         1         0     55306         1         0
     55309         1         0     55312         1         0     55315         1         0
     55318         1         0     55321         1         0     55324         1         0
     55327         1         0     55330         1         0     55333         1         0
     55336         1         0     55339         1         0     55342         1         0
     55345         1         0     55348         1         0     55351         1         0
     55354         1         0     55357         1         0     55360         1         0
     55363         1         0     55366         1         0     55369         1         0
     55372         1         0     55375         1         0     55378         1         0
     55381         1         0     55384         1         0     55387         1         0
     55390         1         0     55393         1         0     55396         1         0
     55399         1         0     55402         1         0     55405         1         0
     55408         1         0     55411         1         0     55414         1         0
     55417         1         0     55420         1         0     55423         1         0
     55426         1         0     55429         1         0     55432         1         0
     55435         1         0     55438         1         0     55441         1         0
     55444         1         0     55447         1         0     55450         1         0
     55453         1         0     55456         1         0     55459         1         0
     55462         1         0     55465         1         0     55468         1         0
     55471         1         0     55474         1         0     55477         1         0
     55480         1         0     55483         1         0     55486         1         0
     55489         1         0     55492         1         0     55495         1         0
     55498         1         0     55501         1         0     55504         1         0
     55507         1         0     55510         1         0     55513         1         0
     55516         1         0     55519         1         0     55522         1         0
     55525         1         0     55528         1         0     55531         1         0
     55534         1         0     55537         1         0     55540         1         0
     55543         1         0     55546         1         0     55549         1         0
     55552         1         0     55555         1         0     55558         1         0
     55561         1         0     55564         1         0     55567         1         0
     55570         1         0     55573         1         0     55576         1         0
     55579         1         0     55582         1         0     55585         1         0
     55588         1         0     55591         1         0     55594         1         0
     55597         1         0     55600         1         0     55603         1         0
     55606         1         0     55609         1         0     55612         1         0
     55615         1         0     55618         1         0     55621         1         0
     55624         1         0     55627         1         0     55630         1         0
     55633         1         0     55636         1         0     55639         1         0
     55642         1         0     55645         1         0     55648         1         0
     55651         1         0     55654         1         0     55657         1         0
     55660         1         0     55663         1         0     55666         1         0
     55669         1         0     55672         1         0     55675         1         0
     55678         1         0     55681         1         0     55684         1         0
     55687         1         0     55690         1         0     55693         1         0
     55696         1         0     55699         1         0     55702         1         0
     55705         1         0     55708         1         0     55711         1         0
     55714         1         0     55717         1         0     55720         1         0
     55723         1         0     55726         1         0     55729         1         0
     55732         1         0     55735         1         0     55738         1         0
     55741         1         0     55744         1         0     55747         1         0
     55750         1         0     55753         1         0     55756         1         0
     55759         1         0     55762         1         0     55765         1         0
     55768         1         0     55771         1         0     55774         1         0
     55777         1         0     55780         1         0     55783         1         0
     55786         1         0     55789         1         0     55792         1         0
     55795         1         0     55798         1         0     55801         1         0
     55804         1         0     55807         1         0     55810         1         0
     55813         1         0     55816         1         0     55819         1         0
     55822         1         0     55825         1         0     55828         1         0
     55831         1         0     55834         1         0     55837         1         0
     55840         1         0     55843         1         0     55846         1         0
     55849         1         0     55852         1         0     55855         1         0
     55858         1         0     55861         1         0     55864         1         0
     55867         1         0     55870         1         0     55873         1         0
     55876         1         0     55879         1         0     55882         1         0
     55885         1         0     55888         1         0     55891         1         0
     55894         1         0     55897         1         0     55900         1         0
     55903         1         0     55906         1         0     55909         1         0
     55912         1         0     55915         1         0     55918         1         0
     55921         1         0     55924         1         0     55927         1         0
     55930         1         0     55933         1         0     55936         1         0
     55939         1         0     55942         1         0     55945         1         0
     55948         1         0     55951         1         0     55954         1         0
     55957         1         0     55960         1         0     55963         1         0
     55966         1         0     55969         1         0     55972         1         0
     55975         1         0     55978         1         0     55981         1         0
     55984         1         0     55987         1         0     55990         1         0
     55993         1         0     55996         1         0     55999         1         0
     56002         1         0     56005         1         0     56008         1         0
     56011         1         0     56014         1         0     56017         1         0
     56020         1         0     56023         1         0     56026         1         0
     56029         1         0     56032         1         0     56035         1         0
     56038         1         0     56041         1         0     56044         1         0
     56047         1         0     56050         1         0     56053         1         0
     56056         1         0     56059         1         0     56062         1         0
     56065         1         0     56068         1         0     56071         1         0
     56074         1         0     56077         1         0     56080         1         0
     56083         1         0     56086         1         0     56089         1         0
     56092         1         0     56095         1         0     56098         1         0
     56101         1         0     56104         1         0     56107         1         0
     56110         1         0     56113         1         0     56116         1         0
     56119         1         0     56122         1         0     56125         1         0
     56128         1         0     56131         1         0     56134         1         0
     56137         1         0     56140         1         0     56143         1         0
     56146         1         0     56149         1         0     56152         1         0
     56155         1         0     56158         1         0     56161         1         0
     56164         1         0     56167         1         0     56170         1         0
     56173         1         0     56176         1         0     56179         1         0
     56182         1         0     56185         1         0     56188         1         0
     56191         1         0     56194         1         0     56197         1         0
     56200         1         0     56203         1         0     56206         1         0
     56209         1         0     56212         1         0     56215         1         0
     56218         1         0     56221         1         0     56224         1         0
     56227         1         0     56230         1         0     56233         1         0
     56236         1         0     56239         1         0     56242         1         0
     56245         1         0     56248         1         0     56251         1         0
     56254         1         0     56257         1         0     56260         1         0
     56263         1         0     56266         1         0     56269         1         0
     56272         1         0     56275         1         0     56278         1         0
     56281         1         0     56284         1         0     56287         1         0
     56290         1         0     56293         1         0     56296         1         0
     56299         1         0     56302         1         0     56305         1         0
     56308         1         0     56311         1         0     56314         1         0
     56317         1         0     56320         1         0     56323         1         0
     56326         1         0     56329         1         0     56332         1         0
     56335         1         0     56338         1         0     56341         1         0
     56344         1         0     56347         1         0     56350         1         0
     56353         1         0     56356         1         0     56359         1         0
     56362         1         0     56365         1         0     56368         1         0
     56371         1         0     56374         1         0     56377         1         0
     56380         1         0     56383         1         0     56386         1         0
     56389         1         0     56392         1         0     56395         1         0
     56398         1         0     56401         1         0     56404         1         0
     56407         1         0     56410         1         0     56413         1         0
     56416         1         0     56419         1         0     56422         1         0
     56425         1         0     56428         1         0     56431         1         0
     56434         1         0     56437         1         0     56440         1         0
     56443         1         0     56446         1         0     56449         1         0
     56452         1         0     56455         1         0     56458         1         0
     56461         1         0     56464         1         0     56467         1         0
     56470         1         0     56473         1         0     56476         1         0
     56479         1         0     56482         1         0     56485         1         0
     56488         1         0     56491         1         0     56494         1         0
     56497         1         0     56500         1         0     56503         1         0
     56506         1         0     56509         1         0     56512         1         0
     56515         1         0     56518         1         0     56521         1         0
     56524         1         0     56527         1         0     56530         1         0
     56533         1         0     56536         1         0     56539         1         0
     56542         1         0     56545         1         0     56548         1         0
     56551         1         0     56554         1         0     56557         1         0
     56560         1         0     56563         1         0     56566         1         0
     56569         1         0     56572         1         0     56575         1         0
     56578         1         0     56581         1         0     56584         1         0
     56587         1         0     56590         1         0     56593         1         0
     56596         1         0     56599         1         0     56602         1         0
     56605         1         0     56608         1         0     56611         1         0
     56614         1         0     56617         1         0     56620         1         0
     56623         1         0     56626         1         0     56629         1         0
     56632         1         0     56635         1         0     56638         1         0
     56641         1         0     56644         1         0     56647         1         0
     56650         1         0     56653         1         0     56656         1         0
     56659         1         0     56662         1         0     56665         1         0
     56668         1         0     56671         1         0     56674         1         0
     56677         1         0     56680         1         0     56683         1         0
     56686         1         0     56689         1         0     56692         1         0
     56695         1         0     56698         1         0     56701         1         0
     56704         1         0     56707         1         0     56710         1         0
     56713         1         0     56716         1         0     56719         1         0
     56722         1         0     56725         1         0     56728         1         0
     56731         1         0     56734         1         0     56737         1         0
     56740         1         0     56743         1         0     56746         1         0
     56749         1         0     56752         1         0     56755         1         0
     56758         1         0     56761         1         0     56764         1         0
     56767         1         0     56770         1         0     56773         1         0
     56776         1         0     56779         1         0     56782         1         0
     56785         1         0     56788         1         0     56791         1         0
     56794         1         0     56797         1         0     56800         1         0
     56803         1         0     56806         1         0     56809         1         0
     56812         1         0     56815         1         0     56818         1         0
     56821         1         0     56824         1         0     56827         1         0
     56830         1         0     56833         1         0     56836         1         0
     56839         1         0     56842         1         0     56845         1         0
     56848         1         0     56851         1         0     56854         1         0
     56857         1         0     56860         1         0     56863         1         0
     56866         1         0     56869         1         0     56872         1         0
     56875         1         0     56878         1         0     56881         1         0
     56884         1         0     56887         1         0     56890         1         0
     56893         1         0     56896         1         0     56899         1         0
     56902         1         0     56905         1         0     56908         1         0
     56911         1         0     56914         1         0     56917         1         0
     56920         1         0     56923         1         0     56926         1         0
     56929         1         0     56932         1         0     56935         1         0
     56938         1         0     56941         1         0     56944         1         0
     56947         1         0     56950         1         0     56953         1         0
     56956         1         0     56959         1         0     56962         1         0
     56965         1         0     56968         1         0     56971         1         0
     56974         1         0     56977         1         0     56980         1         0
     56983         1         0     56986         1         0     56989         1         0
     56992         1         0     56995         1         0     56998         1         0
     57001         1         0     57004         1         0     57007         1         0
     57010         1         0     57013         1         0     57016         1         0
     57019         1         0     57022         1         0     57025         1         0
     57028         1         0     57031         1         0     57034         1         0
     57037         1         0     57040         1         0     57043         1         0
     57046         1         0     57049         1         0     57052         1         0
     57055         1         0     57058         1         0     57061         1         0
     57064         1         0     57067         1         0     57070         1         0
     57073         1         0     57076         1         0     57079         1         0
     57082         1         0     57085         1         0     57088         1         0
     57091         1         0     57094         1         0     57097         1         0
     57100         1         0     57103         1         0     57106         1         0
     57109         1         0     57112         1         0     57115         1         0
     57118         1         0     57121         1         0     57124         1         0
     57127         1         0     57130         1         0     57133         1         0
     57136         1         0     57139         1         0     57142         1         0
     57145         1         0     57148         1         0     57151         1         0
     57154         1         0     57157         1         0     57160         1         0
     57163         1         0     57166         1         0     57169         1         0
     57172         1         0     57175         1         0     57178         1         0
     57181         1         0     57184         1         0     57187         1         0
     57190         1         0     57193         1         0     57196         1         0
     57199         1         0     57202         1         0     57205         1         0
     57208         1         0     57211         1         0     57214         1         0
     57217         1         0     57220         1         0     57223         1         0
     57226         1         0     57229         1         0     57232         1         0
     57235         1         0     57238         1         0     57241         1         0
     57244         1         0     57247         1         0     57250         1         0
     57253         1         0     57256         1         0     57259         1         0
     57262         1         0     57265         1         0     57268         1         0
     57271         1         0     57274         1         0     57277         1         0
     57280         1         0     57283         1         0     57286         1         0
     57289         1         0     57292         1         0     57295         1         0
     57298         1         0     57301         1         0     57304         1         0
     57307         1         0     57310         1         0     57313         1         0
     57316         1         0     57319         1         0     57322         1         0
     57325         1         0     57328         1         0     57331         1         0
     57334         1         0     57337         1         0     57340         1         0
     57343         1         0     57346         1         0     57349         1         0
     57352         1         0     57355         1         0     57358         1         0
     57361         1         0     57364         1         0     57367         1         0
     57370         1         0     57373         1         0     57376         1         0
     57379         1         0     57382         1         0     57385         1         0
     57388         1         0     57391         1         0     57394         1         0
     57397         1         0     57400         1         0     57403         1         0
     57406         1         0     57409         1         0     57412         1         0
     57415         1         0     57418         1         0     57421         1         0
     57424         1         0     57427         1         0     57430         1         0
     57433         1         0     57436         1         0     57439         1         0
     57442         1         0     57445         1         0     57448         1         0
     57451         1         0     57454         1         0     57457         1         0
     57460         1         0     57463         1         0     57466         1         0
     57469         1         0     57472         1         0     57475         1         0
     57478         1         0     57481         1         0     57484         1         0
     57487         1         0     57490         1         0     57493         1         0
     57496         1         0     57499         1         0     57502         1         0
     57505         1         0     57508         1         0     57511         1         0
     57514         1         0     57517         1         0     57520         1         0
     57523         1         0     57526         1         0     57529         1         0
     57532         1         0     57535         1         0     57538         1         0
     57541         1         0     57544         1         0     57547         1         0
     57550         1         0     57553         1         0     57556         1         0
     57559         1         0     57562         1         0     57565         1         0
     57568         1         0     57571         1         0     57574         1         0
     57577         1         0     57580         1         0     57583         1         0
     57586         1         0     57589         1         0     57592         1         0
     57595         1         0     57598         1         0     57601         1         0
     57604         1         0     57607         1         0     57610         1         0
     57613         1         0     57616         1         0     57619         1         0
     57622         1         0     57625         1         0     57628         1         0
     57631         1         0     57634         1         0     57637         1         0
     57640         1         0     57643         1         0     57646         1         0
     57649         1         0     57652         1         0     57655         1         0
     57658         1         0     57661         1         0     57664         1         0
     57667         1         0     57670         1         0     57673         1         0
     57676         1         0     57679         1         0     57682         1         0
     57685         1         0     57688         1         0     57691         1         0
     57694         1         0     57697         1         0     57700         1         0
     57703         1         0     57706         1         0     57709         1         0
     57712         1         0     57715         1         0     57718         1         0
     57721         1         0     57724         1         0     57727         1         0
     57730         1         0     57733         1         0     57736         1         0
     57739         1         0     57742         1         0     57745         1         0
     57748         1         0     57751         1         0     57754         1         0
     57757         1         0     57760         1         0     57763         1         0
     57766         1         0     57769         1         0     57772         1         0
     57775         1         0     57778         1         0     57781         1         0
     57784         1         0     57787         1         0     57790         1         0
     57793         1         0     57796         1         0     57799         1         0
     57802         1         0     57805         1         0     57808         1         0
     57811         1         0     57814         1         0     57817         1         0
     57820         1         0     57823         1         0     57826         1         0
     57829         1         0     57832         1         0     57835         1         0
     57838         1         0     57841         1         0     57844         1         0
     57847         1         0     57850         1         0     57853         1         0
     57856         1         0     57859         1         0     57862         1         0
     57865         1         0     57868         1         0     57871         1         0
     57874         1         0     57877         1         0     57880         1         0
     57883         1         0     57886         1         0     57889         1         0
     57892         1         0     57895         1         0     57898         1         0
     57901         1         0     57904         1         0     57907         1         0
     57910         1         0     57913         1         0     57916         1         0
     57919         1         0     57922         1         0     57925         1         0
     57928         1         0     57931         1         0     57934         1         0
     57937         1         0     57940         1         0     57943         1         0
     57946         1         0     57949         1         0     57952         1         0
     57955         1         0     57958         1         0     57961         1         0
     57964         1         0     57967         1         0     57970         1         0
     57973         1         0     57976         1         0     57979         1         0
     57982         1         0     57985         1         0     57988         1         0
     57991         1         0     57994         1         0     57997         1         0
     58000         1         0     58003         1         0     58006         1         0
     58009         1         0     58012         1         0     58015         1         0
     58018         1         0     58021         1         0     58024         1         0
     58027         1         0     58030         1         0     58033         1         0
     58036         1         0     58039         1         0     58042         1         0
     58045         1         0     58048         1         0     58051         1         0
     58054         1         0     58057         1         0     58060         1         0
     58063         1         0     58066         1         0     58069         1         0
     58072         1         0     58075         1         0     58078         1         0
     58081         1         0     58084         1         0     58087         1         0
     58090         1         0     58093         1         0     58096         1         0
     58099         1         0     58102         1         0     58105         1         0
     58108         1         0     58111         1         0     58114         1         0
     58117         1         0     58120         1         0     58123         1         0
     58126         1         0     58129         1         0     58132         1         0
     58135         1         0     58138         1         0     58141         1         0
     58144         1         0     58147         1         0     58150         1         0
     58153         1         0     58156         1         0     58159         1         0
     58162         1         0     58165         1         0     58168         1         0
     58171         1         0     58174         1         0     58177         1         0
     58180         1         0     58183         1         0     58186         1         0
     58189         1         0     58192         1         0     58195         1         0
     58198         1         0     58201         1         0     58204         1         0
     58207         1         0     58210         1         0     58213         1         0
     58216         1         0     58219         1         0     58222         1         0
     58225         1         0     58228         1         0     58231         1         0
     58234         1         0     58237         1         0     58240         1         0
     58243         1         0     58246         1         0     58249         1         0
     58252         1         0     58255         1         0     58258         1         0
     58261         1         0     58264         1         0     58267         1         0
     58270         1         0     58273         1         0     58276         1         0
     58279         1         0     58282         1         0     58285         1         0
     58288         1         0     58291         1         0     58294         1         0
     58297         1         0     58300         1         0     58303         1         0
     58306         1         0     58309         1         0     58312         1         0
     58315         1         0     58318         1         0     58321         1         0
     58324         1         0     58327         1         0     58330         1         0
     58333         1         0     58336         1         0     58339         1         0
     58342         1         0     58345         1         0     58348         1         0
     58351         1         0     58354         1         0     58357         1         0
     58360         1         0     58363         1         0     58366         1         0
     58369         1         0     58372         1         0     58375         1         0
     58378         1         0     58381         1         0     58384         1         0
     58387         1         0     58390         1         0     58393         1         0
     58396         1         0     58399         1         0     58402         1         0
     58405         1         0     58408         1         0     58411         1         0
     58414         1         0     58417         1         0     58420         1         0
     58423         1         0     58426         1         0     58429         1         0
     58432         1         0     58435         1         0     58438         1         0
     58441         1         0     58444         1         0     58447         1         0
     58450         1         0     58453         1         0     58456         1         0
     58459         1         0     58462         1         0     58465         1         0
     58468         1         0     58471         1         0     58474         1         0
     58477         1         0     58480         1         0     58483         1         0
     58486         1         0     58489         1         0     58492         1         0
     58495         1         0     58498         1         0     58501         1         0
     58504         1         0     58507         1         0     58510         1         0
     58513         1         0     58516         1         0     58519         1         0
     58522         1         0     58525         1         0     58528         1         0
     58531         1         0     58534         1         0     58537         1         0
     58540         1         0     58543         1         0     58546         1         0
     58549         1         0     58552         1         0     58555         1         0
     58558         1         0     58561         1         0     58564         1         0
     58567         1         0     58570         1         0     58573         1         0
     58576         1         0     58579         1         0     58582         1         0
     58585         1         0     58588         1         0     58591         1         0
     58594         1         0     58597         1         0     58600         1         0
     58603         1         0     58606         1         0     58609         1         0
     58612         1         0     58615         1         0     58618         1         0
     58621         1         0     58624         1         0     58627         1         0
     58630         1         0     58633         1         0     58636         1         0
     58639         1         0     58642         1         0     58645         1         0
     58648         1         0     58651         1         0     58654         1         0
     58657         1         0     58660         1         0     58663         1         0
     58666         1         0     58669         1         0     58672         1         0
     58675         1         0     58678         1         0     58681         1         0
     58684         1         0     58687         1         0     58690         1         0
     58693         1         0     58696         1         0     58699         1         0
     58702         1         0     58705         1         0     58708         1         0
     58711         1         0     58714         1         0     58717         1         0
     58720         1         0     58723         1         0     58726         1         0
     58729         1         0     58732         1         0     58735         1         0
     58738         1         0     58741         1         0     58744         1         0
     58747         1         0     58750         1         0     58753         1         0
     58756         1         0     58759         1         0     58762         1         0
     58765         1         0     58768         1         0     58771         1         0
     58774         1         0     58777         1         0     58780         1         0
     58783         1         0     58786         1         0     58789         1         0
     58792         1         0     58795         1         0     58798         1         0
     58801         1         0     58804         1         0     58807         1         0
     58810         1         0     58813         1         0     58816         1         0
     58819         1         0     58822         1         0     58825         1         0
     58828         1         0     58831         1         0     58834         1         0
     58837         1         0     58840         1         0     58843         1         0
     58846         1         0     58849         1         0     58852         1         0
     58855         1         0     58858         1         0     58861         1         0
     58864         1         0     58867         1         0     58870         1         0
     58873         1         0     58876         1         0     58879         1         0
     58882         1         0     58885         1         0     58888         1         0
     58891         1         0     58894         1         0     58897         1         0
     58900         1         0     58903         1         0     58906         1         0
     58909         1         0     58912         1         0     58915         1         0
     58918         1         0     58921         1         0     58924         1         0
     58927         1         0     58930         1         0     58933         1         0
     58936         1         0     58939         1         0     58942         1         0
     58945         1         0     58948         1         0     58951         1         0
     58954         1         0     58957         1         0     58960         1         0
     58963         1         0     58966         1         0     58969         1         0
     58972         1         0     58975         1         0     58978         1         0
     58981         1         0     58984         1         0     58987         1         0
     58990         1         0     58993         1         0     58996         1         0
     58999         1         0     59002         1         0     59005         1         0
     59008         1         0     59011         1         0     59014         1         0
     59017         1         0     59020         1         0     59023         1         0
     59026         1         0     59029         1         0     59032         1         0
     59035         1         0     59038         1         0     59041         1         0
     59044         1         0     59047         1         0     59050         1         0
     59053         1         0     59056         1         0     59059         1         0
     59062         1         0     59065         1         0     59068         1         0
     59071         1         0     59074         1         0     59077         1         0
     59080         1         0     59083         1         0     59086         1         0
     59089         1         0     59092         1         0     59095         1         0
     59098         1         0     59101         1         0     59104         1         0
     59107         1         0     59110         1         0     59113         1         0
     59116         1         0     59119         1         0     59122         1         0
     59125         1         0     59128         1         0     59131         1         0
     59134         1         0     59137         1         0     59140         1         0
     59143         1         0     59146         1         0     59149         1         0
     59152         1         0     59155         1         0     59158         1         0
     59161         1         0     59164         1         0     59167         1         0
     59170         1         0     59173         1         0     59176         1         0
     59179         1         0     59182         1         0     59185         1         0
     59188         1         0     59191         1         0     59194         1         0
     59197         1         0     59200         1         0     59203         1         0
     59206         1         0     59209         1         0     59212         1         0
     59215         1         0     59218         1         0     59221         1         0
     59224         1         0     59227         1         0     59230         1         0
     59233         1         0     59236         1         0     59239         1         0
     59242         1         0     59245         1         0     59248         1         0
     59251         1         0     59254         1         0     59257         1         0
     59260         1         0     59263         1         0     59266         1         0
     59269         1         0     59272         1         0     59275         1         0
     59278         1         0     59281         1         0     59284         1         0
     59287         1         0     59290         1         0     59293         1         0
     59296         1         0     59299         1         0     59302         1         0
     59305         1         0     59308         1         0     59311         1         0
     59314         1         0     59317         1         0     59320         1         0
     59323         1         0     59326         1         0     59329         1         0
     59332         1         0     59335         1         0     59338         1         0
     59341         1         0     59344         1         0     59347         1         0
     59350         1         0     59353         1         0     59356         1         0
     59359         1         0     59362         1         0     59365         1         0
     59368         1         0     59371         1         0     59374         1         0
     59377         1         0     59380         1         0     59383         1         0
     59386         1         0     59389         1         0     59392         1         0
     59395         1         0     59398         1         0     59401         1         0
     59404         1         0     59407         1         0     59410         1         0
     59413         1         0     59416         1         0     59419         1         0
     59422         1         0     59425         1         0     59428         1         0
     59431         1         0     59434         1         0     59437         1         0
     59440         1         0     59443         1         0     59446         1         0
     59449         1         0     59452         1         0     59455         1         0
     59458         1         0     59461         1         0     59464         1         0
     59467         1         0     59470         1         0     59473         1         0
     59476         1         0     59479         1         0     59482         1         0
     59485         1         0     59488         1         0     59491         1         0
     59494         1         0     59497         1         0     59500         1         0
     59503         1         0     59506         1         0     59509         1         0
     59512         1         0     59515         1         0     59518         1         0
     59521         1         0     59524         1         0     59527         1         0
     59530         1         0     59533         1         0     59536         1         0
     59539         1         0     59542         1         0     59545         1         0
     59548         1         0     59551         1         0     59554         1         0
     59557         1         0     59560         1         0     59563         1         0
     59566         2         0     59567         2         0     59568         2         0
     59569         2         0     59570         2         0     59571         2         0
     59572         2         0     59573         2         0     59574         2         0
     59575         2         0     59576         2         0     59577         2         0
     59578         2         0     59579         2         0     59580         2         0
     59581         2         0     59582         2         0     59583         2         0
     59584         2         0     59585         2         0     59586         2         0
     59587         2         0     59588         2         0     59589         2         0
     59590         2         0     59591         2         0     59592         2         0
     59593         2         0     59594         2         0     59595         2         0
     59596         2         0     59597         2         0     59598         2         0
     59599         2         0     59600         2         0     59601         2         0
     59602         2         0     59603         2         0     59604         2         0
     59605         2         0     59606         2         0     59607         2         0
     59608         2         0     59609         2         0     59610         2         0
     59611         2         0     59612         2         0     59613         2         0
     59614         2         0     59615         2         0     59616         2         0
     59617         2         0     59618         2         0     59619         2         0
     59620         2         0     59621         2         0     59622         2         0
     59623         2         0     59624         2         0     59625         2         0
     59626         2         0     59627         2         0     59628         2         0
     59629         2         0     59630         2         0     59631         2         0
     59632         2         0     59633         2         0     59634         2         0
     59635         2         0     59636         2         0     59637         2         0
     59638         2         0     59639         2         0     59640         2         0
     59641         2         0     59642         2         0     59643         2         0
     59644         2         0     59645         2         0     59646         2         0
     59647         2         0     59648         2         0     59649         2         0
     59650         2         0     59651         2         0     59652         2         0
     59653         2         0     59654         2         0     59655         2         0
     59656         2         0     59657         2         0     59658         2         0
     59659         2         0     59660         2         0     59661         2         0
     59662         2         0     59663         2         0     59664         2         0
     59665         2         0     59666         2         0     59667         2         0
     59668         2         0     59669         2         0     59670         2         0
     59671         2         0

         5 !MOLNT
         3         3         3         3         3         3         3         3
         3         3         3         3         3         3         3         3
         3         3         3         3         3         3         3         3
         3         3         3         3         3         3         3         3
         3         3         3         3         3         3         3         3
         3         3         3         3         3         3         3         3
         3         3         3         3         3         3         3         3
         3         3         3         3         3         3         3         3
         3         3         3         3         3         3         3         3
         3         3         3         3         3         3         3         3
         3         3         3         3         3         3         3         3
         3         3         3         3         3         3         3         3
         3         3         3         3         3         3         3         3
         3         3         3         3         3         3         3         3
         3         3         3         3         3         3         3         3
         3         3         3         3         3         3         3         3
         3         3         3         3         3         3         3         3
         3         3         3         3         3         3         3         3
         3         3         3         3         3         3         3         3
         3         3         3         3         3         3         3         3
         3         3         3         3         3         3         3         3
         3         3         3         3         3         3         3         3
         3         3         3         3         3         3         3         3
         3         3         3         3         3         3         3         3
         3         3         3         3         3         3         3         3
         2         2         2         2         2         2         2         2
         2         2         2         2         2         2         2         2
         2         2         2         2         2         2         2         2
         2         2         2         2         2         2         2         2
         2         2         2         2         2         2         2         2
         2         2         2         2         2         2         2         2
         2         2         2         2         2         2         2         2
         2         2         2         2         2         2         2         2
         2         2         2         2         2         2         2         2
         2         2         2         2         2         2         2         2
         2         2         2         2         2         2         2         2
         2         2         2         2         2         2         2         2
         2         2         2         2         2         2         2         2
         2         2         2         2         2         2         2         2
         2         2         2         2         2         2         2         2
         2         2         2         2         2         2         2         2
         2         2         2         2         2         2         2         2
         2         2         2         2         2         2         2         2
         2         2         2         2         2         2         2         2
         2         2         2         2         2         2         2         2
         2         2         2         2         2         2         2         2
         2         2         2         2         2         2         2         2
         2         2         2         2         2         2         2         2
         2         2         2         2         2         2         2         2
         2         2         2         2         2         2         2         2
         2         2         2         2         2         2         2         2
         2         2         2         2         2         2         2         2
         2         2         2         2         2         2         2         2
         2         2         2         2         2         2         2         2
         2         2         2         2         2         2         2         2
         2         2         2         2         2         2         2         2
         2         2         2         2         2         2         2         2
         2         2         2         2         2         2         2         2
         2         2         2         2         2         2         2         2
         2         2         2         2         2         2         2         2
         2         2         2         2         2         2         2         2
         2         2         2         2         2         2         2         2
         2         2         2         2         2         2         2         2
         2         2         2         2         2         2         2         2
         2         2         2         2         2         2         2         2
         2         2         2         2         2         2         2         2
         2         2         2         2         2         2         2         2
         2         2         2         2         2         2         2         2
         2         2         2         2         2         2         2         2
         2         2         2         2         2         2         2         2
         2         2         2         2         2         2         2         2
         2         2         2         2         2         2         2         2
         2         2         2         2         2         2         2         2
         2         2         2         2         2         2         2         2
         2         2         2         2         2         2         2         2
         2         2         2         2         2         2         2         2
         2         2         2         2         2         2         2         2
         2         2         2         2         2         2         2         2
         2         2         2         2         2         2         2         2
         2         2         2         2         2         2         2         2
         2         2         2         2         2         2         2         2
         2         2         2         2         2         2         2         2
         2         2         2         2         2         2         2         2
         2         2         2         2         2         2         2         2
         2         2         2         2         2         2         2         2
         2         2         2         2         2         2         2         2
         2         2         2         2         2         2         2         2
         2         2         2         2         2         2         2         2
         2         2         2         2         2         2         2         2
         2         2         2         2         2         2         2         2
         2         2         2         2         2         2         2         2
         2         2         2         2         2         2         2         2
         2         2         2         2         2         2         2         2
         2         2         2         2         2         2         2         2
         2         2         2         2         2         2         2         2
         2         2         2         2         2         2         2         2
         2         2         2         2         2         2         2         2
         2         2         2         2         2         2         2         2
         2         2         2         2         2         2         2         2
         2         2         2         2         2         2         2         2
         2         2         2         2         2         2         2         2
         2         2         2         2         2         2         2         2
         2         2         2         2         2         2         2         2
         2         2         2         2         2         2         2         2
         2         2         2         2         2         2         2         2
         2         2         2         2         2         2         2         2
         2         2         2         2         2         2         2         2
         2         2         2         2         2         2         2         2
         2         2         2         2         2         2         2         2
         2         2         2         2         2         2         2         2
         2         2         2         2         2         2         2         2
         2         2         2         2         2         2         2         2
         2         2         2         2         2         2         2         2
         2         2         2         2         2         2         2         2
         2         2         2         2         2         2         2         2
         2         2         2         2         2         2         2         2
         2         2         2         2         2         2         2         2
         2         2         2         2         2         2         2         2
         2         2         2         2         2         2         2         2
         2         2         2         2         2         2         2         2
         2         2         2         2         2         2         2         2
         2         2         2         2         2         2         2         2
         2         2         2         2         2         2         2         2
         2         2         2         2         2         2         2         2
         2         2         2         2         2         2         2         2
         2         2         2         2         2         2         2         2
         2         2         2         2         2         2         2         2
         2         2         2         2         2         2         2         2
         2         2         2         2         2         2         2         2
         2         2         2         2         2         2         2         2
         2         2         2         2         2         2         2         2
         2         2         2         2         2         2         2         2
         2         2         2         2         2         2         2         2
         2         2         2         2         2         2         2         2
         2         2         2         2         2         2         2         2
         2         2         2         2         2         2         2         2
         2         2         2         2         2         2         2         2
         2         2         2         2         2         2         2         2
         2         2         2         2         2         2         2         2
         2         2         2         2         2         2         2         2
         2         2         2         2         2         2         2         2
         2         2         2         2         2         2         2         2
         2         2         2         2         2         2         2         2
         2         2         2         2         2         2         2         2
         2         2         2         2         2         2         2         2
         2         2         2         2         2         2         2         2
         2         2         2         2         2         2         2         2
         2         2         2         2         2         2         2         2
         2         2         2         2         2         2         2         2
         2         2         2         2         2         2         2         2
         2         2         2         2         2         2         2         2
         2         2         2         2         2         2         2         2
         2         2         2         2         2         2         2         2
         2         2         2         2         2         2         2         2
         2         2         2         2         2         2         2         2
         2         2         2         2         2         2         2         2
         2         2         2         2         2         2         2         2
         2         2         2         2         2         2         2         2
         2         2         2         2         2         2         2         2
         2         2         2         2         2         2         2         2
         2         2         2         2         2         2         2         2
         2         2         2         2         2         2         2         2
         2         2         2         2         2         2         2         2
         2         2         2         2         2         2         2         2
         2         2         2         2         2         2         2         2
         2         2         2         2         2         2         2         2
         2         2         2         2         2         2         2         2
         2         2         2         2         2         2         2         2
         2         2         2         2         2         2         2         2
         2         2         2         2         2         2         2         2
         2         2         2         2         2         2         2         2
         2         2         2         2         2         2         2         2
         2         2         2         2         2         2         2         2
         2         2         2         2         2         2         2         2
         2         2         2         2         2         2         2         2
         2         2         2         2         2         2         2         2
         2         2         2         2         2         2         2         2
         2         2         2         2         2         2         2         2
         2         2         2         2         2         2         2         2
         2         2         2         2         2         2         2         2
         2         2         2         2         2         2         2         2
         2         2         2         2         2         2         2         2
         2         2         2         2         2         2         2         2
         2         2         2         2         2         2         2         2
         2         2         2         2         2         2         2         2
         2         2         2         2         2         2         2         2
         2         2         2         2         2         2         2         2
         2         2         2         2         2         2         2         2
         2         2         2         2         2         2         2         2
         2         2         2         2         2         2         2         2
         2         2         2         2         2         2         2         2
         2         2         2         2         2         2         2         2
         2         2         2         2         2         2         2         2
         2         2         2         2         2         2         2         2
         2         2         2         2         2         2         2         2
         2         2         2         2         2         2         2         2
         2         2         2         2         2         2         2         2
         2         2         2         2         2         2         2         2
         2         2         2         2         2         2         2         2
         2         2         2         2         2         2         2         2
         2         2         2         2         2         2         2         2
         2         2         2         2         2         2         2         2
         2         2         2         2         2         2         2         2
         2         2         2         2         2         2         2         2
         2         2         2         2         2         2         2         2
         2         2         2         2         2         2         2         2
         2         2         2         2         2         2         2         2
         2         2         2         2         2         2         2         2
         2         2         2         2         2         2         2         2
         2         2         2         2         2         2         2         2
         2         2         2         2         2         2         2         2
         2         2         2         2         2         2         2         2
         2         2         2         2         2         2         2         2
         2         2         2         2         2         2         2         2
         2         2         2         2         2         2         2         2
         2         2         2         2         2         2         2         2
         2         2         2         2         2         2         2         2
         2         2         2         2         2         2         2         2
         2         2         2         2         2         2         2         2
         2         2         2         2         2         2         2         2
         2         2         2         2         2         2         2         2
         2         2         2         2         2         2         2         2
         2         2         2         2         2         2         2         2
         2         2         2         2         2         2         2         2
         2         2         2         2         2         2         2         2
         2         2         2         2         2         2         2         2
         2         2         2         2         2         2         2         2
         2         2         2         2         2         2         2         2
         2         2         2         2         2         2         2         2
         2         2         2         2         2         2         2         2
         2         2         2         2         2         2         2         2
         2         2         2         2         2         2         2         2
         2         2         2         2         2         2         2         2
         2         2         2         2         2         2         2         2
         2         2         2         2         2         2         2         2
         2         2         2         2         2         2         2         2
         2         2         2         2         2         2         2         2
         2         2         2         2         2         2         2         2
         2         2         2         2         2         2         2         2
         2         2         2         2         2         2         2         2
         2         2         2         2         2         2         2         2
         2         2         2         2         2         2         2         2
         2         2         2         2         2         2         2         2
         2         2         2         2         2         2         2         2
         2         2         2         2         2         2         2         2
         2         2         2         2         2         2         2         2
         2         2         2         2         2         2         2         2
         2         2         2         2         2         2         2         2
         2         2         2         2         2         2         2         2
         2         2         2         2         2         2         2         2
         2         2         2         2         2         2         2         2
         2         2         2         2         2         2         2         2
         2         2         2         2         2         2         2         2
         2         2         2         2         2         2         2         2
         2         2         2         2         2         2         2         2
         2         2         2         2         2         2         2         2
         2         2         2         2         2         2         2         2
         2         2         2         2         2         2         2         2
         2         2         2         2         2         2         2         2
         2         2         2         2         2         2         2         2
         2         2         2         2         2         2         2         2
         2         2         2         2         2         2         2         2
         2         2         2         2         2         2         2         2
         2         2         2         2         2         2         2         2
         2         2         2         2         2         2         2         2
         2         2         2         2         2         2         2         2
         2         2         2         2         2         2         2         2
         2         2         2         2         2         2         2         2
         2         2         2         2         2         2         2         2
         2         2         2         2         2         2         2         2
         2         2         2         2         2         2         2         2
         2         2         2         2         2         2         2         2
         2         2         2         2         2         2         2         2
         2         2         2         2         2         2         2         2
         2         2         2         2         2         2         2         2
         2         2         2         2         2         2         2         2
         2         2         2         2         2         2         2         2
         2         2         2         2         2         2         2         2
         2         2         2         2         2         2         2         2
         2         2         2         2         2         2         2         2
         2         2         2         2         2         2         2         2
         2         2         2         2         2         2         2         2
         2         2         2         2         2         2         2         2
         2         2         2         2         2         2         2         2
         2         2         2         2         2         2         2         2
         2         2         2         2         2         2         2         2
         2         2         2         2         2         2         2         2
         2         2         2         2         2         2         2         2
         2         2         2         2         2         2         2         2
         2         2         2         2         2         2         2         2
         2         2         2         2         2         2         2         2
         2         2         2         2         2         2         2         2
         2         2         2         2         2         2         2         2
         2         2         2         2         2         2         2         2
         2         2         2         2         2         2         2         2
         2         2         2         2         2         2         2         2
         2         2         2         2         2         2         2         2
         2         2         2         2         2         2         2         2
         2         2         2         2         2         2         2         2
         2         2         2         2         2         2         2         2
         2         2         2         2         2         2         2         2
         2         2         2         2         2         2         2         2
         2         2         2         2         2         2         2         2
         2         2         2         2         2         2         2         2
         2         2         2         2         2         2         2         2
         2         2         2         2         2         2         2         2
         2         2         2         2         2         2         2         2
         2         2         2         2         2         2         2         2
         2         2         2         2         2         2         2         2
         2         2         2         2         2         2         2         2
         2         2         2         2         2         2         2         2
         2         2         2         2         2         2         2         2
         2         2         2         2         2         2         2         2
         2         2         2         2         2         2         2         2
         2         2         2         2         2         2         2         2
         2         2         2         2         2         2         2         2
         2         2         2         2         2         2         2         2
         2         2         2         2         2         2         2         2
         2         2         2         2         2         2         2         2
         2         2         2         2         2         2         2         2
         2         2         2         2         2         2         2         2
         2         2         2         2         2         2         2         2
         2         2         2         2         2         2         2         2
         2         2         2         2         2         2         2         2
         2         2         2         2         2         2         2         2
         2         2         2         2         2         2         2         2
         2         2         2         2         2         2         2         2
         2         2         2         2         2         2         2         2
         2         2         2         2         2         2         2         2
         2         2         2         2         2         2         2         2
         2         2         2         2         2         2         2         2
         2         2         2         2         2         2         2         2
         2         2         2         2         2         2         2         2
         2         2         2         2         2         2         2         2
         2         2         2         2         2         2         2         2
         2         2         2         2         2         2         2         2
         2         2         2         2         2         2         2         2
         2         2         2         2         2         2         2         2
         2         2         2         2         2         2         2         2
         2         2         2         2         2         2         2         2
         2         2         2         2         2         2         2         2
         2         2         2         2         2         2         2         2
         2         2         2         2         2         2         2         2
         2         2         2         2         2         2         2         2
         2         2         2         2         2         2         2         2
         2         2         2         2         2         2         2         2
         2         2         2         2         2         2         2         2
         2         2         2         2         2         2         2         2
         2         2         2         2         2         2         2         2
         2         2         2         2         2         2         2         2
         2         2         2         2         2         2         2         2
         2         2         2         2         2         2         2         2
         2         2         2         2         2         2         2         2
         2         2         2         2         2         2         2         2
         2         2         2         2         2         2         2         2
         2         2         2         2         2         2         2         2
         2         2         2         2         2         2         2         2
         2         2         2         2         2         2         2         2
         2         2         2         2         2         2         2         2
         2         2         2         2         2         2         2         2
         2         2         2         2         2         2         2         2
         2         2         2         2         2         2         2         2
         2         2         2         2         2         2         2         2
         2         2         2         2         2         2         2         2
         2         2         2         2         2         2         2         2
         2         2         2         2         2         2         2         2
         2         2         2         2         2         2         2         2
         2         2         2         2         2         2         2         2
         2         2         2         2         2         2         2         2
         2         2         2         2         2         2         2         2
         2         2         2         2         2         2         2         2
         2         2         2         2         2         2         2         2
         2         2         2         2         2         2         2         2
         2         2         2         2         2         2         2         2
         2         2         2         2         2         2         2         2
         2         2         2         2         2         2         2         2
         2         2         2         2         2         2         2         2
         2         2         2         2         2         2         2         2
         2         2         2         2         2         2         2         2
         2         2         2         2         2         2         2         2
         2         2         2         2         2         2         2         2
         2         2         2         2         2         2         2         2
         2         2         2         2         2         2         2         2
         2         2         2         2         2         2         2         2
         2         2         2         2         2         2         2         2
         2         2         2         2         2         2         2         2
         2         2         2         2         2         2         2         2
         2         2         2         2         2         2         2         2
         2         2         2         2         2         2         2         2
         2         2         2         2         2         2         2         2
         2         2         2         2         2         2         2         2
         2         2         2         2         2         2         2         2
         2         2         2         2         2         2         2         2
         2         2         2         2         2         2         2         2
         2         2         2         2         2         2         2         2
         2         2         2         2         2         2         2         2
         2         2         2         2         2         2         2         2
         2         2         2         2         2         2         2         2
         2         2         2         2         2         2         2         2
         2         2         2         2         2         2         2         2
         2         2         2         2         2         2         2         2
         2         2         2         2         2         2         2         2
         2         2         2         2         2         2         2         2
         2         2         2         2         2         2         2         2
         2         2         2         2         2         2         2         2
         2         2         2         2         2         2         2         2
         2         2         2         2         2         2         2         2
         2         2         2         2         2         2         2         2
         2         2         2         2         2         2         2         2
         2         2         2         2         2         2         2         2
         2         2         2         2         2         2         2         2
         2         2         2         2         2         2         2         2
         2         2         2         2         2         2         2         2
         2         2         2         2         2         2         2         2
         2         2         2         2         2         2         2         2
         2         2         2         2         2         2         2         2
         2         2         2         2         2         2         2         2
         2         2         2         2         2         2         2         2
         2         2         2         2         2         2         2         2
         2         2         2         2         2         2         2         2
         2         2         2         2         2         2         2         2
         2         2         2         2         2         2         2         2
         2         2         2         2         2         2         2         2
         2         2         2         2         2         2         2         2
         2         2         2         2         2         2         2         2
         2         2         2         2         2         2         2         2
         2         2         2         2         2         2         2         2
         2         2         2         2         2         2         2         2
         2         2         2         2         2         2         2         2
         2         2         2         2         2         2         2         2
         2         2         2         2         2         2         2         2
         2         2         2         2         2         2         2         2
         2         2         2         2         2         2         2         2
         2         2         2         2         2         2         2         2
         2         2         2         2         2         2         2         2
         2         2         2         2         2         2         2         2
         2         2         2         2         2         2         2         2
         2         2         2         2         2         2         2         2
         2         2         2         2         2         2         2         2
         2         2         2         2         2         2         2         2
         2         2         2         2         2         2         2         2
         2         2         2         2         2         2         2         2
         2         2         2         2         2         2         2         2
         2         2         2         2         2         2         2         2
         2         2         2         2         2         2         2         2
         2         2         2         2         2         2         2         2
         2         2         2         2         2         2         2         2
         2         2         2         2         2         2         2         2
         2         2         2         2         2         2         2         2
         2         2         2         2         2         2         2         2
         2         2         2         2         2         2         2         2
         2         2         2         2         2         2         2         2
         2         2         2         2         2         2         2         2
         2         2         2         2         2         2         2         2
         2         2         2         2         2         2         2         2
         2         2         2         2         2         2         2         2
         2         2         2         2         2         2         2         2
         2         2         2         2         2         2         2         2
         2         2         2         2         2         2         2         2
         2         2         2         2         2         2         2         2
         2         2         2         2         2         2         2         2
         2         2         2         2         2         2         2         2
         2         2         2         2         2         2         2         2
         2         2         2         2         2         2         2         2
         2         2         2         2         2         2         2         2
         2         2         2         2         2         2         2         2
         2         2         2         2         2         2         2         2
         2         2         2         2         2         2         2         2
         2         2         2         2         2         2         2         2
         2         2         2         2         2         2         2         2
         2         2         2         2         2         2         2         2
         2         2         2         2         2         2         2         2
         2         2         2         2         2         2         2         2
         2         2         2         2         2         2         2         2
         2         2         2         2         2         2         2         2
         2         2         2         2         2         2         2         2
         2         2         2         2         2         2         2         2
         2         2         2         2         2         2         2         2
         2         2         2         2         2         2         2         2
         2         2         2         2         2         2         2         2
         2         2         2         2         2         2         2         2
         2         2         2         2         2         2         2         2
         2         2         2         2         2         2         2         2
         2         2         2         2         2         2         2         2
         2         2         2         2         2         2         2         2
         2         2         2         2         2         2         2         2
         2         2         2         2         2         2         2         2
         2         2         2         2         2         2         2         2
         2         2         2         2         2         2         2         2
         2         2         2         2         2         2         2         2
         2         2         2         2         2         2         2         2
         2         2         2         2         2         2         2         2
         2         2         2         2         2         2         2         2
         2         2         2         2         2         2         2         2
         2         2         2         2         2         2         2         2
         2         2         2         2         2         2         2         2
         2         2         2         2         2         2         2         2
         2         2         2         2         2         2         2         2
         2         2         2         2         2         2         2         2
         2         2         2         2         2         2         2         2
         2         2         2         2         2         2         2         2
         2         2         2         2         2         2         2         2
         2         2         2         2         2         2         2         2
         2         2         2         2         2         2         2         2
         2         2         2         2         2         2         2         2
         2         2         2         2         2         2         2         2
         2         2         2         2         2         2         2         2
         2         2         2         2         2         2         2         2
         2         2         2         2         2         2         2         2
         2         2         2         2         2         2         2         2
         2         2         2         2         2         2         2         2
         2         2         2         2         2         2         2         2
         2         2         2         2         2         2         2         2
         2         2         2         2         2         2         2         2
         2         2         2         2         2         2         2         2
         2         2         2         2         2         2         2         2
         2         2         2         2         2         2         2         2
         2         2         2         2         2         2         2         2
         2         2         2         2         2         2         2         2
         2         2         2         2         2         2         2         2
         2         2         2         2         2         2         2         2
         2         2         2         2         2         2         2         2
         2         2         2         2         2         2         2         2
         2         2         2         2         2         2         2         2
         2         2         2         2         2         2         2         2
         2         2         2         2         2         2         2         2
         2         2         2         2         2         2         2         2
         2         2         2         2         2         2         2         2
         2         2         2         2         2         2         2         2
         2         2         2         2         2         2         2         2
         2         2         2         2         2         2         2         2
         2         2         2         2         2         2         2         2
         2         2         2         2         2         2         2         2
         2         2         2         2         2         2         2         2
         2         2         2         2         2         2         2         2
         2         2         2         2         2         2         2         2
         2         2         2         2         2         2         2         2
         2         2         2         2         2         2         2         2
         2         2         2         2         2         2         2         2
         2         2         2         2         2         2         2         2
         2         2         2         2         2         2         2         2
         2         2         2         2         2         2         2         2
         2         2         2         2         2         2         2         2
         2         2         2         2         2         2         2         2
         2         2         2         2         2         2         2         2
         2         2         2         2         2         2         2         2
         2         2         2         2         2         2         2         2
         2         2         2         2         2         2         2         2
         2         2         2         2         2         2         2         2
         2         2         2         2         2         2         2         2
         2         2         2         2         2         2         2         2
         2         2         2         2         2         2         2         2
         2         2         2         2         2         2         2         2
         2         2         2         2         2         2         2         2
         2         2         2         2         2         2         2         2
         2         2         2         2         2         2         2         2
         2         2         2         2         2         2         2         2
         2         2         2         2         2         2         2         2
         2         2         2         2         2         2         2         2
         2         2         2         2         2         2         2         2
         2         2         2         2         2         2         2         2
         2         2         2         2         2         2         2         2
         2         2         2         2         2         2         2         2
         2         2         2         2         2         2         2         2
         2         2         2         2         2         2         2         2
         2         2         2         2         2         2         2         2
         2         2         2         2         2         2         2         2
         2         2         2         2         2         2         2         2
         2         2         2         2         2         2         2         2
         2         2         2         2         2         2         2         2
         2         2         2         2         2         2         2         2
         2         2         2         2         2         2         2         2
         2         2         2         2         2         2         2         2
         2         2         2         2         2         2         2         2
         2         2         2         2         2         2         2         2
         2         2         2         2         2         2         2         2
         2         2         2         2         2         2         2         2
         2         2         2         2         2         2         2         2
         2         2         2         2         2         2         2         2
         2         2         2         2         2         2         2         2
         2         2         2         2         2         2         2         2
         2         2         2         2         2         2         2         2
         2         2         2         2         2         2         2         2
         2         2         2         2         2         2         2         2
         2         2         2         2         2         2         2         2
         2         2         2         2         2         2         2         2
         2         2         2         2         2         2         2         2
         2         2         2         2         2         2         2         2
         2         2         2         2         2         2         2         2
         2         2         2         2         2         2         2         2
         2         2         2         2         2         2         2         2
         2         2         2         2         2         2         2         2
         2         2         2         2         2         2         2         2
         2         2         2         2         2         2         2         2
         2         2         2         2         2         2         2         2
         2         2         2         2         2         2         2         2
         2         2         2         2         2         2         2         2
         2         2         2         2         2         2         2         2
         2         2         2         2         2         2         2         2
         2         2         2         2         2         2         2         2
         2         2         2         2         2         2         2         2
         2         2         2         2         2         2         2         2
         2         2         2         2         2         2         2         2
         2         2         2         2         2         2         2         2
         2         2         2         2         2         2         2         2
         2         2         2         2         2         2         2         2
         2         2         2         2         2         2         2         2
         2         2         2         2         2         2         2         2
         2         2         2         2         2         2         2         2
         2         2         2         2         2         2         2         2
         2         2         2         2         2         2         2         2
         2         2         2         2         2         2         2         2
         2         2         2         2         2         2         2         2
         2         2         2         2         2         2         2         2
         2         2         2         2         2         2         2         2
         2         2         2         2         2         2         2         2
         2         2         2         2         2         2         2         2
         2         2         2         2         2         2         2         2
         2         2         2         2         2         2         2         2
         2         2         2         2         2         2         2         2
         2         2         2         2         2         2         2         2
         2         2         2         2         2         2         2         2
         2         2         2         2         2         2         2         2
         2         2         2         2         2         2         2         2
         2         2         2         2         2         2         2         2
         2         2         2         2         2         2         2         2
         2         2         2         2         2         2         2         2
         2         2         2         2         2         2         2         2
         2         2         2         2         2         2         2         2
         2         2         2         2         2         2         2         2
         2         2         2         2         2         2         2         2
         2         2         2         2         2         2         2         2
         2         2         2         2         2         2         2         2
         2         2         2         2         2         2         2         2
         2         2         2         2         2         2         2         2
         2         2         2         2         2         2         2         2
         2         2         2         2         2         2         2         2
         2         2         2         2         2         2         2         2
         2         2         2         2         2         2         2         2
         2         2         2         2         2         2         2         2
         2         2         2         2         2         2         2         2
         2         2         2         2         2         2         2         2
         2         2         2         2         2         2         2         2
         2         2         2         2         2         2         2         2
         2         2         2         2         2         2         2         2
         2         2         2         2         2         2         2         2
         2         2         2         2         2         2         2         2
         2         2         2         2         2         2         2         2
         2         2         2         2         2         2         2         2
         2         2         2         2         2         2         2         2
         2         2         2         2         2         2         2         2
         2         2         2         2         2         2         2         2
         2         2         2         2         2         2         2         2
         2         2         2         2         2         2         2         2
         2         2         2         2         2         2         2         2
         2         2         2         2         2         2         2         2
         2         2         2         2         2         2         2         2
         2         2         2         2         2         2         2         2
         2         2         2         2         2         2         2         2
         2         2         2         2         2         2         2         2
         2         2         2         2         2         2         2         2
         2         2         2         2         2         2         2         2
         2         2         2         2         2         2         2         2
         2         2         2         2         2         2         2         2
         2         2         2         2         2         2         2         2
         2         2         2         2         2         2         2         2
         2         2         2         2         2         2         2         2
         2         2         2         2         2         2         2         2
         2         2         2         2         2         2         2         2
         2         2         2         2         2         2         2         2
         2         2         2         2         2         2         2         2
         2         2         2         2         2         2         2         2
         2         2         2         2         2         2         2         2
         2         2         2         2         2         2         2         2
         2         2         2         2         2         2         2         2
         2         2         2         2         2         2         2         2
         2         2         2         2         2         2         2         2
         2         2         2         2         2         2         2         2
         2         2         2         2         2         2         2         2
         2         2         2         2         2         2         2         2
         2         2         2         2         2         2         2         2
         2         2         2         2         2         2         2         2
         2         2         2         2         2         2         2         2
         2         2         2         2         2         2         2         2
         2         2         2         2         2         2         2         2
         2         2         2         2         2         2         2         2
         2         2         2         2         2         2         2         2
         2         2         2         2         2         2         2         2
         2         2         2         2         2         2         2         2
         2         2         2         2         2         2         2         2
         2         2         2         2         2         2         2         2
         2         2         2         2         2         2         2         2
         2         2         2         2         2         2         2         2
         2         2         2         2         2         2         2         2
         2         2         2         2         2         2         2         2
         2         2         2         2         2         2         2         2
         2         2         2         2         2         2         2         2
         2         2         2         2         2         2         2         2
         2         2         2         2         2         2         2         2
         2         2         2         2         2         2         2         2
         2         2         2         2         2         2         2         2
         2         2         2         2         2         2         2         2
         2         2         2         2         2         2         2         2
         2         2         2         2         2         2         2         2
         2         2         2         2         2         2         2         2
         2         2         2         2         2         2         2         2
         2         2         2         2         2         2         2         2
         2         2         2         2         2         2         2         2
         2         2         2         2         2         2         2         2
         2         2         2         2         2         2         2         2
         2         2         2         2         2         2         2         2
         2         2         2         2         2         2         2         2
         2         2         2         2         2         2         2         2
         2         2         2         2         2         2         2         2
         2         2         2         2         2         2         2         2
         2         2         2         2         2         2         2         2
         2         2         2         2         2         2         2         2
         2         2         2         2         2         2         2         2
         2         2         2         2         2         2         2         2
         2         2         2         2         2         2         2         2
         2         2         2         2         2         2         2         2
         2         2         2         2         2         2         2         2
         2         2         2         2         2         2         2         2
         2         2         2         2         2         2         2         2
         2         2         2         2         2         2         2         2
         2         2         2         2         2         2         2         2
         2         2         2         2         2         2         2         2
         2         2         2         2         2         2         2         2
         2         2         2         2         2         2         2         2
         2         2         2         2         2         2         2         2
         2         2         2         2         2         2         2         2
         2         2         2         2         2         2         2         2
         2         2         2         2         2         2         2         2
         2         2         2         2         2         2         2         2
         2         2         2         2         2         2         2         2
         2         2         2         2         2         2         2         2
         2         2         2         2         2         2         2         2
         2         2         2         2         2         2         2         2
         2         2         2         2         2         2         2         2
         2         2         2         2         2         2         2         2
         2         2         2         2         2         2         2         2
         2         2         2         2         2         2         2         2
         2         2         2         2         2         2         2         2
         2         2         2         2         2         2         2         2
         2         2         2         2         2         2         2         2
         2         2         2         2         2         2         2         2
         2         2         2         2         2         2         2         2
         2         2         2         2         2         2         2         2
         2         2         2         2         2         2         2         2
         2         2         2         2         2         2         2         2
         2         2         2         2         2         2         2         2
         2         2         2         2         2         2         2         2
         2         2         2         2         2         2         2         2
         2         2         2         2         2         2         2         2
         2         2         2         2         2         2         2         2
         2         2         2         2         2         2         2         2
         2         2         2         2         2         2         2         2
         2         2         2         2         2         2         2         2
         2         2         2         2         2         2         2         2
         2         2         2         2         2         2         2         2
         2         2         2         2         2         2         2         2
         2         2         2         2         2         2         2         2
         2         2         2         2         2         2         2         2
         2         2         2         2         2         2         2         2
         2         2         2         2         2         2         2         2
         2         2         2         2         2         2         2         2
         2         2         2         2         2         2         2         2
         2         2         2         2         2         2         2         2
         2         2         2         2         2         2         2         2
         2         2         2         2         2         2         2         2
         2         2         2         2         2         2         2         2
         2         2         2         2         2         2         2         2
         2         2         2         2         2         2         2         2
         2         2         2         2         2         2         2         2
         2         2         2         2         2         2         2         2
         2         2         2         2         2         2         2         2
         2         2         2         2         2         2         2         2
         2         2         2         2         2         2         2         2
         2         2         2         2         2         2         2         2
         2         2         2         2         2         2         2         2
         2         2         2         2         2         2         2         2
         2         2         2         2         2         2         2         2
         2         2         2         2         2         2         2         2
         2         2         2         2         2         2         2         2
         2         2         2         2         2         2         2         2
         2         2         2         2         2         2         2         2
         2         2         2         2         2         2         2         2
         2         2         2         2         2         2         2         2
         2         2         2         2         2         2         2         2
         2         2         2         2         2         2         2         2
         2         2         2         2         2         2         2         2
         2         2         2         2         2         2         2         2
         2         2         2         2         2         2         2         2
         2         2         2         2         2         2         2         2
         2         2         2         2         2         2         2         2
         2         2         2         2         2         2         2         2
         2         2         2         2         2         2         2         2
         2         2         2         2         2         2         2         2
         2         2         2         2         2         2         2         2
         2         2         2         2         2         2         2         2
         2         2         2         2         2         2         2         2
         2         2         2         2         2         2         2         2
         2         2         2         2         2         2         2         2
         2         2         2         2         2         2         2         2
         2         2         2         2         2         2         2         2
         2         2         2         2         2         2         2         2
         2         2         2         2         2         2         2         2
         2         2         2         2         2         2         2         2
         2         2         2         2         2         2         2         2
         2         2         2         2         2         2         2         2
         2         2         2         2         2         2         2         2
         2         2         2         2         2         2         2         2
         2         2         2         2         2         2         2         2
         2         2         2         2         2         2         2         2
         2         2         2         2         2         2         2         2
         2         2         2         2         2         2         2         2
         2         2         2         2         2         2         2         2
         2         2         2         2         2         2         2         2
         2         2         2         2         2         2         2         2
         2         2         2         2         2         2         2         2
         2         2         2         2         2         2         2         2
         2         2         2         2         2         2         2         2
         2         2         2         2         2         2         2         2
         2         2         2         2         2         2         2         2
         2         2         2         2         2         2         2         2
         2         2         2         2         2         2         2         2
         2         2         2         2         2         2         2         2
         2         2         2         2         2         2         2         2
         2         2         2         2         2         2         2         2
         2         2         2         2         2         2         2         2
         2         2         2         2         2         2         2         2
         2         2         2         2         2         2         2         2
         2         2         2         2         2         2         2         2
         2         2         2         2         2         2         2         2
         2         2         2         2         2         2         2         2
         2         2         2         2         2         2         2         2
         2         2         2         2         2         2         2         2
         2         2         2         2         2         2         2         2
         2         2         2         2         2         2         2         2
         2         2         2         2         2         2         2         2
         2         2         2         2         2         2         2         2
         2         2         2         2         2         2         2         2
         2         2         2         2         2         2         2         2
         2         2         2         2         2         2         2         2
         2         2         2         2         2         2         2         2
         2         2         2         2         2         2         2         2
         2         2         2         2         2         2         2         2
         2         2         2         2         2         2         2         2
         2         2         2         2         2         2         2         2
         2         2         2         2         2         2         2         2
         2         2         2         2         2         2         2         2
         2         2         2         2         2         2         2         2
         2         2         2         2         2         2         2         2
         2         2         2         2         2         2         2         2
         2         2         2         2         2         2         2         2
         2         2         2         2         2         2         2         2
         2         2         2         2         2         2         2         2
         2         2         2         2         2         2         2         2
         2         2         2         2         2         2         2         2
         2         2         2         2         2         2         2         2
         2         2         2         2         2         2         2         2
         2         2         2         2         2         2         2         2
         2         2         2         2         2         2         2         2
         2         2         2         2         2         2         2         2
         2         2         2         2         2         2         2         2
         2         2         2         2         2         2         2         2
         2         2         2         2         2         2         2         2
         2         2         2         2         2         2         2         2
         2         2         2         2         2         2         2         2
         2         2         2         2         2         2         2         2
         2         2         2         2         2         2         2         2
         2         2         2         2         2         2         2         2
         2         2         2         2         2         2         2         2
         2         2         2         2         2         2         2         2
         2         2         2         2         2         2         2         2
         2         2         2         2         2         2         2         2
         2         2         2         2         2         2         2         2
         2         2         2         2         2         2         2         2
         2         2         2         2         2         2         2         2
         2         2         2         2         2         2         2         2
         2         2         2         2         2         2         2         2
         2         2         2         2         2         2         2         2
         2         2         2         2         2         2         2         2
         2         2         2         2         2         2         2         2
         2         2         2         2         2         2         2         2
         2         2         2         2         2         2         2         2
         2         2         2         2         2         2         2         2
         2         2         2         2         2         2         2         2
         2         2         2         2         2         2         2         2
         2         2         2         2         2         2         2         2
         2         2         2         2         2         2         2         2
         2         2         2         2         2         2         2         2
         2         2         2         2         2         2         2         2
         2         2         2         2         2         2         2         2
         2         2         2         2         2         2         2         2
         2         2         2         2         2         2         2         2
         2         2         2         2         2         2         2         2
         2         2         2         2         2         2         2         2
         2         2         2         2         2         2         2         2
         2         2         2         2         2         2         2         2
         2         2         2         2         2         2         2         2
         2         2         2         2         2         2         2         2
         2         2         2         2         2         2         2         2
         2         2         2         2         2         2         2         2
         2         2         2         2         2         2         2         2
         2         2         2         2         2         2         2         2
         2         2         2         2         2         2         2         2
         2         2         2         2         2         2         2         2
         2         2         2         2         2         2         2         2
         2         2         2         2         2         2         2         2
         2         2         2         2         2         2         2         2
         2         2         2         2         2         2         2         2
         2         2         2         2         2         2         2         2
         2         2         2         2         2         2         2         2
         2         2         2         2         2         2         2         2
         2         2         2         2         2         2         2         2
         2         2         2         2         2         2         2         2
         2         2         2         2         2         2         2         2
         2         2         2         2         2         2         2         2
         2         2         2         2         2         2         2         2
         2         2         2         2         2         2         2         2
         2         2         2         2         2         2         2         2
         2         2         2         2         2         2         2         2
         2         2         2         2         2         2         2         2
         2         2         2         2         2         2         2         2
         2         2         2         2         2         2         2         2
         2         2         2         2         2         2         2         2
         2         2         2         2         2         2         2         2
         2         2         2         2         2         2         2         2
         2         2         2         2         2         2         2         2
         2         2         2         2         2         2         2         2
         2         2         2         2         2         2         2         2
         2         2         2         2         2         2         2         2
         2         2         2         2         2         2         2         2
         2         2         2         2         2         2         2         2
         2         2         2         2         2         2         2         2
         2         2         2         2         2         2         2         2
         2         2         2         2         2         2         2         2
         2         2         2         2         2         2         2         2
         2         2         2         2         2         2         2         2
         2         2         2         2         2         2         2         2
         2         2         2         2         2         2         2         2
         2         2         2         2         2         2         2         2
         2         2         2         2         2         2         2         2
         2         2         2         2         2         2         2         2
         2         2         2         2         2         2         2         2
         2         2         2         2         2         2         2         2
         2         2         2         2         2         2         2         2
         2         2         2         2         2         2         2         2
         2         2         2         2         2         2         2         2
         2         2         2         2         2         2         2         2
         2         2         2         2         2         2         2         2
         2         2         2         2         2         2         2         2
         2         2         2         2         2         2         2         2
         2         2         2         2         2         2         2         2
         2         2         2         2         2         2         2         2
         2         2         2         2         2         2         2         2
         2         2         2         2         2         2         2         2
         2         2         2         2         2         2         2         2
         2         2         2         2         2         2         2         2
         2         2         2         2         2         2         2         2
         2         2         2         2         2         2         2         2
         2         2         2         2         2         2         2         2
         2         2         2         2         2         2         2         2
         2         2         2         2         2         2         2         2
         2         2         2         2         2         2         2         2
         2         2         2         2         2         2         2         2
         2         2         2         2         2         2         2         2
         2         2         2         2         2         2         2         2
         2         2         2         2         2         2         2         2
         2         2         2         2         2         2         2         2
         2         2         2         2         2         2         2         2
         2         2         2         2         2         2         2         2
         2         2         2         2         2         2         2         2
         2         2         2         2         2         2         2         2
         2         2         2         2         2         2         2         2
         2         2         2         2         2         2         2         2
         2         2         2         2         2         2         2         2
         2         2         2         2         2         2         2         2
         2         2         2         2         2         2         2         2
         2         2         2         2         2         2         2         2
         2         2         2         2         2         2         2         2
         2         2         2         2         2         2         2         2
         2         2         2         2         2         2         2         2
         2         2         2         2         2         2         2         2
         2         2         2         2         2         2         2         2
         2         2         2         2         2         2         2         2
         2         2         2         2         2         2         2         2
         2         2         2         2         2         2         2         2
         2         2         2         2         2         2         2         2
         2         2         2         2         2         2         2         2
         2         2         2         2         2         2         2         2
         2         2         2         2         2         2         2         2
         2         2         2         2         2         2         2         2
         2         2         2         2         2         2         2         2
         2         2         2         2         2         2         2         2
         2         2         2         2         2         2         2         2
         2         2         2         2         2         2         2         2
         2         2         2         2         2         2         2         2
         2         2         2         2         2         2         2         2
         2         2         2         2         2         2         2         2
         2         2         2         2         2         2         2         2
         2         2         2         2         2         2         2         2
         2         2         2         2         2         2         2         2
         2         2         2         2         2         2         2         2
         2         2         2         2         2         2         2         2
         2         2         2         2         2         2         2         2
         2         2         2         2         2         2         2         2
         2         2         2         2         2         2         2         2
         2         2         2         2         2         2         2         2
         2         2         2         2         2         2         2         2
         2         2         2         2         2         2         2         2
         2         2         2         2         2         2         2         2
         2         2         2         2         2         2         2         2
         2         2         2         2         2         2         2         2
         2         2         2         2         2         2         2         2
         2         2         2         2         2         2         2         2
         2         2         2         2         2         2         2         2
         2         2         2         2         2         2         2         2
         2         2         2         2         2         2         2         2
         2         2         2         2         2         2         2         2
         2         2         2         2         2         2         2         2
         2         2         2         2         2         2         2         2
         2         2         2         2         2         2         2         2
         2         2         2         2         2         2         2         2
         2         2         2         2         2         2         2         2
         2         2         2         2         2         2         2         2
         2         2         2         2         2         2         2         2
         2         2         2         2         2         2         2         2
         2         2         2         2         2         2         2         2
         2         2         2         2         2         2         2         2
         2         2         2         2         2         2         2         2
         2         2         2         2         2         2         2         2
         2         2         2         2         2         2         2         2
         2         2         2         2         2         2         2         2
         2         2         2         2         2         2         2         2
         2         2         2         2         2         2         2         2
         2         2         2         2         2         2         2         2
         2         2         2         2         2         2         2         2
         2         2         2         2         2         2         2         2
         2         2         2         2         2         2         2         2
         2         2         2         2         2         2         2         2
         2         2         2         2         2         2         2         2
         2         2         2         2         2         2         2         2
         2         2         2         2         2         2         2         2
         2         2         2         2         2         2         2         2
         2         2         2         2         2         2         2         2
         2         2         2         2         2         2         2         2
         2         2         2         2         2         2         2         2
         2         2         2         2         2         2         2         2
         2         2         2         2         2         2         2         2
         2         2         2         2         2         2         2         2
         2         2         2         2         2         2         2         2
         2         2         2         2         2         2         2         2
         2         2         2         2         2         2         2         2
         2         2         2         2         2         2         2         2
         2         2         2         2         2         2         2         2
         2         2         2         2         2         2         2         2
         2         2         2         2         2         2         2         2
         2         2         2         2         2         2         2         2
         2         2         2         2         2         2         2         2
         2         2         2         2         2         2         2         2
         2         2         2         2         2         2         2         2
         2         2         2         2         2         2         2         2
         2         2         2         2         2         2         2         2
         2         2         2         2         2         2         2         2
         2         2         2         2         2         2         2         2
         2         2         2         2         2         2         2         2
         2         2         2         2         2         2         2         2
         2         2         2         2         2         2         2         2
         2         2         2         2         2         2         2         2
         2         2         2         2         2         2         2         2
         2         2         2         2         2         2         2         2
         2         2         2         2         2         2         2         2
         2         2         2         2         2         2         2         2
         2         2         2         2         2         2         2         2
         2         2         2         2         2         2         2         2
         2         2         2         2         2         2         2         2
         2         2         2         2         2         2         2         2
         2         2         2         2         2         2         2         2
         2         2         2         2         2         2         2         2
         2         2         2         2         2         2         2         2
         2         2         2         2         2         2         2         2
         2         2         2         2         2         2         2         2
         2         2         2         2         2         2         2         2
         2         2         2         2         2         2         2         2
         2         2         2         2         2         2         2         2
         2         2         2         2         2         2         2         2
         2         2         2         2         2         2         2         2
         2         2         2         2         2         2         2         2
         2         2         2         2         2         2         2         2
         2         2         2         2         2         2         2         2
         2         2         2         2         2         2         2         2
         2         2         2         2         2         2         2         2
         2         2         2         2         2         2         2         2
         2         2         2         2         2         2         2         2
         2         2         2         2         2         2         2         2
         2         2         2         2         2         2         2         2
         2         2         2         2         2         2         2         2
         2         2         2         2         2         2         2         2
         2         2         2         2         2         2         2         2
         2         2         2         2         2         2         2         2
         2         2         2         2         2         2         2         2
         2         2         2         2         2         2         2         2
         2         2         2         2         2         2         2         2
         2         2         2         2         2         2         2         2
         2         2         2         2         2         2         2         2
         2         2         2         2         2         2         2         2
         2         2         2         2         2         2         2         2
         2         2         2         2         2         2         2         2
         2         2         2         2         2         2         2         2
         2         2         2         2         2         2         2         2
         2         2         2         2         2         2         2         2
         2         2         2         2         2         2         2         2
         2         2         2         2         2         2         2         2
         2         2         2         2         2         2         2         2
         2         2         2         2         2         2         2         2
         2         2         2         2         2         2         2         2
         2         2         2         2         2         2         2         2
         2         2         2         2         2         2         2         2
         2         2         2         2         2         2         2         2
         2         2         2         2         2         2         2         2
         2         2         2         2         2         2         2         2
         2         2         2         2         2         2         2         2
         2         2         2         2         2         2         2         2
         2         2         2         2         2         2         2         2
         2         2         2         2         2         2         2         2
         2         2         2         2         2         2         2         2
         2         2         2         2         2         2         2         2
         2         2         2         2         2         2         2         2
         2         2         2         2         2         2         2         2
         2         2         2         2         2         2         2         2
         2         2         2         2         2         2         2         2
         2         2         2         2         2         2         2         2
         2         2         2         2         2         2         2         2
         2         2         2         2         2         2         2         2
         2         2         2         2         2         2         2         2
         2         2         2         2         2         2         2         2
         2         2         2         2         2         2         2         2
         2         2         2         2         2         2         2         2
         2         2         2         2         2         2         2         2
         2         2         2         2         2         2         2         2
         2         2         2         2         2         2         2         2
         2         2         2         2         2         2         2         2
         2         2         2         2         2         2         2         2
         2         2         2         2         2         2         2         2
         2         2         2         2         2         2         2         2
         2         2         2         2         2         2         2         2
         2         2         2         2         2         2         2         2
         2         2         2         2         2         2         2         2
         2         2         2         2         2         2         2         2
         2         2         2         2         2         2         2         2
         2         2         2         2         2         2         2         2
         2         2         2         2         2         2         2         2
         2         2         2         2         2         2         2         2
         2         2         2         2         2         2         2         2
         2         2         2         2         2         2         2         2
         2         2         2         2         2         2         2         2
         2         2         2         2         2         2         2         2
         2         2         2         2         2         2         2         2
         2         2         2         2         2         2         2         2
         2         2         2         2         2         2         2         2
         2         2         2         2         2         2         2         2
         2         2         2         2         2         2         2         2
         2         2         2         2         2         2         2         2
         2         2         2         2         2         2         2         2
         2         2         2         2         2         2         2         2
         2         2         2         2         2         2         2         2
         2         2         2         2         2         2         2         2
         2         2         2         2         2         2         2         2
         2         2         2         2         2         2         2         2
         2         2         2         2         2         2         2         2
         2         2         2         2         2         2         2         2
         2         2         2         2         2         2         2         2
         2         2         2         2         2         2         2         2
         2         2         2         2         2         2         2         2
         2         2         2         2         2         2         2         2
         2         2         2         2         2         2         2         2
         2         2         2         2         2         2         2         2
         2         2         2         2         2         2         2         2
         2         2         2         2         2         2         2         2
         2         2         2         2         2         2         2         2
         2         2         2         2         2         2         2         2
         2         2         2         2         2         2         2         2
         2         2         2         2         2         2         2         2
         2         2         2         2         2         2         2         2
         2         2         2         2         2         2         2         2
         2         2         2         2         2         2         2         2
         2         2         2         2         2         2         2         2
         2         2         2         2         2         2         2         2
         2         2         2         2         2         2         2         2
         2         2         2         2         2         2         2         2
         2         2         2         2         2         2         2         2
         2         2         2         2         2         2         2         2
         2         2         2         2         2         2         2         2
         2         2         2         2         2         2         2         2
         2         2         2         2         2         2         2         2
         2         2         2         2         2         2         2         2
         2         2         2         2         2         2         2         2
         2         2         2         2         2         2         2         2
         2         2         2         2         2         2         2         2
         2         2         2         2         2         2         2         2
         2         2         2         2         2         2         2         2
         2         2         2         2         2         2         2         2
         2         2         2         2         2         2         2         2
         2         2         2         2         2         2         2         2
         2         2         2         2         2         2         2         2
         2         2         2         2         2         2         2         2
         2         2         2         2         2         2         2         2
         2         2         2         2         2         2         2         2
         2         2         2         2         2         2         2         2
         2         2         2         2         2         2         2         2
         2         2         2         2         2         2         2         2
         2         2         2         2         2         2         2         2
         2         2         2         2         2         2         2         2
         2         2         2         2         2         2         2         2
         2         2         2         2         2         2         2         2
         2         2         2         2         2         2         2         2
         2         2         2         2         2         2         2         2
         2         2         2         2         2         2         2         2
         2         2         2         2         2         2         2         2
         2         2         2         2         2         2         2         2
         2         2         2         2         2         2         2         2
         2         2         2         2         2         2         2         2
         2         2         2         2         2         2         2         2
         2         2         2         2         2         2         2         2
         2         2         2         2         2         2         2         2
         2         2         2         2         2         2         2         2
         2         2         2         2         2         2         2         2
         2         2         2         2         2         2         2         2
         2         2         2         2         2         2         2         2
         2         2         2         2         2         2         2         2
         2         2         2         2         2         2         2         2
         2         2         2         2         2         2         2         2
         2         2         2         2         2         2         2         2
         2         2         2         2         2         2         2         2
         2         2         2         2         2         2         2         2
         2         2         2         2         2         2         2         2
         2         2         2         2         2         2         2         2
         2         2         2         2         2         2         2         2
         2         2         2         2         2         2         2         2
         2         2         2         2         2         2         2         2
         2         2         2         2         2         2         2         2
         2         2         2         2         2         2         2         2
         2         2         2         2         2         2         2         2
         2         2         2         2         2         2         2         2
         2         2         2         2         2         2         2         2
         2         2         2         2         2         2         2         2
         2         2         2         2         2         2         2         2
         2         2         2         2         2         2         2         2
         2         2         2         2         2         2         2         2
         2         2         2         2         2         2         2         2
         2         2         2         2         2         2         2         2
         2         2         2         2         2         2         2         2
         2         2         2         2         2         2         2         2
         2         2         2         2         2         2         2         2
         2         2         2         2         2         2         2         2
         2         2         2         2         2         2         2         2
         2         2         2         2         2         2         2         2
         2         2         2         2         2         2         2         2
         2         2         2         2         2         2         2         2
         2         2         2         2         2         2         2         2
         2         2         2         2         2         2         2         2
         2         2         2         2         2         2         2         2
         2         2         2         2         2         2         2         2
         2         2         2         2         2         2         2         2
         2         2         2         2         2         2         2         2
         2         2         2         2         2         2         2         2
         2         2         2         2         2         2         2         2
         2         2         2         2         2         2         2         2
         2         2         2         2         2         2         2         2
         2         2         2         2         2         2         2         2
         2         2         2         2         2         2         2         2
         2         2         2         2         2         2         2         2
         2         2         2         2         2         2         2         2
         2         2         2         2         2         2         2         2
         2         2         2         2         2         2         2         2
         2         2         2         2         2         2         2         2
         2         2         2         2         2         2         2         2
         2         2         2         2         2         2         2         2
         2         2         2         2         2         2         2         2
         2         2         2         2         2         2         2         2
         2         2         2         2         2         2         2         2
         2         2         2         2         2         2         2         2
         2         2         2         2         2         2         2         2
         2         2         2         2         2         2         2         2
         2         2         2         2         2         2         2         2
         2         2         2         2         2         2         2         2
         2         2         2         2         2         2         2         2
         2         2         2         2         2         2         2         2
         2         2         2         2         2         2         2         2
         2         2         2         2         2         2         2         2
         2         2         2         2         2         2         2         2
         2         2         2         2         2         2         2         2
         2         2         2         2         2         2         2         2
         2         2         2         2         2         2         2         2
         2         2         2         2         2         2         2         2
         2         2         2         2         2         2         2         2
         2         2         2         2         2         2         2         2
         2         2         2         2         2         2         2         2
         2         2         2         2         2         2         2         2
         2         2         2         2         2         2         2         2
         2         2         2         2         2         2         2         2
         2         2         2         2         2         2         2         2
         2         2         2         2         2         2         2         2
         2         2         2         2         2         2         2         2
         2         2         2         2         2         2         2         2
         2         2         2         2         2         2         2         2
         2         2         2         2         2         2         2         2
         2         2         2         2         2         2         2         2
         2         2         2         2         2         2         2         2
         2         2         2         2         2         2         2         2
         2         2         2         2         2         2         2         2
         2         2         2         2         2         2         2         2
         2         2         2         2         2         2         2         2
         2         2         2         2         2         2         2         2
         2         2         2         2         2         2         2         2
         2         2         2         2         2         2         2         2
         2         2         2         2         2         2         2         2
         2         2         2         2         2         2         2         2
         2         2         2         2         2         2         2         2
         2         2         2         2         2         2         2         2
         2         2         2         2         2         2         2         2
         2         2         2         2         2         2         2         2
         2         2         2         2         2         2         2         2
         2         2         2         2         2         2         2         2
         2         2         2         2         2         2         2         2
         2         2         2         2         2         2         2         2
         2         2         2         2         2         2         2         2
         2         2         2         2         2         2         2         2
         2         2         2         2         2         2         2         2
         2         2         2         2         2         2         2         2
         2         2         2         2         2         2         2         2
         2         2         2         2         2         2         2         2
         2         2         2         2         2         2         2         2
         2         2         2         2         2         2         2         2
         2         2         2         2         2         2         2         2
         2         2         2         2         2         2         2         2
         2         2         2         2         2         2         2         2
         2         2         2         2         2         2         2         2
         2         2         2         2         2         2         2         2
         2         2         2         2         2         2         2         2
         2         2         2         2         2         2         2         2
         2         2         2         2         2         2         2         2
         2         2         2         2         2         2         2         2
         2         2         2         2         2         2         2         2
         2         2         2         2         2         2         2         2
         2         2         2         2         2         2         2         2
         2         2         2         2         2         2         2         2
         2         2         2         2         2         2         2         2
         2         2         2         2         2         2         2         2
         2         2         2         2         2         2         2         2
         2         2         2         2         2         2         2         2
         2         2         2         2         2         2         2         2
         2         2         2         2         2         2         2         2
         2         2         2         2         2         2         2         2
         2         2         2         2         2         2         2         2
         2         2         2         2         2         2         2         2
         2         2         2         2         2         2         2         2
         2         2         2         2         2         2         2         2
         2         2         2         2         2         2         2         2
         2         2         2         2         2         2         2         2
         2         2         2         2         2         2         2         2
         2         2         2         2         2         2         2         2
         2         2         2         2         2         2         2         2
         2         2         2         2         2         2         2         2
         2         2         2         2         2         2         2         2
         2         2         2         2         2         2         2         2
         2         2         2         2         2         2         2         2
         2         2         2         2         2         2         2         2
         2         2         2         2         2         2         2         2
         2         2         2         2         2         2         2         2
         2         2         2         2         2         2         2         2
         2         2         2         2         2         2         2         2
         2         2         2         2         2         2         2         2
         2         2         2         2         2         2         2         2
         2         2         2         2         2         2         2         2
         2         2         2         2         2         2         2         2
         2         2         2         2         2         2         2         2
         2         2         2         2         2         2         2         2
         2         2         2         2         2         2         2         2
         2         2         2         2         2         2         2         2
         2         2         2         2         2         2         2         2
         2         2         2         2         2         2         2         2
         2         2         2         2         2         2         2         2
         2         2         2         2         2         2         2         2
         2         2         2         2         2         2         2         2
         2         2         2         2         2         2         2         2
         2         2         2         2         2         2         2         2
         2         2         2         2         2         2         2         2
         2         2         2         2         2         2         2         2
         2         2         2         2         2         2         2         2
         2         2         2         2         2         2         2         2
         2         2         2         2         2         2         2         2
         2         2         2         2         2         2         2         2
         2         2         2         2         2         2         2         2
         2         2         2         2         2         2         2         2
         2         2         2         2         2         2         2         2
         2         2         2         2         2         2         2         2
         2         2         2         2         2         2         2         2
         2         2         2         2         2         2         2         2
         2         2         2         2         2         2         2         2
         2         2         2         2         2         2         2         2
         2         2         2         2         2         2         2         2
         2         2         2         2         2         2         2         2
         2         2         2         2         2         2         2         2
         2         2         2         2         2         2         2         2
         2         2         2         2         2         2         2         2
         2         2         2         2         2         2         2         2
         2         2         2         2         2         2         2         2
         2         2         2         2         2         2         2         2
         2         2         2         2         2         2         2         2
         2         2         2         2         2         2         2         2
         2         2         2         2         2         2         2         2
         2         2         2         2         2         2         2         2
         2         2         2         2         2         2         2         2
         2         2         2         2         2         2         2         2
         2         2         2         2         2         2         2         2
         2         2         2         2         2         2         2         2
         2         2         2         2         2         2         2         2
         2         2         2         2         2         2         2         2
         2         2         2         2         2         2         2         2
         2         2         2         2         2         2         2         2
         2         2         2         2         2         2         2         2
         2         2         2         2         2         2         2         2
         2         2         2         2         2         2         2         2
         2         2         2         2         2         2         2         2
         2         2         2         2         2         2         2         2
         2         2         2         2         2         2         2         2
         2         2         2         2         2         2         2         2
         2         2         2         2         2         2         2         2
         2         2         2         2         2         2         2         2
         2         2         2         2         2         2         2         2
         2         2         2         2         2         2         2         2
         2         2         2         2         2         2         2         2
         2         2         2         2         2         2         2         2
         2         2         2         2         2         2         2         2
         2         2         2         2         2         2         2         2
         2         2         2         2         2         2         2         2
         2         2         2         2         2         2         2         2
         2         2         2         2         2         2         2         2
         2         2         2         2         2         2         2         2
         2         2         2         2         2         2         2         2
         2         2         2         2         2         2         2         2
         2         2         2         2         2         2         2         2
         2         2         2         2         2         2         2         2
         2         2         2         2         2         2         2         2
         2         2         2         2         2         2         2         2
         2         2         2         2         2         2         2         2
         2         2         2         2         2         2         2         2
         2         2         2         2         2         2         2         2
         2         2         2         2         2         2         2         2
         2         2         2         2         2         2         2         2
         2         2         2         2         2         2         2         2
         2         2         2         2         2         2         2         2
         2         2         2         2         2         2         2         2
         2         2         2         2         2         2         2         2
         2         2         2         2         2         2         2         2
         2         2         2         2         2         2         2         2
         2         2         2         2         2         2         2         2
         2         2         2         2         2         2         2         2
         2         2         2         2         2         2         2         2
         2         2         2         2         2         2         2         2
         2         2         2         2         2         2         2         2
         2         2         2         2         2         2         2         2
         2         2         2         2         2         2         2         2
         2         2         2         2         2         2         2         2
         2         2         2         2         2         2         2         2
         2         2         2         2         2         2         2         2
         2         2         2         2         2         2         2         2
         2         2         2         2         2         2         2         2
         2         2         2         2         2         2         2         2
         2         2         2         2         2         2         2         2
         2         2         2         2         2         2         2         2
         2         2         2         2         2         2         2         2
         2         2         2         2         2         2         2         2
         2         2         2         2         2         2         2         2
         2         2         2         2         2         2         2         2
         2         2         2         2         2         2         2         2
         2         2         2         2         2         2         2         2
         2         2         2         2         2         2         2         2
         2         2         2         2         2         2         2         2
         2         2         2         2         2         2         2         2
         2         2         2         2         2         2         2         2
         2         2         2         2         2         2         2         2
         2         2         2         2         2         2         2         2
         2         2         2         2         2         2         2         2
         2         2         2         2         2         2         2         2
         2         2         2         2         2         2         2         2
         2         2         2         2         2         2         2         2
         2         2         2         2         2         2         2         2
         2         2         2         2         2         2         2         2
         2         2         2         2         2         2         2         2
         2         2         2         2         2         2         2         2
         2         2         2         2         2         2         2         2
         2         2         2         2         2         2         2         2
         2         2         2         2         2         2         2         2
         2         2         2         2         2         2         2         2
         2         2         2         2         2         2         2         2
         2         2         2         2         2         2         2         2
         2         2         2         2         2         2         2         2
         2         2         2         2         2         2         2         2
         2         2         2         2         2         2         2         2
         2         2         2         2         2         2         2         2
         2         2         2         2         2         2         2         2
         2         2         2         2         2         2         2         2
         2         2         2         2         2         2         2         2
         2         2         2         2         2         2         2         2
         2         2         2         2         2         2         2         2
         2         2         2         2         2         2         2         2
         2         2         2         2         2         2         2         2
         2         2         2         2         2         2         2         2
         2         2         2         2         2         2         2         2
         2         2         2         2         2         2         2         2
         2         2         2         2         2         2         2         2
         2         2         2         2         2         2         2         2
         2         2         2         2         2         2         2         2
         2         2         2         2         2         2         2         2
         2         2         2         2         2         2         2         2
         2         2         2         2         2         2         2         2
         2         2         2         2         2         2         2         2
         2         2         2         2         2         2         2         2
         2         2         2         2         2         2         2         2
         2         2         2         2         2         2         2         2
         2         2         2         2         2         2         2         2
         2         2         2         2         2         2         2         2
         2         2         2         2         2         2         2         2
         2         2         2         2         2         2         2         2
         2         2         2         2         2         2         2         2
         2         2         2         2         2         2         2         2
         2         2         2         2         2         2         2         2
         2         2         2         2         2         2         2         2
         2         2         2         2         2         2         2         2
         2         2         2         2         2         2         2         2
         2         2         2         2         2         2         2         2
         2         2         2         2         2         2         2         2
         2         2         2         2         2         2         2         2
         2         2         2         2         2         2         2         2
         2         2         2         2         2         2         2         2
         2         2         2         2         2         2         2         2
         2         2         2         2         2         2         2         2
         2         2         2         2         2         2         2         2
         2         2         2         2         2         2         2         2
         2         2         2         2         2         2         2         2
         2         2         2         2         2         2         2         2
         2         2         2         2         2         2         2         2
         2         2         2         2         2         2         2         2
         2         2         2         2         2         2         2         2
         2         2         2         2         2         2         2         2
         2         2         2         2         2         2         2         2
         2         2         2         2         2         2         2         2
         2         2         2         2         2         2         2         2
         2         2         2         2         2         2         2         2
         2         2         2         2         2         2         2         2
         2         2         2         2         2         2         2         2
         2         2         2         2         2         2         2         2
         2         2         2         2         2         2         2         2
         2         2         2         2         2         2         2         2
         2         2         2         2         2         2         2         2
         2         2         2         2         2         2         2         2
         2         2         2         2         2         2         2         2
         2         2         2         2         2         2         2         2
         2         2         2         2         2         2         2         2
         2         2         2         2         2         2         2         2
         2         2         2         2         2         2         2         2
         2         2         2         2         2         2         2         2
         2         2         2         2         2         2         2         2
         2         2         2         2         2         2         2         2
         2         2         2         2         2         2         2         2
         2         2         2         2         2         2         2         2
         2         2         2         2         2         2         2         2
         2         2         2         2         2         2         2         2
         2         2         2         2         2         2         2         2
         2         2         2         2         2         2         2         2
         2         2         2         2         2         2         2         2
         2         2         2         2         2         2         2         2
         2         2         2         2         2         2         2         2
         2         2         2         2         2         2         2         2
         2         2         2         2         2         2         2         2
         2         2         2         2         2         2         2         2
         2         2         2         2         2         2         2         2
         2         2         2         2         2         2         2         2
         2         2         2         2         2         2         2         2
         2         2         2         2         2         2         2         2
         2         2         2         2         2         2         2         2
         2         2         2         2         2         2         2         2
         2         2         2         2         2         2         2         2
         2         2         2         2         2         2         2         2
         2         2         2         2         2         2         2         2
         2         2         2         2         2         2         2         2
         2         2         2         2         2         2         2         2
         2         2         2         2         2         2         2         2
         2         2         2         2         2         2         2         2
         2         2         2         2         2         2         2         2
         2         2         2         2         2         2         2         2
         2         2         2         2         2         2         2         2
         2         2         2         2         2         2         2         2
         2         2         2         2         2         2         2         2
         2         2         2         2         2         2         2         2
         2         2         2         2         2         2         2         2
         2         2         2         2         2         2         2         2
         2         2         2         2         2         2         2         2
         2         2         2         2         2         2         2         2
         2         2         2         2         2         2         2         2
         2         2         2         2         2         2         2         2
         2         2         2         2         2         2         2         2
         2         2         2         2         2         2         2         2
         2         2         2         2         2         2         2         2
         2         2         2         2         2         2         2         2
         2         2         2         2         2         2         2         2
         2         2         2         2         2         2         2         2
         2         2         2         2         2         2         2         2
         2         2         2         2         2         2         2         2
         2         2         2         2         2         2         2         2
         2         2         2         2         2         2         2         2
         2         2         2         2         2         2         2         2
         2         2         2         2         2         2         2         2
         2         2         2         2         2         2         2         2
         2         2         2         2         2         2         2         2
         2         2         2         2         2         2         2         2
         2         2         2         2         2         2         2         2
         2         2         2         2         2         2         2         2
         2         2         2         2         2         2         2         2
         2         2         2         2         2         2         2         2
         2         2         2         2         2         2         2         2
         2         2         2         2         2         2         2         2
         2         2         2         2         2         2         2         2
         2         2         2         2         2         2         2         2
         2         2         2         2         2         2         2         2
         2         2         2         2         2         2         2         2
         2         2         2         2         2         2         2         2
         2         2         2         2         2         2         2         2
         2         2         2         2         2         2         2         2
         2         2         2         2         2         2         2         2
         2         2         2         2         2         2         2         2
         2         2         2         2         2         2         2         2
         2         2         2         2         2         2         2         2
         2         2         2         2         2         2         2         2
         2         2         2         2         2         2         2         2
         2         2         2         2         2         2         2         2
         2         2         2         2         2         2         2         2
         2         2         2         2         2         2         2         2
         2         2         2         2         2         2         2         2
         2         2         2         2         2         2         2         2
         2         2         2         2         2         2         2         2
         2         2         2         2         2         2         2         2
         2         2         2         2         2         2         2         2
         2         2         2         2         2         2         2         2
         2         2         2         2         2         2         2         2
         2         2         2         2         2         2         2         2
         2         2         2         2         2         2         2         2
         2         2         2         2         2         2         2         2
         2         2         2         2         2         2         2         2
         2         2         2         2         2         2         2         2
         2         2         2         2         2         2         2         2
         2         2         2         2         2         2         2         2
         2         2         2         2         2         2         2         2
         2         2         2         2         2         2         2         2
         2         2         2         2         2         2         2         2
         2         2         2         2         2         2         2         2
         2         2         2         2         2         2         2         2
         2         2         2         2         2         2         2         2
         2         2         2         2         2         2         2         2
         2         2         2         2         2         2         2         2
         2         2         2         2         2         2         2         2
         2         2         2         2         2         2         2         2
         2         2         2         2         2         2         2         2
         2         2         2         2         2         2         2         2
         2         2         2         2         2         2         2         2
         2         2         2         2         2         2         2         2
         2         2         2         2         2         2         2         2
         2         2         2         2         2         2         2         2
         2         2         2         2         2         2         2         2
         2         2         2         2         2         2         2         2
         2         2         2         2         2         2         2         2
         2         2         2         2         2         2         2         2
         2         2         2         2         2         2         2         2
         2         2         2         2         2         2         2         2
         2         2         2         2         2         2         2         2
         2         2         2         2         2         2         2         2
         2         2         2         2         2         2         2         2
         2         2         2         2         2         2         2         2
         2         2         2         2         2         2         2         2
         2         2         2         2         2         2         2         2
         2         2         2         2         2         2         2         2
         2         2         2         2         2         2         2         2
         2         2         2         2         2         2         2         2
         2         2         2         2         2         2         2         2
         2         2         2         2         2         2         2         2
         2         2         2         2         2         2         2         2
         2         2         2         2         2         2         2         2
         2         2         2         2         2         2         2         2
         2         2         2         2         2         2         2         2
         2         2         2         2         2         2         2         2
         2         2         2         2         2         2         2         2
         2         2         2         2         2         2         2         2
         2         2         2         2         2         2         2         2
         2         2         2         2         2         2         2         2
         2         2         2         2         2         2         2         2
         2         2         2         2         2         2         2         2
         2         2         2         2         2         2         2         2
         2         2         2         2         2         2         2         2
         2         2         2         2         2         2         2         2
         2         2         2         2         2         2         2         2
         2         2         2         2         2         2         2         2
         2         2         2         2         2         2         2         2
         2         2         2         2         2         2         2         2
         2         2         2         2         2         2         2         2
         2         2         2         2         2         2         2         2
         2         2         2         2         2         2         2         2
         2         2         2         2         2         2         2         2
         2         2         2         2         2         2         2         2
         2         2         2         2         2         2         2         2
         2         2         2         2         2         2         2         2
         2         2         2         2         2         2         2         2
         2         2         2         2         2         2         2         2
         2         2         2         2         2         2         2         2
         2         2         2         2         2         2         2         2
         2         2         2         2         2         2         2         2
         2         2         2         2         2         2         2         2
         2         2         2         2         2         2         2         2
         2         2         2         2         2         2         2         2
         2         2         2         2         2         2         2         2
         2         2         2         2         2         2         2         2
         2         2         2         2         2         2         2         2
         2         2         2         2         2         2         2         2
         2         2         2         2         2         2         2         2
         2         2         2         2         2         2         2         2
         2         2         2         2         2         2         2         2
         2         2         2         2         2         2         2         2
         2         2         2         2         2         2         2         2
         2         2         2         2         2         2         2         2
         2         2         2         2         2         2         2         2
         2         2         2         2         2         2         2         2
         2         2         2         2         2         2         2         2
         2         2         2         2         2         2         2         2
         2         2         2         2         2         2         2         2
         2         2         2         2         2         2         2         2
         2         2         2         2         2         2         2         2
         2         2         2         2         2         2         2         2
         2         2         2         2         2         2         2         2
         2         2         2         2         2         2         2         2
         2         2         2         2         2         2         2         2
         2         2         2         2         2         2         2         2
         2         2         2         2         2         2         2         2
         2         2         2         2         2         2         2         2
         2         2         2         2         2         2         2         2
         2         2         2         2         2         2         2         2
         2         2         2         2         2         2         2         2
         2         2         2         2         2         2         2         2
         2         2         2         2         2         2         2         2
         2         2         2         2         2         2         2         2
         2         2         2         2         2         2         2         2
         2         2         2         2         2         2         2         2
         2         2         2         2         2         2         2         2
         2         2         2         2         2         2         2         2
         2         2         2         2         2         2         2         2
         2         2         2         2         2         2         2         2
         2         2         2         2         2         2         2         2
         2         2         2         2         2         2         2         2
         2         2         2         2         2         2         2         2
         2         2         2         2         2         2         2         2
         2         2         2         2         2         2         2         2
         2         2         2         2         2         2         2         2
         2         2         2         2         2         2         2         2
         2         2         2         2         2         2         2         2
         2         2         2         2         2         2         2         2
         2         2         2         2         2         2         2         2
         2         2         2         2         2         2         2         2
         2         2         2         2         2         2         2         2
         2         2         2         2         2         2         2         2
         2         2         2         2         2         2         2         2
         2         2         2         2         2         2         2         2
         2         2         2         2         2         2         2         2
         2         2         2         2         2         2         2         2
         2         2         2         2         2         2         2         2
         2         2         2         2         2         2         2         2
         2         2         2         2         2         2         2         2
         2         2         2         2         2         2         2         2
         2         2         2         2         2         2         2         2
         2         2         2         2         2         2         2         2
         2         2         2         2         2         2         2         2
         2         2         2         2         2         2         2         2
         2         2         2         2         2         2         2         2
         2         2         2         2         2         2         2         2
         2         2         2         2         2         2         2         2
         2         2         2         2         2         2         2         2
         2         2         2         2         2         2         2         2
         2         2         2         2         2         2         2         2
         2         2         2         2         2         2         2         2
         2         2         2         2         2         2         2         2
         2         2         2         2         2         2         2         2
         2         2         2         2         2         2         2         2
         2         2         2         2         2         2         2         2
         2         2         2         2         2         2         2         2
         2         2         2         2         2         2         2         2
         2         2         2         2         2         2         2         2
         2         2         2         2         2         2         2         2
         2         2         2         2         2         2         2         2
         2         2         2         2         2         2         2         2
         2         2         2         2         2         2         2         2
         2         2         2         2         2         2         2         2
         2         2         2         2         2         2         2         2
         2         2         2         2         2         2         2         2
         2         2         2         2         2         2         2         2
         2         2         2         2         2         2         2         2
         2         2         2         2         2         2         2         2
         2         2         2         2         2         2         2         2
         2         2         2         2         2         2         2         2
         2         2         2         2         2         2         2         2
         2         2         2         2         2         2         2         2
         2         2         2         2         2         2         2         2
         2         2         2         2         2         2         2         2
         2         2         2         2         2         2         2         2
         2         2         2         2         2         2         2         2
         2         2         2         2         2         2         2         2
         2         2         2         2         2         2         2         2
         2         2         2         2         2         2         2         2
         2         2         2         2         2         2         2         2
         2         2         2         2         2         2         2         2
         2         2         2         2         2         2         2         2
         2         2         2         2         2         2         2         2
         2         2         2         2         2         2         2         2
         2         2         2         2         2         2         2         2
         2         2         2         2         2         2         2         2
         2         2         2         2         2         2         2         2
         2         2         2         2         2         2         2         2
         2         2         2         2         2         2         2         2
         2         2         2         2         2         2         2         2
         2         2         2         2         2         2         2         2
         2         2         2         2         2         2         2         2
         2         2         2         2         2         2         2         2
         2         2         2         2         2         2         2         2
         2         2         2         2         2         2         2         2
         2         2         2         2         2         2         2         2
         2         2         2         2         2         2         2         2
         2         2         2         2         2         2         2         2
         2         2         2         2         2         2         2         2
         2         2         2         2         2         2         2         2
         2         2         2         2         2         2         2         2
         2         2         2         2         2         2         2         2
         2         2         2         2         2         2         2         2
         2         2         2         2         2         2         2         2
         2         2         2         2         2         2         2         2
         2         2         2         2         2         2         2         2
         2         2         2         2         2         2         2         2
         2         2         2         2         2         2         2         2
         2         2         2         2         2         2         2         2
         2         2         2         2         2         2         2         2
         2         2         2         2         2         2         2         2
         2         2         2         2         2         2         2         2
         2         2         2         2         2         2         2         2
         2         2         2         2         2         2         2         2
         2         2         2         2         2         2         2         2
         2         2         2         2         2         2         2         2
         2         2         2         2         2         2         2         2
         2         2         2         2         2         2         2         2
         2         2         2         2         2         2         2         2
         2         2         2         2         2         2         2         2
         2         2         2         2         2         2         2         2
         2         2         2         2         2         2         2         2
         2         2         2         2         2         2         2         2
         2         2         2         2         2         2         2         2
         2         2         2         2         2         2         2         2
         2         2         2         2         2         2         2         2
         2         2         2         2         2         2         2         2
         2         2         2         2         2         2         2         2
         2         2         2         2         2         2         2         2
         2         2         2         2         2         2         2         2
         2         2         2         2         2         2         2         2
         2         2         2         2         2         2         2         2
         2         2         2         2         2         2         2         2
         2         2         2         2         2         2         2         2
         2         2         2         2         2         2         2         2
         2         2         2         2         2         2         2         2
         2         2         2         2         2         2         2         2
         2         2         2         2         2         2         2         2
         2         2         2         2         2         2         2         2
         2         2         2         2         2         2         2         2
         2         2         2         2         2         2         2         2
         2         2         2         2         2         2         2         2
         2         2         2         2         2         2         2         2
         2         2         2         2         2         2         2         2
         2         2         2         2         2         2         2         2
         2         2         2         2         2         2         2         2
         2         2         2         2         2         2         2         2
         2         2         2         2         2         2         2         2
         2         2         2         2         2         2         2         2
         2         2         2         2         2         2         2         2
         2         2         2         2         2         2         2         2
         2         2         2         2         2         2         2         2
         2         2         2         2         2         2         2         2
         2         2         2         2         2         2         2         2
         2         2         2         2         2         2         2         2
         2         2         2         2         2         2         2         2
         2         2         2         2         2         2         2         2
         2         2         2         2         2         2         2         2
         2         2         2         2         2         2         2         2
         2         2         2         2         2         2         2         2
         2         2         2         2         2         2         2         2
         2         2         2         2         2         2         2         2
         2         2         2         2         2         2         2         2
         2         2         2         2         2         2         2         2
         2         2         2         2         2         2         2         2
         2         2         2         2         2         2         2         2
         2         2         2         2         2         2         2         2
         2         2         2         2         2         2         2         2
         2         2         2         2         2         2         2         2
         2         2         2         2         2         2         2         2
         2         2         2         2         2         2         2         2
         2         2         2         2         2         2         2         2
         2         2         2         2         2         2         2         2
         2         2         2         2         2         2         2         2
         2         2         2         2         2         2         2         2
         2         2         2         2         2         2         2         2
         2         2         2         2         2         2         2         2
         2         2         2         2         2         2         2         2
         2         2         2         2         2         2         2         2
         2         2         2         2         2         2         2         2
         2         2         2         2         2         2         2         2
         2         2         2         2         2         2         2         2
         2         2         2         2         2         2         2         2
         2         2         2         2         2         2         2         2
         2         2         2         2         2         2         2         2
         2         2         2         2         2         2         2         2
         2         2         2         2         2         2         2         2
         2         2         2         2         2         2         2         2
         2         2         2         2         2         2         2         2
         2         2         2         2         2         2         2         2
         2         2         2         2         2         2         2         2
         2         2         2         2         2         2         2         2
         2         2         2         2         2         2         2         2
         2         2         2         2         2         2         2         2
         2         2         2         2         2         2         2         2
         2         2         2         2         2         2         2         2
         2         2         2         2         2         2         2         2
         2         2         2         2         2         2         2         2
         2         2         2         2         2         2         2         2
         2         2         2         2         2         2         2         2
         2         2         2         2         2         2         2         2
         2         2         2         2         2         2         2         2
         2         2         2         2         2         2         2         2
         2         2         2         2         2         2         2         2
         2         2         2         2         2         2         2         2
         2         2         2         2         2         2         2         2
         2         2         2         2         2         2         2         2
         2         2         2         2         2         2         2         2
         2         2         2         2         2         2         2         2
         2         2         2         2         2         2         2         2
         2         2         2         2         2         2         2         2
         2         2         2         2         2         2         2         2
         2         2         2         2         2         2         2         2
         2         2         2         2         2         2         2         2
         2         2         2         2         2         2         2         2
         2         2         2         2         2         2         2         2
         2         2         2         2         2         2         2         2
         2         2         2         2         2         2         2         2
         2         2         2         2         2         2         2         2
         2         2         2         2         2         2         2         2
         2         2         2         2         2         2         2         2
         2         2         2         2         2         2         2         2
         2         2         2         2         2         2         2         2
         2         2         2         2         2         2         2         2
         2         2         2         2         2         2         2         2
         2         2         2         2         2         2         2         2
         2         2         2         2         2         2         2         2
         2         2         2         2         2         2         2         2
         2         2         2         2         2         2         2         2
         2         2         2         2         2         2         2         2
         2         2         2         2         2         2         2         2
         2         2         2         2         2         2         2         2
         2         2         2         2         2         2         2         2
         2         2         2         2         2         2         2         2
         2         2         2         2         2         2         2         2
         2         2         2         2         2         2         2         2
         2         2         2         2         2         2         2         2
         2         2         2         2         2         2         2         2
         2         2         2         2         2         2         2         2
         2         2         2         2         2         2         2         2
         2         2         2         2         2         2         2         2
         2         2         2         2         2         2         2         2
         2         2         2         2         2         2         2         2
         2         2         2         2         2         2         2         2
         2         2         2         2         2         2         2         2
         2         2         2         2         2         2         2         2
         2         2         2         2         2         2         2         2
         2         2         2         2         2         2         2         2
         2         2         2         2         2         2         2         2
         2         2         2         2         2         2         2         2
         2         2         2         2         2         2         2         2
         2         2         2         2         2         2         2         2
         2         2         2         2         2         2         2         2
         2         2         2         2         2         2         2         2
         2         2         2         2         2         2         2         2
         2         2         2         2         2         2         2         2
         2         2         2         2         2         2         2         2
         2         2         2         2         2         2         2         2
         2         2         2         2         2         2         2         2
         2         2         2         2         2         2         2         2
         2         2         2         2         2         2         2         2
         2         2         2         2         2         2         2         2
         2         2         2         2         2         2         2         2
         2         2         2         2         2         2         2         2
         2         2         2         2         2         2         2         2
         2         2         2         2         2         2         2         2
         2         2         2         2         2         2         2         2
         2         2         2         2         2         2         2         2
         2         2         2         2         2         2         2         2
         2         2         2         2         2         2         2         2
         2         2         2         2         2         2         2         2
         2         2         2         2         2         2         2         2
         2         2         2         2         2         2         2         2
         2         2         2         2         2         2         2         2
         2         2         2         2         2         2         2         2
         2         2         2         2         2         2         2         2
         2         2         2         2         2         2         2         2
         2         2         2         2         2         2         2         2
         2         2         2         2         2         2         2         2
         2         2         2         2         2         2         2         2
         2         2         2         2         2         2         2         2
         2         2         2         2         2         2         2         2
         2         2         2         2         2         2         2         2
         2         2         2         2         2         2         2         2
         2         2         2         2         2         2         2         2
         2         2         2         2         2         2         2         2
         2         2         2         2         2         2         2         2
         2         2         2         2         2         2         2         2
         2         2         2         2         2         2         2         2
         2         2         2         2         2         2         2         2
         2         2         2         2         2         2         2         2
         2         2         2         2         2         2         2         2
         2         2         2         2         2         2         2         2
         2         2         2         2         2         2         2         2
         2         2         2         2         2         2         2         2
         2         2         2         2         2         2         2         2
         2         2         2         2         2         2         2         2
         2         2         2         2         2         2         2         2
         2         2         2         2         2         2         2         2
         2         2         2         2         2         2         2         2
         2         2         2         2         2         2         2         2
         2         2         2         2         2         2         2         2
         2         2         2         2         2         2         2         2
         2         2         2         2         2         2         2         2
         2         2         2         2         2         2         2         2
         2         2         2         2         2         2         2         2
         2         2         2         2         2         2         2         2
         2         2         2         2         2         2         2         2
         2         2         2         2         2         2         2         2
         2         2         2         2         2         2         2         2
         2         2         2         2         2         2         2         2
         2         2         2         2         2         2         2         2
         2         2         2         2         2         2         2         2
         2         2         2         2         2         2         2         2
         2         2         2         2         2         2         2         2
         2         2         2         2         2         2         2         2
         2         2         2         2         2         2         2         2
         2         2         2         2         2         2         2         2
         2         2         2         2         2         2         2         2
         2         2         2         2         2         2         2         2
         2         2         2         2         2         2         2         2
         2         2         2         2         2         2         2         2
         2         2         2         2         2         2         2         2
         2         2         2         2         2         2         2         2
         2         2         2         2         2         2         2         2
         2         2         2         2         2         2         2         2
         2         2         2         2         2         2         2         2
         2         2         2         2         2         2         2         2
         2         2         2         2         2         2         2         2
         2         2         2         2         2         2         2         2
         2         2         2         2         2         2         2         2
         2         2         2         2         2         2         2         2
         2         2         2         2         2         2         2         2
         2         2         2         2         2         2         2         2
         2         2         2         2         2         2         2         2
         2         2         2         2         2         2         2         2
         2         2         2         2         2         2         2         2
         2         2         2         2         2         2         2         2
         2         2         2         2         2         2         2         2
         2         2         2         2         2         2         2         2
         2         2         2         2         2         2         2         2
         2         2         2         2         2         2         2         2
         2         2         2         2         2         2         2         2
         2         2         2         2         2         2         2         2
         2         2         2         2         2         2         2         2
         2         2         2         2         2         2         2         2
         2         2         2         2         2         2         2         2
         2         2         2         2         2         2         2         2
         2         2         2         2         2         2         2         2
         2         2         2         2         2         2         2         2
         2         2         2         2         2         2         2         2
         2         2         2         2         2         2         2         2
         2         2         2         2         2         2         2         2
         2         2         2         2         2         2         2         2
         2         2         2         2         2         2         2         2
         2         2         2         2         2         2         2         2
         2         2         2         2         2         2         2         2
         2         2         2         2         2         2         2         2
         2         2         2         2         2         2         2         2
         2         2         2         2         2         2         2         2
         2         2         2         2         2         2         2         2
         2         2         2         2         2         2         2         2
         2         2         2         2         2         2         2         2
         2         2         2         2         2         2         2         2
         2         2         2         2         2         2         2         2
         2         2         2         2         2         2         2         2
         2         2         2         2         2         2         2         2
         2         2         2         2         2         2         2         2
         2         2         2         2         2         2         2         2
         2         2         2         2         2         2         2         2
         2         2         2         2         2         2         2         2
         2         2         2         2         2         2         2         2
         2         2         2         2         2         2         2         2
         2         2         2         2         2         2         2         2
         2         2         2         2         2         2         2         2
         2         2         2         2         2         2         2         2
         2         2         2         2         2         2         2         2
         2         2         2         2         2         2         2         2
         2         2         2         2         2         2         2         2
         2         2         2         2         2         2         2         2
         2         2         2         2         2         2         2         2
         2         2         2         2         2         2         2         2
         2         2         2         2         2         2         2         2
         2         2         2         2         2         2         2         2
         2         2         2         2         2         2         2         2
         2         2         2         2         2         2         2         2
         2         2         2         2         2         2         2         2
         2         2         2         2         2         2         2         2
         2         2         2         2         2         2         2         2
         2         2         2         2         2         2         2         2
         2         2         2         2         2         2         2         2
         2         2         2         2         2         2         2         2
         2         2         2         2         2         2         2         2
         2         2         2         2         2         2         2         2
         2         2         2         2         2         2         2         2
         2         2         2         2         2         2         2         2
         2         2         2         2         2         2         2         2
         2         2         2         2         2         2         2         2
         2         2         2         2         2         2         2         2
         2         2         2         2         2         2         2         2
         2         2         2         2         2         2         2         2
         2         2         2         2         2         2         2         2
         2         2         2         2         2         2         2         2
         2         2         2         2         2         2         2         2
         2         2         2         2         2         2         2         2
         2         2         2         2         2         2         2         2
         2         2         2         2         2         2         2         2
         2         2         2         2         2         2         2         2
         2         2         2         2         2         2         2         2
         2         2         2         2         2         2         2         2
         2         2         2         2         2         2         2         2
         2         2         2         2         2         2         2         2
         2         2         2         2         2         2         2         2
         2         2         2         2         2         2         2         2
         2         2         2         2         2         2         2         2
         2         2         2         2         2         2         2         2
         2         2         2         2         2         2         2         2
         2         2         2         2         2         2         2         2
         2         2         2         2         2         2         2         2
         2         2         2         2         2         2         2         2
         2         2         2         2         2         2         2         2
         2         2         2         2         2         2         2         2
         2         2         2         2         2         2         2         2
         2         2         2         2         2         2         2         2
         2         2         2         2         2         2         2         2
         2         2         2         2         2         2         2         2
         2         2         2         2         2         2         2         2
         2         2         2         2         2         2         2         2
         2         2         2         2         2         2         2         2
         2         2         2         2         2         2         2         2
         2         2         2         2         2         2         2         2
         2         2         2         2         2         2         2         2
         2         2         2         2         2         2         2         2
         2         2         2         2         2         2         2         2
         2         2         2         2         2         2         2         2
         2         2         2         2         2         2         2         2
         2         2         2         2         2         2         2         2
         2         2         2         2         2         2         2         2
         2         2         2         2         2         2         2         2
         2         2         2         2         2         2         2         2
         2         2         2         2         2         2         2         2
         2         2         2         2         2         2         2         2
         2         2         2         2         2         2         2         2
         2         2         2         2         2         2         2         2
         2         2         2         2         2         2         2         2
         2         2         2         2         2         2         2         2
         2         2         2         2         2         2         2         2
         2         2         2         2         2         2         2         2
         2         2         2         2         2         2         2         2
         2         2         2         2         2         2         2         2
         2         2         2         2         2         2         2         2
         2         2         2         2         2         2         2         2
         2         2         2         2         2         2         2         2
         2         2         2         2         2         2         2         2
         2         2         2         2         2         2         2         2
         2         2         2         2         2         2         2         2
         2         2         2         2         2         2         2         2
         2         2         2         2         2         2         2         2
         2         2         2         2         2         2         2         2
         2         2         2         2         2         2         2         2
         2         2         2         2         2         2         2         2
         2         2         2         2         2         2         2         2
         2         2         2         2         2         2         2         2
         2         2         2         2         2         2         2         2
         2         2         2         2         2         2         2         2
         2         2         2         2         2         2         2         2
         2         2         2         2         2         2         2         2
         2         2         2         2         2         2         2         2
         2         2         2         2         2         2         2         2
         2         2         2         2         2         2         2         2
         2         2         2         2         2         2         2         2
         2         2         2         2         2         2         2         2
         2         2         2         2         2         2         2         2
         2         2         2         2         2         2         2         2
         2         2         2         2         2         2         2         2
         2         2         2         2         2         2         2         2
         2         2         2         2         2         2         2         2
         2         2         2         2         2         2         2         2
         2         2         2         2         2         2         2         2
         2         2         2         2         2         2         2         2
         2         2         2         2         2         2         2         2
         2         2         2         2         2         2         2         2
         2         2         2         2         2         2         2         2
         2         2         2         2         2         2         2         2
         2         2         2         2         2         2         2         2
         2         2         2         2         2         2         2         2
         2         2         2         2         2         2         2         2
         2         2         2         2         2         2         2         2
         2         2         2         2         2         2         2         2
         2         2         2         2         2         2         2         2
         2         2         2         2         2         2         2         2
         2         2         2         2         2         2         2         2
         2         2         2         2         2         2         2         2
         2         2         2         2         2         2         2         2
         2         2         2         2         2         2         2         2
         2         2         2         2         2         2         2         2
         2         2         2         2         2         2         2         2
         2         2         2         2         2         2         2         2
         2         2         2         2         2         2         2         2
         2         2         2         2         2         2         2         2
         2         2         2         2         2         2         2         2
         2         2         2         2         2         2         2         2
         2         2         2         2         2         2         2         2
         2         2         2         2         2         2         2         2
         2         2         2         2         2         2         2         2
         2         2         2         2         2         2         2         2
         2         2         2         2         2         2         2         2
         2         2         2         2         2         2         2         2
         2         2         2         2         2         2         2         2
         2         2         2         2         2         2         2         2
         2         2         2         2         2         2         2         2
         2         2         2         2         2         2         2         2
         2         2         2         2         2         2         2         2
         2         2         2         2         2         2         2         2
         2         2         2         2         2         2         2         2
         2         2         2         2         2         2         2         2
         2         2         2         2         2         2         2         2
         2         2         2         2         2         2         2         2
         2         2         2         2         2         2         2         2
         2         2         2         2         2         2         2         2
         2         2         2         2         2         2         2         2
         2         2         2         2         2         2         2         2
         2         2         2         2         2         2         2         2
         2         2         2         2         2         2         2         2
         2         2         2         2         2         2         2         2
         2         2         2         2         2         2         2         2
         2         2         2         2         2         2         2         2
         2         2         2         2         2         2         2         2
         2         2         2         2         2         2         2         2
         2         2         2         2         2         2         2         2
         2         2         2         2         2         2         2         2
         2         2         2         2         2         2         2         2
         2         2         2         2         2         2         2         2
         2         2         2         2         2         2         2         2
         2         2         2         2         2         2         2         2
         2         2         2         2         2         2         2         2
         2         2         2         2         2         2         2         2
         2         2         2         2         2         2         2         2
         2         2         2         2         2         2         2         2
         2         2         2         2         2         2         2         2
         2         2         2         2         2         2         2         2
         2         2         2         2         2         2         2         2
         2         2         2         2         2         2         2         2
         2         2         2         2         2         2         2         2
         2         2         2         2         2         2         2         2
         2         2         2         2         2         2         2         2
         2         2         2         2         2         2         2         2
         2         2         2         2         2         2         2         2
         2         2         2         2         2         2         2         2
         2         2         2         2         2         2         2         2
         2         2         2         2         2         2         2         2
         2         2         2         2         2         2         2         2
         2         2         2         2         2         2         2         2
         2         2         2         2         2         2         2         2
         2         2         2         2         2         2         2         2
         2         2         2         2         2         2         2         2
         2         2         2         2         2         2         2         2
         2         2         2         2         2         2         2         2
         2         2         2         2         2         2         2         2
         2         2         2         2         2         2         2         2
         2         2         2         2         2         2         2         2
         2         2         2         2         2         2         2         2
         2         2         2         2         2         2         2         2
         2         2         2         2         2         2         2         2
         2         2         2         2         2         2         2         2
         2         2         2         2         2         2         2         2
         2         2         2         2         2         2         2         2
         2         2         2         2         2         2         2         2
         2         2         2         2         2         2         2         2
         2         2         2         2         2         2         2         2
         2         2         2         2         2         2         2         2
         2         2         2         2         2         2         2         2
         2         2         2         2         2         2         2         2
         2         2         2         2         2         2         2         2
         2         2         2         2         2         2         2         2
         2         2         2         2         2         2         2         2
         2         2         2         2         2         2         2         2
         2         2         2         2         2         2         2         2
         2         2         2         2         2         2         2         2
         2         2         2         2         2         2         2         2
         2         2         2         2         2         2         2         2
         2         2         2         2         2         2         2         2
         2         2         2         2         2         2         2         2
         2         2         2         2         2         2         2         2
         2         2         2         2         2         2         2         2
         2         2         2         2         2         2         2         2
         2         2         2         2         2         2         2         2
         2         2         2         2         2         2         2         2
         2         2         2         2         2         2         2         2
         2         2         2         2         2         2         2         2
         2         2         2         2         2         2         2         2
         2         2         2         2         2         2         2         2
         2         2         2         2         2         2         2         2
         2         2         2         2         2         2         2         2
         2         2         2         2         2         2         2         2
         2         2         2         2         2         2         2         2
         2         2         2         2         2         2         2         2
         2         2         2         2         2         2         2         2
         2         2         2         2         2         2         2         2
         2         2         2         2         2         2         2         2
         2         2         2         2         2         2         2         2
         2         2         2         2         2         2         2         2
         2         2         2         2         2         2         2         2
         2         2         2         2         2         2         2         2
         2         2         2         2         2         2         2         2
         2         2         2         2         2         2         2         2
         2         2         2         2         2         2         2         2
         2         2         2         2         2         2         2         2
         2         2         2         2         2         2         2         2
         2         2         2         2         2         2         2         2
         2         2         2         2         2         2         2         2
         2         2         2         2         2         2         2         2
         2         2         2         2         2         2         2         2
         2         2         2         2         2         2         2         2
         2         2         2         2         2         2         2         2
         2         2         2         2         2         2         2         2
         2         2         2         2         2         2         2         2
         2         2         2         2         2         2         2         2
         2         2         2         2         2         2         2         2
         2         2         2         2         2         2         2         2
         2         2         2         2         2         2         2         2
         2         2         2         2         2         2         2         2
         2         2         2         2         2         2         2         2
         2         2         2         2         2         2         2         2
         2         2         2         2         2         2         2         2
         2         2         2         2         2         2         2         2
         2         2         2         2         2         2         2         2
         2         2         2         2         2         2         2         2
         2         2         2         2         2         2         2         2
         2         2         2         2         2         2         2         2
         2         2         2         2         2         2         2         2
         2         2         2         2         2         2         2         2
         2         2         2         2         2         2         2         2
         2         2         2         2         2         2         2         2
         2         2         2         2         2         2         2         2
         2         2         2         2         2         2         2         2
         2         2         2         2         2         2         2         2
         2         2         2         2         2         2         2         2
         2         2         2         2         2         2         2         2
         2         2         2         2         2         2         2         2
         2         2         2         2         2         2         2         2
         2         2         2         2         2         2         2         2
         2         2         2         2         2         2         2         2
         2         2         2         2         2         2         2         2
         2         2         2         2         2         2         2         2
         2         2         2         2         2         2         2         2
         2         2         2         2         2         2         2         2
         2         2         2         2         2         2         2         2
         2         2         2         2         2         2         2         2
         2         2         2         2         2         2         2         2
         2         2         2         2         2         2         2         2
         2         2         2         2         2         2         2         2
         2         2         2         2         2         2         2         2
         2         2         2         2         2         2         2         2
         2         2         2         2         2         2         2         2
         2         2         2         2         2         2         2         2
         2         2         2         2         2         2         2         2
         2         2         2         2         2         2         2         2
         2         2         2         2         2         2         2         2
         2         2         2         2         2         2         2         2
         2         2         2         2         2         2         2         2
         2         2         2         2         2         2         2         2
         2         2         2         2         2         2         2         2
         2         2         2         2         2         2         2         2
         2         2         2         2         2         2         2         2
         2         2         2         2         2         2         2         2
         2         2         2         2         2         2         2         2
         2         2         2         2         2         2         2         2
         2         2         2         2         2         2         2         2
         2         2         2         2         2         2         2         2
         2         2         2         2         2         2         2         2
         2         2         2         2         2         2         2         2
         2         2         2         2         2         2         2         2
         2         2         2         2         2         2         2         2
         2         2         2         2         2         2         2         2
         2         2         2         2         2         2         2         2
         2         2         2         2         2         2         2         2
         2         2         2         2         2         2         2         2
         2         2         2         2         2         2         2         2
         2         2         2         2         2         2         2         2
         2         2         2         2         2         2         2         2
         2         2         2         2         2         2         2         2
         2         2         2         2         2         2         2         2
         2         2         2         2         2         2         2         2
         2         2         2         2         2         2         2         2
         2         2         2         2         2         2         2         2
         2         2         2         2         2         2         2         2
         2         2         2         2         2         2         2         2
         2         2         2         2         2         2         2         2
         2         2         2         2         2         2         2         2
         2         2         2         2         2         2         2         2
         2         2         2         2         2         2         2         2
         2         2         2         2         2         2         2         2
         2         2         2         2         2         2         2         2
         2         2         2         2         2         2         2         2
         2         2         2         2         2         2         2         2
         2         2         2         2         2         2         2         2
         2         2         2         2         2         2         2         2
         2         2         2         2         2         2         2         2
         2         2         2         2         2         2         2         2
         2         2         2         2         2         2         2         2
         2         2         2         2         2         2         2         2
         2         2         2         2         2         2         2         2
         2         2         2         2         2         2         2         2
         2         2         2         2         2         2         2         2
         2         2         2         2         2         2         2         2
         2         2         2         2         2         2         2         2
         2         2         2         2         2         2         2         2
         2         2         2         2         2         2         2         2
         2         2         2         2         2         2         2         2
         2         2         2         2         2         2         2         2
         2         2         2         2         2         2         2         2
         2         2         2         2         2         2         2         2
         2         2         2         2         2         2         2         2
         2         2         2         2         2         2         2         2
         2         2         2         2         2         2         2         2
         2         2         2         2         2         2         2         2
         2         2         2         2         2         2         2         2
         2         2         2         2         2         2         2         2
         2         2         2         2         2         2         2         2
         2         2         2         2         2         2         2         2
         2         2         2         2         2         2         2         2
         2         2         2         2         2         2         2         2
         2         2         2         2         2         2         2         2
         2         2         2         2         2         2         2         2
         2         2         2         2         2         2         2         2
         2         2         2         2         2         2         2         2
         2         2         2         2         2         2         2         2
         2         2         2         2         2         2         2         2
         2         2         2         2         2         2         2         2
         2         2         2         2         2         2         2         2
         2         2         2         2         2         2         2         2
         2         2         2         2         2         2         2         2
         2         2         2         2         2         2         2         2
         2         2         2         2         2         2         2         2
         2         2         2         2         2         2         2         2
         2         2         2         2         2         2         2         2
         2         2         2         2         2         2         2         2
         2         2         2         2         2         2         2         2
         2         2         2         2         2         2         2         2
         2         2         2         2         2         2         2         2
         2         2         2         2         2         2         2         2
         2         2         2         2         2         2         2         2
         2         2         2         2         2         2         2         2
         2         2         2         2         2         2         2         2
         2         2         2         2         2         2         2         2
         2         2         2         2         2         2         2         2
         2         2         2         2         2         2         2         2
         2         2         2         2         2         2         2         2
         2         2         2         2         2         2         2         2
         2         2         2         2         2         2         2         2
         2         2         2         2         2         2         2         2
         2         2         2         2         2         2         2         2
         2         2         2         2         2         2         2         2
         2         2         2         2         2         2         2         2
         2         2         2         2         2         2         2         2
         2         2         2         2         2         2         2         2
         2         2         2         2         2         2         2         2
         2         2         2         2         2         2         2         2
         2         2         2         2         2         2         2         2
         2         2         2         2         2         2         2         2
         2         2         2         2         2         2         2         2
         2         2         2         2         2         2         2         2
         2         2         2         2         2         2         2         2
         2         2         2         2         2         2         2         2
         2         2         2         2         2         2         2         2
         2         2         2         2         2         2         2         2
         2         2         2         2         2         2         2         2
         2         2         2         2         2         2         2         2
         2         2         2         2         2         2         2         2
         2         2         2         2         2         2         2         2
         2         2         2         2         2         2         2         2
         2         2         2         2         2         2         2         2
         2         2         2         2         2         2         2         2
         2         2         2         2         2         2         2         2
         2         2         2         2         2         2         2         2
         2         2         2         2         2         2         2         2
         2         2         2         2         2         2         2         2
         2         2         2         2         2         2         2         2
         2         2         2         2         2         2         2         2
         2         2         2         2         2         2         2         2
         2         2         2         2         2         2         2         2
         2         2         2         2         2         2         2         2
         2         2         2         2         2         2         2         2
         2         2         2         2         2         2         2         2
         2         2         2         2         2         2         2         2
         2         2         2         2         2         2         2         2
         2         2         2         2         2         2         2         2
         2         2         2         2         2         2         2         2
         2         2         2         2         2         2         2         2
         2         2         2         2         2         2         2         2
         2         2         2         2         2         2         2         2
         2         2         2         2         2         2         2         2
         2         2         2         2         2         2         2         2
         2         2         2         2         2         2         2         2
         2         2         2         2         2         2         2         2
         2         2         2         2         2         2         2         2
         2         2         2         2         2         2         2         2
         2         2         2         2         2         2         2         2
         2         2         2         2         2         2         2         2
         2         2         2         2         2         2         2         2
         2         2         2         2         2         2         2         2
         2         2         2         2         2         2         2         2
         2         2         2         2         2         2         2         2
         2         2         2         2         2         2         2         2
         2         2         2         2         2         2         2         2
         2         2         2         2         2         2         2         2
         2         2         2         2         2         2         2         2
         2         2         2         2         2         2         2         2
         2         2         2         2         2         2         2         2
         2         2         2         2         2         2         2         2
         2         2         2         2         2         2         2         2
         2         2         2         2         2         2         2         2
         2         2         2         2         2         2         2         2
         2         2         2         2         2         2         2         2
         2         2         2         2         2         2         2         2
         2         2         2         2         2         2         2         2
         2         2         2         2         2         2         2         2
         2         2         2         2         2         2         2         2
         2         2         2         2         2         2         2         2
         2         2         2         2         2         2         2         2
         2         2         2         2         2         2         2         2
         2         2         2         2         2         2         2         2
         2         2         2         2         2         2         2         2
         2         2         2         2         2         2         2         2
         2         2         2         2         2         2         2         2
         2         2         2         2         2         2         2         2
         2         2         2         2         2         2         2         2
         2         2         2         2         2         2         2         2
         2         2         2         2         2         2         2         2
         2         2         2         2         2         2         2         2
         2         2         2         2         2         2         2         2
         2         2         2         2         2         2         2         2
         2         2         2         2         2         2         2         2
         2         2         2         2         2         2         2         2
         2         2         2         2         2         2         2         2
         2         2         2         2         2         2         2         2
         2         2         2         2         2         2         2         2
         2         2         2         2         2         2         2         2
         2         2         2         2         2         2         2         2
         2         2         2         2         2         2         2         2
         2         2         2         2         2         2         2         2
         2         2         2         2         2         2         2         2
         2         2         2         2         2         2         2         2
         2         2         2         2         2         2         2         2
         2         2         2         2         2         2         2         2
         2         2         2         2         2         2         2         2
         2         2         2         2         2         2         2         2
         2         2         2         2         2         2         2         2
         2         2         2         2         2         2         2         2
         2         2         2         2         2         2         2         2
         2         2         2         2         2         2         2         2
         2         2         2         2         2         2         2         2
         2         2         2         2         2         2         2         2
         2         2         2         2         2         2         2         2
         2         2         2         2         2         2         2         2
         2         2         2         2         2         2         2         2
         2         2         2         2         2         2         2         2
         2         2         2         2         2         2         2         2
         2         2         2         2         2         2         2         2
         2         2         2         2         2         2         2         2
         2         2         2         2         2         2         2         2
         2         2         2         2         2         2         2         2
         2         2         2         2         2         2         2         2
         2         2         2         2         2         2         2         2
         2         2         2         2         2         2         2         2
         2         2         2         2         2         2         2         2
         2         2         2         2         2         2         2         2
         2         2         2         2         2         2         2         2
         2         2         2         2         2         2         2         2
         2         2         2         2         2         2         2         2
         2         2         2         2         2         2         2         2
         2         2         2         2         2         2         2         2
         2         2         2         2         2         2         2         2
         2         2         2         2         2         2         2         2
         2         2         2         2         2         2         2         2
         2         2         2         2         2         2         2         2
         2         2         2         2         2         2         2         2
         2         2         2         2         2         2         2         2
         2         2         2         2         2         2         2         2
         2         2         2         2         2         2         2         2
         2         2         2         2         2         2         2         2
         2         2         2         2         2         2         2         2
         2         2         2         2         2         2         2         2
         2         2         2         2         2         2         2         2
         2         2         2         2         2         2         2         2
         2         2         2         2         2         2         2         2
         2         2         2         2         2         2         2         2
         2         2         2         2         2         2         2         2
         2         2         2         2         2         2         2         2
         2         2         2         2         2         2         2         2
         2         2         2         2         2         2         2         2
         2         2         2         2         2         2         2         2
         2         2         2         2         2         2         2         2
         2         2         2         2         2         2         2         2
         2         2         2         2         2         2         2         2
         2         2         2         2         2         2         2         2
         2         2         2         2         2         2         2         2
         2         2         2         2         2         2         2         2
         2         2         2         2         2         2         2         2
         2         2         2         2         2         2         2         2
         2         2         2         2         2         2         2         2
         2         2         2         2         2         2         2         2
         2         2         2         2         2         2         2         2
         2         2         2         2         2         2         2         2
         2         2         2         2         2         2         2         2
         2         2         2         2         2         2         2         2
         2         2         2         2         2         2         2         2
         2         2         2         2         2         2         2         2
         2         2         2         2         2         2         2         2
         2         2         2         2         2         2         2         2
         2         2         2         2         2         2         2         2
         2         2         2         2         2         2         2         2
         2         2         2         2         2         2         2         2
         2         2         2         2         2         2         2         2
         2         2         2         2         2         2         2         2
         2         2         2         2         2         2         2         2
         2         2         2         2         2         2         2         2
         2         2         2         2         2         2         2         2
         2         2         2         2         2         2         2         2
         2         2         2         2         2         2         2         2
         2         2         2         2         2         2         2         2
         2         2         2         2         2         2         2         2
         2         2         2         2         2         2         2         2
         2         2         2         2         2         2         2         2
         2         2         2         2         2         2         2         2
         2         2         2         2         2         2         2         2
         2         2         2         2         2         2         2         2
         2         2         2         2         2         2         2         2
         2         2         2         2         2         2         2         2
         2         2         2         2         2         2         2         2
         2         2         2         2         2         2         2         2
         2         2         2         2         2         2         2         2
         2         2         2         2         2         2         2         2
         2         2         2         2         2         2         2         2
         2         2         2         2         2         2         2         2
         2         2         2         2         2         2         2         2
         2         2         2         2         2         2         2         2
         2         2         2         2         2         2         2         2
         2         2         2         2         2         2         2         2
         2         2         2         2         2         2         2         2
         2         2         2         2         2         2         2         2
         2         2         2         2         2         2         2         2
         2         2         2         2         2         2         2         2
         2         2         2         2         2         2         2         2
         2         2         2         2         2         2         2         2
         2         2         2         2         2         2         2         2
         2         2         2         2         2         2         2         2
         2         2         2         2         2         2         2         2
         2         2         2         2         2         2         2         2
         2         2         2         2         2         2         2         2
         2         2         2         2         2         2         2         2
         2         2         2         2         2         2         2         2
         2         2         2         2         2         2         2         2
         2         2         2         2         2         2         2         2
         2         2         2         2         2         2         2         2
         2         2         2         2         2         2         2         2
         2         2         2         2         2         2         2         2
         2         2         2         2         2         2         2         2
         2         2         2         2         2         2         2         2
         2         2         2         2         2         2         2         2
         2         2         2         2         2         2         2         2
         2         2         2         2         2         2         2         2
         2         2         2         2         2         2         2         2
         2         2         2         2         2         2         2         2
         2         2         2         2         2         2         2         2
         2         2         2         2         2         2         2         2
         2         2         2         2         2         2         2         2
         2         2         2         2         2         2         2         2
         2         2         2         2         2         2         2         2
         2         2         2         2         2         2         2         2
         2         2         2         2         2         2         2         2
         2         2         2         2         2         2         2         2
         2         2         2         2         2         2         2         2
         2         2         2         2         2         2         2         2
         2         2         2         2         2         2         2         2
         2         2         2         2         2         2         2         2
         2         2         2         2         2         2         2         2
         2         2         2         2         2         2         2         2
         2         2         2         2         2         2         2         2
         2         2         2         2         2         2         2         2
         2         2         2         2         2         2         2         2
         2         2         2         2         2         2         2         2
         2         2         2         2         2         2         2         2
         2         2         2         2         2         2         2         2
         2         2         2         2         2         2         2         2
         2         2         2         2         2         2         2         2
         2         2         2         2         2         2         2         2
         2         2         2         2         2         2         2         2
         2         2         2         2         2         2         2         2
         2         2         2         2         2         2         2         2
         2         2         2         2         2         2         2         2
         2         2         2         2         2         2         2         2
         2         2         2         2         2         2         2         2
         2         2         2         2         2         2         2         2
         2         2         2         2         2         2         2         2
         2         2         2         2         2         2         2         2
         2         2         2         2         2         2         2         2
         2         2         2         2         2         2         2         2
         2         2         2         2         2         2         2         2
         2         2         2         2         2         2         2         2
         2         2         2         2         2         2         2         2
         2         2         2         2         2         2         2         2
         2         2         2         2         2         2         2         2
         2         2         2         2         2         2         2         2
         2         2         2         2         2         2         2         2
         2         2         2         2         2         2         2         2
         2         2         2         2         2         2         2         2
         2         2         2         2         2         2         2         2
         2         2         2         2         2         2         2         2
         2         2         2         2         2         2         2         2
         2         2         2         2         2         2         2         2
         2         2         2         2         2         2         2         2
         2         2         2         2         2         2         2         2
         2         2         2         2         2         2         2         2
         2         2         2         2         2         2         2         2
         2         2         2         2         2         2         2         2
         2         2         2         2         2         2         2         2
         2         2         2         2         2         2         2         2
         2         2         2         2         2         2         2         2
         2         2         2         2         2         2         2         2
         2         2         2         2         2         2         2         2
         2         2         2         2         2         2         2         2
         2         2         2         2         2         2         2         2
         2         2         2         2         2         2         2         2
         2         2         2         2         2         2         2         2
         2         2         2         2         2         2         2         2
         2         2         2         2         2         2         2         2
         2         2         2         2         2         2         2         2
         2         2         2         2         2         2         2         2
         2         2         2         2         2         2         2         2
         2         2         2         2         2         2         2         2
         2         2         2         2         2         2         2         2
         2         2         2         2         2         2         2         2
         2         2         2         2         2         2         2         2
         2         2         2         2         2         2         2         2
         2         2         2         2         2         2         2         2
         2         2         2         2         2         2         2         2
         2         2         2         2         2         2         2         2
         2         2         2         2         2         2         2         2
         2         2         2         2         2         2         2         2
         2         2         2         2         2         2         2         2
         2         2         2         2         2         2         2         2
         2         2         2         2         2         2         2         2
         2         2         2         2         2         2         2         2
         2         2         2         2         2         2         2         2
         2         2         2         2         2         2         2         2
         2         2         2         2         2         2         2         2
         2         2         2         2         2         2         2         2
         2         2         2         2         2         2         2         2
         2         2         2         2         2         2         2         2
         2         2         2         2         2         2         2         2
         2         2         2         2         2         2         2         2
         2         2         2         2         2         2         2         2
         2         2         2         2         2         2         2         2
         2         2         2         2         2         2         2         2
         2         2         2         2         2         2         2         2
         2         2         2         2         2         2         2         2
         2         2         2         2         2         2         2         2
         2         2         2         2         2         2         2         2
         2         2         2         2         2         2         2         2
         2         2         2         2         2         2         2         2
         2         2         2         2         2         2         2         2
         2         2         2         2         2         2         2         2
         2         2         2         2         2         2         2         2
         2         2         2         2         2         2         2         2
         2         2         2         2         2         2         2         2
         2         2         2         2         2         2         2         2
         2         2         2         2         2         2         2         2
         2         2         2         2         2         2         2         2
         2         2         2         2         2         2         2         2
         2         2         2         2         2         2         2         2
         2         2         2         2         2         2         2         2
         2         2         2         2         2         2         2         2
         2         2         2         2         2         2         2         2
         2         2         2         2         2         2         2         2
         2         2         2         2         2         2         2         2
         2         2         2         2         2         2         2         2
         2         2         2         2         2         2         2         2
         2         2         2         2         2         2         2         2
         2         2         2         2         2         2         2         2
         2         2         2         2         2         2         2         2
         2         2         2         2         2         2         2         2
         2         2         2         2         2         2         2         2
         2         2         2         2         2         2         2         2
         2         2         2         2         2         2         2         2
         2         2         2         2         2         2         2         2
         2         2         2         2         2         2         2         2
         2         2         2         2         2         2         2         2
         2         2         2         2         2         2         2         2
         2         2         2         2         2         2         2         2
         2         2         2         2         2         2         2         2
         2         2         2         2         2         2         2         2
         2         2         2         2         2         2         2         2
         2         2         2         2         2         2         2         2
         2         2         2         2         2         2         2         2
         2         2         2         2         2         2         2         2
         2         2         2         2         2         2         2         2
         2         2         2         2         2         2         2         2
         2         2         2         2         2         2         2         2
         2         2         2         2         2         2         2         2
         2         2         2         2         2         2         2         2
         2         2         2         2         2         2         2         2
         2         2         2         2         2         2         2         2
         2         2         2         2         2         2         2         2
         2         2         2         2         2         2         2         2
         2         2         2         2         2         2         2         2
         2         2         2         2         2         2         2         2
         2         2         2         2         2         2         2         2
         2         2         2         2         2         2         2         2
         2         2         2         2         2         2         2         2
         2         2         2         2         2         2         2         2
         2         2         2         2         2         2         2         2
         2         2         2         2         2         2         2         2
         2         2         2         2         2         2         2         2
         2         2         2         2         2         2         2         2
         2         2         2         2         2         2         2         2
         2         2         2         2         2         2         2         2
         2         2         2         2         2         2         2         2
         2         2         2         2         2         2         2         2
         2         2         2         2         2         2         2         2
         2         2         2         2         2         2         2         2
         2         2         2         2         2         2         2         2
         2         2         2         2         2         2         2         2
         2         2         2         2         2         2         2         2
         2         2         2         2         2         2         2         2
         2         2         2         2         2         2         2         2
         2         2         2         2         2         2         2         2
         2         2         2         2         2         2         2         2
         2         2         2         2         2         2         2         2
         2         2         2         2         2         2         2         2
         2         2         2         2         2         2         2         2
         2         2         2         2         2         2         2         2
         2         2         2         2         2         2         2         2
         2         2         2         2         2         2         2         2
         2         2         2         2         2         2         2         2
         2         2         2         2         2         2         2         2
         2         2         2         2         2         2         2         2
         2         2         2         2         2         2         2         2
         2         2         2         2         2         2         2         2
         2         2         2         2         2         2         2         2
         2         2         2         2         2         2         2         2
         2         2         2         2         2         2         2         2
         2         2         2         2         2         2         2         2
         2         2         2         2         2         2         2         2
         2         2         2         2         2         2         2         2
         2         2         2         2         2         2         2         2
         2         2         2         2         2         2         2         2
         2         2         2         2         2         2         2         2
         2         2         2         2         2         2         2         2
         2         2         2         2         2         2         2         2
         2         2         2         2         2         2         2         2
         2         2         2         2         2         2         2         2
         2         2         2         2         2         2         2         2
         2         2         2         2         2         2         2         2
         2         2         2         2         2         2         2         2
         2         2         2         2         2         2         2         2
         2         2         2         2         2         2         2         2
         2         2         2         2         2         2         2         2
         2         2         2         2         2         2         2         2
         2         2         2         2         2         2         2         2
         2         2         2         2         2         2         2         2
         2         2         2         2         2         2         2         2
         2         2         2         2         2         2         2         2
         2         2         2         2         2         2         2         2
         2         2         2         2         2         2         2         2
         2         2         2         2         2         2         2         2
         2         2         2         2         2         2         2         2
         2         2         2         2         2         2         2         2
         2         2         2         2         2         2         2         2
         2         2         2         2         2         2         2         2
         2         2         2         2         2         2         2         2
         2         2         2         2         2         2         2         2
         2         2         2         2         2         2         2         2
         2         2         2         2         2         2         2         2
         2         2         2         2         2         2         2         2
         2         2         2         2         2         2         2         2
         2         2         2         2         2         2         2         2
         2         2         2         2         2         2         2         2
         2         2         2         2         2         2         2         2
         2         2         2         2         2         2         2         2
         2         2         2         2         2         2         2         2
         2         2         2         2         2         2         2         2
         2         2         2         2         2         2         2         2
         2         2         2         2         2         2         2         2
         2         2         2         2         2         2         2         2
         2         2         2         2         2         2         2         2
         2         2         2         2         2         2         2         2
         2         2         2         2         2         2         2         2
         2         2         2         2         2         2         2         2
         2         2         2         2         2         2         2         2
         2         2         2         2         2         2         2         2
         2         2         2         2         2         2         2         2
         2         2         2         2         2         2         2         2
         2         2         2         2         2         2         2         2
         2         2         2         2         2         2         2         2
         2         2         2         2         2         2         2         2
         2         2         2         2         2         2         2         2
         2         2         2         2         2         2         2         2
         2         2         2         2         2         2         2         2
         2         2         2         2         2         2         2         2
         2         2         2         2         2         2         2         2
         2         2         2         2         2         2         2         2
         2         2         2         2         2         2         2         2
         2         2         2         2         2         2         2         2
         2         2         2         2         2         2         2         2
         2         2         2         2         2         2         2         2
         2         2         2         2         2         2         2         2
         2         2         2         2         2         2         2         2
         2         2         2         2         2         2         2         2
         2         2         2         2         2         2         2         2
         2         2         2         2         2         2         2         2
         2         2         2         2         2         2         2         2
         2         2         2         2         2         2         2         2
         2         2         2         2         2         2         2         2
         2         2         2         2         2         2         2         2
         2         2         2         2         2         2         2         2
         2         2         2         2         2         2         2         2
         2         2         2         2         2         2         2         2
         2         2         2         2         2         2         2         2
         2         2         2         2         2         2         2         2
         2         2         2         2         2         2         2         2
         2         2         2         2         2         2         2         2
         2         2         2         2         2         2         2         2
         2         2         2         2         2         2         2         2
         2         2         2         2         2         2         2         2
         2         2         2         2         2         2         2         2
         2         2         2         2         2         2         2         2
         2         2         2         2         2         2         2         2
         2         2         2         2         2         2         2         2
         2         2         2         2         2         2         2         2
         2         2         2         2         2         2         2         2
         2         2         2         2         2         2         2         2
         2         2         2         2         2         2         2         2
         2         2         2         2         2         2         2         2
         2         2         2         2         2         2         2         2
         2         2         2         2         2         2         2         2
         2         2         2         2         2         2         2         2
         2         2         2         2         2         2         2         2
         2         2         2         2         2         2         2         2
         2         2         2         2         2         2         2         2
         2         2         2         2         2         2         2         2
         2         2         2         2         2         2         2         2
         2         2         2         2         2         2         2         2
         2         2         2         2         2         2         2         2
         2         2         2         2         2         2         2         2
         2         2         2         2         2         2         2         2
         2         2         2         2         2         2         2         2
         2         2         2         2         2         2         2         2
         2         2         2         2         2         2         2         2
         2         2         2         2         2         2         2         2
         2         2         2         2         2         2         2         2
         2         2         2         2         2         2         2         2
         2         2         2         2         2         2         2         2
         2         2         2         2         2         2         2         2
         2         2         2         2         2         2         2         2
         2         2         2         2         2         2         2         2
         2         2         2         2         2         2         2         2
         2         2         2         2         2         2         2         2
         2         2         2         2         2         2         2         2
         2         2         2         2         2         2         2         2
         2         2         2         2         2         2         2         2
         2         2         2         2         2         2         2         2
         2         2         2         2         2         2         2         2
         2         2         2         2         2         2         2         2
         2         2         2         2         2         2         2         2
         2         2         2         2         2         2         2         2
         2         2         2         2         2         2         2         2
         2         2         2         2         2         2         2         2
         2         2         2         2         2         2         2         2
         2         2         2         2         2         2         2         2
         2         2         2         2         2         2         2         2
         2         2         2         2         2         2         2         2
         2         2         2         2         2         2         2         2
         2         2         2         2         2         2         2         2
         2         2         2         2         2         2         2         2
         2         2         2         2         2         2         2         2
         2         2         2         2         2         2         2         2
         2         2         2         2         2         2         2         2
         2         2         2         2         2         2         2         2
         2         2         2         2         2         2         2         2
         2         2         2         2         2         2         2         2
         2         2         2         2         2         2         2         2
         2         2         2         2         2         2         2         2
         2         2         2         2         2         2         2         2
         2         2         2         2         2         2         2         2
         2         2         2         2         2         2         2         2
         2         2         2         2         2         2         2         2
         2         2         2         2         2         2         2         2
         2         2         2         2         2         2         2         2
         2         2         2         2         2         2         2         2
         2         2         2         2         2         2         2         2
         2         2         2         2         2         2         2         2
         2         2         2         2         2         2         2         2
         2         2         2         2         2         2         2         2
         2         2         2         2         2         2         2         2
         2         2         2         2         2         2         2         2
         2         2         2         2         2         2         2         2
         2         2         2         2         2         2         2         2
         2         2         2         2         2         2         2         2
         2         2         2         2         2         2         2         2
         2         2         2         2         2         2         2         2
         2         2         2         2         2         2         2         2
         2         2         2         2         2         2         2         2
         2         2         2         2         2         2         2         2
         2         2         2         2         2         2         2         2
         2         2         2         2         2         2         2         2
         2         2         2         2         2         2         2         2
         2         2         2         2         2         2         2         2
         2         2         2         2         2         2         2         2
         2         2         2         2         2         2         2         2
         2         2         2         2         2         2         2         2
         2         2         2         2         2         2         2         2
         2         2         2         2         2         2         2         2
         2         2         2         2         2         2         2         2
         2         2         2         2         2         2         2         2
         2         2         2         2         2         2         2         2
         2         2         2         2         2         2         2         2
         2         2         2         2         2         2         2         2
         2         2         2         2         2         2         2         2
         2         2         2         2         2         2         2         2
         2         2         2         2         2         2         2         2
         2         2         2         2         2         2         2         2
         2         2         2         2         2         2         2         2
         2         2         2         2         2         2         2         2
         2         2         2         2         2         2         2         2
         2         2         2         2         2         2         2         2
         2         2         2         2         2         2         2         2
         2         2         2         2         2         2         2         2
         2         2         2         2         2         2         2         2
         2         2         2         2         2         2         2         2
         2         2         2         2         2         2         2         2
         2         2         2         2         2         2         2         2
         2         2         2         2         2         2         2         2
         2         2         2         2         2         2         2         2
         2         2         2         2         2         2         2         2
         2         2         2         2         2         2         2         2
         2         2         2         2         2         2         2         2
         2         2         2         2         2         2         2         2
         2         2         2         2         2         2         2         2
         2         2         2         2         2         2         2         2
         2         2         2         2         2         2         2         2
         2         2         2         2         2         2         2         2
         2         2         2         2         2         2         2         2
         2         2         2         2         2         2         2         2
         2         2         2         2         2         2         2         2
         2         2         2         2         2         2         2         2
         2         2         2         2         2         2         2         2
         2         2         2         2         2         2         2         2
         2         2         2         2         2         2         2         2
         2         2         2         2         2         2         2         2
         2         2         2         2         2         2         2         2
         2         2         2         2         2         2         2         2
         2         2         2         2         2         2         2         2
         2         2         2         2         2         2         2         2
         2         2         2         2         2         2         2         2
         2         2         2         2         2         2         2         2
         2         2         2         2         2         2         2         2
         2         2         2         2         2         2         2         2
         2         2         2         2         2         2         2         2
         2         2         2         2         2         2         2         2
         2         2         2         2         2         2         2         2
         2         2         2         2         2         2         2         2
         2         2         2         2         2         2         2         2
         2         2         2         2         2         2         2         2
         2         2         2         2         2         2         2         2
         2         2         2         2         2         2         2         2
         2         2         2         2         2         2         2         2
         2         2         2         2         2         2         2         2
         2         2         2         2         2         2         2         2
         2         2         2         2         2         2         2         2
         2         2         2         2         2         2         2         2
         2         2         2         2         2         2         2         2
         2         2         2         2         2         2         2         2
         2         2         2         2         2         2         2         2
         2         2         2         2         4         4         4         4
         4         4         4         4         4         4         4         4
         4         4         4         4         4         4         4         4
         4         4         4         4         4         4         4         4
         4         4         4         4         4         4         4         4
         4         4         4         4         4         4         4         4
         4         4         4         4         4         4         4         4
         4         4         4         4         4         4         4         4
         4         4         4         4         4         4         4         4
         4         4         4         4         4         4         4         4
         4         4         4         4         4         4         4         4
         4         4         4         4         4         4         4         4
         4         4         4         4         4         4         4         4
         4         4         4         4         4         4         4         4
         4         4         4         4         4         4         4         4
         4         4         4         4         4         4         4         4
         4         4         4         4         4         4         4         4
         4         4         4         4         4         4         4         4
         4         4         4         4         4         4         4         4
         4         4         4         4         4         4         4         4
         4         4         4         4         4         4         4         4
         4         4         4         4         4         4         4         4
         4         4         4         4         4         4         4         4
         4         4         4         4         4         4         4         4
         4         4         4         4         4         4         4         4
         4         4         4         4         4         4         4         4
         4         4         4         4         4         4         4         4
         4         4         4         4         4         4         4         4
         4         4         4         4         4         4         4         4
         4         4         4         4         4         4         4         4
         4         4         4         4         4         4         4         4
         4         4         4         4         4         4         4         4
         4         4         4         4         4         4         4         4
         4         4         4         4         4         4         4         4
         4         4         4         4         4         4         4         4
         4         4         4         4         4         4         4         4
         4         4         4         4         4         4         4         4
         4         4         4         4         4         4         4         4
         4         4         4         4         4         4         4         4
         4         4         4         4         4         4         4         4
         4         4         4         4         4         4         4         4
         4         4         4         4         4         4         4         4
         4         4         4         4         4         4         4         4
         4         4         4         4         4         4         4         4
         4         4         4         4         4         4         4         4
         4         4         4         4         4         4         4         4
         4         4         4         4         4         4         4         4
         4         4         4         4         4         4         4         4
         4         4         4         4         4         4         4         4
         4         4         4         4         4         4         4         4
         4         4         4         4         4         4         4         4
         4         4         4         4         4         4         4         4
         4         4         4         4         4         4         4         4
         4         4         4         4         4         4         4         4
         4         4         4         4         4         4         4         4
         4         4         4         4         4         4         4         4
         4         4         4         4         4         4         4         4
         4         4         4         4         4         4         4         4
         4         4         4         4         4         4         4         4
         4         4         4         4         4         4         4         4
         4         4         4         4         4         4         4         4
         4         4         4         4         4         4         4         4
         4         4         4         4         4         4         4         4
         4         4         4         4         4         4         4         4
         4         4         4         4         4         4         4         4
         4         4         4         4         4         4         4         4
         4         4         4         4         4         4         4         4
         4         4         4         4         4         4         4         4
         4         4         4         4         4         4         4         4
         4         4         4         4         4         4         4         4
         4         4         4         4         4         4         4         4
         4         4         4         4         4         4         4         4
         4         4         4         4         4         4         4         4
         4         4         4         4         4         4         4         4
         4         4         4         4         4         4         4         4
         4         4         4         4         4         4         4         4
         4         4         4         4         4         4         4         4
         4         4         4         4         4         4         4         4
         4         4         4         4         4         4         4         4
         4         4         4         4         4         4         4         4
         4         4         4         4         4         4         4         4
         4         4         4         4         4         4         4         4
         4         4         4         4         4         4         4         4
         4         4         4         4         4         4         4         4
         4         4         4         4         4         4         4         4
         4         4         4         4         4         4         4         4
         4         4         4         4         4         4         4         4
         4         4         4         4         4         4         4         4
         4         4         4         4         4         4         4         4
         4         4         4         4         4         4         4         4
         4         4         4         4         4         4         4         4
         4         4         4         4         4         4         4         4
         4         4         4         4         4         4         4         4
         4         4         4         4         4         4         4         4
         4         4         4         4         4         4         4         4
         4         4         4         4         4         4         4         4
         4         4         4         4         4         4         4         4
         4         4         4         4         4         4         4         4
         4         4         4         4         4         4         4         4
         4         4         4         4         4         4         4         4
         4         4         4         4         4         4         4         4
         4         4         4         4         4         4         4         4
         4         4         4         4         4         4         4         4
         4         4         4         4         4         4         4         4
         4         4         4         4         4         4         4         4
         4         4         4         4         4         4         4         4
         4         4         4         4         4         4         4         4
         4         4         4         4         4         4         4         4
         4         4         4         4         4         4         4         4
         4         4         4         4         4         4         4         4
         4         4         4         4         4         4         4         4
         4         4         4         4         4         4         4         4
         4         4         4         4         4         4         4         4
         4         4         4         4         4         4         4         4
         4         4         4         4         4         4         4         4
         4         4         4         4         4         4         4         4
         4         4         4         4         4         4         4         4
         4         4         4         4         4         4         4         4
         4         4         4         4         4         4         4         4
         4         4         4         4         4         4         4         4
         4         4         4         4         4         4         4         4
         4         4         4         4         4         4         4         4
         4         4         4         4         4         4         4         4
         4         4         4         4         4         4         4         4
         4         4         4         4         4         4         4         4
         4         4         4         4         4         4         4         4
         4         4         4         4         4         4         4         4
         4         4         4         4         4         4         4         4
         4         4         4         4         4         4         4         4
         4         4         4         4         4         4         4         4
         4         4         4         4         4         4         4         4
         4         4         4         4         4         4         4         4
         4         4         4         4         4         4         4         4
         4         4         4         4         4         4         4         4
         4         4         4         4         4         4         4         4
         4         4         4         4         4         4         4         4
         4         4         4         4         4         4         4         4
         4         4         4         4         4         4         4         4
         4         4         4         4         4         4         4         4
         4         4         4         4         4         4         4         4
         4         4         4         4         4         4         4         4
         4         4         4         4         4         4         4         4
         4         4         4         4         4         4         4         4
         4         4         4         4         4         4         4         4
         4         4         4         4         4         4         4         4
         4         4         4         4         4         4         4         4
         4         4         4         4         4         4         4         4
         4         4         4         4         4         4         4         4
         4         4         4         4         4         4         4         4
         4         4         4         4         4         4         4         4
         4         4         4         4         4         4         4         4
         4         4         4         4         4         4         4         4
         4         4         4         4         4         4         4         4
         4         4         4         4         4         4         4         4
         4         4         4         4         4         4         4         4
         4         4         4         4         4         4         4         4
         4         4         4         4         4         4         4         4
         4         4         4         4         4         4         4         4
         4         4         4         4         4         4         4         4
         4         4         4         4         4         4         4         4
         4         4         4         4         4         4         4         4
         4         4         4         4         4         4         4         4
         4         4         4         4         4         4         4         4
         4         4         4         4         4         4         4         4
         4         4         4         4         4         4         4         4
         4         4         4         4         4         4         4         4
         4         4         4         4         4         4         4         4
         4         4         4         4         4         4         4         4
         4         4         4         4         4         4         4         4
         4         4         4         4         4         4         4         4
         4         4         4         4         4         4         4         4
         4         4         4         4         4         4         4         4
         4         4         4         4         4         4         4         4
         4         4         4         4         4         4         4         4
         4         4         4         4         4         4         4         4
         4         4         4         4         4         4         4         4
         4         4         4         4         4         4         4         4
         4         4         4         4         4         4         4         4
         4         4         4         4         4         4         4         4
         4         4         4         4         4         4         4         4
         4         4         4         4         4         4         4         4
         4         4         4         4         4         4         4         4
         4         4         4         4         4         4         4         4
         4         4         4         4         4         4         4         4
         4         4         4         4         4         4         4         4
         4         4         4         4         4         4         4         4
         4         4         4         4         4         4         4         4
         4         4         4         4         4         4         4         4
         4         4         4         4         4         4         4         4
         4         4         4         4         4         4         4         4
         4         4         4         4         4         4         4         4
         4         4         4         4         4         4         4         4
         4         4         4         4         4         4         4         4
         4         4         4         4         4         4         4         4
         4         4         4         4         4         4         4         4
         4         4         4         4         4         4         4         4
         4         4         4         4         4         4         4         4
         4         4         4         4         4         4         4         4
         4         4         4         4         4         4         4         4
         4         4         4         4         4         4         4         4
         4         4         4         4         4         4         4         4
         4         4         4         4         4         4         4         4
         4         4         4         4         4         4         4         4
         4         4         4         4         4         4         4         4
         4         4         4         4         4         4         4         4
         4         4         4         4         4         4         4         4
         4         4         4         4         4         4         4         4
         4         4         4         4         4         4         4         4
         4         4         4         4         4         4         4         4
         4         4         4         4         4         4         4         4
         4         4         4         4         4         4         4         4
         4         4         4         4         4         4         4         4
         4         4         4         4         4         4         4         4
         4         4         4         4         4         4         4         4
         4         4         4         4         4         4         4         4
         4         4         4         4         4         4         4         4
         4         4         4         4         4         4         4         4
         4         4         4         4         4         4         4         4
         4         4         4         4         4         4         4         4
         4         4         4         4         4         4         4         4
         4         4         4         4         4         4         4         4
         4         4         4         4         4         4         4         4
         4         4         4         4         4         4         4         4
         4         4         4         4         4         4         4         4
         4         4         4         4         4         4         4         4
         4         4         4         4         4         4         4         4
         4         4         4         4         4         4         4         4
         4         4         4         4         4         4         4         4
         4         4         4         4         4         4         4         4
         4         4         4         4         4         4         4         4
         4         4         4         4         4         4         4         4
         4         4         4         4         4         4         4         4
         4         4         4         4         4         4         4         4
         4         4         4         4         4         4         4         4
         4         4         4         4         4         4         4         4
         4         4         4         4         4         4         4         4
         4         4         4         4         4         4         4         4
         4         4         4         4         4         4         4         4
         4         4         4         4         4         4         4         4
         4         4         4         4         4         4         4         4
         4         4         4         4         4         4         4         4
         4         4         4         4         4         4         4         4
         4         4         4         4         4         4         4         4
         4         4         4         4         4         4         4         4
         4         4         4         4         4         4         4         4
         4         4         4         4         4         4         4         4
         4         4         4         4         4         4         4         4
         4         4         4         4         4         4         4         4
         4         4         4         4         4         4         4         4
         4         4         4         4         4         4         4         4
         4         4         4         4         4         4         4         4
         4         4         4         4         4         4         4         4
         4         4         4         4         4         4         4         4
         4         4         4         4         4         4         4         4
         4         4         4         4         4         4         4         4
         4         4         4         4         4         4         4         4
         4         4         4         4         4         4         4         4
         4         4         4         4         4         4         4         4
         4         4         4         4         4         4         4         4
         4         4         4         4         4         4         4         4
         4         4         4         4         4         4         4         4
         4         4         4         4         4         4         4         4
         4         4         4         4         4         4         4         4
         4         4         4         4         4         4         4         4
         4         4         4         4         4         4         4         4
         4         4         4         4         4         4         4         4
         4         4         4         4         4         4         4         4
         4         4         4         4         4         4         4         4
         4         4         4         4         4         4         4         4
         4         4         4         4         4         4         4         4
         4         4         4         4         4         4         4         4
         4         4         4         4         4         4         4         4
         4         4         4         4         4         4         4         4
         4         4         4         4         4         4         4         4
         4         4         4         4         4         4         4         4
         4         4         4         4         4         4         4         4
         4         4         4         4         4         4         4         4
         4         4         4         4         4         4         4         4
         4         4         4         4         4         4         4         4
         4         4         4         4         4         4         4         4
         4         4         4         4         4         4         4         4
         4         4         4         4         4         4         4         4
         4         4         4         4         4         4         4         4
         4         4         4         4         4         4         4         4
         4         4         4         4         4         4         4         4
         4         4         4         4         4         4         4         4
         4         4         4         4         4         4         4         4
         4         4         4         4         4         4         4         4
         4         4         4         4         4         4         4         4
         4         4         4         4         4         4         4         4
         4         4         4         4         4         4         4         4
         4         4         4         4         4         4         4         4
         4         4         4         4         4         4         4         4
         4         4         4         4         4         4         4         4
         4         4         4         4         4         4         4         4
         4         4         4         4         4         4         4         4
         4         4         4         4         4         4         4         4
         4         4         4         4         4         4         4         4
         4         4         4         4         4         4         4         4
         4         4         4         4         4         4         4         4
         4         4         4         4         4         4         4         4
         4         4         4         4         4         4         4         4
         4         4         4         4         4         4         4         4
         4         4         4         4         4         4         4         4
         4         4         4         4         4         4         4         4
         4         4         4         4         4         4         4         4
         4         4         4         4         4         4         4         4
         4         4         4         4         4         4         4         4
         4         4         4         4         4         4         4         4
         4         4         4         4         4         4         4         4
         4         4         4         4         4         4         4         4
         4         4         4         4         4         4         4         4
         4         4         4         4         4         4         4         4
         4         4         4         4         4         4         4         4
         4         4         4         4         4         4         4         4
         4         4         4         4         4         4         4         4
         4         4         4         4         4         4         4         4
         4         4         4         4         4         4         4         4
         4         4         4         4         4         4         4         4
         4         4         4         4         4         4         4         4
         4         4         4         4         4         4         4         4
         4         4         4         4         4         4         4         4
         4         4         4         4         4         4         4         4
         4         4         4         4         4         4         4         4
         4         4         4         4         4         4         4         4
         4         4         4         4         4         4         4         4
         4         4         4         4         4         4         4         4
         4         4         4         4         4         4         4         4
         4         4         4         4         4         4         4         4
         4         4         4         4         4         4         4         4
         4         4         4         4         4         4         4         4
         4         4         4         4         4         4         4         4
         4         4         4         4         4         4         4         4
         4         4         4         4         4         4         4         4
         4         4         4         4         4         4         4         4
         4         4         4         4         4         4         4         4
         4         4         4         4         4         4         4         4
         4         4         4         4         4         4         4         4
         4         4         4         4         4         4         4         4
         4         4         4         4         4         4         4         4
         4         4         4         4         4         4         4         4
         4         4         4         4         4         4         4         4
         4         4         4         4         4         4         4         4
         4         4         4         4         4         4         4         4
         4         4         4         4         4         4         4         4
         4         4         4         4         4         4         4         4
         4         4         4         4         4         4         4         4
         4         4         4         4         4         4         4         4
         4         4         4         4         4         4         4         4
         4         4         4         4         4         4         4         4
         4         4         4         4         4         4         4         4
         4         4         4         4         4         4         4         4
         4         4         4         4         4         4         4         4
         4         4         4         4         4         4         4         4
         4         4         4         4         4         4         4         4
         4         4         4         4         4         4         4         4
         4         4         4         4         4         4         4         4
         4         4         4         4         4         4         4         4
         4         4         4         4         4         4         4         4
         4         4         4         4         4         4         4         4
         4         4         4         4         4         4         4         4
         4         4         4         4         4         4         4         4
         4         4         4         4         4         4         4         4
         4         4         4         4         4         4         4         4
         4         4         4         4         4         4         4         4
         4         4         4         4         4         4         4         4
         4         4         4         4         4         4         4         4
         4         4         4         4         4         4         4         4
         4         4         4         4         4         4         4         4
         4         4         4         4         4         4         4         4
         4         4         4         4         4         4         4         4
         4         4         4         4         4         4         4         4
         4         4         4         4         4         4         4         4
         4         4         4         4         4         4         4         4
         4         4         4         4         4         4         4         4
         4         4         4         4         4         4         4         4
         4         4         4         4         4         4         4         4
         4         4         4         4         4         4         4         4
         4         4         4         4         4         4         4         4
         4         4         4         4         4         4         4         4
         4         4         4         4         4         4         4         4
         4         4         4         4         4         4         4         4
         4         4         4         4         4         4         4         4
         4         4         4         4         4         4         4         4
         4         4         4         4         4         4         4         4
         4         4         4         4         4         4         4         4
         4         4         4         4         4         4         4         4
         4         4         4         4         4         4         4         4
         4         4         4         4         4         4         4         4
         4         4         4         4         4         4         4         4
         4         4         4         4         4         4         4         4
         4         4         4         4         4         4         4         4
         4         4         4         4         4         4         4         4
         4         4         4         4         4         4         4         4
         4         4         4         4         4         4         4         4
         4         4         4         4         4         4         4         4
         4         4         4         4         4         4         4         4
         4         4         4         4         4         4         4         4
         4         4         4         4         4         4         4         4
         4         4         4         4         4         4         4         4
         4         4         4         4         4         4         4         4
         4         4         4         4         4         4         4         4
         4         4         4         4         4         4         4         4
         4         4         4         4         4         4         4         4
         4         4         4         4         4         4         4         4
         4         4         4         4         4         4         4         4
         4         4         4         4         4         4         4         4
         4         4         4         4         4         4         4         4
         4         4         4         4         4         4         4         4
         4         4         4         4         4         4         4         4
         4         4         4         4         4         4         4         4
         4         4         4         4         4         4         4         4
         4         4         4         4         4         4         4         4
         4         4         4         4         4         4         4         4
         4         4         4         4         4         4         4         4
         4         4         4         4         4         4         4         4
         4         4         4         4         4         4         4         4
         4         4         4         4         4         4         4         4
         4         4         4         4         4         4         4         4
         4         4         4         4         4         4         4         4
         4         4         4         4         4         4         4         4
         4         4         4         4         4         4         4         4
         4         4         4         4         4         4         4         4
         4         4         4         4         4         4         4         4
         4         4         4         4         4         4         4         4
         4         4         4         4         4         4         4         4
         4         4         4         4         4         4         4         4
         4         4         4         4         4         4         4         4
         4         4         4         4         4         4         4         4
         4         4         4         4         4         4         4         4
         4         4         4         4         4         4         4         4
         4         4         4         4         4         4         4         4
         4         4         4         4         4         4         4         4
         4         4         4         4         4         4         4         4
         4         4         4         4         4         4         4         4
         4         4         4         4         4         4         4         4
         4         4         4         4         4         4         4         4
         4         4         4         4         4         4         4         4
         4         4         4         4         4         4         4         4
         4         4         4         4         4         4         4         4
         4         4         4         4         4         4         4         4
         4         4         4         4         4         4         4         4
         4         4         4         4         4         4         4         4
         4         4         4         4         4         4         4         4
         4         4         4         4         4         4         4         4
         4         4         4         4         4         4         4         4
         4         4         4         4         4         4         4         4
         4         4         4         4         4         4         4         4
         4         4         4         4         4         4         4         4
         4         4         4         4         4         4         4         4
         4         4         4         4         4         4         4         4
         4         4         4         4         4         4         4         4
         4         4         4         4         4         4         4         4
         4         4         4         4         4         4         4         4
         4         4         4         4         4         4         4         4
         4         4         4         4         4         4         4         4
         4         4         4         4         4         4         4         4
         4         4         4         4         4         4         4         4
         4         4         4         4         4         4         4         4
         4         4         4         4         4         4         4         4
         4         4         4         4         4         4         4         4
         4         4         4         4         4         4         4         4
         4         4         4         4         4         4         4         4
         4         4         4         4         4         4         4         4
         4         4         4         4         4         4         4         4
         4         4         4         4         4         4         4         4
         4         4         4         4         4         4         4         4
         4         4         4         4         4         4         4         4
         4         4         4         4         4         4         4         4
         4         4         4         4         4         4         4         4
         4         4         4         4         4         4         4         4
         4         4         4         4         4         4         4         4
         4         4         4         4         4         4         4         4
         4         4         4         4         4         4         4         4
         4         4         4         4         4         4         4         4
         4         4         4         4         4         4         4         4
         4         4         4         4         4         4         4         4
         4         4         4         4         4         4         4         4
         4         4         4         4         4         4         4         4
         4         4         4         4         4         4         4         4
         4         4         4         4         4         4         4         4
         4         4         4         4         4         4         4         4
         4         4         4         4         4         4         4         4
         4         4         4         4         4         4         4         4
         4         4         4         4         4         4         4         4
         4         4         4         4         4         4         4         4
         4         4         4         4         4         4         4         4
         4         4         4         4         4         4         4         4
         4         4         4         4         4         4         4         4
         4         4         4         4         4         4         4         4
         4         4         4         4         4         4         4         4
         4         4         4         4         4         4         4         4
         4         4         4         4         4         4         4         4
         4         4         4         4         4         4         4         4
         4         4         4         4         4         4         4         4
         4         4         4         4         4         4         4         4
         4         4         4         4         4         4         4         4
         4         4         4         4         4         4         4         4
         4         4         4         4         4         4         4         4
         4         4         4         4         4         4         4         4
         4         4         4         4         4         4         4         4
         4         4         4         4         4         4         4         4
         4         4         4         4         4         4         4         4
         4         4         4         4         4         4         4         4
         4         4         4         4         4         4         4         4
         4         4         4         4         4         4         4         4
         4         4         4         4         4         4         4         4
         4         4         4         4         4         4         4         4
         4         4         4         4         4         4         4         4
         4         4         4         4         4         4         4         4
         4         4         4         4         4         4         4         4
         4         4         4         4         4         4         4         4
         4         4         4         4         4         4         4         4
         4         4         4         4         4         4         4         4
         4         4         4         4         4         4         4         4
         4         4         4         4         4         4         4         4
         4         4         4         4         4         4         4         4
         4         4         4         4         4         4         4         4
         4         4         4         4         4         4         4         4
         4         4         4         4         4         4         4         4
         4         4         4         4         4         4         4         4
         4         4         4         4         4         4         4         4
         4         4         4         4         4         4         4         4
         4         4         4         4         4         4         4         4
         4         4         4         4         4         4         4         4
         4         4         4         4         4         4         4         4
         4         4         4         4         4         4         4         4
         4         4         4         4         4         4         4         4
         4         4         4         4         4         4         4         4
         4         4         4         4         4         4         4         4
         4         4         4         4         4         4         4         4
         4         4         4         4         4         4         4         4
         4         4         4         4         4         4         4         4
         4         4         4         4         4         4         4         4
         4         4         4         4         4         4         4         4
         4         4         4         4         4         4         4         4
         4         4         4         4         4         4         4         4
         4         4         4         4         4         4         4         4
         4         4         4         4         4         4         4         4
         4         4         4         4         4         4         4         4
         4         4         4         4         4         4         4         4
         4         4         4         4         4         4         4         4
         4         4         4         4         4         4         4         4
         4         4         4         4         4         4         4         4
         4         4         4         4         4         4         4         4
         4         4         4         4         4         4         4         4
         4         4         4         4         4         4         4         4
         4         4         4         4         4         4         4         4
         4         4         4         4         4         4         4         4
         4         4         4         4         4         4         4         4
         4         4         4         4         4         4         4         4
         4         4         4         4         4         4         4         4
         4         4         4         4         4         4         4         4
         4         4         4         4         4         4         4         4
         4         4         4         4         4         4         4         4
         4         4         4         4         4         4         4         4
         4         4         4         4         4         4         4         4
         4         4         4         4         4         4         4         4
         4         4         4         4         4         4         4         4
         4         4         4         4         4         4         4         4
         4         4         4         4         4         4         4         4
         4         4         4         4         4         4         4         4
         4         4         4         4         4         4         4         4
         4         4         4         4         4         4         4         4
         4         4         4         4         4         4         4         4
         4         4         4         4         4         4         4         4
         4         4         4         4         4         4         4         4
         4         4         4         4         4         4         4         4
         4         4         4         4         4         4         4         4
         4         4         4         4         4         4         4         4
         4         4         4         4         4         4         4         4
         4         4         4         4         4         4         4         4
         4         4         4         4         4         4         4         4
         4         4         4         4         4         4         4         4
         4         4         4         4         4         4         4         4
         4         4         4         4         4         4         4         4
         4         4         4         4         4         4         4         4
         4         4         4         4         4         4         4         4
         4         4         4         4         4         4         4         4
         4         4         4         4         4         4         4         4
         4         4         4         4         4         4         4         4
         4         4         4         4         4         4         4         4
         4         4         4         4         4         4         4         4
         4         4         4         4         4         4         4         4
         4         4         4         4         4         4         4         4
         4         4         4         4         4         4         4         4
         4         4         4         4         4         4         4         4
         4         4         4         4         4         4         4         4
         4         4         4         4         4         4         4         4
         4         4         4         4         4         4         4         4
         4         4         4         4         4         4         4         4
         4         4         4         4         4         4         4         4
         4         4         4         4         4         4         4         4
         4         4         4         4         4         4         4         4
         4         4         4         4         4         4         4         4
         4         4         4         4         4         4         4         4
         4         4         4         4         4         4         4         4
         4         4         4         4         4         4         4         4
         4         4         4         4         4         4         4         4
         4         4         4         4         4         4         4         4
         4         4         4         4         4         4         4         4
         4         4         4         4         4         4         4         4
         4         4         4         4         4         4         4         4
         4         4         4         4         4         4         4         4
         4         4         4         4         4         4         4         4
         4         4         4         4         4         4         4         4
         4         4         4         4         4         4         4         4
         4         4         4         4         4         4         4         4
         4         4         4         4         4         4         4         4
         4         4         4         4         4         4         4         4
         4         4         4         4         4         4         4         4
         4         4         4         4         4         4         4         4
         4         4         4         4         4         4         4         4
         4         4         4         4         4         4         4         4
         4         4         4         4         4         4         4         4
         4         4         4         4         4         4         4         4
         4         4         4         4         4         4         4         4
         4         4         4         4         4         4         4         4
         4         4         4         4         4         4         4         4
         4         4         4         4         4         4         4         4
         4         4         4         4         4         4         4         4
         4         4         4         4         4         4         4         4
         4         4         4         4         4         4         4         4
         4         4         4         4         4         4         4         4
         4         4         4         4         4         4         4         4
         4         4         4         4         4         4         4         4
         4         4         4         4         4         4         4         4
         4         4         4         4         4         4         4         4
         4         4         4         4         4         4         4         4
         4         4         4         4         4         4         4         4
         4         4         4         4         4         4         4         4
         4         4         4         4         4         4         4         4
         4         4         4         4         4         4         4         4
         4         4         4         4         4         4         4         4
         4         4         4         4         4         4         4         4
         4         4         4         4         4         4         4         4
         4         4         4         4         4         4         4         4
         4         4         4         4         4         4         4         4
         4         4         4         4         4         4         4         4
         4         4         4         4         4         4         4         4
         4         4         4         4         4         4         4         4
         4         4         4         4         4         4         4         4
         4         4         4         4         4         4         4         4
         4         4         4         4         4         4         4         4
         4         4         4         4         4         4         4         4
         4         4         4         4         4         4         4         4
         4         4         4         4         4         4         4         4
         4         4         4         4         4         4         4         4
         4         4         4         4         4         4         4         4
         4         4         4         4         4         4         4         4
         4         4         4         4         4         4         4         4
         4         4         4         4         4         4         4         4
         4         4         4         4         4         4         4         4
         4         4         4         4         4         4         4         4
         4         4         4         4         4         4         4         4
         4         4         4         4         4         4         4         4
         4         4         4         4         4         4         4         4
         4         4         4         4         4         4         4         4
         4         4         4         4         4         4         4         4
         4         4         4         4         4         4         4         4
         4         4         4         4         4         4         4         4
         4         4         4         4         4         4         4         4
         4         4         4         4         4         4         4         4
         4         4         4         4         4         4         4         4
         4         4         4         4         4         4         4         4
         4         4         4         4         4         4         4         4
         4         4         4         4         4         4         4         4
         4         4         4         4         4         4         4         4
         4         4         4         4         4         4         4         4
         4         4         4         4         4         4         4         4
         4         4         4         4         4         4         4         4
         4         4         4         4         4         4         4         4
         4         4         4         4         4         4         4         4
         4         4         4         4         4         4         4         4
         4         4         4         4         4         4         4         4
         4         4         4         4         4         4         4         4
         4         4         4         4         4         4         4         4
         4         4         4         4         4         4         4         4
         4         4         4         4         4         4         4         4
         4         4         4         4         4         4         4         4
         4         4         4         4         4         4         4         4
         4         4         4         4         4         4         4         4
         4         4         4         4         4         4         4         4
         4         4         4         4         4         4         4         4
         4         4         4         4         4         4         4         4
         4         4         4         4         4         4         4         4
         4         4         4         4         4         4         4         4
         4         4         4         4         4         4         4         4
         4         4         4         4         4         4         4         4
         4         4         4         4         4         4         4         4
         4         4         4         4         4         4         4         4
         4         4         4         4         4         4         4         4
         4         4         4         4         4         4         4         4
         4         4         4         4         4         4         4         4
         4         4         4         4         4         4         4         4
         4         4         4         4         4         4         4         4
         4         4         4         4         4         4         4         4
         4         4         4         4         4         4         4         4
         4         4         4         4         4         4         4         4
         4         4         4         4         4         4         4         4
         4         4         4         4         4         4         4         4
         4         4         4         4         4         4         4         4
         4         4         4         4         4         4         4         4
         4         4         4         4         4         4         4         4
         4         4         4         4         4         4         4         4
         4         4         4         4         4         4         4         4
         4         4         4         4         4         4         4         4
         4         4         4         4         4         4         4         4
         4         4         4         4         4         4         4         4
         4         4         4         4         4         4         4         4
         4         4         4         4         4         4         4         4
         4         4         4         4         4         4         4         4
         4         4         4         4         4         4         4         4
         4         4         4         4         4         4         4         4
         4         4         4         4         4         4         4         4
         4         4         4         4         4         4         4         4
         4         4         4         4         4         4         4         4
         4         4         4         4         4         4         4         4
         4         4         4         4         4         4         4         4
         4         4         4         4         4         4         4         4
         4         4         4         4         4         4         4         4
         4         4         4         4         4         4         4         4
         4         4         4         4         4         4         4         4
         4         4         4         4         4         4         4         4
         4         4         4         4         4         4         4         4
         4         4         4         4         4         4         4         4
         4         4         4         4         4         4         4         4
         4         4         4         4         4         4         4         4
         4         4         4         4         4         4         4         4
         4         4         4         4         4         4         4         4
         4         4         4         4         4         4         4         4
         4         4         4         4         4         4         4         4
         4         4         4         4         4         4         4         4
         4         4         4         4         4         4         4         4
         4         4         4         4         4         4         4         4
         4         4         4         4         4         4         4         4
         4         4         4         4         4         4         4         4
         4         4         4         4         4         4         4         4
         4         4         4         4         4         4         4         4
         4         4         4         4         4         4         4         4
         4         4         4         4         4         4         4         4
         4         4         4         4         4         4         4         4
         4         4         4         4         4         4         4         4
         4         4         4         4         4         4         4         4
         4         4         4         4         4         4         4         4
         4         4         4         4         4         4         4         4
         4         4         4         4         4         4         4         4
         4         4         4         4         4         4         4         4
         4         4         4         4         4         4         4         4
         4         4         4         4         4         4         4         4
         4         4         4         4         4         4         4         4
         4         4         4         4         4         4         4         4
         4         4         4         4         4         4         4         4
         4         4         4         4         4         4         4         4
         4         4         4         4         4         4         4         4
         4         4         4         4         4         4         4         4
         4         4         4         4         4         4         4         4
         4         4         4         4         4         4         4         4
         4         4         4         4         4         4         4         4
         4         4         4         4         4         4         4         4
         4         4         4         4         4         4         4         4
         4         4         4         4         4         4         4         4
         4         4         4         4         4         4         4         4
         4         4         4         4         4         4         4         4
         4         4         4         4         4         4         4         4
         4         4         4         4         4         4         4         4
         4         4         4         4         4         4         4         4
         4         4         4         4         4         4         4         4
         4         4         4         4         4         4         4         4
         4         4         4         4         4         4         4         4
         4         4         4         4         4         4         4         4
         4         4         4         4         4         4         4         4
         4         4         4         4         4         4         4         4
         4         4         4         4         4         4         4         4
         4         4         4         4         4         4         4         4
         4         4         4         4         4         4         4         4
         4         4         4         4         4         4         4         4
         4         4         4         4         4         4         4         4
         4         4         4         4         4         4         4         4
         4         4         4         4         4         4         4         4
         4         4         4         4         4         4         4         4
         4         4         4         4         4         4         4         4
         4         4         4         4         4         4         4         4
         4         4         4         4         4         4         4         4
         4         4         4         4         4         4         4         4
         4         4         4         4         4         4         4         4
         4         4         4         4         4         4         4         4
         4         4         4         4         4         4         4         4
         4         4         4         4         4         4         4         4
         4         4         4         4         4         4         4         4
         4         4         4         4         4         4         4         4
         4         4         4         4         4         4         4         4
         4         4         4         4         4         4         4         4
         4         4         4         4         4         4         4         4
         4         4         4         4         4         4         4         4
         4         4         4         4         4         4         4         4
         4         4         4         4         4         4         4         4
         4         4         4         4         4         4         4         4
         4         4         4         4         4         4         4         4
         4         4         4         4         4         4         4         4
         4         4         4         4         4         4         4         4
         4         4         4         4         4         4         4         4
         4         4         4         4         4         4         4         4
         4         4         4         4         4         4         4         4
         4         4         4         4         4         4         4         4
         4         4         4         4         4         4         4         4
         4         4         4         4         4         4         4         4
         4         4         4         4         4         4         4         4
         4         4         4         4         4         4         4         4
         4         4         4         4         4         4         4         4
         4         4         4         4         4         4         4         4
         4         4         4         4         4         4         4         4
         4         4         4         4         4         4         4         4
         4         4         4         4         4         4         4         4
         4         4         4         4         4         4         4         4
         4         4         4         4         4         4         4         4
         4         4         4         4         4         4         4         4
         4         4         4         4         4         4         4         4
         4         4         4         4         4         4         4         4
         4         4         4         4         4         4         4         4
         4         4         4         4         4         4         4         4
         4         4         4         4         4         4         4         4
         4         4         4         4         4         4         4         4
         4         4         4         4         4         4         4         4
         4         4         4         4         4         4         4         4
         4         4         4         4         4         4         4         4
         4         4         4         4         4         4         4         4
         4         4         4         4         4         4         4         4
         4         4         4         4         4         4         4         4
         4         4         4         4         4         4         4         4
         4         4         4         4         4         4         4         4
         4         4         4         4         4         4         4         4
         4         4         4         4         4         4         4         4
         4         4         4         4         4         4         4         4
         4         4         4         4         4         4         4         4
         4         4         4         4         4         4         4         4
         4         4         4         4         4         4         4         4
         4         4         4         4         4         4         4         4
         4         4         4         4         4         4         4         4
         4         4         4         4         4         4         4         4
         4         4         4         4         4         4         4         4
         4         4         4         4         4         4         4         4
         4         4         4         4         4         4         4         4
         4         4         4         4         4         4         4         4
         4         4         4         4         4         4         4         4
         4         4         4         4         4         4         4         4
         4         4         4         4         4         4         4         4
         4         4         4         4         4         4         4         4
         4         4         4         4         4         4         4         4
         4         4         4         4         4         4         4         4
         4         4         4         4         4         4         4         4
         4         4         4         4         4         4         4         4
         4         4         4         4         4         4         4         4
         4         4         4         4         4         4         4         4
         4         4         4         4         4         4         4         4
         4         4         4         4         4         4         4         4
         4         4         4         4         4         4         4         4
         4         4         4         4         4         4         4         4
         4         4         4         4         4         4         4         4
         4         4         4         4         4         4         4         4
         4         4         4         4         4         4         4         4
         4         4         4         4         4         4         4         4
         4         4         4         4         4         4         4         4
         4         4         4         4         4         4         4         4
         4         4         4         4         4         4         4         4
         4         4         4         4         4         4         4         4
         4         4         4         4         4         4         4         4
         4         4         4         4         4         4         4         4
         4         4         4         4         4         4         4         4
         4         4         4         4         4         4         4         4
         4         4         4         4         4         4         4         4
         4         4         4         4         4         4         4         4
         4         4         4         4         4         4         4         4
         4         4         4         4         4         4         4         4
         4         4         4         4         4         4         4         4
         4         4         4         4         4         4         4         4
         4         4         4         4         4         4         4         4
         4         4         4         4         4         4         4         4
         4         4         4         4         4         4         4         4
         4         4         4         4         4         4         4         4
         4         4         4         4         4         4         4         4
         4         4         4         4         4         4         4         4
         4         4         4         4         4         4         4         4
         4         4         4         4         4         4         4         4
         4         4         4         4         4         4         4         4
         4         4         4         4         4         4         4         4
         4         4         4         4         4         4         4         4
         4         4         4         4         4         4         4         4
         4         4         4         4         4         4         4         4
         4         4         4         4         4         4         4         4
         4         4         4         4         4         4         4         4
         4         4         4         4         4         4         4         4
         4         4         4         4         4         4         4         4
         4         4         4         4         4         4         4         4
         4         4         4         4         4         4         4         4
         4         4         4         4         4         4         4         4
         4         4         4         4         4         4         4         4
         4         4         4         4         4         4         4         4
         4         4         4         4         4         4         4         4
         4         4         4         4         4         4         4         4
         4         4         4         4         4         4         4         4
         4         4         4         4         4         4         4         4
         4         4         4         4         4         4         4         4
         4         4         4         4         4         4         4         4
         4         4         4         4         4         4         4         4
         4         4         4         4         4         4         4         4
         4         4         4         4         4         4         4         4
         4         4         4         4         4         4         4         4
         4         4         4         4         4         4         4         4
         4         4         4         4         4         4         4         4
         4         4         4         4         4         4         4         4
         4         4         4         4         4         4         4         4
         4         4         4         4         4         4         4         4
         4         4         4         4         4         4         4         4
         4         4         4         4         4         4         4         4
         4         4         4         4         4         4         4         4
         4         4         4         4         4         4         4         4
         4         4         4         4         4         4         4         4
         4         4         4         4         4         4         4         4
         4         4         4         4         4         4         4         4
         4         4         4         4         4         4         4         4
         4         4         4         4         4         4         4         4
         4         4         4         4         4         4         4         4
         4         4         4         4         4         4         4         4
         4         4         4         4         4         4         4         4
         4         4         4         4         4         4         4         4
         4         4         4         4         4         4         4         4
         4         4         4         4         4         4         4         4
         4         4         4         4         4         4         4         4
         4         4         4         4         4         4         4         4
         4         4         4         4         4         4         4         4
         4         4         4         4         4         4         4         4
         4         4         4         4         4         4         4         4
         4         4         4         4         4         4         4         4
         4         4         4         4         4         4         4         4
         4         4         4         4         4         4         4         4
         4         4         4         4         4         4         4         4
         4         4         4         4         4         4         4         4
         4         4         4         4         4         4         4         4
         4         4         4         4         4         4         4         4
         4         4         4         4         4         4         4         4
         4         4         4         4         4         4         4         4
         4         4         4         4         4         4         4         4
         4         4         4         4         4         4         4         4
         4         4         4         4         4         4         4         4
         4         4         4         4         4         4         4         4
         4         4         4         4         4         4         4         4
         4         4         4         4         4         4         4         4
         4         4         4         4         4         4         4         4
         4         4         4         4         4         4         4         4
         4         4         4         4         4         4         4         4
         4         4         4         4         4         4         4         4
         4         4         4         4         4         4         4         4
         4         4         4         4         4         4         4         4
         4         4         4         4         4         4         4         4
         4         4         4         4         4         4         4         4
         4         4         4         4         4         4         4         4
         4         4         4         4         4         4         4         4
         4         4         4         4         4         4         4         4
         4         4         4         4         4         4         4         4
         4         4         4         4         4         4         4         4
         4         4         4         4         4         4         4         4
         4         4         4         4         4         4         4         4
         4         4         4         4         4         4         4         4
         4         4         4         4         4         4         4         4
         4         4         4         4         4         4         4         4
         4         4         4         4         4         4         4         4
         4         4         4         4         4         4         4         4
         4         4         4         4         4         4         4         4
         4         4         4         4         4         4         4         4
         4         4         4         4         4         4         4         4
         4         4         4         4         4         4         4         4
         4         4         4         4         4         4         4         4
         4         4         4         4         4         4         4         4
         4         4         4         4         4         4         4         4
         4         4         4         4         4         4         4         4
         4         4         4         4         4         4         4         4
         4         4         4         4         4         4         4         4
         4         4         4         4         4         4         4         4
         4         4         4         4         4         4         4         4
         4         4         4         4         4         4         4         4
         4         4         4         4         4         4         4         4
         4         4         4         4         4         4         4         4
         4         4         4         4         4         4         4         4
         4         4         4         4         4         4         4         4
         4         4         4         4         4         4         4         4
         4         4         4         4         4         4         4         4
         4         4         4         4         4         4         4         4
         4         4         4         4         4         4         4         4
         4         4         4         4         4         4         4         4
         4         4         4         4         4         4         4         4
         4         4         4         4         4         4         4         4
         4         4         4         4         4         4         4         4
         4         4         4         4         4         4         4         4
         4         4         4         4         4         4         4         4
         4         4         4         4         4         4         4         4
         4         4         4         4         4         4         4         4
         4         4         4         4         4         4         4         4
         4         4         4         4         4         4         4         4
         4         4         4         4         4         4         4         4
         4         4         4         4         4         4         4         4
         4         4         4         4         4         4         4         4
         4         4         4         4         4         4         4         4
         4         4         4         4         4         4         4         4
         4         4         4         4         4         4         4         4
         4         4         4         4         4         4         4         4
         4         4         4         4         4         4         4         4
         4         4         4         4         4         4         4         4
         4         4         4         4         4         4         4         4
         4         4         4         4         4         4         4         4
         4         4         4         4         4         4         4         4
         4         4         4         4         4         4         4         4
         4         4         4         4         4         4         4         4
         4         4         4         4         4         4         4         4
         4         4         4         4         4         4         4         4
         4         4         4         4         4         4         4         4
         4         4         4         4         4         4         4         4
         4         4         4         4         4         4         4         4
         4         4         4         4         4         4         4         4
         4         4         4         4         4         4         4         4
         4         4         4         4         4         4         4         4
         4         4         4         4         4         4         4         4
         4         4         4         4         4         4         4         4
         4         4         4         4         4         4         4         4
         4         4         4         4         4         4         4         4
         4         4         4         4         4         4         4         4
         4         4         4         4         4         4         4         4
         4         4         4         4         4         4         4         4
         4         4         4         4         4         4         4         4
         4         4         4         4         4         4         4         4
         4         4         4         4         4         4         4         4
         4         4         4         4         4         4         4         4
         4         4         4         4         4         4         4         4
         4         4         4         4         4         4         4         4
         4         4         4         4         4         4         4         4
         4         4         4         4         4         4         4         4
         4         4         4         4         4         4         4         4
         4         4         4         4         4         4         4         4
         4         4         4         4         4         4         4         4
         4         4         4         4         4         4         4         4
         4         4         4         4         4         4         4         4
         4         4         4         4         4         4         4         4
         4         4         4         4         4         4         4         4
         4         4         4         4         4         4         4         4
         4         4         4         4         4         4         4         4
         4         4         4         4         4         4         4         4
         4         4         4         4         4         4         4         4
         4         4         4         4         4         4         4         4
         4         4         4         4         4         4         4         4
         4         4         4         4         4         4         4         4
         4         4         4         4         4         4         4         4
         4         4         4         4         4         4         4         4
         4         4         4         4         4         4         4         4
         4         4         4         4         4         4         4         4
         4         4         4         4         4         4         4         4
         4         4         4         4         4         4         4         4
         4         4         4         4         4         4         4         4
         4         4         4         4         4         4         4         4
         4         4         4         4         4         4         4         4
         4         4         4         4         4         4         4         4
         4         4         4         4         4         4         4         4
         4         4         4         4         4         4         4         4
         4         4         4         4         4         4         4         4
         4         4         4         4         4         4         4         4
         4         4         4         4         4         4         4         4
         4         4         4         4         4         4         4         4
         4         4         4         4         4         4         4         4
         4         4         4         4         4         4         4         4
         4         4         4         4         4         4         4         4
         4         4         4         4         4         4         4         4
         4         4         4         4         4         4         4         4
         4         4         4         4         4         4         4         4
         4         4         4         4         4         4         4         4
         4         4         4         4         4         4         4         4
         4         4         4         4         4         4         4         4
         4         4         4         4         4         4         4         4
         4         4         4         4         4         4         4         4
         4         4         4         4         4         4         4         4
         4         4         4         4         4         4         4         4
         4         4         4         4         4         4         4         4
         4         4         4         4         4         4         4         4
         4         4         4         4         4         4         4         4
         4         4         4         4         4         4         4         4
         4         4         4         4         4         4         4         4
         4         4         4         4         4         4         4         4
         4         4         4         4         4         4         4         4
         4         4         4         4         4         4         4         4
         4         4         4         4         4         4         4         4
         4         4         4         4         4         4         4         4
         4         4         4         4         4         4         4         4
         4         4         4         4         4         4         4         4
         4         4         4         4         4         4         4         4
         4         4         4         4         4         4         4         4
         4         4         4         4         4         4         4         4
         4         4         4         4         4         4         4         4
         4         4         4         4         4         4         4         4
         4         4         4         4         4         4         4         4
         4         4         4         4         4         4         4         4
         4         4         4         4         4         4         4         4
         4         4         4         4         4         4         4         4
         4         4         4         4         4         4         4         4
         4         4         4         4         4         4         4         4
         4         4         4         4         4         4         4         4
         4         4         4         4         4         4         4         4
         4         4         4         4         4         4         4         4
         4         4         4         4         4         4         4         4
         4         4         4         4         4         4         4         4
         4         4         4         4         4         4         4         4
         4         4         4         4         4         4         4         4
         4         4         4         4         4         4         4         4
         4         4         4         4         4         4         4         4
         4         4         4         4         4         4         4         4
         4         4         4         4         4         4         4         4
         4         4         4         4         4         4         4         4
         4         4         4         4         4         4         4         4
         4         4         4         4         4         4         4         4
         4         4         4         4         4         4         4         4
         4         4         4         4         4         4         4         4
         4         4         4         4         4         4         4         4
         4         4         4         4         4         4         4         4
         4         4         4         4         4         4         4         4
         4         4         4         4         4         4         4         4
         4         4         4         4         4         4         4         4
         4         4         4         4         4         4         4         4
         4         4         4         4         4         4         4         4
         4         4         4         4         4         4         4         4
         4         4         4         4         4         4         4         4
         4         4         4         4         4         4         4         4
         4         4         4         4         4         4         4         4
         4         4         4         4         4         4         4         4
         4         4         4         4         4         4         4         4
         4         4         4         4         4         4         4         4
         4         4         4         4         4         4         4         4
         4         4         4         4         4         4         4         4
         4         4         4         4         4         4         4         4
         4         4         4         4         4         4         4         4
         4         4         4         4         4         4         4         4
         4         4         4         4         4         4         4         4
         4         4         4         4         4         4         4         4
         4         4         4         4         4         4         4         4
         4         4         4         4         4         4         4         4
         4         4         4         4         4         4         4         4
         4         4         4         4         4         4         4         4
         4         4         4         4         4         4         4         4
         4         4         4         4         4         4         4         4
         4         4         4         4         4         4         4         4
         4         4         4         4         4         4         4         4
         4         4         4         4         4         4         4         4
         4         4         4         4         4         4         4         4
         4         4         4         4         4         4         4         4
         4         4         4         4         4         4         4         4
         4         4         4         4         4         4         4         4
         4         4         4         4         4         4         4         4
         4         4         4         4         4         4         4         4
         4         4         4         4         4         4         4         4
         4         4         4         4         4         4         4         4
         4         4         4         4         4         4         4         4
         4         4         4         4         4         4         4         4
         4         4         4         4         4         4         4         4
         4         4         4         4         4         4         4         4
         4         4         4         4         4         4         4         4
         4         4         4         4         4         4         4         4
         4         4         4         4         4         4         4         4
         4         4         4         4         4         4         4         4
         4         4         4         4         4         4         4         4
         4         4         4         4         4         4         4         4
         4         4         4         4         4         4         4         4
         4         4         4         4         4         4         4         4
         4         4         4         4         4         4         4         4
         4         4         4         4         4         4         4         4
         4         4         4         4         4         4         4         4
         4         4         4         4         4         4         4         4
         4         4         4         4         4         4         4         4
         4         4         4         4         4         4         4         4
         4         4         4         4         4         4         4         4
         4         4         4         4         4         4         4         4
         4         4         4         4         4         4         4         4
         4         4         4         4         4         4         4         4
         4         4         4         4         4         4         4         4
         4         4         4         4         4         4         4         4
         4         4         4         4         4         4         4         4
         4         4         4         4         4         4         4         4
         4         4         4         4         4         4         4         4
         4         4         4         4         4         4         4         4
         4         4         4         4         4         4         4         4
         4         4         4         4         4         4         4         4
         4         4         4         4         4         4         4         4
         4         4         4         4         4         4         4         4
         4         4         4         4         4         4         4         4
         4         4         4         4         4         4         4         4
         4         4         4         4         4         4         4         4
         4         4         4         4         4         4         4         4
         4         4         4         4         4         4         4         4
         4         4         4         4         4         4         4         4
         4         4         4         4         4         4         4         4
         4         4         4         4         4         4         4         4
         4         4         4         4         4         4         4         4
         4         4         4         4         4         4         4         4
         4         4         4         4         4         4         4         4
         4         4         4         4         4         4         4         4
         4         4         4         4         4         4         4         4
         4         4         4         4         4         4         4         4
         4         4         4         4         4         4         4         4
         4         4         4         4         4         4         4         4
         4         4         4         4         4         4         4         4
         4         4         4         4         4         4         4         4
         4         4         4         4         4         4         4         4
         4         4         4         4         4         4         4         4
         4         4         4         4         4         4         4         4
         4         4         4         4         4         4         4         4
         4         4         4         4         4         4         4         4
         4         4         4         4         4         4         4         4
         4         4         4         4         4         4         4         4
         4         4         4         4         4         4         4         4
         4         4         4         4         4         4         4         4
         4         4         4         4         4         4         4         4
         4         4         4         4         4         4         4         4
         4         4         4         4         4         4         4         4
         4         4         4         4         4         4         4         4
         4         4         4         4         4         4         4         4
         4         4         4         4         4         4         4         4
         4         4         4         4         4         4         4         4
         4         4         4         4         4         4         4         4
         4         4         4         4         4         4         4         4
         4         4         4         4         4         4         4         4
         4         4         4         4         4         4         4         4
         4         4         4         4         4         4         4         4
         4         4         4         4         4         4         4         4
         4         4         4         4         4         4         4         4
         4         4         4         4         4         4         4         4
         4         4         4         4         4         4         4         4
         4         4         4         4         4         4         4         4
         4         4         4         4         4         4         4         4
         4         4         4         4         4         4         4         4
         4         4         4         4         4         4         4         4
         4         4         4         4         4         4         4         4
         4         4         4         4         4         4         4         4
         4         4         4         4         4         4         4         4
         4         4         4         4         4         4         4         4
         4         4         4         4         4         4         4         4
         4         4         4         4         4         4         4         4
         4         4         4         4         4         4         4         4
         4         4         4         4         4         4         4         4
         4         4         4         4         4         4         4         4
         4         4         4         4         4         4         4         4
         4         4         4         4         4         4         4         4
         4         4         4         4         4         4         4         4
         4         4         4         4         4         4         4         4
         4         4         4         4         4         4         4         4
         4         4         4         4         4         4         4         4
         4         4         4         4         4         4         4         4
         4         4         4         4         4         4         4         4
         4         4         4         4         4         4         4         4
         4         4         4         4         4         4         4         4
         4         4         4         4         4         4         4         4
         4         4         4         4         4         4         4         4
         4         4         4         4         4         4         4         4
         4         4         4         4         4         4         4         4
         4         4         4         4         4         4         4         4
         4         4         4         4         4         4         4         4
         4         4         4         4         4         4         4         4
         4         4         4         4         4         4         4         4
         4         4         4         4         4         4         4         4
         4         4         4         4         4         4         4         4
         4         4         4         4         4         4         4         4
         4         4         4         4         4         4         4         4
         4         4         4         4         4         4         4         4
         4         4         4         4         4         4         4         4
         4         4         4         4         4         4         4         4
         4         4         4         4         4         4         4         4
         4         4         4         4         4         4         4         4
         4         4         4         4         4         4         4         4
         4         4         4         4         4         4         4         4
         4         4         4         4         4         4         4         4
         4         4         4         4         4         4         4         4
         4         4         4         4         4         4         4         4
         4         4         4         4         4         4         4         4
         4         4         4         4         4         4         4         4
         4         4         4         4         4         4         4         4
         4         4         4         4         4         4         4         4
         4         4         4         4         4         4         4         4
         4         4         4         4         4         4         4         4
         4         4         4         4         4         4         4         4
         4         4         4         4         4         4         4         4
         4         4         4         4         4         4         4         4
         4         4         4         4         4         4         4         4
         4         4         4         4         4         4         4         4
         4         4         4         4         4         4         4         4
         4         4         4         4         4         4         4         4
         4         4         4         4         4         4         4         4
         4         4         4         4         4         4         4         4
         4         4         4         4         4         4         4         4
         4         4         4         4         4         4         4         4
         4         4         4         4         4         4         4         4
         4         4         4         4         4         4         4         4
         4         4         4         4         4         4         4         4
         4         4         4         4         4         4         4         4
         4         4         4         4         4         4         4         4
         4         4         4         4         4         4         4         4
         4         4         4         4         4         4         4         4
         4         4         4         4         4         4         4         4
         4         4         4         4         4         4         4         4
         4         4         4         4         4         4         4         4
         4         4         4         4         4         4         4         4
         4         4         4         4         4         4         4         4
         4         4         4         4         4         4         4         4
         4         4         4         4         4         4         4         4
         4         4         4         4         4         4         4         4
         4         4         4         4         4         4         4         4
         4         4         4         4         4         4         4         4
         4         4         4         4         4         4         4         4
         4         4         4         4         4         4         4         4
         4         4         4         4         4         4         4         4
         4         4         4         4         4         4         4         4
         4         4         4         4         4         4         4         4
         4         4         4         4         4         4         4         4
         4         4         4         4         4         4         4         4
         4         4         4         4         4         4         4         4
         4         4         4         4         4         4         4         4
         4         4         4         4         4         4         4         4
         4         4         4         4         4         4         4         4
         4         4         4         4         4         4         4         4
         4         4         4         4         4         4         4         4
         4         4         4         4         4         4         4         4
         4         4         4         4         4         4         4         4
         4         4         4         4         4         4         4         4
         4         4         4         4         4         4         4         4
         4         4         4         4         4         4         4         4
         4         4         4         4         4         4         4         4
         4         4         4         4         4         4         4         4
         4         4         4         4         4         4         4         4
         4         4         4         4         4         4         4         4
         4         4         4         4         4         4         4         4
         4         4         4         4         4         4         4         4
         4         4         4         4         4         4         4         4
         4         4         4         4         4         4         4         4
         4         4         4         4         4         4         4         4
         4         4         4         4         4         4         4         4
         4         4         4         4         4         4         4         4
         4         4         4         4         4         4         4         4
         4         4         4         4         4         4         4         4
         4         4         4         4         4         4         4         4
         4         4         4         4         4         4         4         4
         4         4         4         4         4         4         4         4
         4         4         4         4         4         4         4         4
         4         4         4         4         4         4         4         4
         4         4         4         4         4         4         4         4
         4         4         4         4         4         4         4         4
         4         4         4         4         4         4         4         4
         4         4         4         4         4         4         4         4
         4         4         4         4         4         4         4         4
         4         4         4         4         4         4         4         4
         4         4         4         4         4         4         4         4
         4         4         4         4         4         4         4         4
         4         4         4         4         4         4         4         4
         4         4         4         4         4         4         4         4
         4         4         4         4         4         4         4         4
         4         4         4         4         4         4         4         4
         4         4         4         4         4         4         4         4
         4         4         4         4         4         4         4         4
         4         4         4         4         4         4         4         4
         4         4         4         4         4         4         4         4
         4         4         4         4         4         4         4         4
         4         4         4         4         4         4         4         4
         4         4         4         4         4         4         4         4
         4         4         4         4         4         4         4         4
         4         4         4         4         4         4         4         4
         4         4         4         4         4         4         4         4
         4         4         4         4         4         4         4         4
         4         4         4         4         4         4         4         4
         4         4         4         4         4         4         4         4
         4         4         4         4         4         4         4         4
         4         4         4         4         4         4         4         4
         4         4         4         4         4         4         4         4
         4         4         4         4         4         4         4         4
         4         4         4         4         4         4         4         4
         4         4         4         4         4         4         4         4
         4         4         4         4         4         4         4         4
         4         4         4         4         4         4         4         4
         4         4         4         4         4         4         4         4
         4         4         4         4         4         4         4         4
         4         4         4         4         4         4         4         4
         4         4         4         4         4         4         4         4
         4         4         4         4         4         4         4         4
         4         4         4         4         4         4         4         4
         4         4         4         4         4         4         4         4
         4         4         4         4         4         4         4         4
         4         4         4         4         4         4         4         4
         4         4         4         4         4         4         4         4
         4         4         4         4         4         4         4         4
         4         4         4         4         4         4         4         4
         4         4         4         4         4         4         4         4
         4         4         4         4         4         4         4         4
         4         4         4         4         4         4         4         4
         4         4         4         4         4         4         4         4
         4         4         4         4         4         4         4         4
         4         4         4         4         4         4         4         4
         4         4         4         4         4         4         4         4
         4         4         4         4         4         4         4         4
         4         4         4         4         4         4         4         4
         4         4         4         4         4         4         4         4
         4         4         4         4         4         4         4         4
         4         4         4         4         4         4         4         4
         4         4         4         4         4         4         4         4
         4         4         4         4         4         4         4         4
         4         4         4         4         4         4         4         4
         4         4         4         4         4         4         4         4
         4         4         4         4         4         4         4         4
         4         4         4         4         4         4         4         4
         4         4         4         4         4         4         4         4
         4         4         4         4         4         4         4         4
         4         4         4         4         4         4         4         4
         4         4         4         4         4         4         4         4
         4         4         4         4         4         4         4         4
         4         4         4         4         4         4         4         4
         4         4         4         4         4         4         4         4
         4         4         4         4         4         4         4         4
         4         4         4         4         4         4         4         4
         4         4         4         4         4         4         4         4
         4         4         4         4         4         4         4         4
         4         4         4         4         4         4         4         4
         4         4         4         4         4         4         4         4
         4         4         4         4         4         4         4         4
         4         4         4         4         4         4         4         4
         4         4         4         4         4         4         4         4
         4         4         4         4         4         4         4         4
         4         4         4         4         4         4         4         4
         4         4         4         4         4         4         4         4
         4         4         4         4         4         4         4         4
         4         4         4         4         4         4         4         4
         4         4         4         4         4         4         4         4
         4         4         4         4         4         4         4         4
         4         4         4         4         4         4         4         4
         4         4         4         4         4         4         4         4
         4         4         4         4         4         4         4         4
         4         4         4         4         4         4         4         4
         4         4         4         4         4         4         4         4
         4         4         4         4         4         4         4         4
         4         4         4         4         4         4         4         4
         4         4         4         4         4         4         4         4
         4         4         4         4         4         4         4         4
         4         4         4         4         4         4         4         4
         4         4         4         4         4         4         4         4
         4         4         4         4         4         4         4         4
         4         4         4         4         4         4         4         4
         4         4         4         4         4         4         4         4
         4         4         4         4         4         4         4         4
         4         4         4         4         4         4         4         4
         4         4         4         4         4         4         4         4
         4         4         4         4         4         4         4         4
         4         4         4         4         4         4         4         4
         4         4         4         4         4         4         4         4
         4         4         4         4         4         4         4         4
         4         4         4         4         4         4         4         4
         4         4         4         4         4         4         4         4
         4         4         4         4         4         4         4         4
         4         4         4         4         4         4         4         4
         4         4         4         4         4         4         4         4
         4         4         4         4         4         4         4         4
         4         4         4         4         4         4         4         4
         4         4         4         4         4         4         4         4
         4         4         4         4         4         4         4         4
         4         4         4         4         4         4         4         4
         4         4         4         4         4         4         4         4
         4         4         4         4         4         4         4         4
         4         4         4         4         4         4         4         4
         4         4         4         4         4         4         4         4
         4         4         4         4         4         4         4         4
         4         4         4         4         4         4         4         4
         4         4         4         4         4         4         4         4
         4         4         4         4         4         4         4         4
         4         4         4         4         4         4         4         4
         4         4         4         4         4         4         4         4
         4         4         4         4         4         4         4         4
         4         4         4         4         4         4         4         4
         4         4         4         4         4         4         4         4
         4         4         4         4         4         4         4         4
         4         4         4         4         4         4         4         4
         4         4         4         4         4         4         4         4
         4         4         4         4         4         4         4         4
         4         4         4         4         4         4         4         4
         4         4         4         4         4         4         4         4
         4         4         4         4         4         4         4         4
         4         4         4         4         4         4         4         4
         4         4         4         4         4         4         4         4
         4         4         4         4         4         4         4         4
         4         4         4         4         4         4         4         4
         4         4         4         4         4         4         4         4
         4         4         4         4         4         4         4         4
         4         4         4         4         4         4         4         4
         4         4         4         4         4         4         4         4
         4         4         4         4         4         4         4         4
         4         4         4         4         4         4         4         4
         4         4         4         4         4         4         4         4
         4         4         4         4         4         4         4         4
         4         4         4         4         4         4         4         4
         4         4         4         4         4         4         4         4
         4         4         4         4         4         4         4         4
         4         4         4         4         4         4         4         4
         4         4         4         4         4         4         4         4
         4         4         4         4         4         4         4         4
         4         4         4         4         4         4         4         4
         4         4         4         4         4         4         4         4
         4         4         4         4         4         4         4         4
         4         4         4         4         4         4         4         4
         4         4         4         4         4         4         4         4
         4         4         4         4         4         4         4         4
         4         4         4         4         4         4         4         4
         4         4         4         4         4         4         4         4
         4         4         4         4         4         4         4         4
         4         4         4         4         4         4         4         4
         4         4         4         4         4         4         4         4
         4         4         4         4         4         4         4         4
         4         4         4         4         4         4         4         4
         4         4         4         4         4         4         4         4
         4         4         4         4         4         4         4         4
         4         4         4         4         4         4         4         4
         4         4         4         4         4         4         4         4
         4         4         4         4         4         4         4         4
         4         4         4         4         4         4         4         4
         4         4         4         4         4         4         4         4
         4         4         4         4         4         4         4         4
         4         4         4         4         4         4         4         4
         4         4         4         4         4         4         4         4
         4         4         4         4         4         4         4         4
         4         4         4         4         4         4         4         4
         4         4         4         4         4         4         4         4
         4         4         4         4         4         4         4         4
         4         4         4         4         4         4         4         4
         4         4         4         4         4         4         4         4
         4         4         4         4         4         4         4         4
         4         4         4         4         4         4         4         4
         4         4         4         4         4         4         4         4
         4         4         4         4         4         4         4         4
         4         4         4         4         4         4         4         4
         4         4         4         4         4         4         4         4
         4         4         4         4         4         4         4         4
         4         4         4         4         4         4         4         4
         4         4         4         4         4         4         4         4
         4         4         4         4         4         4         4         4
         4         4         4         4         4         4         4         4
         4         4         4         4         4         4         4         4
         4         4         4         4         4         4         4         4
         4         4         4         4         4         4         4         4
         4         4         4         4         4         4         4         4
         4         4         4         4         4         4         4         4
         4         4         4         4         4         4         4         4
         4         4         4         4         4         4         4         4
         4         4         4         4         4         4         4         4
         4         4         4         4         4         4         4         4
         4         4         4         4         4         4         4         4
         4         4         4         4         4         4         4         4
         4         4         4         4         4         4         4         4
         4         4         4         4         4         4         4         4
         4         4         4         4         4         4         4         4
         4         4         4         4         4         4         4         4
         4         4         4         4         4         4         4         4
         4         4         4         4         4         4         4         4
         4         4         4         4         4         4         4         4
         4         4         4         4         4         4         4         4
         4         4         4         4         4         4         4         4
         4         4         4         4         4         4         4         4
         4         4         4         4         4         4         4         4
         4         4         4         4         4         4         4         4
         4         4         4         4         4         4         4         4
         4         4         4         4         4         4         4         4
         4         4         4         4         4         4         4         4
         4         4         4         4         4         4         4         4
         4         4         4         4         4         4         4         4
         4         4         4         4         4         4         4         4
         4         4         4         4         4         4         4         4
         4         4         4         4         4         4         4         4
         4         4         4         4         4         4         4         4
         4         4         4         4         4         4         4         4
         4         4         4         4         4         4         4         4
         4         4         4         4         4         4         4         4
         4         4         4         4         4         4         4         4
         4         4         4         4         4         4         4         4
         4         4         4         4         4         4         4         4
         4         4         4         4         4         4         4         4
         4         4         4         4         4         4         4         4
         4         4         4         4         4         4         4         4
         4         4         4         4         4         4         4         4
         4         4         4         4         4         4         4         4
         4         4         4         4         4         4         4         4
         4         4         4         4         4         4         4         4
         4         4         4         4         4         4         4         4
         4         4         4         4         4         4         4         4
         4         4         4         4         4         4         4         4
         4         4         4         4         4         4         4         4
         4         4         4         4         4         4         4         4
         4         4         4         4         4         4         4         4
         4         4         4         4         4         4         4         4
         4         4         4         4         4         4         4         4
         4         4         4         4         4         4         4         4
         4         4         4         4         4         4         4         4
         4         4         4         4         4         4         4         4
         4         4         4         4         4         4         4         4
         4         4         4         4         4         4         4         4
         4         4         4         4         4         4         4         4
         4         4         4         4         4         4         4         4
         4         4         4         4         4         4         4         4
         4         4         4         4         4         4         4         4
         4         4         4         4         4         4         4         4
         4         4         4         4         4         4         4         4
         4         4         4         4         4         4         4         4
         4         4         4         4         4         4         4         4
         4         4         4         4         4         4         4         4
         4         4         4         4         4         4         4         4
         4         4         4         4         4         4         4         4
         4         4         4         4         4         4         4         4
         4         4         4         4         4         4         4         4
         4         4         4         4         4         4         4         4
         4         4         4         4         4         4         4         4
         4         4         4         4         4         4         4         4
         4         4         4         4         4         4         4         4
         4         4         4         4         4         4         4         4
         4         4         4         4         4         4         4         4
         4         4         4         4         4         4         4         4
         4         4         4         4         4         4         4         4
         4         4         4         4         4         4         4         4
         4         4         4         4         4         4         4         4
         4         4         4         4         4         4         4         4
         4         4         4         4         4         4         4         4
         4         4         4         4         4         4         4         4
         4         4         4         4         4         4         4         4
         4         4         4         4         4         4         4         4
         4         4         4         4         4         4         4         4
         4         4         4         4         4         4         4         4
         4         4         4         4         4         4         4         4
         4         4         4         4         4         4         4         4
         4         4         4         4         4         4         4         4
         4         4         4         4         4         4         4         4
         4         4         4         4         4         4         4         4
         4         4         4         4         4         4         4         4
         4         4         4         4         4         4         4         4
         4         4         4         4         4         4         4         4
         4         4         4         4         4         4         4         4
         4         4         4         4         4         4         4         4
         4         4         4         4         4         4         4         4
         4         4         4         4         4         4         4         4
         4         4         4         4         4         4         4         4
         4         4         4         4         4         4         4         4
         4         4         4         4         4         4         4         4
         4         4         4         4         4         4         4         4
         4         4         4         4         4         4         4         4
         4         4         4         4         4         4         4         4
         4         4         4         4         4         4         4         4
         4         4         4         4         4         4         4         4
         4         4         4         4         4         4         4         4
         4         4         4         4         4         4         4         4
         4         4         4         4         4         4         4         4
         4         4         4         4         4         4         4         4
         4         4         4         4         4         4         4         4
         4         4         4         4         4         4         4         4
         4         4         4         4         4         4         4         4
         4         4         4         4         4         4         4         4
         4         4         4         4         4         4         4         4
         4         4         4         4         4         4         4         4
         4         4         4         4         4         4         4         4
         4         4         4         4         4         4         4         4
         4         4         4         4         4         4         4         4
         4         4         4         4         4         4         4         4
         4         4         4         4         4         4         4         4
         4         4         4         4         4         4         4         4
         4         4         4         4         4         4         4         4
         4         4         4         4         4         4         4         4
         4         4         4         4         4         4         4         4
         4         4         4         4         4         4         4         4
         4         4         4         4         4         4         4         4
         4         4         4         4         4         4         4         4
         4         4         4         4         4         4         4         4
         4         4         4         4         4         4         4         4
         4         4         4         4         4         4         4         4
         4         4         4         4         4         4         4         4
         4         4         4         4         4         4         4         4
         4         4         4         4         4         4         4         4
         4         4         4         4         4         4         4         4
         4         4         4         4         4         4         4         4
         4         4         4         4         4         4         4         4
         4         4         4         4         4         4         4         4
         4         4         4         4         4         4         4         4
         4         4         4         4         4         4         4         4
         4         4         4         4         4         4         4         4
         4         4         4         4         4         4         4         4
         4         4         4         4         4         4         4         4
         4         4         4         4         4         4         4         4
         4         4         4         4         4         4         4         4
         4         4         4         4         4         4         4         4
         4         4         4         4         4         4         4         4
         4         4         4         4         4         4         4         4
         4         4         4         4         4         4         4         4
         4         4         4         4         4         4         4         4
         4         4         4         4         4         4         4         4
         4         4         4         4         4         4         4         4
         4         4         4         4         4         4         4         4
         4         4         4         4         4         4         4         4
         4         4         4         4         4         4         4         4
         4         4         4         4         4         4         4         4
         4         4         4         4         4         4         4         4
         4         4         4         4         4         4         4         4
         4         4         4         4         4         4         4         4
         4         4         4         4         4         4         4         4
         4         4         4         4         4         4         4         4
         4         4         4         4         4         4         4         4
         4         4         4         4         4         4         4         4
         4         4         4         4         4         4         4         4
         4         4         4         4         4         4         4         4
         4         4         4         4         4         4         4         4
         4         4         4         4         4         4         4         4
         4         4         4         4         4         4         4         4
         4         4         4         4         4         4         4         4
         4         4         4         4         4         4         4         4
         4         4         4         4         4         4         4         4
         4         4         4         4         4         4         4         4
         4         4         4         4         4         4         4         4
         4         4         4         4         4         4         4         4
         4         4         4         4         4         4         4         4
         4         4         4         4         4         4         4         4
         4         4         4         4         4         4         4         4
         4         4         4         4         4         4         4         4
         4         4         4         4         4         4         4         4
         4         4         4         4         4         4         4         4
         4         4         4         4         4         4         4         4
         4         4         4         4         4         4         4         4
         4         4         4         4         4         4         4         4
         4         4         4         4         4         4         4         4
         4         4         4         4         4         4         4         4
         4         4         4         4         4         4         4         4
         4         4         4         4         4         4         4         4
         4         4         4         4         4         4         4         4
         4         4         4         4         4         4         4         4
         4         4         4         4         4         4         4         4
         4         4         4         4         4         4         4         4
         4         4         4         4         4         4         4         4
         4         4         4         4         4         4         4         4
         4         4         4         4         4         4         4         4
         4         4         4         4         4         4         4         4
         4         4         4         4         4         4         4         4
         4         4         4         4         4         4         4         4
         4         4         4         4         4         4         4         4
         4         4         4         4         4         4         4         4
         4         4         4         4         4         4         4         4
         4         4         4         4         4         4         4         4
         4         4         4         4         4         4         4         4
         4         4         4         4         4         4         4         4
         4         4         4         4         4         4         4         4
         4         4         4         4         4         4         4         4
         4         4         4         4         4         4         4         4
         4         4         4         4         4         4         4         4
         4         4         4         4         4         4         4         4
         4         4         4         4         4         4         4         4
         4         4         4         4         4         4         4         4
         4         4         4         4         4         4         4         4
         4         4         4         4         4         4         4         4
         4         4         4         4         4         4         4         4
         4         4         4         4         4         4         4         4
         4         4         4         4         4         4         4         4
         4         4         4         4         4         4         4         4
         4         4         4         4         4         4         4         4
         4         4         4         4         4         4         4         4
         4         4         4         4         4         4         4         4
         4         4         4         4         4         4         4         4
         4         4         4         4         4         4         4         4
         4         4         4         4         4         4         4         4
         4         4         4         4         4         4         4         4
         4         4         4         4         4         4         4         4
         4         4         4         4         4         4         4         4
         4         4         4         4         4         4         4         4
         4         4         4         4         4         4         4         4
         4         4         4         4         4         4         4         4
         4         4         4         4         4         4         4         4
         4         4         4         4         4         4         4         4
         4         4         4         4         4         4         4         4
         4         4         4         4         4         4         4         4
         4         4         4         4         4         4         4         4
         4         4         4         4         4         4         4         4
         4         4         4         4         4         4         4         4
         4         4         4         4         4         4         4         4
         4         4         4         4         4         4         4         4
         4         4         4         4         4         4         4         4
         4         4         4         4         4         4         4         4
         4         4         4         4         4         4         4         4
         4         4         4         4         4         4         4         4
         4         4         4         4         4         4         4         4
         4         4         4         4         4         4         4         4
         4         4         4         4         4         4         4         4
         4         4         4         4         4         4         4         4
         4         4         4         4         4         4         4         4
         4         4         4         4         4         4         4         4
         4         4         4         4         4         4         4         4
         4         4         4         4         4         4         4         4
         4         4         4         4         4         4         4         4
         4         4         4         4         4         4         4         4
         4         4         4         4         4         4         4         4
         4         4         4         4         4         4         4         4
         4         4         4         4         4         4         4         4
         4         4         4         4         4         4         4         4
         4         4         4         4         4         4         4         4
         4         4         4         4         4         4         4         4
         4         4         4         4         4         4         4         4
         4         4         4         4         4         4         4         4
         4         4         4         4         4         4         4         4
         4         4         4         4         4         4         4         4
         4         4         4         4         4         4         4         4
         4         4         4         4         4         4         4         4
         4         4         4         4         4         4         4         4
         4         4         4         4         4         4         4         4
         4         4         4         4         4         4         4         4
         4         4         4         4         4         4         4         4
         4         4         4         4         4         4         4         4
         4         4         4         4         4         4         4         4
         4         4         4         4         4         4         4         4
         4         4         4         4         4         4         4         4
         4         4         4         4         4         4         4         4
         4         4         4         4         4         4         4         4
         4         4         4         4         4         4         4         4
         4         4         4         4         4         4         4         4
         4         4         4         4         4         4         4         4
         4         4         4         4         4         4         4         4
         4         4         4         4         4         4         4         4
         4         4         4         4         4         4         4         4
         4         4         4         4         4         4         4         4
         4         4         4         4         4         4         4         4
         4         4         4         4         4         4         4         4
         4         4         4         4         4         4         4         4
         4         4         4         4         4         4         4         4
         4         4         4         4         4         4         4         4
         4         4         4         4         4         4         4         4
         4         4         4         4         4         4         4         4
         4         4         4         4         4         4         4         4
         4         4         4         4         4         4         4         4
         4         4         4         4         4         4         4         4
         4         4         4         4         4         4         4         4
         4         4         4         4         4         4         4         4
         4         4         4         4         4         4         4         4
         4         4         4         4         4         4         4         4
         4         4         4         4         4         4         4         4
         4         4         4         4         4         4         4         4
         4         4         4         4         4         4         4         4
         4         4         4         4         4         4         4         4
         4         4         4         4         4         4         4         4
         4         4         4         4         4         4         4         4
         4         4         4         4         4         4         4         4
         4         4         4         4         4         4         4         4
         4         4         4         4         4         4         4         4
         4         4         4         4         4         4         4         4
         4         4         4         4         4         4         4         4
         4         4         4         4         4         4         4         4
         4         4         4         4         4         4         4         4
         4         4         4         4         4         4         4         4
         4         4         4         4         4         4         4         4
         4         4         4         4         4         4         4         4
         4         4         4         4         4         4         4         4
         4         4         4         4         4         4         4         4
         4         4         4         4         4         4         4         4
         4         4         4         4         4         4         4         4
         4         4         4         4         4         4         4         4
         4         4         4         4         4         4         4         4
         4         4         4         4         4         4         4         4
         4         4         4         4         4         4         4         4
         4         4         4         4         4         4         4         4
         4         4         4         4         4         4         4         4
         4         4         4         4         4         4         4         4
         4         4         4         4         4         4         4         4
         4         4         4         4         4         4         4         4
         4         4         4         4         4         4         4         4
         4         4         4         4         4         4         4         4
         4         4         4         4         4         4         4         4
         4         4         4         4         4         4         4         4
         4         4         4         4         4         4         4         4
         4         4         4         4         4         4         4         4
         4         4         4         4         4         4         4         4
         4         4         4         4         4         4         4         4
         4         4         4         4         4         4         4         4
         4         4         4         4         4         4         4         4
         4         4         4         4         4         4         4         4
         4         4         4         4         4         4         4         4
         4         4         4         4         4         4         4         4
         4         4         4         4         4         4         4         4
         4         4         4         4         4         4         4         4
         4         4         4         4         4         4         4         4
         4         4         4         4         4         4         4         4
         4         4         4         4         4         4         4         4
         4         4         4         4         4         4         4         4
         4         4         4         4         4         4         4         4
         4         4         4         4         4         4         4         4
         4         4         4         4         4         4         4         4
         4         4         4         4         4         4         4         4
         4         4         4         4         4         4         4         4
         4         4         4         4         4         4         4         4
         4         4         4         4         4         4         4         4
         4         4         4         4         4         4         4         4
         4         4         4         4         4         4         4         4
         4         4         4         4         4         4         4         4
         4         4         4         4         4         4         4         4
         4         4         4         4         4         4         4         4
         4         4         4         4         4         4         4         4
         4         4         4         4         4         4         4         4
         4         4         4         4         4         4         4         4
         4         4         4         4         4         4         4         4
         4         4         4         4         4         4         4         4
         4         4         4         4         4         4         4         4
         4         4         4         4         4         4         4         4
         4         4         4         4         4         4         4         4
         4         4         4         4         4         4         4         4
         4         4         4         4         4         4         4         4
         4         4         4         4         4         4         4         4
         4         4         4         4         4         4         4         4
         4         4         4         4         4         4         4         4
         4         4         4         4         4         4         4         4
         4         4         4         4         4         4         4         4
         4         4         4         4         4         4         4         4
         4         4         4         4         4         4         4         4
         4         4         4         4         4         4         4         4
         4         4         4         4         4         4         4         4
         4         4         4         4         4         4         4         4
         4         4         4         4         4         4         4         4
         4         4         4         4         4         4         4         4
         4         4         4         4         4         4         4         4
         4         4         4         4         4         4         4         4
         4         4         4         4         4         4         4         4
         4         4         4         4         4         4         4         4
         4         4         4         4         4         4         4         4
         4         4         4         4         4         4         4         4
         4         4         4         4         4         4         4         4
         4         4         4         4         4         4         4         4
         4         4         4         4         4         4         4         4
         4         4         4         4         4         4         4         4
         4         4         4         4         4         4         4         4
         4         4         4         4         4         4         4         4
         4         4         4         4         4         4         4         4
         4         4         4         4         4         4         4         4
         4         4         4         4         4         4         4         4
         4         4         4         4         4         4         4         4
         4         4         4         4         4         4         4         4
         4         4         4         4         4         4         4         4
         4         4         4         4         4         4         4         4
         4         4         4         4         4         4         4         4
         4         4         4         4         4         4         4         4
         4         4         4         4         4         4         4         4
         4         4         4         4         4         4         4         4
         4         4         4         4         4         4         4         4
         4         4         4         4         4         4         4         4
         4         4         4         4         4         4         4         4
         4         4         4         4         4         4         4         4
         4         4         4         4         4         4         4         4
         4         4         4         4         4         4         4         4
         4         4         4         4         4         4         4         4
         4         4         4         4         4         4         4         4
         4         4         4         4         4         4         4         4
         4         4         4         4         4         4         4         4
         4         4         4         4         4         4         4         4
         4         4         4         4         4         4         4         4
         4         4         4         4         4         4         4         4
         4         4         4         4         4         4         4         4
         4         4         4         4         4         4         4         4
         4         4         4         4         4         4         4         4
         4         4         4         4         4         4         4         4
         4         4         4         4         4         4         4         4
         4         4         4         4         4         4         4         4
         4         4         4         4         4         4         4         4
         4         4         4         4         4         4         4         4
         4         4         4         4         4         4         4         4
         4         4         4         4         4         4         4         4
         4         4         4         4         4         4         4         4
         4         4         4         4         4         4         4         4
         4         4         4         4         4         4         4         4
         4         4         4         4         4         4         4         4
         4         4         4         4         4         4         4         4
         4         4         4         4         4         4         4         4
         4         4         4         4         4         4         4         4
         4         4         4         4         4         4         4         4
         4         4         4         4         4         4         4         4
         4         4         4         4         4         4         4         4
         4         4         4         4         4         4         4         4
         4         4         4         4         4         4         4         4
         4         4         4         4         4         4         4         4
         4         4         4         4         4         4         4         4
         4         4         4         4         4         4         4         4
         4         4         4         4         4         4         4         4
         4         4         4         4         4         4         4         4
         4         4         4         4         4         4         4         4
         4         4         4         4         4         4         4         4
         4         4         4         4         4         4         4         4
         4         4         4         4         4         4         4         4
         4         4         4         4         4         4         4         4
         4         4         4         4         4         4         4         4
         4         4         4         4         4         4         4         4
         4         4         4         4         4         4         4         4
         4         4         4         4         4         4         4         4
         4         4         4         4         4         4         4         4
         4         4         4         4         4         4         4         4
         4         4         4         4         4         4         4         4
         4         4         4         4         4         4         4         4
         4         4         4         4         4         4         4         4
         4         4         4         4         4         4         4         4
         4         4         4         4         4         4         4         4
         4         4         4         4         4         4         4         4
         4         4         4         4         4         4         4         4
         4         4         4         4         4         4         4         4
         4         4         4         4         4         4         4         4
         4         4         4         4         4         4         4         4
         4         4         4         4         4         4         4         4
         4         4         4         4         4         4         4         4
         4         4         4         4         4         4         4         4
         4         4         4         4         4         4         4         4
         4         4         4         4         4         4         4         4
         4         4         4         4         4         4         4         4
         4         4         4         4         4         4         4         4
         4         4         4         4         4         4         4         4
         4         4         4         4         4         4         4         4
         4         4         4         4         4         4         4         4
         4         4         4         4         4         4         4         4
         4         4         4         4         4         4         4         4
         4         4         4         4         4         4         4         4
         4         4         4         4         4         4         4         4
         4         4         4         4         4         4         4         4
         4         4         4         4         4         4         4         4
         4         4         4         4         4         4         4         4
         4         4         4         4         4         4         4         4
         4         4         4         4         4         4         4         4
         4         4         4         4         4         4         4         4
         4         4         4         4         4         4         4         4
         4         4         4         4         4         4         4         4
         4         4         4         4         4         4         4         4
         4         4         4         4         4         4         4         4
         4         4         4         4         4         4         4         4
         4         4         4         4         4         4         4         4
         4         4         4         4         4         4         4         4
         4         4         4         4         4         4         4         4
         4         4         4         4         4         4         4         4
         4         4         4         4         4         4         4         4
         4         4         4         4         4         4         4         4
         4         4         4         4         4         4         4         4
         4         4         4         4         4         4         4         4
         4         4         4         4         4         4         4         4
         4         4         4         4         4         4         4         4
         4         4         4         4         4         4         4         4
         4         4         4         4         4         4         4         4
         4         4         4         4         4         4         4         4
         4         4         4         4         4         4         4         4
         4         4         4         4         4         4         4         4
         4         4         4         4         4         4         4         4
         4         4         4         4         4         4         4         4
         4         4         4         4         4         4         4         4
         4         4         4         4         4         4         4         4
         4         4         4         4         4         4         4         4
         4         4         4         4         4         4         4         4
         4         4         4         4         4         4         4         4
         4         4         4         4         4         4         4         4
         4         4         4         4         4         4         4         4
         4         4         4         4         4         4         4         4
         4         4         4         4         4         4         4         4
         4         4         4         4         4         4         4         4
         4         4         4         4         4         4         4         4
         4         4         4         4         4         4         4         4
         4         4         4         4         4         4         4         4
         4         4         4         4         4         4         4         4
         4         4         4         4         4         4         4         4
         4         4         4         4         4         4         4         4
         4         4         4         4         4         4         4         4
         4         4         4         4         4         4         4         4
         4         4         4         4         4         4         4         4
         4         4         4         4         4         4         4         4
         4         4         4         4         4         4         4         4
         4         4         4         4         4         4         4         4
         4         4         4         4         4         4         4         4
         4         4         4         4         4         4         4         4
         4         4         4         4         4         4         4         4
         4         4         4         4         4         4         4         4
         4         4         4         4         4         4         4         4
         4         4         4         4         4         4         4         4
         4         4         4         4         4         4         4         4
         4         4         4         4         4         4         4         4
         4         4         4         4         4         4         4         4
         4         4         4         4         4         4         4         4
         4         4         4         4         4         4         4         4
         4         4         4         4         4         4         4         4
         4         4         4         4         4         4         4         4
         4         4         4         4         4         4         4         4
         4         4         4         4         4         4         4         4
         4         4         4         4         4         4         4         4
         4         4         4         4         4         4         4         4
         4         4         4         4         4         4         4         4
         4         4         4         4         4         4         4         4
         4         4         4         4         4         4         4         4
         4         4         4         4         4         4         4         4
         4         4         4         4         4         4         4         4
         4         4         4         4         4         4         4         4
         4         4         4         4         4         4         4         4
         4         4         4         4         4         4         4         4
         4         4         4         4         4         4         4         4
         4         4         4         4         4         4         4         4
         4         4         4         4         4         4         4         4
         4         4         4         4         4         4         4         4
         4         4         4         4         4         4         4         4
         4         4         4         4         4         4         4         4
         4         4         4         4         4         4         4         4
         4         4         4         4         4         4         4         4
         4         4         4         4         4         4         4         4
         4         4         4         4         4         4         4         4
         4         4         4         4         4         4         4         4
         4         4         4         4         4         4         4         4
         4         4         4         4         4         4         4         4
         4         4         4         4         4         4         4         4
         4         4         4         4         4         4         4         4
         4         4         4         4         4         4         4         4
         4         4         4         4         4         4         4         4
         4         4         4         4         4         4         4         4
         4         4         4         4         4         4         4         4
         4         4         4         4         4         4         4         4
         4         4         4         4         4         4         4         4
         4         4         4         4         4         4         4         4
         4         4         4         4         4         4         4         4
         4         4         4         4         4         4         4         4
         4         4         4         4         4         4         4         4
         4         4         4         4         4         4         4         4
         4         4         4         4         4         4         4         4
         4         4         4         4         4         4         4         4
         4         4         4         4         4         4         4         4
         4         4         4         4         4         4         4         4
         4         4         4         4         4         4         4         4
         4         4         4         4         4         4         4         4
         4         4         4         4         4         4         4         4
         4         4         4         4         4         4         4         4
         4         4         4         4         4         4         4         4
         4         4         4         4         4         4         4         4
         4         4         4         4         4         4         4         4
         4         4         4         4         4         4         4         4
         4         4         4         4         4         4         4         4
         4         4         4         4         4         4         4         4
         4         4         4         4         4         4         4         4
         4         4         4         4         4         4         4         4
         4         4         4         4         4         4         4         4
         4         4         4         4         4         4         4         4
         4         4         4         4         4         4         4         4
         4         4         4         4         4         4         4         4
         4         4         4         4         4         4         4         4
         4         4         4         4         4         4         4         4
         4         4         4         4         4         4         4         4
         4         4         4         4         4         4         4         4
         4         4         4         4         4         4         4         4
         4         4         4         4         4         4         4         4
         4         4         4         4         4         4         4         4
         4         4         4         4         4         4         4         4
         4         4         4         4         4         4         4         4
         4         4         4         4         4         4         4         4
         4         4         4         4         4         4         4         4
         4         4         4         4         4         4         4         4
         4         4         4         4         4         4         4         4
         4         4         4         4         4         4         4         4
         4         4         4         4         4         4         4         4
         4         4         4         4         4         4         4         4
         4         4         4         4         4         4         4         4
         4         4         4         4         4         4         4         4
         4         4         4         4         4         4         4         4
         4         4         4         4         4         4         4         4
         4         4         4         4         4         4         4         4
         4         4         4         4         4         4         4         4
         4         4         4         4         4         4         4         4
         4         4         4         4         4         4         4         4
         4         4         4         4         4         4         4         4
         4         4         4         4         4         4         4         4
         4         4         4         4         4         4         4         4
         4         4         4         4         4         4         4         4
         4         4         4         4         4         4         4         4
         4         4         4         4         4         4         4         4
         4         4         4         4         4         4         4         4
         4         4         4         4         4         4         4         4
         4         4         4         4         4         4         4         4
         4         4         4         4         4         4         4         4
         4         4         4         4         5         5         5         5
         5         5         5         5         5         5         5         5
         5         5         5         5         5         5         5         5
         5         5         5         5         5         5         5         5
         5         5         5         5         5         5         5         5
         5         5         5         5         5         5         5         5
         5         5         5         5         5         5         5         5
         5         5         5         5         5         5         5         5
         5         5         5         5         5         5         5         5
         5         5         5         5         5         5         5         5
         5         5         5         5         5         5         5         5
         5         5         5         5         5         5         5         5
         5         5         5         5         5         5         5         5
         5         5         5         5         5         5         5         5
         5         5         5         5         5         5         5         5
         5         5         5         5         5         5         5         5
         5         5         5         5         5         5         5         5
         5         5         5         5         5         5         5         5
         5         5         5         5         5         5         5         5
         5         5         5         5         5         5         5         5
         5         5         5         5         5         5         5         5
         5         5         5         5         5         5         5         5
         5         5         5         5         5         5         5         5
         5         5         5         5         5         5         5         5
         5         5         5         5         5         5         5         5
         5         5         5         5         5         5         5         5
         5         5         5         5         5         5         5         5
         5         5         5         5         5         5         5         5
         5         5         5         5         5         5         5         5
         5         5         5         5         5         5         5         5
         5         5         5         5         5         5         5         5
         5         5         5         5         5         5         5         5
         5         5         5         5         5         5         5         5
         5         5         5         5         5         5         5         5
         5         5         5         5         5         5         5         5
         5         5         5         5         5         5         5         5
         5         5         5         5         5         5         5         5
         5         5         5         5         5         5         5         5
         5         5         5         5         5         5         5         5
         5         5         5         5         5         5         5         5
         5         5         5         5         5         5         5         5
         5         5         5         5         5         5         5         5
         5         5         5         5         5         5         5         5
         5         5         5         5         5         5         5         5
         5         5         5         5         5         5         5         5
         5         5         5         5         5         5         5         5
         5         5         5         5         5         5         5         5
         5         5         5         5         5         5         5         5
         5         5         5         5         5         5         5         5
         5         5         5         5         5         5         5         5
         5         5         5         5         5         5         5         5
         5         5         5         5         5         5         5         5
         5         5         5         5         5         5         5         5
         5         5         5         5         5         5         5         5
         5         5         5         5         5         5         5         5
         5         5         5         5         5         5         5         5
         5         5         5         5         5         5         5         5
         5         5         5         5         5         5         5         5
         5         5         5         5         5         5         5         5
         5         5         5         5         5         5         5         5
         5         5         5         5         5         5         5         5
         5         5         5         5         5         5         5         5
         5         5         5         5         5         5         5         5
         5         5         5         5         5         5         5         5
         5         5         5         5         5         5         5         5
         5         5         5         5         5         5         5         5
         5         5         5         5         5         5         5         5
         5         5         5         5         5         5         5         5
         5         5         5         5         5         5         5         5
         5         5         5         5         5         5         5         5
         5         5         5         5         5         5         5         5
         5         5         5         5         5         5         5         5
         5         5         5         5         5         5         5         5
         5         5         5         5         5         5         5         5
         5         5         5         5         5         5         5         5
         5         5         5         5         5         5         5         5
         5         5         5         5         5         5         5         5
         5         5         5         5         5         5         5         5
         5         5         5         5         5         5         5         5
         5         5         5         5         5         5         5         5
         5         5         5         5         5         5         5         5
         5         5         5         5         5         5         5         5
         5         5         5         5         5         5         5         5
         5         5         5         5         5         5         5         5
         5         5         5         5         5         5         5         5
         5         5         5         5         5         5         5         5
         5         5         5         5         5         5         5         5
         5         5         5         5         5         5         5         5
         5         5         5         5         5         5         5         5
         5         5         5         5         5         5         5         5
         5         5         5         5         5         5         5         5
         5         5         5         5         5         5         5         5
         5         5         5         5         5         5         5         5
         5         5         5         5         5         5         5         5
         5         5         5         5         5         5         5         5
         5         5         5         5         5         5         5         5
         5         5         5         5         5         5         5         5
         5         5         5         5         5         5         5         5
         5         5         5         5         5         5         5         5
         5         5         5         5         5         5         5         5
         5         5         5         5         5         5         5         5
         5         5         5         5         5         5         5         5
         5         5         5         5         5         5         5         5
         5         5         5         5         5         5         5         5
         5         5         5         5         5         5         5         5
         5         5         5         5         5         5         5         5
         5         5         5         5         5         5         5         5
         5         5         5         5         5         5         5         5
         5         5         5         5         5         5         5         5
         5         5         5         5         5         5         5         5
         5         5         5         5         5         5         5         5
         5         5         5         5         5         5         5         5
         5         5         5         5         5         5         5         5
         5         5         5         5         5         5         5         5
         5         5         5         5         5         5         5         5
         5         5         5         5         5         5         5         5
         5         5         5         5         5         5         5         5
         5         5         5         5         5         5         5         5
         5         5         5         5         5         5         5         5
         5         5         5         5         5         5         5         5
         5         5         5         5         5         5         5         5
         5         5         5         5         5         5         5         5
         5         5         5         5         5         5         5         5
         5         5         5         5         5         5         5         5
         5         5         5         5         5         5         5         5
         5         5         5         5         5         5         5         5
         5         5         5         5         5         5         5         5
         5         5         5         5         5         5         5         5
         5         5         5         5         5         5         5         5
         5         5         5         5         5         5         5         5
         5         5         5         5         5         5         5         5
         5         5         5         5         5         5         5         5
         5         5         5         5         5         5         5         5
         5         5         5         5         5         5         5         5
         5         5         5         5         5         5         5         5
         5         5         5         5         5         5         5         5
         5         5         5         5         5         5         5         5
         5         5         5         5         5         5         5         5
         5         5         5         5         5         5         5         5
         5         5         5         5         5         5         5         5
         5         5         5         5         5         5         5         5
         5         5         5         5         5         5         5         5
         5         5         5         5         5         5         5         5
         5         5         5         5         5         5         5         5
         5         5         5         5         5         5         5         5
         5         5         5         5         5         5         5         5
         5         5         5         5         5         5         5         5
         5         5         5         5         5         5         5         5
         5         5         5         5         5         5         5         5
         5         5         5         5         5         5         5         5
         5         5         5         5         5         5         5         5
         5         5         5         5         5         5         5         5
         5         5         5         5         5         5         5         5
         5         5         5         5         5         5         5         5
         5         5         5         5         5         5         5         5
         5         5         5         5         5         5         5         5
         5         5         5         5         5         5         5         5
         5         5         5         5         5         5         5         5
         5         5         5         5         5         5         5         5
         5         5         5         5         5         5         5         5
         5         5         5         5         5         5         5         5
         5         5         5         5         5         5         5         5
         5         5         5         5         5         5         5         5
         5         5         5         5         5         5         5         5
         5         5         5         5         5         5         5         5
         5         5         5         5         5         5         5         5
         5         5         5         5         5         5         5         5
         5         5         5         5         5         5         5         5
         5         5         5         5         5         5         5         5
         5         5         5         5         5         5         5         5
         5         5         5         5         5         5         5         5
         5         5         5         5         5         5         5         5
         5         5         5         5         5         5         5         5
         5         5         5         5         5         5         5         5
         5         5         5         5         5         5         5         5
         5         5         5         5         5         5         5         5
         5         5         5         5         5         5         5         5
         5         5         5         5         5         5         5         5
         5         5         5         5         5         5         5         5
         5         5         5         5         5         5         5         5
         5         5         5         5         5         5         5         5
         5         5         5         5         5         5         5         5
         5         5         5         5         5         5         5         5
         5         5         5         5         5         5         5         5
         5         5         5         5         5         5         5         5
         5         5         5         5         5         5         5         5
         5         5         5         5         5         5         5         5
         5         5         5         5         5         5         5         5
         5         5         5         5         5         5         5         5
         5         5         5         5         5         5         5         5
         5         5         5         5         5         5         5         5
         5         5         5         5         5         5         5         5
         5         5         5         5         5         5         5         5
         5         5         5         5         5         5         5         5
         5         5         5         5         5         5         5         5
         5         5         5         5         5         5         5         5
         5         5         5         5         5         5         5         5
         5         5         5         5         5         5         5         5
         5         5         5         5         5         5         5         5
         5         5         5         5         5         5         5         5
         5         5         5         5         5         5         5         5
         5         5         5         5         5         5         5         5
         5         5         5         5         5         5         5         5
         5         5         5         5         5         5         5         5
         5         5         5         5         5         5         5         5
         5         5         5         5         5         5         5         5
         5         5         5         5         5         5         5         5
         5         5         5         5         5         5         5         5
         5         5         5         5         5         5         5         5
         5         5         5         5         5         5         5         5
         5         5         5         5         5         5         5         5
         5         5         5         5         5         5         5         5
         5         5         5         5         5         5         5         5
         5         5         5         5         5         5         5         5
         5         5         5         5         5         5         5         5
         5         5         5         5         5         5         5         5
         5         5         5         5         5         5         5         5
         5         5         5         5         5         5         5         5
         5         5         5         5         5         5         5         5
         5         5         5         5         5         5         5         5
         5         5         5         5         5         5         5         5
         5         5         5         5         5         5         5         5
         5         5         5         5         5         5         5         5
         5         5         5         5         5         5         5         5
         5         5         5         5         5         5         5         5
         5         5         5         5         5         5         5         5
         5         5         5         5         5         5         5         5
         5         5         5         5         5         5         5         5
         5         5         5         5         5         5         5         5
         5         5         5         5         5         5         5         5
         5         5         5         5         5         5         5         5
         5         5         5         5         5         5         5         5
         5         5         5         5         5         5         5         5
         5         5         5         5         5         5         5         5
         5         5         5         5         5         5         5         5
         5         5         5         5         5         5         5         5
         5         5         5         5         5         5         5         5
         5         5         5         5         5         5         5         5
         5         5         5         5         5         5         5         5
         5         5         5         5         5         5         5         5
         5         5         5         5         5         5         5         5
         5         5         5         5         5         5         5         5
         5         5         5         5         5         5         5         5
         5         5         5         5         5         5         5         5
         5         5         5         5         5         5         5         5
         5         5         5         5         5         5         5         5
         5         5         5         5         5         5         5         5
         5         5         5         5         5         5         5         5
         5         5         5         5         5         5         5         5
         5         5         5         5         5         5         5         5
         5         5         5         5         5         5         5         5
         5         5         5         5         5         5         5         5
         5         5         5         5         5         5         5         5
         5         5         5         5         5         5         5         5
         5         5         5         5         5         5         5         5
         5         5         5         5         5         5         5         5
         5         5         5         5         5         5         5         5
         5         5         5         5         5         5         5         5
         5         5         5         5         5         5         5         5
         5         5         5         5         5         5         5         5
         5         5         5         5         5         5         5         5
         5         5         5         5         5         5         5         5
         5         5         5         5         5         5         5         5
         5         5         5         5         5         5         5         5
         5         5         5         5         5         5         5         5
         5         5         5         5         5         5         5         5
         5         5         5         5         5         5         5         5
         5         5         5         5         5         5         5         5
         5         5         5         5         5         5         5         5
         5         5         5         5         5         5         5         5
         5         5         5         5         5         5         5         5
         5         5         5         5         5         5         5         5
         5         5         5         5         5         5         5         5
         5         5         5         5         5         5         5         5
         5         5         5         5         5         5         5         5
         5         5         5         5         5         5         5         5
         5         5         5         5         5         5         5         5
         5         5         5         5         5         5         5         5
         5         5         5         5         5         5         5         5
         5         5         5         5         5         5         5         5
         5         5         5         5         5         5         5         5
         5         5         5         5         5         5         5         5
         5         5         5         5         5         5         5         5
         5         5         5         5         5         5         5         5
         5         5         5         5         5         5         5         5
         5         5         5         5         5         5         5         5
         5         5         5         5         5         5         5         5
         5         5         5         5         5         5         5         5
         5         5         5         5         5         5         5         5
         5         5         5         5         5         5         5         5
         5         5         5         5         5         5         5         5
         5         5         5         5         5         5         5         5
         5         5         5         5         5         5         5         5
         5         5         5         5         5         5         5         5
         5         5         5         5         5         5         5         5
         5         5         5         5         5         5         5         5
         5         5         5         5         5         5         5         5
         5         5         5         5         5         5         5         5
         5         5         5         5         5         5         5         5
         5         5         5         5         5         5         5         5
         5         5         5         5         5         5         5         5
         5         5         5         5         5         5         5         5
         5         5         5         5         5         5         5         5
         5         5         5         5         5         5         5         5
         5         5         5         5         5         5         5         5
         5         5         5         5         5         5         5         5
         5         5         5         5         5         5         5         5
         5         5         5         5         5         5         5         5
         5         5         5         5         5         5         5         5
         5         5         5         5         5         5         5         5
         5         5         5         5         5         5         5         5
         5         5         5         5         5         5         5         5
         5         5         5         5         5         5         5         5
         5         5         5         5         5         5         5         5
         5         5         5         5         5         5         5         5
         5         5         5         5         5         5         5         5
         5         5         5         5         5         5         5         5
         5         5         5         5         5         5         5         5
         5         5         5         5         5         5         5         5
         5         5         5         5         5         5         5         5
         5         5         5         5         5         5         5         5
         5         5         5         5         5         5         5         5
         5         5         5         5         5         5         5         5
         5         5         5         5         5         5         5         5
         5         5         5         5         5         5         5         5
         5         5         5         5         5         5         5         5
         5         5         5         5         5         5         5         5
         5         5         5         5         5         5         5         5
         5         5         5         5         5         5         5         5
         5         5         5         5         5         5         5         5
         5         5         5         5         5         5         5         5
         5         5         5         5         5         5         5         5
         5         5         5         5         5         5         5         5
         5         5         5         5         5         5         5         5
         5         5         5         5         5         5         5         5
         5         5         5         5         5         5         5         5
         5         5         5         5         5         5         5         5
         5         5         5         5         5         5         5         5
         5         5         5         5         5         5         5         5
         5         5         5         5         5         5         5         5
         5         5         5         5         5         5         5         5
         5         5         5         5         5         5         5         5
         5         5         5         5         5         5         5         5
         5         5         5         5         5         5         5         5
         5         5         5         5         5         5         5         5
         5         5         5         5         5         5         5         5
         5         5         5         5         5         5         5         5
         5         5         5         5         5         5         5         5
         5         5         5         5         5         5         5         5
         5         5         5         5         5         5         5         5
         5         5         5         5         5         5         5         5
         5         5         5         5         5         5         5         5
         5         5         5         5         5         5         5         5
         5         5         5         5         5         5         5         5
         5         5         5         5         5         5         5         5
         5         5         5         5         5         5         5         5
         5         5         5         5         5         5         5         5
         5         5         5         5         5         5         5         5
         5         5         5         5         5         5         5         5
         5         5         5         5         5         5         5         5
         5         5         5         5         5         5         5         5
         5         5         5         5         5         5         5         5
         5         5         5         5         5         5         5         5
         5         5         5         5         5         5         5         5
         5         5         5         5         5         5         5         5
         5         5         5         5         5         5         5         5
         5         5         5         5         5         5         5         5
         5         5         5         5         5         5         5         5
         5         5         5         5         5         5         5         5
         5         5         5         5         5         5         5         5
         5         5         5         5         5         5         5         5
         5         5         5         5         5         5         5         5
         5         5         5         5         5         5         5         5
         5         5         5         5         5         5         5         5
         5         5         5         5         5         5         5         5
         5         5         5         5         5         5         5         5
         5         5         5         5         5         5         5         5
         5         5         5         5         5         5         5         5
         5         5         5         5         5         5         5         5
         5         5         5         5         5         5         5         5
         5         5         5         5         5         5         5         5
         5         5         5         5         5         5         5         5
         5         5         5         5         5         5         5         5
         5         5         5         5         5         5         5         5
         5         5         5         5         5         5         5         5
         5         5         5         5         5         5         5         5
         5         5         5         5         5         5         5         5
         5         5         5         5         5         5         5         5
         5         5         5         5         5         5         5         5
         5         5         5         5         5         5         5         5
         5         5         5         5         5         5         5         5
         5         5         5         5         5         5         5         5
         5         5         5         5         5         5         5         5
         5         5         5         5         5         5         5         5
         5         5         5         5         5         5         5         5
         5         5         5         5         5         5         5         5
         5         5         5         5         5         5         5         5
         5         5         5         5         5         5         5         5
         5         5         5         5         5         5         5         5
         5         5         5         5         5         5         5         5
         5         5         5         5         5         5         5         5
         5         5         5         5         5         5         5         5
         5         5         5         5         5         5         5         5
         5         5         5         5         5         5         5         5
         5         5         5         5         5         5         5         5
         5         5         5         5         5         5         5         5
         5         5         5         5         5         5         5         5
         5         5         5         5         5         5         5         5
         5         5         5         5         5         5         5         5
         5         5         5         5         5         5         5         5
         5         5         5         5         5         5         5         5
         5         5         5         5         5         5         5         5
         5         5         5         5         5         5         5         5
         5         5         5         5         5         5         5         5
         5         5         5         5         5         5         5         5
         5         5         5         5         5         5         5         5
         5         5         5         5         5         5         5         5
         5         5         5         5         5         5         5         5
         5         5         5         5         5         5         5         5
         5         5         5         5         5         5         5         5
         5         5         5         5         5         5         5         5
         5         5         5         5         5         5         5         5
         5         5         5         5         5         5         5         5
         5         5         5         5         5         5         5         5
         5         5         5         5         5         5         5         5
         5         5         5         5         5         5         5         5
         5         5         5         5         5         5         5         5
         5         5         5         5         5         5         5         5
         5         5         5         5         5         5         5         5
         5         5         5         5         5         5         5         5
         5         5         5         5         5         5         5         5
         5         5         5         5         5         5         5         5
         5         5         5         5         5         5         5         5
         5         5         5         5         5         5         5         5
         5         5         5         5         5         5         5         5
         5         5         5         5         5         5         5         5
         5         5         5         5         5         5         5         5
         5         5         5         5         5         5         5         5
         5         5         5         5         5         5         5         5
         5         5         5         5         5         5         5         5
         5         5         5         5         5         5         5         5
         5         5         5         5         5         5         5         5
         5         5         5         5         5         5         5         5
         5         5         5         5         5         5         5         5
         5         5         5         5         5         5         5         5
         5         5         5         5         5         5         5         5
         5         5         5         5         5         5         5         5
         5         5         5         5         5         5         5         5
         5         5         5         5         5         5         5         5
         5         5         5         5         5         5         5         5
         5         5         5         5         5         5         5         5
         5         5         5         5         5         5         5         5
         5         5         5         5         5         5         5         5
         5         5         5         5         5         5         5         5
         5         5         5         5         5         5         5         5
         5         5         5         5         5         5         5         5
         5         5         5         5         5         5         5         5
         5         5         5         5         5         5         5         5
         5         5         5         5         5         5         5         5
         5         5         5         5         5         5         5         5
         5         5         5         5         5         5         5         5
         5         5         5         5         5         5         5         5
         5         5         5         5         5         5         5         5
         5         5         5         5         5         5         5         5
         5         5         5         5         5         5         5         5
         5         5         5         5         5         5         5         5
         5         5         5         5         5         5         5         5
         5         5         5         5         5         5         5         5
         5         5         5         5         5         5         5         5
         5         5         5         5         5         5         5         5
         5         5         5         5         5         5         5         5
         5         5         5         5         5         5         5         5
         5         5         5         5         5         5         5         5
         5         5         5         5         5         5         5         5
         5         5         5         5         5         5         5         5
         5         5         5         5         5         5         5         5
         5         5         5         5         5         5         5         5
         5         5         5         5         5         5         5         5
         5         5         5         5         5         5         5         5
         5         5         5         5         5         5         5         5
         5         5         5         5         5         5         5         5
         5         5         5         5         5         5         5         5
         5         5         5         5         5         5         5         5
         5         5         5         5         5         5         5         5
         5         5         5         5         5         5         5         5
         5         5         5         5         5         5         5         5
         5         5         5         5         5         5         5         5
         5         5         5         5         5         5         5         5
         5         5         5         5         5         5         5         5
         5         5         5         5         5         5         5         5
         5         5         5         5         5         5         5         5
         5         5         5         5         5         5         5         5
         5         5         5         5         5         5         5         5
         5         5         5         5         5         5         5         5
         5         5         5         5         5         5         5         5
         5         5         5         5         5         5         5         5
         5         5         5         5         5         5         5         5
         5         5         5         5         5         5         5         5
         5         5         5         5         5         5         5         5
         5         5         5         5         5         5         5         5
         5         5         5         5         5         5         5         5
         5         5         5         5         5         5         5         5
         5         5         5         5         5         5         5         5
         5         5         5         5         5         5         5         5
         5         5         5         5         5         5         5         5
         5         5         5         5         5         5         5         5
         5         5         5         5         5         5         5         5
         5         5         5         5         5         5         5         5
         5         5         5         5         5         5         5         5
         5         5         5         5         5         5         5         5
         5         5         5         5         5         5         5         5
         5         5         5         5         5         5         5         5
         5         5         5         5         5         5         5         5
         5         5         5         5         5         5         5         5
         5         5         5         5         5         5         5         5
         5         5         5         5         5         5         5         5
         5         5         5         5         5         5         5         5
         5         5         5         5         5         5         5         5
         5         5         5         5         5         5         5         5
         5         5         5         5         5         5         5         5
         5         5         5         5         5         5         5         5
         5         5         5         5         5         5         5         5
         5         5         5         5         5         5         5         5
         5         5         5         5         5         5         5         5
         5         5         5         5         5         5         5         5
         5         5         5         5         5         5         5         5
         5         5         5         5         5         5         5         5
         5         5         5         5         5         5         5         5
         5         5         5         5         5         5         5         5
         5         5         5         5         5         5         5         5
         5         5         5         5         5         5         5         5
         5         5         5         5         5         5         5         5
         5         5         5         5         5         5         5         5
         5         5         5         5         5         5         5         5
         5         5         5         5         5         5         5         5
         5         5         5         5         5         5         5         5
         5         5         5         5         5         5         5         5
         5         5         5         5         5         5         5         5
         5         5         5         5         5         5         5         5
         5         5         5         5         5         5         5         5
         5         5         5         5         5         5         5         5
         5         5         5         5         5         5         5         5
         5         5         5         5         5         5         5         5
         5         5         5         5         5         5         5         5
         5         5         5         5         5         5         5         5
         5         5         5         5         5         5         5         5
         5         5         5         5         5         5         5         5
         5         5         5         5         5         5         5         5
         5         5         5         5         5         5         5         5
         5         5         5         5         5         5         5         5
         5         5         5         5         5         5         5         5
         5         5         5         5         5         5         5         5
         5         5         5         5         5         5         5         5
         5         5         5         5         5         5         5         5
         5         5         5         5         5         5         5         5
         5         5         5         5         5         5         5         5
         5         5         5         5         5         5         5         5
         5         5         5         5         5         5         5         5
         5         5         5         5         5         5         5         5
         5         5         5         5         5         5         5         5
         5         5         5         5         5         5         5         5
         5         5         5         5         5         5         5         5
         5         5         5         5         5         5         5         5
         5         5         5         5         5         5         5         5
         5         5         5         5         5         5         5         5
         5         5         5         5         5         5         5         5
         5         5         5         5         5         5         5         5
         5         5         5         5         5         5         5         5
         5         5         5         5         5         5         5         5
         5         5         5         5         5         5         5         5
         5         5         5         5         5         5         5         5
         5         5         5         5         5         5         5         5
         5         5         5         5         5         5         5         5
         5         5         5         5         5         5         5         5
         5         5         5         5         5         5         5         5
         5         5         5         5         5         5         5         5
         5         5         5         5         5         5         5         5
         5         5         5         5         5         5         5         5
         5         5         5         5         5         5         5         5
         5         5         5         5         5         5         5         5
         5         5         5         5         5         5         5         5
         5         5         5         5         5         5         5         5
         5         5         5         5         5         5         5         5
         5         5         5         5         5         5         5         5
         5         5         5         5         5         5         5         5
         5         5         5         5         5         5         5         5
         5         5         5         5         5         5         5         5
         5         5         5         5         5         5         5         5
         5         5         5         5         5         5         5         5
         5         5         5         5         5         5         5         5
         5         5         5         5         5         5         5         5
         5         5         5         5         5         5         5         5
         5         5         5         5         5         5         5         5
         5         5         5         5         5         5         5         5
         5         5         5         5         5         5         5         5
         5         5         5         5         5         5         5         5
         5         5         5         5         5         5         5         5
         5         5         5         5         5         5         5         5
         5         5         5         5         5         5         5         5
         5         5         5         5         5         5         5         5
         5         5         5         5         5         5         5         5
         5         5         5         5         5         5         5         5
         5         5         5         5         5         5         5         5
         5         5         5         5         5         5         5         5
         5         5         5         5         5         5         5         5
         5         5         5         5         5         5         5         5
         5         5         5         5         5         5         5         5
         5         5         5         5         5         5         5         5
         5         5         5         5         5         5         5         5
         5         5         5         5         5         5         5         5
         5         5         5         5         5         5         5         5
         5         5         5         5         5         5         5         5
         5         5         5         5         5         5         5         5
         5         5         5         5         5         5         5         5
         5         5         5         5         5         5         5         5
         5         5         5         5         5         5         5         5
         5         5         5         5         5         5         5         5
         5         5         5         5         5         5         5         5
         5         5         5         5         5         5         5         5
         5         5         5         5         5         5         5         5
         5         5         5         5         5         5         5         5
         5         5         5         5         5         5         5         5
         5         5         5         5         5         5         5         5
         5         5         5         5         5         5         5         5
         5         5         5         5         5         5         5         5
         5         5         5         5         5         5         5         5
         5         5         5         5         5         5         5         5
         5         5         5         5         5         5         5         5
         5         5         5         5         5         5         5         5
         5         5         5         5         5         5         5         5
         5         5         5         5         5         5         5         5
         5         5         5         5         5         5         5         5
         5         5         5         5         5         5         5         5
         5         5         5         5         5         5         5         5
         5         5         5         5         5         5         5         5
         5         5         5         5         5         5         5         5
         5         5         5         5         5         5         5         5
         5         5         5         5         5         5         5         5
         5         5         5         5         5         5         5         5
         5         5         5         5         5         5         5         5
         5         5         5         5         5         5         5         5
         5         5         5         5         5         5         5         5
         5         5         5         5         5         5         5         5
         5         5         5         5         5         5         5         5
         5         5         5         5         5         5         5         5
         5         5         5         5         5         5         5         5
         5         5         5         5         5         5         5         5
         5         5         5         5         5         5         5         5
         5         5         5         5         5         5         5         5
         5         5         5         5         5         5         5         5
         5         5         5         5         5         5         5         5
         5         5         5         5         5         5         5         5
         5         5         5         5         5         5         5         5
         5         5         5         5         5         5         5         5
         5         5         5         5         5         5         5         5
         5         5         5         5         5         5         5         5
         5         5         5         5         5         5         5         5
         5         5         5         5         5         5         5         5
         5         5         5         5         5         5         5         5
         5         5         5         5         5         5         5         5
         5         5         5         5         5         5         5         5
         5         5         5         5         5         5         5         5
         5         5         5         5         5         5         5         5
         5         5         5         5         5         5         5         5
         5         5         5         5         5         5         5         5
         5         5         5         5         5         5         5         5
         5         5         5         5         5         5         5         5
         5         5         5         5         5         5         5         5
         5         5         5         5         5         5         5         5
         5         5         5         5         5         5         5         5
         5         5         5         5         5         5         5         5
         5         5         5         5         5         5         5         5
         5         5         5         5         5         5         5         5
         5         5         5         5         5         5         5         5
         5         5         5         5         5         5         5         5
         5         5         5         5         5         5         5         5
         5         5         5         5         5         5         5         5
         5         5         5         5         5         5         5         5
         5         5         5         5         5         5         5         5
         5         5         5         5         5         5         5         5
         5         5         5         5         5         5         5         5
         5         5         5         5         5         5         5         5
         5         5         5         5         5         5         5         5
         5         5         5         5         5         5         5         5
         5         5         5         5         5         5         5         5
         5         5         5         5         5         5         5         5
         5         5         5         5         5         5         5         5
         5         5         5         5         5         5         5         5
         5         5         5         5         5         5         5         5
         5         5         5         5         5         5         5         5
         5         5         5         5         5         5         5         5
         5         5         5         5         5         5         5         5
         5         5         5         5         5         5         5         5
         5         5         5         5         5         5         5         5
         5         5         5         5         5         5         5         5
         5         5         5         5         5         5         5         5
         5         5         5         5         5         5         5         5
         5         5         5         5         5         5         5         5
         5         5         5         5         5         5         5         5
         5         5         5         5         5         5         5         5
         5         5         5         5         5         5         5         5
         5         5         5         5         5         5         5         5
         5         5         5         5         5         5         5         5
         5         5         5         5         5         5         5         5
         5         5         5         5         5         5         5         5
         5         5         5         5         5         5         5         5
         5         5         5         5         5         5         5         5
         5         5         5         5         5         5         5         5
         5         5         5         5         5         5         5         5
         5         5         5         5         5         5         5         5
         5         5         5         5         5         5         5         5
         5         5         5         5         5         5         5         5
         5         5         5         5         5         5         5         5
         5         5         5         5         5         5         5         5
         5         5         5         5         5         5         5         5
         5         5         5         5         5         5         5         5
         5         5         5         5         5         5         5         5
         5         5         5         5         5         5         5         5
         5         5         5         5         5         5         5         5
         5         5         5         5         5         5         5         5
         5         5         5         5         5         5         5         5
         5         5         5         5         5         5         5         5
         5         5         5         5         5         5         5         5
         5         5         5         5         5         5         5         5
         5         5         5         5         5         5         5         5
         5         5         5         5         5         5         5         5
         5         5         5         5         5         5         5         5
         5         5         5         5         5         5         5         5
         5         5         5         5         5         5         5         5
         5         5         5         5         5         5         5         5
         5         5         5         5         5         5         5         5
         5         5         5         5         5         5         5         5
         5         5         5         5         5         5         5         5
         5         5         5         5         5         5         5         5
         5         5         5         5         5         5         5         5
         5         5         5         5         5         5         5         5
         5         5         5         5         5         5         5         5
         5         5         5         5         5         5         5         5
         5         5         5         5         5         5         5         5
         5         5         5         5         5         5         5         5
         5         5         5         5         5         5         5         5
         5         5         5         5         5         5         5         5
         5         5         5         5         5         5         5         5
         5         5         5         5         5         5         5         5
         5         5         5         5         5         5         5         5
         5         5         5         5         5         5         5         5
         5         5         5         5         5         5         5         5
         5         5         5         5         5         5         5         5
         5         5         5         5         5         5         5         5
         5         5         5         5         5         5         5         5
         5         5         5         5         5         5         5         5
         5         5         5         5         5         5         5         5
         5         5         5         5         5         5         5         5
         5         5         5         5         5         5         5         5
         5         5         5         5         5         5         5         5
         5         5         5         5         5         5         5         5
         5         5         5         5         5         5         5         5
         5         5         5         5         5         5         5         5
         5         5         5         5         5         5         5         5
         5         5         5         5         5         5         5         5
         5         5         5         5         5         5         5         5
         5         5         5         5         5         5         5         5
         5         5         5         5         5         5         5         5
         5         5         5         5         5         5         5         5
         5         5         5         5         5         5         5         5
         5         5         5         5         5         5         5         5
         5         5         5         5         5         5         5         5
         5         5         5         5         5         5         5         5
         5         5         5         5         5         5         5         5
         5         5         5         5         5         5         5         5
         5         5         5         5         5         5         5         5
         5         5         5         5         5         5         5         5
         5         5         5         5         5         5         5         5
         5         5         5         5         5         5         5         5
         5         5         5         5         5         5         5         5
         5         5         5         5         5         5         5         5
         5         5         5         5         5         5         5         5
         5         5         5         5         5         5         5         5
         5         5         5         5         5         5         5         5
         5         5         5         5         5         5         5         5
         5         5         5         5         5         5         5         5
         5         5         5         5         5         5         5         5
         5         5         5         5         5         5         5         5
         5         5         5         5         5         5         5         5
         5         5         5         5         5         5         5         5
         5         5         5         5         5         5         5         5
         5         5         5         5         5         5         5         5
         5         5         5         5         5         5         5         5
         5         5         5         5         5         5         5         5
         5         5         5         5         5         5         5         5
         5         5         5         5         5         5         5         5
         5         5         5         5         5         5         5         5
         5         5         5         5         5         5         5         5
         5         5         5         5         5         5         5         5
         5         5         5         5         5         5         5         5
         5         5         5         5         5         5         5         5
         5         5         5         5         5         5         5         5
         5         5         5         5         5         5         5         5
         5         5         5         5         5         5         5         5
         5         5         5         5         5         5         5         5
         5         5         5         5         5         5         5         5
         5         5         5         5         5         5         5         5
         5         5         5         5         5         5         5         5
         5         5         5         5         5         5         5         5
         5         5         5         5         5         5         5         5
         5         5         5         5         5         5         5         5
         5         5         5         5         5         5         5         5
         5         5         5         5         5         5         5         5
         5         5         5         5         5         5         5         5
         5         5         5         5         5         5         5         5
         5         5         5         5         5         5         5         5
         5         5         5         5         5         5         5         5
         5         5         5         5         5         5         5         5
         5         5         5         5         5         5         5         5
         5         5         5         5         5         5         5         5
         5         5         5         5         5         5         5         5
         5         5         5         5         5         5         5         5
         5         5         5         5         5         5         5         5
         5         5         5         5         5         5         5         5
         5         5         5         5         5         5         5         5
         5         5         5         5         5         5         5         5
         5         5         5         5         5         5         5         5
         5         5         5         5         5         5         5         5
         5         5         5         5         5         5         5         5
         5         5         5         5         5         5         5         5
         5         5         5         5         5         5         5         5
         5         5         5         5         5         5         5         5
         5         5         5         5         5         5         5         5
         5         5         5         5         5         5         5         5
         5         5         5         5         5         5         5         5
         5         5         5         5         5         5         5         5
         5         5         5         5         5         5         5         5
         5         5         5         5         5         5         5         5
         5         5         5         5         5         5         5         5
         5         5         5         5         5         5         5         5
         5         5         5         5         5         5         5         5
         5         5         5         5         5         5         5         5
         5         5         5         5         5         5         5         5
         5         5         5         5         5         5         5         5
         5         5         5         5         5         5         5         5
         5         5         5         5         5         5         5         5
         5         5         5         5         5         5         5         5
         5         5         5         5         5         5         5         5
         5         5         5         5         5         5         5         5
         5         5         5         5         5         5         5         5
         5         5         5         5         5         5         5         5
         5         5         5         5         5         5         5         5
         5         5         5         5         5         5         5         5
         5         5         5         5         5         5         5         5
         5         5         5         5         5         5         5         5
         5         5         5         5         5         5         5         5
         5         5         5         5         5         5         5         5
         5         5         5         5         5         5         5         5
         5         5         5         5         5         5         5         5
         5         5         5         5         5         5         5         5
         5         5         5         5         5         5         5         5
         5         5         5         5         5         5         5         5
         5         5         5         5         5         5         5         5
         5         5         5         5         5         5         5         5
         5         5         5         5         5         5         5         5
         5         5         5         5         5         5         5         5
         5         5         5         5         5         5         5         5
         5         5         5         5         5         5         5         5
         5         5         5         5         5         5         5         5
         5         5         5         5         5         5         5         5
         5         5         5         5         5         5         5         5
         5         5         5         5         5         5         5         5
         5         5         5         5         5         5         5         5
         5         5         5         5         5         5         5         5
         5         5         5         5         5         5         5         5
         5         5         5         5         5         5         5         5
         5         5         5         5         5         5         5         5
         5         5         5         5         5         5         5         5
         5         5         5         5         5         5         5         5
         5         5         5         5         5         5         5         5
         5         5         5         5         5         5         5         5
         5         5         5         5         5         5         5         5
         5         5         5         5         5         5         5         5
         5         5         5         5         5         5         5         5
         5         5         5         5         5         5         5         5
         5         5         5         5         5         5         5         5
         5         5         5         5         5         5         5         5
         5         5         5         5         5         5         5         5
         5         5         5         5         5         5         5         5
         5         5         5         5         5         5         5         5
         5         5         5         5         5         5         5         5
         5         5         5         5         5         5         5         5
         5         5         5         5         5         5         5         5
         5         5         5         5         5         5         5         5
         5         5         5         5         5         5         5         5
         5         5         5         5         5         5         5         5
         5         5         5         5         5         5         5         5
         5         5         5         5         5         5         5         5
         5         5         5         5         5         5         5         5
         5         5         5         5         5         5         5         5
         5         5         5         5         5         5         5         5
         5         5         5         5         5         5         5         5
         5         5         5         5         5         5         5         5
         5         5         5         5         5         5         5         5
         5         5         5         5         5         5         5         5
         5         5         5         5         5         5         5         5
         5         5         5         5         5         5         5         5
         5         5         5         5         5         5         5         5
         5         5         5         5         5         5         5         5
         5         5         5         5         5         5         5         5
         5         5         5         5         5         5         5         5
         5         5         5         5         5         5         5         5
         5         5         5         5         5         5         5         5
         5         5         5         5         5         5         5         5
         5         5         5         5         5         5         5         5
         5         5         5         5         5         5         5         5
         5         5         5         5         5         5         5         5
         5         5         5         5         5         5         5         5
         5         5         5         5         5         5         5         5
         5         5         5         5         5         5         5         5
         5         5         5         5         5         5         5         5
         5         5         5         5         5         5         5         5
         5         5         5         5         5         5         5         5
         5         5         5         5         5         5         5         5
         5         5         5         5         5         5         5         5
         5         5         5         5         5         5         5         5
         5         5         5         5         5         5         5         5
         5         5         5         5         5         5         5         5
         5         5         5         5         5         5         5         5
         5         5         5         5         5         5         5         5
         5         5         5         5         5         5         5         5
         5         5         5         5         5         5         5         5
         5         5         5         5         5         5         5         5
         5         5         5         5         5         5         5         5
         5         5         5         5         5         5         5         5
         5         5         5         5         5         5         5         5
         5         5         5         5         5         5         5         5
         5         5         5         5         5         5         5         5
         5         5         5         5         5         5         5         5
         5         5         5         5         5         5         5         5
         5         5         5         5         5         5         5         5
         5         5         5         5         5         5         5         5
         5         5         5         5         5         5         5         5
         5         5         5         5         5         5         5         5
         5         5         5         5         5         5         5         5
         5         5         5         5         5         5         5         5
         5         5         5         5         5         5         5         5
         5         5         5         5         5         5         5         5
         5         5         5         5         5         5         5         5
         5         5         5         5         5         5         5         5
         5         5         5         5         5         5         5         5
         5         5         5         5         5         5         5         5
         5         5         5         5         5         5         5         5
         5         5         5         5         5         5         5         5
         5         5         5         5         5         5         5         5
         5         5         5         5         5         5         5         5
         5         5         5         5         5         5         5         5
         5         5         5         5         5         5         5         5
         5         5         5         5         5         5         5         5
         5         5         5         5         5         5         5         5
         5         5         5         5         5         5         5         5
         5         5         5         5         5         5         5         5
         5         5         5         5         5         5         5         5
         5         5         5         5         5         5         5         5
         5         5         5         5         5         5         5         5
         5         5         5         5         5         5         5         5
         5         5         5         5         5         5         5         5
         5         5         5         5         5         5         5         5
         5         5         5         5         5         5         5         5
         5         5         5         5         5         5         5         5
         5         5         5         5         5         5         5         5
         5         5         5         5         5         5         5         5
         5         5         5         5         5         5         5         5
         5         5         5         5         5         5         5         5
         5         5         5         5         5         5         5         5
         5         5         5         5         5         5         5         5
         5         5         5         5         5         5         5         5
         5         5         5         5         5         5         5         5
         5         5         5         5         5         5         5         5
         5         5         5         5         5         5         5         5
         5         5         5         5         5         5         5         5
         5         5         5         5         5         5         5         5
         5         5         5         5         5         5         5         5
         5         5         5         5         5         5         5         5
         5         5         5         5         5         5         5         5
         5         5         5         5         5         5         5         5
         5         5         5         5         5         5         5         5
         5         5         5         5         5         5         5         5
         5         5         5         5         5         5         5         5
         5         5         5         5         5         5         5         5
         5         5         5         5         5         5         5         5
         5         5         5         5         5         5         5         5
         5         5         5         5         5         5         5         5
         5         5         5         5         5         5         5         5
         5         5         5         5         5         5         5         5
         5         5         5         5         5         5         5         5
         5         5         5         5         5         5         5         5
         5         5         5         5         5         5         5         5
         5         5         5         5         5         5         5         5
         5         5         5         5         5         5         5         5
         5         5         5         5         5         5         5         5
         5         5         5         5         5         5         5         5
         5         5         5         5         5         5         5         5
         5         5         5         5         5         5         5         5
         5         5         5         5         5         5         5         5
         5         5         5         5         5         5         5         5
         5         5         5         5         5         5         5         5
         5         5         5         5         5         5         5         5
         5         5         5         5         5         5         5         5
         5         5         5         5         5         5         5         5
         5         5         5         5         5         5         5         5
         5         5         5         5         5         5         5         5
         5         5         5         5         5         5         5         5
         5         5         5         5         5         5         5         5
         5         5         5         5         5         5         5         5
         5         5         5         5         5         5         5         5
         5         5         5         5         5         5         5         5
         5         5         5         5         5         5         5         5
         5         5         5         5         5         5         5         5
         5         5         5         5         5         5         5         5
         5         5         5         5         5         5         5         5
         5         5         5         5         5         5         5         5
         5         5         5         5         5         5         5         5
         5         5         5         5         5         5         5         5
         5         5         5         5         5         5         5         5
         5         5         5         5         5         5         5         5
         5         5         5         5         5         5         5         5
         5         5         5         5         5         5         5         5
         5         5         5         5         5         5         5         5
         5         5         5         5         5         5         5         5
         5         5         5         5         5         5         5         5
         5         5         5         5         5         5         5         5
         5         5         5         5         5         5         5         5
         5         5         5         5         5         5         5         5
         5         5         5         5         5         5         5         5
         5         5         5         5         5         5         5         5
         5         5         5         5         5         5         5         5
         5         5         5         5         5         5         5         5
         5         5         5         5         5         5         5         5
         5         5         5         5         5         5         5         5
         5         5         5         5         5         5         5         5
         5         5         5         5         5         5         5         5
         5         5         5         5         5         5         5         5
         5         5         5         5         5         5         5         5
         5         5         5         5         5         5         5         5
         5         5         5         5         5         5         5         5
         5         5         5         5         5         5         5         5
         5         5         5         5         5         5         5         5
         5         5         5         5         5         5         5         5
         5         5         5         5         5         5         5         5
         5         5         5         5         5         5         5         5
         5         5         5         5         5         5         5         5
         5         5         5         5         5         5         5         5
         5         5         5         5         5         5         5         5
         5         5         5         5         5         5         5         5
         5         5         5         5         5         5         5         5
         5         5         5         5         5         5         5         5
         5         5         5         5         5         5         5         5
         5         5         5         5         5         5         5         5
         5         5         5         5         5         5         5         5
         5         5         5         5         5         5         5         5
         5         5         5         5         5         5         5         5
         5         5         5         5         5         5         5         5
         5         5         5         5         5         5         5         5
         5         5         5         5         5         5         5         5
         5         5         5         5         5         5         5         5
         5         5         5         5         5         5         5         5
         5         5         5         5         5         5         5         5
         5         5         5         5         5         5         5         5
         5         5         5         5         5         5         5         5
         5         5         5         5         5         5         5         5
         5         5         5         5         5         5         5         5
         5         5         5         5         5         5         5         5
         5         5         5         5         5         5         5         5
         5         5         5         5         5         5         5         5
         5         5         5         5         5         5         5         5
         5         5         5         5         5         5         5         5
         5         5         5         5         5         5         5         5
         5         5         5         5         5         5         5         5
         5         5         5         5         5         5         5         5
         5         5         5         5         5         5         5         5
         5         5         5         5         5         5         5         5
         5         5         5         5         5         5         5         5
         5         5         5         5         5         5         5         5
         5         5         5         5         5         5         5         5
         5         5         5         5         5         5         5         5
         5         5         5         5         5         5         5         5
         5         5         5         5         5         5         5         5
         5         5         5         5         5         5         5         5
         5         5         5         5         5         5         5         5
         5         5         5         5         5         5         5         5
         5         5         5         5         5         5         5         5
         5         5         5         5         5         5         5         5
         5         5         5         5         5         5         5         5
         5         5         5         5         5         5         5         5
         5         5         5         5         5         5         5         5
         5         5         5         5         5         5         5         5
         5         5         5         5         5         5         5         5
         5         5         5         5         5         5         5         5
         5         5         5         5         5         5         5         5
         5         5         5         5         5         5         5         5
         5         5         5         5         5         5         5         5
         5         5         5         5         5         5         5         5
         5         5         5         5         5         5         5         5
         5         5         5         5         5         5         5         5
         5         5         5         5         5         5         5         5
         5         5         5         5         5         5         5         5
         5         5         5         5         5         5         5         5
         5         5         5         5         5         5         5         5
         5         5         5         5         5         5         5         5
         5         5         5         5         5         5         5         5
         5         5         5         5         5         5         5         5
         5         5         5         5         5         5         5         5
         5         5         5         5         5         5         5         5
         5         5         5         5         5         5         5         5
         5         5         5         5         5         5         5         5
         5         5         5         5         5         5         5         5
         5         5         5         5         5         5         5         5
         5         5         5         5         5         5         5         5
         5         5         5         5         5         5         5         5
         5         5         5         5         5         5         5         5
         5         5         5         5         5         5         5         5
         5         5         5         5         5         5         5         5
         5         5         5         5         5         5         5         5
         5         5         5         5         5         5         5         5
         5         5         5         5         5         5         5         5
         5         5         5         5         5         5         5         5
         5         5         5         5         5         5         5         5
         5         5         5         5         5         5         5         5
         5         5         5         5         5         5         5         5
         5         5         5         5         5         5         5         5
         5         5         5         5         5         5         5         5
         5         5         5         5         5         5         5         5
         5         5         5         5         5         5         5         5
         5         5         5         5         5         5         5         5
         5         5         5         5         5         5         5         5
         5         5         5         5         5         5         5         5
         5         5         5         5         5         5         5         5
         5         5         5         5         5         5         5         5
         5         5         5         5         5         5         5         5
         5         5         5         5         5         5         5         5
         5         5         5         5         5         5         5         5
         5         5         5         5         5         5         5         5
         5         5         5         5         5         5         5         5
         5         5         5         5         5         5         5         5
         5         5         5         5         5         5         5         5
         5         5         5         5         5         5         5         5
         5         5         5         5         5         5         5         5
         5         5         5         5         5         5         5         5
         5         5         5         5         5         5         5         5
         5         5         5         5         5         5         5         5
         5         5         5         5         5         5         5         5
         5         5         5         5         5         5         5         5
         5         5         5         5         5         5         5         5
         5         5         5         5         5         5         5         5
         5         5         5         5         5         5         5         5
         5         5         5         5         5         5         5         5
         5         5         5         5         5         5         5         5
         5         5         5         5         5         5         5         5
         5         5         5         5         5         5         5         5
         5         5         5         5         5         5         5         5
         5         5         5         5         5         5         5         5
         5         5         5         5         5         5         5         5
         5         5         5         5         5         5         5         5
         5         5         5         5         5         5         5         5
         5         5         5         5         5         5         5         5
         5         5         5         5         5         5         5         5
         5         5         5         5         5         5         5         5
         5         5         5         5         5         5         5         5
         5         5         5         5         5         5         5         5
         5         5         5         5         5         5         5         5
         5         5         5         5         5         5         5         5
         5         5         5         5         5         5         5         5
         5         5         5         5         5         5         5         5
         5         5         5         5         5         5         5         5
         5         5         5         5         5         5         5         5
         5         5         5         5         5         5         5         5
         5         5         5         5         5         5         5         5
         5         5         5         5         5         5         5         5
         5         5         5         5         5         5         5         5
         5         5         5         5         5         5         5         5
         5         5         5         5         5         5         5         5
         5         5         5         5         5         5         5         5
         5         5         5         5         5         5         5         5
         5         5         5         5         5         5         5         5
         5         5         5         5         5         5         5         5
         5         5         5         5         5         5         5         5
         5         5         5         5         5         5         5         5
         5         5         5         5         5         5         5         5
         5         5         5         5         5         5         5         5
         5         5         5         5         5         5         5         5
         5         5         5         5         5         5         5         5
         5         5         5         5         5         5         5         5
         5         5         5         5         5         5         5         5
         5         5         5         5         5         5         5         5
         5         5         5         5         5         5         5         5
         5         5         5         5         5         5         5         5
         5         5         5         5         5         5         5         5
         5         5         5         5         5         5         5         5
         5         5         5         5         5         5         5         5
         5         5         5         5         5         5         5         5
         5         5         5         5         5         5         5         5
         5         5         5         5         5         5         5         5
         5         5         5         5         5         5         5         5
         5         5         5         5         5         5         5         5
         5         5         5         5         5         5         5         5
         5         5         5         5         5         5         5         5
         5         5         5         5         5         5         5         5
         5         5         5         5         5         5         5         5
         5         5         5         5         5         5         5         5
         5         5         5         5         5         5         5         5
         5         5         5         5         5         5         5         5
         5         5         5         5         5         5         5         5
         5         5         5         5         5         5         5         5
         5         5         5         5         5         5         5         5
         5         5         5         5         5         5         5         5
         5         5         5         5         5         5         5         5
         5         5         5         5         5         5         5         5
         5         5         5         5         5         5         5         5
         5         5         5         5         5         5         5         5
         5         5         5         5         5         5         5         5
         5         5         5         5         5         5         5         5
         5         5         5         5         5         5         5         5
         5         5         5         5         5         5         5         5
         5         5         5         5         5         5         5         5
         5         5         5         5         5         5         5         5
         5         5         5         5         5         5         5         5
         5         5         5         5         5         5         5         5
         5         5         5         5         5         5         5         5
         5         5         5         5         5         5         5         5
         5         5         5         5         5         5         5         5
         5         5         5         5         5         5         5         5
         5         5         5         5         5         5         5         5
         5         5         5         5         5         5         5         5
         5         5         5         5         5         5         5         5
         5         5         5         5         5         5         5         5
         5         5         5         5         5         5         5         5
         5         5         5         5         5         5         5         5
         5         5         5         5         5         5         5         5
         5         5         5         5         5         5         5         5
         5         5         5         5         5         5         5         5
         5         5         5         5         5         5         5         5
         5         5         5         5         5         5         5         5
         5         5         5         5         5         5         5         5
         5         5         5         5         5         5         5         5
         5         5         5         5         5         5         5         5
         5         5         5         5         5         5         5         5
         5         5         5         5         5         5         5         5
         5         5         5         5         5         5         5         5
         5         5         5         5         5         5         5         5
         5         5         5         5         5         5         5         5
         5         5         5         5         5         5         5         5
         5         5         5         5         5         5         5         5
         5         5         5         5         5         5         5         5
         5         5         5         5         5         5         5         5
         5         5         5         5         5         5         5         5
         5         5         5         5         5         5         5         5
         5         5         5         5         5         5         5         5
         5         5         5         5         5         5         5         5
         5         5         5         5         5         5         5         5
         5         5         5         5         5         5         5         5
         5         5         5         5         5         5         5         5
         5         5         5         5         5         5         5         5
         5         5         5         5         5         5         5         5
         5         5         5         5         5         5         5         5
         5         5         5         5         5         5         5         5
         5         5         5         5         5         5         5         5
         5         5         5         5         5         5         5         5
         5         5         5         5         5         5         5         5
         5         5         5         5         5         5         5         5
         5         5         5         5         5         5         5         5
         5         5         5         5         5         5         5         5
         5         5         5         5         5         5         5         5
         5         5         5         5         5         5         5         5
         5         5         5         5         5         5         5         5
         5         5         5         5         5         5         5         5
         5         5         5         5         5         5         5         5
         5         5         5         5         5         5         5         5
         5         5         5         5         5         5         5         5
         5         5         5         5         5         5         5         5
         5         5         5         5         5         5         5         5
         5         5         5         5         5         5         5         5
         5         5         5         5         5         5         5         5
         5         5         5         5         5         5         5         5
         5         5         5         5         5         5         5         5
         5         5         5         5         5         5         5         5
         5         5         5         5         5         5         5         5
         5         5         5         5         5         5         5         5
         5         5         5         5         5         5         5         5
         5         5         5         5         5         5         5         5
         5         5         5         5         5         5         5         5
         5         5         5         5         5         5         5         5
         5         5         5         5         5         5         5         5
         5         5         5         5         5         5         5         5
         5         5         5         5         5         5         5         5
         5         5         5         5         5         5         5         5
         5         5         5         5         5         5         5         5
         5         5         5         5         5         5         5         5
         5         5         5         5         5         5         5         5
         5         5         5         5         5         5         5         5
         5         5         5         5         5         5         5         5
         5         5         5         5         5         5         5         5
         5         5         5         5         5         5         5         5
         5         5         5         5         5         5         5         5
         5         5         5         5         5         5         5         5
         5         5         5         5         5         5         5         5
         5         5         5         5         5         5         5         5
         5         5         5         5         5         5         5         5
         5         5         5         5         5         5         5         5
         5         5         5         5         5         5         5         5
         5         5         5         5         5         5         5         5
         5         5         5         5         5         5         5         5
         5         5         5         5         5         5         5         5
         5         5         5         5         5         5         5         5
         5         5         5         5         5         5         5         5
         5         5         5         5         5         5         5         5
         5         5         5         5         5         5         5         5
         5         5         5         5         5         5         5         5
         5         5         5         5         5         5         5         5
         5         5         5         5         5         5         5         5
         5         5         5         5         5         5         5         5
         5         5         5         5         5         5         5         5
         5         5         5         5         5         5         5         5
         5         5         5         5         5         5         5         5
         5         5         5         5         5         5         5         5
         5         5         5         5         5         5         5         5
         5         5         5         5         5         5         5         5
         5         5         5         5         5         5         5         5
         5         5         5         5         5         5         5         5
         5         5         5         5         5         5         5         5
         5         5         5         5         5         5         5         5
         5         5         5         5         5         5         5         5
         5         5         5         5         5         5         5         5
         5         5         5         5         5         5         5         5
         5         5         5         5         5         5         5         5
         5         5         5         5         5         5         5         5
         5         5         5         5         5         5         5         5
         5         5         5         5         5         5         5         5
         5         5         5         5         5         5         5         5
         5         5         5         5         5         5         5         5
         5         5         5         5         5         5         5         5
         5         5         5         5         5         5         5         5
         5         5         5         5         5         5         5         5
         5         5         5         5         5         5         5         5
         5         5         5         5         5         5         5         5
         5         5         5         5         5         5         5         5
         5         5         5         5         5         5         5         5
         5         5         5         5         5         5         5         5
         5         5         5         5         5         5         5         5
         5         5         5         5         5         5         5         5
         5         5         5         5         5         5         5         5
         5         5         5         5         5         5         5         5
         5         5         5         5         5         5         5         5
         5         5         5         5         5         5         5         5
         5         5         5         5         5         5         5         5
         5         5         5         5         5         5         5         5
         5         5         5         5         5         5         5         5
         5         5         5         5         5         5         5         5
         5         5         5         5         5         5         5         5
         5         5         5         5         5         5         5         5
         5         5         5         5         5         5         5         5
         5         5         5         5         5         5         5         5
         5         5         5         5         5         5         5         5
         5         5         5         5         5         5         5         5
         5         5         5         5         5         5         5         5
         5         5         5         5         5         5         5         5
         5         5         5         5         5         5         5         5
         5         5         5         5         5         5         5         5
         5         5         5         5         5         5         5         5
         5         5         5         5         5         5         5         5
         5         5         5         5         5         5         5         5
         5         5         5         5         5         5         5         5
         5         5         5         5         5         5         5         5
         5         5         5         5         5         5         5         5
         5         5         5         5         5         5         5         5
         5         5         5         5         5         5         5         5
         5         5         5         5         5         5         5         5
         5         5         5         5         5         5         5         5
         5         5         5         5         5         5         5         5
         5         5         5         5         5         5         5         5
         5         5         5         5         5         5         5         5
         5         5         5         5         5         5         5         5
         5         5         5         5         5         5         5         5
         5         5         5         5         5         5         5         5
         5         5         5         5         5         5         5         5
         5         5         5         5         5         5         5         5
         5         5         5         5         5         5         5         5
         5         5         5         5         5         5         5         5
         5         5         5         5         5         5         5         5
         5         5         5         5         5         5         5         5
         5         5         5         5         5         5         5         5
         5         5         5         5         5         5         5         5
         5         5         5         5         5         5         5         5
         5         5         5         5         5         5         5         5
         5         5         5         5         5         5         5         5
         5         5         5         5         5         5         5         5
         5         5         5         5         5         5         5         5
         5         5         5         5         5         5         5         5
         5         5         5         5         5         5         5         5
         5         5         5         5         5         5         5         5
         5         5         5         5         5         5         5         5
         5         5         5         5         5         5         5         5
         5         5         5         5         5         5         5         5
         5         5         5         5         5         5         5         5
         5         5         5         5         5         5         5         5
         5         5         5         5         5         5         5         5
         5         5         5         5         5         5         5         5
         5         5         5         5         5         5         5         5
         5         5         5         5         5         5         5         5
         5         5         5         5         5         5         5         5
         5         5         5         5         5         5         5         5
         5         5         5         5         5         5         5         5
         5         5         5         5         5         5         5         5
         5         5         5         5         5         5         5         5
         5         5         5         5         5         5         5         5
         5         5         5         5         5         5         5         5
         5         5         5         5         5         5         5         5
         5         5         5         5         5         5         5         5
         5         5         5         5         5         5         5         5
         5         5         5         5         5         5         5         5
         5         5         5         5         5         5         5         5
         5         5         5         5         5         5         5         5
         5         5         5         5         5         5         5         5
         5         5         5         5         5         5         5         5
         5         5         5         5         5         5         5         5
         5         5         5         5         5         5         5         5
         5         5         5         5         5         5         5         5
         5         5         5         5         5         5         5         5
         5         5         5         5         5         5         5         5
         5         5         5         5         5         5         5         5
         5         5         5         5         5         5         5         5
         5         5         5         5         5         5         5         5
         5         5         5         5         5         5         5         5
         5         5         5         5         5         5         5         5
         5         5         5         5         5         5         5         5
         5         5         5         5         5         5         5         5
         5         5         5         5         5         5         5         5
         5         5         5         5         5         5         5         5
         5         5         5         5         5         5         5         5
         5         5         5         5         5         5         5         5
         5         5         5         5         5         5         5         5
         5         5         5         5         5         5         5         5
         5         5         5         5         5         5         5         5
         5         5         5         5         5         5         5         5
         5         5         5         5         5         5         5         5
         5         5         5         5         5         5         5         5
         5         5         5         5         5         5         5         5
         5         5         5         5         5         5         5         5
         5         5         5         5         5         5         5         5
         5         5         5         5         5         5         5         5
         5         5         5         5         5         5         5         5
         5         5         5         5         5         5         5         5
         5         5         5         5         5         5         5         5
         5         5         5         5         5         5         5         5
         5         5         5         5         5         5         5         5
         5         5         5         5         5         5         5         5
         5         5         5         5         5         5         5         5
         5         5         5         5         5         5         5         5
         5         5         5         5         5         5         5         5
         5         5         5         5         5         5         5         5
         5         5         5         5         5         5         5         5
         5         5         5         5         5         5         5         5
         5         5         5         5         5         5         5         5
         5         5         5         5         5         5         5         5
         5         5         5         5         5         5         5         5
         5         5         5         5         5         5         5         5
         5         5         5         5         5         5         5         5
         5         5         5         5         5         5         5         5
         5         5         5         5         5         5         5         5
         5         5         5         5         5         5         5         5
         5         5         5         5         5         5         5         5
         5         5         5         5         5         5         5         5
         5         5         5         5         5         5         5         5
         5         5         5         5         5         5         5         5
         5         5         5         5         5         5         5         5
         5         5         5         5         5         5         5         5
         5         5         5         5         5         5         5         5
         5         5         5         5         5         5         5         5
         5         5         5         5         5         5         5         5
         5         5         5         5         5         5         5         5
         5         5         5         5         5         5         5         5
         5         5         5         5         5         5         5         5
         5         5         5         5         5         5         5         5
         5         5         5         5         5         5         5         5
         5         5         5         5         5         5         5         5
         5         5         5         5         5         5         5         5
         5         5         5         5         5         5         5         5
         5         5         5         5         5         5         5         5
         5         5         5         5         5         5         5         5
         5         5         5         5         5         5         5         5
         5         5         5         5         5         5         5         5
         5         5         5         5         5         5         5         5
         5         5         5         5         5         5         5         5
         5         5         5         5         5         5         5         5
         5         5         5         5         5         5         5         5
         5         5         5         5         5         5         5         5
         5         5         5         5         5         5         5         5
         5         5         5         5         5         5         5         5
         5         5         5         5         5         5         5         5
         5         5         5         5         5         5         5         5
         5         5         5         5         5         5         5         5
         5         5         5         5         5         5         5         5
         5         5         5         5         5         5         5         5
         5         5         5         5         5         5         5         5
         5         5         5         5         5         5         5         5
         5         5         5         5         5         5         5         5
         5         5         5         5         5         5         5         5
         5         5         5         5         5         5         5         5
         5         5         5         5         5         5         5         5
         5         5         5         5         5         5         5         5
         5         5         5         5         5         5         5         5
         5         5         5         5         5         5         5         5
         5         5         5         5         5         5         5         5
         5         5         5         5         5         5         5         5
         5         5         5         5         5         5         5         5
         5         5         5         5         5         5         5         5
         5         5         5         5         5         5         5         5
         5         5         5         5         5         5         5         5
         5         5         5         5         5         5         5         5
         5         5         5         5         5         5         5         5
         5         5         5         5         5         5         5         5
         5         5         5         5         5         5         5         5
         5         5         5         5         5         5         5         5
         5         5         5         5         5         5         5         5
         5         5         5         5         5         5         5         5
         5         5         5         5         5         5         5         5
         5         5         5         5         5         5         5         5
         5         5         5         5         5         5         5         5
         5         5         5         5         5         5         5         5
         5         5         5         5         5         5         5         5
         5         5         5         5         5         5         5         5
         5         5         5         5         5         5         5         5
         5         5         5         5         5         5         5         5
         5         5         5         5         5         5         5         5
         5         5         5         5         5         5         5         5
         5         5         5         5         5         5         5         5
         5         5         5         5         5         5         5         5
         5         5         5         5         5         5         5         5
         5         5         5         5         5         5         5         5
         5         5         5         5         5         5         5         5
         5         5         5         5         5         5         5         5
         5         5         5         5         5         5         5         5
         5         5         5         5         5         5         5         5
         5         5         5         5         5         5         5         5
         5         5         5         5         5         5         5         5
         5         5         5         5         5         5         5         5
         5         5         5         5         5         5         5         5
         5         5         5         5         5         5         5         5
         5         5         5         5         5         5         5         5
         5         5         5         5         5         5         5         5
         5         5         5         5         5         5         5         5
         5         5         5         5         5         5         5         5
         5         5         5         5         5         5         5         5
         5         5         5         5         5         5         5         5
         5         5         5         5         5         5         5         5
         5         5         5         5         5         5         5         5
         5         5         5         5         5         5         5         5
         5         5         5         5         5         5         5         5
         5         5         5         5         5         5         5         5
         5         5         5         5         5         5         5         5
         5         5         5         5         5         5         5         5
         5         5         5         5         5         5         5         5
         5         5         5         5         5         5         5         5
         5         5         5         5         5         5         5         5
         5         5         5         5         5         5         5         5
         5         5         5         5         5         5         5         5
         5         5         5         5         5         5         5         5
         5         5         5         5         5         5         5         5
         5         5         5         5         5         5         5         5
         5         5         5         5         5         5         5         5
         5         5         5         5         5         5         5         5
         5         5         5         5         5         5         5         5
         5         5         5         5         5         5         5         5
         5         5         5         5         5         5         5         5
         5         5         5         5         5         5         5         5
         5         5         5         5         5         5         5         5
         5         5         5         5         5         5         5         5
         5         5         5         5         5         5         5         5
         5         5         5         5         5         5         5         5
         5         5         5         5         5         5         5         5
         5         5         5         5         5         5         5         5
         5         5         5         5         5         5         5         5
         5         5         5         5         5         5         5         5
         5         5         5         5         5         5         5         5
         5         5         5         5         5         5         5         5
         5         5         5         5         5         5         5         5
         5         5         5         5         5         5         5         5
         5         5         5         5         5         5         5         5
         5         5         5         5         5         5         5         5
         5         5         5         5         5         5         5         5
         5         5         5         5         5         5         5         5
         5         5         5         5         5         5         5         5
         5         5         5         5         5         5         5         5
         5         5         5         5         5         5         5         5
         5         5         5         5         5         5         5         5
         5         5         5         5         5         5         5         5
         5         5         5         5         5         5         5         5
         5         5         5         5         5         5         5         5
         5         5         5         5         5         5         5         5
         5         5         5         5         5         5         5         5
         5         5         5         5         5         5         5         5
         5         5         5         5         5         5         5         5
         5         5         5         5         5         5         5         5
         5         5         5         5         5         5         5         5
         5         5         5         5         5         5         5         5
         5         5         5         5         5         5         5         5
         5         5         5         5         5         5         5         5
         5         5         5         5         5         5         5         5
         5         5         5         5         5         5         5         5
         5         5         5         5         5         5         5         5
         5         5         5         5         5         5         5         5
         5         5         5         5         5         5         5         5
         5         5         5         5         5         5         5         5
         5         5         5         5         5         5         5         5
         5         5         5         5         5         5         5         5
         5         5         5         5         5         5         5         5
         5         5         5         5         5         5         5         5
         5         5         5         5         5         5         5         5
         5         5         5         5         5         5         5         5
         5         5         5         5         5         5         5         5
         5         5         5         5         5         5         5         5
         5         5         5         5         5         5         5         5
         5         5         5         5         5         5         5         5
         5         5         5         5         5         5         5         5
         5         5         5         5         5         5         5         5
         5         5         5         5         5         5         5         5
         5         5         5         5         5         5         5         5
         5         5         5         5         5         5         5         5
         5         5         5         5         5         5         5         5
         5         5         5         5         5         5         5         5
         5         5         5         5         5         5         5         5
         5         5         5         5         5         5         5         5
         5         5         5         5         5         5         5         5
         5         5         5         5         5         5         5         5
         5         5         5         5         5         5         5         5
         5         5         5         5         5         5         5         5
         5         5         5         5         5         5         5         5
         5         5         5         5         5         5         5         5
         5         5         5         5         5         5         5         5
         5         5         5         5         5         5         5         5
         5         5         5         5         5         5         5         5
         5         5         5         5         5         5         5         5
         5         5         5         5         5         5         5         5
         5         5         5         5         5         5         5         5
         5         5         5         5         5         5         5         5
         5         5         5         5         5         5         5         5
         5         5         5         5         5         5         5         5
         5         5         5         5         5         5         5         5
         5         5         5         5         5         5         5         5
         5         5         5         5         5         5         5         5
         5         5         5         5         5         5         5         5
         5         5         5         5         5         5         5         5
         5         5         5         5         5         5         5         5
         5         5         5         5         5         5         5         5
         5         5         5         5         5         5         5         5
         5         5         5         5         5         5         5         5
         5         5         5         5         5         5         5         5
         5         5         5         5         5         5         5         5
         5         5         5         5         5         5         5         5
         5         5         5         5         5         5         5         5
         5         5         5         5         5         5         5         5
         5         5         5         5         5         5         5         5
         5         5         5         5         5         5         5         5
         5         5         5         5         5         5         5         5
         5         5         5         5         5         5         5         5
         5         5         5         5         5         5         5         5
         5         5         5         5         5         5         5         5
         5         5         5         5         5         5         5         5
         5         5         5         5         5         5         5         5
         5         5         5         5         5         5         5         5
         5         5         5         5         5         5         5         5
         5         5         5         5         5         5         5         5
         5         5         5         5         5         5         5         5
         5         5         5         5         5         5         5         5
         5         5         5         5         5         5         5         5
         5         5         5         5         5         5         5         5
         5         5         5         5         5         5         5         5
         5         5         5         5         5         5         5         5
         5         5         5         5         5         5         5         5
         5         5         5         5         5         5         5         5
         5         5         5         5         5         5         5         5
         5         5         5         5         5         5         5         5
         5         5         5         5         5         5         5         5
         5         5         5         5         5         5         5         5
         5         5         5         5         5         5         5         5
         5         5         5         5         5         5         5         5
         5         5         5         5         5         5         5         5
         5         5         5         5         5         5         5         5
         5         5         5         5         5         5         5         5
         5         5         5         5         5         5         5         5
         5         5         5         5         5         5         5         5
         5         5         5         5         5         5         5         5
         5         5         5         5         5         5         5         5
         5         5         5         5         5         5         5         5
         5         5         5         5         5         5         5         5
         5         5         5         5         5         5         5         5
         5         5         5         5         5         5         5         5
         5         5         5         5         5         5         5         5
         5         5         5         5         5         5         5         5
         5         5         5         5         5         5         5         5
         5         5         5         5         5         5         5         5
         5         5         5         5         5         5         5         5
         5         5         5         5         5         5         5         5
         5         5         5         5         5         5         5         5
         5         5         5         5         5         5         5         5
         5         5         5         5         5         5         5         5
         5         5         5         5         5         5         5         5
         5         5         5         5         5         5         5         5
         5         5         5         5         5         5         5         5
         5         5         5         5         5         5         5         5
         5         5         5         5         5         5         5         5
         5         5         5         5         5         5         5         5
         5         5         5         5         5         5         5         5
         5         5         5         5         5         5         5         5
         5         5         5         5         5         5         5         5
         5         5         5         5         5         5         5         5
         5         5         5         5         5         5         5         5
         5         5         5         5         5         5         5         5
         5         5         5         5         5         5         5         5
         5         5         5         5         5         5         5         5
         5         5         5         5         5         5         5         5
         5         5         5         5         5         5         5         5
         5         5         5         5         5         5         5         5
         5         5         5         5         5         5         5         5
         5         5         5         5         5         5         5         5
         5         5         5         5         5         5         5         5
         5         5         5         5         5         5         5         5
         5         5         5         5         5         5         5         5
         5         5         5         5         5         5         5         5
         5         5         5         5         5         5         5         5
         5         5         5         5         5         5         5         5
         5         5         5         5         5         5         5         5
         5         5         5         5         5         5         5         5
         5         5         5         5         5         5         5         5
         5         5         5         5         5         5         5         5
         5         5         5         5         5         5         5         5
         5         5         5         5         5         5         5         5
         5         5         5         5         5         5         5         5
         5         5         5         5         5         5         5         5
         5         5         5         5         5         5         5         5
         5         5         5         5         5         5         5         5
         5         5         5         5         5         5         5         5
         5         5         5         5         5         5         5         5
         5         5         5         5         5         5         5         5
         5         5         5         5         5         5         5         5
         5         5         5         5         5         5         5         5
         5         5         5         5         5         5         5         5
         5         5         5         5         5         5         5         5
         5         5         5         5         5         5         5         5
         5         5         5         5         5         5         5         5
         5         5         5         5         5         5         5         5
         5         5         5         5         5         5         5         5
         5         5         5         5         5         5         5         5
         5         5         5         5         5         5         5         5
         5         5         5         5         5         5         5         5
         5         5         5         5         5         5         5         5
         5         5         5         5         5         5         5         5
         5         5         5         5         5         5         5         5
         5         5         5         5         5         5         5         5
         5         5         5         5         5         5         5         5
         5         5         5         5         5         5         5         5
         5         5         5         5         5         5         5         5
         5         5         5         5         5         5         5         5
         5         5         5         5         5         5         5         5
         5         5         5         5         5         5         5         5
         5         5         5         5         5         5         5         5
         5         5         5         5         5         5         5         5
         5         5         5         5         5         5         5         5
         5         5         5         5         5         5         5         5
         5         5         5         5         5         5         5         5
         5         5         5         5         5         5         5         5
         5         5         5         5         5         5         5         5
         5         5         5         5         5         5         5         5
         5         5         5         5         5         5         5         5
         5         5         5         5         5         5         5         5
         5         5         5         5         5         5         5         5
         5         5         5         5         5         5         5         5
         5         5         5         5         5         5         5         5
         5         5         5         5         5         5         5         5
         5         5         5         5         5         5         5         5
         5         5         5         5         5         5         5         5
         5         5         5         5         5         5         5         5
         5         5         5         5         5         5         5         5
         5         5         5         5         5         5         5         5
         5         5         5         5         5         5         5         5
         5         5         5         5         5         5         5         5
         5         5         5         5         5         5         5         5
         5         5         5         5         5         5         5         5
         5         5         5         5         5         5         5         5
         5         5         5         5         5         5         5         5
         5         5         5         5         5         5         5         5
         5         5         5         5         5         5         5         5
         5         5         5         5         5         5         5         5
         5         5         5         5         5         5         5         5
         5         5         5         5         5         5         5         5
         5         5         5         5         5         5         5         5
         5         5         5         5         5         5         5         5
         5         5         5         5         5         5         5         5
         5         5         5         5         5         5         5         5
         5         5         5         5         5         5         5         5
         5         5         5         5         5         5         5         5
         5         5         5         5         5         5         5         5
         5         5         5         5         5         5         5         5
         5         5         5         5         5         5         5         5
         5         5         5         5         5         5         5         5
         5         5         5         5         5         5         5         5
         5         5         5         5         5         5         5         5
         5         5         5         5         5         5         5         5
         5         5         5         5         5         5         5         5
         5         5         5         5         5         5         5         5
         5         5         5         5         5         5         5         5
         5         5         5         5         5         5         5         5
         5         5         5         5         5         5         5         5
         5         5         5         5         5         5         5         5
         5         5         5         5         5         5         5         5
         5         5         5         5         5         5         5         5
         5         5         5         5         5         5         5         5
         5         5         5         5         5         5         5         5
         5         5         5         5         5         5         5         5
         5         5         5         5         5         5         5         5
         5         5         5         5         5         5         5         5
         5         5         5         5         5         5         5         5
         5         5         5         5         5         5         5         5
         5         5         5         5         5         5         5         5
         5         5         5         5         5         5         5         5
         5         5         5         5         5         5         5         5
         5         5         5         5         5         5         5         5
         5         5         5         5         5         5         5         5
         5         5         5         5         5         5         5         5
         5         5         5         5         5         5         5         5
         5         5         5         5         5         5         5         5
         5         5         5         5         5         5         5         5
         5         5         5         5         5         5         5         5
         5         5         5         5         5         5         5         5
         5         5         5         5         5         5         5         5
         5         5         5         5         5         5         5         5
         5         5         5         5         5         5         5         5
         5         5         5         5         5         5         5         5
         5         5         5         5         5         5         5         5
         5         5         5         5         5         5         5         5
         5         5         5         5         5         5         5         5
         5         5         5         5         5         5         5         5
         5         5         5         5         5         5         5         5
         5         5         5         5         5         5         5         5
         5         5         5         5         5         5         5         5
         5         5         5         5         5         5         5         5
         5         5         5         5         5         5         5         5
         5         5         5         5         5         5         5         5
         5         5         5         5         5         5         5         5
         5         5         5         5         5         5         5         5
         5         5         5         5         5         5         5         5
         5         5         5         5         5         5         5         5
         5         5         5         5         5         5         5         5
         5         5         5         5         5         5         5         5
         5         5         5         5         5         5         5         5
         5         5         5         5         5         5         5         5
         5         5         5         5         5         5         5         5
         5         5         5         5         5         5         5         5
         5         5         5         5         5         5         5         5
         5         5         5         5         5         5         5         5
         5         5         5         5         5         5         5         5
         5         5         5         5         5         5         5         5
         5         5         5         5         5         5         5         5
         5         5         5         5         5         5         5         5
         5         5         5         5         5         5         5         5
         5         5         5         5         5         5         5         5
         5         5         5         5         5         5         5         5
         5         5         5         5         5         5         5         5
         5         5         5         5         5         5         5         5
         5         5         5         5         5         5         5         5
         5         5         5         5         5         5         5         5
         5         5         5         5         5         5         5         5
         5         5         5         5         5         5         5         5
         5         5         5         5         5         5         5         5
         5         5         5         5         5         5         5         5
         5         5         5         5         5         5         5         5
         5         5         5         5         5         5         5         5
         5         5         5         5         5         5         5         5
         5         5         5         5         5         5         5         5
         5         5         5         5         5         5         5         5
         5         5         5         5         5         5         5         5
         5         5         5         5         5         5         5         5
         5         5         5         5         5         5         5         5
         5         5         5         5         5         5         5         5
         5         5         5         5         5         5         5         5
         5         5         5         5         5         5         5         5
         5         5         5         5         5         5         5         5
         5         5         5         5         5         5         5         5
         5         5         5         5         5         5         5         5
         5         5         5         5         5         5         5         5
         5         5         5         5         5         5         5         5
         5         5         5         5         5         5         5         5
         5         5         5         5         5         5         5         5
         5         5         5         5         5         5         5         5
         5         5         5         5         5         5         5         5
         5         5         5         5         5         5         5         5
         5         5         5         5         5         5         5         5
         5         5         5         5         5         5         5         5
         5         5         5         5         5         5         5         5
         5         5         5         5         5         5         5         5
         5         5         5         5         5         5         5         5
         5         5         5         5         5         5         5         5
         5         5         5         5         5         5         5         5
         5         5         5         5         5         5         5         5
         5         5         5         5         5         5         5         5
         5         5         5         5         5         5         5         5
         5         5         5         5         5         5         5         5
         5         5         5         5         5         5         5         5
         5         5         5         5         5         5         5         5
         5         5         5         5         5         5         5         5
         5         5         5         5         5         5         5         5
         5         5         5         5         5         5         5         5
         5         5         5         5         5         5         5         5
         5         5         5         5         5         5         5         5
         5         5         5         5         5         5         5         5
         5         5         5         5         5         5         5         5
         5         5         5         5         5         5         5         5
         5         5         5         5         5         5         5         5
         5         5         5         5         5         5         5         5
         5         5         5         5         5         5         5         5
         5         5         5         5         5         5         5         5
         5         5         5         5         5         5         5         5
         5         5         5         5         5         5         5         5
         5         5         5         5         5         5         5         5
         5         5         5         5         5         5         5         5
         5         5         5         5         5         5         5         5
         5         5         5         5         5         5         5         5
         5         5         5         5         5         5         5         5
         5         5         5         5         5         5         5         5
         5         5         5         5         5         5         5         5
         5         5         5         5         5         5         5         5
         5         5         5         5         5         5         5         5
         5         5         5         5         5         5         5         5
         5         5         5         5         5         5         5         5
         5         5         5         5         5         5         5         5
         5         5         5         5         5         5         5         5
         5         5         5         5         5         5         5         5
         5         5         5         5         5         5         5         5
         5         5         5         5         5         5         5         5
         5         5         5         5         5         5         5         5
         5         5         5         5         5         5         5         5
         5         5         5         5         5         5         5         5
         5         5         5         5         5         5         5         5
         5         5         5         5         5         5         5         5
         5         5         5         5         5         5         5         5
         5         5         5         5         5         5         5         5
         5         5         5         5         5         5         5         5
         5         5         5         5         5         5         5         5
         5         5         5         5         5         5         5         5
         5         5         5         5         5         5         5         5
         5         5         5         5         5         5         5         5
         5         5         5         5         5         5         5         5
         5         5         5         5         5         5         5         5
         5         5         5         5         5         5         5         5
         5         5         5         5         5         5         5         5
         5         5         5         5         5         5         5         5
         5         5         5         5         5         5         5         5
         5         5         5         5         5         5         5         5
         5         5         5         5         5         5         5         5
         5         5         5         5         5         5         5         5
         5         5         5         5         5         5         5         5
         5         5         5         5         5         5         5         5
         5         5         5         5         5         5         5         5
         5         5         5         5         5         5         5         5
         5         5         5         5         5         5         5         5
         5         5         5         5         5         5         5         5
         5         5         5         5         5         5         5         5
         5         5         5         5         5         5         5         5
         5         5         5         5         5         5         5         5
         5         5         5         5         5         5         5         5
         5         5         5         5         5         5         5         5
         5         5         5         5         5         5         5         5
         5         5         5         5         5         5         5         5
         5         5         5         5         5         5         5         5
         5         5         5         5         5         5         5         5
         5         5         5         5         5         5         5         5
         5         5         5         5         5         5         5         5
         5         5         5         5         5         5         5         5
         5         5         5         5         5         5         5         5
         5         5         5         5         5         5         5         5
         5         5         5         5         5         5         5         5
         5         5         5         5         5         5         5         5
         5         5         5         5         5         5         5         5
         5         5         5         5         5         5         5         5
         5         5         5         5         5         5         5         5
         5         5         5         5         5         5         5         5
         5         5         5         5         5         5         5         5
         5         5         5         5         5         5         5         5
         5         5         5         5         5         5         5         5
         5         5         5         5         5         5         5         5
         5         5         5         5         5         5         5         5
         5         5         5         5         5         5         5         5
         5         5         5         5         5         5         5         5
         5         5         5         5         5         5         5         5
         5         5         5         5         5         5         5         5
         5         5         5         5         5         5         5         5
         5         5         5         5         5         5         5         5
         5         5         5         5         5         5         5         5
         5         5         5         5         5         5         5         5
         5         5         5         5         5         5         5         5
         5         5         5         5         5         5         5         5
         5         5         5         5         5         5         5         5
         5         5         5         5         5         5         5         5
         5         5         5         5         5         5         5         5
         5         5         5         5         5         5         5         5
         5         5         5         5         5         5         5         5
         5         5         5         5         5         5         5         5
         5         5         5         5         5         5         5         5
         5         5         5         5         5         5         5         5
         5         5         5         5         5         5         5         5
         5         5         5         5         5         5         5         5
         5         5         5         5         5         5         5         5
         5         5         5         5         5         5         5         5
         5         5         5         5         5         5         5         5
         5         5         5         5         5         5         5         5
         5         5         5         5         5         5         5         5
         5         5         5         5         5         5         5         5
         5         5         5         5         5         5         5         5
         5         5         5         5         5         5         5         5
         5         5         5         5         5         5         5         5
         5         5         5         5         5         5         5         5
         5         5         5         5         5         5         5         5
         5         5         5         5         5         5         5         5
         5         5         5         5         5         5         5         5
         5         5         5         5         5         5         5         5
         5         5         5         5         5         5         5         5
         5         5         5         5         5         5         5         5
         5         5         5         5         5         5         5         5
         5         5         5         5         5         5         5         5
         5         5         5         5         5         5         5         5
         5         5         5         5         5         5         5         5
         5         5         5         5         5         5         5         5
         5         5         5         5         5         5         5         5
         5         5         5         5         5         5         5         5
         5         5         5         5         5         5         5         5
         5         5         5         5         5         5         5         5
         5         5         5         5         5         5         5         5
         5         5         5         5         5         5         5         5
         5         5         5         5         5         5         5         5
         5         5         5         5         5         5         5         5
         5         5         5         5         5         5         5         5
         5         5         5         5         5         5         5         5
         5         5         5         5         5         5         5         5
         5         5         5         5         5         5         5         5
         5         5         5         5         5         5         5         5
         5         5         5         5         5         5         5         5
         5         5         5         5         5         5         5         5
         5         5         5         5         5         5         5         5
         5         5         5         5         5         5         5         5
         5         5         5         5         5         5         5         5
         5         5         5         5         5         5         5         5
         5         5         5         5         5         5         5         5
         5         5         5         5         5         5         5         5
         5         5         5         5         5         5         5         5
         5         5         5         5         5         5         5         5
         5         5         5         5         5         5         5         5
         5         5         5         5         5         5         5         5
         5         5         5         5         5         5         5         5
         5         5         5         5         5         5         5         5
         5         5         5         5         5         5         5         5
         5         5         5         5         5         5         5         5
         5         5         5         5         5         5         5         5
         5         5         5         5         5         5         5         5
         5         5         5         5         5         5         5         5
         5         5         5         5         5         5         5         5
         5         5         5         5         5         5         5         5
         5         5         5         5         5         5         5         5
         5         5         5         5         5         5         5         5
         5         5         5         5         5         5         5         5
         5         5         5         5         5         5         5         5
         5         5         5         5         5         5         5         5
         5         5         5         5         5         5         5         5
         5         5         5         5         5         5         5         5
         5         5         5         5         5         5         5         5
         5         5         5         5         5         5         5         5
         5         5         5         5         5         5         5         5
         5         5         5         5         5         5         5         5
         5         5         5         5         5         5         5         5
         5         5         5         5         5         5         5         5
         5         5         5         5         5         5         5         5
         5         5         5         5         5         5         5         5
         5         5         5         5         5         5         5         5
         5         5         5         5         5         5         5         5
         5         5         5         5         5         5         5         5
         5         5         5         5         5         5         5         5
         5         5         5         5         5         5         5         5
         5         5         5         5         5         5         5         5
         5         5         5         5         5         5         5         5
         5         5         5         5         5         5         5         5
         5         5         5         5         5         5         5         5
         5         5         5         5         5         5         5         5
         5         5         5         5         5         5         5         5
         5         5         5         5         5         5         5         5
         5         5         5         5         5         5         5         5
         5         5         5         5         5         5         5         5
         5         5         5         5         5         5         5         5
         5         5         5         5         5         5         5         5
         5         5         5         5         5         5         5         5
         5         5         5         5         5         5         5         5
         5         5         5         5         5         5         5         5
         5         5         5         5         5         5         5         5
         5         5         5         5         5         5         5         5
         5         5         5         5         5         5         5         5
         5         5         5         5         5         5         5         5
         5         5         5         5         5         5         5         5
         5         5         5         5         5         5         5         5
         5         5         5         5         5         5         5         5
         5         5         5         5         5         5         5         5
         5         5         5         5         5         5         5         5
         5         5         5         5         5         5         5         5
         5         5         5         5         5         5         5         5
         5         5         5         5         5         5         5         5
         5         5         5         5         5         5         5         5
         5         5         5         5         5         5         5         5
         5         5         5         5         5         5         5         5
         5         5         5         5         5         5         5         5
         5         5         5         5         5         5         5         5
         5         5         5         5         5         5         5         5
         5         5         5         5         5         5         5         5
         5         5         5         5         5         5         5         5
         5         5         5         5         5         5         5         5
         5         5         5         5         5         5         5         5
         5         5         5         5         5         5         5         5
         5         5         5         5         5         5         5         5
         5         5         5         5         5         5         5         5
         5         5         5         5         5         5         5         5
         5         5         5         5         5         5         5         5
         5         5         5         5         5         5         5         5
         5         5         5         5         5         5         5         5
         5         5         5         5         5         5         5         5
         5         5         5         5         5         5         5         5
         5         5         5         5         5         5         5         5
         5         5         5         5         5         5         5         5
         5         5         5         5         5         5         5         5
         5         5         5         5         5         5         5         5
         5         5         5         5         5         5         5         5
         5         5         5         5         5         5         5         5
         5         5         5         5         5         5         5         5
         5         5         5         5         5         5         5         5
         5         5         5         5         5         5         5         5
         5         5         5         5         5         5         5         5
         5         5         5         5         5         5         5         5
         5         5         5         5         5         5         5         5
         5         5         5         5         5         5         5         5
         5         5         5         5         5         5         5         5
         5         5         5         5         5         5         5         5
         5         5         5         5         5         5         5         5
         5         5         5         5         5         5         5         5
         5         5         5         5         5         5         5         5
         5         5         5         5         5         5         5         5
         5         5         5         5         5         5         5         5
         5         5         5         5         5         5         5         5
         5         5         5         5         5         5         5         5
         5         5         5         5         5         5         5         5
         5         5         5         5         5         5         5         5
         5         5         5         5         5         5         5         5
         5         5         5         5         5         5         5         5
         5         5         5         5         5         5         5         5
         5         5         5         5         5         5         5         5
         5         5         5         5         5         5         5         5
         5         5         5         5         5         5         5         5
         5         5         5         5         5         5         5         5
         5         5         5         5         5         5         5         5
         5         5         5         5         5         5         5         5
         5         5         5         5         5         5         5         5
         5         5         5         5         5         5         5         5
         5         5         5         5         5         5         5         5
         5         5         5         5         5         5         5         5
         5         5         5         5         5         5         5         5
         5         5         5         5         5         5         5         5
         5         5         5         5         5         5         5         5
         5         5         5         5         5         5         5         5
         5         5         5         5         5         5         5         5
         5         5         5         5         5         5         5         5
         5         5         5         5         5         5         5         5
         5         5         5         5         5         5         5         5
         5         5         5         5         5         5         5         5
         5         5         5         5         5         5         5         5

         0         0 !NUMLP NUMLPH

         0 !NCRTERM: cross-terms

